Protein in INSANE! Membrane UpperLeaflet>POPC=1.0 LowerLeaflet>POPC=1.0
12676
    1AU     AUC    1   2.062   9.339   7.205  0.0416 -0.0239  0.0020
    1AU     AUC    2   2.000   9.585   7.375 -0.0587  0.0464  0.0071
    1AU     AUC    3   1.928   9.560   7.089 -0.1027 -0.0014 -0.0453
    1AU     AUC    4   2.216   9.103   7.334  0.1148  0.0522  0.0438
    1AU     AUC    5   2.161   9.103   7.037 -0.0087 -0.0342 -0.0379
    1AU     AUC    6   2.354   9.317   7.113 -0.1336  0.0837 -0.0214
    1AU     AUC    7   2.221   9.588   7.165  0.0518  0.0105  0.0929
    1AU     AUC    8   1.900   9.081   7.239  0.0281 -0.0112  0.0287
    1AU     AUC    9   1.784   9.360   7.245 -0.1068  0.0452  0.0178
    1AU     AUC   10   1.876   9.253   6.981 -0.0408  0.1053  0.0285
    1AU     AUC   11   2.150   9.420   6.925 -0.0745  0.0893  0.0603
    1AU     AUC   12   1.973   9.270   7.491 -0.0344 -0.0480 -0.0392
    1AU     AUC   13   2.260   9.384   7.419 -0.0182  0.0250  0.0234
    1AU     AUC   14   1.948   9.808   7.559  0.0154 -0.0484  0.0584
    1AU     AUC   15   1.865   9.808   7.249 -0.0531  0.0283 -0.0536
    1AU     AUC   16   1.783   9.783   6.950  0.0276 -0.0061 -0.0118
    1AU     AUC   17   2.336   8.886   7.449 -0.0808 -0.0349  0.0020
    1AU     AUC   18   2.302   8.860   7.171  0.0158 -0.0190  0.0011
    1AU     AUC   19   2.239   8.872   6.864 -0.1541 -0.0752 -0.1039
    1AU     AUC   20   2.643   9.298   7.015 -0.0518  0.0888 -0.0114
    1AU     AUC   21   2.527   9.570   7.086 -0.0620  0.0807  0.0355
    1AU     AUC   22   2.405   9.830   7.086  0.0275 -0.0347 -0.0543
    1AU     AUC   23   1.745   8.817   7.275  0.0300  0.1404  0.0227
    1AU     AUC   24   1.624   9.095   7.331 -0.0215 -0.0024 -0.0662
    1AU     AUC   25   1.486   9.392   7.323  0.0648  0.1072  0.0253
    1AU     AUC   26   1.681   9.154   6.775 -0.0035 -0.1189 -0.0143
    1AU     AUC   27   1.946   9.318   6.688 -0.0808 -0.1037 -0.0371
    1AU     AUC   28   2.212   9.480   6.605  0.0357  0.0295 -0.0737
    1AU     AUC   29   1.919   9.209   7.768  0.0276 -0.0567  0.0036
    1AU     AUC   30   2.187   9.355   7.705 -0.0673 -0.0054 -0.0008
    1AU     AUC   31   2.468   9.452   7.632 -0.0279  0.0114 -0.0097
    1AU     AUC   32   1.724   9.494   6.853 -0.0138 -0.0690  0.0132
    1AU     AUC   33   1.981   9.613   6.786 -0.0445 -0.0102 -0.0437
    1AU     AUC   34   1.932   9.524   7.673  0.0622 -0.0419 -0.0198
    1AU     AUC   35   2.193   9.652   7.604  0.0111  0.0096 -0.0034
    1AU     AUC   36   1.950   9.015   6.806  0.0521  0.0042 -0.0052
    1AU     AUC   37   2.210   9.166   6.708  0.0627 -0.0377  0.0152
    1AU     AUC   38   2.127   9.045   7.637  0.0207  0.0366  0.0433
    1AU     AUC   39   2.403   9.157   7.557  0.0651 -0.0092 -0.0055
    1AU     AUC   40   2.177   9.841   7.333  0.0302  0.0405  0.0062
    1AU     AUC   41   2.089   9.813   7.040  0.0274  0.0256  0.1067
    1AU     AUC   42   2.499   9.068   7.249  0.0507 -0.0308 -0.0135
    1AU     AUC   43   2.436   9.086   6.934  0.0064 -0.0107  0.0269
    1AU     AUC   44   1.714   9.595   7.430 -0.0850  0.0116  0.0179
    1AU     AUC   45   1.635   9.599   7.128  0.0340  0.0002  0.1070
    1AU     AUC   46   2.064   8.856   7.389 -0.0605 -0.0191  0.0444
    1AU     AUC   47   1.992   8.847   7.058  0.0834  0.0629 -0.0560
    1AU     AUC   48   2.422   9.373   6.822 -0.0631  0.0585  0.0139
    1AU     AUC   49   2.319   9.666   6.868  0.0164 -0.0319  0.0239
    1AU     AUC   50   1.706   9.000   7.062 -0.0751 -0.0366  0.0137
    1AU     AUC   51   1.575   9.289   7.040 -0.0067  0.0790 -0.1023
    1AU     AUC   52   2.564   9.365   7.341  0.0157 -0.0855  0.0029
    1AU     AUC   53   2.434   9.653   7.355  0.0560 -0.0734 -0.0444
    1AU     AUC   54   1.839   9.018   7.524  0.0183  0.1028 -0.1010
    1AU     AUC   55   1.695   9.309   7.552 -0.0152 -0.0019  0.0400
    1AU    AUSL   56   1.738   9.614   6.640  0.0119 -0.0268 -0.0416
    1AU    AUSL   57   1.362   9.394   6.728  0.0296 -0.0818 -0.0043
    1AU     AUL   58   1.331   9.609   6.434 -0.0025  0.0638 -0.0373
    1AU       S   59   0.975   9.604   6.737  0.5558 -0.1385  0.1895
    1AU     LIG   60   0.589   9.530   6.652  0.3308  0.1428  0.2773
    1AU     LIG   61   0.256   9.331   6.544  0.1138  0.0606  0.2030
    1AU     LIG   62  -0.183   9.233   6.669 -0.1395 -0.1090  0.2095
    1AU     LIG   63  -0.525   9.345   6.908  0.1317 -0.0597  0.3403
    1AU     LIG   64  -0.652   9.685   7.071  0.2173  0.3829 -0.0149
    1AU     LIG   65  -0.715  10.045   6.891  0.2322  0.4952 -0.4311
    1AU       S   66   1.640   9.725   6.038  0.0572 -0.2228  0.0129
    1AU     LIG   67   1.309   9.997   5.895  0.2069 -0.0784  0.1533
    1AU     LIG   68   0.914  10.148   6.052  0.0737 -0.0783  0.1313
    1AU     LIG   69   0.958  10.538   6.380  0.0041  0.0972 -0.1610
    1AU     LIG   70   0.898  10.755   6.781  0.1020  0.0583  0.2106
    1AU     LIG   71   0.957  10.583   7.116  0.1861  0.1392  0.0051
    1AU     LIG   72   1.065  10.744   7.547 -0.1925  0.0577 -0.0394
    1AU    AUSL   73   1.613   9.245   6.444 -0.0067 -0.0129 -0.0525
    1AU    AUSL   74   2.022   9.348   6.404 -0.0241 -0.0962 -0.0728
    1AU     AUL   75   1.761   9.356   6.253 -0.0708  0.0055 -0.0648
    1AU       S   76   1.464   9.534   5.973  0.0005  0.1690 -0.2772
    1AU     LIG   77   1.072   9.258   6.045  0.3590 -0.2168  0.1585
    1AU     LIG   78   0.769   9.159   6.316  0.2179  0.3913  0.2101
    1AU     LIG   79   0.761   8.751   6.464 -0.0902  0.0389  0.0647
    1AU     LIG   80   0.579   8.501   6.881  0.2685 -0.0942 -0.1209
    1AU     LIG   81   0.246   8.196   6.984  0.2516 -0.2376  0.0006
    1AU     LIG   82  -0.089   8.091   6.719 -0.0656  0.2179 -0.1152
    1AU       S   83   1.841   8.977   6.022  0.0742 -0.2471  0.2194
    1AU     LIG   84   1.461   9.080   5.828  0.1202 -0.2360 -0.0462
    1AU     LIG   85   1.158   9.059   5.513  0.2244 -0.1662  0.1602
    1AU     LIG   86   0.979   8.732   5.257  0.1223  0.3385 -0.0888
    1AU     LIG   87   0.884   8.351   5.223 -0.1556  0.0865 -0.1419
    1AU     LIG   88   0.538   8.253   5.445  0.3697 -0.3312  0.1448
    1AU     LIG   89   0.210   8.133   5.851 -0.2160 -0.1873 -0.0396
    1AU    AUSL   90   2.039   9.757   6.396  0.0516  0.0380 -0.0229
    1AU    AUSL   91   1.870  10.002   6.742 -0.0553 -0.0133  0.0146
    1AU     AUL   92   1.706   9.863   6.465 -0.0221  0.0010  0.0056
    1AU       S   93   2.038   9.758   6.144 -0.0164  0.1430  0.2210
    1AU     LIG   94   2.113  10.162   5.857 -0.1989 -0.1482  0.2880
    1AU     LIG   95   1.915  10.595   5.881  0.2050 -0.1191 -0.0746
    1AU     LIG   96   1.987  10.996   6.078 -0.3621 -0.1792 -0.2079
    1AU     LIG   97   2.117  11.310   6.346  0.2471 -0.1684  0.1746
    1AU     LIG   98   2.196  11.582   6.252  0.1306 -0.2067  0.0305
    1AU     LIG   99   2.334  11.775   5.868  0.0782 -0.2538  0.0679
    1AU       S  100   1.734  10.284   6.686 -0.4960 -0.0799  0.4596
    1AU     LIG  101   1.466  10.707   6.804 -0.1602  0.0619  0.2207
    1AU     LIG  102   1.274  11.011   6.996 -0.0265 -0.0245  0.3222
    1AU     LIG  103   0.864  11.052   7.208  0.1490  0.1698  0.4357
    1AU     LIG  104   0.641  11.283   7.464  0.2961  0.3905 -0.4318
    1AU     LIG  105   0.308  11.668   7.633 -0.2296  0.2120  0.3082
    1AU     LIG  106  -0.052  11.978   7.735  0.0407 -0.1823 -0.0522
    1AU    AUSL  107   2.062   9.856   7.825  0.0546  0.0409 -0.0048
    1AU    AUSL  108   2.490   9.837   7.738 -0.0113 -0.0484 -0.0186
    1AU     AUL  109   2.346   9.939   8.046  0.0523  0.0803  0.0046
    1AU       S  110   2.024   9.806   8.404 -0.2496  0.1531  0.6763
    1AU     LIG  111   2.380   9.817   8.771 -0.0403  0.3480 -0.3401
    1AU     LIG  112   2.795   9.950   8.558  0.1646  0.0036  0.1365
    1AU     LIG  113   3.168  10.015   8.245 -0.1199  0.1219 -0.3291
    1AU     LIG  114   3.553   9.931   8.055 -0.3579  0.0919  0.4755
    1AU     LIG  115   4.025   9.885   8.032  0.0403  0.2989  0.1359
    1AU     LIG  116   4.276   9.488   7.840 -0.0198 -0.1750  0.0838
    1AU       S  117   2.575  10.301   7.810 -0.1305 -0.0983  0.1068
    1AU     LIG  118   2.709  10.458   8.258 -0.0359  0.2048  0.0993
    1AU     LIG  119   2.663  10.407   8.728 -0.0433 -0.1080  0.0522
    1AU     LIG  120   2.339  10.305   8.923  0.0597 -0.1406  0.0658
    1AU     LIG  121   1.942  10.059   8.772 -0.0541  0.2012 -0.3604
    1AU     LIG  122   1.601   9.906   8.664  0.3441 -0.4131 -0.3406
    1AU     LIG  123   1.135   9.721   8.688 -0.2033 -0.3358 -0.0109
    1AU    AUSL  124   1.931   9.510   8.056 -0.0554  0.0550 -0.0211
    1AU    AUSL  125   1.653   9.777   7.821  0.0356 -0.0711 -0.0659
    1AU     AUL  126   1.809   9.934   8.013 -0.0368 -0.0448 -0.0026
    1AU       S  127   1.358   9.764   8.100 -0.1361  0.0089 -0.0135
    1AU     LIG  128   1.146  10.146   8.321  0.2447  0.3448  0.1924
    1AU     LIG  129   1.130  10.566   8.097  0.5222 -0.3076 -0.2252
    1AU     LIG  130   1.423  10.818   7.951  0.2602 -0.2079  0.1703
    1AU     LIG  131   1.417  11.201   7.797  0.1222 -0.1186  0.2696
    1AU     LIG  132   1.301  11.320   7.370 -0.2405 -0.3498  0.1317
    1AU     LIG  133   1.076  11.486   7.002 -0.0003  0.2521 -0.1028
    1AU       S  134   1.887   9.547   8.324  0.1878 -0.5435 -0.2022
    1AU     LIG  135   2.019   9.164   8.679  0.0630  0.3763  0.5438
    1AU     LIG  136   2.395   9.063   8.920  0.1662 -0.2107  0.1362
    1AU     LIG  137   2.813   8.888   8.871  0.2251 -0.3529 -0.3285
    1AU     LIG  138   3.222   8.789   8.760 -0.0294  0.1512  0.0844
    1AU     LIG  139   3.677   8.791   8.693  0.0916  0.3310 -0.0271
    1AU     LIG  140   3.958   8.863   8.345 -0.0438 -0.1471 -0.0843
    1AU    AUSL  141   2.270   9.488   7.775 -0.0394 -0.0032  0.0417
    1AU    AUSL  142   2.176   9.170   8.034  0.0055 -0.0402  0.0680
    1AU     AUL  143   2.308   9.499   8.168  0.0573  0.0548 -0.0072
    1AU       S  144   2.400   9.070   8.379 -0.1916 -0.3483  0.1252
    1AU     LIG  145   2.714   9.409   8.629 -0.1561  0.0334  0.3439
    1AU     LIG  146   2.805   9.648   8.977  0.4964 -0.1449  0.0701
    1AU     LIG  147   3.072  10.076   9.000 -0.1216  0.0205 -0.0064
    1AU     LIG  148   3.143  10.325   8.660 -0.2621 -0.1009 -0.0868
    1AU     LIG  149   3.212  10.724   8.622 -0.3789  0.0332  0.2022
    1AU     LIG  150   3.100  11.129   8.600  0.1545  0.3585 -0.2728
    1AU       S  151   1.862   9.469   8.189  0.1792  0.2554 -0.0769
    1AU     LIG  152   1.519   9.382   8.609 -0.2157  0.0251  0.5192
    1AU     LIG  153   1.626   9.188   8.985 -0.2098 -0.0346  0.4971
    1AU     LIG  154   1.468   9.094   9.231 -0.1629  0.0258 -0.1482
    1AU     LIG  155   1.354   9.359   9.545  0.2212 -0.0576  0.1977
    1AU     LIG  156   1.186   9.833   9.622  0.1927  0.0578 -0.3342
    1AU     LIG  157   1.150  10.235   9.576  0.1021 -0.0530  0.0503
    1AU    AUSL  158   2.103   8.942   6.437 -0.0111 -0.0037  0.0314
    1AU    AUSL  159   2.428   9.232   6.423  0.0091 -0.1006 -0.0205
    1AU     AUL  160   2.213   9.251   6.141 -0.1708  0.0861 -0.0627
    1AU       S  161   2.034   8.832   6.038  0.1365 -0.4558 -0.0911
    1AU     LIG  162   2.317   8.457   5.908  0.2735 -0.1805 -0.1940
    1AU     LIG  163   2.462   7.887   5.858 -0.4878  0.1637 -0.1350
    1AU     LIG  164   2.814   7.703   6.021 -0.0151 -0.2196  0.1937
    1AU     LIG  165   3.295   7.632   6.085 -0.2306  0.2939 -0.0235
    1AU     LIG  166   3.674   7.606   6.378  0.2812  0.2873  0.0289
    1AU     LIG  167   3.776   7.855   6.738 -0.2440  0.2298  0.1871
    1AU       S  168   2.523   8.883   6.203 -0.0149 -0.2077 -0.3622
    1AU     LIG  169   2.967   8.676   5.991  0.0356 -0.0544 -0.1585
    1AU     LIG  170   3.171   8.503   6.345  0.0644 -0.3784  0.0964
    1AU     LIG  171   3.486   8.622   6.650 -0.0920 -0.2438 -0.1266
    1AU     LIG  172   3.722   8.280   6.858  0.3694 -0.5042 -0.3662
    1AU     LIG  173   3.645   8.012   7.172  0.1154 -0.2059  0.0684
    1AU     LIG  174   3.509   7.660   7.412 -0.0415 -0.0752  0.0111
    1AU    AUSL  175   1.886   9.118   6.735  0.0480 -0.0397 -0.0120
    1AU    AUSL  176   2.031   8.625   6.708 -0.0370  0.0247  0.0164
    1AU     AUL  177   2.035   8.683   6.468  0.0235  0.0324  0.0281
    1AU       S  178   1.789   8.279   6.513  0.0769 -0.2045 -0.1491
    1AU     LIG  179   1.923   7.873   6.662  0.0521  0.1377 -0.2622
    1AU     LIG  180   2.001   7.421   6.753  0.0688  0.1327  0.1584
    1AU     LIG  181   2.029   6.888   6.722 -0.0610 -0.0847 -0.3280
    1AU     LIG  182   1.810   6.601   6.512  0.2189 -0.3337  0.0893
    1AU     LIG  183   1.741   6.108   6.732 -0.2554 -0.1916 -0.0967
    1AU     LIG  184   1.768   5.654   6.780 -0.0017  0.1411 -0.0766
    1AU       S  185   1.719   8.877   6.156  0.1191 -0.2134 -0.3028
    1AU     LIG  186   1.604   8.397   6.059 -0.0462  0.2944  0.4702
    1AU     LIG  187   1.504   7.981   6.274  0.1480 -0.1796 -0.1422
    1AU     LIG  188   1.448   7.586   6.386 -0.2228  0.1797  0.0646
    1AU     LIG  189   1.580   7.157   6.527  0.1573 -0.0436 -0.0998
    1AU     LIG  190   1.334   6.807   6.623 -0.0854 -0.0341 -0.0248
    1AU     LIG  191   1.366   6.405   6.438  0.4308 -0.0856 -0.0172
    1AU    AUSL  192   2.338   8.944   7.715 -0.0477  0.0890  0.0276
    1AU    AUSL  193   1.909   8.917   7.853 -0.1007 -0.0867  0.0686
    1AU     AUL  194   2.159   8.823   8.073  0.1057 -0.0080 -0.0181
    1AU       S  195   2.532   8.966   8.290 -0.2917  0.1712  0.0993
    1AU     LIG  196   2.860   8.626   8.445  0.1234 -0.1679  0.0512
    1AU     LIG  197   3.168   8.510   8.289  0.0149 -0.1220 -0.2555
    1AU     LIG  198   3.609   8.419   8.101  0.0883 -0.0993  0.2151
    1AU     LIG  199   3.847   8.059   7.934  0.0147 -0.0102  0.0867
    1AU     LIG  200   3.954   7.975   7.527 -0.0080  0.0082 -0.1260
    1AU     LIG  201   4.171   8.122   7.075  0.4056 -0.1188  0.1378
    1AU       S  202   1.847   8.450   8.110 -0.3289 -0.0205 -0.0708
    1AU     LIG  203   1.493   8.140   8.052  0.0123 -0.0594 -0.0827
    1AU     LIG  204   1.420   7.735   8.087  0.0803  0.3142  0.2001
    1AU     LIG  205   1.758   7.355   7.954  0.6356 -0.1638 -0.1661
    1AU     LIG  206   1.891   7.073   7.813  0.5179 -0.0182  0.2447
    1AU     LIG  207   1.892   6.828   7.561  0.3010 -0.2837 -0.2827
    1AU     LIG  208   2.007   6.379   7.510 -0.0124  0.0834 -0.0971
    1AU    AUSL  209   2.588   9.259   7.921 -0.0414  0.1408  0.0411
    1AU    AUSL  210   2.739   8.884   7.594  0.0183 -0.0437  0.0305
    1AU     AUL  211   2.585   8.775   7.879  0.0984  0.0113 -0.0656
    1AU       S  212   2.966   9.033   7.756 -0.1991  0.1191  0.1611
    1AU     LIG  213   3.219   8.592   7.822  0.0354  0.0545  0.3347
    1AU     LIG  214   3.621   8.461   7.561 -0.4582 -0.0898  0.0391
    1AU     LIG  215   4.013   8.463   7.671 -0.1787 -0.0783 -0.1179
    1AU     LIG  216   4.348   8.147   7.705 -0.4446 -0.1811  0.1135
    1AU     LIG  217   4.464   7.811   7.365 -0.1057 -0.4096 -0.1469
    1AU     LIG  218   4.673   7.903   6.931  0.5797 -0.0453  0.1600
    1AU       S  219   2.642   9.192   8.139  0.0614  0.2105 -0.1070
    1AU     LIG  220   3.065   9.056   8.273 -0.3097  0.2653 -0.0119
    1AU     LIG  221   3.524   8.987   7.999  0.0477 -0.0977  0.1462
    1AU     LIG  222   4.002   9.096   7.920  0.0430  0.0718 -0.0158
    1AU     LIG  223   4.238   9.080   7.570  0.0767  0.1277  0.0308
    1AU     LIG  224   4.358   9.099   7.158 -0.1977 -0.4148 -0.2021
    1AU     LIG  225   4.666   8.816   6.967 -0.0333 -0.1087 -0.1038
    1AU    AUSL  226   2.404  10.157   7.154 -0.0405  0.0718  0.0280
    1AU    AUSL  227   2.241  10.116   7.550 -0.0539 -0.0719 -0.0065
    1AU     AUL  228   2.611  10.370   7.314  0.1168  0.0153 -0.0316
    1AU       S  229   2.198  10.320   7.787  0.3573  0.3543  0.1878
    1AU     LIG  230   1.945  10.650   7.957  0.2519  0.0821  0.0167
    1AU     LIG  231   1.885  11.139   7.749 -0.1334  0.2103  0.3351
    1AU     LIG  232   1.759  11.617   7.779 -0.0187  0.4355  0.5964
    1AU     LIG  233   1.894  11.962   7.768 -0.0425 -0.0174 -0.0558
    1AU     LIG  234   2.053  12.305   7.975 -0.3606  0.4475  0.1275
    1AU     LIG  235   2.257  12.729   7.881 -0.2801 -0.1152  0.1023
    1AU       S  236   2.165  10.555   7.329  0.0445 -0.2657 -0.2088
    1AU     LIG  237   2.207  10.988   7.308 -0.2117 -0.0349 -0.1607
    1AU     LIG  238   2.386  11.356   7.238 -0.1272 -0.1412 -0.0306
    1AU     LIG  239   2.470  11.735   7.092 -0.2432 -0.0179 -0.0318
    1AU     LIG  240   2.430  12.161   7.014 -0.0654  0.1840  0.3435
    1AU     LIG  241   2.717  12.605   6.854 -0.2212  0.1384 -0.0728
    1AU     LIG  242   2.723  12.982   6.570 -0.0597  0.0215  0.0727
    1AU    AUSL  243   1.829  10.129   7.517 -0.0717  0.0561  0.0858
    1AU    AUSL  244   1.602  10.039   7.156 -0.0718  0.1196  0.0565
    1AU     AUL  245   1.493  10.291   7.393 -0.0152  0.0020  0.0745
    1AU       S  246   1.914  10.462   7.420 -0.1635  0.4434  0.3406
    1AU     LIG  247   1.685  10.880   7.352 -0.1543 -0.2143 -0.0449
    1AU     LIG  248   1.805  11.247   7.230 -0.2126 -0.1235 -0.4344
    1AU     LIG  249   1.988  11.646   7.185  0.1970 -0.2867 -0.0889
    1AU     LIG  250   1.748  12.048   7.320 -0.0234 -0.1826  0.2476
    1AU     LIG  251   1.659  12.364   7.614  0.1496 -0.0775  0.0168
    1AU     LIG  252   1.351  12.337   7.980 -0.0713 -0.3653 -0.3127
    1AU       S  253   1.067  10.137   7.311  0.2277 -0.0438 -0.3270
    1AU     LIG  254   0.752  10.397   7.488 -0.1453  0.3226 -0.0564
    1AU     LIG  255   0.410  10.376   7.301 -0.1059  0.0509  0.0762
    1AU     LIG  256   0.056  10.277   7.010 -0.0167 -0.2905  0.3451
    1AU     LIG  257  -0.303  10.348   6.796 -0.1390  0.2230  0.0944
    1AU     LIG  258  -0.491  10.243   6.342  0.3244  0.3118  0.3466
    1AU     LIG  259  -0.830  10.244   5.924 -0.1384  0.2833  0.0686
    1AU    AUSL  260   2.005  10.002   7.143  0.0015  0.0058  0.0507
    1AU    AUSL  261   2.279  10.015   6.783 -0.0724  0.0797  0.0929
    1AU     AUL  262   2.181  10.265   6.911  0.0505  0.0650  0.0118
    1AU       S  263   1.997  10.244   6.505  0.2819  0.3220 -0.0490
    1AU     LIG  264   1.756  10.706   6.415  0.0963  0.3603  0.3201
    1AU     LIG  265   1.697  11.117   6.556  0.1530  0.1462 -0.0703
    1AU     LIG  266   1.697  11.476   6.828  0.2374 -0.0948  0.1512
    1AU     LIG  267   1.513  11.717   7.023  0.4658 -0.0536 -0.2290
    1AU     LIG  268   1.238  11.822   7.320  0.4802 -0.0429  0.3475
    1AU     LIG  269   0.961  11.656   7.612 -0.2301 -0.0875 -0.1793
    1AU       S  270   1.899  10.463   7.197 -0.1723  0.0905  0.0588
    1AU     LIG  271   1.932  10.837   6.913  0.1210 -0.0337  0.2202
    1AU     LIG  272   2.134  11.203   6.833  0.0114 -0.0130  0.3734
    1AU     LIG  273   2.560  11.360   6.699  0.0725  0.3113 -0.0201
    1AU     LIG  274   2.798  11.395   6.979 -0.4974 -0.1653 -0.0003
    1AU     LIG  275   3.202  11.560   7.104  0.1446 -0.1961 -0.5337
    1AU     LIG  276   3.611  11.735   6.848 -0.4389 -0.1210  0.1013
    1AU    AUSL  277   2.802   8.955   6.910  0.0367 -0.0201  0.0430
    1AU    AUSL  278   2.433   8.880   6.665 -0.0669  0.0688 -0.1304
    1AU     AUL  279   2.868   9.032   6.612  0.0272  0.0645 -0.0563
    1AU       S  280   2.503   8.705   6.439  0.1867 -0.6325 -0.2267
    1AU     LIG  281   2.718   8.349   6.292  0.1171 -0.2080 -0.1856
    1AU     LIG  282   2.588   7.998   6.361  0.1015  0.1476  0.1803
    1AU     LIG  283   2.560   7.618   6.550 -0.1319 -0.0350  0.2188
    1AU     LIG  284   2.583   7.222   6.656 -0.1467  0.2747 -0.0236
    1AU     LIG  285   2.828   7.108   6.949  0.0149  0.5227  0.3138
    1AU     LIG  286   2.727   6.829   7.327  0.0419 -0.1646  0.2886
    1AU       S  287   3.017   8.628   6.793  0.0718  0.0396 -0.4067
    1AU     LIG  288   3.244   8.163   6.686 -0.0547  0.1215  0.0428
    1AU     LIG  289   3.250   7.831   6.606 -0.1407 -0.2478 -0.2421
    1AU     LIG  290   3.459   7.442   6.780  0.1343 -0.1333  0.1281
    1AU     LIG  291   3.617   7.229   7.167 -0.0556  0.1600 -0.4407
    1AU     LIG  292   3.673   6.865   7.374  0.2345 -0.0082  0.0109
    1AU     LIG  293   3.586   6.599   7.760 -0.1076 -0.0129  0.1216
    1AU    AUSL  294   2.546   8.915   7.232  0.0333 -0.0015  0.0072
    1AU    AUSL  295   2.902   9.163   7.265  0.0473 -0.0194  0.0364
    1AU     AUL  296   2.943   8.896   7.277 -0.0084  0.0453 -0.0550
    1AU       S  297   2.997   8.509   6.982  0.0186 -0.0618 -0.2026
    1AU     LIG  298   3.220   8.270   7.218  0.0967  0.1337 -0.0137
    1AU     LIG  299   3.073   8.002   7.325 -0.0106 -0.1356 -0.1869
    1AU     LIG  300   2.844   7.709   7.583 -0.1792  0.1755 -0.2637
    1AU     LIG  301   2.641   7.416   7.486 -0.1514  0.0844  0.1751
    1AU     LIG  302   2.483   7.143   7.683 -0.0921  0.4763 -0.2151
    1AU     LIG  303   2.318   6.659   7.695 -0.2015 -0.1564  0.1804
    1AU       S  304   3.263   9.053   7.575  0.1769 -0.0710 -0.3853
    1AU     LIG  305   3.701   9.026   7.498 -0.0522 -0.1604 -0.2104
    1AU     LIG  306   4.039   8.718   7.246 -0.0946  0.1274  0.0229
    1AU     LIG  307   4.247   8.561   6.825 -0.2443 -0.0516 -0.0641
    1AU     LIG  308   4.103   8.219   6.529 -0.5313  0.0845 -0.3280
    1AU     LIG  309   4.089   7.882   6.297  0.0072  0.0978 -0.1888
    1AU     LIG  310   4.385   7.731   6.057 -0.0245  0.2421  0.1056
    1AU    AUSL  311   2.517   8.606   6.943  0.0040 -0.0135 -0.0173
    1AU    AUSL  312   2.377   8.571   7.365  0.1161  0.0147 -0.0095
    1AU     AUL  313   2.656   8.535   7.270  0.1014 -0.0278 -0.0164
    1AU       S  314   2.403   8.139   7.218  0.1034 -0.2374 -0.1721
    1AU     LIG  315   2.308   7.767   7.527 -0.2119 -0.0439 -0.0403
    1AU     LIG  316   2.098   7.588   7.579 -0.1193 -0.0155 -0.1941
    1AU     LIG  317   1.782   7.340   7.404 -0.1249 -0.4363 -0.0717
    1AU     LIG  318   1.679   6.941   7.085 -0.0115 -0.1963  0.3503
    1AU     LIG  319   1.504   6.512   7.038 -0.1317  0.0506 -0.1883
    1AU     LIG  320   1.058   6.267   6.915  0.1426  0.0146  0.1924
    1AU       S  321   2.676   8.443   6.822 -0.1628 -0.1769  0.2103
    1AU     LIG  322   2.744   8.036   6.861  0.1533  0.0461 -0.2098
    1AU     LIG  323   2.763   7.634   7.060  0.3806 -0.3472 -0.2027
    1AU     LIG  324   3.116   7.417   7.187  0.2388 -0.0605  0.2770
    1AU     LIG  325   3.219   7.084   7.445  0.1159 -0.0182 -0.0226
    1AU     LIG  326   3.429   7.100   7.868 -0.1223 -0.1440 -0.0465
    1AU     LIG  327   3.623   6.924   8.290 -0.1446 -0.1973 -0.2171
    1AU    AUSL  328   1.328   9.753   7.299 -0.0892  0.0924  0.0344
    1AU    AUSL  329   1.447   9.780   6.870 -0.0108  0.0152 -0.0533
    1AU     AUL  330   1.406  10.054   6.953  0.0466 -0.0554  0.0204
    1AU       S  331   1.028   9.871   7.453  0.0522 -0.1759  0.2882
    1AU     LIG  332   0.622   9.868   7.626 -0.2372 -0.3195  0.0993
    1AU     LIG  333   0.366  10.066   7.789  0.3456 -0.1643  0.0114
    1AU     LIG  334   0.226  10.520   7.772  0.0077  0.0580 -0.0230
    1AU     LIG  335  -0.031  10.751   7.900 -0.0010 -0.1604  0.2042
    1AU     LIG  336  -0.499  10.719   7.972 -0.3315 -0.1956  0.2282
    1AU     LIG  337  -0.920  11.047   8.052 -0.0501  0.2041 -0.0337
    1AU       S  338   1.134   9.640   6.851  0.0104 -0.0105  0.2015
    1AU     LIG  339   0.830  10.057   6.726  0.0161  0.2522  0.3049
    1AU     LIG  340   0.547  10.368   6.777  0.4226 -0.1445  0.0671
    1AU     LIG  341   0.443  10.805   6.960  0.3297 -0.1804  0.3660
    1AU     LIG  342   0.308  11.267   6.966 -0.1441 -0.1171 -0.5958
    1AU     LIG  343   0.538  11.640   7.142 -0.1263 -0.2036  0.0886
    1AU     LIG  344   0.760  12.160   7.166  0.1124 -0.2105 -0.2642
    1AU    AUSL  345   1.730   9.743   7.430  0.1141  0.0160  0.0718
    1AU    AUSL  346   1.384   9.502   7.621  0.0400 -0.0530  0.0096
    1AU     AUL  347   1.447   9.888   7.673  0.0091  0.0236  0.0170
    1AU       S  348   1.171   9.867   7.311 -0.0517 -0.3360 -0.0315
    1AU     LIG  349   0.637   9.862   7.169 -0.1139 -0.0509  0.2420
    1AU     LIG  350   0.309   9.854   7.247 -0.1025  0.0536 -0.1267
    1AU     LIG  351  -0.175   9.970   7.305  0.0452 -0.4037 -0.0772
    1AU     LIG  352  -0.403  10.301   7.300 -0.0588 -0.1749 -0.3703
    1AU     LIG  353  -0.279  10.633   7.419  0.1928 -0.3772  0.0874
    1AU     LIG  354   0.113  10.906   7.461  0.0651 -0.3291  0.2877
    1AU       S  355   1.118   9.625   7.910 -0.0144 -0.0659 -0.2738
    1AU     LIG  356   0.757   9.594   7.972  0.0566  0.2435 -0.1714
    1AU     LIG  357   0.278   9.572   7.921  0.1646 -0.0521 -0.3721
    1AU     LIG  358  -0.076   9.756   7.771 -0.0451  0.4978 -0.2908
    1AU     LIG  359  -0.571   9.906   7.630  0.3518  0.1057  0.0293
    1AU     LIG  360  -1.060   9.941   7.461 -0.1374 -0.0781  0.1547
    1AU     LIG  361  -1.374   9.983   7.115 -0.0195  0.3976 -0.0528
    1AU    AUSL  362   1.958   8.475   7.282  0.0179 -0.0562 -0.1080
    1AU    AUSL  363   2.112   8.601   7.677 -0.0150  0.0618  0.0184
    1AU     AUL  364   2.268   8.410   7.591 -0.0126  0.1600  0.0034
    1AU       S  365   1.951   8.381   7.956  0.2005 -0.3169  0.0836
    1AU     LIG  366   2.163   7.953   8.023 -0.0217 -0.2587  0.1933
    1AU     LIG  367   2.522   7.873   7.998  0.2745  0.1546  0.1224
    1AU     LIG  368   2.804   7.541   8.053 -0.4331 -0.2223 -0.0705
    1AU     LIG  369   2.935   7.204   7.822  0.0479 -0.1063 -0.0264
    1AU     LIG  370   2.933   6.740   7.756 -0.2417  0.0450 -0.1609
    1AU     LIG  371   3.146   6.429   7.518  0.0629 -0.1147  0.2100
    1AU       S  372   2.145   8.152   7.211 -0.3323 -0.0793  0.0941
    1AU     LIG  373   1.838   7.827   7.176 -0.1441  0.1440 -0.2934
    1AU     LIG  374   1.425   7.801   7.210  0.2547  0.0398 -0.3055
    1AU     LIG  375   1.082   7.642   7.325  0.2003 -0.1241 -0.2054
    1AU     LIG  376   0.951   7.158   7.467 -0.2445  0.1620  0.2002
    1AU     LIG  377   1.026   6.759   7.743  0.0700  0.0440 -0.0179
    1AU     LIG  378   0.877   6.546   8.209 -0.1562 -0.1144  0.0897
    1AU    AUSL  379   2.153   8.774   7.061  0.0510  0.0652  0.0755
    1AU    AUSL  380   1.727   8.695   6.993 -0.0028  0.1573  0.1311
    1AU     AUL  381   1.917   8.422   6.947  0.0616  0.0943 -0.0665
    1AU       S  382   1.596   8.326   6.622  0.1870  0.0731 -0.2991
    1AU     LIG  383   1.405   7.949   6.758  0.2629 -0.0064  0.2998
    1AU     LIG  384   1.522   7.541   6.866  0.0950 -0.0598  0.7254
    1AU     LIG  385   1.228   7.224   7.032 -0.1120  0.3530 -0.1521
    1AU     LIG  386   1.050   6.780   7.070  0.1006 -0.3874 -0.0380
    1AU     LIG  387   0.909   6.402   7.410  0.0126  0.0716  0.0667
    1AU     LIG  388   0.942   5.947   7.651 -0.1793 -0.2493  0.0302
    1AU       S  389   2.311   8.244   7.126 -0.1741 -0.1274  0.0522
    1AU     LIG  390   2.287   7.760   6.971  0.2007 -0.1684  0.0425
    1AU     LIG  391   2.256   7.306   7.136  0.0189  0.0683  0.1051
    1AU     LIG  392   2.163   6.865   7.183 -0.0747 -0.5302  0.3259
    1AU     LIG  393   2.017   6.483   6.989  0.0044 -0.0981 -0.0197
    1AU     LIG  394   2.281   6.025   6.970  0.0430 -0.1171  0.0473
    1AU     LIG  395   2.255   5.670   6.591  0.0628 -0.0012 -0.3013
    1AU    AUSL  396   2.544   9.627   6.531  0.0804  0.0419 -0.0471
    1AU    AUSL  397   2.530   9.254   6.824 -0.0044  0.0653  0.0173
    1AU     AUL  398   2.667   9.410   6.402 -0.0655 -0.0709 -0.0613
    1AU       S  399   2.623   8.980   6.251 -0.2282 -0.2105  0.0369
    1AU     LIG  400   3.018   9.189   5.959  0.0306  0.1932  0.2923
    1AU     LIG  401   3.292   9.353   6.159  0.0907 -0.0867 -0.1254
    1AU     LIG  402   3.570   9.407   6.525  0.1043 -0.0293 -0.0054
    1AU     LIG  403   3.745   9.725   6.906 -0.0409 -0.2178 -0.0929
    1AU     LIG  404   4.123   9.906   7.053 -0.0500 -0.2487  0.0051
    1AU     LIG  405   4.570  10.077   7.138  0.1990  0.0613  0.0069
    1AU       S  406   2.911   9.816   6.440 -0.2411 -0.2725  0.1524
    1AU     LIG  407   3.034  10.236   6.316  0.1613 -0.2954  0.3242
    1AU     LIG  408   3.269  10.660   6.183 -0.2235 -0.3634  0.2546
    1AU     LIG  409   3.192  11.136   6.150 -0.0660 -0.0292  0.2243
    1AU     LIG  410   3.146  11.562   6.291  0.0935  0.3412  0.3846
    1AU     LIG  411   3.221  11.950   6.471 -0.1975 -0.3475 -0.3717
    1AU     LIG  412   3.435  12.300   6.549  0.1955 -0.0273  0.1668
    1AU    AUSL  413   2.873   9.477   6.807 -0.0319 -0.0466 -0.0109
    1AU    AUSL  414   2.770   9.908   7.257 -0.0085  0.1026 -0.0293
    1AU     AUL  415   3.119   9.656   7.026  0.0817 -0.0681 -0.0107
    1AU       S  416   3.040   9.697   6.560  0.0674  0.2995  0.5431
    1AU     LIG  417   3.398   9.902   6.328 -0.0822  0.3153  0.2690
    1AU     LIG  418   3.859   9.899   6.349 -0.0389 -0.0575  0.1422
    1AU     LIG  419   4.214  10.085   6.517 -0.0358  0.0666 -0.2575
    1AU     LIG  420   4.461  10.365   6.776 -0.2007  0.0167 -0.1802
    1AU     LIG  421   4.686  10.618   7.043  0.0404  0.0544 -0.1949
    1AU     LIG  422   4.945  10.825   7.194  0.0058 -0.1863  0.1257
    1AU       S  423   3.006  10.061   7.274 -0.0357 -0.2973 -0.0484
    1AU     LIG  424   3.223  10.472   7.263 -0.2701 -0.1012 -0.0358
    1AU     LIG  425   3.509  10.791   7.203  0.1030  0.2087 -0.0355
    1AU     LIG  426   3.651  11.186   7.095  0.1269 -0.4539 -0.3139
    1AU     LIG  427   4.009  11.266   6.788  0.1083 -0.1662 -0.1516
    1AU     LIG  428   4.526  11.276   6.914  0.5269  0.4494 -0.0320
    1AU     LIG  429   4.767  11.291   7.308  0.2104 -0.2179  0.2372
    1AU    AUSL  430   2.603   9.806   6.889 -0.0577  0.0168  0.0448
    1AU    AUSL  431   2.188   9.617   6.739  0.0461  0.0456 -0.0597
    1AU     AUL  432   2.459   9.949   6.534 -0.0633  0.1029 -0.0217
    1AU       S  433   2.034  10.207   6.398 -0.0215 -0.0751  0.1630
    1AU     LIG  434   2.226  10.643   6.294  0.3426  0.1757  0.4346
    1AU     LIG  435   2.323  10.837   6.561 -0.2122  0.0051 -0.1274
    1AU     LIG  436   2.580  10.924   6.924 -0.1257  0.0842 -0.1401
    1AU     LIG  437   3.004  10.834   7.009 -0.1100  0.0033  0.2101
    1AU     LIG  438   3.306  10.788   6.761  0.0122 -0.2326  0.4219
    1AU     LIG  439   3.655  10.923   6.700 -0.3418  0.0198  0.0104
    1AU       S  440   2.850   9.950   6.774 -0.1864  0.0556  0.2017
    1AU     LIG  441   3.113  10.261   6.838 -0.5112  0.3251  0.3704
    1AU     LIG  442   3.504  10.187   7.048 -0.2423 -0.0170  0.1691
    1AU     LIG  443   3.894  10.400   7.006  0.0762  0.2953  0.0004
    1AU     LIG  444   4.237  10.419   7.278  0.2615  0.2353 -0.1127
    1AU     LIG  445   4.449  10.513   7.703  0.5365  0.0094 -0.0569
    1AU     LIG  446   4.578  10.638   8.086 -0.1306  0.2843  0.1965
    1AU    AUSL  447   1.452   9.038   6.920 -0.0419 -0.0072 -0.0673
    1AU    AUSL  448   1.503   9.427   7.114 -0.0113 -0.0327 -0.0557
    1AU     AUL  449   1.195   9.163   6.750 -0.0216  0.1114  0.0068
    1AU       S  450   0.953   8.858   6.980  0.2493 -0.2520 -0.2799
    1AU     LIG  451   0.543   9.005   6.810 -0.0509  0.1251 -0.3345
    1AU     LIG  452   0.173   8.789   6.806 -0.1955 -0.2159 -0.0623
    1AU     LIG  453  -0.240   8.504   7.008 -0.1743 -0.0827 -0.0919
    1AU     LIG  454  -0.397   8.129   7.300  0.0926  0.5495  0.3746
    1AU     LIG  455  -0.389   7.800   7.063  0.1992 -0.0280  0.1696
    1AU     LIG  456  -0.417   7.721   6.716  0.1999 -0.2577 -0.1290
    1AU       S  457   1.024   9.547   6.987  0.0112  0.1758 -0.0826
    1AU     LIG  458   0.559   9.376   7.115  0.0824  0.2418 -0.1962
    1AU     LIG  459   0.237   9.348   7.061 -0.0085  0.0873  0.0262
    1AU     LIG  460  -0.132   9.032   7.122  0.3123 -0.1200 -0.2344
    1AU     LIG  461  -0.509   8.843   7.222 -0.0261  0.5104  0.1182
    1AU     LIG  462  -0.982   8.731   7.232 -0.2866 -0.1604  0.2443
    1AU     LIG  463  -1.354   8.648   7.337 -0.0183  0.0569  0.0144
    1AU    AUSL  464   1.411   8.790   7.247 -0.0318  0.0430 -0.0306
    1AU    AUSL  465   1.624   8.831   6.605  0.0968 -0.1336  0.0336
    1AU     AUL  466   1.384   8.705   6.894 -0.0338  0.1119 -0.0855
    1AU       S  467   0.979   8.626   7.106  0.4883  0.2961 -0.1608
    1AU     LIG  468   1.030   8.208   6.914  0.2296 -0.0081 -0.2019
    1AU     LIG  469   1.000   7.686   6.782  0.1036  0.3954 -0.5358
    1AU     LIG  470   0.746   7.395   7.027 -0.3251  0.0339 -0.3852
    1AU     LIG  471   0.506   7.154   7.219 -0.1481 -0.2715 -0.0839
    1AU     LIG  472   0.169   6.892   7.184 -0.0141  0.1153  0.2166
    1AU     LIG  473  -0.065   6.645   7.141 -0.1346  0.0455 -0.2798
    1AU       S  474   1.588   8.537   6.502 -0.4942 -0.0493 -0.0469
    1AU     LIG  475   1.112   8.339   6.474  0.0900  0.0725 -0.1639
    1AU     LIG  476   0.646   8.049   6.610 -0.4513 -0.0848 -0.0600
    1AU     LIG  477   0.468   7.737   6.763  0.2355 -0.0898 -0.3030
    1AU     LIG  478   0.174   7.556   7.067 -0.1193  0.0320  0.0079
    1AU     LIG  479  -0.114   7.330   7.088 -0.1356 -0.4334 -0.0927
    1AU     LIG  480  -0.299   7.184   7.348 -0.2597 -0.1657 -0.0657
    1AU    AUSL  481   1.197   9.191   7.231 -0.0143 -0.1199 -0.0127
    1AU    AUSL  482   1.530   8.760   7.643  0.1119 -0.0601  0.0159
    1AU     AUL  483   1.166   8.857   7.464  0.0356  0.0023 -0.0246
    1AU       S  484   1.263   8.573   7.816  0.3162 -0.0362 -0.2821
    1AU     LIG  485   1.164   8.220   7.587  0.1463  0.1426  0.4419
    1AU     LIG  486   0.921   7.886   7.764  0.1948 -0.0520  0.0056
    1AU     LIG  487   0.663   7.623   7.974 -0.3935 -0.1785 -0.1237
    1AU     LIG  488   0.544   7.323   8.303  0.0682 -0.4166 -0.3720
    1AU     LIG  489   0.421   6.924   8.580 -0.0033 -0.0055  0.0689
    1AU     LIG  490   0.445   6.807   8.961 -0.3058 -0.3741 -0.2111
    1AU       S  491   0.937   9.029   7.109 -0.1776  0.2941  0.0802
    1AU     LIG  492   0.547   8.746   7.374 -0.0253  0.0172 -0.1097
    1AU     LIG  493   0.132   8.780   7.482  0.0752  0.0529  0.0498
    1AU     LIG  494  -0.267   8.492   7.644 -0.0587 -0.0806  0.0286
    1AU     LIG  495  -0.742   8.358   7.533  0.0117  0.1155  0.1209
    1AU     LIG  496  -1.119   8.125   7.411  0.0685 -0.1926 -0.4160
    1AU     LIG  497  -1.193   8.179   7.049 -0.2891  0.0734  0.0156
    1AU    AUSL  498   2.792   9.611   7.574  0.0257  0.0779 -0.0383
    1AU    AUSL  499   2.383   9.790   7.330  0.0623  0.0899 -0.0330
    1AU     AUL  500   2.676   9.941   7.566  0.0002 -0.0575 -0.0853
    1AU       S  501   3.111   9.819   7.612 -0.0243  0.0383  0.5512
    1AU     LIG  502   3.201  10.204   7.781  0.0005 -0.4590  0.3120
    1AU     LIG  503   3.521  10.469   7.691 -0.2510  0.0883  0.2388
    1AU     LIG  504   3.923  10.718   7.457  0.0591 -0.2303 -0.4296
    1AU     LIG  505   4.128  10.832   7.011  0.1593 -0.2376 -0.1667
    1AU     LIG  506   4.376  10.913   6.640 -0.0314  0.3587  0.1079
    1AU     LIG  507   4.824  10.885   6.526 -0.0373 -0.2463  0.2762
    1AU       S  508   2.327  10.306   7.676 -0.1706  0.2368  0.0229
    1AU     LIG  509   2.370  10.754   7.736 -0.1971 -0.1754  0.1715
    1AU     LIG  510   2.720  10.987   7.440 -0.0434  0.0332 -0.2632
    1AU     LIG  511   3.103  11.118   7.359 -0.2617 -0.2298 -0.1078
    1AU     LIG  512   3.536  11.088   7.688  0.2033  0.1361 -0.3193
    1AU     LIG  513   3.709  10.906   7.930 -0.2533  0.3430 -0.0747
    1AU     LIG  514   4.002  10.424   7.941 -0.2284  0.1727 -0.1046
    1AU    AUSL  515   2.690   9.498   7.183 -0.1100 -0.0505 -0.0879
    1AU    AUSL  516   2.573   9.276   7.515  0.0884 -0.0940  0.0542
    1AU     AUL  517   3.007   9.406   7.397 -0.0564 -0.0052  0.1012
    1AU       S  518   3.098   9.900   7.403  0.3174  0.0146 -0.0378
    1AU     LIG  519   3.538   9.955   7.547 -0.2235 -0.2347  0.2208
    1AU     LIG  520   4.015  10.090   7.527  0.2526  0.4231 -0.2446
    1AU     LIG  521   4.423   9.968   7.592 -0.2522 -0.2201 -0.2699
    1AU     LIG  522   4.838  10.271   7.495  0.0415 -0.2836 -0.4047
    1AU     LIG  523   5.255  10.326   7.667  0.3190 -0.2006  0.0213
    1AU     LIG  524   5.627  10.246   7.485 -0.0591 -0.1985  0.0813
    1AU       S  525   3.048   9.241   7.830 -0.0469  0.1518  0.1057
    1AU     LIG  526   3.462   9.507   7.807  0.3907 -0.0244  0.2402
    1AU     LIG  527   3.815   9.601   7.709  0.1776  0.0369 -0.0819
    1AU     LIG  528   4.158   9.515   7.369  0.2397  0.1112  0.2212
    1AU     LIG  529   3.905   9.292   7.035  0.1060 -0.1898 -0.0800
    1AU     LIG  530   3.809   8.996   6.871  0.1384 -0.2876 -0.2531
    1AU     LIG  531   3.553   8.698   7.142  0.2397  0.0889  0.0624
    1AU    AUSL  532   1.563   9.136   7.896 -0.0474 -0.0485  0.0274
    1AU    AUSL  533   1.879   8.849   7.434  0.0611  0.0885  0.0021
    1AU     AUL  534   1.687   8.776   7.873  0.0251  0.0833 -0.0070
    1AU       S  535   1.746   8.340   7.684 -0.4843  0.6241  0.1421
    1AU     LIG  536   1.679   7.922   7.599  0.1710 -0.0771 -0.0749
    1AU     LIG  537   1.392   7.527   7.645 -0.0432  0.0369 -0.4619
    1AU     LIG  538   1.425   7.053   7.588 -0.1413  0.3094 -0.0617
    1AU     LIG  539   1.402   6.580   7.493 -0.0082 -0.2210 -0.0515
    1AU     LIG  540   1.275   6.304   7.767  0.1765  0.2853 -0.2285
    1AU     LIG  541   1.410   5.912   8.037 -0.0274 -0.0782  0.0442
    1AU       S  542   1.273   8.925   8.081  0.2736  0.4991  0.5101
    1AU     LIG  543   1.247   8.481   8.305 -0.6743  0.3739 -0.0083
    1AU     LIG  544   1.150   8.056   8.528  0.2369 -0.0903  0.2620
    1AU     LIG  545   0.958   7.633   8.533 -0.3937 -0.1908 -0.0978
    1AU     LIG  546   1.316   7.315   8.525  0.1131 -0.3737  0.1778
    1AU     LIG  547   1.564   7.030   8.322 -0.0584 -0.0094  0.4896
    1AU     LIG  548   1.447   6.816   8.001 -0.2671 -0.0352 -0.1011
    1AU    AUSL  549   1.530   9.149   7.475  0.0260  0.0675 -0.0119
    1AU    AUSL  550   1.806   9.386   7.697 -0.0326 -0.0901 -0.0853
    1AU     AUL  551   1.322   9.232   7.747  0.0491  0.0815  0.0360
    1AU       S  552   1.211   8.794   7.916  0.0931 -0.1459 -0.2268
    1AU     LIG  553   0.747   8.990   8.010 -0.2970  0.0042  0.1625
    1AU     LIG  554   0.507   9.067   7.775 -0.2909  0.2414  0.0060
    1AU     LIG  555   0.191   9.269   7.540  0.0241  0.1163 -0.3853
    1AU     LIG  556  -0.200   9.516   7.337 -0.1488  0.1165  0.4241
    1AU     LIG  557  -0.208   9.714   6.879 -0.0192 -0.2167  0.1409
    1AU     LIG  558  -0.331   9.776   6.519 -0.0966 -0.4165  0.5749
    1AU       S  559   1.403   9.532   8.096 -0.2887 -0.3904 -0.1112
    1AU     LIG  560   1.121   9.306   8.324 -0.0782  0.1043 -0.0843
    1AU     LIG  561   0.962   8.952   8.448 -0.1289 -0.2076  0.2366
    1AU     LIG  562   0.746   8.593   8.366  0.0869  0.1952  0.0787
    1AU     LIG  563   0.765   8.409   7.823 -0.2866 -0.0998 -0.1609
    1AU     LIG  564   0.677   8.229   7.431 -0.3918  0.2670  0.0936
    1AU     LIG  565   0.697   7.943   7.209  0.1998  0.2321  0.1349
    2POPC   NC3  566   6.014   3.243   9.261 -0.0664  0.2568 -0.2197
    2POPC   PO4  567   5.560   3.238   9.346 -0.1562  0.0296 -0.1189
    2POPC   GL1  568   5.576   3.293   8.866  0.0387  0.2956  0.0286
    2POPC   GL2  569   5.343   3.428   8.726  0.4654  0.2047 -0.1403
    2POPC   C1A  570   5.861   3.394   8.499 -0.3500 -0.1879 -0.1905
    2POPC   D2A  571   5.931   3.605   8.140  0.1489  0.1041 -0.2513
    2POPC   C3A  572   6.237   3.780   7.963  0.0231  0.2085 -0.1844
    2POPC   C4A  573   6.532   3.695   7.729 -0.2064 -0.3086 -0.3030
    2POPC   C1B  574   5.451   3.239   8.299 -0.0711  0.3040  0.2979
    2POPC   C2B  575   5.433   3.069   7.876  0.3260 -0.2979 -0.0796
    2POPC   C3B  576   5.351   3.045   7.511  0.0795 -0.1619 -0.1114
    2POPC   C4B  577   5.207   2.766   7.169 -0.6371 -0.2673 -0.1579
    3POPC   NC3  578   6.587  10.160   9.481  0.3754 -0.1876 -0.1472
    3POPC   PO4  579   6.877  10.408   9.236  0.1634  0.3912  0.4923
    3POPC   GL1  580   6.974  10.412   8.750  0.0392  0.0374 -0.0147
    3POPC   GL2  581   6.810  10.584   8.427 -0.2424  0.1317 -0.0281
    3POPC   C1A  582   7.283  10.766   8.440 -0.0554 -0.4034 -0.2732
    3POPC   D2A  583   7.285  10.680   7.980  0.1498  0.0435 -0.1813
    3POPC   C3A  584   7.014  10.401   7.782 -0.1815  0.1567 -0.1496
    3POPC   C4A  585   6.653  10.201   7.568 -0.3900  0.0763  0.1070
    3POPC   C1B  586   6.835  10.871   8.108 -0.2146  0.2400  0.2657
    3POPC   C2B  587   7.040  10.957   7.673 -0.0695  0.0349  0.3730
    3POPC   C3B  588   7.457  10.916   7.534  0.3944 -0.1400 -0.0738
    3POPC   C4B  589   7.696  10.953   7.196 -0.3128 -0.1880 -0.0469
    4POPC   NC3  590   7.077   5.726   8.928 -0.1379 -0.0223 -0.1383
    4POPC   PO4  591   6.742   5.319   9.028  0.3403  0.3521 -0.0231
    4POPC   GL1  592   6.447   5.056   8.707  0.4777 -0.5022  0.3784
    4POPC   GL2  593   6.740   4.987   8.432  0.0865  0.0817  0.1220
    4POPC   C1A  594   5.991   5.013   8.647  0.0663  0.0954  0.0006
    4POPC   D2A  595   5.592   4.952   8.456 -0.1676  0.0417  0.0615
    4POPC   C3A  596   5.572   5.032   7.988  0.1236  0.0910 -0.1682
    4POPC   C4A  597   5.260   5.377   7.829  0.1175 -0.3264  0.3755
    4POPC   C1B  598   6.546   4.946   8.148 -0.1403  0.4048 -0.2831
    4POPC   C2B  599   6.390   5.182   7.863 -0.1598 -0.1860 -0.2302
    4POPC   C3B  600   6.151   5.083   7.506 -0.0186 -0.2285  0.0163
    4POPC   C4B  601   5.648   5.238   7.374 -0.2556 -0.2256  0.1000
    5POPC   NC3  602   7.367   8.426   9.487  0.2128 -0.0582  0.0757
    5POPC   PO4  603   6.964   8.451   9.097 -0.0219  0.0050  0.2487
    5POPC   GL1  604   7.090   8.262   8.699 -0.0406  0.1660  0.1220
    5POPC   GL2  605   7.065   7.980   8.629  0.0662  0.2834  0.4476
    5POPC   C1A  606   7.375   8.125   8.310 -0.0620  0.0652 -0.1160
    5POPC   D2A  607   7.516   7.818   8.278 -0.1620 -0.2626 -0.0944
    5POPC   C3A  608   7.758   7.679   7.961 -0.1910  0.4018 -0.2143
    5POPC   C4A  609   8.107   7.586   7.758  0.0771 -0.2573 -0.1626
    5POPC   C1B  610   6.937   7.949   8.212  0.0853 -0.2261  0.1545
    5POPC   C2B  611   6.767   8.091   7.854 -0.0352 -0.1534  0.0010
    5POPC   C3B  612   6.716   8.201   7.450 -0.1872 -0.0054  0.1273
    5POPC   C4B  613   6.626   7.827   7.075 -0.1404 -0.0745 -0.3337
    6POPC   NC3  614   2.963   0.930  10.696  0.1071 -0.0924 -0.0681
    6POPC   PO4  615   3.121   1.179  10.345 -0.0602  0.3995 -0.0355
    6POPC   GL1  616   2.962   1.262   9.860  0.0966 -0.0904 -0.1895
    6POPC   GL2  617   3.017   0.920   9.748 -0.1881  0.1791 -0.3944
    6POPC   C1A  618   2.930   1.235   9.363  0.0705  0.2978  0.0356
    6POPC   D2A  619   3.101   0.905   9.203 -0.1101  0.1033 -0.0754
    6POPC   C3A  620   2.882   0.637   9.000 -0.2610  0.0634  0.1930
    6POPC   C4A  621   2.865   0.308   9.187  0.2382 -0.3000 -0.0926
    6POPC   C1B  622   2.780   0.666   9.508 -0.2005 -0.1582 -0.0704
    6POPC   C2B  623   2.534   0.363   9.503 -0.1576 -0.0464 -0.0257
    6POPC   C3B  624   2.243   0.087   9.456  0.0087  0.1885  0.0684
    6POPC   C4B  625   2.045  -0.158   9.228  0.1028  0.1820  0.0646
    7POPC   NC3  626   3.051   6.734   9.440 -0.0314 -0.3941  0.0152
    7POPC   PO4  627   3.158   6.898   9.866 -0.2367 -0.0399  0.0597
    7POPC   GL1  628   3.210   7.278   9.592  0.0153 -0.0604 -0.1934
    7POPC   GL2  629   2.839   7.357   9.621 -0.2346 -0.3571 -0.1672
    7POPC   C1A  630   3.111   7.645   9.296  0.2744 -0.3872  0.2838
    7POPC   D2A  631   2.865   7.714   8.965  0.1308  0.0227  0.0900
    7POPC   C3A  632   2.841   7.625   8.537  0.1682  0.1125  0.2047
    7POPC   C4A  633   3.175   7.346   8.227  0.0389  0.2850 -0.3762
    7POPC   C1B  634   2.681   7.300   9.271 -0.1211 -0.1516  0.2203
    7POPC   C2B  635   2.446   7.450   8.941  0.0684  0.1760 -0.2457
    7POPC   C3B  636   2.354   7.438   8.541  0.0291 -0.1335  0.1973
    7POPC   C4B  637   2.257   7.434   8.014  0.0555 -0.0642 -0.1344
    8POPC   NC3  638   3.738   6.174   9.256  0.3659 -0.3502 -0.1442
    8POPC   PO4  639   3.546   6.507   9.287 -0.0452  0.0776  0.1978
    8POPC   GL1  640   3.301   6.797   8.946 -0.0663 -0.0442 -0.2955
    8POPC   GL2  641   3.231   7.105   9.101  0.4218 -0.2071 -0.0896
    8POPC   C1A  642   3.180   6.972   8.602 -0.2544 -0.1961  0.3658
    8POPC   D2A  643   3.184   6.803   8.181 -0.2595 -0.0452  0.2256
    8POPC   C3A  644   3.237   6.412   8.065  0.0255  0.0451  0.1572
    8POPC   C4A  645   3.119   6.039   7.826  0.0736  0.0037 -0.1915
    8POPC   C1B  646   3.227   7.419   8.827  0.1463  0.1355  0.1520
    8POPC   C2B  647   3.277   7.816   8.649  0.2802 -0.1971 -0.2120
    8POPC   C3B  648   3.030   8.051   8.372 -0.0406 -0.0743 -0.1655
    8POPC   C4B  649   2.992   8.101   8.027  0.0335  0.1491  0.1101
    9POPC   NC3  650   8.209   1.204   9.368  0.1280  0.1367 -0.0461
    9POPC   PO4  651   8.180   1.427   9.067 -0.2913  0.1823  0.2256
    9POPC   GL1  652   8.206   1.446   8.654  0.2737  0.1020 -0.0689
    9POPC   GL2  653   8.200   1.116   8.467 -0.0680 -0.2675  0.0482
    9POPC   C1A  654   8.296   1.544   8.277  0.1763 -0.0676 -0.3095
    9POPC   D2A  655   8.302   1.893   8.133  0.1530 -0.0541 -0.1546
    9POPC   C3A  656   8.143   2.008   7.846 -0.1260 -0.1396  0.0317
    9POPC   C4A  657   8.028   2.038   7.411  0.2941  0.2285  0.3278
    9POPC   C1B  658   8.245   1.022   8.076  0.1905 -0.0377 -0.0559
    9POPC   C2B  659   7.990   0.850   7.823 -0.0066  0.0516  0.1341
    9POPC   C3B  660   7.778   0.397   7.733  0.2424 -0.0555  0.2031
    9POPC   C4B  661   7.516   0.063   7.636 -0.3235  0.1720 -0.2564
   10POPC   NC3  662   3.868   4.692   8.666  0.1260  0.2296  0.1952
   10POPC   PO4  663   3.909   4.310   8.765 -0.0400  0.2117 -0.1149
   10POPC   GL1  664   4.036   4.327   8.366 -0.0176 -0.1089 -0.0717
   10POPC   GL2  665   3.864   4.529   8.189  0.0346 -0.0616  0.2754
   10POPC   C1A  666   4.402   4.326   7.983  0.1566  0.2318  0.0029
   10POPC   D2A  667   4.709   4.375   7.751  0.0657  0.0567  0.2113
   10POPC   C3A  668   4.739   4.537   7.293  0.0022  0.1141  0.2151
   10POPC   C4A  669   4.692   4.280   6.946 -0.0238 -0.1640  0.1099
   10POPC   C1B  670   3.881   4.514   7.701 -0.3058 -0.1712 -0.1925
   10POPC   C2B  671   3.942   4.653   7.300  0.0985 -0.2839  0.0831
   10POPC   C3B  672   3.987   4.812   6.935 -0.4732  0.1728 -0.1362
   10POPC   C4B  673   3.954   5.106   6.545 -0.1235 -0.2319  0.2238
   11POPC   NC3  674   1.873   8.530  10.750 -0.1278  0.0706 -0.1339
   11POPC   PO4  675   1.498   8.682  10.665 -0.1507  0.0556  0.1406
   11POPC   GL1  676   1.272   8.459  10.189  0.2247  0.2076 -0.0822
   11POPC   GL2  677   1.612   8.326  10.071  0.0365  0.1847 -0.2032
   11POPC   C1A  678   1.250   8.268   9.684 -0.0326  0.1843 -0.1110
   11POPC   D2A  679   1.374   8.305   9.246 -0.2129 -0.0108  0.2263
   11POPC   C3A  680   1.648   8.629   9.050 -0.0398 -0.0001 -0.2546
   11POPC   C4A  681   1.988   8.848   9.119 -0.2117 -0.1703 -0.0115
   11POPC   C1B  682   1.858   8.059   9.759  0.0709 -0.0690 -0.3715
   11POPC   C2B  683   1.897   8.088   9.199  0.0121 -0.2352 -0.3654
   11POPC   C3B  684   2.048   8.353   8.874  0.1058  0.4488 -0.0831
   11POPC   C4B  685   2.131   8.287   8.458  0.2002 -0.4342 -0.1869
   12POPC   NC3  686   6.415   4.147   8.817 -0.0213 -0.3127  0.3754
   12POPC   PO4  687   6.615   4.620   8.825  0.0555  0.1645 -0.0439
   12POPC   GL1  688   6.583   4.436   8.416 -0.1256 -0.4831 -0.0615
   12POPC   GL2  689   6.525   4.146   8.300  0.0403 -0.2171 -0.0814
   12POPC   C1A  690   6.212   4.631   8.173  0.3500  0.1644 -0.4100
   12POPC   D2A  691   6.027   5.049   8.141 -0.0180 -0.0245  0.0943
   12POPC   C3A  692   6.292   5.321   8.336  0.1984 -0.1166  0.0343
   12POPC   C4A  693   6.560   5.634   8.087 -0.0600  0.0364  0.2669
   12POPC   C1B  694   6.452   4.306   7.869  0.2241  0.2052 -0.2282
   12POPC   C2B  695   6.469   4.652   7.724 -0.0290 -0.1656  0.0084
   12POPC   C3B  696   6.712   4.857   7.425 -0.0767 -0.1286 -0.4206
   12POPC   C4B  697   7.202   4.851   7.434  0.0318  0.1391  0.0798
   13POPC   NC3  698   8.661   0.581   8.828 -0.0680  0.1332 -0.1710
   13POPC   PO4  699   8.379   0.336   9.002  0.0775 -0.0722  0.0191
   13POPC   GL1  700   8.497   0.186   8.570 -0.1179 -0.1552  0.1130
   13POPC   GL2  701   8.246   0.226   8.426 -0.3081  0.0037  0.0519
   13POPC   C1A  702   8.807   0.049   8.267 -0.2585  0.3272 -0.4278
   13POPC   D2A  703   8.811   0.030   7.786 -0.1486 -0.0532  0.0368
   13POPC   C3A  704   8.670  -0.408   7.653  0.0724 -0.1962 -0.2494
   13POPC   C4A  705   8.648  -0.850   7.958  0.1769 -0.0220 -0.1465
   13POPC   C1B  706   8.381  -0.004   8.091  0.2437  0.1060  0.1018
   13POPC   C2B  707   8.273  -0.463   8.014 -0.2029  0.3934 -0.3833
   13POPC   C3B  708   7.737  -0.617   8.100  0.2142 -0.3176  0.2106
   13POPC   C4B  709   7.316  -0.759   8.036  0.0996  0.1397 -0.2414
   14POPC   NC3  710   2.007   4.374   8.781 -0.1150 -0.0994 -0.0259
   14POPC   PO4  711   2.244   4.701   8.764 -0.0099  0.3924 -0.2704
   14POPC   GL1  712   2.358   4.854   8.454 -0.1942 -0.4936  0.0826
   14POPC   GL2  713   2.333   5.197   8.565 -0.2635  0.2375 -0.0406
   14POPC   C1A  714   2.502   4.810   8.025 -0.2066  0.1975 -0.1760
   14POPC   D2A  715   2.614   4.687   7.592  0.2920 -0.1679 -0.2684
   14POPC   C3A  716   2.647   4.581   7.129  0.0741  0.2209  0.1767
   14POPC   C4A  717   3.004   4.572   6.784 -0.2240  0.4257 -0.1074
   14POPC   C1B  718   2.632   5.231   8.181  0.0158  0.2582  0.0417
   14POPC   C2B  719   2.585   5.191   7.654  0.2311 -0.0531  0.0531
   14POPC   C3B  720   2.697   5.350   7.246 -0.3413 -0.1602  0.2129
   14POPC   C4B  721   2.865   5.596   6.995  0.2360  0.1973 -0.2468
   15POPC   NC3  722   9.550   6.377   8.863  0.0804 -0.1421 -0.4011
   15POPC   PO4  723   9.343   6.019   9.149 -0.2986 -0.3943  0.0937
   15POPC   GL1  724   9.244   6.061   8.657  0.2358  0.5385  0.0787
   15POPC   GL2  725   9.055   5.749   8.508 -0.0794  0.3112 -0.0467
   15POPC   C1A  726   9.289   6.044   8.253  0.2567  0.1337 -0.1183
   15POPC   D2A  727   9.426   6.227   7.851 -0.1271 -0.2944 -0.0945
   15POPC   C3A  728   9.296   6.278   7.412  0.0822  0.3354 -0.0297
   15POPC   C4A  729   9.567   6.359   7.001 -0.1813  0.3056 -0.1575
   15POPC   C1B  730   9.275   5.571   8.139 -0.0098  0.0766 -0.0728
   15POPC   C2B  731   9.358   5.215   7.976 -0.2128 -0.0503 -0.1606
   15POPC   C3B  732   9.686   4.945   8.103 -0.0622 -0.0972  0.2965
   15POPC   C4B  733   9.993   4.878   7.915 -0.0041  0.2935  0.0679
   16POPC   NC3  734   4.552   6.460   9.203  0.5253  0.3163  0.0524
   16POPC   PO4  735   4.168   6.293   9.009 -0.0343  0.0177  0.1645
   16POPC   GL1  736   3.936   6.166   8.636 -0.2781 -0.2774  0.2756
   16POPC   GL2  737   3.772   5.880   8.529 -0.2386 -0.3583 -0.0219
   16POPC   C1A  738   4.108   6.060   8.234 -0.2135  0.1164  0.2054
   16POPC   D2A  739   4.062   6.182   7.793 -0.1579 -0.0056 -0.2537
   16POPC   C3A  740   4.147   6.561   7.762  0.0516  0.4289 -0.0904
   16POPC   C4A  741   3.944   6.930   7.883  0.2401 -0.1429 -0.1005
   16POPC   C1B  742   4.117   5.659   8.534  0.0486  0.1121 -0.0430
   16POPC   C2B  743   4.469   5.610   8.269  0.0925  0.1214  0.4004
   16POPC   C3B  744   4.485   5.859   7.816 -0.1876  0.1058  0.1169
   16POPC   C4B  745   4.595   5.829   7.382 -0.0249 -0.0833  0.2143
   17POPC   NC3  746   1.688   6.755  10.007 -0.1572  0.0666  0.5925
   17POPC   PO4  747   1.322   6.917  10.188  0.0360  0.4061  0.0443
   17POPC   GL1  748   1.160   7.038   9.804 -0.4826  0.0926  0.2648
   17POPC   GL2  749   1.129   7.375   9.768 -0.1177 -0.3161 -0.2039
   17POPC   C1A  750   0.993   7.007   9.449 -0.2341 -0.2403  0.1550
   17POPC   D2A  751   0.975   7.305   9.022 -0.1084 -0.1736  0.1095
   17POPC   C3A  752   0.580   7.358   8.826 -0.0110  0.0390 -0.3880
   17POPC   C4A  753   0.122   7.162   8.925 -0.2719  0.3145 -0.0306
   17POPC   C1B  754   1.331   7.373   9.374  0.0050  0.1320 -0.0821
   17POPC   C2B  755   1.378   7.554   8.957 -0.3291 -0.3241  0.5147
   17POPC   C3B  756   1.577   8.009   8.830 -0.2016  0.1376 -0.1765
   17POPC   C4B  757   1.636   8.255   8.547 -0.0104 -0.0083 -0.1112
   18POPC   NC3  758   5.661   9.426   9.194  0.0122 -0.1512 -0.2734
   18POPC   PO4  759   5.949   9.750   9.183  0.1144 -0.0731 -0.0635
   18POPC   GL1  760   5.843   9.943   8.848  0.1833 -0.1619 -0.1742
   18POPC   GL2  761   6.018  10.096   8.608 -0.0396  0.1458  0.2569
   18POPC   C1A  762   5.478  10.061   8.572 -0.0938  0.0807 -0.1654
   18POPC   D2A  763   5.027  10.287   8.526 -0.0768  0.3253 -0.2357
   18POPC   C3A  764   4.876  10.482   8.913  0.5066  0.0668 -0.1611
   18POPC   C4A  765   4.629  10.270   9.100 -0.0134  0.0293 -0.2566
   18POPC   C1B  766   5.897   9.867   8.167  0.0071  0.0845 -0.0863
   18POPC   C2B  767   5.916   9.834   7.703  0.2152  0.0767 -0.0454
   18POPC   C3B  768   6.151   9.522   7.412  0.0809 -0.0803  0.0601
   18POPC   C4B  769   6.285   9.605   7.058 -0.0410  0.1787  0.4117
   19POPC   NC3  770   5.251   2.903   9.446  0.2437  0.2840  0.0969
   19POPC   PO4  771   5.269   2.913   9.024 -0.0579  0.0202  0.1586
   19POPC   GL1  772   5.205   2.959   8.640 -0.2358  0.0166 -0.3530
   19POPC   GL2  773   5.588   2.811   8.517  0.0822  0.2257 -0.0044
   19POPC   C1A  774   5.065   2.783   8.232  0.0905 -0.1808 -0.0157
   19POPC   D2A  775   4.975   2.747   7.816 -0.0305  0.0182  0.3634
   19POPC   C3A  776   4.956   2.263   7.610  0.1453 -0.1730 -0.0768
   19POPC   C4A  777   4.609   1.950   7.535  0.1796 -0.1195 -0.1199
   19POPC   C1B  778   5.517   2.533   8.252 -0.3680 -0.1810 -0.1317
   19POPC   C2B  779   5.494   2.620   7.735  0.2717  0.1853  0.2775
   19POPC   C3B  780   5.415   2.351   7.440  0.2047  0.3662  0.0955
   19POPC   C4B  781   5.515   1.969   7.244  0.0548 -0.2958 -0.0516
   20POPC   NC3  782   9.607   5.524   9.275 -0.1815 -0.2379 -0.2192
   20POPC   PO4  783   9.545   5.666   8.785 -0.0421 -0.0591  0.2350
   20POPC   GL1  784   9.875   5.810   8.625 -0.2056 -0.0296  0.2714
   20POPC   GL2  785   9.697   6.192   8.459  0.0038  0.0050 -0.3185
   20POPC   C1A  786  10.111   6.080   8.399 -0.2117 -0.3160  0.2838
   20POPC   D2A  787  10.316   6.218   8.043 -0.0011 -0.4741  0.2745
   20POPC   C3A  788  10.020   6.267   7.867  0.0738  0.0405 -0.1460
   20POPC   C4A  789   9.823   6.106   7.401 -0.0973  0.1490  0.1972
   20POPC   C1B  790   9.738   5.855   8.122  0.0581 -0.0146 -0.0107
   20POPC   C2B  791  10.014   5.804   7.724 -0.0879 -0.1047  0.0915
   20POPC   C3B  792  10.063   5.614   7.386  0.2195 -0.1931 -0.0273
   20POPC   C4B  793  10.470   5.541   7.246  0.2743 -0.0457  0.0216
   21POPC   NC3  794   4.473   8.073   9.516 -0.2682 -0.1010 -0.2328
   21POPC   PO4  795   4.379   8.450   9.415 -0.0972  0.1044  0.1095
   21POPC   GL1  796   4.584   8.384   9.025  0.0028  0.1654 -0.1662
   21POPC   GL2  797   4.599   8.753   8.987  0.1456  0.1466  0.2081
   21POPC   C1A  798   4.484   8.299   8.610 -0.2288 -0.1101 -0.0731
   21POPC   D2A  799   4.681   8.174   8.208  0.0174  0.2215 -0.0027
   21POPC   C3A  800   4.685   8.401   7.897 -0.1489 -0.2493  0.1279
   21POPC   C4A  801   4.512   8.630   7.427  0.0080 -0.1455 -0.2266
   21POPC   C1B  802   4.231   8.933   8.818  0.0941 -0.1900  0.2730
   21POPC   C2B  803   4.042   9.353   8.784  0.3287  0.0549 -0.3140
   21POPC   C3B  804   3.596   9.329   8.674 -0.0773  0.1030  0.1052
   21POPC   C4B  805   3.187   9.326   8.861 -0.1166 -0.1690  0.2661
   22POPC   NC3  806   5.749   5.565   8.947 -0.0497  0.1389  0.1183
   22POPC   PO4  807   5.745   6.005   8.746 -0.1149  0.0714  0.2063
   22POPC   GL1  808   5.942   6.071   8.306 -0.2433 -0.0454 -0.2701
   22POPC   GL2  809   6.057   5.859   8.082  0.0922  0.1535 -0.0711
   22POPC   C1A  810   5.873   6.461   8.009  0.3501  0.1244  0.1858
   22POPC   D2A  811   5.627   6.977   7.998 -0.4279  0.0308 -0.0734
   22POPC   C3A  812   5.551   7.259   7.669 -0.1324 -0.0470 -0.0946
   22POPC   C4A  813   5.676   7.778   7.426  0.0386 -0.2052 -0.0142
   22POPC   C1B  814   5.982   6.060   7.698  0.0880  0.2125 -0.1754
   22POPC   C2B  815   5.621   6.150   7.543  0.2495 -0.0947  0.0889
   22POPC   C3B  816   5.388   6.367   7.875 -0.0922  0.1512 -0.0894
   22POPC   C4B  817   5.134   6.433   8.128  0.0208  0.0378 -0.3665
   23POPC   NC3  818   7.128   0.561   9.461  0.2643  0.0900 -0.1732
   23POPC   PO4  819   7.351   0.891   9.227  0.0038  0.2359 -0.0510
   23POPC   GL1  820   7.373   1.017   8.764  0.1827  0.0524  0.2739
   23POPC   GL2  821   7.181   1.185   8.676  0.0112  0.5649 -0.3382
   23POPC   C1A  822   7.699   1.334   8.543  0.1989  0.3088 -0.0958
   23POPC   D2A  823   7.837   1.444   8.114  0.0630  0.1401 -0.0364
   23POPC   C3A  824   7.654   1.255   7.720 -0.0154 -0.1638 -0.1235
   23POPC   C4A  825   7.470   1.225   7.190  0.0599  0.1470  0.0817
   23POPC   C1B  826   6.856   1.121   8.437 -0.2539  0.1815  0.1369
   23POPC   C2B  827   6.674   1.158   7.943  0.1850  0.1142  0.0950
   23POPC   C3B  828   6.715   1.157   7.539 -0.0230  0.0186 -0.2429
   23POPC   C4B  829   6.914   1.269   7.210 -0.3422  0.0204  0.1379
   24POPC   NC3  830   8.299   5.884   9.432 -0.0505  0.4487  0.1196
   24POPC   PO4  831   8.086   5.553   9.119 -0.0842  0.0282 -0.0289
   24POPC   GL1  832   8.106   5.506   8.759 -0.0272  0.2863 -0.0510
   24POPC   GL2  833   8.325   5.848   8.695  0.2535  0.1675  0.1621
   24POPC   C1A  834   7.837   5.277   8.434 -0.2159  0.0820  0.1188
   24POPC   D2A  835   7.747   4.879   8.252  0.0182 -0.0915 -0.0579
   24POPC   C3A  836   7.186   4.846   8.199  0.0075  0.3019  0.0648
   24POPC   C4A  837   6.958   4.601   8.028  0.1798 -0.2572  0.2659
   24POPC   C1B  838   8.378   6.058   8.300 -0.1810  0.2814  0.0231
   24POPC   C2B  839   8.453   6.058   7.817 -0.1052 -0.0500 -0.3078
   24POPC   C3B  840   8.222   5.881   7.414 -0.1564 -0.1051 -0.0453
   24POPC   C4B  841   8.046   5.846   7.182 -0.1715 -0.1567  0.3051
   25POPC   NC3  842   7.063   3.614   8.914 -0.1885 -0.3081  0.1160
   25POPC   PO4  843   6.702   3.800   9.064 -0.0450  0.0899 -0.0207
   25POPC   GL1  844   6.604   3.677   8.586 -0.2853 -0.0751 -0.0727
   25POPC   GL2  845   6.329   3.667   8.468  0.0433  0.2909 -0.0127
   25POPC   C1A  846   6.739   3.670   8.261 -0.1671 -0.1352  0.0605
   25POPC   D2A  847   7.018   3.454   7.995 -0.0053 -0.0315  0.2409
   25POPC   C3A  848   6.948   3.422   7.561  0.0854  0.3866  0.1137
   25POPC   C4A  849   6.863   3.229   7.160  0.2701  0.1450 -0.1992
   25POPC   C1B  850   6.303   3.294   8.185  0.0738 -0.0293  0.0436
   25POPC   C2B  851   6.240   3.254   7.789  0.2957  0.2240  0.0861
   25POPC   C3B  852   6.419   3.325   7.399  0.1314  0.3160 -0.1149
   25POPC   C4B  853   6.550   3.702   7.231  0.1720 -0.1659 -0.0881
   26POPC   NC3  854   0.766   3.775   8.590  0.1641  0.2268 -0.0083
   26POPC   PO4  855   0.373   3.632   8.807  0.1744 -0.1868  0.1308
   26POPC   GL1  856   0.259   3.658   8.385  0.0236  0.0614 -0.1834
   26POPC   GL2  857   0.537   3.539   8.162 -0.1768 -0.0226 -0.1146
   26POPC   C1A  858   0.347   4.132   8.153 -0.1815 -0.1147 -0.1766
   26POPC   D2A  859   0.405   4.439   7.859  0.1177  0.1471 -0.1141
   26POPC   C3A  860   0.309   4.410   7.384  0.1147 -0.1538  0.4016
   26POPC   C4A  861   0.644   4.441   6.965 -0.0647 -0.2455 -0.0455
   26POPC   C1B  862   0.195   3.403   7.924 -0.0995 -0.1874 -0.1113
   26POPC   C2B  863  -0.072   3.511   7.507 -0.0325 -0.2435  0.0243
   26POPC   C3B  864  -0.171   3.866   7.302 -0.3104  0.2329 -0.1368
   26POPC   C4B  865  -0.179   4.275   7.035  0.0288  0.1954 -0.0184
   27POPC   NC3  866   0.439   8.299   9.901 -0.1259  0.0023 -0.0500
   27POPC   PO4  867   0.349   8.814   9.957  0.1919 -0.1446  0.0343
   27POPC   GL1  868   0.613   8.757   9.622 -0.0235  0.2650 -0.1798
   27POPC   GL2  869   0.853   9.108   9.650  0.0195  0.1240 -0.3724
   27POPC   C1A  870   0.551   8.711   9.202  0.1931 -0.0997 -0.3347
   27POPC   D2A  871   0.702   8.824   8.864  0.0791  0.1002 -0.0539
   27POPC   C3A  872   0.564   9.215   8.825 -0.2370  0.0868 -0.0433
   27POPC   C4A  873   0.437   9.517   8.966  0.0461 -0.1986  0.1951
   27POPC   C1B  874   0.864   9.128   9.249  0.0139  0.1971  0.1479
   27POPC   C2B  875   1.127   9.118   8.842  0.0149 -0.1527  0.1126
   27POPC   C3B  876   1.391   8.906   8.648  0.1647  0.0803 -0.0752
   27POPC   C4B  877   1.861   8.712   8.629 -0.1442  0.2777 -0.3810
   28POPC   NC3  878   4.701   8.622   9.791 -0.1683  0.2109  0.1733
   28POPC   PO4  879   4.896   8.484   9.407 -0.2597 -0.1926  0.1061
   28POPC   GL1  880   5.087   8.691   9.025 -0.2319  0.0704 -0.1190
   28POPC   GL2  881   4.952   8.508   8.698 -0.1250 -0.1361  0.2842
   28POPC   C1A  882   5.064   8.998   8.683 -0.1336 -0.3313 -0.0034
   28POPC   D2A  883   5.207   9.241   8.332  0.0523 -0.1932  0.2121
   28POPC   C3A  884   4.858   9.442   8.152  0.1125 -0.0349 -0.1439
   28POPC   C4A  885   4.683   9.689   8.023  0.1301 -0.1741 -0.1533
   28POPC   C1B  886   4.754   8.668   8.374  0.1793  0.1341 -0.0673
   28POPC   C2B  887   4.786   8.949   8.059  0.2556 -0.1309 -0.1192
   28POPC   C3B  888   4.709   9.141   7.663 -0.1436 -0.3232  0.1931
   28POPC   C4B  889   4.709   9.592   7.411  0.1950 -0.0002 -0.2676
   29POPC   NC3  890   9.253   8.665   9.721  0.1522  0.2704 -0.0341
   29POPC   PO4  891   9.757   8.640   9.850 -0.1868 -0.0618  0.1404
   29POPC   GL1  892   9.711   8.723   9.382  0.1608  0.0321  0.4314
   29POPC   GL2  893   9.527   8.677   9.181  0.1129  0.1324 -0.1244
   29POPC   C1A  894   9.813   8.723   8.864  0.1107  0.0728  0.1397
   29POPC   D2A  895   9.882   8.780   8.394  0.2266 -0.3144 -0.0220
   29POPC   C3A  896   9.578   8.686   8.026  0.0904  0.0954  0.0917
   29POPC   C4A  897   9.173   8.549   7.942 -0.1393 -0.1022  0.1578
   29POPC   C1B  898   9.442   8.423   8.803 -0.0352 -0.1375 -0.0567
   29POPC   C2B  899   9.497   8.369   8.395 -0.0999 -0.1235 -0.1224
   29POPC   C3B  900   9.455   8.164   8.038  0.0675 -0.2559  0.1543
   29POPC   C4B  901   9.796   7.923   7.884 -0.1398  0.0454  0.1005
   30POPC   NC3  902   0.437   2.178   9.374 -0.1218  0.2263 -0.2235
   30POPC   PO4  903   0.005   2.232   9.321  0.0130  0.1367 -0.2371
   30POPC   GL1  904   0.154   2.014   9.009  0.2368  0.0558  0.2012
   30POPC   GL2  905   0.358   2.159   8.825  0.1175  0.2905  0.0642
   30POPC   C1A  906   0.320   1.690   8.686  0.0068  0.0176  0.2891
   30POPC   D2A  907   0.532   1.726   8.270  0.0673  0.2484  0.1878
   30POPC   C3A  908   0.683   1.430   8.003 -0.0331  0.2201 -0.1149
   30POPC   C4A  909   1.250   1.431   7.984  0.0731  0.0817  0.1026
   30POPC   C1B  910   0.444   2.279   8.341 -0.3517 -0.1339 -0.1122
   30POPC   C2B  911   0.373   2.066   7.953 -0.1396 -0.4310  0.1335
   30POPC   C3B  912   0.456   2.135   7.500  0.2330  0.2493 -0.0996
   30POPC   C4B  913   0.212   2.037   7.152  0.1124 -0.0665 -0.3515
   31POPC   NC3  914   9.872   7.716   9.344  0.2414 -0.2382  0.1734
   31POPC   PO4  915   9.452   7.719   9.388 -0.3748 -0.0411 -0.0710
   31POPC   GL1  916   9.647   7.652   8.918 -0.0674  0.3239 -0.1167
   31POPC   GL2  917   9.986   7.628   8.821  0.0465  0.1300  0.2765
   31POPC   C1A  918   9.769   7.967   8.569  0.2854 -0.1595 -0.1723
   31POPC   D2A  919   9.968   8.320   8.557  0.1267 -0.0149  0.0184
   31POPC   C3A  920  10.006   8.331   8.149  0.1560 -0.0395  0.3589
   31POPC   C4A  921  10.375   8.210   7.840  0.3407  0.1576 -0.0931
   31POPC   C1B  922  10.354   7.565   8.593 -0.1132 -0.0949 -0.0182
   31POPC   C2B  923  10.425   7.805   8.250 -0.0102 -0.1090 -0.0783
   31POPC   C3B  924  10.287   7.740   7.835 -0.2795 -0.3215 -0.3476
   31POPC   C4B  925  10.291   7.927   7.419  0.0794 -0.3096 -0.0182
   32POPC   NC3  926   8.185   1.963   9.041  0.0174 -0.0180 -0.2152
   32POPC   PO4  927   7.850   1.770   9.306  0.0278 -0.4282  0.1761
   32POPC   GL1  928   7.687   1.852   8.847 -0.2181  0.0449  0.0813
   32POPC   GL2  929   7.908   1.920   8.576  0.2509 -0.0208  0.1540
   32POPC   C1A  930   7.367   1.654   8.609  0.0049  0.1278 -0.3338
   32POPC   D2A  931   7.363   1.566   8.197 -0.0279 -0.2217 -0.0851
   32POPC   C3A  932   7.593   1.733   7.733  0.0967 -0.3057 -0.0735
   32POPC   C4A  933   7.449   2.096   7.490 -0.0197 -0.0866  0.0093
   32POPC   C1B  934   7.815   1.883   8.237 -0.0931 -0.0599  0.2492
   32POPC   C2B  935   7.480   2.081   8.065 -0.1460 -0.0476 -0.1228
   32POPC   C3B  936   7.293   2.456   7.767 -0.1392  0.1246 -0.1726
   32POPC   C4B  937   6.973   2.453   7.518  0.1730  0.0330  0.1835
   33POPC   NC3  938   8.244   5.080   9.182  0.0194  0.1086  0.0603
   33POPC   PO4  939   8.718   5.177   9.129 -0.1799 -0.1907  0.4154
   33POPC   GL1  940   8.592   5.355   8.718 -0.0055  0.2073 -0.0089
   33POPC   GL2  941   8.733   5.199   8.422 -0.2030  0.0896 -0.0869
   33POPC   C1A  942   8.389   5.549   8.289  0.2725  0.0297  0.0504
   33POPC   D2A  943   8.012   5.774   7.951  0.3279  0.0029 -0.3081
   33POPC   C3A  944   7.751   5.599   7.596  0.1820  0.1005  0.1500
   33POPC   C4A  945   7.357   5.347   7.401  0.1250 -0.1509  0.1089
   33POPC   C1B  946   8.719   5.253   7.999 -0.2863  0.2379 -0.2798
   33POPC   C2B  947   8.621   5.118   7.558 -0.0532 -0.1727 -0.0370
   33POPC   C3B  948   8.326   4.910   7.247  0.1414 -0.2266  0.3748
   33POPC   C4B  949   7.972   4.901   7.143 -0.1055  0.0463 -0.1551
   34POPC   NC3  950   9.962   3.845   8.982 -0.0458  0.2011 -0.1479
   34POPC   PO4  951   9.539   3.785   8.840  0.1748 -0.2985 -0.2104
   34POPC   GL1  952   9.868   3.753   8.462  0.2210  0.1472  0.1908
   34POPC   GL2  953   9.966   3.429   8.265  0.3033 -0.2148  0.3532
   34POPC   C1A  954  10.055   3.901   8.024  0.1405  0.2401 -0.4382
   34POPC   D2A  955  10.373   3.969   7.717 -0.1122 -0.1568 -0.0800
   34POPC   C3A  956  10.634   3.604   7.553  0.2065 -0.0414  0.4426
   34POPC   C4A  957  10.895   3.598   7.391  0.1599 -0.2014  0.1422
   34POPC   C1B  958   9.620   3.516   7.866 -0.1343  0.1629 -0.1235
   34POPC   C2B  959   9.486   3.561   7.519  0.0040  0.0275 -0.0309
   34POPC   C3B  960   9.425   3.540   7.087  0.0724  0.0271  0.3473
   34POPC   C4B  961   9.266   3.561   6.648  0.0676  0.2001 -0.0589
   35POPC   NC3  962   1.422   5.051   8.964 -0.5519 -0.2325 -0.0120
   35POPC   PO4  963   1.525   4.624   8.986  0.0087 -0.1351 -0.0193
   35POPC   GL1  964   1.515   4.768   8.580  0.0320 -0.3011 -0.1871
   35POPC   GL2  965   1.218   4.853   8.485  0.1699  0.3558  0.1926
   35POPC   C1A  966   1.610   4.651   8.185  0.0870 -0.0444 -0.0734
   35POPC   D2A  967   1.324   4.417   8.038  0.0360  0.1944  0.1153
   35POPC   C3A  968   1.177   4.209   7.656  0.0392  0.1215  0.1402
   35POPC   C4A  969   0.810   4.117   7.419  0.2744  0.0500 -0.0307
   35POPC   C1B  970   1.239   5.162   8.067  0.2042  0.0200  0.1264
   35POPC   C2B  971   1.308   5.509   7.799  0.1939 -0.3766  0.0041
   35POPC   C3B  972   1.649   5.684   7.552  0.1251  0.0579  0.1172
   35POPC   C4B  973   1.795   5.918   7.213 -0.2348  0.0701  0.1265
   36POPC   NC3  974   3.693   3.814   8.975 -0.1872 -0.1218  0.0797
   36POPC   PO4  975   3.291   3.718   8.818 -0.1538 -0.1750  0.0759
   36POPC   GL1  976   3.527   3.728   8.374  0.3159 -0.1075 -0.2350
   36POPC   GL2  977   3.869   3.885   8.473 -0.2159 -0.0113 -0.3381
   36POPC   C1A  978   3.718   3.500   8.043  0.1706 -0.0187  0.4897
   36POPC   D2A  979   3.928   3.546   7.637 -0.2579  0.1402  0.0231
   36POPC   C3A  980   4.339   3.482   7.656 -0.2692 -0.0108 -0.3389
   36POPC   C4A  981   4.613   3.529   7.374 -0.0956 -0.2547 -0.3922
   36POPC   C1B  982   3.788   4.045   8.039 -0.0865  0.2054 -0.1267
   36POPC   C2B  983   3.562   3.900   7.738 -0.1403  0.0531  0.1727
   36POPC   C3B  984   3.472   3.858   7.298  0.3422 -0.0772 -0.2045
   36POPC   C4B  985   3.309   3.776   6.997 -0.0508  0.1108  0.1474
   37POPC   NC3  986   3.192   4.197   8.901  0.0385  0.1902 -0.1710
   37POPC   PO4  987   3.438   4.596   8.890  0.2950  0.2510  0.0020
   37POPC   GL1  988   3.399   4.490   8.443 -0.0548  0.0073 -0.1903
   37POPC   GL2  989   3.445   4.259   8.383 -0.0803  0.0056  0.1655
   37POPC   C1A  990   3.424   4.649   7.998 -0.3911 -0.1117 -0.2487
   37POPC   D2A  991   3.506   4.848   7.724 -0.1007  0.3794  0.0014
   37POPC   C3A  992   3.868   5.079   7.648 -0.2498  0.0398 -0.0272
   37POPC   C4A  993   4.242   5.341   7.537 -0.1303 -0.0699  0.0286
   37POPC   C1B  994   3.240   4.205   7.981  0.1953  0.1301 -0.3047
   37POPC   C2B  995   3.080   4.491   7.651 -0.0267  0.1081 -0.3345
   37POPC   C3B  996   3.275   4.641   7.229 -0.3125 -0.0299  0.0985
   37POPC   C4B  997   3.545   4.966   7.168  0.1409 -0.0767 -0.1220
   38POPC   NC3  998   0.791   1.159  10.890  0.1338 -0.0922  0.3327
   38POPC   PO4  999   0.733   1.135  10.402  0.3596  0.1779  0.0779
   38POPC   GL1 1000   0.995   0.875  10.121  0.3004  0.3081  0.0661
   38POPC   GL2 1001   1.326   0.689  10.112 -0.2338  0.1422  0.1357
   38POPC   C1A 1002   0.938   1.031   9.710 -0.1419  0.1164  0.0504
   38POPC   D2A 1003   0.967   1.083   9.294 -0.0221 -0.1847  0.1707
   38POPC   C3A 1004   1.403   0.954   9.304  0.1806  0.0613 -0.2146
   38POPC   C4A 1005   1.842   0.817   9.126  0.0315 -0.3151 -0.1724
   38POPC   C1B 1006   1.363   0.568   9.640  0.2790 -0.1251  0.0938
   38POPC   C2B 1007   1.354   0.504   9.198  0.2061 -0.0654  0.2439
   38POPC   C3B 1008   1.199   0.443   8.763  0.2026  0.0923 -0.2317
   38POPC   C4B 1009   1.327   0.752   8.451 -0.1811  0.1699 -0.0629
   39POPC   NC3 1010   2.820   5.179   8.855  0.2662 -0.0454  0.1187
   39POPC   PO4 1011   3.213   5.268   9.110  0.2103 -0.1419 -0.1874
   39POPC   GL1 1012   3.217   5.495   8.747 -0.3634  0.1940 -0.4702
   39POPC   GL2 1013   2.974   5.492   8.470 -0.1831  0.1160 -0.0710
   39POPC   C1A 1014   3.485   5.400   8.354 -0.1218  0.0762 -0.1754
   39POPC   D2A 1015   3.504   5.326   7.852  0.1838  0.0546 -0.1304
   39POPC   C3A 1016   3.585   5.594   7.512 -0.0825 -0.0886  0.1329
   39POPC   C4A 1017   3.505   6.033   7.564 -0.4917 -0.2786  0.0940
   39POPC   C1B 1018   3.044   5.463   8.079 -0.1202  0.5977 -0.0436
   39POPC   C2B 1019   2.974   5.551   7.700 -0.0273 -0.0086 -0.2236
   39POPC   C3B 1020   2.912   5.772   7.439 -0.0350  0.0318  0.2482
   39POPC   C4B 1021   3.068   6.091   7.214 -0.2418  0.3742  0.2065
   40POPC   NC3 1022   6.832   9.966   8.903  0.2386  0.0486 -0.1864
   40POPC   PO4 1023   7.025   9.606   8.607 -0.0146 -0.2157 -0.2321
   40POPC   GL1 1024   6.959   9.970   8.351  0.2777 -0.0045  0.0659
   40POPC   GL2 1025   7.253  10.216   8.284  0.0177 -0.2054  0.1914
   40POPC   C1A 1026   6.678  10.249   8.150  0.2249  0.1618  0.1967
   40POPC   D2A 1027   6.508  10.636   7.879 -0.1021 -0.1353  0.1541
   40POPC   C3A 1028   6.586  10.731   7.401 -0.0562 -0.0237  0.0803
   40POPC   C4A 1029   6.647  11.009   7.168  0.0967 -0.4327 -0.0801
   40POPC   C1B 1030   7.400   9.877   7.996  0.3006  0.1508  0.1266
   40POPC   C2B 1031   7.516   9.747   7.667 -0.2313 -0.0685 -0.0740
   40POPC   C3B 1032   7.753   9.852   7.435 -0.0862  0.1196  0.0892
   40POPC   C4B 1033   8.075   9.896   7.162  0.0665  0.2316  0.1185
   41POPC   NC3 1034   5.018   6.531   9.508 -0.0149  0.1488 -0.0924
   41POPC   PO4 1035   4.976   6.577   9.043  0.0269 -0.0967  0.2410
   41POPC   GL1 1036   4.775   6.710   8.673 -0.0958  0.2578 -0.1172
   41POPC   GL2 1037   4.532   6.491   8.655  0.2388  0.0245 -0.0845
   41POPC   C1A 1038   4.600   6.714   8.200  0.1169 -0.1359  0.0459
   41POPC   D2A 1039   4.516   6.867   7.810 -0.0649  0.2186  0.0868
   41POPC   C3A 1040   4.421   6.787   7.369  0.0525  0.2963 -0.0491
   41POPC   C4A 1041   4.158   6.502   7.239 -0.2159 -0.1080 -0.1074
   41POPC   C1B 1042   4.581   6.253   8.306 -0.0538  0.3738  0.1624
   41POPC   C2B 1043   4.621   6.343   7.808  0.3015  0.1315 -0.0096
   41POPC   C3B 1044   4.661   6.325   7.292  0.1618 -0.1210 -0.3659
   41POPC   C4B 1045   4.981   6.365   6.943  0.2465 -0.0854 -0.2970
   42POPC   NC3 1046   1.696   3.887   8.883 -0.2298 -0.0002 -0.2637
   42POPC   PO4 1047   1.993   3.965   8.518 -0.0789  0.1907  0.1736
   42POPC   GL1 1048   1.891   4.229   8.225 -0.0387 -0.0668 -0.2715
   42POPC   GL2 1049   2.076   4.563   8.197  0.1738  0.0491 -0.1526
   42POPC   C1A 1050   1.773   4.365   7.840 -0.0799 -0.0543  0.0210
   42POPC   D2A 1051   1.624   4.480   7.643 -0.0164 -0.1783 -0.1468
   42POPC   C3A 1052   1.301   4.773   7.728  0.3543  0.1586 -0.3178
   42POPC   C4A 1053   0.848   4.653   7.548  0.1245  0.1627  0.0582
   42POPC   C1B 1054   2.255   4.402   7.850  0.1405 -0.2065  0.0513
   42POPC   C2B 1055   2.188   4.354   7.400 -0.1187 -0.0402 -0.2661
   42POPC   C3B 1056   1.737   4.407   7.149 -0.0377  0.3019  0.0174
   42POPC   C4B 1057   1.257   4.424   7.184  0.2556 -0.0802 -0.0429
   43POPC   NC3 1058   6.001   9.309   9.627  0.0083 -0.1247  0.0718
   43POPC   PO4 1059   6.125   9.307   9.137 -0.2267 -0.2607 -0.4761
   43POPC   GL1 1060   5.899   9.367   8.757 -0.3639  0.1029  0.1914
   43POPC   GL2 1061   6.038   9.329   8.427 -0.0534 -0.4006 -0.4002
   43POPC   C1A 1062   5.549   9.533   8.532  0.1100 -0.1251  0.2981
   43POPC   D2A 1063   5.190   9.766   8.331 -0.0945  0.0627 -0.0959
   43POPC   C3A 1064   5.407  10.035   8.101 -0.4094 -0.1496  0.3663
   43POPC   C4A 1065   5.731  10.300   7.980 -0.2019 -0.2503  0.0650
   43POPC   C1B 1066   5.939   9.022   7.943  0.3658 -0.0460 -0.2015
   43POPC   C2B 1067   5.762   9.221   7.681  0.1934  0.0374  0.0807
   43POPC   C3B 1068   5.671   9.435   7.301 -0.0158 -0.1604 -0.2774
   43POPC   C4B 1069   5.454   9.757   7.262 -0.0192  0.0623  0.0833
   44POPC   NC3 1070   1.817   1.926   9.909 -0.4450  0.1683  0.4494
   44POPC   PO4 1071   1.444   1.700  10.189 -0.2823 -0.0167 -0.2052
   44POPC   GL1 1072   1.451   1.469   9.769  0.0888 -0.0468 -0.0690
   44POPC   GL2 1073   1.130   1.709   9.663 -0.0299  0.0307  0.3754
   44POPC   C1A 1074   1.571   1.440   9.416 -0.1062  0.0557 -0.0005
   44POPC   D2A 1075   1.400   1.287   8.904  0.0551  0.1632 -0.1231
   44POPC   C3A 1076   1.123   0.959   8.825  0.1875 -0.1315 -0.0059
   44POPC   C4A 1077   0.735   0.751   8.562  0.1887 -0.1111 -0.0082
   44POPC   C1B 1078   1.071   1.634   9.267 -0.2116 -0.1656 -0.1400
   44POPC   C2B 1079   1.165   1.706   8.849 -0.1557  0.2974  0.1223
   44POPC   C3B 1080   1.431   1.891   8.611  0.1250 -0.0714 -0.1482
   44POPC   C4B 1081   1.462   2.275   8.462 -0.0170  0.1379  0.2979
   45POPC   NC3 1082   3.847   2.054   9.178  0.0601  0.2681  0.0467
   45POPC   PO4 1083   4.232   2.209   9.184 -0.1242 -0.0345  0.1056
   45POPC   GL1 1084   4.218   2.179   8.761 -0.0202  0.1178  0.0335
   45POPC   GL2 1085   4.043   2.478   8.577 -0.1047  0.0750  0.0017
   45POPC   C1A 1086   4.152   2.042   8.343 -0.1945  0.3773  0.0496
   45POPC   D2A 1087   4.052   2.015   7.868 -0.2034  0.4286 -0.3239
   45POPC   C3A 1088   4.178   1.615   7.635  0.1330 -0.0567 -0.0506
   45POPC   C4A 1089   4.331   1.223   7.716 -0.1322 -0.2419  0.3371
   45POPC   C1B 1090   4.127   2.546   8.114 -0.0091 -0.0852  0.1348
   45POPC   C2B 1091   4.507   2.385   7.796 -0.1605  0.0504 -0.1423
   45POPC   C3B 1092   4.570   2.390   7.302 -0.0980  0.0550  0.2043
   45POPC   C4B 1093   4.742   2.481   6.943  0.0655  0.0085 -0.3248
   46POPC   NC3 1094   1.039   4.457   8.839 -0.2048 -0.3583 -0.2343
   46POPC   PO4 1095   0.978   4.215   8.542 -0.1137  0.2746  0.0391
   46POPC   GL1 1096   0.859   4.503   8.343 -0.1818  0.1237  0.0764
   46POPC   GL2 1097   0.823   4.287   8.062  0.2178 -0.0452 -0.1636
   46POPC   C1A 1098   0.891   4.780   8.034 -0.1162  0.1730 -0.0051
   46POPC   D2A 1099   0.782   5.155   7.746  0.2214  0.0683  0.1850
   46POPC   C3A 1100   0.639   5.515   7.745  0.1556 -0.0569 -0.0192
   46POPC   C4A 1101   0.422   5.934   7.639 -0.1064  0.4291 -0.0885
   46POPC   C1B 1102   0.701   3.889   7.891 -0.0258 -0.0592  0.1088
   46POPC   C2B 1103   1.098   3.617   7.717 -0.2234  0.2473  0.1834
   46POPC   C3B 1104   1.499   3.485   7.470 -0.0325 -0.0581  0.0887
   46POPC   C4B 1105   1.831   3.387   7.142 -0.2035  0.0307  0.1159
   47POPC   NC3 1106   5.301   4.955   9.039 -0.0648 -0.0106  0.1917
   47POPC   PO4 1107   5.279   5.268   8.736  0.1887 -0.0772  0.0780
   47POPC   GL1 1108   5.232   5.244   8.288  0.2980  0.5442 -0.0675
   47POPC   GL2 1109   4.888   5.306   8.334  0.1291  0.1774 -0.2093
   47POPC   C1A 1110   5.027   5.021   7.888  0.0627  0.1235  0.0370
   47POPC   D2A 1111   5.279   4.883   7.491 -0.0072  0.0338  0.3335
   47POPC   C3A 1112   5.498   4.633   7.118  0.0460 -0.0346  0.2814
   47POPC   C4A 1113   5.726   4.524   6.774  0.1333  0.3886  0.2218
   47POPC   C1B 1114   4.984   5.736   8.113 -0.1092  0.1733 -0.0885
   47POPC   C2B 1115   5.003   5.970   7.632 -0.0894  0.0677 -0.0719
   47POPC   C3B 1116   5.190   6.337   7.425  0.0002 -0.3452  0.0088
   47POPC   C4B 1117   5.284   6.742   7.227 -0.2119  0.0445 -0.1336
   48POPC   NC3 1118   0.602   9.816   9.969  0.0610  0.2214  0.0742
   48POPC   PO4 1119   0.560  10.098  10.250 -0.1136 -0.2607 -0.1286
   48POPC   GL1 1120   0.729  10.394   9.893 -0.1807 -0.0945 -0.1359
   48POPC   GL2 1121   0.550  10.246   9.644  0.5552 -0.1609 -0.1306
   48POPC   C1A 1122   0.871  10.734   9.601  0.3672 -0.0328 -0.0769
   48POPC   D2A 1123   0.810  10.792   9.128  0.0456  0.0008  0.1720
   48POPC   C3A 1124   0.486  11.141   8.964  0.2118  0.0165 -0.1668
   48POPC   C4A 1125   0.244  11.518   9.068 -0.1182  0.0080 -0.1780
   48POPC   C1B 1126   0.502  10.094   9.295 -0.0811  0.0071  0.1641
   48POPC   C2B 1127   0.374  10.081   8.893  0.2664  0.1832 -0.0621
   48POPC   C3B 1128   0.512   9.840   8.546 -0.0067 -0.2806 -0.2302
   48POPC   C4B 1129   0.574   9.415   8.366 -0.2740 -0.4612 -0.0581
   49POPC   NC3 1130   4.952   5.640   8.733 -0.0731 -0.1486  0.1114
   49POPC   PO4 1131   5.291   5.833   8.890  0.0618  0.0341  0.0958
   49POPC   GL1 1132   5.362   5.754   8.452  0.1117  0.1172 -0.0510
   49POPC   GL2 1133   5.317   6.033   8.428  0.0423  0.1736 -0.0343
   49POPC   C1A 1134   5.685   5.460   8.225 -0.1585  0.0652  0.0661
   49POPC   D2A 1135   5.894   5.462   7.794  0.0667  0.0635 -0.2596
   49POPC   C3A 1136   6.274   5.575   7.585  0.1443 -0.2742 -0.0509
   49POPC   C4A 1137   6.601   5.394   7.372 -0.1332  0.1211  0.2921
   49POPC   C1B 1138   5.467   5.899   7.974  0.0080  0.0766  0.0150
   49POPC   C2B 1139   5.513   5.720   7.555 -0.0760 -0.2124  0.0682
   49POPC   C3B 1140   5.843   5.741   7.263  0.0474  0.0787 -0.0999
   49POPC   C4B 1141   5.970   5.440   7.005 -0.0635  0.0757 -0.0813
   50POPC   NC3 1142   8.259   9.963   9.250  0.2689 -0.2305 -0.1290
   50POPC   PO4 1143   7.773  10.154   9.107 -0.1966  0.1532  0.2991
   50POPC   GL1 1144   7.638  10.189   8.619 -0.2110  0.1939 -0.2082
   50POPC   GL2 1145   7.715   9.952   8.429  0.0102 -0.3321  0.0273
   50POPC   C1A 1146   7.771  10.499   8.290  0.4214 -0.0670 -0.0620
   50POPC   D2A 1147   7.822  10.921   8.375 -0.0443  0.2006 -0.1112
   50POPC   C3A 1148   7.545  11.118   8.122 -0.0658  0.3986 -0.3603
   50POPC   C4A 1149   7.131  11.323   8.019  0.1591  0.0030 -0.1523
   50POPC   C1B 1150   7.852  10.023   8.043  0.2601  0.1471 -0.0822
   50POPC   C2B 1151   8.088  10.117   7.665 -0.0946  0.1806  0.2736
   50POPC   C3B 1152   8.450  10.198   7.440  0.1256  0.0441  0.0953
   50POPC   C4B 1153   8.727  10.456   7.135 -0.2125 -0.1606  0.0624
   51POPC   NC3 1154   4.395   4.451   9.459 -0.0753 -0.1298  0.2428
   51POPC   PO4 1155   4.708   4.186   9.284 -0.1711 -0.1709 -0.1955
   51POPC   GL1 1156   4.711   4.247   8.861 -0.3281 -0.2123 -0.0476
   51POPC   GL2 1157   4.454   4.246   8.686  0.1809 -0.1955 -0.0469
   51POPC   C1A 1158   4.831   4.505   8.563 -0.0796  0.0901 -0.0947
   51POPC   D2A 1159   4.724   4.709   8.132 -0.0420  0.0944  0.1762
   51POPC   C3A 1160   4.573   5.115   7.972 -0.2213  0.1453  0.1347
   51POPC   C4A 1161   4.736   5.483   7.667  0.0056  0.1797 -0.1712
   51POPC   C1B 1162   4.628   4.050   8.317 -0.0859  0.1110  0.2195
   51POPC   C2B 1163   5.052   4.174   8.129  0.1402  0.0339 -0.1498
   51POPC   C3B 1164   5.521   4.090   7.989  0.2685  0.0564  0.0692
   51POPC   C4B 1165   5.557   3.936   7.560 -0.3061 -0.2267  0.3087
   52POPC   NC3 1166   7.897   0.458   8.986 -0.0360  0.0082  0.4477
   52POPC   PO4 1167   8.222   0.657   8.639  0.1942  0.3971 -0.0177
   52POPC   GL1 1168   8.616   0.833   8.396 -0.1392  0.2900  0.3594
   52POPC   GL2 1169   8.910   0.691   8.378  0.3996 -0.0539 -0.0509
   52POPC   C1A 1170   8.719   0.943   7.948  0.3770  0.0439 -0.1090
   52POPC   D2A 1171   8.921   1.107   7.476  0.1709 -0.0219 -0.0208
   52POPC   C3A 1172   9.336   1.192   7.496  0.2880  0.4653  0.0087
   52POPC   C4A 1173   9.658   1.438   7.548  0.3079 -0.2390 -0.0476
   52POPC   C1B 1174   8.584   0.443   8.076  0.0622 -0.2006  0.0086
   52POPC   C2B 1175   8.385   0.423   7.715  0.2217 -0.1586 -0.0380
   52POPC   C3B 1176   8.167   0.479   7.360 -0.3775 -0.0475  0.0054
   52POPC   C4B 1177   8.043   0.490   6.908 -0.0751 -0.3218  0.0675
   53POPC   NC3 1178   7.320   6.303   9.315  0.1600 -0.0735  0.1745
   53POPC   PO4 1179   7.338   6.203   8.928 -0.1011 -0.0336 -0.0608
   53POPC   GL1 1180   7.341   6.016   8.518 -0.2496 -0.2738  0.2014
   53POPC   GL2 1181   7.295   6.243   8.249 -0.0017  0.4002  0.2997
   53POPC   C1A 1182   7.307   5.720   8.266 -0.0564  0.0245  0.1977
   53POPC   D2A 1183   7.265   5.718   7.727  0.0720  0.2208 -0.0428
   53POPC   C3A 1184   7.153   6.105   7.529 -0.1516  0.0132 -0.0044
   53POPC   C4A 1185   7.403   6.484   7.307  0.1233 -0.0400  0.0301
   53POPC   C1B 1186   7.549   6.039   7.924  0.2523  0.3225  0.0365
   53POPC   C2B 1187   7.675   6.123   7.521 -0.0289 -0.1017 -0.2379
   53POPC   C3B 1188   7.518   6.060   7.161 -0.5025  0.3909 -0.1289
   53POPC   C4B 1189   7.245   6.181   6.823 -0.3220 -0.4557 -0.4164
   54POPC   NC3 1190   5.002   0.054   9.910  0.0031  0.1929 -0.2164
   54POPC   PO4 1191   4.800   0.256   9.703  0.1168  0.0085  0.0613
   54POPC   GL1 1192   4.445   0.021   9.661  0.0530 -0.0865  0.0282
   54POPC   GL2 1193   4.203   0.136   9.371  0.1540 -0.0957 -0.1198
   54POPC   C1A 1194   4.361  -0.387   9.300  0.1367 -0.3402  0.2676
   54POPC   D2A 1195   4.417  -0.498   8.864  0.0783 -0.2004 -0.1725
   54POPC   C3A 1196   4.242  -0.542   8.432 -0.0819 -0.2885 -0.1691
   54POPC   C4A 1197   3.794  -0.710   8.198 -0.1109 -0.2543 -0.0226
   54POPC   C1B 1198   4.198   0.015   8.893  0.2592 -0.2607 -0.0125
   54POPC   C2B 1199   4.138   0.023   8.396  0.2082  0.1266  0.0118
   54POPC   C3B 1200   4.431  -0.032   8.039 -0.0084 -0.0567 -0.0235
   54POPC   C4B 1201   4.880  -0.041   8.092  0.0990  0.0424  0.1967
   55POPC   NC3 1202   9.872   9.972  10.269  0.2919 -0.1591  0.0549
   55POPC   PO4 1203   9.537   9.977   9.954 -0.2425 -0.0327 -0.3216
   55POPC   GL1 1204   9.883  10.146   9.726 -0.3452  0.2231  0.0590
   55POPC   GL2 1205   9.776   9.999   9.399  0.0477  0.1568 -0.1634
   55POPC   C1A 1206  10.246  10.255   9.537  0.0259 -0.3891 -0.1458
   55POPC   D2A 1207  10.561  10.622   9.368 -0.0612 -0.1265 -0.3010
   55POPC   C3A 1208  10.593  11.105   9.453  0.0079  0.0445  0.2877
   55POPC   C4A 1209  10.751  11.546   9.504 -0.0288 -0.3799  0.2625
   55POPC   C1B 1210   9.993   9.986   9.150 -0.0807 -0.3120  0.3066
   55POPC   C2B 1211  10.079  10.313   8.942  0.0909 -0.2587 -0.0879
   55POPC   C3B 1212  10.183  10.274   8.631  0.1652 -0.0227 -0.0381
   55POPC   C4B 1213  10.333  10.273   8.215 -0.3160 -0.1200 -0.3378
   56POPC   NC3 1214   2.546   4.840   9.093  0.1040 -0.2382  0.4432
   56POPC   PO4 1215   2.718   4.423   8.926  0.2831 -0.0922  0.3168
   56POPC   GL1 1216   2.861   4.723   8.608 -0.4286 -0.0805 -0.0930
   56POPC   GL2 1217   3.193   4.964   8.669  0.2346  0.3415  0.1244
   56POPC   C1A 1218   2.947   4.558   8.212 -0.1920  0.0335 -0.0508
   56POPC   D2A 1219   2.704   4.358   7.967 -0.0220 -0.2128 -0.2120
   56POPC   C3A 1220   2.578   4.082   7.617  0.4478  0.2305 -0.2946
   56POPC   C4A 1221   2.392   3.777   7.374  0.0353 -0.0902  0.0542
   56POPC   C1B 1222   3.231   4.993   8.273  0.2042 -0.1866  0.1632
   56POPC   C2B 1223   2.979   4.919   7.849  0.0795 -0.3633  0.0881
   56POPC   C3B 1224   3.025   4.952   7.434  0.0116 -0.2172  0.0056
   56POPC   C4B 1225   2.992   5.015   6.984 -0.0305 -0.0946  0.3239
   57POPC   NC3 1226   1.788   4.901   9.561 -0.1111 -0.1744  0.0485
   57POPC   PO4 1227   1.713   5.216   9.279 -0.0312 -0.0807 -0.0008
   57POPC   GL1 1228   1.710   5.453   8.820  0.1440 -0.0202  0.0285
   57POPC   GL2 1229   1.840   5.128   8.697  0.0008  0.0207  0.0947
   57POPC   C1A 1230   1.994   5.597   8.428  0.2095  0.1349 -0.0314
   57POPC   D2A 1231   2.248   5.518   7.978  0.0936  0.2613 -0.3022
   57POPC   C3A 1232   2.587   5.749   7.913 -0.2048 -0.1285  0.2507
   57POPC   C4A 1233   2.835   5.913   8.193 -0.0517  0.2802  0.1031
   57POPC   C1B 1234   1.926   5.071   8.279 -0.2846 -0.0999  0.1888
   57POPC   C2B 1235   1.938   4.947   7.899  0.0310 -0.1888 -0.3374
   57POPC   C3B 1236   2.040   4.829   7.638  0.0013  0.0597  0.1815
   57POPC   C4B 1237   2.340   4.919   7.256 -0.0666  0.0049  0.0603
   58POPC   NC3 1238   6.724   7.052   9.007 -0.1705  0.1700 -0.1726
   58POPC   PO4 1239   6.470   7.411   8.822  0.0676  0.0817  0.2614
   58POPC   GL1 1240   6.284   7.386   8.433  0.0517 -0.0413  0.3343
   58POPC   GL2 1241   6.097   7.499   8.276 -0.0611  0.0482 -0.2894
   58POPC   C1A 1242   6.400   7.226   7.984 -0.1150  0.0309  0.1459
   58POPC   D2A 1243   6.512   7.434   7.583  0.2137  0.1863  0.0414
   58POPC   C3A 1244   6.753   7.641   7.594  0.3424 -0.0000 -0.0934
   58POPC   C4A 1245   7.141   7.816   7.728  0.2600 -0.2215 -0.1174
   58POPC   C1B 1246   5.993   7.465   7.883  0.0505 -0.1033  0.2598
   58POPC   C2B 1247   6.011   7.454   7.473 -0.2356 -0.1402  0.1209
   58POPC   C3B 1248   6.035   7.758   7.131  0.0796 -0.0992  0.0369
   58POPC   C4B 1249   5.711   7.959   6.883  0.0375 -0.2041  0.0052
   59POPC   NC3 1250   5.913   1.973   9.030  0.0093 -0.0454  0.1317
   59POPC   PO4 1251   5.560   1.721   8.828  0.1468  0.0912  0.1795
   59POPC   GL1 1252   5.767   1.426   8.531  0.2466 -0.2623  0.1365
   59POPC   GL2 1253   6.029   1.043   8.613 -0.1575 -0.0939 -0.4274
   59POPC   C1A 1254   5.535   1.308   8.157  0.4010  0.0353 -0.1867
   59POPC   D2A 1255   5.434   0.982   7.880  0.2897 -0.0607 -0.0670
   59POPC   C3A 1256   5.393   0.493   7.965 -0.0318 -0.0055  0.0136
   59POPC   C4A 1257   5.658   0.304   8.414  0.1370 -0.2703  0.0734
   59POPC   C1B 1258   5.716   0.844   8.246  0.1477 -0.0724 -0.3883
   59POPC   C2B 1259   5.858   0.708   7.922  0.0245 -0.0385 -0.2436
   59POPC   C3B 1260   5.988   0.384   7.652  0.0787  0.2021 -0.2003
   59POPC   C4B 1261   6.171   0.168   7.382 -0.1797  0.0064  0.0717
   60POPC   NC3 1262   9.688   6.200   9.467 -0.1741  0.1125  0.0592
   60POPC   PO4 1263   9.989   6.318   9.142  0.1354 -0.0424 -0.1549
   60POPC   GL1 1264  10.165   6.369   8.790  0.2907  0.2109 -0.2926
   60POPC   GL2 1265  10.157   6.582   8.778  0.0845 -0.3024 -0.0284
   60POPC   C1A 1266  10.573   6.408   8.582 -0.2163 -0.1676 -0.0473
   60POPC   D2A 1267  10.977   6.487   8.644 -0.0167  0.0330 -0.2488
   60POPC   C3A 1268  11.088   6.830   8.887  0.2263 -0.3362 -0.0306
   60POPC   C4A 1269  11.558   7.039   8.924  0.1406  0.3785 -0.0527
   60POPC   C1B 1270  10.167   6.688   8.349  0.3273  0.1449  0.0471
   60POPC   C2B 1271  10.490   6.697   8.134 -0.0411 -0.1244 -0.1419
   60POPC   C3B 1272  10.807   6.996   7.990  0.0637 -0.0390 -0.1504
   60POPC   C4B 1273  11.301   7.185   8.030 -0.0231  0.0253  0.0771
   61POPC   NC3 1274   9.262   2.959   8.864 -0.0561 -0.3056  0.1880
   61POPC   PO4 1275   8.780   2.891   8.981  0.0196  0.1849  0.0688
   61POPC   GL1 1276   8.711   2.929   8.581 -0.3069  0.0052  0.0689
   61POPC   GL2 1277   8.570   3.144   8.321  0.0513  0.2240  0.1843
   61POPC   C1A 1278   8.823   2.739   8.221  0.1316  0.1146  0.0187
   61POPC   D2A 1279   8.889   2.579   7.837 -0.1146 -0.1182  0.0208
   61POPC   C3A 1280   9.215   2.194   7.753  0.2958  0.0913  0.1574
   61POPC   C4A 1281   9.689   2.099   7.730 -0.0054 -0.0122  0.1020
   61POPC   C1B 1282   8.363   3.530   8.273 -0.0463  0.2245 -0.1398
   61POPC   C2B 1283   8.205   3.938   8.249  0.0950  0.2535 -0.5960
   61POPC   C3B 1284   7.960   4.180   8.592  0.4112 -0.0490  0.1881
   61POPC   C4B 1285   8.007   4.665   8.692  0.3170 -0.0929 -0.1595
   62POPC   NC3 1286   4.767   2.831   8.962  0.0146  0.5037  0.1361
   62POPC   PO4 1287   4.823   3.197   8.846  0.1793 -0.0680  0.0168
   62POPC   GL1 1288   4.687   3.048   8.504  0.0635  0.2589 -0.2063
   62POPC   GL2 1289   4.969   3.288   8.395  0.2191 -0.0317  0.1159
   62POPC   C1A 1290   4.543   2.908   8.126  0.1486 -0.1844 -0.2381
   62POPC   D2A 1291   4.285   2.879   7.810 -0.2319  0.2910  0.2160
   62POPC   C3A 1292   4.107   2.564   7.459 -0.0771  0.1952  0.1167
   62POPC   C4A 1293   4.141   2.175   7.357  0.0511 -0.2187 -0.2939
   62POPC   C1B 1294   5.006   3.630   8.218 -0.2191  0.0725 -0.1064
   62POPC   C2B 1295   4.711   3.798   7.865  0.3155 -0.1603 -0.2001
   62POPC   C3B 1296   4.691   4.013   7.380 -0.0336 -0.2398  0.2854
   62POPC   C4B 1297   4.405   3.881   7.164  0.1261 -0.2055 -0.1374
   63POPC   NC3 1298   5.812   0.089   9.238 -0.1348 -0.0069 -0.2477
   63POPC   PO4 1299   5.752   0.528   9.340 -0.1009  0.0099 -0.2102
   63POPC   GL1 1300   5.724   0.478   8.862 -0.2375  0.2412  0.0288
   63POPC   GL2 1301   6.027   0.456   8.697  0.0903  0.0508 -0.0914
   63POPC   C1A 1302   5.398   0.682   8.605 -0.0102  0.2564 -0.0839
   63POPC   D2A 1303   5.100   0.612   8.402  0.3914  0.3513 -0.1092
   63POPC   C3A 1304   5.032   1.024   8.324  0.0462 -0.1149 -0.0180
   63POPC   C4A 1305   4.791   1.437   8.364 -0.1502 -0.0963 -0.0723
   63POPC   C1B 1306   6.196   0.392   8.258 -0.3167  0.0255  0.1129
   63POPC   C2B 1307   6.257   0.037   7.907 -0.0603  0.1928  0.0682
   63POPC   C3B 1308   6.451  -0.326   7.741 -0.2627 -0.0730  0.0905
   63POPC   C4B 1309   6.620  -0.491   7.451 -0.1082  0.0709  0.0341
   64POPC   NC3 1310   1.374   2.844   9.115 -0.4252 -0.0824 -0.2626
   64POPC   PO4 1311   1.159   2.517   9.025  0.3427  0.0113 -0.0849
   64POPC   GL1 1312   0.976   2.419   8.663 -0.0448 -0.1744  0.0795
   64POPC   GL2 1313   0.914   2.667   8.586  0.0904  0.3679  0.0488
   64POPC   C1A 1314   0.937   2.271   8.258  0.0582 -0.1272 -0.0621
   64POPC   D2A 1315   0.890   1.987   7.846  0.0289  0.0295 -0.0722
   64POPC   C3A 1316   1.092   2.118   7.546 -0.0441 -0.1292 -0.1928
   64POPC   C4A 1317   1.208   2.495   7.374  0.3399  0.3147 -0.4374
   64POPC   C1B 1318   0.712   2.707   8.215  0.0880 -0.1663  0.2360
   64POPC   C2B 1319   0.545   2.998   8.039 -0.5103  0.0170 -0.0090
   64POPC   C3B 1320   0.431   3.090   7.606 -0.1055  0.0291  0.0243
   64POPC   C4B 1321   0.492   3.198   7.118  0.1139 -0.1447 -0.0047
   65POPC   NC3 1322   7.224   7.066   9.188 -0.3623 -0.0407  0.0517
   65POPC   PO4 1323   7.552   7.203   8.962 -0.1623 -0.0914  0.4400
   65POPC   GL1 1324   7.639   7.122   8.526  0.2145 -0.1799 -0.2264
   65POPC   GL2 1325   7.429   7.363   8.467 -0.2765 -0.1446 -0.0299
   65POPC   C1A 1326   7.901   7.223   8.146  0.0842  0.1225  0.0494
   65POPC   D2A 1327   8.120   6.940   7.832 -0.0790 -0.0414  0.1589
   65POPC   C3A 1328   8.077   7.080   7.412  0.0784 -0.2215 -0.1156
   65POPC   C4A 1329   8.066   7.456   7.159 -0.5399  0.0830  0.1023
   65POPC   C1B 1330   7.151   7.472   8.245  0.2023 -0.0013 -0.0600
   65POPC   C2B 1331   6.803   7.514   8.049 -0.0561 -0.3552 -0.3824
   65POPC   C3B 1332   6.353   7.798   7.929 -0.3776 -0.1087 -0.1332
   65POPC   C4B 1333   6.320   7.901   7.488  0.3441  0.0285 -0.1633
   66POPC   NC3 1334   9.748   4.646   9.218 -0.0589  0.2967 -0.0370
   66POPC   PO4 1335   9.912   4.336   8.913 -0.0636  0.1512 -0.2099
   66POPC   GL1 1336   9.471   4.203   8.616 -0.3033  0.4016  0.0967
   66POPC   GL2 1337   9.141   4.059   8.580 -0.1230  0.0397 -0.0458
   66POPC   C1A 1338   9.506   4.092   8.119 -0.1669  0.1370 -0.0593
   66POPC   D2A 1339   9.639   4.179   7.638 -0.0042  0.4603  0.0017
   66POPC   C3A 1340   9.260   4.053   7.370 -0.0306  0.0999 -0.2118
   66POPC   C4A 1341   8.810   4.063   7.502  0.2341  0.0530  0.1934
   66POPC   C1B 1342   9.205   4.472   8.303  0.1669  0.1044  0.2241
   66POPC   C2B 1343   9.120   4.823   8.094 -0.3265  0.1656 -0.2290
   66POPC   C3B 1344   9.042   4.954   7.672  0.0087  0.1282 -0.0715
   66POPC   C4B 1345   9.016   4.828   7.283  0.0112  0.0555  0.4270
   67POPC   NC3 1346   4.250   3.821   8.806  0.0550  0.0491 -0.0097
   67POPC   PO4 1347   4.057   3.477   8.808  0.0485 -0.0978 -0.0663
   67POPC   GL1 1348   4.224   3.426   8.486  0.2575  0.0919  0.0321
   67POPC   GL2 1349   4.064   3.302   8.298 -0.1750  0.2718 -0.4363
   67POPC   C1A 1350   4.541   3.400   8.127 -0.1122  0.1508 -0.1177
   67POPC   D2A 1351   4.936   3.271   7.856 -0.1990 -0.5558 -0.1408
   67POPC   C3A 1352   5.082   3.602   7.501 -0.5269 -0.0496 -0.1949
   67POPC   C4A 1353   5.105   3.985   7.603  0.2180  0.1285  0.0463
   67POPC   C1B 1354   4.232   3.755   8.060 -0.1226  0.1888  0.1722
   67POPC   C2B 1355   4.190   3.942   7.710  0.1324 -0.3901 -0.1574
   67POPC   C3B 1356   3.879   4.074   7.375 -0.0268  0.0303  0.1569
   67POPC   C4B 1357   3.521   4.316   7.476 -0.2232  0.3039  0.3089
   68POPC   NC3 1358   2.945   2.508   9.300 -0.1279  0.1864  0.0192
   68POPC   PO4 1359   3.041   2.754   8.942 -0.0630 -0.2198 -0.0079
   68POPC   GL1 1360   2.856   2.718   8.458  0.0571 -0.1917 -0.0507
   68POPC   GL2 1361   2.545   2.730   8.610  0.2127 -0.0750 -0.1460
   68POPC   C1A 1362   2.847   2.600   8.071  0.2864 -0.2299  0.1511
   68POPC   D2A 1363   2.824   2.670   7.629 -0.0121  0.0418  0.0505
   68POPC   C3A 1364   2.527   2.480   7.404  0.1271  0.3845 -0.3497
   68POPC   C4A 1365   2.295   2.661   7.106  0.1005  0.0310 -0.0879
   68POPC   C1B 1366   2.469   2.418   8.334 -0.2887  0.0140 -0.4303
   68POPC   C2B 1367   2.585   2.221   7.882 -0.1134  0.1141 -0.6081
   68POPC   C3B 1368   2.892   1.972   7.666 -0.0381  0.0775 -0.0045
   68POPC   C4B 1369   3.173   1.729   7.488 -0.2513  0.1319  0.0259
   69POPC   NC3 1370   4.504   1.429   9.442  0.1863  0.3041 -0.1918
   69POPC   PO4 1371   4.186   1.700   9.395  0.0217 -0.2042 -0.2194
   69POPC   GL1 1372   4.179   1.615   8.995  0.3533  0.1459  0.0595
   69POPC   GL2 1373   4.448   1.692   8.790 -0.0901  0.1877 -0.1104
   69POPC   C1A 1374   3.967   1.610   8.613  0.1845 -0.1685 -0.0378
   69POPC   D2A 1375   3.747   1.725   8.221 -0.0114  0.1631  0.2249
   69POPC   C3A 1376   3.711   1.468   7.852 -0.2320  0.0955  0.2331
   69POPC   C4A 1377   3.616   1.353   7.449  0.0800  0.3405 -0.2715
   69POPC   C1B 1378   4.366   1.245   8.555  0.0812  0.2016 -0.2344
   69POPC   C2B 1379   4.496   1.079   8.140 -0.0380  0.1149  0.0141
   69POPC   C3B 1380   4.222   0.746   7.863 -0.1279  0.1176 -0.1309
   69POPC   C4B 1381   4.462   0.775   7.402 -0.1754  0.1159 -0.2856
   70POPC   NC3 1382   2.493   2.671   9.129  0.0401 -0.1935  0.1441
   70POPC   PO4 1383   2.484   2.300   9.355 -0.1658 -0.2299 -0.2133
   70POPC   GL1 1384   2.336   2.129   8.997  0.1669 -0.0463 -0.0929
   70POPC   GL2 1385   2.249   2.404   8.797  0.1401  0.3793 -0.1269
   70POPC   C1A 1386   2.529   2.014   8.631 -0.0935  0.1117  0.0743
   70POPC   D2A 1387   2.757   1.820   8.248  0.0161 -0.1795 -0.2731
   70POPC   C3A 1388   2.718   1.560   7.872 -0.1420  0.0543 -0.5304
   70POPC   C4A 1389   2.736   1.421   7.461 -0.0435 -0.0066  0.1171
   70POPC   C1B 1390   1.932   2.556   8.440  0.3239  0.0787  0.0166
   70POPC   C2B 1391   1.752   2.492   8.051  0.0546 -0.0433  0.2234
   70POPC   C3B 1392   1.525   2.686   7.798  0.1583 -0.0323  0.1322
   70POPC   C4B 1393   1.494   3.034   7.430  0.1658 -0.1684  0.1848
   71POPC   NC3 1394   9.612   1.804   9.488  0.0110 -0.2421 -0.0139
   71POPC   PO4 1395   9.597   1.348   9.512 -0.0197 -0.1429 -0.2000
   71POPC   GL1 1396   9.519   1.291   9.036 -0.2460  0.3068  0.2081
   71POPC   GL2 1397   9.434   0.941   8.937 -0.0241 -0.2101  0.1772
   71POPC   C1A 1398   9.508   1.596   8.645 -0.0078  0.0560  0.1762
   71POPC   D2A 1399   9.313   1.871   8.288  0.2831  0.6598  0.1603
   71POPC   C3A 1400   9.326   1.642   7.849  0.1959  0.3103  0.2651
   71POPC   C4A 1401   9.085   1.629   7.602 -0.1685 -0.0533 -0.3298
   71POPC   C1B 1402   9.375   0.750   8.562 -0.2517 -0.2794 -0.1659
   71POPC   C2B 1403   9.240   0.388   8.442  0.2429  0.0476  0.0378
   71POPC   C3B 1404   9.079   0.434   7.973  0.0625  0.1816  0.0167
   71POPC   C4B 1405   8.838   0.569   7.565  0.4062 -0.2401  0.0523
   72POPC   NC3 1406   7.461   7.704   8.802  0.0456 -0.0357 -0.3057
   72POPC   PO4 1407   7.882   7.683   8.993 -0.0521  0.0364  0.2371
   72POPC   GL1 1408   7.894   7.552   8.592 -0.1197  0.1031  0.0262
   72POPC   GL2 1409   8.161   7.398   8.646  0.1013  0.0334  0.3733
   72POPC   C1A 1410   8.199   7.682   8.261 -0.1860  0.3857 -0.1533
   72POPC   D2A 1411   8.512   7.690   8.057  0.1827 -0.0848 -0.3942
   72POPC   C3A 1412   8.577   7.704   7.603 -0.3443  0.0161  0.2838
   72POPC   C4A 1413   8.434   7.761   7.105  0.0206  0.2312 -0.2679
   72POPC   C1B 1414   8.443   7.237   8.296 -0.3524  0.1432  0.0407
   72POPC   C2B 1415   8.602   7.152   7.910 -0.1408 -0.0791 -0.0318
   72POPC   C3B 1416   8.935   6.867   7.646  0.0971 -0.0184  0.0397
   72POPC   C4B 1417   8.997   6.694   7.239 -0.1872  0.1931 -0.0939
   73POPC   NC3 1418   5.429   8.472   9.406 -0.0172  0.0316 -0.3053
   73POPC   PO4 1419   5.607   8.939   9.393 -0.2078 -0.0252  0.0414
   73POPC   GL1 1420   5.496   8.896   8.915 -0.1962  0.2747  0.1126
   73POPC   GL2 1421   5.589   8.505   8.826  0.0380  0.1431  0.3661
   73POPC   C1A 1422   5.622   8.950   8.492 -0.0271 -0.2569 -0.3533
   73POPC   D2A 1423   5.441   8.917   8.104 -0.1199 -0.0695 -0.0494
   73POPC   C3A 1424   5.186   9.186   7.798 -0.2940 -0.1490 -0.1126
   73POPC   C4A 1425   5.129   9.313   7.369  0.2563 -0.2291  0.0160
   73POPC   C1B 1426   5.403   8.509   8.486 -0.0378  0.4006 -0.1018
   73POPC   C2B 1427   5.254   8.399   8.132 -0.1404 -0.0061 -0.0979
   73POPC   C3B 1428   5.134   8.637   7.748 -0.0804  0.3074 -0.0281
   73POPC   C4B 1429   5.029   8.827   7.340  0.2867 -0.0397  0.1265
   74POPC   NC3 1430   5.768   6.950   8.890  0.0394  0.0727 -0.4021
   74POPC   PO4 1431   5.882   7.078   8.441 -0.1746 -0.2332 -0.3303
   74POPC   GL1 1432   6.064   6.850   8.235  0.3031  0.0385  0.1574
   74POPC   GL2 1433   6.316   6.719   8.335 -0.1180 -0.2111  0.0795
   74POPC   C1A 1434   6.048   6.956   7.731  0.1371  0.1216 -0.2830
   74POPC   D2A 1435   6.275   6.924   7.358 -0.1955  0.0758 -0.0788
   74POPC   C3A 1436   6.607   6.851   7.449 -0.6438 -0.0422  0.0731
   74POPC   C4A 1437   6.729   6.424   7.460  0.0081  0.3554 -0.1455
   74POPC   C1B 1438   6.513   6.686   7.889  0.0543  0.6416  0.1248
   74POPC   C2B 1439   6.278   6.468   7.602 -0.0627  0.1663  0.0284
   74POPC   C3B 1440   5.984   6.260   7.251 -0.0256  0.0735 -0.1644
   74POPC   C4B 1441   5.492   6.218   7.026  0.4047 -0.1169 -0.1525
   75POPC   NC3 1442   9.185   1.143   9.373 -0.0340  0.0364 -0.2027
   75POPC   PO4 1443   8.916   0.823   9.175  0.0271  0.2297  0.3104
   75POPC   GL1 1444   8.934   1.129   8.830 -0.2476  0.0360 -0.4733
   75POPC   GL2 1445   9.119   1.318   8.715  0.0306  0.1250 -0.2502
   75POPC   C1A 1446   8.747   1.294   8.381 -0.0490  0.0978 -0.0985
   75POPC   D2A 1447   8.858   1.480   8.009 -0.1490 -0.0452 -0.1281
   75POPC   C3A 1448   8.558   1.636   7.741  0.4187 -0.2032 -0.0614
   75POPC   C4A 1449   8.156   1.562   7.536 -0.0615  0.0409 -0.1107
   75POPC   C1B 1450   9.285   1.360   8.284  0.4273  0.1539  0.2645
   75POPC   C2B 1451   9.574   1.211   8.023  0.1544  0.2572 -0.2364
   75POPC   C3B 1452   9.781   0.982   7.704  0.0418  0.0493  0.4537
   75POPC   C4B 1453   9.837   1.071   7.228 -0.0172  0.2921 -0.2363
   76POPC   NC3 1454   5.435   3.680   9.533 -0.2929 -0.0063 -0.1476
   76POPC   PO4 1455   5.546   3.723   9.139  0.1122 -0.3426  0.3801
   76POPC   GL1 1456   5.697   3.777   8.748 -0.0674 -0.0158  0.1225
   76POPC   GL2 1457   5.949   3.982   8.621 -0.1462  0.0223  0.2920
   76POPC   C1A 1458   5.484   3.781   8.365 -0.0091  0.2183 -0.2022
   76POPC   D2A 1459   5.386   3.576   7.917 -0.0850 -0.0966  0.3007
   76POPC   C3A 1460   5.707   3.414   7.636  0.0396 -0.2827  0.1612
   76POPC   C4A 1461   5.925   3.242   7.313 -0.4166  0.1407 -0.0210
   76POPC   C1B 1462   5.992   4.128   8.198 -0.0738  0.3291  0.3242
   76POPC   C2B 1463   5.971   4.151   7.759 -0.0717 -0.0473  0.1473
   76POPC   C3B 1464   6.339   4.104   7.459 -0.2583 -0.2775  0.2612
   76POPC   C4B 1465   6.708   4.276   7.182  0.0382  0.1309  0.2254
   77POPC   NC3 1466   8.976   4.979   9.551 -0.0840 -0.1600 -0.1296
   77POPC   PO4 1467   8.847   4.594   9.372  0.0796 -0.0632 -0.1620
   77POPC   GL1 1468   8.774   4.708   8.916 -0.0984  0.3877 -0.3233
   77POPC   GL2 1469   8.499   4.792   8.780  0.1189 -0.1504  0.0633
   77POPC   C1A 1470   8.726   4.662   8.328 -0.1361 -0.2108 -0.3208
   77POPC   D2A 1471   8.383   4.798   7.947 -0.2464  0.0109 -0.1334
   77POPC   C3A 1472   7.979   4.788   7.717 -0.0913 -0.0337 -0.1374
   77POPC   C4A 1473   7.768   5.101   7.626  0.0835  0.0221 -0.3694
   77POPC   C1B 1474   8.270   4.987   8.416  0.0376 -0.0215  0.0161
   77POPC   C2B 1475   8.108   5.236   8.045  0.0133 -0.0172 -0.0201
   77POPC   C3B 1476   8.367   5.510   7.710  0.1763  0.1094  0.2146
   77POPC   C4B 1477   8.762   5.671   7.548 -0.0187  0.2813  0.0121
   78POPC   NC3 1478   1.126   3.754   9.292 -0.0779  0.0302 -0.3385
   78POPC   PO4 1479   1.215   3.839   8.788 -0.6511  0.1009 -0.2242
   78POPC   GL1 1480   1.174   3.578   8.370  0.2830 -0.1415 -0.0667
   78POPC   GL2 1481   1.071   3.880   8.210  0.0895  0.0007 -0.1954
   78POPC   C1A 1482   0.933   3.339   8.128 -0.1353  0.0395  0.2282
   78POPC   D2A 1483   1.032   3.139   7.698  0.0131  0.1863 -0.4289
   78POPC   C3A 1484   1.028   3.203   7.291  0.1877  0.4212 -0.0461
   78POPC   C4A 1485   0.985   3.081   6.807 -0.1199  0.3153 -0.1321
   78POPC   C1B 1486   1.401   3.884   7.963 -0.2112 -0.3360 -0.1584
   78POPC   C2B 1487   1.585   3.985   7.550  0.0555  0.2898 -0.3909
   78POPC   C3B 1488   1.958   3.927   7.373  0.0693 -0.1079 -0.0009
   78POPC   C4B 1489   2.055   3.529   7.569  0.0123 -0.1366 -0.2417
   79POPC   NC3 1490   6.599   2.622   9.592 -0.1699 -0.1407 -0.0856
   79POPC   PO4 1491   6.263   2.735   9.357  0.0854 -0.3702  0.0008
   79POPC   GL1 1492   6.317   2.863   8.948 -0.0720 -0.0306  0.0838
   79POPC   GL2 1493   6.315   3.211   8.775 -0.0227 -0.1119 -0.2749
   79POPC   C1A 1494   6.517   2.727   8.515  0.3463  0.0225 -0.0154
   79POPC   D2A 1495   6.337   2.780   8.144 -0.1328  0.1586 -0.0319
   79POPC   C3A 1496   6.450   2.524   7.808 -0.1373  0.0982 -0.1273
   79POPC   C4A 1497   6.523   2.103   7.615 -0.1832  0.0018 -0.0077
   79POPC   C1B 1498   6.028   2.986   8.553 -0.3010 -0.2475 -0.1263
   79POPC   C2B 1499   5.901   2.977   8.106  0.0754  0.2015  0.2328
   79POPC   C3B 1500   5.922   2.863   7.673 -0.1237  0.1732 -0.1873
   79POPC   C4B 1501   5.781   2.790   7.285  0.0653 -0.3386  0.2117
   80POPC   NC3 1502   2.196   3.068   9.081 -0.3599 -0.1435  0.1783
   80POPC   PO4 1503   1.811   3.082   9.245 -0.1271 -0.0938  0.1423
   80POPC   GL1 1504   1.727   3.034   8.720 -0.0915 -0.0335 -0.1352
   80POPC   GL2 1505   1.480   2.717   8.659  0.1247  0.1015 -0.0354
   80POPC   C1A 1506   1.616   3.024   8.291  0.0248 -0.0696  0.1703
   80POPC   D2A 1507   1.527   3.249   7.961 -0.0182  0.0505  0.1189
   80POPC   C3A 1508   1.835   3.667   8.002  0.2478 -0.2698  0.2350
   80POPC   C4A 1509   2.112   3.955   7.837 -0.3804 -0.1673 -0.0707
   80POPC   C1B 1510   1.267   2.635   8.253 -0.3867 -0.0455 -0.2725
   80POPC   C2B 1511   0.996   2.597   7.876 -0.0421 -0.0503 -0.1742
   80POPC   C3B 1512   0.600   2.488   7.785 -0.0729 -0.0261 -0.3294
   80POPC   C4B 1513   0.277   2.586   7.986  0.1420 -0.3682  0.3558
   81POPC   NC3 1514   3.581   1.024   9.998  0.0638 -0.1128 -0.0513
   81POPC   PO4 1515   3.747   0.572  10.132  0.2498 -0.3141 -0.1536
   81POPC   GL1 1516   3.428   0.544   9.855 -0.0353 -0.1148  0.3019
   81POPC   GL2 1517   3.327   0.181   9.782 -0.0126 -0.0382 -0.0443
   81POPC   C1A 1518   3.252   0.505   9.484  0.0350 -0.1582  0.0699
   81POPC   D2A 1519   3.332   0.444   9.063 -0.1260  0.2847 -0.0412
   81POPC   C3A 1520   3.665   0.798   8.799 -0.1175 -0.0426 -0.2901
   81POPC   C4A 1521   3.974   1.057   8.865 -0.1162  0.1129  0.0670
   81POPC   C1B 1522   3.413   0.036   9.400 -0.0348  0.2245 -0.2785
   81POPC   C2B 1523   3.817  -0.085   9.178  0.1945 -0.0477 -0.3806
   81POPC   C3B 1524   3.815  -0.365   8.969  0.0196 -0.1670 -0.2368
   81POPC   C4B 1525   3.782  -0.308   8.544 -0.2492 -0.0079  0.0728
   82POPC   NC3 1526   1.323   0.428  10.934 -0.1251 -0.2746 -0.1863
   82POPC   PO4 1527   1.481   0.382  10.527  0.1115 -0.1847 -0.0215
   82POPC   GL1 1528   1.642   0.233  10.175 -0.1484  0.5187 -0.2262
   82POPC   GL2 1529   1.715   0.421   9.931  0.1519  0.0940 -0.3176
   82POPC   C1A 1530   1.604  -0.070   9.850 -0.0194 -0.2012 -0.2463
   82POPC   D2A 1531   1.647   0.143   9.528 -0.0118  0.0759  0.2025
   82POPC   C3A 1532   1.389  -0.039   9.138 -0.1094 -0.0747 -0.0645
   82POPC   C4A 1533   1.386  -0.551   9.074 -0.1520  0.0704 -0.1922
   82POPC   C1B 1534   2.031   0.278   9.902  0.0373 -0.0388  0.1540
   82POPC   C2B 1535   2.421   0.033   9.978 -0.1327  0.0807 -0.2808
   82POPC   C3B 1536   2.627  -0.290  10.004  0.0496 -0.0938 -0.2592
   82POPC   C4B 1537   3.040  -0.557  10.029  0.1906 -0.3365 -0.0966
   83POPC   NC3 1538   6.532   5.886   9.028 -0.2975  0.4473  0.0437
   83POPC   PO4 1539   6.815   6.168   8.904 -0.3977  0.1978 -0.2500
   83POPC   GL1 1540   6.810   6.047   8.476  0.0787  0.1118  0.1547
   83POPC   GL2 1541   6.672   6.387   8.332 -0.2236  0.1898 -0.0029
   83POPC   C1A 1542   6.978   6.009   8.067  0.1971  0.2407 -0.0641
   83POPC   D2A 1543   6.975   6.397   7.899 -0.0935 -0.0051  0.0270
   83POPC   C3A 1544   7.370   6.519   7.854  0.1362 -0.1689 -0.1660
   83POPC   C4A 1545   7.698   6.734   7.665  0.1343  0.1851 -0.0429
   83POPC   C1B 1546   6.495   6.160   7.912  0.4605 -0.0937 -0.2470
   83POPC   C2B 1547   6.673   5.817   7.631  0.1541 -0.1936 -0.0125
   83POPC   C3B 1548   7.022   5.744   7.250  0.1241  0.3025  0.0641
   83POPC   C4B 1549   7.095   5.695   6.877  0.2980  0.0697 -0.0240
   84POPC   NC3 1550   3.622   8.041  10.667 -0.2134 -0.0091  0.0471
   84POPC   PO4 1551   3.236   7.871  10.535 -0.0102  0.2726  0.1882
   84POPC   GL1 1552   3.080   7.941  10.155 -0.1398  0.1011  0.1871
   84POPC   GL2 1553   2.707   7.916  10.317  0.2153  0.0549  0.2778
   84POPC   C1A 1554   3.229   8.258   9.786 -0.1785 -0.0181 -0.3155
   84POPC   D2A 1555   3.418   8.474   9.452  0.1403  0.0737  0.1631
   84POPC   C3A 1556   3.592   8.397   9.072  0.1411  0.3201 -0.0963
   84POPC   C4A 1557   3.456   8.288   8.643 -0.1367 -0.0945  0.2035
   84POPC   C1B 1558   2.763   8.223   9.932  0.1086 -0.0647  0.2232
   84POPC   C2B 1559   2.798   8.293   9.411  0.1652  0.2627  0.0295
   84POPC   C3B 1560   2.995   8.576   9.196  0.1462 -0.1815 -0.1283
   84POPC   C4B 1561   2.995   9.036   9.347  0.0540  0.0727 -0.1286
   85POPC   NC3 1562   4.439   7.421   9.172  0.1505  0.2786 -0.1689
   85POPC   PO4 1563   4.808   7.483   9.321  0.0629  0.1510 -0.1503
   85POPC   GL1 1564   4.777   7.852   9.088  0.1930 -0.1395 -0.1091
   85POPC   GL2 1565   4.427   7.905   9.031 -0.0122  0.2201 -0.0079
   85POPC   C1A 1566   4.991   7.945   8.665 -0.2139 -0.0151  0.1611
   85POPC   D2A 1567   5.039   7.822   8.262  0.2373 -0.2875  0.0360
   85POPC   C3A 1568   5.001   7.427   8.029 -0.2835  0.2487 -0.0583
   85POPC   C4A 1569   5.096   7.503   7.570  0.0782  0.2603 -0.0783
   85POPC   C1B 1570   4.075   8.158   8.820 -0.1092 -0.0622 -0.0098
   85POPC   C2B 1571   3.954   8.366   8.473 -0.0384 -0.0164  0.0729
   85POPC   C3B 1572   4.172   8.417   8.118  0.5508 -0.0168 -0.1317
   85POPC   C4B 1573   4.352   8.758   7.935  0.1235 -0.0139  0.0137
   86POPC   NC3 1574   2.549   1.265  10.134 -0.1042 -0.1566  0.0614
   86POPC   PO4 1575   2.682   0.877  10.237  0.1755 -0.1577  0.0408
   86POPC   GL1 1576   2.420   0.787   9.884 -0.2273 -0.3249  0.0438
   86POPC   GL2 1577   2.191   1.070   9.840  0.0060 -0.1771  0.0641
   86POPC   C1A 1578   2.064   0.630   9.533  0.1796  0.2521  0.0640
   86POPC   D2A 1579   1.965   0.356   9.195  0.1525  0.0909 -0.2364
   86POPC   C3A 1580   1.711   0.334   8.839  0.1683  0.0121 -0.3246
   86POPC   C4A 1581   1.659   0.253   8.394 -0.0854  0.1092 -0.0587
   86POPC   C1B 1582   2.022   1.309   9.516  0.0289  0.2991 -0.0625
   86POPC   C2B 1583   1.946   1.310   9.084  0.1165  0.0392  0.1587
   86POPC   C3B 1584   1.966   1.079   8.633  0.1599  0.0804 -0.2766
   86POPC   C4B 1585   1.845   0.763   8.360  0.1441 -0.1669 -0.0898
   87POPC   NC3 1586   2.247   2.086  10.680  0.0546 -0.0292 -0.0141
   87POPC   PO4 1587   2.300   1.830  10.212  0.3009  0.0993 -0.1682
   87POPC   GL1 1588   2.263   1.694   9.775 -0.3773  0.1809  0.1556
   87POPC   GL2 1589   2.550   1.439   9.596 -0.0553  0.0936  0.1604
   87POPC   C1A 1590   2.238   1.682   9.266  0.0731  0.2880  0.0987
   87POPC   D2A 1591   2.233   1.634   8.862 -0.1164 -0.0614  0.1909
   87POPC   C3A 1592   2.389   1.362   8.546  0.0443 -0.4304 -0.0022
   87POPC   C4A 1593   2.120   1.123   8.161 -0.1018 -0.0622 -0.0760
   87POPC   C1B 1594   2.442   1.160   9.306 -0.0836  0.0081  0.3567
   87POPC   C2B 1595   2.379   0.768   9.161 -0.2535 -0.0998 -0.1171
   87POPC   C3B 1596   2.139   0.607   8.714  0.4003  0.1492  0.1153
   87POPC   C4B 1597   2.119   0.279   8.514 -0.2360  0.2923 -0.0375
   88POPC   NC3 1598   4.647   9.545  10.189 -0.0615  0.0991  0.1822
   88POPC   PO4 1599   5.090   9.720  10.037 -0.0736  0.1196  0.3798
   88POPC   GL1 1600   5.163   9.807   9.563  0.1879 -0.0947  0.1865
   88POPC   GL2 1601   4.990  10.077   9.364 -0.4092  0.0888 -0.1890
   88POPC   C1A 1602   4.912   9.452   9.426  0.3751 -0.0515  0.1241
   88POPC   D2A 1603   4.692   9.230   9.088 -0.1604 -0.2895 -0.1099
   88POPC   C3A 1604   4.294   9.246   9.211  0.1342 -0.0863 -0.1057
   88POPC   C4A 1605   3.807   9.085   9.115 -0.0768 -0.1048 -0.0051
   88POPC   C1B 1606   4.853   9.812   9.062 -0.2314  0.3106  0.0083
   88POPC   C2B 1607   4.852   9.520   8.634  0.2440  0.1759 -0.1167
   88POPC   C3B 1608   4.650   9.218   8.531  0.4674  0.1805  0.0250
   88POPC   C4B 1609   4.348   9.175   8.295 -0.0746 -0.4008  0.3896
   89POPC   NC3 1610   5.250   7.236   9.127 -0.0406 -0.1267 -0.2154
   89POPC   PO4 1611   4.893   7.069   9.027 -0.0622 -0.0680  0.1567
   89POPC   GL1 1612   4.729   7.367   8.746  0.1617  0.0556 -0.1210
   89POPC   GL2 1613   4.848   7.159   8.397  0.1517  0.0695 -0.1058
   89POPC   C1A 1614   4.265   7.631   8.616 -0.0733  0.1492  0.1307
   89POPC   D2A 1615   4.213   7.928   8.233  0.0172  0.2643 -0.0170
   89POPC   C3A 1616   4.226   7.633   7.835 -0.0624  0.0055  0.0680
   89POPC   C4A 1617   4.630   7.365   7.668 -0.1392  0.2018 -0.3079
   89POPC   C1B 1618   5.131   6.950   8.203  0.2440 -0.0282  0.0548
   89POPC   C2B 1619   5.030   6.757   7.794 -0.1237 -0.1436 -0.2005
   89POPC   C3B 1620   4.880   6.864   7.483 -0.0392 -0.1414 -0.0356
   89POPC   C4B 1621   4.802   6.774   7.005 -0.0135 -0.1127 -0.0895
   90POPC   NC3 1622   7.140   6.544   8.587  0.0858 -0.0704  0.1709
   90POPC   PO4 1623   7.143   6.930   8.677  0.0584 -0.1524  0.0856
   90POPC   GL1 1624   7.117   6.969   8.231  0.0758  0.0589  0.0212
   90POPC   GL2 1625   7.462   6.944   8.118 -0.0960  0.0446  0.0499
   90POPC   C1A 1626   6.827   7.061   7.793 -0.1930 -0.0041  0.0009
   90POPC   D2A 1627   7.086   6.845   7.500 -0.1073 -0.1366  0.2183
   90POPC   C3A 1628   7.009   6.672   7.113  0.2347 -0.0699  0.0970
   90POPC   C4A 1629   7.305   6.687   6.756  0.2039 -0.3435 -0.0221
   90POPC   C1B 1630   7.323   7.186   7.835  0.0704  0.0424  0.1746
   90POPC   C2B 1631   7.135   7.369   7.443 -0.0951 -0.0260  0.2640
   90POPC   C3B 1632   7.071   7.701   7.201 -0.1348 -0.0612  0.0107
   90POPC   C4B 1633   6.989   8.018   6.905  0.3840 -0.2110 -0.3216
   91POPC   NC3 1634   4.645   1.937   9.259 -0.0542 -0.0260 -0.4318
   91POPC   PO4 1635   4.711   2.328   9.079 -0.2172 -0.2654  0.3369
   91POPC   GL1 1636   4.623   2.409   8.637 -0.0492 -0.1121 -0.1827
   91POPC   GL2 1637   4.780   2.031   8.585 -0.0565  0.0150 -0.0685
   91POPC   C1A 1638   4.766   2.451   8.336 -0.0958 -0.0431 -0.1768
   91POPC   D2A 1639   5.114   2.259   8.105 -0.1293 -0.1589 -0.0134
   91POPC   C3A 1640   5.557   2.093   7.950  0.1587 -0.0605 -0.1576
   91POPC   C4A 1641   5.734   1.787   8.144 -0.0025 -0.0141  0.2596
   91POPC   C1B 1642   4.606   1.975   8.144  0.5591  0.0923 -0.0489
   91POPC   C2B 1643   4.675   1.580   7.881  0.1312 -0.0991  0.2128
   91POPC   C3B 1644   4.983   1.226   7.866 -0.6370  0.1038  0.2376
   91POPC   C4B 1645   4.975   0.713   7.829 -0.0726 -0.1718 -0.3590
   92POPC   NC3 1646   8.700   6.620   9.251  0.1733  0.0359  0.0676
   92POPC   PO4 1647   9.013   6.578   8.867 -0.0071 -0.2167 -0.1208
   92POPC   GL1 1648   9.261   6.588   8.500 -0.3317  0.1823 -0.2470
   92POPC   GL2 1649   9.637   6.701   8.482  0.1553  0.2262 -0.2849
   92POPC   C1A 1650   9.257   6.676   8.064 -0.0320  0.1070  0.1834
   92POPC   D2A 1651   9.447   6.800   7.620  0.0870  0.0242  0.0029
   92POPC   C3A 1652   9.437   7.158   7.593  0.2072 -0.0986  0.2224
   92POPC   C4A 1653   9.453   7.477   7.304 -0.1716  0.3624  0.3232
   92POPC   C1B 1654   9.765   6.682   8.094  0.2618  0.2303  0.0134
   92POPC   C2B 1655  10.093   6.916   7.770 -0.1745 -0.1265 -0.0179
   92POPC   C3B 1656  10.311   7.310   7.544  0.0091  0.2604 -0.0092
   92POPC   C4B 1657  10.654   7.583   7.495  0.0361  0.0253  0.3317
   93POPC   NC3 1658   6.807   1.469   9.865 -0.0371  0.2408 -0.3699
   93POPC   PO4 1659   6.629   1.397   9.472 -0.0386 -0.0474  0.3922
   93POPC   GL1 1660   6.525   1.285   8.967  0.1290 -0.4084 -0.1304
   93POPC   GL2 1661   6.507   0.954   8.826  0.2882  0.3244  0.1416
   93POPC   C1A 1662   6.556   1.483   8.586  0.1281 -0.0119 -0.1515
   93POPC   D2A 1663   6.654   1.720   8.219  0.1461  0.2965 -0.0767
   93POPC   C3A 1664   6.860   1.581   7.842  0.1885  0.0128 -0.1813
   93POPC   C4A 1665   7.195   1.447   7.652 -0.0859  0.0329 -0.0001
   93POPC   C1B 1666   6.469   0.860   8.422 -0.0398 -0.2311  0.1122
   93POPC   C2B 1667   6.320   0.860   8.029  0.1965  0.0934 -0.0908
   93POPC   C3B 1668   6.298   0.920   7.603 -0.2070  0.2845  0.0266
   93POPC   C4B 1669   6.086   0.720   7.311  0.1802  0.0295 -0.3840
   94POPC   NC3 1670   4.337   0.515   9.669 -0.3990 -0.1095  0.5692
   94POPC   PO4 1671   4.476   0.909   9.484  0.1997 -0.1424  0.0371
   94POPC   GL1 1672   4.108   0.676   9.263 -0.0039  0.0308  0.0439
   94POPC   GL2 1673   4.348   0.520   9.043  0.0707 -0.1922  0.2234
   94POPC   C1A 1674   3.819   0.411   9.193  0.3306  0.2773 -0.0108
   94POPC   D2A 1675   3.685   0.172   8.811 -0.2048  0.1222 -0.1223
   94POPC   C3A 1676   3.593   0.205   8.416 -0.0408  0.1761 -0.4761
   94POPC   C4A 1677   3.272   0.336   8.172  0.0204  0.0428 -0.2378
   94POPC   C1B 1678   4.096   0.517   8.670  0.1542  0.3123 -0.1597
   94POPC   C2B 1679   4.013   0.704   8.340 -0.1251  0.1256  0.1727
   94POPC   C3B 1680   3.962   1.129   8.145  0.1343 -0.3030 -0.2015
   94POPC   C4B 1681   4.279   1.564   8.167 -0.1796  0.0145 -0.1668
   95POPC   NC3 1682   8.418   8.414   9.298 -0.1774 -0.1415  0.2147
   95POPC   PO4 1683   8.662   8.869   9.321 -0.0008 -0.1458 -0.2107
   95POPC   GL1 1684   8.315   8.816   9.063 -0.2022  0.0742 -0.0125
   95POPC   GL2 1685   8.185   9.050   8.839  0.0331 -0.0909 -0.1203
   95POPC   C1A 1686   8.190   8.540   8.621  0.2928 -0.2253  0.1574
   95POPC   D2A 1687   8.260   8.768   8.214 -0.1925  0.1147 -0.1068
   95POPC   C3A 1688   8.176   8.585   7.779  0.1869 -0.0205  0.1642
   95POPC   C4A 1689   8.196   8.603   7.274 -0.1290 -0.1551  0.0365
   95POPC   C1B 1690   8.025   9.179   8.402 -0.3006 -0.3910 -0.0071
   95POPC   C2B 1691   8.096   9.232   7.887 -0.2459 -0.1286  0.0239
   95POPC   C3B 1692   8.174   9.486   7.538  0.1463  0.0082  0.1989
   95POPC   C4B 1693   8.495   9.594   7.235 -0.2555  0.0575  0.1309
   96POPC   NC3 1694   6.924   2.303   9.516  0.0572  0.3520  0.0399
   96POPC   PO4 1695   6.795   1.943   9.363 -0.0153  0.2027 -0.0516
   96POPC   GL1 1696   6.866   2.100   8.979 -0.0779 -0.2000 -0.0350
   96POPC   GL2 1697   7.141   2.080   8.840  0.2819 -0.1206  0.0008
   96POPC   C1A 1698   6.748   2.304   8.588 -0.0177 -0.2587  0.3719
   96POPC   D2A 1699   6.451   2.209   8.214 -0.1266  0.1929 -0.0543
   96POPC   C3A 1700   6.224   1.902   7.968  0.3890 -0.1448  0.4610
   96POPC   C4A 1701   6.340   1.496   7.824  0.0348  0.0559  0.0008
   96POPC   C1B 1702   7.055   1.937   8.439 -0.1460 -0.3480  0.1507
   96POPC   C2B 1703   6.989   2.051   7.901  0.0438  0.1075 -0.3444
   96POPC   C3B 1704   6.981   1.927   7.496 -0.0056 -0.0042 -0.0643
   96POPC   C4B 1705   6.665   1.666   7.319  0.1562 -0.1710  0.1355
   97POPC   NC3 1706   1.368   9.121  10.766 -0.0656 -0.4805  0.0681
   97POPC   PO4 1707   1.365   9.539  10.684  0.0728 -0.0916  0.2355
   97POPC   GL1 1708   1.483   9.407  10.296 -0.1327 -0.0123 -0.1807
   97POPC   GL2 1709   1.323   9.065  10.219 -0.0907  0.3859 -0.2156
   97POPC   C1A 1710   1.800   9.656   9.980 -0.1345 -0.1542 -0.1115
   97POPC   D2A 1711   2.069   9.889   9.795  0.0391 -0.0568 -0.0987
   97POPC   C3A 1712   2.425   9.813   9.583 -0.1823  0.1870  0.1779
   97POPC   C4A 1713   2.599   9.989   9.212  0.2371 -0.1446  0.0221
   97POPC   C1B 1714   1.295   8.848   9.832  0.1211 -0.0393 -0.3177
   97POPC   C2B 1715   1.636   8.683   9.561 -0.0295 -0.3924  0.3408
   97POPC   C3B 1716   2.053   8.514   9.508 -0.1039  0.0730  0.2398
   97POPC   C4B 1717   2.303   8.237   9.534 -0.3954 -0.0679 -0.1103
   98POPC   NC3 1718   3.994   8.345  10.008 -0.1547 -0.1918  0.5396
   98POPC   PO4 1719   4.021   7.938   9.743  0.3997 -0.1616 -0.0591
   98POPC   GL1 1720   3.933   7.623   9.309  0.1229 -0.1439  0.3199
   98POPC   GL2 1721   3.576   7.491   9.277  0.2196 -0.3450  0.3435
   98POPC   C1A 1722   3.703   7.831   8.917  0.2477 -0.1953  0.0895
   98POPC   D2A 1723   3.753   7.887   8.423 -0.1085 -0.1185 -0.1184
   98POPC   C3A 1724   3.405   7.765   8.050  0.2894  0.3878 -0.0352
   98POPC   C4A 1725   3.393   8.033   7.723  0.2223 -0.2290  0.1283
   98POPC   C1B 1726   3.438   7.982   9.362 -0.3286 -0.2279 -0.2593
   98POPC   C2B 1727   3.126   8.153   9.091 -0.1857 -0.0391 -0.0851
   98POPC   C3B 1728   2.770   8.264   8.778 -0.1370  0.0112 -0.1032
   98POPC   C4B 1729   2.509   8.022   8.513  0.1732 -0.2599  0.1495
   99POPC   NC3 1730   8.118   7.548   9.544 -0.0231  0.0039 -0.1281
   99POPC   PO4 1731   8.445   7.456   9.567 -0.1621 -0.0244 -0.2183
   99POPC   GL1 1732   8.599   7.563   9.203 -0.1034  0.3416  0.2359
   99POPC   GL2 1733   8.379   7.681   8.944 -0.1244  0.0209 -0.0686
   99POPC   C1A 1734   8.763   7.289   8.759  0.5678  0.0375  0.1434
   99POPC   D2A 1735   8.838   6.953   8.593  0.2170  0.3015  0.0277
   99POPC   C3A 1736   8.804   6.731   8.193 -0.1243 -0.0709 -0.0423
   99POPC   C4A 1737   8.927   6.351   7.775  0.0859  0.2943 -0.2933
   99POPC   C1B 1738   8.785   7.778   8.668 -0.2850 -0.0778  0.0550
   99POPC   C2B 1739   9.010   7.692   8.244  0.0810  0.1988  0.0285
   99POPC   C3B 1740   9.272   7.666   7.875  0.1138 -0.1867  0.4069
   99POPC   C4B 1741   9.400   7.834   7.582 -0.0400 -0.0023 -0.3041
  100POPC   NC3 1742   0.369   5.142   9.122 -0.3029 -0.1216  0.0012
  100POPC   PO4 1743   0.194   5.479   9.366 -0.1401  0.0807 -0.1236
  100POPC   GL1 1744   0.332   5.603   8.895  0.0944  0.4551 -0.0493
  100POPC   GL2 1745   0.254   5.898   8.831 -0.2373 -0.0156 -0.2605
  100POPC   C1A 1746   0.333   5.493   8.471  0.2604 -0.0185 -0.0082
  100POPC   D2A 1747   0.211   5.727   8.091 -0.0394  0.0474  0.1391
  100POPC   C3A 1748   0.148   5.426   7.724  0.0913 -0.0587  0.0108
  100POPC   C4A 1749   0.024   5.128   7.355 -0.1545 -0.1797  0.2030
  100POPC   C1B 1750   0.591   5.962   8.443  0.0798 -0.1266 -0.1558
  100POPC   C2B 1751   0.643   6.138   8.070  0.3095  0.1622 -0.2439
  100POPC   C3B 1752   0.559   6.431   7.746 -0.2879 -0.2441  0.2774
  100POPC   C4B 1753   0.541   6.758   7.517 -0.0176  0.1857  0.1878
  101POPC   NC3 1754   3.659   8.944  10.655  0.2987  0.2930  0.1033
  101POPC   PO4 1755   3.371   9.103  10.354 -0.0661  0.0110  0.1008
  101POPC   GL1 1756   2.996   9.147  10.240  0.0582 -0.1215  0.3699
  101POPC   GL2 1757   2.760   8.923  10.278  0.0056 -0.1496  0.1362
  101POPC   C1A 1758   2.774   9.286   9.866 -0.0367  0.1229 -0.1677
  101POPC   D2A 1759   2.768   9.473   9.443  0.1838 -0.3431 -0.0028
  101POPC   C3A 1760   2.922   9.767   9.510 -0.2276 -0.0443  0.0683
  101POPC   C4A 1761   2.883  10.135   9.578 -0.1259 -0.0962 -0.2310
  101POPC   C1B 1762   2.877   8.752   9.883 -0.0572 -0.3540  0.2449
  101POPC   C2B 1763   2.593   8.745   9.579  0.0743  0.3465  0.1096
  101POPC   C3B 1764   2.453   8.576   9.140  0.2516 -0.0905 -0.0979
  101POPC   C4B 1765   2.386   8.637   8.689  0.1698 -0.2194 -0.2173
  102POPC   NC3 1766   7.765   4.796   9.679 -0.0346  0.1316 -0.0671
  102POPC   PO4 1767   7.906   4.758   9.351  0.4082 -0.0625 -0.4052
  102POPC   GL1 1768   7.525   4.729   9.040  0.3296  0.1239 -0.1357
  102POPC   GL2 1769   7.563   4.547   8.757  0.2111 -0.0467 -0.1480
  102POPC   C1A 1770   7.380   4.981   8.685  0.0885  0.0384  0.0689
  102POPC   D2A 1771   7.157   5.345   8.542 -0.1334 -0.2440 -0.0301
  102POPC   C3A 1772   6.929   5.396   8.167 -0.1991 -0.6560  0.1623
  102POPC   C4A 1773   6.927   5.358   7.711  0.1274 -0.1231  0.0527
  102POPC   C1B 1774   7.571   4.462   8.380  0.2641 -0.2131 -0.1479
  102POPC   C2B 1775   7.787   4.242   8.054  0.1453  0.0657  0.1231
  102POPC   C3B 1776   7.868   4.068   7.720  0.0470  0.1423  0.0197
  102POPC   C4B 1777   7.986   3.753   7.370  0.2047  0.3812  0.1997
  103POPC   NC3 1778   2.643   6.110   9.997 -0.0055  0.0537 -0.1936
  103POPC   PO4 1779   2.869   5.950   9.732  0.0240 -0.2679 -0.2162
  103POPC   GL1 1780   2.790   5.886   9.289  0.0076 -0.1171  0.0756
  103POPC   GL2 1781   3.010   5.699   9.119  0.1918  0.1963  0.0005
  103POPC   C1A 1782   2.544   5.771   8.997 -0.1078  0.0164 -0.0526
  103POPC   D2A 1783   2.539   5.728   8.639 -0.0546 -0.0321  0.0816
  103POPC   C3A 1784   2.369   5.967   8.290  0.3060 -0.1768  0.0241
  103POPC   C4A 1785   2.188   6.287   8.009 -0.0218  0.0072 -0.0507
  103POPC   C1B 1786   2.940   5.963   8.844 -0.3002 -0.0600  0.0928
  103POPC   C2B 1787   2.666   6.216   8.703 -0.0259 -0.1583 -0.5862
  103POPC   C3B 1788   2.660   6.650   8.705  0.0036 -0.0425  0.1115
  103POPC   C4B 1789   2.770   7.038   8.856 -0.3220  0.0874  0.0244
  104POPC   NC3 1790   3.314   5.989   9.422 -0.1257  0.0292  0.0418
  104POPC   PO4 1791   3.574   5.640   9.176  0.2206 -0.3110 -0.3225
  104POPC   GL1 1792   3.402   5.999   8.938  0.1110 -0.2233  0.1270
  104POPC   GL2 1793   3.474   6.350   8.791  0.2436  0.2068  0.1102
  104POPC   C1A 1794   3.292   5.925   8.488  0.3247 -0.0654 -0.0654
  104POPC   D2A 1795   3.481   6.017   8.123  0.0245 -0.1316 -0.1287
  104POPC   C3A 1796   3.734   6.398   8.237  0.3451  0.1289  0.0280
  104POPC   C4A 1797   4.109   6.581   8.320 -0.0110 -0.2319 -0.1112
  104POPC   C1B 1798   3.124   6.416   8.537 -0.0680 -0.2049 -0.0208
  104POPC   C2B 1799   2.793   6.413   8.285 -0.1636  0.1856  0.2249
  104POPC   C3B 1800   2.684   6.344   7.860 -0.0517 -0.0267  0.1446
  104POPC   C4B 1801   2.458   6.197   7.456 -0.4272 -0.0461  0.0438
  105POPC   NC3 1802   7.080   4.389   9.064  0.1506 -0.1306 -0.1441
  105POPC   PO4 1803   7.433   4.105   9.077 -0.0508  0.1063 -0.1988
  105POPC   GL1 1804   7.410   4.018   8.652 -0.0329 -0.0040  0.0284
  105POPC   GL2 1805   7.263   3.796   8.499 -0.1241  0.3892  0.0467
  105POPC   C1A 1806   7.126   4.178   8.285  0.0452  0.1362  0.4197
  105POPC   D2A 1807   6.859   4.095   7.903  0.2458 -0.2055  0.1564
  105POPC   C3A 1808   6.912   4.381   7.590  0.1869  0.0079  0.3550
  105POPC   C4A 1809   7.201   4.323   7.259 -0.0228  0.1910  0.0604
  105POPC   C1B 1810   7.446   3.789   8.158 -0.0152 -0.0128 -0.2121
  105POPC   C2B 1811   7.307   3.845   7.753  0.3554  0.2467 -0.0364
  105POPC   C3B 1812   7.049   3.858   7.357 -0.1570 -0.1233 -0.0956
  105POPC   C4B 1813   6.930   3.670   6.942  0.3842  0.1829 -0.1867
  106POPC   NC3 1814   0.155   6.979   9.765  0.2654 -0.0396 -0.1468
  106POPC   PO4 1815   0.482   6.623   9.606  0.1139  0.3158  0.1888
  106POPC   GL1 1816   0.545   7.074   9.357  0.1210  0.0228 -0.3340
  106POPC   GL2 1817   0.277   7.313   9.409  0.2504 -0.0073  0.0485
  106POPC   C1A 1818   0.675   7.510   9.363  0.0772 -0.3868 -0.2251
  106POPC   D2A 1819   0.657   7.986   9.491 -0.1610 -0.2562  0.1432
  106POPC   C3A 1820   0.872   8.329   9.287 -0.1193 -0.2732 -0.0156
  106POPC   C4A 1821   1.175   8.722   9.344  0.2166  0.2238  0.3049
  106POPC   C1B 1822   0.318   7.703   9.081  0.0892  0.3300  0.3391
  106POPC   C2B 1823   0.449   8.146   9.027 -0.1642 -0.2785 -0.0994
  106POPC   C3B 1824   0.755   8.308   8.744  0.0848  0.0882  0.0506
  106POPC   C4B 1825   1.116   8.510   8.854  0.1124 -0.1332  0.0331
  107POPC   NC3 1826   9.789   9.142  10.208 -0.1764  0.0467 -0.1188
  107POPC   PO4 1827   9.911   9.580   9.935  0.1438 -0.0043 -0.1041
  107POPC   GL1 1828  10.245   9.510   9.684  0.2881 -0.0545 -0.1745
  107POPC   GL2 1829  10.310   9.762   9.553  0.0934 -0.0182 -0.0614
  107POPC   C1A 1830  10.585   9.261   9.440  0.0262 -0.2348 -0.2769
  107POPC   D2A 1831  10.967   9.587   9.442 -0.2733 -0.3782 -0.2904
  107POPC   C3A 1832  11.090   9.749   9.192  0.0236  0.1905  0.1590
  107POPC   C4A 1833  11.015  10.152   8.917 -0.0367 -0.0137 -0.2545
  107POPC   C1B 1834  10.154   9.504   9.182  0.1871 -0.6263  0.1389
  107POPC   C2B 1835  10.205   9.730   8.721 -0.1041  0.2149  0.0635
  107POPC   C3B 1836  10.103   9.748   8.325  0.0016  0.2652  0.4286
  107POPC   C4B 1837   9.714   9.779   8.078  0.2102 -0.3367 -0.0362
  108POPC   NC3 1838   8.970   7.645   9.541 -0.3369 -0.1576 -0.2137
  108POPC   PO4 1839   9.117   8.109   9.479 -0.1000 -0.2450 -0.2016
  108POPC   GL1 1840   9.151   8.012   9.071  0.3454  0.1194  0.0925
  108POPC   GL2 1841   8.791   8.034   9.089 -0.0751 -0.0820 -0.3155
  108POPC   C1A 1842   9.284   7.848   8.653 -0.0849  0.0684  0.0872
  108POPC   D2A 1843   9.537   7.596   8.293 -0.2245 -0.3358  0.0880
  108POPC   C3A 1844   9.962   7.570   8.262  0.1427 -0.0458 -0.5313
  108POPC   C4A 1845  10.236   7.310   8.191  0.0283 -0.1947 -0.3908
  108POPC   C1B 1846   8.985   8.295   8.745  0.3233 -0.1149  0.0282
  108POPC   C2B 1847   9.030   8.207   8.407 -0.2621 -0.2556  0.1705
  108POPC   C3B 1848   8.928   8.126   7.962 -0.1601  0.0362 -0.2502
  108POPC   C4B 1849   8.582   8.277   7.610 -0.2068  0.0707  0.0468
  109POPC   NC3 1850   9.609   7.212   9.285 -0.1333 -0.0609  0.2675
  109POPC   PO4 1851   9.595   6.747   9.259 -0.1645  0.0539  0.1335
  109POPC   GL1 1852   9.717   6.924   8.905  0.2660 -0.0109  0.1432
  109POPC   GL2 1853   9.457   7.148   8.798  0.1594 -0.1516  0.1273
  109POPC   C1A 1854   9.899   7.132   8.577 -0.0739  0.0978 -0.0604
  109POPC   D2A 1855   9.749   7.150   8.103  0.1430 -0.1238 -0.0415
  109POPC   C3A 1856   9.889   7.364   7.785  0.0336 -0.0289 -0.2080
  109POPC   C4A 1857   9.891   7.635   7.493  0.3165  0.2051  0.1184
  109POPC   C1B 1858   9.310   7.167   8.436  0.0464  0.2075  0.1346
  109POPC   C2B 1859   9.192   7.164   8.004 -0.3769 -0.0495  0.1319
  109POPC   C3B 1860   9.009   7.359   7.549  0.1352  0.1305 -0.2311
  109POPC   C4B 1861   9.010   7.641   7.262 -0.0419 -0.0444  0.0162
  110POPC   NC3 1862   6.378   2.284   9.294  0.1759  0.3021 -0.0259
  110POPC   PO4 1863   6.205   2.393   8.922 -0.0239 -0.0311  0.0734
  110POPC   GL1 1864   6.005   2.377   8.501 -0.0503  0.1734 -0.1211
  110POPC   GL2 1865   5.934   2.025   8.507  0.0799 -0.4875  0.1580
  110POPC   C1A 1866   5.979   2.403   8.164  0.4648  0.1494 -0.0086
  110POPC   D2A 1867   6.018   2.306   7.699 -0.1281  0.1521 -0.1290
  110POPC   C3A 1868   5.905   1.899   7.560  0.1555  0.2491 -0.2464
  110POPC   C4A 1869   5.573   1.506   7.706 -0.0097 -0.0582 -0.3641
  110POPC   C1B 1870   6.198   1.742   8.426 -0.2450  0.0255  0.1134
  110POPC   C2B 1871   6.225   1.310   8.281 -0.2254 -0.0596  0.1349
  110POPC   C3B 1872   5.948   1.230   7.927  0.1664  0.4352  0.1021
  110POPC   C4B 1873   5.744   1.044   7.535 -0.4171 -0.0467 -0.0649
  111POPC   NC3 1874   0.970   6.580  10.043 -0.4114  0.0916 -0.0067
  111POPC   PO4 1875   1.370   6.355   9.841 -0.0006  0.1437  0.2926
  111POPC   GL1 1876   1.544   6.548   9.464  0.0567  0.3553 -0.0298
  111POPC   GL2 1877   1.513   6.877   9.409 -0.1708 -0.1437 -0.0004
  111POPC   C1A 1878   1.409   6.444   9.160 -0.1845 -0.1059  0.1951
  111POPC   D2A 1879   1.374   6.411   8.749 -0.2666  0.1013 -0.0141
  111POPC   C3A 1880   1.259   6.757   8.528 -0.2309 -0.1975 -0.1777
  111POPC   C4A 1881   0.903   6.971   8.409 -0.0864  0.0124 -0.0284
  111POPC   C1B 1882   1.855   7.088   9.226  0.0143 -0.0058  0.0520
  111POPC   C2B 1883   2.177   6.895   9.014  0.0792  0.3478  0.0644
  111POPC   C3B 1884   2.262   6.985   8.677 -0.0104 -0.0827 -0.2552
  111POPC   C4B 1885   2.060   7.110   8.347 -0.1819  0.1697  0.1951
  112POPC   NC3 1886   8.763   1.836   9.399 -0.1150 -0.1079  0.0913
  112POPC   PO4 1887   9.114   1.615   9.173  0.0409 -0.0091 -0.0087
  112POPC   GL1 1888   9.402   1.817   9.021  0.2098 -0.0144  0.1658
  112POPC   GL2 1889   9.716   1.870   9.006  0.2294 -0.1118 -0.1515
  112POPC   C1A 1890   9.409   2.177   8.700  0.3772  0.0179  0.1327
  112POPC   D2A 1891   9.176   2.362   8.398  0.1372 -0.2786 -0.1953
  112POPC   C3A 1892   9.382   2.570   7.985  0.1867  0.0962 -0.4506
  112POPC   C4A 1893   9.680   2.607   7.807 -0.1882  0.1720 -0.0041
  112POPC   C1B 1894   9.981   1.864   8.643  0.0664  0.0077 -0.0116
  112POPC   C2B 1895  10.241   1.905   8.316 -0.1613 -0.1131 -0.0134
  112POPC   C3B 1896  10.260   1.505   8.073  0.1526  0.0969 -0.2108
  112POPC   C4B 1897  10.072   1.075   8.123 -0.2166 -0.0704  0.0133
  113POPC   NC3 1898   1.833   9.761  10.620  0.0251 -0.1428  0.0113
  113POPC   PO4 1899   2.168   9.833  10.819  0.0264  0.0907 -0.0548
  113POPC   GL1 1900   2.199   9.437  10.544 -0.2467  0.3471 -0.0814
  113POPC   GL2 1901   2.528   9.420  10.296  0.0960  0.0162 -0.0253
  113POPC   C1A 1902   1.945   9.175  10.200 -0.0898 -0.1917 -0.0049
  113POPC   D2A 1903   1.845   9.111   9.814 -0.3160 -0.1543  0.0618
  113POPC   C3A 1904   1.824   9.379   9.561 -0.5325 -0.0510 -0.1842
  113POPC   C4A 1905   1.683   9.753   9.489 -0.0412  0.0769 -0.2310
  113POPC   C1B 1906   2.273   9.468   9.966 -0.0891 -0.1268  0.0029
  113POPC   C2B 1907   2.316   9.349   9.550 -0.4574 -0.0405  0.3111
  113POPC   C3B 1908   2.213   9.554   9.192  0.0841 -0.0641 -0.1139
  113POPC   C4B 1909   1.899   9.593   8.881 -0.1869 -0.0068  0.2872
  114POPC   NC3 1910   7.775   3.210   9.115  0.3635 -0.3676 -0.2261
  114POPC   PO4 1911   7.290   3.137   9.182  0.2890  0.0835 -0.2350
  114POPC   GL1 1912   7.230   3.127   8.736  0.2020  0.1088  0.0863
  114POPC   GL2 1913   6.840   3.201   8.634 -0.0123 -0.0450 -0.1908
  114POPC   C1A 1914   7.387   3.336   8.335 -0.0860  0.0199 -0.1903
  114POPC   D2A 1915   7.521   3.371   7.841 -0.0283 -0.0055  0.0232
  114POPC   C3A 1916   7.374   3.208   7.516  0.0157  0.3236 -0.0683
  114POPC   C4A 1917   7.100   2.934   7.496 -0.2307 -0.1244 -0.0860
  114POPC   C1B 1918   6.808   3.090   8.210 -0.0962 -0.0266  0.0174
  114POPC   C2B 1919   6.760   3.083   7.826  0.1247 -0.2253 -0.0922
  114POPC   C3B 1920   6.561   2.829   7.429  0.0019  0.1179  0.1349
  114POPC   C4B 1921   6.227   2.574   7.330 -0.2442  0.0950  0.1401
  115POPC   NC3 1922   0.171   4.538   8.850  0.0963 -0.1008 -0.0534
  115POPC   PO4 1923  -0.043   4.889   9.014 -0.0667 -0.1584 -0.1370
  115POPC   GL1 1924  -0.158   4.910   8.690  0.1179 -0.1966 -0.0697
  115POPC   GL2 1925  -0.524   4.684   8.634  0.0145 -0.0722  0.0395
  115POPC   C1A 1926  -0.084   5.153   8.338  0.0218  0.1682  0.2231
  115POPC   D2A 1927  -0.310   5.409   8.036  0.1155 -0.2497 -0.1154
  115POPC   C3A 1928  -0.475   5.232   7.594  0.0980 -0.0493 -0.1929
  115POPC   C4A 1929  -0.745   5.112   7.287  0.0226  0.2244  0.0081
  115POPC   C1B 1930  -0.287   4.427   8.286  0.0622 -0.1786  0.2984
  115POPC   C2B 1931  -0.119   4.391   7.890  0.2408 -0.1961 -0.0379
  115POPC   C3B 1932  -0.205   4.530   7.478 -0.2015  0.0023  0.1356
  115POPC   C4B 1933  -0.369   4.767   7.146  0.2232 -0.2551  0.2701
  116POPC   NC3 1934   8.858   9.330   9.456 -0.1283  0.0633 -0.1670
  116POPC   PO4 1935   8.763   9.756   9.465 -0.0670  0.0940 -0.1960
  116POPC   GL1 1936   9.094   9.605   9.105  0.0150 -0.0535  0.0550
  116POPC   GL2 1937   9.145   9.678   8.785  0.0595  0.0798 -0.0403
  116POPC   C1A 1938   9.326   9.266   8.929 -0.0126 -0.0066  0.3810
  116POPC   D2A 1939   9.406   8.892   8.589 -0.3354 -0.0808  0.1661
  116POPC   C3A 1940   9.057   8.719   8.519 -0.1660  0.1875 -0.1876
  116POPC   C4A 1941   8.648   8.618   8.641  0.0224 -0.0885 -0.1422
  116POPC   C1B 1942   9.389   9.518   8.406 -0.0599  0.0917 -0.1996
  116POPC   C2B 1943   9.639   9.179   8.228 -0.0459 -0.2720 -0.2048
  116POPC   C3B 1944   9.644   9.289   7.698 -0.0372  0.0491  0.0946
  116POPC   C4B 1945   9.399   9.303   7.356  0.0516  0.0361 -0.1689
  117POPC   NC3 1946   6.723   7.899   8.995 -0.3838 -0.0277  0.1271
  117POPC   PO4 1947   6.577   8.157   8.686 -0.2751  0.0725  0.1835
  117POPC   GL1 1948   6.471   8.328   8.318 -0.0956 -0.1861 -0.2745
  117POPC   GL2 1949   6.267   8.182   8.227  0.0469 -0.2410  0.0483
  117POPC   C1A 1950   6.658   8.606   7.952  0.0772  0.3437 -0.0542
  117POPC   D2A 1951   6.931   8.633   7.582 -0.2407 -0.2058 -0.2758
  117POPC   C3A 1952   7.210   8.193   7.372 -0.1549 -0.2213  0.2260
  117POPC   C4A 1953   7.467   7.962   7.090 -0.0492 -0.0228 -0.0524
  117POPC   C1B 1954   6.241   8.304   7.793 -0.2169  0.0943  0.0005
  117POPC   C2B 1955   6.159   8.635   7.596  0.0425  0.0955  0.1587
  117POPC   C3B 1956   6.067   9.030   7.334  0.1004 -0.1828  0.1140
  117POPC   C4B 1957   5.871   9.084   6.921 -0.1240 -0.0890 -0.0389
  118POPC   NC3 1958   2.071   5.624   9.392  0.1590 -0.0200 -0.0328
  118POPC   PO4 1959   2.084   5.828   9.763  0.0568  0.3614  0.2128
  118POPC   GL1 1960   1.808   6.072   9.350 -0.0119 -0.0927  0.1003
  118POPC   GL2 1961   1.745   5.956   8.995 -0.0666 -0.1950  0.1625
  118POPC   C1A 1962   1.946   6.379   9.112  0.0331 -0.1535  0.0616
  118POPC   D2A 1963   1.739   6.737   8.834 -0.1578  0.0341  0.0283
  118POPC   C3A 1964   1.822   6.628   8.263 -0.2012  0.2922  0.2526
  118POPC   C4A 1965   1.719   6.405   7.913  0.0513 -0.1258 -0.0648
  118POPC   C1B 1966   2.100   6.090   8.726 -0.3182  0.1507  0.0625
  118POPC   C2B 1967   2.263   6.429   8.455  0.0104 -0.0421  0.3015
  118POPC   C3B 1968   2.388   6.781   8.192  0.1768  0.3411  0.0526
  118POPC   C4B 1969   2.711   7.114   8.352  0.1606 -0.2722 -0.2414
  119POPC   NC3 1970   9.533   8.294   9.591 -0.2881  0.1032 -0.4502
  119POPC   PO4 1971   9.909   8.037   9.760 -0.2778  0.0058  0.0218
  119POPC   GL1 1972  10.004   8.341   9.413  0.1323  0.0794 -0.1028
  119POPC   GL2 1973  10.233   8.526   9.565  0.1948 -0.1953 -0.0633
  119POPC   C1A 1974  10.122   8.321   9.032  0.0210  0.0586  0.0852
  119POPC   D2A 1975  10.409   8.537   8.773 -0.3301  0.0265 -0.1517
  119POPC   C3A 1976  10.479   8.300   8.375 -0.3043  0.2471  0.1813
  119POPC   C4A 1977  10.811   8.134   8.210  0.2778  0.3570 -0.0066
  119POPC   C1B 1978  10.204   8.819   9.180 -0.2094 -0.2398 -0.0468
  119POPC   C2B 1979  10.264   9.113   8.813  0.3497  0.1373  0.3312
  119POPC   C3B 1980  10.529   8.890   8.461 -0.2417  0.1641  0.0894
  119POPC   C4B 1981  10.474   8.646   8.021 -0.0406  0.1683 -0.0007
  120POPC   NC3 1982   2.856   2.327   9.879  0.3022  0.1289 -0.0586
  120POPC   PO4 1983   2.763   1.925   9.766  0.0599  0.0434  0.2565
  120POPC   GL1 1984   2.785   1.841   9.352 -0.0565  0.1382  0.2072
  120POPC   GL2 1985   3.004   2.050   9.160 -0.0374  0.0070 -0.1408
  120POPC   C1A 1986   2.669   1.583   9.032 -0.0478 -0.1191  0.0553
  120POPC   D2A 1987   2.681   1.100   8.875 -0.1290  0.1538  0.1812
  120POPC   C3A 1988   2.599   0.858   8.554 -0.1501  0.1047 -0.2569
  120POPC   C4A 1989   2.360   0.706   8.284 -0.2703 -0.4398 -0.2978
  120POPC   C1B 1990   3.000   1.909   8.795  0.1402 -0.0910  0.2027
  120POPC   C2B 1991   3.308   1.707   8.537  0.0504  0.0215  0.0252
  120POPC   C3B 1992   3.212   1.404   8.119  0.2874 -0.3725  0.1956
  120POPC   C4B 1993   3.173   1.269   7.721 -0.0055  0.0728  0.0083
  121POPC   NC3 1994   6.485   8.656   8.790 -0.0134  0.0418  0.0855
  121POPC   PO4 1995   6.129   8.307   8.832 -0.2601 -0.2784 -0.0623
  121POPC   GL1 1996   5.885   8.485   8.463  0.0496 -0.0374 -0.1320
  121POPC   GL2 1997   6.079   8.720   8.384 -0.2302 -0.0318  0.0869
  121POPC   C1A 1998   5.721   8.554   8.054 -0.0225  0.2513 -0.0723
  121POPC   D2A 1999   5.570   8.377   7.786 -0.0916 -0.3593  0.2543
  121POPC   C3A 2000   5.613   8.710   7.530  0.0680 -0.3156  0.1325
  121POPC   C4A 2001   5.466   9.004   7.221 -0.0056 -0.0879 -0.1178
  121POPC   C1B 2002   6.414   9.007   8.246 -0.0089  0.1048 -0.1182
  121POPC   C2B 2003   6.468   9.189   7.765 -0.2115  0.3731 -0.2248
  121POPC   C3B 2004   6.556   9.219   7.303 -0.2209  0.1674 -0.0739
  121POPC   C4B 2005   6.795   9.336   7.018 -0.0548  0.0885 -0.0754
  122POPC   NC3 2006   8.261   4.024   9.254  0.1832 -0.1509 -0.2501
  122POPC   PO4 2007   8.648   3.733   9.282 -0.1699 -0.3815  0.0002
  122POPC   GL1 2008   8.405   3.831   8.853 -0.0114  0.2732 -0.0949
  122POPC   GL2 2009   8.669   3.839   8.675  0.0879 -0.1375 -0.0913
  122POPC   C1A 2010   8.526   4.304   8.664  0.1644 -0.1600 -0.1350
  122POPC   D2A 2011   8.287   4.460   8.321  0.1847  0.1405  0.0941
  122POPC   C3A 2012   8.336   4.318   7.849  0.3843 -0.2702 -0.1546
  122POPC   C4A 2013   8.356   3.928   7.688  0.2384 -0.0201  0.0566
  122POPC   C1B 2014   8.770   4.076   8.202 -0.1935  0.1267  0.0246
  122POPC   C2B 2015   8.832   4.455   7.899 -0.0049 -0.0551  0.1469
  122POPC   C3B 2016   9.170   4.452   7.616  0.0284 -0.2035  0.2917
  122POPC   C4B 2017   9.526   4.716   7.624  0.0160  0.2098  0.1507
  123POPC   NC3 2018   3.509   2.771   8.807  0.1887  0.4015  0.1795
  123POPC   PO4 2019   3.851   2.940   8.577  0.4444 -0.2877  0.0014
  123POPC   GL1 2020   3.706   2.896   8.226  0.2993 -0.2578  0.1017
  123POPC   GL2 2021   3.809   2.948   7.933  0.1493 -0.0855  0.3554
  123POPC   C1A 2022   3.327   2.668   8.148 -0.0353 -0.0857 -0.2704
  123POPC   D2A 2023   3.218   2.390   7.761  0.2153  0.3447  0.1521
  123POPC   C3A 2024   3.195   2.292   7.443 -0.1533  0.0521  0.0368
  123POPC   C4A 2025   2.970   1.947   7.121 -0.2704  0.1390  0.0443
  123POPC   C1B 2026   3.688   2.877   7.626  0.2961  0.1861  0.0413
  123POPC   C2B 2027   3.714   2.837   7.166 -0.1167 -0.1155  0.3857
  123POPC   C3B 2028   3.877   2.417   6.924  0.2296  0.1606 -0.0747
  123POPC   C4B 2029   3.879   2.019   6.773 -0.2161 -0.2535  0.0451
  124POPC   NC3 2030   3.957   9.899  10.424 -0.1412  0.0693  0.2370
  124POPC   PO4 2031   4.180   9.469  10.347  0.1699 -0.0420 -0.0966
  124POPC   GL1 2032   4.110   9.642   9.962 -0.1592  0.0133 -0.0865
  124POPC   GL2 2033   4.153   9.485   9.669 -0.2127  0.0481 -0.0602
  124POPC   C1A 2034   3.872   9.935   9.679  0.0783  0.0785 -0.1707
  124POPC   D2A 2035   3.387   9.764   9.694 -0.1019  0.3232  0.0331
  124POPC   C3A 2036   3.254   9.306   9.738 -0.1475  0.0206  0.1440
  124POPC   C4A 2037   3.489   8.944   9.520  0.0945  0.2123 -0.4200
  124POPC   C1B 2038   3.750   9.476   9.403 -0.0050  0.0405 -0.2019
  124POPC   C2B 2039   3.367   9.671   9.165 -0.2567 -0.1891  0.0738
  124POPC   C3B 2040   3.333   9.773   8.691  0.2196  0.0939 -0.0433
  124POPC   C4B 2041   3.292   9.554   8.323  0.3420  0.1462  0.0605
  125POPC   NC3 2042   3.962   5.340   9.229  0.1600 -0.2714  0.0438
  125POPC   PO4 2043   4.161   5.033   8.890 -0.1012  0.1711  0.1126
  125POPC   GL1 2044   4.081   5.136   8.496  0.1479 -0.0305  0.3103
  125POPC   GL2 2045   3.817   5.012   8.279 -0.0007  0.3061 -0.3604
  125POPC   C1A 2046   4.006   5.426   8.053 -0.2129 -0.1772  0.0179
  125POPC   D2A 2047   3.914   5.742   7.831 -0.2733  0.0188 -0.0427
  125POPC   C3A 2048   4.028   5.810   7.431 -0.2055  0.0067  0.3722
  125POPC   C4A 2049   4.259   5.980   7.075  0.2501  0.3247 -0.0769
  125POPC   C1B 2050   4.183   4.847   8.000 -0.2523 -0.0435  0.1199
  125POPC   C2B 2051   4.390   4.747   7.680  0.2646  0.2516  0.0943
  125POPC   C3B 2052   4.776   4.983   7.501  0.1358  0.0136 -0.0178
  125POPC   C4B 2053   5.143   5.416   7.339  0.1190 -0.0668  0.0500
  126POPC   NC3 2054   7.946   6.927   8.896  0.3322  0.0114  0.1133
  126POPC   PO4 2055   7.985   6.488   8.811 -0.1315  0.0234 -0.1182
  126POPC   GL1 2056   7.892   6.157   8.462 -0.0216 -0.3800  0.3022
  126POPC   GL2 2057   7.825   5.799   8.415 -0.3861  0.3109  0.0931
  126POPC   C1A 2058   7.933   6.295   8.041 -0.0643 -0.0848 -0.1849
  126POPC   D2A 2059   8.073   6.346   7.587  0.0965  0.0810 -0.4654
  126POPC   C3A 2060   8.210   6.321   7.190  0.0278  0.3343 -0.4916
  126POPC   C4A 2061   8.380   6.437   6.733  0.3052 -0.0630 -0.0487
  126POPC   C1B 2062   7.634   5.489   8.028  0.2462  0.0138 -0.1687
  126POPC   C2B 2063   7.354   5.162   7.898 -0.1564 -0.1470 -0.0050
  126POPC   C3B 2064   7.462   4.697   7.812 -0.2308 -0.2260 -0.1382
  126POPC   C4B 2065   7.363   4.344   7.852  0.2986  0.3789  0.2266
  127POPC   NC3 2066   0.651   6.107   9.530 -0.0206  0.0865 -0.1667
  127POPC   PO4 2067   0.876   6.138   9.164  0.2813 -0.1623 -0.3096
  127POPC   GL1 2068   1.076   5.898   8.868  0.2181 -0.1750 -0.2063
  127POPC   GL2 2069   0.928   5.699   8.690  0.0833 -0.1350 -0.0816
  127POPC   C1A 2070   1.472   5.839   8.613 -0.0230  0.2329  0.1771
  127POPC   D2A 2071   1.773   6.090   8.376 -0.1318 -0.1967  0.0682
  127POPC   C3A 2072   1.920   5.878   8.002  0.2363 -0.2913  0.0720
  127POPC   C4A 2073   2.121   5.836   7.641  0.1986 -0.0673  0.0172
  127POPC   C1B 2074   1.178   5.442   8.561  0.3873  0.2245  0.3260
  127POPC   C2B 2075   1.555   5.384   8.361  0.3146  0.0424  0.0942
  127POPC   C3B 2076   1.750   5.436   7.984 -0.1548  0.2539  0.0560
  127POPC   C4B 2077   2.064   5.322   7.545 -0.0482 -0.1263  0.0159
  128POPC   NC3 2078   3.051   7.435  10.077  0.1825 -0.1018  0.1450
  128POPC   PO4 2079   2.664   7.144  10.105 -0.5411  0.2238 -0.2320
  128POPC   GL1 2080   2.404   7.427   9.829  0.0809  0.0226 -0.2815
  128POPC   GL2 2081   2.268   7.297   9.584  0.0371 -0.2228  0.1063
  128POPC   C1A 2082   2.321   7.894   9.911 -0.3862  0.0211  0.1307
  128POPC   D2A 2083   2.255   8.331  10.059  0.2379  0.3572  0.2382
  128POPC   C3A 2084   2.339   8.704   9.973 -0.0640  0.1826 -0.3362
  128POPC   C4A 2085   2.389   8.990   9.930 -0.0587 -0.1015  0.2879
  128POPC   C1B 2086   2.285   7.701   9.392  0.2389 -0.2308 -0.1234
  128POPC   C2B 2087   2.331   7.964   9.000  0.2396 -0.1889  0.1246
  128POPC   C3B 2088   2.046   7.894   8.634  0.1184 -0.1424  0.0852
  128POPC   C4B 2089   1.901   7.634   8.345  0.2406 -0.0322  0.1872
  129POPC   NC3 2090   2.245   3.473   8.436 -0.1516  0.0776  0.3519
  129POPC   PO4 2091   2.185   3.122   8.564  0.5025 -0.1249  0.0553
  129POPC   GL1 2092   2.408   3.044   8.116  0.1439  0.2497 -0.0177
  129POPC   GL2 2093   2.093   3.063   8.064  0.1044  0.1546  0.1817
  129POPC   C1A 2094   2.452   2.998   7.720  0.1510 -0.0012  0.3704
  129POPC   D2A 2095   2.305   3.146   7.280  0.2708 -0.3271 -0.0328
  129POPC   C3A 2096   2.630   3.354   7.078 -0.1841 -0.2023 -0.1812
  129POPC   C4A 2097   2.820   3.728   7.118 -0.0714  0.1333 -0.2817
  129POPC   C1B 2098   1.904   3.026   7.745  0.1502 -0.1132  0.3564
  129POPC   C2B 2099   1.962   2.674   7.455  0.0916 -0.0017  0.2023
  129POPC   C3B 2100   2.102   2.225   7.451 -0.1022 -0.0566 -0.1318
  129POPC   C4B 2101   2.404   1.870   7.475 -0.3587 -0.1929 -0.1230
  130POPC   NC3 2102   5.862   8.522   9.209 -0.4161 -0.1734 -0.1263
  130POPC   PO4 2103   5.711   8.103   9.091  0.3352  0.1161 -0.0423
  130POPC   GL1 2104   5.581   7.921   8.688  0.1255 -0.1575  0.0395
  130POPC   GL2 2105   5.675   7.629   8.485  0.1061  0.0857  0.1896
  130POPC   C1A 2106   5.698   8.093   8.223  0.0321  0.1597 -0.3333
  130POPC   D2A 2107   5.935   7.959   7.801  0.0057  0.2749 -0.3575
  130POPC   C3A 2108   5.904   8.194   7.293 -0.0246 -0.0758 -0.4102
  130POPC   C4A 2109   5.736   8.592   7.018 -0.2197 -0.1777 -0.0394
  130POPC   C1B 2110   5.509   7.611   8.136 -0.0556  0.0615 -0.1107
  130POPC   C2B 2111   5.318   7.865   7.855  0.2270  0.0053 -0.0357
  130POPC   C3B 2112   5.087   8.096   7.686 -0.1761  0.0843  0.1331
  130POPC   C4B 2113   4.800   8.193   7.436  0.1156 -0.2147 -0.0027
  131POPC   NC3 2114   3.067   3.292   8.820  0.4134 -0.1396 -0.0567
  131POPC   PO4 2115   2.653   3.223   8.745 -0.2581  0.0845 -0.1380
  131POPC   GL1 2116   2.817   3.406   8.344  0.0548 -0.4001  0.0896
  131POPC   GL2 2117   3.034   3.587   8.386  0.7470 -0.1812 -0.0867
  131POPC   C1A 2118   2.891   3.138   8.066  0.2974 -0.1259 -0.0289
  131POPC   D2A 2119   3.170   2.982   7.775 -0.2044  0.1895  0.0643
  131POPC   C3A 2120   3.230   2.787   7.376 -0.0065  0.0312  0.0195
  131POPC   C4A 2121   3.167   2.550   6.958  0.2609  0.0903 -0.0026
  131POPC   C1B 2122   3.219   3.568   8.004  0.3744  0.1901 -0.1151
  131POPC   C2B 2123   3.392   3.419   7.695  0.2017 -0.0303  0.3574
  131POPC   C3B 2124   3.602   3.329   7.288  0.0160 -0.2432 -0.0201
  131POPC   C4B 2125   3.653   3.382   6.881 -0.1187 -0.2294  0.2403
  132POPC   NC3 2126   3.843   1.416   9.849  0.0028 -0.2496  0.0903
  132POPC   PO4 2127   3.673   1.654   9.442 -0.1544  0.3375 -0.0873
  132POPC   GL1 2128   3.683   1.425   9.033 -0.0141 -0.0275 -0.0665
  132POPC   GL2 2129   3.501   1.223   9.034 -0.2623  0.0586 -0.2361
  132POPC   C1A 2130   3.591   1.281   8.537 -0.0274  0.0920 -0.0459
  132POPC   D2A 2131   3.515   0.938   8.343  0.1189 -0.0964  0.0920
  132POPC   C3A 2132   3.141   0.845   8.103  0.2552 -0.0751 -0.1027
  132POPC   C4A 2133   2.926   0.634   7.850 -0.4435 -0.0860 -0.0953
  132POPC   C1B 2134   3.164   1.418   8.927  0.3836  0.2456  0.0718
  132POPC   C2B 2135   2.901   1.437   8.571  0.0300  0.2356 -0.1519
  132POPC   C3B 2136   2.804   1.225   8.258 -0.1096 -0.0404  0.0140
  132POPC   C4B 2137   2.579   1.063   7.901  0.3583 -0.1438  0.0942
  133POPC   NC3 2138   9.024  10.111   9.836 -0.0188 -0.4016  0.4634
  133POPC   PO4 2139   9.378  10.334   9.618  0.0347  0.0704  0.0945
  133POPC   GL1 2140   9.262  10.127   9.188 -0.2069 -0.2473  0.0349
  133POPC   GL2 2141   9.466  10.117   9.012  0.0574 -0.1206 -0.0648
  133POPC   C1A 2142   9.067  10.192   8.741  0.1427 -0.0364  0.0315
  133POPC   D2A 2143   9.295   9.984   8.320 -0.0461 -0.0047 -0.1422
  133POPC   C3A 2144   9.291  10.104   7.933 -0.0456  0.0977  0.2341
  133POPC   C4A 2145   9.391  10.323   7.623 -0.0827 -0.2908  0.0330
  133POPC   C1B 2146   9.552  10.341   8.678 -0.3547  0.1941 -0.3895
  133POPC   C2B 2147   9.767  10.611   8.530 -0.0990 -0.0851 -0.1876
  133POPC   C3B 2148  10.248  10.775   8.407  0.0242  0.4092 -0.1165
  133POPC   C4B 2149  10.580  10.700   8.188  0.1396  0.0234  0.1892
  134POPC   NC3 2150   8.877   6.113   8.969 -0.2104  0.0191 -0.0113
  134POPC   PO4 2151   8.457   6.219   9.045 -0.1249  0.2666 -0.1049
  134POPC   GL1 2152   8.544   6.450   8.611 -0.2372  0.0742  0.1655
  134POPC   GL2 2153   8.309   6.570   8.400  0.0309 -0.2629  0.0607
  134POPC   C1A 2154   8.821   6.259   8.323 -0.1191 -0.0177  0.1668
  134POPC   D2A 2155   8.854   5.890   8.018 -0.0671 -0.2130  0.1892
  134POPC   C3A 2156   9.172   5.862   7.712  0.0473  0.1154 -0.1819
  134POPC   C4A 2157   9.508   5.718   7.417  0.0235  0.0995 -0.0403
  134POPC   C1B 2158   8.416   6.508   7.936 -0.0116 -0.0614  0.1974
  134POPC   C2B 2159   8.444   6.643   7.518 -0.2082 -0.0115  0.0050
  134POPC   C3B 2160   8.515   6.788   7.126  0.1430  0.0399 -0.0224
  134POPC   C4B 2161   8.780   6.823   6.851 -0.0114  0.2148  0.0620
  135POPC   NC3 2162   8.503   2.836   9.382  0.1913  0.0192 -0.0357
  135POPC   PO4 2163   8.429   2.506   9.144 -0.1570 -0.0480  0.0698
  135POPC   GL1 2164   8.296   2.292   8.728  0.1370 -0.1090  0.1811
  135POPC   GL2 2165   8.459   1.971   8.601 -0.0511 -0.2108 -0.0228
  135POPC   C1A 2166   8.076   2.306   8.301  0.2689  0.0138  0.4736
  135POPC   D2A 2167   7.865   2.404   7.911  0.1282  0.0468  0.0979
  135POPC   C3A 2168   7.666   2.823   7.816  0.0984  0.0888 -0.1456
  135POPC   C4A 2169   7.303   2.965   8.016  0.3166 -0.2903 -0.1014
  135POPC   C1B 2170   8.812   1.783   8.447  0.0532  0.1092 -0.1484
  135POPC   C2B 2171   8.867   1.982   8.050 -0.1024  0.1589  0.1423
  135POPC   C3B 2172   8.597   2.184   7.734  0.0142  0.0100 -0.2458
  135POPC   C4B 2173   8.592   1.988   7.347 -0.2794  0.1222 -0.0495
  136POPC   NC3 2174  10.099   3.347   8.739  0.0887 -0.1011  0.0512
  136POPC   PO4 2175  10.223   3.005   8.918 -0.0725 -0.0347  0.0719
  136POPC   GL1 2176  10.043   2.840   8.534 -0.0533  0.0147  0.1671
  136POPC   GL2 2177  10.317   2.980   8.331  0.2658  0.0021 -0.2487
  136POPC   C1A 2178  10.010   2.615   8.256 -0.0763 -0.0387  0.1410
  136POPC   D2A 2179  10.079   2.225   7.992 -0.1140 -0.0003  0.4678
  136POPC   C3A 2180  10.085   2.400   7.604 -0.2527 -0.0834  0.3941
  136POPC   C4A 2181  10.397   2.576   7.453  0.2590 -0.1773  0.1795
  136POPC   C1B 2182  10.100   3.014   7.941 -0.3373  0.2740  0.0410
  136POPC   C2B 2183   9.885   2.952   7.493  0.1095 -0.0475  0.0326
  136POPC   C3B 2184   9.628   3.058   7.263 -0.1895  0.2263 -0.4804
  136POPC   C4B 2185   9.728   3.137   6.849 -0.0725 -0.2313  0.1166
  137POPC   NC3 2186   7.536   9.773   8.876  0.3194  0.1128 -0.1377
  137POPC   PO4 2187   7.912   9.596   8.887 -0.1882 -0.1424  0.3709
  137POPC   GL1 2188   8.340   9.538   8.553  0.3686  0.0967 -0.0099
  137POPC   GL2 2189   8.552   9.823   8.568  0.1719 -0.0880  0.1837
  137POPC   C1A 2190   8.654   9.252   8.463  0.0967  0.0268  0.1962
  137POPC   D2A 2191   9.044   9.173   8.314  0.1043 -0.0203  0.5000
  137POPC   C3A 2192   9.260   9.065   7.912  0.1635  0.2845  0.1756
  137POPC   C4A 2193   9.341   8.874   7.633 -0.2757 -0.2322  0.2403
  137POPC   C1B 2194   8.886   9.712   8.270 -0.1636  0.1585 -0.1099
  137POPC   C2B 2195   9.099   9.570   7.953  0.1149 -0.1465 -0.2013
  137POPC   C3B 2196   8.932   9.220   7.614  0.2105  0.0075  0.1325
  137POPC   C4B 2197   8.499   9.009   7.565 -0.1212  0.1578 -0.1642
  138POPC   NC3 2198   7.956   2.098   9.705  0.1985  0.1352  0.3513
  138POPC   PO4 2199   8.075   2.531   9.523 -0.2004 -0.0220  0.0660
  138POPC   GL1 2200   8.028   2.793   9.123  0.0800  0.2508 -0.0186
  138POPC   GL2 2201   8.300   2.906   8.922  0.1235 -0.0475  0.1146
  138POPC   C1A 2202   7.860   2.571   8.784  0.0468  0.1547  0.0350
  138POPC   D2A 2203   7.548   2.221   8.580  0.0040 -0.1209  0.3657
  138POPC   C3A 2204   7.131   2.374   8.289 -0.2478 -0.0548 -0.0458
  138POPC   C4A 2205   6.833   2.624   8.102  0.1959  0.3800  0.0230
  138POPC   C1B 2206   8.247   2.716   8.475 -0.2193  0.2854 -0.1145
  138POPC   C2B 2207   7.806   2.682   8.329 -0.0843 -0.0104  0.0604
  138POPC   C3B 2208   7.422   2.716   8.534  0.5453 -0.1184 -0.0137
  138POPC   C4B 2209   7.238   2.586   8.912  0.0297  0.0903  0.1663
  139POPC   NC3 2210   7.253   8.904   9.273 -0.1363  0.2252  0.2388
  139POPC   PO4 2211   6.835   8.970   9.093 -0.0914 -0.0591 -0.1346
  139POPC   GL1 2212   7.110   8.780   8.744 -0.1585 -0.2514 -0.0356
  139POPC   GL2 2213   7.214   8.932   8.412  0.0045 -0.0674 -0.2847
  139POPC   C1A 2214   6.946   8.491   8.326  0.1189  0.1284 -0.0985
  139POPC   D2A 2215   7.195   8.397   7.929  0.2876 -0.3843 -0.0485
  139POPC   C3A 2216   7.549   8.126   7.832  0.1304  0.1762  0.3455
  139POPC   C4A 2217   7.740   7.882   7.510  0.0363 -0.0366  0.0204
  139POPC   C1B 2218   6.923   8.980   8.038 -0.0514 -0.1003  0.1193
  139POPC   C2B 2219   6.979   9.310   7.652  0.1595 -0.2633  0.0463
  139POPC   C3B 2220   7.161   9.478   7.339 -0.3834 -0.2850  0.2346
  139POPC   C4B 2221   7.238   9.627   6.964 -0.2954 -0.1249  0.0841
  140POPC   NC3 2222   7.819   8.798   9.122 -0.1399 -0.6059  0.4024
  140POPC   PO4 2223   7.498   8.493   8.959 -0.1433  0.2702 -0.2226
  140POPC   GL1 2224   7.505   8.558   8.545  0.1247 -0.1999  0.4291
  140POPC   GL2 2225   7.744   8.804   8.527  0.0610 -0.1307  0.1773
  140POPC   C1A 2226   7.721   8.575   7.987  0.2949 -0.0433  0.1249
  140POPC   D2A 2227   7.837   8.919   7.627  0.1154  0.0880 -0.0527
  140POPC   C3A 2228   7.699   9.320   7.487 -0.0683 -0.0357 -0.2599
  140POPC   C4A 2229   7.774   9.474   7.083  0.0133  0.1962  0.1650
  140POPC   C1B 2230   7.659   9.058   8.126 -0.1338 -0.0833 -0.0641
  140POPC   C2B 2231   7.371   8.997   7.752  0.0136  0.1178  0.0328
  140POPC   C3B 2232   7.424   8.648   7.560 -0.4149  0.1022 -0.1011
  140POPC   C4B 2233   7.718   8.360   7.409 -0.3039  0.0709 -0.0175
  141POPC   NC3 2234   9.442   9.451   9.918 -0.0899  0.2213 -0.0184
  141POPC   PO4 2235   9.536   9.103   9.789  0.1099  0.0103 -0.1179
  141POPC   GL1 2236   9.747   9.191   9.366 -0.1852 -0.0889 -0.2150
  141POPC   GL2 2237   9.671   9.464   9.399  0.0651 -0.2108  0.2682
  141POPC   C1A 2238   9.806   9.185   8.976  0.1502 -0.2535  0.2385
  141POPC   D2A 2239   9.914   9.355   8.605  0.1718  0.0402 -0.1251
  141POPC   C3A 2240  10.121   9.186   8.261  0.0466  0.0487 -0.0704
  141POPC   C4A 2241  10.016   8.936   7.948  0.2422 -0.0106  0.2516
  141POPC   C1B 2242   9.623   9.667   8.999 -0.1101  0.1935  0.1518
  141POPC   C2B 2243   9.714   9.894   8.634 -0.2175  0.0054  0.0488
  141POPC   C3B 2244   9.801  10.182   8.276  0.1612 -0.0034  0.0426
  141POPC   C4B 2245   9.931  10.248   7.769  0.2612 -0.0184 -0.1440
  142POPC   NC3 2246   9.158   3.852   9.188  0.1374  0.0540 -0.3900
  142POPC   PO4 2247   9.179   3.454   9.020 -0.0443  0.1626  0.1048
  142POPC   GL1 2248   9.138   3.398   8.558 -0.2473  0.0292 -0.1383
  142POPC   GL2 2249   9.116   3.126   8.396  0.0625  0.0668  0.0085
  142POPC   C1A 2250   9.228   3.568   8.155 -0.1644 -0.1354  0.4368
  142POPC   D2A 2251   9.200   3.860   7.808  0.2102 -0.0735  0.2718
  142POPC   C3A 2252   9.023   3.543   7.472  0.0798 -0.0671 -0.1787
  142POPC   C4A 2253   8.869   3.679   7.053 -0.3460 -0.0304 -0.0319
  142POPC   C1B 2254   8.932   3.195   8.016 -0.2079  0.0153  0.1411
  142POPC   C2B 2255   8.608   3.045   7.721 -0.0958  0.2065 -0.0157
  142POPC   C3B 2256   8.507   2.656   7.485 -0.1598 -0.0992 -0.2493
  142POPC   C4B 2257   8.138   2.571   7.464  0.4588  0.2637  0.2580
  143POPC   NC3 2258   0.479   4.334   9.536  0.0598 -0.0346  0.1860
  143POPC   PO4 2259   0.586   4.592   9.127  0.0342 -0.1041 -0.0000
  143POPC   GL1 2260   0.614   4.758   8.674  0.1994 -0.0769 -0.1083
  143POPC   GL2 2261   0.362   4.971   8.577  0.0006  0.1952 -0.2331
  143POPC   C1A 2262   0.771   5.205   8.339 -0.0455 -0.1782 -0.3285
  143POPC   D2A 2263   0.979   5.616   8.095  0.0686 -0.2929 -0.1093
  143POPC   C3A 2264   1.040   6.113   8.355 -0.1850  0.3262 -0.0111
  143POPC   C4A 2265   1.341   6.409   8.241 -0.0848 -0.1173 -0.2283
  143POPC   C1B 2266   0.295   4.940   8.072 -0.0587 -0.3379 -0.0893
  143POPC   C2B 2267   0.315   4.887   7.698 -0.1488  0.2488  0.1084
  143POPC   C3B 2268   0.522   5.071   7.333  0.1521 -0.0672 -0.0318
  143POPC   C4B 2269   0.447   5.081   6.898 -0.2468 -0.1189 -0.2415
  144POPC   NC3 2270   4.289   7.018   9.951 -0.1692  0.3274  0.2677
  144POPC   PO4 2271   4.101   7.168   9.456  0.2293 -0.0944 -0.0681
  144POPC   GL1 2272   4.069   7.216   8.966 -0.1863  0.2624  0.0764
  144POPC   GL2 2273   3.768   7.142   8.909 -0.0795  0.0379 -0.1084
  144POPC   C1A 2274   4.138   7.140   8.531 -0.1118 -0.2563 -0.0261
  144POPC   D2A 2275   4.357   7.224   8.137 -0.0193  0.2858 -0.1616
  144POPC   C3A 2276   4.585   7.619   8.143 -0.2994  0.1353 -0.2653
  144POPC   C4A 2277   4.718   7.827   7.814 -0.1796 -0.3001 -0.0527
  144POPC   C1B 2278   3.634   7.402   8.501  0.1900  0.1018  0.1653
  144POPC   C2B 2279   3.809   7.447   8.071  0.0534  0.3606  0.1006
  144POPC   C3B 2280   4.073   7.297   7.538  0.2419  0.0648  0.1578
  144POPC   C4B 2281   4.002   7.602   7.180  0.0305  0.1081  0.0327
  145POPC   NC3 2282   2.802   3.761   8.805  0.0784  0.1612 -0.2556
  145POPC   PO4 2283   2.393   3.956   8.812 -0.0623  0.0299  0.1498
  145POPC   GL1 2284   2.524   3.860   8.442 -0.0432  0.1080  0.0593
  145POPC   GL2 2285   2.376   3.882   8.205 -0.0738 -0.1949  0.0438
  145POPC   C1A 2286   2.861   3.859   8.016  0.2052 -0.1077 -0.0698
  145POPC   D2A 2287   3.082   3.957   7.610  0.1432  0.0301  0.1588
  145POPC   C3A 2288   2.989   4.198   7.257  0.0570  0.1045 -0.1038
  145POPC   C4A 2289   2.719   4.156   6.921 -0.1932  0.1829  0.0245
  145POPC   C1B 2290   2.433   3.494   7.861 -0.4837 -0.4143  0.0443
  145POPC   C2B 2291   2.803   3.519   7.640  0.0017 -0.0830 -0.1042
  145POPC   C3B 2292   2.866   3.192   7.452 -0.0154  0.0727  0.0726
  145POPC   C4B 2293   2.729   2.895   7.133 -0.1475 -0.0665  0.0734
  146POPC   NC3 2294   8.086   3.114   9.486 -0.0099  0.1048  0.1886
  146POPC   PO4 2295   8.262   3.356   9.135  0.0105 -0.0231 -0.2078
  146POPC   GL1 2296   8.123   3.346   8.768 -0.3209  0.0968  0.1747
  146POPC   GL2 2297   7.896   3.080   8.667  0.1977  0.2020 -0.0787
  146POPC   C1A 2298   7.922   3.618   8.466  0.0952  0.0369 -0.0458
  146POPC   D2A 2299   7.931   3.640   8.014  0.2226  0.0208  0.2777
  146POPC   C3A 2300   8.314   3.419   7.816 -0.0162 -0.1069 -0.0369
  146POPC   C4A 2301   8.683   3.636   7.892 -0.3001  0.0185  0.0050
  146POPC   C1B 2302   7.997   3.132   8.202  0.1994 -0.1063  0.1238
  146POPC   C2B 2303   8.176   2.879   7.957 -0.0971 -0.2025 -0.0307
  146POPC   C3B 2304   8.377   2.515   8.023 -0.1893  0.0440 -0.0686
  146POPC   C4B 2305   8.704   2.275   8.352  0.1096 -0.3495 -0.0975
  147POPC   NC3 2306   0.326   2.635   9.221 -0.1515  0.2056 -0.0243
  147POPC   PO4 2307   0.655   2.474   9.091 -0.2424 -0.3338 -0.1694
  147POPC   GL1 2308   0.807   2.100   8.996  0.1291  0.2570 -0.1883
  147POPC   GL2 2309   0.590   1.723   9.119 -0.0850 -0.1056 -0.3061
  147POPC   C1A 2310   0.794   1.971   8.650  0.2129 -0.0881 -0.1287
  147POPC   D2A 2311   1.017   1.799   8.288 -0.1415 -0.1083  0.2975
  147POPC   C3A 2312   1.293   1.432   8.431  0.0165 -0.2200 -0.4610
  147POPC   C4A 2313   1.625   1.214   8.266 -0.0125  0.1738 -0.0735
  147POPC   C1B 2314   0.726   1.391   8.831  0.1326  0.2679 -0.0686
  147POPC   C2B 2315   0.801   1.333   8.483  0.2176 -0.2560 -0.0337
  147POPC   C3B 2316   1.029   1.065   8.215  0.0052 -0.2780 -0.0749
  147POPC   C4B 2317   0.925   1.058   7.832 -0.0531 -0.4008  0.0792
  148POPC   NC3 2318   8.280   8.369   9.779  0.1094 -0.0396 -0.1267
  148POPC   PO4 2319   7.927   8.425   9.453  0.2064 -0.1755 -0.2882
  148POPC   GL1 2320   8.025   8.328   9.023  0.0001 -0.2224 -0.0352
  148POPC   GL2 2321   7.861   8.168   8.816 -0.0972 -0.2244  0.1956
  148POPC   C1A 2322   8.384   8.097   8.752 -0.3063  0.1561  0.0414
  148POPC   D2A 2323   8.514   8.077   8.384  0.2232  0.0817  0.2282
  148POPC   C3A 2324   8.559   8.388   8.142  0.0937 -0.0070 -0.0142
  148POPC   C4A 2325   8.654   8.728   7.947 -0.1435 -0.2361 -0.3437
  148POPC   C1B 2326   8.000   8.147   8.432 -0.0297  0.0999 -0.0467
  148POPC   C2B 2327   8.017   8.135   7.943  0.0841  0.4067  0.2071
  148POPC   C3B 2328   8.184   8.082   7.479  0.0509 -0.0950 -0.0807
  148POPC   C4B 2329   8.105   8.125   7.055 -0.0247 -0.0872  0.0213
  149POPC   NC3 2330   9.769   0.470   9.552 -0.0623  0.1393 -0.1562
  149POPC   PO4 2331   9.804   0.946   9.313  0.0433  0.0427  0.0379
  149POPC   GL1 2332  10.005   0.923   8.974 -0.2107 -0.1006  0.2068
  149POPC   GL2 2333  10.219   0.629   9.038  0.0404  0.0423  0.2441
  149POPC   C1A 2334  10.270   1.088   8.659  0.0717  0.0259 -0.1053
  149POPC   D2A 2335  10.509   1.155   8.348 -0.2634  0.1661  0.1426
  149POPC   C3A 2336  10.507   0.961   7.871 -0.2765 -0.3152  0.0263
  149POPC   C4A 2337  10.759   0.671   7.738  0.0372 -0.0324  0.1444
  149POPC   C1B 2338  10.605   0.455   8.854  0.1361 -0.1679 -0.3116
  149POPC   C2B 2339  10.816   0.214   8.510 -0.0053 -0.3329 -0.0043
  149POPC   C3B 2340  10.826   0.066   8.167 -0.2663 -0.2888  0.0978
  149POPC   C4B 2341  11.092  -0.035   7.854 -0.0485 -0.1782 -0.2750
  150POPC   NC3 2342   1.501   2.477   9.418  0.0007 -0.1773 -0.3802
  150POPC   PO4 2343   1.399   2.227   9.733  0.1145  0.0048 -0.1076
  150POPC   GL1 2344   1.492   1.907   9.421 -0.1108  0.0128 -0.1510
  150POPC   GL2 2345   1.447   2.126   9.093 -0.1576  0.1782  0.2950
  150POPC   C1A 2346   1.723   1.701   8.975 -0.1671 -0.0813 -0.2018
  150POPC   D2A 2347   1.826   1.558   8.587  0.0954 -0.1674 -0.0398
  150POPC   C3A 2348   1.592   1.731   8.167 -0.2990  0.0474  0.3087
  150POPC   C4A 2349   1.397   1.785   7.768 -0.1066  0.0724  0.0419
  150POPC   C1B 2350   1.819   2.138   8.838 -0.2047  0.3828  0.0909
  150POPC   C2B 2351   2.042   1.966   8.452 -0.3128  0.2381  0.0149
  150POPC   C3B 2352   2.278   1.701   8.093  0.2310  0.1604  0.0129
  150POPC   C4B 2353   2.260   1.456   7.727 -0.0618  0.1080  0.0115
  151POPC   NC3 2354   6.330   9.667   8.805  0.0663 -0.2750  0.0287
  151POPC   PO4 2355   6.556   9.621   8.564 -0.3887  0.1412  0.1881
  151POPC   GL1 2356   6.431   9.640   8.210 -0.1252  0.0849  0.3545
  151POPC   GL2 2357   6.682   9.603   8.091  0.0331  0.0780 -0.0863
  151POPC   C1A 2358   6.097   9.494   7.977  0.2640  0.1565 -0.1003
  151POPC   D2A 2359   5.567   9.540   8.033  0.4530  0.0976  0.1518
  151POPC   C3A 2360   5.143   9.762   7.720 -0.3246  0.1744 -0.2506
  151POPC   C4A 2361   5.040   9.968   7.174 -0.1064  0.1730 -0.0448
  151POPC   C1B 2362   6.927   9.908   7.819  0.1784 -0.3018  0.0212
  151POPC   C2B 2363   7.038   9.979   7.395 -0.1393  0.0716  0.2076
  151POPC   C3B 2364   7.407  10.116   7.044  0.0706  0.2618  0.1995
  151POPC   C4B 2365   7.812  10.266   7.157 -0.0829  0.1102  0.1110
  152POPC   NC3 2366   1.534   7.165  10.837 -0.1033 -0.0048 -0.5417
  152POPC   PO4 2367   1.106   7.196  10.583  0.1522 -0.0496  0.0661
  152POPC   GL1 2368   1.314   7.410  10.280  0.1874 -0.2778 -0.0197
  152POPC   GL2 2369   1.298   7.805  10.187  0.1783  0.0611  0.1703
  152POPC   C1A 2370   1.760   7.472   9.927  0.1659  0.1234  0.1177
  152POPC   D2A 2371   1.832   7.607   9.484 -0.0367 -0.0701 -0.3893
  152POPC   C3A 2372   1.983   7.591   9.022  0.3452 -0.0091 -0.1176
  152POPC   C4A 2373   1.799   7.312   8.739 -0.3413 -0.0948 -0.1680
  152POPC   C1B 2374   1.381   7.817   9.739  0.1464  0.2425 -0.1078
  152POPC   C2B 2375   1.217   7.863   9.316  0.2882  0.2236 -0.3178
  152POPC   C3B 2376   0.908   7.850   8.960 -0.1729  0.2512 -0.3557
  152POPC   C4B 2377   0.554   7.884   8.629 -0.1389  0.2010 -0.1187
  153POPC   NC3 2378   3.902   2.548   9.041  0.1801  0.0940  0.2234
  153POPC   PO4 2379   3.492   2.435   9.125 -0.1730 -0.3094 -0.4753
  153POPC   GL1 2380   3.256   2.335   8.742 -0.2775  0.2759 -0.1973
  153POPC   GL2 2381   3.577   2.175   8.600  0.0586  0.1508  0.0549
  153POPC   C1A 2382   3.061   2.224   8.362  0.3948  0.2975 -0.5442
  153POPC   D2A 2383   3.169   1.937   8.055  0.0164  0.0905  0.4505
  153POPC   C3A 2384   3.503   1.940   7.818  0.0498  0.1132 -0.2674
  153POPC   C4A 2385   3.724   1.830   7.451 -0.2479 -0.3805 -0.1466
  153POPC   C1B 2386   3.724   2.303   8.213  0.1548  0.0669  0.0902
  153POPC   C2B 2387   3.710   2.398   7.811 -0.1256 -0.1881  0.2110
  153POPC   C3B 2388   3.670   2.315   7.332  0.1060 -0.1211 -0.0958
  153POPC   C4B 2389   3.456   2.043   7.100  0.2565 -0.0814  0.1380
  154POPC   NC3 2390   5.494   4.231   8.983 -0.0335 -0.1867 -0.1122
  154POPC   PO4 2391   5.652   4.575   8.959  0.1325  0.0761  0.2695
  154POPC   GL1 2392   5.358   4.559   8.600  0.0065  0.1580  0.0495
  154POPC   GL2 2393   5.585   4.249   8.482  0.1035 -0.4842  0.1763
  154POPC   C1A 2394   5.224   4.630   8.217  0.2514  0.0361 -0.2249
  154POPC   D2A 2395   5.193   4.451   7.724  0.0059 -0.1978  0.0541
  154POPC   C3A 2396   5.587   4.419   7.570 -0.1045 -0.3702 -0.1305
  154POPC   C4A 2397   5.770   4.208   7.246  0.0451 -0.3348  0.3969
  154POPC   C1B 2398   5.720   4.526   8.204  0.0831 -0.0071  0.1328
  154POPC   C2B 2399   5.908   4.746   7.790  0.1810 -0.0243 -0.1791
  154POPC   C3B 2400   6.012   4.611   7.418  0.1087 -0.1843 -0.2494
  154POPC   C4B 2401   6.388   4.670   7.142  0.2315  0.1348  0.0694
  155POPC   NC3 2402   5.708   1.105   9.297  0.4235 -0.3159  0.2000
  155POPC   PO4 2403   5.367   1.361   9.099  0.0382 -0.0682  0.1204
  155POPC   GL1 2404   5.252   1.184   8.772 -0.0132 -0.0935 -0.1315
  155POPC   GL2 2405   5.219   1.461   8.569 -0.0958 -0.2417 -0.2769
  155POPC   C1A 2406   4.819   0.973   8.778 -0.2683 -0.1182 -0.1793
  155POPC   D2A 2407   4.536   0.731   8.535  0.0337 -0.0691  0.0975
  155POPC   C3A 2408   4.561   0.288   8.551 -0.2067 -0.0451  0.2491
  155POPC   C4A 2409   4.634  -0.194   8.545  0.1737 -0.1257 -0.2035
  155POPC   C1B 2410   5.194   1.679   8.171 -0.1117 -0.3518  0.0579
  155POPC   C2B 2411   5.194   1.843   7.719  0.0495  0.0673 -0.4666
  155POPC   C3B 2412   5.143   1.580   7.380  0.3276  0.1397  0.1954
  155POPC   C4B 2413   5.208   1.108   7.398 -0.1314  0.0122  0.1694
  156POPC   NC3 2414  10.057   2.451   8.911  0.0134 -0.0042 -0.0225
  156POPC   PO4 2415   9.709   2.818   8.927  0.0070 -0.2027 -0.1492
  156POPC   GL1 2416   9.568   2.605   8.644  0.1201 -0.1827 -0.0981
  156POPC   GL2 2417   9.492   2.768   8.490  0.1712 -0.0700  0.0258
  156POPC   C1A 2418   9.715   2.184   8.278  0.1681 -0.0993 -0.3381
  156POPC   D2A 2419   9.796   1.722   8.167  0.2647 -0.0173  0.0104
  156POPC   C3A 2420   9.934   1.420   8.463 -0.0583 -0.2595 -0.1907
  156POPC   C4A 2421   9.734   1.074   8.542 -0.1801  0.1643 -0.2302
  156POPC   C1B 2422   9.491   3.073   8.119  0.1965  0.0409  0.1816
  156POPC   C2B 2423   9.416   3.098   7.716 -0.0739 -0.0558  0.0525
  156POPC   C3B 2424   9.059   2.987   7.421 -0.0941  0.1144 -0.0479
  156POPC   C4B 2425   8.965   2.517   7.351 -0.1086  0.0914 -0.3987
  157POPC   NC3 2426   4.511   5.135   4.978 -0.3649 -0.1045 -0.3025
  157POPC   PO4 2427   4.218   4.789   5.067 -0.0506 -0.2770  0.4083
  157POPC   GL1 2428   3.984   5.027   5.468  0.1276  0.3073  0.3114
  157POPC   GL2 2429   3.887   5.226   5.691  0.2653 -0.0384 -0.2757
  157POPC   C1A 2430   4.206   4.875   5.923  0.4218 -0.2876 -0.0084
  157POPC   D2A 2431   3.916   4.787   6.206  0.1717 -0.0326  0.1319
  157POPC   C3A 2432   3.964   4.515   6.591 -0.0088 -0.0755  0.0080
  157POPC   C4A 2433   4.189   4.319   7.013 -0.2877  0.0963  0.0720
  157POPC   C1B 2434   4.135   5.490   5.876  0.1111 -0.1349 -0.1381
  157POPC   C2B 2435   4.228   5.669   6.327  0.0312 -0.2804 -0.1089
  157POPC   C3B 2436   4.253   6.062   6.582  0.3414  0.1166 -0.2163
  157POPC   C4B 2437   4.490   6.407   6.802 -0.0398 -0.1053  0.1093
  158POPC   NC3 2438   4.706   8.801   4.538  0.0558 -0.2044 -0.2033
  158POPC   PO4 2439   4.542   8.383   4.641  0.2022  0.1944  0.0975
  158POPC   GL1 2440   4.368   8.528   4.967  0.3866 -0.0702  0.4256
  158POPC   GL2 2441   4.665   8.744   5.048  0.2812 -0.4159  0.0003
  158POPC   C1A 2442   4.170   8.426   5.379  0.1846 -0.0591  0.1317
  158POPC   D2A 2443   3.868   8.336   5.741 -0.1077 -0.1195 -0.1145
  158POPC   C3A 2444   3.707   8.559   6.055 -0.0654  0.0113 -0.2924
  158POPC   C4A 2445   3.583   8.913   6.220  0.1938 -0.3917  0.1920
  158POPC   C1B 2446   4.444   8.996   5.373 -0.0698 -0.0997  0.1853
  158POPC   C2B 2447   4.154   9.377   5.536 -0.0658 -0.0107 -0.1641
  158POPC   C3B 2448   4.172   9.865   5.461  0.1242 -0.0886  0.1805
  158POPC   C4B 2449   4.137  10.349   5.386 -0.0480 -0.3494 -0.0553
  159POPC   NC3 2450   2.627   2.582   4.838 -0.0522 -0.3196 -0.0115
  159POPC   PO4 2451   2.150   2.385   4.826 -0.1068  0.3259 -0.1000
  159POPC   GL1 2452   2.014   2.170   5.182  0.1405  0.1481 -0.0591
  159POPC   GL2 2453   1.719   1.983   5.239  0.1334  0.0274  0.2835
  159POPC   C1A 2454   2.084   2.028   5.673 -0.1069  0.0949 -0.1451
  159POPC   D2A 2455   1.922   1.835   6.021  0.1038 -0.1608  0.1898
  159POPC   C3A 2456   1.878   2.065   6.408 -0.2290 -0.0702  0.0405
  159POPC   C4A 2457   1.818   1.928   6.837 -0.0925 -0.2634  0.0930
  159POPC   C1B 2458   1.532   2.042   5.642 -0.0173  0.2128 -0.0403
  159POPC   C2B 2459   1.477   1.965   6.107  0.0685  0.0785 -0.0013
  159POPC   C3B 2460   1.369   1.998   6.528  0.1395  0.0101 -0.0623
  159POPC   C4B 2461   1.355   2.077   7.033  0.2755  0.0099 -0.0428
  160POPC   NC3 2462   1.250   7.347   3.750  0.5509  0.0847  0.0122
  160POPC   PO4 2463   1.395   7.058   4.068  0.1359  0.0369  0.1297
  160POPC   GL1 2464   1.619   7.243   4.391  0.0500  0.2207  0.3514
  160POPC   GL2 2465   1.420   7.427   4.609 -0.1637  0.1615 -0.1739
  160POPC   C1A 2466   2.006   7.410   4.745  0.0062  0.2286  0.0333
  160POPC   D2A 2467   1.915   7.776   5.136 -0.0616  0.1198 -0.2109
  160POPC   C3A 2468   2.200   7.885   5.383  0.1667 -0.2057  0.2165
  160POPC   C4A 2469   2.551   7.816   5.350  0.0802  0.2076 -0.0359
  160POPC   C1B 2470   1.355   7.516   5.061  0.0804 -0.1113 -0.3438
  160POPC   C2B 2471   1.185   7.732   5.346 -0.1883 -0.1097 -0.0623
  160POPC   C3B 2472   1.149   8.025   5.554  0.0889  0.1656 -0.1214
  160POPC   C4B 2473   0.999   8.413   5.730 -0.2321  0.1247  0.2068
  161POPC   NC3 2474   2.189   3.326   5.094 -0.2220  0.0023 -0.0917
  161POPC   PO4 2475   2.420   3.737   5.099  0.0024 -0.1819 -0.1938
  161POPC   GL1 2476   2.207   3.701   5.517 -0.1152  0.2266 -0.1104
  161POPC   GL2 2477   2.583   3.762   5.745  0.0554 -0.0993 -0.1762
  161POPC   C1A 2478   1.927   4.050   5.711 -0.1146 -0.0917 -0.1776
  161POPC   D2A 2479   2.029   4.243   6.077 -0.0420  0.0724 -0.0165
  161POPC   C3A 2480   1.976   4.206   6.551  0.1416  0.1108  0.1502
  161POPC   C4A 2481   1.591   4.326   6.708 -0.2408 -0.3490 -0.3430
  161POPC   C1B 2482   2.216   3.761   6.006 -0.2315 -0.2385 -0.0229
  161POPC   C2B 2483   2.100   3.543   6.420 -0.0475  0.0239 -0.0772
  161POPC   C3B 2484   1.853   3.211   6.681 -0.2482  0.2311 -0.0574
  161POPC   C4B 2485   1.877   2.856   6.966 -0.2059  0.0501 -0.3274
  162POPC   NC3 2486   8.621   7.409   5.202 -0.0610  0.1682 -0.0296
  162POPC   PO4 2487   8.275   7.276   4.992 -0.3066  0.0343 -0.2713
  162POPC   GL1 2488   7.998   7.181   5.417 -0.1345  0.2556  0.0389
  162POPC   GL2 2489   7.787   6.888   5.484  0.0654 -0.2005 -0.2557
  162POPC   C1A 2490   8.080   7.193   5.932  0.2680  0.1798 -0.1852
  162POPC   D2A 2491   8.372   7.424   6.301 -0.0400 -0.1857  0.1930
  162POPC   C3A 2492   8.500   7.316   6.743 -0.0416  0.1917 -0.2650
  162POPC   C4A 2493   8.531   7.326   7.296  0.0629  0.0348 -0.1699
  162POPC   C1B 2494   7.670   6.829   5.954 -0.0299  0.0980  0.1423
  162POPC   C2B 2495   7.918   6.848   6.318  0.1212 -0.0855  0.0812
  162POPC   C3B 2496   7.962   7.212   6.462  0.3599 -0.2400 -0.1281
  162POPC   C4B 2497   8.007   7.604   6.672 -0.0399 -0.0089  0.0531
  163POPC   NC3 2498   2.817   6.021   5.166  0.5176 -0.0551  0.0971
  163POPC   PO4 2499   2.445   6.178   5.007 -0.5321 -0.0171  0.1368
  163POPC   GL1 2500   2.363   6.498   5.312  0.2365 -0.1372  0.1148
  163POPC   GL2 2501   2.595   6.540   5.516  0.1242 -0.0180  0.1620
  163POPC   C1A 2502   2.192   6.900   5.558 -0.0182  0.3390  0.1280
  163POPC   D2A 2503   1.944   6.943   5.881 -0.0558  0.0930 -0.0615
  163POPC   C3A 2504   1.635   7.290   5.937 -0.3423  0.0226  0.0782
  163POPC   C4A 2505   1.322   7.654   5.836  0.1548  0.2249  0.1764
  163POPC   C1B 2506   2.615   6.746   5.862  0.0158  0.2117 -0.2637
  163POPC   C2B 2507   2.678   6.783   6.399  0.2723 -0.0313  0.0870
  163POPC   C3B 2508   2.961   6.468   6.648 -0.0031 -0.2305  0.3686
  163POPC   C4B 2509   3.309   6.387   6.854  0.3350 -0.1808 -0.2095
  164POPC   NC3 2510   8.872   5.999   4.695  0.0711 -0.2333 -0.0124
  164POPC   PO4 2511   9.024   5.884   5.141 -0.2008 -0.0131 -0.1142
  164POPC   GL1 2512   8.898   5.835   5.512 -0.1309  0.2703 -0.0560
  164POPC   GL2 2513   9.180   5.922   5.635  0.6285 -0.3003  0.0700
  164POPC   C1A 2514   8.735   5.656   5.881  0.3913  0.1710  0.0934
  164POPC   D2A 2515   8.840   5.767   6.268 -0.3561 -0.1217 -0.4497
  164POPC   C3A 2516   8.605   6.047   6.436 -0.0010 -0.3317  0.0020
  164POPC   C4A 2517   8.585   6.430   6.219  0.1430 -0.0209  0.1080
  164POPC   C1B 2518   9.010   6.206   6.005 -0.0770  0.5434  0.1187
  164POPC   C2B 2519   9.028   6.244   6.378 -0.3849  0.1357  0.0972
  164POPC   C3B 2520   8.844   6.265   6.874  0.0817 -0.1097  0.0477
  164POPC   C4B 2521   8.709   6.198   7.342  0.0336  0.0497  0.0238
  165POPC   NC3 2522   1.215   1.373   4.410  0.1438  0.1620 -0.1690
  165POPC   PO4 2523   1.019   1.645   4.677  0.3155 -0.0774  0.0374
  165POPC   GL1 2524   0.932   1.571   5.089 -0.1510  0.3410 -0.0399
  165POPC   GL2 2525   1.012   1.298   5.109 -0.4783 -0.1537  0.0582
  165POPC   C1A 2526   0.811   1.445   5.534 -0.0206  0.3600 -0.0860
  165POPC   D2A 2527   0.847   1.245   6.014 -0.2148 -0.1698  0.0860
  165POPC   C3A 2528   1.225   1.137   6.101  0.1299  0.2089  0.1195
  165POPC   C4A 2529   1.506   0.850   6.066 -0.0212  0.0407  0.3464
  165POPC   C1B 2530   0.974   1.013   5.394 -0.3224 -0.0889  0.1203
  165POPC   C2B 2531   1.002   0.751   5.799 -0.0212  0.1890  0.1344
  165POPC   C3B 2532   1.165   0.408   5.918 -0.1395 -0.1345 -0.0837
  165POPC   C4B 2533   1.461   0.213   6.144  0.1028 -0.2333  0.0701
  166POPC   NC3 2534   0.088   3.704   5.383  0.2622  0.2860 -0.3438
  166POPC   PO4 2535  -0.130   3.998   5.511  0.0038  0.0191  0.0816
  166POPC   GL1 2536  -0.183   3.685   5.752  0.0892  0.1619  0.0848
  166POPC   GL2 2537  -0.344   3.456   5.804 -0.3485 -0.0278  0.0101
  166POPC   C1A 2538  -0.226   3.758   6.163  0.1545  0.1622  0.0514
  166POPC   D2A 2539  -0.098   4.044   6.559  0.0868  0.2076  0.0588
  166POPC   C3A 2540   0.260   4.058   6.856 -0.2215 -0.1867  0.5438
  166POPC   C4A 2541   0.317   3.933   7.221  0.3120  0.1055  0.4747
  166POPC   C1B 2542  -0.069   3.140   5.986 -0.2642 -0.0092 -0.1062
  166POPC   C2B 2543   0.065   2.933   6.365 -0.0721  0.0941  0.0332
  166POPC   C3B 2544  -0.168   2.643   6.703 -0.2227 -0.0165 -0.4018
  166POPC   C4B 2545  -0.224   2.466   7.092 -0.0272  0.2258 -0.1484
  167POPC   NC3 2546   0.544   2.470   5.106  0.1590 -0.0968  0.3305
  167POPC   PO4 2547   0.622   2.864   5.031 -0.4022  0.0602 -0.1632
  167POPC   GL1 2548   0.712   2.830   5.472  0.0944 -0.0018 -0.2329
  167POPC   GL2 2549   1.057   2.847   5.628  0.0287 -0.1402 -0.2288
  167POPC   C1A 2550   0.713   2.543   5.829  0.2231 -0.2831 -0.0914
  167POPC   D2A 2551   0.595   2.603   6.281  0.1116 -0.1215 -0.0529
  167POPC   C3A 2552   0.109   2.416   6.362 -0.1571  0.0663 -0.1146
  167POPC   C4A 2553  -0.023   2.344   6.043  0.2077  0.0336 -0.1801
  167POPC   C1B 2554   1.386   2.728   6.031 -0.3319 -0.1271  0.0217
  167POPC   C2B 2555   1.488   2.481   6.337  0.1108 -0.2501  0.2480
  167POPC   C3B 2556   1.632   2.406   6.778  0.0756 -0.3893 -0.3695
  167POPC   C4B 2557   1.696   2.388   7.166 -0.2006 -0.1590 -0.0122
  168POPC   NC3 2558   8.022   4.800   5.164 -0.3674  0.0560  0.0416
  168POPC   PO4 2559   7.971   4.373   5.253 -0.2955  0.1899 -0.0425
  168POPC   GL1 2560   8.098   4.463   5.664  0.3123 -0.5537  0.5225
  168POPC   GL2 2561   8.392   4.586   5.814 -0.0771  0.1229 -0.2976
  168POPC   C1A 2562   7.900   4.578   6.065  0.3331  0.0763 -0.0237
  168POPC   D2A 2563   7.828   4.721   6.491 -0.2379  0.2073  0.0005
  168POPC   C3A 2564   8.161   4.747   6.696  0.2701  0.1246  0.1224
  168POPC   C4A 2565   8.438   4.574   6.905 -0.1088 -0.1144  0.1259
  168POPC   C1B 2566   8.356   4.867   6.132  0.2640  0.0209  0.2229
  168POPC   C2B 2567   8.608   4.915   6.552 -0.4719 -0.0554 -0.1300
  168POPC   C3B 2568   8.840   5.065   6.850 -0.1123  0.0501 -0.0407
  168POPC   C4B 2569   8.905   5.314   7.187  0.0828 -0.2730  0.2429
  169POPC   NC3 2570   8.394   8.440   4.897 -0.2452  0.0658 -0.3590
  169POPC   PO4 2571   8.744   8.303   5.104  0.0096 -0.1345 -0.1061
  169POPC   GL1 2572   8.793   8.335   5.516  0.0757 -0.2909  0.1756
  169POPC   GL2 2573   9.052   8.218   5.565  0.1160  0.2357  0.1140
  169POPC   C1A 2574   8.794   8.343   6.008  0.1251 -0.0749  0.1864
  169POPC   D2A 2575   8.497   8.456   6.257 -0.0119 -0.1642 -0.2499
  169POPC   C3A 2576   8.408   8.434   6.658 -0.0854 -0.0557  0.0458
  169POPC   C4A 2577   8.514   8.310   7.050  0.2133 -0.1911 -0.1447
  169POPC   C1B 2578   9.358   8.080   5.786 -0.1384  0.1115  0.0440
  169POPC   C2B 2579   9.462   8.095   6.176  0.0429  0.0377 -0.0796
  169POPC   C3B 2580   9.660   8.246   6.549  0.1178 -0.2132 -0.0179
  169POPC   C4B 2581   9.853   8.681   6.575 -0.2072  0.0830 -0.2250
  170POPC   NC3 2582   4.424   0.462   4.588  0.3331  0.1444 -0.0618
  170POPC   PO4 2583   4.596   0.080   4.831  0.3307  0.3395  0.3258
  170POPC   GL1 2584   4.590   0.469   5.086  0.1518 -0.0809  0.0777
  170POPC   GL2 2585   4.787   0.368   5.350  0.0973  0.0014  0.1121
  170POPC   C1A 2586   4.373   0.786   5.367  0.0272  0.1853  0.2352
  170POPC   D2A 2587   4.360   1.144   5.584  0.4564 -0.1585 -0.0870
  170POPC   C3A 2588   4.223   1.097   5.912  0.0168  0.0572  0.1932
  170POPC   C4A 2589   4.053   0.793   6.217 -0.1339 -0.1975 -0.1120
  170POPC   C1B 2590   4.965   0.269   5.737 -0.0468  0.1113  0.2732
  170POPC   C2B 2591   5.057   0.326   6.199 -0.0252 -0.3784 -0.1700
  170POPC   C3B 2592   4.941   0.199   6.679  0.0889  0.2223 -0.0388
  170POPC   C4B 2593   4.695  -0.236   6.710 -0.2083 -0.2254 -0.0204
  171POPC   NC3 2594   7.388   3.210   5.188  0.4003  0.1770  0.1792
  171POPC   PO4 2595   7.376   3.628   5.072  0.0730  0.2079  0.0195
  171POPC   GL1 2596   7.385   3.499   5.587 -0.3387  0.1098  0.3315
  171POPC   GL2 2597   7.448   3.801   5.670  0.0099  0.0447  0.0368
  171POPC   C1A 2598   7.048   3.553   5.896 -0.0867  0.1585 -0.1302
  171POPC   D2A 2599   6.742   3.615   6.095 -0.0443  0.0790 -0.1832
  171POPC   C3A 2600   6.825   3.446   6.490  0.0687 -0.3208  0.2366
  171POPC   C4A 2601   6.521   3.366   6.853 -0.1876  0.0277 -0.1573
  171POPC   C1B 2602   7.576   3.739   6.108 -0.2077  0.3641 -0.0108
  171POPC   C2B 2603   7.785   3.699   6.508 -0.2359 -0.1532  0.0772
  171POPC   C3B 2604   7.833   3.861   6.904  0.0094 -0.2724 -0.2334
  171POPC   C4B 2605   7.576   3.985   7.260  0.0821  0.0641 -0.1829
  172POPC   NC3 2606   6.781   7.097   5.088 -0.1150  0.1250  0.1863
  172POPC   PO4 2607   6.555   6.702   5.058  0.1580  0.2449 -0.0461
  172POPC   GL1 2608   6.516   6.741   5.535  0.1264 -0.1355 -0.1450
  172POPC   GL2 2609   6.234   6.804   5.691  0.2167 -0.1748  0.2003
  172POPC   C1A 2610   6.709   6.796   5.881  0.0894 -0.4931 -0.0105
  172POPC   D2A 2611   6.627   6.598   6.209  0.2527  0.0785  0.0923
  172POPC   C3A 2612   6.624   6.579   6.728  0.1234  0.1283 -0.2876
  172POPC   C4A 2613   6.411   6.528   7.068  0.1007  0.1073  0.2059
  172POPC   C1B 2614   6.268   7.030   6.107 -0.0010 -0.1827  0.0594
  172POPC   C2B 2615   6.045   7.150   6.428  0.1172 -0.0708 -0.0975
  172POPC   C3B 2616   5.663   7.004   6.710 -0.0373 -0.4993  0.0411
  172POPC   C4B 2617   5.366   6.637   6.764  0.2027 -0.0107  0.1744
  173POPC   NC3 2618   5.045  10.113   4.856 -0.0802  0.2037 -0.1583
  173POPC   PO4 2619   5.320  10.447   5.005  0.2599 -0.1223  0.2494
  173POPC   GL1 2620   5.191  10.095   5.342  0.0051 -0.1427 -0.1207
  173POPC   GL2 2621   5.420   9.954   5.598  0.1006  0.1449 -0.1327
  173POPC   C1A 2622   4.785  10.012   5.444  0.0582 -0.0777 -0.0380
  173POPC   D2A 2623   4.504  10.252   5.827 -0.1054  0.3243  0.2212
  173POPC   C3A 2624   4.097  10.123   5.920  0.0065  0.0009 -0.1124
  173POPC   C4A 2625   3.831   9.775   5.860  0.0313 -0.0608  0.1229
  173POPC   C1B 2626   4.958   9.843   5.836 -0.1378  0.2888  0.2394
  173POPC   C2B 2627   4.493   9.754   5.856 -0.2081 -0.0791  0.2632
  173POPC   C3B 2628   4.375   9.683   6.241  0.0862 -0.1785  0.2282
  173POPC   C4B 2629   4.133   9.583   6.628 -0.1756 -0.0941  0.1356
  174POPC   NC3 2630   7.741   2.078   5.228 -0.0912 -0.0751  0.0598
  174POPC   PO4 2631   7.849   2.525   5.280 -0.1675  0.0744  0.2651
  174POPC   GL1 2632   7.762   2.548   5.740 -0.1923 -0.1745 -0.0053
  174POPC   GL2 2633   7.478   2.390   5.578  0.2197 -0.0448  0.0709
  174POPC   C1A 2634   7.666   2.278   6.045 -0.1211  0.0283 -0.0537
  174POPC   D2A 2635   7.588   2.018   6.437  0.1309 -0.0199  0.0312
  174POPC   C3A 2636   7.663   2.203   6.719 -0.0301  0.1297  0.1831
  174POPC   C4A 2637   7.802   2.342   7.147  0.0575  0.2166  0.0007
  174POPC   C1B 2638   7.314   2.604   5.938 -0.0848 -0.1567  0.2120
  174POPC   C2B 2639   7.450   2.616   6.376  0.1503 -0.1853  0.2709
  174POPC   C3B 2640   7.210   2.513   6.720 -0.3151  0.3093 -0.1352
  174POPC   C4B 2641   7.238   2.314   7.071  0.0840  0.1716 -0.1145
  175POPC   NC3 2642  10.027   5.679   5.276  0.0450 -0.0713  0.4834
  175POPC   PO4 2643  10.508   5.950   5.225 -0.1933  0.1728 -0.1091
  175POPC   GL1 2644  10.442   5.873   5.633 -0.1144 -0.1908  0.2981
  175POPC   GL2 2645  10.294   6.142   5.738  0.1726  0.2680  0.6014
  175POPC   C1A 2646  10.447   5.625   6.044 -0.0506 -0.4146  0.0780
  175POPC   D2A 2647  10.591   5.592   6.419  0.0196  0.1169  0.1287
  175POPC   C3A 2648  11.056   5.691   6.434  0.1828  0.0725  0.3320
  175POPC   C4A 2649  11.343   5.787   6.799 -0.1386  0.1649  0.2932
  175POPC   C1B 2650  10.469   6.107   6.163  0.1579 -0.0924  0.0658
  175POPC   C2B 2651  10.657   6.073   6.614 -0.1742  0.0665 -0.0238
  175POPC   C3B 2652  10.892   5.935   7.020  0.3382  0.0666 -0.0833
  175POPC   C4B 2653  11.349   5.945   7.252 -0.1137  0.0139 -0.0296
  176POPC   NC3 2654   4.203   9.410   3.807  0.2403  0.1752  0.1779
  176POPC   PO4 2655   3.750   9.430   3.994 -0.3186 -0.1153 -0.0367
  176POPC   GL1 2656   3.642   9.176   4.470  0.0656 -0.1704 -0.1144
  176POPC   GL2 2657   3.800   8.952   4.579  0.0596  0.1176  0.2410
  176POPC   C1A 2658   3.446   9.408   4.830  0.0644 -0.1391  0.1029
  176POPC   D2A 2659   3.196   9.634   5.088  0.3638  0.1346  0.3013
  176POPC   C3A 2660   3.210   9.455   5.537  0.0790  0.0101  0.1920
  176POPC   C4A 2661   3.642   9.270   5.668  0.1542 -0.0065 -0.0319
  176POPC   C1B 2662   3.815   8.562   4.793  0.0479  0.1221  0.2590
  176POPC   C2B 2663   3.833   8.278   5.057 -0.1247  0.3218  0.1030
  176POPC   C3B 2664   3.603   7.987   5.271 -0.0181  0.1756  0.0609
  176POPC   C4B 2665   3.408   8.125   5.686  0.3621 -0.0876  0.1127
  177POPC   NC3 2666   1.088   2.787   5.154  0.1618 -0.0275  0.2959
  177POPC   PO4 2667   1.416   2.561   5.054 -0.2390 -0.2024  0.1389
  177POPC   GL1 2668   1.410   2.486   5.529  0.1083 -0.0435  0.2176
  177POPC   GL2 2669   1.667   2.551   5.643  0.2054 -0.1910 -0.3154
  177POPC   C1A 2670   1.122   2.297   5.850 -0.0530 -0.2674 -0.0052
  177POPC   D2A 2671   1.066   2.222   6.238 -0.1964 -0.0155 -0.5404
  177POPC   C3A 2672   0.712   2.076   6.448  0.3627  0.1792  0.2337
  177POPC   C4A 2673   0.490   2.253   6.781  0.5250 -0.3011 -0.0633
  177POPC   C1B 2674   1.727   2.391   5.933  0.1360  0.1992 -0.0675
  177POPC   C2B 2675   2.107   2.370   6.151 -0.2495  0.0148  0.1800
  177POPC   C3B 2676   2.420   2.404   6.402 -0.1241 -0.1105  0.1520
  177POPC   C4B 2677   2.803   2.108   6.445  0.0161 -0.1280 -0.0209
  178POPC   NC3 2678   7.518   4.211   4.756 -0.1025 -0.0773  0.0924
  178POPC   PO4 2679   7.152   4.378   5.024  0.1978  0.1679  0.2409
  178POPC   GL1 2680   6.993   4.477   5.541 -0.0696  0.0378  0.0737
  178POPC   GL2 2681   7.232   4.777   5.832 -0.0688  0.0710  0.1668
  178POPC   C1A 2682   7.001   4.170   5.860 -0.0644  0.0221  0.1896
  178POPC   D2A 2683   6.915   4.145   6.264 -0.2050 -0.2573  0.0458
  178POPC   C3A 2684   7.111   3.852   6.439 -0.0283 -0.4224  0.1902
  178POPC   C4A 2685   7.258   3.545   6.579 -0.0192 -0.0781 -0.0475
  178POPC   C1B 2686   7.101   5.053   6.183 -0.0353 -0.4089 -0.0509
  178POPC   C2B 2687   7.348   5.498   6.291  0.1933  0.0302  0.0021
  178POPC   C3B 2688   7.176   5.900   6.422 -0.3072 -0.1940 -0.3423
  178POPC   C4B 2689   6.914   6.223   6.475 -0.1685  0.2852 -0.0432
  179POPC   NC3 2690   0.555   5.842   4.799  0.0640  0.0298 -0.4480
  179POPC   PO4 2691   0.947   5.838   4.881  0.1003  0.0140 -0.0964
  179POPC   GL1 2692   1.175   5.810   5.301 -0.0533  0.2727  0.0658
  179POPC   GL2 2693   0.926   5.618   5.549 -0.1955  0.2535 -0.0182
  179POPC   C1A 2694   1.252   6.106   5.650  0.1420  0.0666  0.2651
  179POPC   D2A 2695   1.193   6.080   6.076  0.0465 -0.2608 -0.0946
  179POPC   C3A 2696   1.517   5.864   6.320 -0.0942 -0.3118 -0.0127
  179POPC   C4A 2697   1.813   5.582   6.279  0.0280 -0.0560 -0.3365
  179POPC   C1B 2698   1.183   5.584   5.863 -0.0465  0.5682 -0.1150
  179POPC   C2B 2699   1.359   5.379   6.195 -0.4326  0.3037 -0.0026
  179POPC   C3B 2700   1.256   5.240   6.673 -0.0755 -0.2109 -0.1554
  179POPC   C4B 2701   1.374   5.457   7.129  0.1952 -0.0844 -0.1104
  180POPC   NC3 2702   8.880   4.109   4.963  0.2051  0.0394 -0.0159
  180POPC   PO4 2703   9.233   4.236   5.294 -0.1291 -0.1310  0.0639
  180POPC   GL1 2704   9.165   4.442   5.681 -0.4476  0.0253 -0.3106
  180POPC   GL2 2705   8.917   4.719   5.792  0.1442  0.2143  0.2788
  180POPC   C1A 2706   9.303   4.416   6.098  0.0065 -0.0585  0.2103
  180POPC   D2A 2707   9.442   4.390   6.474  0.1843  0.0590  0.2071
  180POPC   C3A 2708   9.830   4.501   6.528  0.3143  0.2711 -0.0198
  180POPC   C4A 2709  10.147   4.661   6.246  0.1892  0.0401  0.3402
  180POPC   C1B 2710   8.840   4.592   6.148 -0.1930 -0.0413  0.2239
  180POPC   C2B 2711   8.550   4.341   6.438 -0.0524  0.0107 -0.0880
  180POPC   C3B 2712   8.825   4.002   6.637 -0.0949  0.0454 -0.0089
  180POPC   C4B 2713   9.210   4.049   6.784 -0.1748 -0.5024  0.1098
  181POPC   NC3 2714   7.207   1.305   5.241  0.1687  0.0206  0.0927
  181POPC   PO4 2715   7.493   1.601   5.189 -0.0289  0.0115  0.4274
  181POPC   GL1 2716   7.393   1.719   5.607 -0.0138 -0.0829  0.1901
  181POPC   GL2 2717   7.140   1.573   5.729  0.0894  0.0291 -0.0226
  181POPC   C1A 2718   7.328   1.999   5.892 -0.0766  0.4210  0.2314
  181POPC   D2A 2719   7.143   2.136   6.305 -0.4046 -0.0436  0.1444
  181POPC   C3A 2720   7.186   1.840   6.702  0.1086 -0.1324  0.0111
  181POPC   C4A 2721   7.095   1.682   7.039 -0.0725 -0.1365 -0.0869
  181POPC   C1B 2722   6.731   1.608   5.847  0.0789 -0.4773  0.0162
  181POPC   C2B 2723   6.300   1.590   6.178  0.0522  0.1778  0.0345
  181POPC   C3B 2724   6.176   1.810   6.493  0.1387 -0.0663  0.0831
  181POPC   C4B 2725   5.925   1.722   6.919 -0.0141 -0.1526 -0.2391
  182POPC   NC3 2726   6.383   3.569   5.437  0.2761 -0.1217  0.0304
  182POPC   PO4 2727   6.008   3.244   5.416 -0.3224 -0.7008 -0.2373
  182POPC   GL1 2728   5.994   3.268   5.773  0.1223  0.0190  0.1040
  182POPC   GL2 2729   6.284   3.291   5.910 -0.2104  0.1903  0.1810
  182POPC   C1A 2730   5.934   3.208   6.201  0.0622  0.1139 -0.2059
  182POPC   D2A 2731   5.965   3.111   6.625 -0.0891 -0.2394 -0.1000
  182POPC   C3A 2732   6.054   3.460   6.913  0.3577 -0.0423 -0.1362
  182POPC   C4A 2733   5.991   3.775   7.309 -0.1156 -0.1384 -0.3585
  182POPC   C1B 2734   6.463   2.989   6.163 -0.2795 -0.3776  0.1498
  182POPC   C2B 2735   6.463   2.931   6.565  0.1282  0.0059  0.1535
  182POPC   C3B 2736   6.627   2.710   6.852  0.3402 -0.1012 -0.2888
  182POPC   C4B 2737   6.897   2.636   7.065  0.1407 -0.2824  0.0314
  183POPC   NC3 2738   5.941   9.094   5.337 -0.4046  0.1815  0.1529
  183POPC   PO4 2739   6.148   9.442   5.547  0.0622 -0.4057 -0.0311
  183POPC   GL1 2740   6.035   9.321   5.967  0.1479 -0.0845 -0.2433
  183POPC   GL2 2741   6.370   9.380   6.142  0.0351 -0.0022 -0.1423
  183POPC   C1A 2742   5.710   9.183   6.176 -0.1299 -0.1472  0.0732
  183POPC   D2A 2743   5.309   9.085   6.142 -0.2598  0.1751 -0.0365
  183POPC   C3A 2744   5.081   9.143   6.468  0.1633  0.0573 -0.1036
  183POPC   C4A 2745   5.113   8.921   6.857  0.1541 -0.1398 -0.0342
  183POPC   C1B 2746   6.172   9.270   6.492 -0.1910  0.2287  0.1310
  183POPC   C2B 2747   6.349   9.077   6.800  0.0886  0.2446  0.0473
  183POPC   C3B 2748   6.257   8.669   6.972  0.2354  0.0268  0.1038
  183POPC   C4B 2749   6.392   8.355   7.169  0.0592  0.0987  0.2613
  184POPC   NC3 2750   6.615   4.364   5.251  0.0780  0.1054  0.2741
  184POPC   PO4 2751   6.372   4.590   4.962  0.1264  0.0147 -0.0249
  184POPC   GL1 2752   6.132   4.530   5.407  0.0374  0.0349 -0.3049
  184POPC   GL2 2753   5.856   4.318   5.514 -0.3303 -0.3953  0.2196
  184POPC   C1A 2754   6.238   4.484   5.837  0.0271  0.2497 -0.1286
  184POPC   D2A 2755   6.495   4.635   6.181 -0.4236  0.2220  0.0182
  184POPC   C3A 2756   6.893   4.624   6.148 -0.0182  0.3114 -0.2080
  184POPC   C4A 2757   7.158   4.638   6.377  0.0042 -0.1434 -0.1439
  184POPC   C1B 2758   5.686   4.218   5.924 -0.2681 -0.2335  0.0260
  184POPC   C2B 2759   5.635   4.134   6.411  0.0528 -0.3628 -0.3070
  184POPC   C3B 2760   5.480   4.080   6.808 -0.0535  0.2096 -0.0443
  184POPC   C4B 2761   5.152   4.280   7.130  0.3301  0.0248 -0.1814
  185POPC   NC3 2762   8.370   1.546   5.657  0.1533 -0.2194 -0.0985
  185POPC   PO4 2763   8.431   1.113   5.612 -0.1106 -0.3502 -0.1844
  185POPC   GL1 2764   8.629   1.214   6.001  0.0174  0.1559  0.0267
  185POPC   GL2 2765   8.816   0.918   5.995 -0.1208 -0.0636 -0.4192
  185POPC   C1A 2766   8.949   1.414   6.229 -0.2150 -0.2149 -0.1203
  185POPC   D2A 2767   9.153   1.508   6.685  0.0289 -0.0242 -0.0846
  185POPC   C3A 2768   9.145   1.633   7.080  0.0001 -0.3829 -0.1150
  185POPC   C4A 2769   9.408   1.944   7.380  0.1414 -0.0947 -0.0012
  185POPC   C1B 2770   9.005   0.838   6.328  0.1479  0.2931 -0.0287
  185POPC   C2B 2771   9.040   0.945   6.718 -0.0818 -0.4028 -0.1033
  185POPC   C3B 2772   9.200   0.756   7.156  0.1582 -0.2912 -0.0948
  185POPC   C4B 2773   9.428   0.675   7.533  0.1096 -0.0271 -0.0557
  186POPC   NC3 2774   2.656   5.027   5.072  0.3906 -0.0168 -0.2932
  186POPC   PO4 2775   3.007   4.736   4.996  0.2160 -0.0411  0.1623
  186POPC   GL1 2776   2.968   4.907   5.426 -0.0594  0.0785 -0.1270
  186POPC   GL2 2777   2.993   5.234   5.415  0.0859 -0.1373  0.0311
  186POPC   C1A 2778   2.843   4.742   5.771 -0.3967  0.1440 -0.3267
  186POPC   D2A 2779   2.731   4.755   6.186 -0.0255 -0.1861  0.0978
  186POPC   C3A 2780   3.110   4.943   6.475 -0.2934 -0.2194  0.0257
  186POPC   C4A 2781   3.524   4.749   6.683  0.0393  0.1589  0.2757
  186POPC   C1B 2782   2.788   5.547   5.642 -0.0544 -0.0256  0.1788
  186POPC   C2B 2783   2.790   5.683   6.025 -0.2983 -0.2594  0.0834
  186POPC   C3B 2784   2.817   5.842   6.476 -0.1767 -0.0719 -0.3387
  186POPC   C4B 2785   2.744   6.116   6.858 -0.2131  0.1198 -0.3316
  187POPC   NC3 2786   8.246   2.792   5.416 -0.4388 -0.1284  0.3262
  187POPC   PO4 2787   8.311   3.239   5.317 -0.2217  0.1620  0.2290
  187POPC   GL1 2788   8.294   3.310   5.730 -0.1705  0.0169 -0.2745
  187POPC   GL2 2789   7.954   3.535   5.827 -0.0222 -0.1052 -0.2026
  187POPC   C1A 2790   8.576   3.370   5.981 -0.1705 -0.3600  0.0189
  187POPC   D2A 2791   8.825   3.037   6.237  0.1633 -0.0605 -0.0073
  187POPC   C3A 2792   9.051   3.108   6.581 -0.0041 -0.0744 -0.0835
  187POPC   C4A 2793   9.211   3.019   6.942 -0.0484 -0.0808 -0.0932
  187POPC   C1B 2794   8.032   3.318   6.192 -0.0690  0.2106  0.0231
  187POPC   C2B 2795   8.220   3.296   6.592  0.3394 -0.2117  0.0795
  187POPC   C3B 2796   8.198   3.423   7.043  0.0023 -0.0749 -0.2488
  187POPC   C4B 2797   8.523   3.591   7.386  0.0765 -0.0908  0.2373
  188POPC   NC3 2798   3.426   7.724   3.940  0.1678 -0.2808  0.1518
  188POPC   PO4 2799   3.565   7.465   4.346  0.2994 -0.0423 -0.3401
  188POPC   GL1 2800   3.403   7.593   4.660 -0.3474  0.2018  0.1207
  188POPC   GL2 2801   3.671   7.870   4.815 -0.0410  0.4474  0.0563
  188POPC   C1A 2802   3.165   7.765   5.034 -0.1596  0.1336  0.3062
  188POPC   D2A 2803   3.096   8.068   5.318 -0.0146 -0.2539  0.1388
  188POPC   C3A 2804   2.920   8.200   5.822 -0.0760 -0.0163  0.0150
  188POPC   C4A 2805   3.170   8.104   6.165  0.0259  0.3166 -0.1844
  188POPC   C1B 2806   3.490   8.152   4.689 -0.1331 -0.1153  0.0088
  188POPC   C2B 2807   3.268   8.397   5.024 -0.0290 -0.0851  0.3112
  188POPC   C3B 2808   3.485   8.812   5.076  0.3553 -0.0358  0.4581
  188POPC   C4B 2809   3.584   9.183   5.212  0.3397 -0.1774  0.2044
  189POPC   NC3 2810   2.003   4.961   5.100 -0.0378  0.1544  0.1621
  189POPC   PO4 2811   1.719   4.655   5.292 -0.3303  0.0661  0.0554
  189POPC   GL1 2812   1.752   4.962   5.535  0.2462  0.0145 -0.1060
  189POPC   GL2 2813   1.967   5.119   5.598  0.0153  0.0111 -0.0760
  189POPC   C1A 2814   1.774   5.063   6.053  0.1200 -0.1113 -0.1250
  189POPC   D2A 2815   1.725   5.164   6.588 -0.2212 -0.0169  0.0064
  189POPC   C3A 2816   2.061   5.193   6.872  0.2785 -0.0024 -0.0814
  189POPC   C4A 2817   2.197   5.458   7.087  0.0664 -0.2734  0.3154
  189POPC   C1B 2818   1.713   5.570   5.809  0.1912  0.1054  0.2142
  189POPC   C2B 2819   1.672   6.050   5.863 -0.0082  0.3768 -0.0710
  189POPC   C3B 2820   1.761   6.419   6.002  0.1196 -0.1613  0.0698
  189POPC   C4B 2821   1.526   6.860   6.155 -0.1853 -0.0058  0.3738
  190POPC   NC3 2822   1.206   6.030   4.488  0.1010 -0.0346 -0.0659
  190POPC   PO4 2823   1.610   6.333   4.749 -0.3606 -0.1779 -0.0449
  190POPC   GL1 2824   1.961   6.564   4.888  0.3193 -0.4795  0.1998
  190POPC   GL2 2825   1.967   6.932   4.795  0.1052  0.1080  0.1755
  190POPC   C1A 2826   1.879   6.559   5.323  0.0862 -0.0565 -0.1662
  190POPC   D2A 2827   1.511   6.511   5.577 -0.2421 -0.0302  0.0333
  190POPC   C3A 2828   1.339   6.852   5.737 -0.0328  0.0275  0.1753
  190POPC   C4A 2829   1.237   7.242   5.627 -0.0972 -0.0336 -0.0195
  190POPC   C1B 2830   2.331   6.919   5.110  0.4527 -0.1965  0.0866
  190POPC   C2B 2831   2.623   6.989   5.358  0.3971 -0.0476 -0.1636
  190POPC   C3B 2832   2.675   7.288   5.688 -0.0866  0.1164 -0.0640
  190POPC   C4B 2833   2.470   7.182   6.045  0.0861  0.0789 -0.4053
  191POPC   NC3 2834   2.309   7.421   3.876  0.1976 -0.1336  0.2199
  191POPC   PO4 2835   2.113   7.748   3.733 -0.3319 -0.2056 -0.1541
  191POPC   GL1 2836   1.991   7.897   4.150 -0.1412  0.0161  0.1825
  191POPC   GL2 2837   1.859   7.710   4.302 -0.0355  0.1433 -0.0330
  191POPC   C1A 2838   1.709   8.217   4.361  0.3112 -0.1316 -0.2150
  191POPC   D2A 2839   1.721   8.523   4.734  0.0232 -0.2553  0.0455
  191POPC   C3A 2840   1.526   8.471   5.136  0.2689 -0.0898  0.1764
  191POPC   C4A 2841   1.536   8.682   5.531  0.1135  0.0584 -0.0921
  191POPC   C1B 2842   2.188   7.919   4.660 -0.1540 -0.0823  0.1529
  191POPC   C2B 2843   2.041   8.272   5.022 -0.1148  0.0483 -0.6842
  191POPC   C3B 2844   1.938   8.703   5.290 -0.0152  0.1306  0.0491
  191POPC   C4B 2845   2.143   9.014   5.517  0.0995  0.2780  0.4045
  192POPC   NC3 2846   6.241   4.114   4.881  0.0335  0.1089 -0.0343
  192POPC   PO4 2847   6.240   4.028   5.323  0.1612 -0.0161  0.1282
  192POPC   GL1 2848   5.947   3.853   5.653 -0.0720 -0.0460 -0.3298
  192POPC   GL2 2849   5.620   3.716   5.744  0.0974 -0.1087 -0.1164
  192POPC   C1A 2850   5.981   3.728   6.155  0.2388 -0.1967 -0.0681
  192POPC   D2A 2851   6.258   3.682   6.381 -0.0863 -0.2007 -0.1589
  192POPC   C3A 2852   6.563   3.915   6.576  0.0620 -0.1519  0.2009
  192POPC   C4A 2853   6.957   4.232   6.760 -0.0413  0.1870  0.0745
  192POPC   C1B 2854   5.487   3.707   6.086 -0.0283 -0.0526 -0.3216
  192POPC   C2B 2855   5.245   3.865   6.305  0.2031  0.1188  0.1676
  192POPC   C3B 2856   4.933   3.943   6.629 -0.1753 -0.0225  0.1074
  192POPC   C4B 2857   5.033   3.785   7.075 -0.2191  0.0092  0.0691
  193POPC   NC3 2858   3.937   3.282   4.585 -0.0703  0.2209  0.0944
  193POPC   PO4 2859   4.009   3.306   5.054 -0.1542 -0.4747 -0.1688
  193POPC   GL1 2860   3.784   3.213   5.357  0.0839  0.1731  0.0746
  193POPC   GL2 2861   3.844   3.251   5.640 -0.0249 -0.2422 -0.1871
  193POPC   C1A 2862   3.353   3.303   5.647  0.0627 -0.1470 -0.0672
  193POPC   D2A 2863   2.985   3.309   5.857  0.0500  0.2059  0.0475
  193POPC   C3A 2864   3.106   2.932   6.072  0.0712 -0.0943 -0.0732
  193POPC   C4A 2865   3.593   2.867   6.045  0.1166  0.0454 -0.1148
  193POPC   C1B 2866   3.947   3.219   6.051 -0.0112  0.0867 -0.0395
  193POPC   C2B 2867   3.856   3.136   6.491  0.2388 -0.0585  0.0712
  193POPC   C3B 2868   3.961   2.936   6.732 -0.1507  0.2550 -0.3892
  193POPC   C4B 2869   4.266   2.718   6.972  0.1626  0.1415  0.3709
  194POPC   NC3 2870   8.360   0.468   5.008  0.3368 -0.2826 -0.2934
  194POPC   PO4 2871   8.649   0.153   5.018 -0.2848 -0.1927  0.0135
  194POPC   GL1 2872   8.872   0.167   5.466 -0.1707  0.0376  0.4713
  194POPC   GL2 2873   8.848   0.363   5.666  0.0109  0.4200 -0.0086
  194POPC   C1A 2874   8.995  -0.136   5.617  0.0324 -0.3946 -0.3048
  194POPC   D2A 2875   8.976  -0.271   6.005 -0.1038  0.1558 -0.1428
  194POPC   C3A 2876   9.109  -0.090   6.359  0.0486  0.1552  0.2074
  194POPC   C4A 2877   8.904  -0.041   6.673  0.1817 -0.2374 -0.1556
  194POPC   C1B 2878   8.781   0.345   6.023  0.1651 -0.0854  0.1901
  194POPC   C2B 2879   8.857   0.381   6.399  0.2888  0.0154 -0.0476
  194POPC   C3B 2880   9.027   0.452   6.810  0.4706  0.0624  0.1322
  194POPC   C4B 2881   9.247   0.247   7.161 -0.2770  0.2823  0.1273
  195POPC   NC3 2882   5.819   0.270   4.799  0.3000  0.1904 -0.1713
  195POPC   PO4 2883   5.792   0.481   5.044  0.0717 -0.2002 -0.1327
  195POPC   GL1 2884   5.571   0.375   5.418  0.1579  0.2311  0.3837
  195POPC   GL2 2885   5.814   0.222   5.665  0.1555  0.3283  0.1655
  195POPC   C1A 2886   5.305   0.650   5.745  0.0497  0.0529 -0.0680
  195POPC   D2A 2887   5.132   0.937   6.031  0.0065 -0.0352 -0.0233
  195POPC   C3A 2888   5.374   0.991   6.414 -0.0783  0.2986  0.0124
  195POPC   C4A 2889   5.533   1.270   6.681 -0.2511 -0.3400  0.3156
  195POPC   C1B 2890   5.637  -0.057   6.064  0.1151  0.0432 -0.2961
  195POPC   C2B 2891   5.652  -0.044   6.564 -0.0128  0.0961 -0.1510
  195POPC   C3B 2892   5.501   0.111   6.845 -0.3933  0.1554 -0.2549
  195POPC   C4B 2893   5.200   0.264   7.107 -0.0486  0.1900 -0.0204
  196POPC   NC3 2894   0.988   7.067   4.551  0.1083 -0.2406  0.0025
  196POPC   PO4 2895   0.752   6.753   4.731  0.1725 -0.2077  0.0051
  196POPC   GL1 2896   1.027   6.821   5.029 -0.1635  0.0602  0.0224
  196POPC   GL2 2897   1.417   6.940   4.852 -0.1263 -0.0167  0.1771
  196POPC   C1A 2898   1.043   6.573   5.354  0.0262 -0.2582  0.0506
  196POPC   D2A 2899   0.975   6.443   5.814 -0.3306  0.0281  0.1768
  196POPC   C3A 2900   0.941   6.754   6.288  0.2627  0.0111  0.3041
  196POPC   C4A 2901   0.890   7.134   6.591  0.3388 -0.0355  0.2486
  196POPC   C1B 2902   1.720   7.208   5.217 -0.0748  0.0864 -0.0864
  196POPC   C2B 2903   1.690   7.489   5.489  0.0365  0.2233 -0.1870
  196POPC   C3B 2904   1.774   7.817   5.819 -0.1414 -0.0254  0.0509
  196POPC   C4B 2905   2.044   8.071   6.069  0.1717  0.0460  0.2018
  197POPC   NC3 2906   1.202   4.820   5.330  0.1285  0.2527 -0.1052
  197POPC   PO4 2907   1.205   4.472   5.283 -0.0246 -0.1449 -0.1575
  197POPC   GL1 2908   1.452   4.596   5.725 -0.0314  0.1050  0.2446
  197POPC   GL2 2909   1.767   4.585   5.823  0.2157 -0.0331 -0.0187
  197POPC   C1A 2910   1.541   4.189   6.030 -0.0439  0.0604 -0.0750
  197POPC   D2A 2911   1.716   3.891   6.213 -0.0976  0.0569 -0.3481
  197POPC   C3A 2912   1.671   3.677   6.602 -0.0628 -0.1834  0.0884
  197POPC   C4A 2913   1.707   3.859   6.984  0.4141  0.0605  0.1436
  197POPC   C1B 2914   1.745   4.577   6.308  0.0585  0.0324  0.2817
  197POPC   C2B 2915   1.930   4.715   6.724  0.0511 -0.2382  0.0394
  197POPC   C3B 2916   2.170   4.495   6.959 -0.0290  0.0663 -0.0219
  197POPC   C4B 2917   2.219   4.077   6.993  0.1821  0.1068 -0.2177
  198POPC   NC3 2918   1.768   2.675   4.753  0.2223  0.1222  0.2064
  198POPC   PO4 2919   2.160   2.885   4.877 -0.2228 -0.1561  0.0964
  198POPC   GL1 2920   2.336   2.702   5.272  0.4092 -0.0262  0.0762
  198POPC   GL2 2921   2.294   3.057   5.531  0.1240  0.0473 -0.0206
  198POPC   C1A 2922   2.198   2.599   5.684 -0.0195 -0.0376 -0.1300
  198POPC   D2A 2923   2.366   2.785   5.996 -0.3961 -0.1693 -0.2221
  198POPC   C3A 2924   2.238   3.053   6.358 -0.3003  0.0154 -0.0682
  198POPC   C4A 2925   2.294   2.985   6.738  0.1324  0.0804 -0.2242
  198POPC   C1B 2926   2.373   3.280   5.913  0.1386 -0.4270 -0.3118
  198POPC   C2B 2927   2.698   3.254   6.288 -0.0840  0.2119 -0.1544
  198POPC   C3B 2928   2.585   3.486   6.590 -0.0649  0.0735 -0.1777
  198POPC   C4B 2929   2.228   3.593   6.901  0.1599 -0.4518  0.0160
  199POPC   NC3 2930   3.238   5.280   4.957 -0.0770 -0.1125 -0.2365
  199POPC   PO4 2931   3.422   4.929   5.169  0.1839 -0.1573 -0.0934
  199POPC   GL1 2932   3.449   4.731   5.557  0.2276  0.1131  0.0711
  199POPC   GL2 2933   3.592   4.772   5.806  0.1298 -0.0176  0.1120
  199POPC   C1A 2934   3.254   4.395   5.802 -0.1280 -0.1098  0.0030
  199POPC   D2A 2935   2.894   4.185   5.876 -0.4050  0.0560 -0.6249
  199POPC   C3A 2936   2.520   4.229   6.065 -0.2256  0.1615 -0.0979
  199POPC   C4A 2937   2.444   4.037   6.450  0.0849 -0.1505  0.0539
  199POPC   C1B 2938   3.263   4.927   6.017  0.0359 -0.1965  0.2913
  199POPC   C2B 2939   2.925   5.219   6.013  0.1994  0.2665 -0.1784
  199POPC   C3B 2940   2.646   5.299   6.297 -0.1012 -0.1374  0.3072
  199POPC   C4B 2941   2.194   5.052   6.395  0.4803 -0.0890  0.2027
  200POPC   NC3 2942   6.193   1.079   5.609  0.2171  0.1712 -0.1977
  200POPC   PO4 2943   6.169   0.884   5.921  0.2363 -0.0233  0.1676
  200POPC   GL1 2944   6.344   0.632   6.140  0.0276  0.0887 -0.1335
  200POPC   GL2 2945   6.205   0.290   6.034 -0.0963  0.1091  0.0601
  200POPC   C1A 2946   6.575   0.489   6.517 -0.1528  0.1203  0.5972
  200POPC   D2A 2947   6.416   0.452   6.966 -0.1465  0.5675 -0.1614
  200POPC   C3A 2948   6.061  -0.014   6.916  0.3565  0.3362 -0.0218
  200POPC   C4A 2949   5.953  -0.213   7.156  0.1328 -0.1151 -0.0611
  200POPC   C1B 2950   6.052   0.332   6.379 -0.1045  0.2088 -0.0956
  200POPC   C2B 2951   5.892   0.432   6.738  0.0516  0.0612 -0.1390
  200POPC   C3B 2952   5.656   0.477   7.181 -0.1642 -0.1398 -0.1301
  200POPC   C4B 2953   5.391   0.587   7.405  0.1226  0.2067 -0.5240
  201POPC   NC3 2954   9.471   4.034   5.643 -0.4617 -0.1221  0.0619
  201POPC   PO4 2955   9.424   3.584   5.477 -0.2788 -0.0691  0.0130
  201POPC   GL1 2956   9.239   3.522   5.845  0.0498  0.1039 -0.4458
  201POPC   GL2 2957   9.473   3.721   6.002  0.0782  0.4880 -0.2309
  201POPC   C1A 2958   9.060   3.497   6.203 -0.1442 -0.1022  0.0932
  201POPC   D2A 2959   8.742   3.514   6.443 -0.3870 -0.2031  0.0403
  201POPC   C3A 2960   8.654   3.270   6.848 -0.0263  0.2031  0.2748
  201POPC   C4A 2961   8.695   2.990   7.080  0.2056 -0.2899  0.1668
  201POPC   C1B 2962   9.558   3.406   6.241 -0.2756 -0.0635 -0.0471
  201POPC   C2B 2963   9.992   3.370   6.492 -0.1412  0.1807  0.1757
  201POPC   C3B 2964  10.254   3.110   6.787 -0.4750  0.0923 -0.4878
  201POPC   C4B 2965  10.255   2.902   7.007 -0.0247  0.2299 -0.0100
  202POPC   NC3 2966   6.611   6.152   4.971 -0.0655 -0.3142 -0.0268
  202POPC   PO4 2967   6.885   5.812   5.130 -0.0302  0.0072 -0.0434
  202POPC   GL1 2968   6.911   5.790   5.570 -0.0426  0.1680 -0.3675
  202POPC   GL2 2969   7.041   6.007   5.691 -0.4437  0.1805 -0.1374
  202POPC   C1A 2970   6.805   5.659   6.016 -0.4536 -0.2017  0.1650
  202POPC   D2A 2971   6.812   5.509   6.494 -0.1643  0.0155  0.6471
  202POPC   C3A 2972   6.604   5.644   6.898  0.1102  0.1436  0.1093
  202POPC   C4A 2973   6.446   5.999   7.275 -0.2830 -0.0118  0.1820
  202POPC   C1B 2974   7.032   6.330   6.020  0.0551 -0.1476  0.0758
  202POPC   C2B 2975   7.139   6.663   6.266 -0.0156  0.0226  0.0385
  202POPC   C3B 2976   6.901   6.928   6.554  0.0757  0.0976  0.1296
  202POPC   C4B 2977   7.086   7.117   6.900 -0.1433  0.1114 -0.1094
  203POPC   NC3 2978   0.630   4.546   5.189 -0.1595  0.1389 -0.0625
  203POPC   PO4 2979   0.721   4.133   5.374 -0.1933 -0.0862 -0.0851
  203POPC   GL1 2980   0.590   4.449   5.703 -0.0680 -0.3496 -0.1102
  203POPC   GL2 2981   0.820   4.590   5.621  0.1090 -0.1234 -0.0295
  203POPC   C1A 2982   0.416   4.467   6.154 -0.0516  0.0257 -0.0829
  203POPC   D2A 2983   0.321   4.377   6.480 -0.2408  0.2118 -0.1053
  203POPC   C3A 2984   0.245   4.646   6.712  0.1435  0.0210  0.2538
  203POPC   C4A 2985   0.082   4.677   7.060 -0.2251 -0.3750 -0.4672
  203POPC   C1B 2986   1.049   4.535   6.048 -0.0266 -0.0119  0.1266
  203POPC   C2B 2987   0.924   4.614   6.540  0.0558  0.0980  0.1875
  203POPC   C3B 2988   0.930   4.879   6.982  0.1978  0.0285 -0.3117
  203POPC   C4B 2989   1.101   5.112   7.383 -0.0959 -0.1170 -0.0454
  204POPC   NC3 2990   4.886   0.917   4.387  0.0610 -0.0272 -0.2245
  204POPC   PO4 2991   4.815   0.946   4.839 -0.3294  0.1783 -0.3613
  204POPC   GL1 2992   4.769   1.059   5.327 -0.0477 -0.2014 -0.0631
  204POPC   GL2 2993   4.812   1.394   5.493  0.1213  0.4035 -0.0245
  204POPC   C1A 2994   4.755   0.882   5.716  0.1496 -0.1780  0.0586
  204POPC   D2A 2995   4.580   0.753   6.048  0.0918  0.4126 -0.0784
  204POPC   C3A 2996   4.588   1.056   6.198  0.1613 -0.0311 -0.0411
  204POPC   C4A 2997   4.562   1.390   6.386  0.2891  0.0969 -0.1272
  204POPC   C1B 2998   4.775   1.421   5.833 -0.2879  0.0527 -0.1364
  204POPC   C2B 2999   4.903   1.673   6.145  0.3474 -0.1440 -0.1533
  204POPC   C3B 3000   5.053   2.021   6.398 -0.0270 -0.2203  0.1820
  204POPC   C4B 3001   4.867   2.470   6.483  0.1432  0.0895  0.0962
  205POPC   NC3 3002   7.174   4.871   5.205  0.0876  0.1940 -0.0578
  205POPC   PO4 3003   7.590   4.648   5.479  0.0680 -0.0092 -0.1414
  205POPC   GL1 3004   7.482   4.335   5.737 -0.0365 -0.1692 -0.0944
  205POPC   GL2 3005   7.727   4.206   5.829  0.1424  0.2171  0.0570
  205POPC   C1A 3006   7.408   4.264   6.184 -0.2408  0.0213 -0.1843
  205POPC   D2A 3007   7.580   4.179   6.533  0.0364  0.0876 -0.1019
  205POPC   C3A 3008   7.601   4.467   6.832  0.0976  0.3040  0.1854
  205POPC   C4A 3009   7.372   4.855   6.972 -0.4464 -0.1969 -0.1703
  205POPC   C1B 3010   8.013   4.135   6.230  0.3004 -0.1098 -0.0718
  205POPC   C2B 3011   8.039   4.248   6.618  0.0450 -0.2325  0.1230
  205POPC   C3B 3012   7.964   4.297   7.106 -0.0928 -0.1588 -0.0004
  205POPC   C4B 3013   7.736   4.460   7.443  0.0209  0.2652  0.2303
  206POPC   NC3 3014   7.279   5.554   5.272 -0.2799  0.0605 -0.0789
  206POPC   PO4 3015   7.636   5.177   5.150 -0.1379  0.1020  0.2051
  206POPC   GL1 3016   7.669   5.370   5.540  0.1225  0.1425  0.2888
  206POPC   GL2 3017   7.521   5.188   5.733  0.1079 -0.0389 -0.1657
  206POPC   C1A 3018   7.794   5.527   6.021 -0.0391  0.0029  0.1385
  206POPC   D2A 3019   7.878   5.347   6.396  0.0299 -0.3983 -0.2022
  206POPC   C3A 3020   8.210   5.255   6.785  0.0769 -0.0490  0.0240
  206POPC   C4A 3021   8.293   5.385   7.174 -0.0090 -0.0851 -0.2023
  206POPC   C1B 3022   7.588   5.002   6.140 -0.1669 -0.2038 -0.1845
  206POPC   C2B 3023   7.466   5.054   6.533  0.0001 -0.3210  0.2722
  206POPC   C3B 3024   7.179   5.236   6.744  0.2688  0.1971  0.1168
  206POPC   C4B 3025   6.999   5.208   7.123  0.0571  0.1096 -0.2746
  207POPC   NC3 3026   5.762   6.239   5.539 -0.1549  0.0730 -0.1060
  207POPC   PO4 3027   5.470   6.614   5.506 -0.0911  0.0362  0.1132
  207POPC   GL1 3028   5.484   6.730   5.954  0.0808  0.5398  0.1507
  207POPC   GL2 3029   5.747   6.927   6.019 -0.0614 -0.0972 -0.0195
  207POPC   C1A 3030   5.671   6.608   6.353 -0.4221 -0.1552  0.1919
  207POPC   D2A 3031   5.818   6.525   6.810  0.0999  0.2012 -0.0463
  207POPC   C3A 3032   5.829   6.746   7.128 -0.0017  0.0926  0.2055
  207POPC   C4A 3033   5.643   6.661   7.595  0.1741  0.0044 -0.3238
  207POPC   C1B 3034   5.607   7.237   6.161 -0.0520  0.1549 -0.1377
  207POPC   C2B 3035   5.296   7.544   6.301  0.2387 -0.1264 -0.1242
  207POPC   C3B 3036   5.175   7.678   6.748  0.1044 -0.2166  0.0252
  207POPC   C4B 3037   5.151   7.808   7.190 -0.1056  0.2621 -0.0341
  208POPC   NC3 3038   6.787   8.868   4.813 -0.0106  0.1776  0.0554
  208POPC   PO4 3039   6.917   8.505   5.078 -0.1275 -0.1609 -0.2551
  208POPC   GL1 3040   6.968   8.421   5.536  0.2317  0.1349  0.0179
  208POPC   GL2 3041   6.809   8.554   5.816  0.1612  0.0765  0.0900
  208POPC   C1A 3042   7.013   8.162   5.946  0.0962 -0.2160 -0.1572
  208POPC   D2A 3043   7.287   8.276   6.166  0.2846 -0.1236  0.0743
  208POPC   C3A 3044   7.732   8.184   6.054  0.0085 -0.0697 -0.1048
  208POPC   C4A 3045   8.264   8.241   5.907 -0.0985 -0.1767 -0.2457
  208POPC   C1B 3046   6.786   8.516   6.228  0.3669  0.1426  0.0410
  208POPC   C2B 3047   6.981   8.424   6.582 -0.2548 -0.2292  0.0786
  208POPC   C3B 3048   7.355   8.188   6.642 -0.1293 -0.3801 -0.1271
  208POPC   C4B 3049   7.733   8.048   6.654  0.0595  0.2495 -0.0616
  209POPC   NC3 3050   9.406   2.676   5.638 -0.0830 -0.2205  0.4006
  209POPC   PO4 3051   9.383   2.258   5.571  0.0091 -0.2746  0.1733
  209POPC   GL1 3052   9.102   2.224   5.797  0.1182 -0.0324 -0.2324
  209POPC   GL2 3053   9.166   2.560   6.069 -0.2168 -0.4537  0.1888
  209POPC   C1A 3054   8.871   1.885   6.038  0.1038 -0.1618 -0.0162
  209POPC   D2A 3055   8.574   1.694   6.462 -0.0577 -0.1240 -0.1251
  209POPC   C3A 3056   8.650   1.819   6.904 -0.3400 -0.0718 -0.2741
  209POPC   C4A 3057   9.084   2.131   7.010  0.0082  0.2932 -0.2432
  209POPC   C1B 3058   9.197   2.194   6.422  0.0189  0.3143 -0.0777
  209POPC   C2B 3059   9.490   1.833   6.528 -0.2193  0.2325 -0.0513
  209POPC   C3B 3060   9.691   1.598   6.947  0.3145  0.0638  0.0296
  209POPC   C4B 3061  10.143   1.511   7.209  0.0404  0.0261  0.1745
  210POPC   NC3 3062   4.225   0.061   3.852  0.1897  0.2242  0.0112
  210POPC   PO4 3063   4.103   0.485   4.100 -0.4244 -0.1391  0.3437
  210POPC   GL1 3064   3.969   0.286   4.373  0.4484  0.2467 -0.1732
  210POPC   GL2 3065   3.790   0.095   4.235 -0.0833 -0.1527 -0.1410
  210POPC   C1A 3066   3.885  -0.036   4.725  0.2771 -0.2064 -0.3321
  210POPC   D2A 3067   3.690  -0.231   4.955 -0.0345 -0.0899  0.1639
  210POPC   C3A 3068   3.702  -0.030   5.248 -0.2172  0.5294 -0.0107
  210POPC   C4A 3069   3.685   0.068   5.667 -0.2395  0.1123  0.0008
  210POPC   C1B 3070   3.393   0.032   4.583 -0.2527  0.2723 -0.0813
  210POPC   C2B 3071   3.022   0.011   4.575 -0.1846  0.2121  0.1969
  210POPC   C3B 3072   2.806   0.262   4.896 -0.0943 -0.0619  0.3793
  210POPC   C4B 3073   2.710   0.533   5.249 -0.3519  0.2788  0.1368
  211POPC   NC3 3074   4.883   6.385   4.817 -0.0997  0.1753  0.2779
  211POPC   PO4 3075   4.818   6.050   4.980 -0.0735 -0.1401  0.0216
  211POPC   GL1 3076   4.498   6.064   5.301  0.1112  0.3129 -0.0540
  211POPC   GL2 3077   4.499   6.345   5.349 -0.1073 -0.2847  0.1266
  211POPC   C1A 3078   4.412   5.910   5.707 -0.0338 -0.1962  0.1004
  211POPC   D2A 3079   4.145   6.027   5.941  0.1756 -0.3014  0.0733
  211POPC   C3A 3080   4.113   6.400   6.201 -0.2379  0.2503  0.1027
  211POPC   C4A 3081   4.106   6.569   6.573  0.1130  0.0381 -0.5604
  211POPC   C1B 3082   4.873   6.262   5.622  0.4061  0.0745  0.0761
  211POPC   C2B 3083   5.097   6.324   6.070 -0.2055  0.2037  0.2649
  211POPC   C3B 3084   5.256   6.402   6.346 -0.1812  0.1547  0.1487
  211POPC   C4B 3085   5.592   6.148   6.528 -0.3028  0.3731  0.3477
  212POPC   NC3 3086   3.499   1.558   4.178 -0.1866  0.0263  0.2888
  212POPC   PO4 3087   3.329   1.255   4.530  0.2211 -0.1802  0.3294
  212POPC   GL1 3088   2.994   1.020   4.828  0.1059  0.2071  0.1197
  212POPC   GL2 3089   2.703   0.987   5.014  0.1777 -0.1318 -0.0357
  212POPC   C1A 3090   3.199   0.718   5.056 -0.0424 -0.2535 -0.0427
  212POPC   D2A 3091   3.254   0.297   5.141 -0.0460  0.0970  0.1357
  212POPC   C3A 3092   2.862   0.132   5.375  0.0423  0.2368 -0.0438
  212POPC   C4A 3093   2.736  -0.092   5.693 -0.2222 -0.3544  0.2298
  212POPC   C1B 3094   2.885   0.979   5.364 -0.1515  0.0156 -0.2177
  212POPC   C2B 3095   2.850   0.810   5.684  0.0373  0.1363  0.1319
  212POPC   C3B 3096   2.766   0.574   6.009  0.0168 -0.1347 -0.0884
  212POPC   C4B 3097   2.546   0.236   6.055  0.0154 -0.0057 -0.3822
  213POPC   NC3 3098   6.964   6.695   5.320  0.1793 -0.1616 -0.2888
  213POPC   PO4 3099   6.815   6.336   5.366  0.0594  0.0216 -0.0525
  213POPC   GL1 3100   6.569   6.246   5.775 -0.1488  0.1115 -0.2500
  213POPC   GL2 3101   6.227   6.256   5.794 -0.2713 -0.2004  0.0138
  213POPC   C1A 3102   6.469   6.053   6.171  0.0216  0.1095  0.1827
  213POPC   D2A 3103   6.304   5.615   6.346 -0.3009 -0.2957 -0.4225
  213POPC   C3A 3104   6.296   5.350   6.664  0.1788  0.1934  0.1998
  213POPC   C4A 3105   6.529   5.102   6.936  0.0139 -0.0251 -0.0961
  213POPC   C1B 3106   6.033   6.531   6.047  0.1327 -0.1278  0.5999
  213POPC   C2B 3107   6.188   6.707   6.446  0.1249 -0.1548  0.3562
  213POPC   C3B 3108   6.240   6.903   6.756 -0.1508  0.0461 -0.1211
  213POPC   C4B 3109   6.011   7.237   7.026 -0.1276 -0.0461 -0.2474
  214POPC   NC3 3110   9.610   7.699   4.430  0.0110 -0.2115 -0.2220
  214POPC   PO4 3111   9.998   7.532   4.591  0.2055  0.0924 -0.1676
  214POPC   GL1 3112  10.212   7.866   4.888  0.0764 -0.1864  0.0998
  214POPC   GL2 3113  10.405   7.676   5.047  0.2566  0.0997  0.1918
  214POPC   C1A 3114  10.404   8.162   5.107 -0.1037  0.0599  0.3692
  214POPC   D2A 3115  10.649   8.570   4.995 -0.1259 -0.0320 -0.0531
  214POPC   C3A 3116  10.553   8.648   4.666  0.1245  0.0483 -0.0071
  214POPC   C4A 3117  10.520   9.042   4.466 -0.1118 -0.0021 -0.1987
  214POPC   C1B 3118  10.509   7.801   5.408 -0.3081 -0.1299  0.4966
  214POPC   C2B 3119  10.882   7.779   5.592 -0.2860  0.1557 -0.2780
  214POPC   C3B 3120  11.022   7.387   5.845  0.0185 -0.0412  0.0311
  214POPC   C4B 3121  11.307   7.177   6.161  0.1249 -0.1527  0.0566
  215POPC   NC3 3122   8.564   6.706   4.686 -0.4143  0.1859  0.0074
  215POPC   PO4 3123   8.672   6.899   5.050 -0.1057 -0.0796  0.0978
  215POPC   GL1 3124   8.478   6.922   5.451 -0.1238  0.3605  0.0973
  215POPC   GL2 3125   8.510   7.271   5.683  0.1586  0.2673 -0.1141
  215POPC   C1A 3126   8.423   6.811   5.852 -0.1809  0.0527 -0.0498
  215POPC   D2A 3127   8.573   6.976   6.216 -0.3118 -0.0460  0.0870
  215POPC   C3A 3128   8.406   6.906   6.520 -0.1720 -0.1898  0.0827
  215POPC   C4A 3129   8.141   7.036   6.946 -0.0754  0.1279  0.0285
  215POPC   C1B 3130   8.751   7.384   5.915  0.1175 -0.3630  0.0784
  215POPC   C2B 3131   8.866   7.460   6.384  0.0883 -0.1807  0.1736
  215POPC   C3B 3132   9.116   7.235   6.595  0.1927  0.2194 -0.3472
  215POPC   C4B 3133   9.067   7.142   7.072  0.0192 -0.2624  0.1650
  216POPC   NC3 3134   2.810   3.972   5.289  0.1274 -0.1141 -0.0759
  216POPC   PO4 3135   3.088   3.764   5.292  0.4384  0.1542  0.4110
  216POPC   GL1 3136   3.086   3.808   5.735 -0.1772 -0.0650  0.0956
  216POPC   GL2 3137   3.467   3.792   5.734  0.2427 -0.1468 -0.0974
  216POPC   C1A 3138   2.878   3.717   6.180  0.4043  0.0540  0.1049
  216POPC   D2A 3139   3.019   3.819   6.622 -0.1435 -0.1363 -0.1290
  216POPC   C3A 3140   3.303   4.173   6.722  0.1821 -0.1538 -0.2295
  216POPC   C4A 3141   3.683   4.382   6.957 -0.2734 -0.1021  0.1979
  216POPC   C1B 3142   3.401   3.550   6.100 -0.1328 -0.1445 -0.0834
  216POPC   C2B 3143   3.154   3.337   6.355  0.1215  0.3027  0.0705
  216POPC   C3B 3144   3.039   3.205   6.712 -0.2341 -0.3425 -0.2415
  216POPC   C4B 3145   3.153   3.304   7.080  0.1774 -0.4251  0.0819
  217POPC   NC3 3146   5.374   7.467   5.027 -0.0824 -0.3310 -0.2969
  217POPC   PO4 3147   5.086   7.124   4.913 -0.0098 -0.0241  0.0254
  217POPC   GL1 3148   4.905   7.256   5.353  0.1324  0.0376 -0.0316
  217POPC   GL2 3149   5.143   7.365   5.472 -0.0007 -0.2061 -0.2760
  217POPC   C1A 3150   4.826   7.582   5.764  0.2382 -0.1814  0.3545
  217POPC   D2A 3151   4.928   7.754   6.065  0.1976 -0.0203  0.0682
  217POPC   C3A 3152   4.706   7.686   6.518 -0.0388 -0.0057 -0.1349
  217POPC   C4A 3153   4.327   7.623   6.727  0.2702 -0.1265  0.1009
  217POPC   C1B 3154   5.141   7.219   5.862 -0.2669  0.3120 -0.0665
  217POPC   C2B 3155   4.865   7.259   6.311 -0.1337  0.1326  0.0476
  217POPC   C3B 3156   4.653   7.283   6.757 -0.1404  0.0756  0.2496
  217POPC   C4B 3157   4.448   7.282   7.182  0.1706 -0.2104  0.0161
  218POPC   NC3 3158   9.719   4.121   5.151  0.1575 -0.2560  0.1765
  218POPC   PO4 3159   9.990   4.407   5.238  0.2936 -0.0076  0.3004
  218POPC   GL1 3160   9.718   4.460   5.593  0.1613 -0.3903 -0.0880
  218POPC   GL2 3161   9.532   4.805   5.602 -0.3477  0.1447 -0.1960
  218POPC   C1A 3162   9.723   4.726   6.046  0.6130 -0.1753 -0.1356
  218POPC   D2A 3163   9.592   4.972   6.382 -0.2915 -0.0208  0.0551
  218POPC   C3A 3164   9.405   4.864   6.799  0.4800 -0.0760  0.0323
  218POPC   C4A 3165   9.362   4.525   7.129 -0.0797  0.0492  0.2184
  218POPC   C1B 3166   9.773   5.218   5.812 -0.1255  0.3416  0.2189
  218POPC   C2B 3167  10.052   5.256   6.003 -0.0378  0.1311 -0.0859
  218POPC   C3B 3168  10.097   5.393   6.360 -0.2324 -0.0228 -0.1136
  218POPC   C4B 3169  10.211   5.501   6.764  0.1512  0.3501 -0.1622
  219POPC   NC3 3170   6.497   5.960   5.386  0.0419 -0.0490 -0.1728
  219POPC   PO4 3171   6.051   5.805   5.350 -0.2738 -0.1014 -0.1726
  219POPC   GL1 3172   5.961   5.817   5.731 -0.0175 -0.0772  0.0319
  219POPC   GL2 3173   5.667   5.652   5.789  0.0736 -0.0822  0.0256
  219POPC   C1A 3174   6.003   5.953   6.152 -0.2803  0.0701 -0.1482
  219POPC   D2A 3175   6.159   6.219   6.476  0.2745 -0.2045  0.0264
  219POPC   C3A 3176   6.418   6.118   6.700 -0.1402 -0.0426  0.1285
  219POPC   C4A 3177   6.801   6.127   6.976 -0.1418 -0.0932  0.0347
  219POPC   C1B 3178   5.598   5.727   6.255 -0.0384 -0.1334 -0.0684
  219POPC   C2B 3179   5.249   5.820   6.377  0.1280 -0.0312  0.2976
  219POPC   C3B 3180   4.967   6.001   6.530 -0.1149 -0.0771  0.2821
  219POPC   C4B 3181   4.693   5.962   6.923 -0.1880 -0.1351  0.0218
  220POPC   NC3 3182   5.931   9.477   4.487 -0.0574 -0.0216  0.0651
  220POPC   PO4 3183   5.615   9.555   4.850  0.1062  0.1305 -0.0864
  220POPC   GL1 3184   5.519   9.523   5.353  0.0893 -0.0626  0.4232
  220POPC   GL2 3185   5.205   9.540   5.344  0.2253  0.2424  0.0634
  220POPC   C1A 3186   5.535   9.539   5.830  0.2447  0.1279 -0.2092
  220POPC   D2A 3187   5.379   9.551   6.237 -0.5640  0.2267 -0.1159
  220POPC   C3A 3188   5.179   9.928   6.309  0.2798 -0.0860 -0.2201
  220POPC   C4A 3189   4.792  10.114   6.261  0.0780  0.3151 -0.0018
  220POPC   C1B 3190   4.684   9.439   5.403 -0.2484  0.1934 -0.1161
  220POPC   C2B 3191   4.550   9.202   5.850  0.2615 -0.1626  0.2884
  220POPC   C3B 3192   4.395   9.156   6.239 -0.3233  0.1672  0.1577
  220POPC   C4B 3193   4.296   9.101   6.665 -0.1010 -0.0035  0.0406
  221POPC   NC3 3194   4.228   1.352   5.091  0.1635 -0.1288 -0.4044
  221POPC   PO4 3195   4.598   1.544   5.058 -0.0726 -0.0166 -0.3120
  221POPC   GL1 3196   4.384   1.695   5.509 -0.0791  0.0954 -0.0071
  221POPC   GL2 3197   4.471   1.864   5.813 -0.0186 -0.0672 -0.2775
  221POPC   C1A 3198   4.050   1.482   5.741  0.0520  0.0062  0.1767
  221POPC   D2A 3199   3.651   1.179   5.940  0.0828  0.3676 -0.0690
  221POPC   C3A 3200   3.588   1.172   6.435 -0.1103 -0.2136 -0.0194
  221POPC   C4A 3201   3.298   1.148   6.711  0.1458  0.2573 -0.1772
  221POPC   C1B 3202   4.249   1.689   6.140  0.1302  0.0600 -0.1535
  221POPC   C2B 3203   4.162   1.615   6.735  0.1810 -0.0647  0.2067
  221POPC   C3B 3204   4.131   1.378   7.186  0.0042 -0.1746 -0.0145
  221POPC   C4B 3205   4.028   1.051   7.415  0.1866  0.1425  0.1195
  222POPC   NC3 3206   7.992   0.875   5.442 -0.1330 -0.1417  0.1276
  222POPC   PO4 3207   8.003   1.298   5.277 -0.1897  0.0841  0.0816
  222POPC   GL1 3208   7.857   1.400   5.671  0.0285  0.1201 -0.0621
  222POPC   GL2 3209   8.018   1.230   5.873  0.1783 -0.2412  0.2330
  222POPC   C1A 3210   7.520   1.448   6.014 -0.0658 -0.1385  0.3106
  222POPC   D2A 3211   7.297   1.692   6.222 -0.1247  0.2203  0.0306
  222POPC   C3A 3212   6.908   1.693   6.303 -0.0227  0.1710 -0.0311
  222POPC   C4A 3213   6.607   1.972   6.200  0.0668  0.1849  0.0888
  222POPC   C1B 3214   8.248   1.050   6.192  0.2102  0.4104  0.0425
  222POPC   C2B 3215   8.635   1.139   6.533  0.2210 -0.0059  0.0346
  222POPC   C3B 3216   8.773   1.303   6.920  0.1470 -0.0370 -0.1694
  222POPC   C4B 3217   8.656   1.461   7.261  0.0764 -0.1155  0.0879
  223POPC   NC3 3218   9.273   3.306   5.090  0.0414 -0.0836  0.2432
  223POPC   PO4 3219   9.594   3.122   5.436 -0.0985  0.2312 -0.0984
  223POPC   GL1 3220   9.597   3.027   5.898 -0.0841  0.1977 -0.1956
  223POPC   GL2 3221   9.789   2.773   5.979  0.1293  0.0284 -0.2297
  223POPC   C1A 3222   9.340   2.928   6.275 -0.0995 -0.1582  0.1740
  223POPC   D2A 3223   8.993   2.656   6.498  0.0233 -0.0513  0.1222
  223POPC   C3A 3224   9.172   2.530   6.753  0.1320 -0.2714 -0.0354
  223POPC   C4A 3225   9.426   2.603   7.124 -0.0139 -0.2989 -0.2093
  223POPC   C1B 3226   9.647   2.438   6.276  0.0898 -0.2559  0.2308
  223POPC   C2B 3227   9.627   2.308   6.640 -0.0371  0.1910  0.0619
  223POPC   C3B 3228   9.599   2.082   6.964 -0.1666 -0.1428 -0.0990
  223POPC   C4B 3229   9.897   1.998   7.300  0.0978  0.1959  0.0791
  224POPC   NC3 3230   0.090   2.715   4.833 -0.2407  0.2800  0.0220
  224POPC   PO4 3231   0.044   2.389   5.116  0.1127 -0.2588  0.3481
  224POPC   GL1 3232   0.315   2.133   5.354  0.0768  0.1082 -0.0391
  224POPC   GL2 3233   0.357   2.249   5.614 -0.0598 -0.2026 -0.2181
  224POPC   C1A 3234   0.548   1.832   5.488 -0.3932 -0.2313  0.1861
  224POPC   D2A 3235   0.521   1.566   5.970  0.0275 -0.3155  0.2589
  224POPC   C3A 3236   0.666   1.581   6.360  0.0588 -0.0712  0.2413
  224POPC   C4A 3237   0.894   1.712   6.706 -0.0212  0.1744 -0.0894
  224POPC   C1B 3238   0.563   2.076   5.978  0.2739 -0.1273  0.2630
  224POPC   C2B 3239   0.924   1.868   5.937 -0.0819  0.0231 -0.0210
  224POPC   C3B 3240   1.163   1.616   6.234 -0.0075  0.2854  0.0541
  224POPC   C4B 3241   1.207   1.348   6.497 -0.0795 -0.3874 -0.1879
  225POPC   NC3 3242   9.890   4.904   5.200 -0.0402 -0.1393 -0.0224
  225POPC   PO4 3243  10.251   5.254   5.156 -0.0080  0.0658  0.1652
  225POPC   GL1 3244  10.426   5.316   5.617 -0.2252  0.1183  0.0847
  225POPC   GL2 3245  10.726   5.390   5.764 -0.2437 -0.1068  0.1097
  225POPC   C1A 3246  10.498   5.100   6.081 -0.0236 -0.0781 -0.0599
  225POPC   D2A 3247  10.452   5.003   6.404 -0.1423  0.0331  0.1228
  225POPC   C3A 3248  10.029   4.973   6.664  0.2948  0.3053  0.0088
  225POPC   C4A 3249   9.802   5.142   6.757  0.0788  0.0511  0.0977
  225POPC   C1B 3250  10.899   5.901   5.907  0.1332  0.0307 -0.1085
  225POPC   C2B 3251  10.954   6.305   6.285 -0.1611 -0.0939 -0.0536
  225POPC   C3B 3252  10.910   6.549   6.664  0.1062  0.3966  0.1078
  225POPC   C4B 3253  10.780   6.833   6.906 -0.1581 -0.1243  0.1724
  226POPC   NC3 3254   2.501   9.081   3.558 -0.3888  0.0734  0.2422
  226POPC   PO4 3255   2.634   9.504   3.728 -0.0979  0.0543 -0.1383
  226POPC   GL1 3256   2.471   9.172   4.087 -0.4430  0.1156 -0.1521
  226POPC   GL2 3257   2.684   9.386   4.311 -0.3058 -0.1429 -0.0623
  226POPC   C1A 3258   2.119   9.017   4.309 -0.0844 -0.3230 -0.2327
  226POPC   D2A 3259   1.892   9.023   4.616 -0.0616 -0.0425 -0.2441
  226POPC   C3A 3260   1.900   9.136   5.027  0.0168 -0.1324  0.2331
  226POPC   C4A 3261   1.681   9.123   5.381 -0.0128  0.1291 -0.0747
  226POPC   C1B 3262   2.637   9.868   4.588  0.2664  0.0772  0.1768
  226POPC   C2B 3263   2.789   9.919   4.993 -0.2728  0.2053 -0.3166
  226POPC   C3B 3264   2.740   9.712   5.335 -0.0903 -0.2260 -0.2048
  226POPC   C4B 3265   2.752   9.533   5.748  0.0216 -0.0905  0.1939
  227POPC   NC3 3266   6.688  10.075   5.075 -0.0680  0.0623 -0.2335
  227POPC   PO4 3267   6.517   9.878   5.467  0.1518 -0.0849 -0.2246
  227POPC   GL1 3268   6.486   9.984   5.803  0.0991  0.3321  0.0894
  227POPC   GL2 3269   6.257   9.855   6.026 -0.4876 -0.0744  0.2146
  227POPC   C1A 3270   6.742   9.786   6.175 -0.2065 -0.0229 -0.5624
  227POPC   D2A 3271   7.029   9.816   6.531 -0.1147 -0.1998 -0.0840
  227POPC   C3A 3272   7.490   9.892   6.488 -0.0528  0.1236  0.2151
  227POPC   C4A 3273   7.940  10.040   6.732  0.0463 -0.2979  0.1317
  227POPC   C1B 3274   6.030   9.891   6.288  0.0168  0.0372  0.0298
  227POPC   C2B 3275   5.789   9.636   6.508  0.2207 -0.2086  0.0999
  227POPC   C3B 3276   5.523   9.379   6.838  0.2432 -0.1497  0.0332
  227POPC   C4B 3277   5.059   9.471   6.866  0.2470  0.1000  0.0807
  228POPC   NC3 3278   2.442   4.199   4.758  0.0560  0.0093 -0.3390
  228POPC   PO4 3279   2.611   4.465   5.150 -0.0611 -0.2633  0.1568
  228POPC   GL1 3280   2.445   4.755   5.426 -0.2282  0.1926  0.0302
  228POPC   GL2 3281   2.157   4.610   5.543  0.2469  0.0722 -0.1631
  228POPC   C1A 3282   2.502   5.130   5.761 -0.0835  0.2881 -0.0602
  228POPC   D2A 3283   2.238   5.360   5.934 -0.3026  0.2596  0.1095
  228POPC   C3A 3284   2.271   5.777   5.993  0.1890 -0.4321  0.0717
  228POPC   C4A 3285   2.000   6.046   6.216 -0.1421  0.0243 -0.1176
  228POPC   C1B 3286   2.247   4.760   6.006  0.0900 -0.0586  0.2677
  228POPC   C2B 3287   2.279   4.574   6.342 -0.2714 -0.0899  0.3167
  228POPC   C3B 3288   2.482   4.747   6.684  0.1407 -0.2801 -0.0040
  228POPC   C4B 3289   2.568   5.119   6.790  0.0850 -0.0121 -0.0965
  229POPC   NC3 3290   7.232   0.382   5.570  0.1089  0.1977  0.5810
  229POPC   PO4 3291   6.797   0.200   5.487 -0.0896 -0.1807  0.1753
  229POPC   GL1 3292   6.952   0.069   5.879  0.3967 -0.1162  0.1145
  229POPC   GL2 3293   6.709   0.195   6.117 -0.3044 -0.1662  0.1642
  229POPC   C1A 3294   7.065   0.173   6.412  0.0899 -0.0636 -0.2882
  229POPC   D2A 3295   7.036   0.433   6.766 -0.1306 -0.0080  0.0240
  229POPC   C3A 3296   6.835   0.162   7.017 -0.1874 -0.1098 -0.2625
  229POPC   C4A 3297   6.755  -0.244   6.978  0.1406 -0.1782  0.0424
  229POPC   C1B 3298   6.611  -0.031   6.491  0.0232 -0.0970  0.2450
  229POPC   C2B 3299   6.411  -0.359   6.636  0.1471  0.2263 -0.4949
  229POPC   C3B 3300   6.647  -0.692   6.564 -0.0823  0.1286  0.1859
  229POPC   C4B 3301   6.874  -0.852   6.296  0.1153  0.0095  0.0641
  230POPC   NC3 3302   7.711   9.887   4.826 -0.0441  0.0549 -0.0056
  230POPC   PO4 3303   7.766   9.965   5.305 -0.0841  0.1915  0.0502
  230POPC   GL1 3304   7.878   9.728   5.623 -0.4499  0.1316  0.0903
  230POPC   GL2 3305   8.072   9.487   5.493 -0.0202 -0.0472  0.2038
  230POPC   C1A 3306   8.142   9.787   6.031 -0.0200  0.1620 -0.1554
  230POPC   D2A 3307   8.465   9.707   6.290 -0.1680  0.0340 -0.2409
  230POPC   C3A 3308   8.436   9.901   6.739  0.1268 -0.0698  0.2868
  230POPC   C4A 3309   8.415  10.347   6.804 -0.0196  0.3879  0.2154
  230POPC   C1B 3310   8.183   9.297   5.874 -0.1124 -0.0622  0.0105
  230POPC   C2B 3311   8.373   9.220   6.303  0.2362 -0.1416 -0.1275
  230POPC   C3B 3312   8.589   8.916   6.572  0.0606 -0.1335 -0.2636
  230POPC   C4B 3313   8.871   8.583   6.788  0.0306  0.1136 -0.3381
  231POPC   NC3 3314   8.452   1.391   5.187  0.2536  0.3232  0.0602
  231POPC   PO4 3315   8.863   1.383   5.482 -0.2251 -0.0520  0.0778
  231POPC   GL1 3316   9.194   1.454   5.755 -0.2849 -0.2885 -0.0806
  231POPC   GL2 3317   9.227   1.178   5.910 -0.1510 -0.0406 -0.2601
  231POPC   C1A 3318   9.321   1.784   6.013  0.1188 -0.2637  0.0030
  231POPC   D2A 3319   9.681   2.085   5.943  0.0887 -0.1362 -0.2193
  231POPC   C3A 3320   9.983   2.023   6.346  0.2837 -0.0630 -0.2445
  231POPC   C4A 3321  10.092   2.031   6.736  0.0672  0.2141  0.1475
  231POPC   C1B 3322   9.564   1.359   6.181  0.1703 -0.0189  0.2350
  231POPC   C2B 3323   9.806   1.421   6.523 -0.0412  0.1424 -0.0416
  231POPC   C3B 3324  10.015   1.127   6.757  0.0487 -0.1677 -0.2361
  231POPC   C4B 3325  10.059   0.678   6.958 -0.3050 -0.0655  0.1398
  232POPC   NC3 3326   6.545   2.477   5.414  0.1264 -0.1760  0.3520
  232POPC   PO4 3327   6.872   2.912   5.269 -0.4220  0.1732  0.0581
  232POPC   GL1 3328   6.996   2.658   5.620  0.4775 -0.1004  0.0883
  232POPC   GL2 3329   6.899   2.926   5.815  0.1245  0.0312  0.0279
  232POPC   C1A 3330   6.800   2.423   5.950  0.0425  0.2019 -0.0444
  232POPC   D2A 3331   6.780   2.516   6.361  0.2506 -0.4658  0.1067
  232POPC   C3A 3332   6.787   2.222   6.679  0.0493  0.0226  0.2169
  232POPC   C4A 3333   6.760   2.135   7.126 -0.1495 -0.2342 -0.0047
  232POPC   C1B 3334   6.937   2.981   6.255 -0.1177 -0.0541 -0.1144
  232POPC   C2B 3335   7.035   3.032   6.675  0.0442 -0.2071  0.2146
  232POPC   C3B 3336   7.279   3.134   6.981  0.0603 -0.0833  0.3608
  232POPC   C4B 3337   7.466   3.539   7.022  0.1716 -0.0581 -0.3267
  233POPC   NC3 3338   8.506   9.377   4.770  0.3178  0.4159  0.0145
  233POPC   PO4 3339   8.625   9.686   5.038 -0.2337  0.2351  0.1477
  233POPC   GL1 3340   8.505   9.848   5.417 -0.0260  0.0279 -0.3718
  233POPC   GL2 3341   8.510   9.635   5.686  0.0380 -0.1131  0.1449
  233POPC   C1A 3342   8.534  10.130   5.829  0.0478 -0.2569 -0.0841
  233POPC   D2A 3343   8.335  10.350   6.297 -0.1954  0.1321 -0.0835
  233POPC   C3A 3344   7.920  10.715   6.413  0.1084 -0.1148 -0.0646
  233POPC   C4A 3345   7.847  11.127   6.736 -0.3382  0.1988  0.2421
  233POPC   C1B 3346   8.730   9.435   5.981 -0.2452 -0.0438 -0.1039
  233POPC   C2B 3347   8.871   9.453   6.334 -0.1151  0.1451  0.1670
  233POPC   C3B 3348   8.709   9.501   6.743 -0.3878  0.1039 -0.1575
  233POPC   C4B 3349   9.038   9.552   7.111  0.2595 -0.0363  0.0388
  234POPC   NC3 3350   4.633   7.882   4.789  0.0376  0.1912  0.1918
  234POPC   PO4 3351   4.954   7.705   5.049  0.2436 -0.0032  0.0809
  234POPC   GL1 3352   4.760   7.889   5.388  0.5463 -0.4227  0.2403
  234POPC   GL2 3353   4.447   7.948   5.312  0.1724 -0.1125  0.1638
  234POPC   C1A 3354   4.981   8.093   5.659  0.3310 -0.1172  0.4369
  234POPC   D2A 3355   4.900   8.438   5.997  0.1563 -0.3241 -0.2297
  234POPC   C3A 3356   5.174   8.618   6.397  0.2055  0.0336  0.3272
  234POPC   C4A 3357   5.549   8.777   6.641  0.0055  0.0699  0.1097
  234POPC   C1B 3358   4.526   8.096   5.793  0.1630 -0.1369  0.3103
  234POPC   C2B 3359   4.541   8.115   6.324 -0.0813 -0.4958 -0.0527
  234POPC   C3B 3360   4.759   8.345   6.641  0.1334  0.2698 -0.0479
  234POPC   C4B 3361   4.986   8.435   6.947 -0.0415  0.0387 -0.2162
  235POPC   NC3 3362   9.833   1.962   4.654 -0.1544  0.1416  0.0484
  235POPC   PO4 3363   9.770   1.544   4.944  0.1304  0.3037  0.0055
  235POPC   GL1 3364   9.869   1.368   5.309 -0.1582  0.0291 -0.3383
  235POPC   GL2 3365   9.966   1.098   5.278  0.0602  0.0900  0.2773
  235POPC   C1A 3366   9.941   1.352   5.780 -0.0066  0.2918 -0.1066
  235POPC   D2A 3367  10.266   1.285   6.150 -0.1704 -0.2654  0.1384
  235POPC   C3A 3368  10.557   1.150   6.439 -0.1739 -0.3929 -0.2012
  235POPC   C4A 3369  10.939   1.042   6.676  0.1080 -0.1384 -0.0405
  235POPC   C1B 3370   9.784   0.844   5.694  0.1277 -0.2418 -0.1254
  235POPC   C2B 3371   9.614   0.863   6.116 -0.3396  0.1367  0.1674
  235POPC   C3B 3372   9.580   0.971   6.578  0.1573  0.0217  0.1779
  235POPC   C4B 3373   9.431   1.161   6.951 -0.1290 -0.3906 -0.0224
  236POPC   NC3 3374   8.544   9.271   5.281 -0.2041 -0.0144  0.0767
  236POPC   PO4 3375   9.059   9.213   5.039  0.2225 -0.4159  0.0209
  236POPC   GL1 3376   9.223   9.140   5.458 -0.2234 -0.2515 -0.0564
  236POPC   GL2 3377   9.528   9.160   5.400  0.2100 -0.0429  0.3921
  236POPC   C1A 3378   9.176   9.045   5.918 -0.2981  0.1225 -0.2155
  236POPC   D2A 3379   9.304   9.116   6.384  0.0635 -0.2559  0.0323
  236POPC   C3A 3380   9.057   9.018   6.725  0.0174 -0.3608  0.1741
  236POPC   C4A 3381   8.791   9.038   7.050 -0.2216 -0.2322  0.1909
  236POPC   C1B 3382   9.960   9.007   5.428  0.0301  0.2699  0.0559
  236POPC   C2B 3383  10.216   9.225   5.661  0.3166  0.0249  0.0059
  236POPC   C3B 3384  10.470   9.121   5.988 -0.0312 -0.1513  0.0765
  236POPC   C4B 3385  10.349   8.889   6.297 -0.0632  0.0852 -0.0314
  237POPC   NC3 3386   9.007   7.883   5.056  0.2322 -0.0082  0.1868
  237POPC   PO4 3387   9.005   7.407   4.955  0.0012 -0.3323  0.0204
  237POPC   GL1 3388   9.195   7.478   5.349 -0.1857  0.3919  0.0598
  237POPC   GL2 3389   9.476   7.276   5.359 -0.0683 -0.0744  0.1512
  237POPC   C1A 3390   9.170   7.614   5.694  0.2338 -0.2180  0.1454
  237POPC   D2A 3391   9.380   7.601   6.153 -0.0827 -0.0557  0.1142
  237POPC   C3A 3392   9.207   7.783   6.502 -0.2544  0.1021  0.1801
  237POPC   C4A 3393   9.273   7.772   6.909  0.2675  0.0183  0.0270
  237POPC   C1B 3394   9.664   7.505   5.665  0.3422 -0.1400  0.0318
  237POPC   C2B 3395   9.806   7.848   5.950  0.0059 -0.2064 -0.1402
  237POPC   C3B 3396   9.947   7.905   6.280  0.1160  0.0678 -0.2283
  237POPC   C4B 3397  10.413   7.828   6.355  0.0656 -0.0452 -0.2165
  238POPC   NC3 3398   3.725   3.688   5.319 -0.0913  0.0785  0.3315
  238POPC   PO4 3399   4.171   3.612   5.502  0.0109 -0.1034  0.0153
  238POPC   GL1 3400   4.332   3.492   5.868  0.0306  0.1272 -0.0206
  238POPC   GL2 3401   4.363   3.761   6.119  0.1448 -0.0155  0.1307
  238POPC   C1A 3402   4.388   3.284   6.348 -0.0671 -0.2244  0.0544
  238POPC   D2A 3403   4.197   3.509   6.626 -0.0285 -0.0402 -0.2048
  238POPC   C3A 3404   4.195   3.411   7.067 -0.0630 -0.0578  0.1265
  238POPC   C4A 3405   4.163   3.100   7.326  0.0205  0.1265  0.5623
  238POPC   C1B 3406   4.681   3.721   6.257 -0.3149  0.3972 -0.4929
  238POPC   C2B 3407   4.695   3.426   6.714 -0.3232  0.0348  0.0130
  238POPC   C3B 3408   4.975   3.286   7.112 -0.0875 -0.0563 -0.2351
  238POPC   C4B 3409   4.822   2.992   7.423  0.0371  0.1046  0.2536
  239POPC   NC3 3410   9.018   5.412   5.069  0.1876 -0.1469 -0.1845
  239POPC   PO4 3411   8.729   5.124   5.100 -0.0789  0.1330 -0.0646
  239POPC   GL1 3412   8.727   5.278   5.502 -0.0816  0.2867 -0.4587
  239POPC   GL2 3413   8.422   5.400   5.529 -0.2320 -0.3160 -0.2017
  239POPC   C1A 3414   8.752   5.145   5.952  0.3510 -0.0368  0.2766
  239POPC   D2A 3415   8.831   5.291   6.336  0.1635  0.0495 -0.2180
  239POPC   C3A 3416   9.234   5.403   6.590 -0.0899 -0.0827 -0.1135
  239POPC   C4A 3417   9.356   5.504   6.981 -0.1044 -0.1109 -0.1336
  239POPC   C1B 3418   8.241   5.376   5.887 -0.0038 -0.2013 -0.2078
  239POPC   C2B 3419   8.350   5.363   6.300  0.1639 -0.0059  0.2156
  239POPC   C3B 3420   8.620   5.486   6.711  0.2477 -0.1901 -0.0116
  239POPC   C4B 3421   8.486   5.888   6.913 -0.0290  0.0017  0.1346
  240POPC   NC3 3422   0.134   0.037   3.907 -0.2079  0.2172 -0.3540
  240POPC   PO4 3423  -0.160   0.167   4.071 -0.0664 -0.1355 -0.3310
  240POPC   GL1 3424  -0.132   0.279   4.538  0.1463  0.0527  0.1279
  240POPC   GL2 3425   0.114   0.474   4.665 -0.1760  0.0484  0.2289
  240POPC   C1A 3426  -0.109   0.044   4.787  0.1735  0.0690 -0.2715
  240POPC   D2A 3427   0.169  -0.348   4.792 -0.1360  0.0318  0.0886
  240POPC   C3A 3428   0.490  -0.531   4.438  0.3006  0.1615  0.0440
  240POPC   C4A 3429   0.715  -0.521   4.004 -0.3655 -0.2213 -0.0621
  240POPC   C1B 3430   0.368   0.147   4.699  0.1149 -0.0658  0.0992
  240POPC   C2B 3431   0.630  -0.267   4.781  0.1908  0.0283 -0.0682
  240POPC   C3B 3432   0.857  -0.541   5.114 -0.1070  0.0786  0.0406
  240POPC   C4B 3433   1.235  -0.792   5.142  0.0963  0.0978  0.2269
  241POPC   NC3 3434   4.097   2.835   5.048 -0.5092 -0.1053 -0.1226
  241POPC   PO4 3435   3.711   2.791   4.944  0.3054  0.3394  0.0301
  241POPC   GL1 3436   3.422   2.879   5.226  0.0100 -0.0581 -0.0226
  241POPC   GL2 3437   3.164   3.105   5.214 -0.2971  0.1723  0.1102
  241POPC   C1A 3438   3.251   2.797   5.615 -0.0919  0.0713  0.1314
  241POPC   D2A 3439   3.142   2.453   5.734 -0.2458  0.2458 -0.2873
  241POPC   C3A 3440   3.092   2.074   5.553  0.1621  0.3447 -0.4020
  241POPC   C4A 3441   2.728   1.767   5.518 -0.0243 -0.1296  0.1506
  241POPC   C1B 3442   2.813   3.003   5.440  0.1941 -0.1957 -0.4747
  241POPC   C2B 3443   2.738   2.744   5.702 -0.2583  0.1443  0.2297
  241POPC   C3B 3444   2.780   2.498   6.096 -0.1475  0.0194  0.3094
  241POPC   C4B 3445   3.149   2.496   6.314  0.0389 -0.0424  0.1957
  242POPC   NC3 3446   8.946   2.330   5.167  0.1389  0.0548  0.1894
  242POPC   PO4 3447   8.930   2.598   5.477  0.0959 -0.2390 -0.0821
  242POPC   GL1 3448   8.630   2.912   5.751 -0.5046  0.1717 -0.0506
  242POPC   GL2 3449   8.598   2.591   5.822  0.1636 -0.2824 -0.0545
  242POPC   C1A 3450   8.350   2.894   6.169 -0.1267  0.0220  0.0456
  242POPC   D2A 3451   8.422   2.840   6.678 -0.0793  0.2250 -0.2246
  242POPC   C3A 3452   8.179   2.852   7.030  0.0108 -0.3600  0.0862
  242POPC   C4A 3453   8.266   3.079   7.391  0.0723  0.3728 -0.2372
  242POPC   C1B 3454   8.727   2.383   6.139 -0.0736  0.2047 -0.3187
  242POPC   C2B 3455   8.701   2.193   6.488 -0.1758  0.1703 -0.3401
  242POPC   C3B 3456   8.664   2.388   6.890  0.0980 -0.0900 -0.0382
  242POPC   C4B 3457   8.263   2.290   7.054 -0.1422  0.0167  0.0060
  243POPC   NC3 3458   3.435   1.642   4.862 -0.3154 -0.1293  0.1267
  243POPC   PO4 3459   3.941   1.785   4.988 -0.0925  0.1465  0.1301
  243POPC   GL1 3460   3.814   1.988   5.366  0.4326  0.2871  0.1466
  243POPC   GL2 3461   4.121   2.120   5.505  0.2396  0.0873  0.0272
  243POPC   C1A 3462   3.501   1.893   5.648  0.1959 -0.0938 -0.1558
  243POPC   D2A 3463   3.519   1.633   6.055 -0.1508  0.0605 -0.0026
  243POPC   C3A 3464   3.754   1.675   6.394  0.0395 -0.1004  0.0872
  243POPC   C4A 3465   4.036   1.312   6.316  0.1557  0.2584 -0.1020
  243POPC   C1B 3466   4.013   2.099   5.976  0.1854 -0.2453 -0.3726
  243POPC   C2B 3467   3.844   2.279   6.304 -0.2519  0.1907 -0.1079
  243POPC   C3B 3468   3.678   2.575   6.473 -0.0600  0.2521  0.2155
  243POPC   C4B 3469   3.429   2.868   6.621 -0.1557 -0.1686 -0.1399
  244POPC   NC3 3470   2.552   1.303   4.710  0.1792  0.1781  0.1372
  244POPC   PO4 3471   2.884   1.536   4.814 -0.3342 -0.3811  0.1995
  244POPC   GL1 3472   3.133   1.409   5.195  0.0939  0.1106  0.1557
  244POPC   GL2 3473   3.410   1.183   5.043 -0.0005 -0.1001  0.0922
  244POPC   C1A 3474   3.162   1.348   5.637  0.1069 -0.0989 -0.3460
  244POPC   D2A 3475   2.760   1.385   5.870  0.1751 -0.0667  0.5982
  244POPC   C3A 3476   2.671   1.536   6.252  0.0988 -0.3100 -0.0895
  244POPC   C4A 3477   2.783   1.728   6.715  0.0635 -0.2000 -0.1008
  244POPC   C1B 3478   3.414   0.973   5.418  0.0367 -0.0202  0.1739
  244POPC   C2B 3479   3.253   0.559   5.555  0.1720  0.3506 -0.0384
  244POPC   C3B 3480   3.224   0.144   5.759 -0.1423  0.0704 -0.0768
  244POPC   C4B 3481   3.095  -0.407   5.951 -0.3025 -0.1726 -0.2348
  245POPC   NC3 3482   3.504   2.531   4.544  0.0698  0.2111 -0.0252
  245POPC   PO4 3483   3.115   2.425   4.679  0.0281  0.4280  0.5264
  245POPC   GL1 3484   3.162   2.461   5.108 -0.2332 -0.0923  0.3697
  245POPC   GL2 3485   2.863   2.440   5.303  0.1584  0.2521 -0.1085
  245POPC   C1A 3486   3.429   2.311   5.339 -0.1539  0.1417  0.1348
  245POPC   D2A 3487   3.634   2.393   5.768  0.0672 -0.0765 -0.0199
  245POPC   C3A 3488   3.330   2.116   6.059  0.1453  0.0496  0.2306
  245POPC   C4A 3489   2.978   1.832   6.027  0.1044 -0.1515 -0.0231
  245POPC   C1B 3490   2.645   2.224   5.650  0.0049 -0.2429  0.0603
  245POPC   C2B 3491   2.468   2.061   6.084  0.2111 -0.1886  0.0173
  245POPC   C3B 3492   2.354   1.896   6.429  0.1097  0.1080 -0.0903
  245POPC   C4B 3493   2.166   1.591   6.709 -0.2478 -0.0746 -0.3480
  246POPC   NC3 3494   3.757   8.527   4.178 -0.0010 -0.4368  0.1579
  246POPC   PO4 3495   3.419   8.290   3.955  0.1641  0.2527 -0.3083
  246POPC   GL1 3496   3.219   8.127   4.279 -0.2974  0.1759  0.1729
  246POPC   GL2 3497   2.783   8.106   4.277 -0.0459 -0.1657 -0.1897
  246POPC   C1A 3498   3.043   8.027   4.667 -0.1959 -0.0098  0.0130
  246POPC   D2A 3499   2.717   7.868   4.801 -0.0970 -0.0084  0.1219
  246POPC   C3A 3500   2.578   8.220   5.060 -0.0165 -0.1020 -0.3280
  246POPC   C4A 3501   2.372   8.460   5.430 -0.1136  0.1119  0.1605
  246POPC   C1B 3502   2.744   8.378   4.618  0.0774 -0.3203  0.0938
  246POPC   C2B 3503   2.888   8.687   4.900 -0.2429 -0.1341  0.1262
  246POPC   C3B 3504   2.851   8.652   5.307  0.1128 -0.0962 -0.1445
  246POPC   C4B 3505   2.646   8.969   5.687 -0.0921  0.2223 -0.5715
  247POPC   NC3 3506   1.679   3.229   5.021 -0.1707 -0.1139 -0.2598
  247POPC   PO4 3507   1.433   3.080   5.376  0.1791 -0.2185  0.0525
  247POPC   GL1 3508   1.354   3.273   5.696 -0.0649 -0.2358  0.1491
  247POPC   GL2 3509   1.199   3.623   5.683 -0.0363 -0.2237 -0.0829
  247POPC   C1A 3510   1.266   3.205   6.013 -0.1168 -0.1165  0.0614
  247POPC   D2A 3511   0.925   3.020   6.348  0.1069  0.3428 -0.2323
  247POPC   C3A 3512   1.000   2.638   6.611  0.1234  0.1504 -0.0588
  247POPC   C4A 3513   0.978   2.343   6.923 -0.2140  0.3039 -0.1581
  247POPC   C1B 3514   1.304   3.699   6.130  0.1749  0.0299 -0.0880
  247POPC   C2B 3515   1.254   3.956   6.415  0.1741  0.1433  0.2127
  247POPC   C3B 3516   1.233   3.962   6.785 -0.0103  0.0148  0.0389
  247POPC   C4B 3517   1.177   3.831   7.243 -0.3294 -0.0543  0.3184
  248POPC   NC3 3518   7.290   0.467   4.916 -0.0294 -0.1266  0.0797
  248POPC   PO4 3519   7.477   0.763   5.248 -0.1290 -0.0334 -0.0966
  248POPC   GL1 3520   7.551   0.693   5.855 -0.1707  0.1224 -0.1486
  248POPC   GL2 3521   7.349   0.508   6.062  0.1184  0.0548 -0.0114
  248POPC   C1A 3522   7.712   0.963   6.095  0.1982 -0.1865  0.3527
  248POPC   D2A 3523   7.641   1.310   6.471 -0.0774 -0.1999  0.1079
  248POPC   C3A 3524   7.741   1.543   6.819  0.2166  0.2944 -0.1290
  248POPC   C4A 3525   7.599   1.880   7.067 -0.1431  0.1650 -0.0860
  248POPC   C1B 3526   7.407   0.733   6.434 -0.1426 -0.0709 -0.0670
  248POPC   C2B 3527   7.325   0.907   6.845  0.2331  0.0367 -0.1671
  248POPC   C3B 3528   7.138   0.802   7.144  0.0150  0.0474 -0.2707
  248POPC   C4B 3529   7.143   0.400   7.315 -0.0313 -0.0371  0.5127
  249POPC   NC3 3530   9.450   9.186   4.583 -0.0798 -0.1650 -0.1253
  249POPC   PO4 3531   9.713   9.517   4.518 -0.2773  0.1785 -0.2037
  249POPC   GL1 3532   9.856   9.506   4.874  0.0515 -0.1155 -0.2156
  249POPC   GL2 3533   9.750   9.189   4.972  0.1470  0.1895  0.5848
  249POPC   C1A 3534   9.932   9.509   5.272  0.0399 -0.1250 -0.0923
  249POPC   D2A 3535   9.766   9.426   5.744 -0.2389  0.0613  0.1852
  249POPC   C3A 3536   9.745   9.792   5.884  0.3461  0.0759  0.0455
  249POPC   C4A 3537   9.717  10.071   5.635  0.1368  0.0510 -0.0659
  249POPC   C1B 3538  10.206   9.180   4.929 -0.0747 -0.0018  0.0018
  249POPC   C2B 3539  10.416   8.955   5.229 -0.1256 -0.0084 -0.0948
  249POPC   C3B 3540  10.683   8.757   5.512  0.2891 -0.0527 -0.0672
  249POPC   C4B 3541  10.965   8.860   5.900 -0.2165  0.4295  0.1417
  250POPC   NC3 3542   8.887   4.622   5.300 -0.0025 -0.0667 -0.1018
  250POPC   PO4 3543   9.169   4.898   5.226 -0.2789 -0.4306  0.0915
  250POPC   GL1 3544   9.189   5.131   5.620  0.0727 -0.0561  0.2855
  250POPC   GL2 3545   9.188   5.473   5.566 -0.1474 -0.0160 -0.1125
  250POPC   C1A 3546   9.272   4.932   6.015  0.1156 -0.0650  0.2877
  250POPC   D2A 3547   9.090   4.894   6.446 -0.2762  0.1171  0.3236
  250POPC   C3A 3548   8.975   4.474   6.675  0.1619 -0.4675 -0.0671
  250POPC   C4A 3549   8.933   4.310   7.118  0.0820  0.0804 -0.0841
  250POPC   C1B 3550   9.200   5.450   5.983  0.2183 -0.2308 -0.1786
  250POPC   C2B 3551   9.644   5.517   6.241  0.0671  0.1074 -0.1084
  250POPC   C3B 3552   9.731   5.690   6.612 -0.0672  0.0335 -0.0396
  250POPC   C4B 3553   9.789   5.750   7.031 -0.0949  0.0334  0.0752
  251POPC   NC3 3554   9.703   8.371   5.265  0.5023 -0.1100 -0.1416
  251POPC   PO4 3555   9.289   8.295   5.137 -0.1606 -0.0792 -0.0695
  251POPC   GL1 3556   9.392   8.622   5.528 -0.0821 -0.0721 -0.1255
  251POPC   GL2 3557   9.048   8.688   5.657 -0.1693  0.0881 -0.0742
  251POPC   C1A 3558   9.670   8.853   5.821 -0.1038  0.0423 -0.2226
  251POPC   D2A 3559   9.890   8.971   6.180  0.0109 -0.3500 -0.0102
  251POPC   C3A 3560  10.037   9.437   6.193 -0.1491  0.0425 -0.2410
  251POPC   C4A 3561  10.200   9.855   6.180  0.2380 -0.2709 -0.0145
  251POPC   C1B 3562   9.294   8.535   5.998 -0.0756 -0.1423 -0.2237
  251POPC   C2B 3563   9.367   8.622   6.435 -0.0265 -0.2082 -0.1303
  251POPC   C3B 3564   9.364   8.545   6.801 -0.0443  0.0020 -0.2041
  251POPC   C4B 3565   9.451   8.285   7.023  0.1281  0.0313 -0.2149
  252POPC   NC3 3566   8.143   2.605   4.833 -0.0096  0.4095 -0.0983
  252POPC   PO4 3567   8.342   2.258   5.188 -0.0056  0.1723  0.3327
  252POPC   GL1 3568   8.182   2.243   5.567  0.2512  0.2276  0.0404
  252POPC   GL2 3569   7.909   1.963   5.718 -0.1105  0.2101  0.0708
  252POPC   C1A 3570   8.161   2.427   6.010 -0.1178  0.0429  0.2119
  252POPC   D2A 3571   8.195   2.182   6.389 -0.2357 -0.0928  0.0454
  252POPC   C3A 3572   8.101   1.939   6.692  0.1982 -0.0259 -0.3609
  252POPC   C4A 3573   8.121   1.740   7.047  0.1824 -0.0478  0.0637
  252POPC   C1B 3574   7.967   1.728   6.173  0.0014  0.0504 -0.0084
  252POPC   C2B 3575   8.105   1.505   6.508 -0.0202 -0.1406 -0.0021
  252POPC   C3B 3576   8.253   1.380   6.835 -0.0443  0.3150  0.0882
  252POPC   C4B 3577   7.984   1.192   7.189  0.1451  0.1663 -0.0626
  253POPC   NC3 3578   1.937   1.568   4.872 -0.1198 -0.2847  0.0083
  253POPC   PO4 3579   1.612   1.756   4.498 -0.3590 -0.1359 -0.2261
  253POPC   GL1 3580   1.457   1.503   4.864  0.2000 -0.1207  0.0971
  253POPC   GL2 3581   1.441   1.581   5.186  0.3094 -0.0762 -0.2446
  253POPC   C1A 3582   1.559   1.122   5.193  0.2109  0.1267 -0.4892
  253POPC   D2A 3583   1.424   1.113   5.532  0.0686 -0.1168 -0.0719
  253POPC   C3A 3584   1.234   1.547   5.689  0.0837 -0.0260 -0.1249
  253POPC   C4A 3585   1.104   1.845   5.491 -0.3247  0.0690 -0.0590
  253POPC   C1B 3586   1.687   1.554   5.538 -0.0541 -0.2217 -0.0216
  253POPC   C2B 3587   1.832   1.357   5.903 -0.0798 -0.0086  0.2343
  253POPC   C3B 3588   1.676   1.345   6.274 -0.3209 -0.1702  0.3380
  253POPC   C4B 3589   1.638   1.628   6.432 -0.1112  0.1258 -0.2462
  254POPC   NC3 3590   4.385   2.044   4.936  0.2869 -0.1597 -0.2304
  254POPC   PO4 3591   4.437   2.462   5.086  0.1602  0.2813 -0.0803
  254POPC   GL1 3592   4.244   2.681   5.498 -0.2012  0.1001 -0.0022
  254POPC   GL2 3593   3.997   2.751   5.566  0.2372  0.2956 -0.0132
  254POPC   C1A 3594   4.429   2.988   5.907 -0.0882  0.0074  0.2627
  254POPC   D2A 3595   4.767   3.239   5.917 -0.5105  0.2288 -0.2495
  254POPC   C3A 3596   4.990   3.277   6.342 -0.0419 -0.1031 -0.0191
  254POPC   C4A 3597   5.264   3.525   6.732  0.0538  0.1786  0.0105
  254POPC   C1B 3598   4.031   2.644   5.931  0.1015 -0.0512 -0.3028
  254POPC   C2B 3599   4.222   2.696   6.308  0.2977  0.1468  0.4597
  254POPC   C3B 3600   4.374   2.396   6.631  0.0179  0.3576  0.0383
  254POPC   C4B 3601   4.421   2.081   6.938 -0.2257  0.0693  0.0986
  255POPC   NC3 3602   5.650   2.936   5.578  0.2746  0.3048 -0.0432
  255POPC   PO4 3603   5.248   2.979   5.374  0.1526 -0.1831 -0.2055
  255POPC   GL1 3604   5.281   3.035   5.854 -0.2089  0.0326 -0.0008
  255POPC   GL2 3605   5.487   3.264   5.944  0.3427  0.3203 -0.1310
  255POPC   C1A 3606   5.352   2.800   6.262 -0.1171 -0.0527 -0.1998
  255POPC   D2A 3607   5.395   2.426   6.482 -0.0271 -0.0610  0.2036
  255POPC   C3A 3608   5.250   2.361   6.824 -0.0234 -0.1441  0.3282
  255POPC   C4A 3609   4.992   2.048   7.125 -0.0216 -0.0855 -0.3603
  255POPC   C1B 3610   5.535   3.285   6.431 -0.0855 -0.0430 -0.3152
  255POPC   C2B 3611   5.781   3.666   6.574  0.1984  0.0434 -0.0157
  255POPC   C3B 3612   6.030   4.030   6.743  0.2767 -0.0580  0.0813
  255POPC   C4B 3613   6.257   4.236   6.934 -0.2661 -0.2368 -0.0971
  256POPC   NC3 3614   1.401   8.303   3.754  0.0328  0.2562  0.1215
  256POPC   PO4 3615   0.909   8.353   3.819  0.3083  0.2482  0.0091
  256POPC   GL1 3616   0.990   8.189   4.186  0.2833 -0.3370 -0.0855
  256POPC   GL2 3617   1.277   8.357   4.249  0.1363  0.1349 -0.2798
  256POPC   C1A 3618   1.096   8.191   4.689 -0.0544  0.0571 -0.2823
  256POPC   D2A 3619   1.357   8.031   5.045  0.2951 -0.4703  0.1908
  256POPC   C3A 3620   1.626   8.058   5.405 -0.1157  0.1024  0.0912
  256POPC   C4A 3621   1.980   8.244   5.603  0.0254 -0.1125 -0.0862
  256POPC   C1B 3622   1.141   8.715   4.640 -0.2469  0.0764 -0.1781
  256POPC   C2B 3623   0.745   8.955   4.788 -0.4483 -0.2162  0.0832
  256POPC   C3B 3624   0.718   9.156   5.200 -0.1882 -0.1198 -0.0768
  256POPC   C4B 3625   0.684   9.260   5.678  0.1085 -0.1415 -0.2374
  257POPC   NC3 3626   7.592   8.801   4.941  0.1683 -0.1790 -0.0148
  257POPC   PO4 3627   7.638   9.350   4.996 -0.1384  0.5503 -0.2680
  257POPC   GL1 3628   7.535   9.103   5.407  0.0227  0.2115 -0.1237
  257POPC   GL2 3629   7.570   8.705   5.485 -0.1219  0.3183  0.1698
  257POPC   C1A 3630   7.663   9.057   5.799 -0.2993 -0.0251 -0.0998
  257POPC   D2A 3631   7.673   8.651   6.057 -0.3313  0.0003  0.2143
  257POPC   C3A 3632   7.925   8.525   6.347  0.0878 -0.2682  0.1900
  257POPC   C4A 3633   7.949   8.558   6.759  0.1385  0.1382 -0.2013
  257POPC   C1B 3634   7.224   8.775   5.692  0.0677  0.1308 -0.0216
  257POPC   C2B 3635   7.198   8.835   6.114  0.1347 -0.0036  0.0124
  257POPC   C3B 3636   7.415   8.758   6.533 -0.0647  0.0655  0.2134
  257POPC   C4B 3637   7.337   8.495   7.012 -0.3848  0.0957  0.0664
  258POPC   NC3 3638   0.937   3.785   4.823 -0.1894  0.0518 -0.0927
  258POPC   PO4 3639   0.707   3.709   5.201  0.0821 -0.1296  0.1162
  258POPC   GL1 3640   0.629   3.716   5.663 -0.0632  0.3637  0.1261
  258POPC   GL2 3641   0.416   3.973   5.718 -0.1413  0.2040 -0.1050
  258POPC   C1A 3642   0.765   3.571   6.030 -0.1352  0.0619 -0.1113
  258POPC   D2A 3643   0.879   3.622   6.409  0.0594  0.2354  0.1264
  258POPC   C3A 3644   1.211   3.458   6.512 -0.0939  0.0435 -0.0413
  258POPC   C4A 3645   1.407   3.276   6.930 -0.1042  0.0475  0.2689
  258POPC   C1B 3646   0.712   4.064   6.051  0.0818  0.0028  0.0066
  258POPC   C2B 3647   0.765   4.119   6.511 -0.1069  0.0462 -0.6430
  258POPC   C3B 3648   0.795   3.938   6.955 -0.0772 -0.0154 -0.0931
  258POPC   C4B 3649   0.817   3.525   6.919 -0.0236  0.0511 -0.3660
  259POPC   NC3 3650   1.196   0.715   3.611  0.0081  0.3709 -0.0013
  259POPC   PO4 3651   1.352   0.563   3.934  0.5396 -0.2991  0.2913
  259POPC   GL1 3652   1.232   0.453   4.326 -0.0191  0.0486 -0.1335
  259POPC   GL2 3653   1.259   0.811   4.570 -0.1679 -0.0184 -0.0448
  259POPC   C1A 3654   1.461   0.235   4.553  0.0657  0.0567 -0.1400
  259POPC   D2A 3655   1.655  -0.213   4.654  0.0560  0.2295 -0.0639
  259POPC   C3A 3656   1.622  -0.439   5.057  0.0993  0.2308 -0.1391
  259POPC   C4A 3657   1.593  -0.596   5.492 -0.4508  0.4368 -0.1791
  259POPC   C1B 3658   1.000   0.727   4.941 -0.0032  0.1376 -0.0570
  259POPC   C2B 3659   1.020   0.456   5.432  0.2736  0.0025 -0.1243
  259POPC   C3B 3660   0.962   0.141   5.604 -0.1029  0.0744  0.0475
  259POPC   C4B 3661   0.704  -0.344   5.626 -0.1074  0.1899 -0.0262
  260POPC   NC3 3662   3.141   9.323   3.758 -0.0822  0.1592  0.0438
  260POPC   PO4 3663   2.957   9.009   3.742  0.1193 -0.1561  0.1808
  260POPC   GL1 3664   3.067   9.120   4.227 -0.1667  0.1239 -0.3245
  260POPC   GL2 3665   3.302   9.400   4.214 -0.0137  0.0838  0.1144
  260POPC   C1A 3666   3.116   9.026   4.639  0.2033 -0.0400  0.2647
  260POPC   D2A 3667   3.096   9.122   5.061  0.0390 -0.1548 -0.1449
  260POPC   C3A 3668   3.140   8.959   5.449 -0.1527  0.0863  0.0189
  260POPC   C4A 3669   3.299   8.662   5.657  0.0355  0.0555 -0.0882
  260POPC   C1B 3670   3.081   9.571   4.541 -0.1221 -0.1003  0.1605
  260POPC   C2B 3671   2.795   9.470   4.894  0.0530 -0.0243  0.0321
  260POPC   C3B 3672   2.390   9.584   5.049  0.0385 -0.4065  0.2413
  260POPC   C4B 3673   2.014   9.490   5.314  0.0274 -0.0866  0.1684
  261POPC   NC3 3674   0.104   7.224   4.948  0.4784  0.1806  0.2712
  261POPC   PO4 3675   0.256   6.783   4.947 -0.0224  0.0177  0.1673
  261POPC   GL1 3676   0.306   6.933   5.312 -0.3702  0.2133 -0.4296
  261POPC   GL2 3677   0.566   6.661   5.429 -0.4221  0.0222 -0.1843
  261POPC   C1A 3678   0.436   7.311   5.601 -0.2523 -0.3103 -0.2877
  261POPC   D2A 3679   0.491   7.682   5.963  0.4733  0.2128  0.2852
  261POPC   C3A 3680   0.695   8.038   5.983 -0.3107 -0.1019  0.0620
  261POPC   C4A 3681   0.476   8.480   6.037 -0.1528  0.0780 -0.4810
  261POPC   C1B 3682   0.477   6.447   5.881  0.0450  0.0047 -0.0715
  261POPC   C2B 3683   0.366   6.676   6.231  0.2481  0.2174  0.2973
  261POPC   C3B 3684  -0.000   6.901   6.379  0.0919  0.2278 -0.1834
  261POPC   C4B 3685  -0.138   7.036   6.694 -0.4584 -0.2497 -0.0695
  262POPC   NC3 3686   0.553   1.532   4.773  0.1521 -0.3346  0.1611
  262POPC   PO4 3687   0.029   1.555   4.724  0.0148 -0.4032 -0.0310
  262POPC   GL1 3688   0.106   1.586   5.123 -0.2386  0.3990 -0.2839
  262POPC   GL2 3689   0.434   1.465   5.198  0.2448 -0.0168 -0.0346
  262POPC   C1A 3690   0.082   1.727   5.539  0.2511 -0.0093  0.0669
  262POPC   D2A 3691   0.043   1.836   5.924  0.1144 -0.1419  0.0272
  262POPC   C3A 3692   0.228   1.793   6.329  0.3541  0.3867  0.1109
  262POPC   C4A 3693   0.210   1.592   6.698  0.1508  0.0815 -0.2029
  262POPC   C1B 3694   0.314   1.219   5.582  0.0379 -0.2743  0.1750
  262POPC   C2B 3695   0.478   0.928   5.937 -0.0429  0.2390 -0.2645
  262POPC   C3B 3696   0.726   0.821   6.238 -0.1927 -0.0026 -0.4354
  262POPC   C4B 3697   1.212   0.833   6.463 -0.0204 -0.1235 -0.1909
  263POPC   NC3 3698   0.492   0.895   4.154 -0.0513 -0.4738  0.0325
  263POPC   PO4 3699   0.364   0.962   4.542 -0.0409  0.2834  0.1640
  263POPC   GL1 3700   0.478   0.722   4.926 -0.0608  0.1604 -0.1386
  263POPC   GL2 3701   0.495   0.901   5.176 -0.0191 -0.2947 -0.2016
  263POPC   C1A 3702   0.687   0.332   5.093 -0.0126  0.0725 -0.3690
  263POPC   D2A 3703   0.809   0.014   5.186  0.3420  0.1981  0.4617
  263POPC   C3A 3704   0.431  -0.204   5.228 -0.2128 -0.0826 -0.1451
  263POPC   C4A 3705   0.289  -0.556   5.327  0.1498 -0.0646 -0.1872
  263POPC   C1B 3706   0.635   0.668   5.523 -0.3478  0.1152  0.1290
  263POPC   C2B 3707   0.642   0.432   5.905  0.1573 -0.2197 -0.0642
  263POPC   C3B 3708   0.441   0.321   6.275 -0.0162  0.2343 -0.0983
  263POPC   C4B 3709   0.261   0.626   6.508 -0.0831 -0.1992  0.2548
  264POPC   NC3 3710   8.300   3.590   4.979  0.0357 -0.1426 -0.1175
  264POPC   PO4 3711   8.438   3.761   5.342 -0.1153 -0.0939  0.2417
  264POPC   GL1 3712   8.498   3.793   5.793  0.0497  0.0538 -0.1980
  264POPC   GL2 3713   8.401   4.112   5.887 -0.2215 -0.4196 -0.2222
  264POPC   C1A 3714   8.249   3.720   6.223  0.1221  0.1349 -0.3211
  264POPC   D2A 3715   8.308   3.742   6.690  0.0668 -0.0927  0.1195
  264POPC   C3A 3716   8.500   3.998   7.073 -0.1949  0.1225 -0.2985
  264POPC   C4A 3717   8.476   4.405   7.392 -0.0409 -0.2302 -0.3186
  264POPC   C1B 3718   8.876   4.042   6.076  0.0944 -0.4193  0.0997
  264POPC   C2B 3719   9.184   4.005   6.280  0.0364  0.0223  0.0718
  264POPC   C3B 3720   9.592   3.950   6.441 -0.2782 -0.0386  0.2486
  264POPC   C4B 3721   9.779   3.715   6.789 -0.2111  0.4252 -0.0056
  265POPC   NC3 3722   0.653   7.807   4.115 -0.0070  0.2576  0.1772
  265POPC   PO4 3723   0.291   8.079   4.091 -0.2382  0.1483 -0.2037
  265POPC   GL1 3724   0.405   8.104   4.474 -0.0048 -0.0095 -0.1094
  265POPC   GL2 3725   0.581   8.030   4.627  0.0391  0.2065 -0.2930
  265POPC   C1A 3726   0.010   8.366   4.759  0.2519 -0.0997 -0.1910
  265POPC   D2A 3727  -0.095   8.669   5.049  0.1261  0.0493 -0.1156
  265POPC   C3A 3728   0.087   8.551   5.500  0.1054  0.1021 -0.0449
  265POPC   C4A 3729  -0.008   8.747   5.826  0.0828 -0.1368 -0.1941
  265POPC   C1B 3730   0.755   7.895   5.055 -0.1916  0.2530 -0.0766
  265POPC   C2B 3731   0.817   7.473   5.180  0.1442 -0.1270 -0.1350
  265POPC   C3B 3732   0.831   7.115   5.353 -0.0254 -0.0162 -0.3324
  265POPC   C4B 3733   0.819   6.910   5.766  0.1981 -0.0646 -0.1666
  266POPC   NC3 3734   4.687   7.325   4.814  0.1234 -0.2322 -0.1803
  266POPC   PO4 3735   4.338   6.946   4.740  0.0757 -0.1402 -0.1216
  266POPC   GL1 3736   4.201   7.194   5.139 -0.1420 -0.2295  0.2203
  266POPC   GL2 3737   3.969   7.250   5.332  0.2212 -0.0716  0.1328
  266POPC   C1A 3738   4.368   7.468   5.500 -0.0794  0.0878 -0.0964
  266POPC   D2A 3739   4.006   7.777   5.550  0.3276  0.1811  0.2104
  266POPC   C3A 3740   3.720   7.834   5.917 -0.0797  0.0857  0.1875
  266POPC   C4A 3741   3.660   8.109   6.298 -0.1690  0.3304  0.3100
  266POPC   C1B 3742   4.165   7.007   5.696 -0.0203  0.0434  0.1927
  266POPC   C2B 3743   4.132   6.886   6.053  0.0741  0.1681  0.2333
  266POPC   C3B 3744   4.480   6.755   6.236  0.0494 -0.1279  0.0567
  266POPC   C4B 3745   4.841   6.599   6.525  0.1531  0.1603  0.1360
  267POPC   NC3 3746   2.786   2.027   4.695  0.3568 -0.1718 -0.2361
  267POPC   PO4 3747   2.384   1.776   4.784 -0.1321  0.0412 -0.1576
  267POPC   GL1 3748   2.478   1.536   5.184  0.1319  0.1213  0.4526
  267POPC   GL2 3749   2.238   1.678   5.368  0.3352 -0.0170 -0.0760
  267POPC   C1A 3750   2.511   1.259   5.483 -0.2538 -0.4234  0.2827
  267POPC   D2A 3751   2.350   1.073   5.870  0.1502 -0.1328 -0.0483
  267POPC   C3A 3752   2.645   0.985   6.291  0.1411 -0.2054  0.0677
  267POPC   C4A 3753   2.839   0.608   6.450 -0.2508  0.1703 -0.4561
  267POPC   C1B 3754   2.019   1.223   5.445 -0.0065  0.0753 -0.0874
  267POPC   C2B 3755   1.866   0.913   5.630 -0.2622  0.1666  0.4314
  267POPC   C3B 3756   1.524   0.613   5.657  0.0254 -0.0295  0.0912
  267POPC   C4B 3757   1.480   0.146   5.527 -0.0151 -0.0720  0.0933
  268POPC   NC3 3758   5.719   3.696   5.280  0.1734  0.1435  0.2186
  268POPC   PO4 3759   5.399   3.966   5.394 -0.0237 -0.2214  0.2935
  268POPC   GL1 3760   5.182   4.076   5.754  0.2013  0.1724  0.1149
  268POPC   GL2 3761   4.882   4.261   5.785  0.2316  0.3189  0.2385
  268POPC   C1A 3762   5.260   4.336   6.113  0.1293 -0.0573 -0.0776
  268POPC   D2A 3763   5.046   4.485   6.499  0.1441 -0.0770 -0.2529
  268POPC   C3A 3764   5.348   4.779   6.594  0.3887  0.0598  0.1555
  268POPC   C4A 3765   5.378   5.095   6.924  0.2498  0.0466  0.0536
  268POPC   C1B 3766   4.752   4.576   6.088 -0.1027 -0.0905 -0.0012
  268POPC   C2B 3767   4.357   4.700   6.362  0.1598  0.0526 -0.1797
  268POPC   C3B 3768   4.436   4.708   6.735 -0.0156 -0.0521  0.0074
  268POPC   C4B 3769   4.443   4.977   7.117  0.3942  0.1483  0.2920
  269POPC   NC3 3770   4.843   2.855   4.869 -0.0467 -0.1230 -0.0222
  269POPC   PO4 3771   4.741   2.839   5.283  0.0203  0.1075 -0.1219
  269POPC   GL1 3772   4.734   2.537   5.658 -0.1451 -0.0885  0.0336
  269POPC   GL2 3773   4.583   2.336   5.681 -0.3455  0.2750 -0.3662
  269POPC   C1A 3774   4.848   2.682   5.984 -0.0711  0.1441  0.0685
  269POPC   D2A 3775   4.679   2.879   6.332  0.1147  0.4418 -0.4310
  269POPC   C3A 3776   4.714   2.922   6.702 -0.1102  0.1599 -0.0863
  269POPC   C4A 3777   5.096   2.999   6.715  0.3069  0.1412  0.0893
  269POPC   C1B 3778   4.488   2.240   6.178  0.3206  0.2090 -0.2716
  269POPC   C2B 3779   4.559   1.857   6.490  0.0635  0.0039  0.2863
  269POPC   C3B 3780   4.807   1.655   6.782 -0.0400  0.0391  0.3476
  269POPC   C4B 3781   4.617   1.554   7.191  0.1946  0.1733 -0.0485
  270POPC   NC3 3782   7.448   9.573   5.445  0.0094 -0.3128 -0.2390
  270POPC   PO4 3783   7.083   9.376   5.486 -0.2854  0.2883  0.1615
  270POPC   GL1 3784   7.200   9.292   5.857 -0.1955 -0.1027 -0.1399
  270POPC   GL2 3785   7.347   9.608   5.918  0.1409  0.0798  0.1148
  270POPC   C1A 3786   7.368   9.280   6.273 -0.0880 -0.4424  0.2094
  270POPC   D2A 3787   7.454   9.345   6.625 -0.2678  0.1693 -0.1204
  270POPC   C3A 3788   7.266   9.077   6.884 -0.2067 -0.4365 -0.1495
  270POPC   C4A 3789   7.113   9.014   7.271 -0.0747  0.1013 -0.1385
  270POPC   C1B 3790   7.750   9.559   6.136 -0.1274 -0.0198 -0.0956
  270POPC   C2B 3791   7.973   9.598   6.504  0.0455  0.0377 -0.0169
  270POPC   C3B 3792   8.230   9.336   6.826 -0.1837 -0.3448 -0.1082
  270POPC   C4B 3793   8.150   9.087   7.173  0.0265  0.0166 -0.0015
  271POPC   NC3 3794   3.562   5.517   5.260  0.0922  0.0402 -0.3582
  271POPC   PO4 3795   3.223   5.722   5.224 -0.0397 -0.0586 -0.2628
  271POPC   GL1 3796   3.411   5.524   5.688 -0.1684 -0.0514 -0.2846
  271POPC   GL2 3797   3.421   5.270   5.732  0.1458  0.1590 -0.1216
  271POPC   C1A 3798   3.273   5.617   6.088  0.1498  0.0403 -0.2198
  271POPC   D2A 3799   3.144   5.454   6.423  0.4385 -0.1522 -0.0775
  271POPC   C3A 3800   3.363   5.320   6.783  0.0504  0.1686  0.1354
  271POPC   C4A 3801   3.258   5.418   7.228  0.0503  0.2430 -0.1319
  271POPC   C1B 3802   3.681   5.294   6.112 -0.0616 -0.0806  0.1825
  271POPC   C2B 3803   3.728   5.585   6.419  0.0875  0.4237 -0.0174
  271POPC   C3B 3804   3.950   5.664   6.793 -0.0738  0.0159 -0.3121
  271POPC   C4B 3805   3.866   5.405   7.128 -0.1352  0.1646 -0.0740
  272POPC   NC3 3806   0.645   0.067   3.238 -0.0062 -0.1203 -0.1133
  272POPC   PO4 3807   0.548   0.129   3.673  0.1602  0.1369  0.0623
  272POPC   GL1 3808   0.799   0.008   4.025  0.3519  0.1251 -0.0304
  272POPC   GL2 3809   0.595  -0.072   4.300 -0.2531 -0.2429 -0.1493
  272POPC   C1A 3810   1.172  -0.157   4.357  0.5756  0.1028  0.2764
  272POPC   D2A 3811   1.152  -0.283   4.754  0.1375  0.1805  0.0191
  272POPC   C3A 3812   0.925  -0.744   4.667  0.0418 -0.2402  0.2028
  272POPC   C4A 3813   0.459  -0.788   4.864 -0.3203  0.1596 -0.1432
  272POPC   C1B 3814   0.882   0.127   4.603 -0.0875 -0.1812  0.3183
  272POPC   C2B 3815   1.181   0.236   4.947 -0.1795  0.1392 -0.0149
  272POPC   C3B 3816   1.236  -0.222   5.296  0.0614  0.3612  0.1954
  272POPC   C4B 3817   1.123  -0.536   5.631 -0.2363 -0.0520 -0.1618
  273POPC   NC3 3818   6.639   7.658   5.182  0.1691 -0.1167  0.0162
  273POPC   PO4 3819   6.559   8.136   5.452  0.2279 -0.0781 -0.0657
  273POPC   GL1 3820   6.320   8.352   5.804 -0.0320 -0.0623  0.1734
  273POPC   GL2 3821   6.057   8.379   5.885  0.2036 -0.2853 -0.1067
  273POPC   C1A 3822   6.319   8.179   6.246 -0.1907  0.2228 -0.2025
  273POPC   D2A 3823   6.290   7.802   6.195  0.1349  0.1832  0.3236
  273POPC   C3A 3824   6.045   7.470   6.020  0.0103 -0.0854 -0.0443
  273POPC   C4A 3825   5.991   7.194   5.712  0.3735  0.0262 -0.4360
  273POPC   C1B 3826   5.817   8.014   5.977 -0.2051 -0.1733 -0.1166
  273POPC   C2B 3827   5.850   7.850   6.349  0.1318  0.0204  0.0236
  273POPC   C3B 3828   5.736   7.526   6.604  0.2000  0.0122  0.1614
  273POPC   C4B 3829   5.546   7.471   7.000  0.2304 -0.2163 -0.0105
  274POPC   NC3 3830   6.561   9.451   5.301  0.1451 -0.0187 -0.2633
  274POPC   PO4 3831   6.397   9.077   5.140  0.0207 -0.0868  0.2398
  274POPC   GL1 3832   6.431   9.032   5.527 -0.2298 -0.3977  0.0585
  274POPC   GL2 3833   6.226   8.909   5.686  0.1122  0.1900  0.1842
  274POPC   C1A 3834   6.646   9.040   5.924 -0.0260 -0.1089  0.1363
  274POPC   D2A 3835   6.556   8.936   6.358 -0.0636 -0.0797 -0.1418
  274POPC   C3A 3836   6.827   8.944   6.720  0.2499  0.0650  0.1193
  274POPC   C4A 3837   6.730   8.750   7.168  0.1750  0.2838  0.0910
  274POPC   C1B 3838   6.150   8.882   6.032 -0.3120 -0.2073  0.0605
  274POPC   C2B 3839   6.089   8.717   6.487  0.2593  0.3167  0.0131
  274POPC   C3B 3840   6.000   8.269   6.660  0.0504  0.2939  0.1307
  274POPC   C4B 3841   6.242   7.992   6.700  0.1132 -0.1404  0.2610
  275POPC   NC3 3842   3.604   0.901   4.442  0.0954  0.2804 -0.1631
  275POPC   PO4 3843   3.951   0.778   4.544  0.1733  0.2383  0.3293
  275POPC   GL1 3844   3.827   0.853   4.954 -0.1622  0.3110  0.0133
  275POPC   GL2 3845   3.866   1.029   5.167  0.1792 -0.2724 -0.3994
  275POPC   C1A 3846   3.688   0.491   5.308 -0.2912 -0.3481 -0.0582
  275POPC   D2A 3847   3.635   0.549   5.839 -0.4388  0.1397  0.0241
  275POPC   C3A 3848   3.730   0.188   6.186  0.0232  0.0368 -0.0566
  275POPC   C4A 3849   3.512   0.242   6.583  0.0714  0.2812  0.0265
  275POPC   C1B 3850   3.914   0.877   5.573  0.1568 -0.1693  0.0248
  275POPC   C2B 3851   4.241   0.543   5.784  0.1332 -0.2119  0.2608
  275POPC   C3B 3852   4.336   0.359   6.201  0.2463 -0.2097 -0.0134
  275POPC   C4B 3853   4.021   0.381   6.499  0.0283 -0.1129  0.2192
  276POPC   NC3 3854   3.844   7.336   4.710 -0.2336 -0.0667  0.2039
  276POPC   PO4 3855   3.845   6.887   4.881  0.2579  0.0293  0.0035
  276POPC   GL1 3856   3.652   6.882   5.196  0.1412 -0.0911 -0.2129
  276POPC   GL2 3857   3.618   6.623   5.298  0.0493  0.0953  0.0481
  276POPC   C1A 3858   3.342   7.044   5.352  0.0713 -0.1569 -0.3380
  276POPC   D2A 3859   3.149   6.909   5.742  0.3042 -0.0005  0.3107
  276POPC   C3A 3860   2.977   7.151   6.077  0.1522 -0.1218  0.1654
  276POPC   C4A 3861   3.093   7.333   6.451  0.2335 -0.0171 -0.1327
  276POPC   C1B 3862   3.657   6.845   5.699 -0.1582  0.0947  0.2291
  276POPC   C2B 3863   3.483   7.093   6.021  0.2819  0.2935 -0.2546
  276POPC   C3B 3864   3.726   7.014   6.477  0.3477 -0.0968 -0.1703
  276POPC   C4B 3865   3.926   7.288   6.769  0.1206 -0.0817 -0.1363
  277POPC   NC3 3866   2.427   8.073   3.537 -0.0198  0.1435  0.1536
  277POPC   PO4 3867   2.544   8.542   3.438 -0.0247  0.2438 -0.0996
  277POPC   GL1 3868   2.551   8.559   3.853  0.2645  0.0484 -0.0384
  277POPC   GL2 3869   2.364   8.343   3.972  0.3314 -0.0176  0.1961
  277POPC   C1A 3870   2.554   8.775   4.319 -0.1526  0.4812  0.2605
  277POPC   D2A 3871   2.627   9.078   4.633  0.2452 -0.0652 -0.0502
  277POPC   C3A 3872   2.277   9.379   4.658 -0.0987 -0.1113  0.1770
  277POPC   C4A 3873   1.843   9.534   4.698  0.2728 -0.1253  0.0882
  277POPC   C1B 3874   2.218   8.389   4.369  0.0163 -0.0643  0.0264
  277POPC   C2B 3875   2.267   8.624   4.761 -0.2884 -0.1247 -0.0127
  277POPC   C3B 3876   2.401   8.850   5.085  0.2207 -0.1138  0.0482
  277POPC   C4B 3877   2.586   9.119   5.200  0.1938 -0.2188 -0.2160
  278POPC   NC3 3878   7.866   6.524   4.370  0.2233 -0.1806  0.0667
  278POPC   PO4 3879   8.135   6.444   4.642 -0.2118 -0.1861  0.0441
  278POPC   GL1 3880   8.092   6.214   5.143 -0.1678  0.2324  0.0277
  278POPC   GL2 3881   7.797   6.364   5.449  0.0193 -0.2187 -0.0538
  278POPC   C1A 3882   8.427   6.010   5.550  0.0648 -0.2369 -0.0485
  278POPC   D2A 3883   8.413   6.052   5.954 -0.1633  0.0937 -0.3421
  278POPC   C3A 3884   8.172   5.818   6.231  0.0313 -0.0758  0.0603
  278POPC   C4A 3885   8.126   5.696   6.623 -0.0449 -0.3416  0.3125
  278POPC   C1B 3886   8.218   6.513   5.505  0.2297  0.3556  0.2203
  278POPC   C2B 3887   8.714   6.472   5.653 -0.2317  0.0214  0.0498
  278POPC   C3B 3888   9.005   6.758   5.855  0.2292  0.1596  0.0364
  278POPC   C4B 3889   9.144   7.104   6.028 -0.1947 -0.1388  0.0086
  279POPC   NC3 3890   5.498   6.977   5.165 -0.1309  0.2982  0.2494
  279POPC   PO4 3891   5.103   6.710   5.232  0.0827  0.1744  0.0672
  279POPC   GL1 3892   4.909   6.740   5.577  0.3202  0.0449 -0.2612
  279POPC   GL2 3893   4.675   6.816   5.625 -0.1070 -0.3285 -0.2412
  279POPC   C1A 3894   4.968   6.789   6.045 -0.0863  0.1455 -0.1738
  279POPC   D2A 3895   5.264   6.938   6.362 -0.1204 -0.1366  0.1676
  279POPC   C3A 3896   5.076   7.065   6.744  0.0205 -0.1838 -0.2804
  279POPC   C4A 3897   5.089   7.236   7.116 -0.2021 -0.3573 -0.1176
  279POPC   C1B 3898   4.599   7.131   5.883 -0.0183 -0.0250  0.1572
  279POPC   C2B 3899   4.371   7.278   6.191  0.0782  0.0974 -0.0802
  279POPC   C3B 3900   4.275   7.123   6.466  0.0518 -0.1016  0.0894
  279POPC   C4B 3901   4.277   6.908   6.879 -0.0563 -0.2933  0.1036
  280POPC   NC3 3902   6.494   8.569   5.308 -0.0958  0.1893  0.1353
  280POPC   PO4 3903   5.997   8.612   5.355 -0.0198 -0.1147 -0.1145
  280POPC   GL1 3904   5.730   8.714   5.703 -0.2310  0.3719 -0.2801
  280POPC   GL2 3905   5.594   9.095   5.723  0.1723 -0.2749  0.0793
  280POPC   C1A 3906   5.472   8.554   5.996 -0.2348 -0.3448  0.0233
  280POPC   D2A 3907   5.563   8.278   6.441  0.0545 -0.0697  0.1291
  280POPC   C3A 3908   5.394   8.301   6.772  0.2601  0.1315  0.1491
  280POPC   C4A 3909   5.419   8.354   7.251  0.0947 -0.0278 -0.1474
  280POPC   C1B 3910   5.039   9.281   5.790 -0.0527 -0.1808  0.0842
  280POPC   C2B 3911   4.864   9.485   6.191 -0.4098 -0.1198  0.0099
  280POPC   C3B 3912   4.689   9.396   6.586 -0.2640  0.0630  0.1093
  280POPC   C4B 3913   4.444   9.557   6.993 -0.3005 -0.0345 -0.2047
  281POPC   NC3 3914   4.336   3.823   5.094 -0.1823 -0.0310 -0.2387
  281POPC   PO4 3915   4.010   4.087   5.201  0.0013  0.1688 -0.2610
  281POPC   GL1 3916   3.958   4.026   5.668  0.2278  0.0524 -0.1866
  281POPC   GL2 3917   3.903   3.742   5.900  0.3041 -0.2007  0.1090
  281POPC   C1A 3918   3.716   4.270   5.872 -0.5951 -0.0620 -0.3927
  281POPC   D2A 3919   3.594   4.437   6.248  0.0695  0.1209 -0.0310
  281POPC   C3A 3920   3.190   4.478   6.272  0.0683  0.0532  0.3793
  281POPC   C4A 3921   2.890   4.242   6.408  0.0477 -0.2165 -0.0249
  281POPC   C1B 3922   3.805   3.619   6.394 -0.0116 -0.0229 -0.0098
  281POPC   C2B 3923   3.942   3.899   6.858  0.1450  0.1587 -0.1055
  281POPC   C3B 3924   4.401   3.985   6.636 -0.1954  0.1050 -0.3452
  281POPC   C4B 3925   4.548   4.278   6.462  0.1503 -0.3439 -0.2198
  282POPC   NC3 3926   5.926   1.817   5.025  0.2105 -0.0014  0.0777
  282POPC   PO4 3927   6.041   1.365   5.212  0.0929 -0.0168 -0.0456
  282POPC   GL1 3928   5.887   1.564   5.616  0.2919  0.2111  0.1758
  282POPC   GL2 3929   5.732   1.498   5.903  0.1801 -0.0317 -0.0223
  282POPC   C1A 3930   6.013   1.930   5.997 -0.0319 -0.1064 -0.0409
  282POPC   D2A 3931   5.874   2.224   6.277 -0.1744 -0.0570  0.3351
  282POPC   C3A 3932   5.727   2.137   6.716 -0.2624 -0.1742  0.0315
  282POPC   C4A 3933   5.842   2.294   7.135  0.0191  0.0420  0.2377
  282POPC   C1B 3934   5.885   1.338   6.334  0.0424  0.1131 -0.3397
  282POPC   C2B 3935   6.066   1.287   6.687 -0.4825  0.0546 -0.2303
  282POPC   C3B 3936   5.998   1.133   7.071 -0.1830  0.3338 -0.0543
  282POPC   C4B 3937   6.141   1.477   7.375 -0.1070  0.1243  0.0144
  283POPC   NC3 3938   5.144   5.682   4.989  0.0924  0.0411  0.2180
  283POPC   PO4 3939   4.955   5.329   5.180 -0.1593 -0.0413 -0.1388
  283POPC   GL1 3940   5.138   5.296   5.601 -0.1565 -0.2408  0.2448
  283POPC   GL2 3941   5.398   5.155   5.697  0.1992 -0.0552  0.1656
  283POPC   C1A 3942   5.094   5.393   6.086 -0.1608 -0.2182 -0.1256
  283POPC   D2A 3943   4.787   5.606   6.306  0.1035  0.3125 -0.1616
  283POPC   C3A 3944   5.003   5.504   6.793  0.1129  0.4737 -0.1816
  283POPC   C4A 3945   5.143   5.889   7.158  0.1873 -0.4727 -0.0837
  283POPC   C1B 3946   5.525   5.163   6.063  0.2508 -0.1743 -0.2098
  283POPC   C2B 3947   5.367   5.282   6.459 -0.0909 -0.1737  0.1266
  283POPC   C3B 3948   5.561   5.622   6.788  0.1674 -0.1946  0.2068
  283POPC   C4B 3949   5.968   5.907   6.824 -0.0307 -0.1278  0.0615
  284POPC   NC3 3950   3.908   6.376   4.973 -0.0344 -0.1077  0.4284
  284POPC   PO4 3951   3.926   6.000   5.051 -0.1296 -0.0421 -0.0224
  284POPC   GL1 3952   3.833   6.207   5.444  0.2722 -0.0890 -0.2049
  284POPC   GL2 3953   3.629   5.953   5.514  0.1015  0.2399  0.1664
  284POPC   C1A 3954   3.720   6.269   5.842 -0.4206  0.1226 -0.5166
  284POPC   D2A 3955   3.594   6.551   6.143  0.0518 -0.0427  0.0982
  284POPC   C3A 3956   3.612   6.525   6.493 -0.2744 -0.0466 -0.2908
  284POPC   C4A 3957   3.748   6.706   6.904 -0.0646  0.0994 -0.2043
  284POPC   C1B 3958   3.746   5.789   5.999 -0.0752  0.4569  0.0290
  284POPC   C2B 3959   3.755   6.071   6.354  0.0378  0.1808  0.0583
  284POPC   C3B 3960   3.763   6.152   6.767  0.2958 -0.0456 -0.2847
  284POPC   C4B 3961   3.688   6.345   7.211 -0.3299  0.1843  0.0324
  285POPC   NC3 3962   9.985   6.826   5.230  0.0369  0.3139  0.1066
  285POPC   PO4 3963   9.781   7.137   5.014 -0.2031  0.0320  0.1011
  285POPC   GL1 3964   9.944   7.552   5.155  0.0240 -0.0351 -0.0895
  285POPC   GL2 3965  10.100   7.396   5.354  0.4106  0.1694 -0.4708
  285POPC   C1A 3966  10.054   7.935   5.422 -0.1546  0.3387  0.0468
  285POPC   D2A 3967   9.900   8.312   5.852  0.2066 -0.0985  0.2153
  285POPC   C3A 3968  10.072   8.401   6.224 -0.0759 -0.1274 -0.4051
  285POPC   C4A 3969  10.448   8.429   6.511  0.2207 -0.0420  0.1106
  285POPC   C1B 3970  10.173   7.473   5.736 -0.0420 -0.2693  0.2085
  285POPC   C2B 3971  10.130   7.500   6.118  0.2680  0.0638 -0.0396
  285POPC   C3B 3972  10.150   7.489   6.609  0.2590  0.1221 -0.4478
  285POPC   C4B 3973  10.514   7.217   6.775  0.2625 -0.3180  0.2561
  286POPC   NC3 3974   5.608   5.945   5.107 -0.5897  0.1721 -0.2624
  286POPC   PO4 3975   5.444   5.567   5.342 -0.1274 -0.1819  0.1917
  286POPC   GL1 3976   5.133   5.825   5.508  0.2469  0.3222 -0.2857
  286POPC   GL2 3977   4.814   5.684   5.458 -0.0440 -0.2884  0.1078
  286POPC   C1A 3978   4.993   5.858   5.917  0.0659  0.2175  0.1938
  286POPC   D2A 3979   4.705   6.024   6.128  0.1334 -0.5264  0.1084
  286POPC   C3A 3980   4.525   6.367   5.960 -0.1775 -0.2645  0.0354
  286POPC   C4A 3981   4.154   6.494   5.712 -0.1510 -0.1267 -0.1316
  286POPC   C1B 3982   4.692   5.531   5.804 -0.1714 -0.2172  0.2481
  286POPC   C2B 3983   4.507   5.243   6.153  0.1398 -0.0466 -0.0769
  286POPC   C3B 3984   4.436   5.289   6.566 -0.0953  0.1674 -0.0938
  286POPC   C4B 3985   4.398   5.464   6.959 -0.1153 -0.2129 -0.2000
  287POPC   NC3 3986   6.258   0.147   5.501 -0.1036  0.3858  0.0573
  287POPC   PO4 3987   6.001   0.607   5.517  0.0875  0.1955  0.1453
  287POPC   GL1 3988   5.751   0.611   5.954 -0.0291 -0.0530 -0.0866
  287POPC   GL2 3989   5.776   0.854   6.201  0.3551 -0.4660  0.1025
  287POPC   C1A 3990   5.504   0.504   6.369 -0.0264  0.2377 -0.0860
  287POPC   D2A 3991   5.389   0.646   6.758 -0.3637  0.0145  0.1733
  287POPC   C3A 3992   5.551   0.919   7.055 -0.0666  0.2036 -0.2245
  287POPC   C4A 3993   5.613   1.431   7.194 -0.1001 -0.1059  0.1708
  287POPC   C1B 3994   5.878   0.891   6.580  0.2449 -0.1860  0.0082
  287POPC   C2B 3995   6.339   0.911   6.663  0.0036 -0.1970 -0.1090
  287POPC   C3B 3996   6.706   0.953   6.677 -0.0358 -0.1801  0.2506
  287POPC   C4B 3997   6.891   0.806   6.324  0.5155 -0.1848  0.2939
  288POPC   NC3 3998   2.014   5.851   4.961  0.0605  0.0457  0.0351
  288POPC   PO4 3999   2.261   5.397   5.200 -0.0128 -0.0592  0.1674
  288POPC   GL1 4000   2.070   5.752   5.480 -0.0050 -0.0863  0.1077
  288POPC   GL2 4001   2.356   5.891   5.424 -0.0581 -0.1889  0.1102
  288POPC   C1A 4002   2.078   6.227   5.696  0.0802 -0.1310 -0.2559
  288POPC   D2A 4003   2.217   6.432   6.031  0.0738  0.0949  0.2104
  288POPC   C3A 4004   2.205   6.754   6.227  0.0086 -0.2347 -0.2269
  288POPC   C4A 4005   1.971   7.176   6.266  0.0459  0.0739 -0.1605
  288POPC   C1B 4006   2.581   6.122   5.810 -0.0284 -0.1066 -0.0288
  288POPC   C2B 4007   2.654   6.226   6.202 -0.2365 -0.1608 -0.2532
  288POPC   C3B 4008   2.424   6.356   6.567 -0.2049  0.3127 -0.3171
  288POPC   C4B 4009   2.644   6.552   6.973 -0.0033  0.2439  0.0583
  289POPC   NC3 4010   0.870   3.295   5.419  0.2748 -0.2906  0.0914
  289POPC   PO4 4011   0.426   3.269   5.397 -0.3029 -0.2142  0.1099
  289POPC   GL1 4012   0.296   3.350   5.718 -0.1951 -0.2245  0.0967
  289POPC   GL2 4013   0.518   3.163   5.945 -0.1360  0.0220 -0.1034
  289POPC   C1A 4014   0.218   3.585   6.006 -0.1679 -0.0103  0.2620
  289POPC   D2A 4015   0.318   3.900   6.268  0.2893 -0.4822 -0.2420
  289POPC   C3A 4016   0.469   3.712   6.617  0.1414 -0.0043 -0.1610
  289POPC   C4A 4017   0.151   3.612   6.859  0.2795  0.3453  0.1090
  289POPC   C1B 4018   0.486   3.243   6.447 -0.3669 -0.1202 -0.0198
  289POPC   C2B 4019   0.515   2.862   6.709 -0.2360  0.2996 -0.1936
  289POPC   C3B 4020   0.612   2.730   7.050 -0.0932 -0.0411 -0.4099
  289POPC   C4B 4021   0.809   2.773   7.417  0.0277  0.4746  0.3839
  290POPC   NC3 4022   6.452   6.839   4.598 -0.3159 -0.1530 -0.0086
  290POPC   PO4 4023   6.347   7.117   4.880  0.1399 -0.1017 -0.1273
  290POPC   GL1 4024   6.322   7.252   5.272 -0.0975  0.0528 -0.0867
  290POPC   GL2 4025   6.096   7.422   5.339  0.1058 -0.1089 -0.1392
  290POPC   C1A 4026   6.499   7.372   5.766  0.4127  0.0205 -0.0008
  290POPC   D2A 4027   6.748   7.289   6.038  0.1074 -0.0705  0.2300
  290POPC   C3A 4028   6.542   7.360   6.373 -0.1695 -0.0053  0.1424
  290POPC   C4A 4029   6.332   7.507   6.656  0.1147 -0.1034  0.2225
  290POPC   C1B 4030   5.686   7.593   5.587 -0.1066  0.2123 -0.0496
  290POPC   C2B 4031   5.373   7.705   5.862 -0.0462  0.3030  0.1108
  290POPC   C3B 4032   5.345   8.030   6.071 -0.1107  0.2943  0.0580
  290POPC   C4B 4033   5.086   8.092   6.323  0.1010 -0.0439  0.0562
  291POPC   NC3 4034   3.445   6.546   4.815  0.1009 -0.2673  0.2186
  291POPC   PO4 4035   3.324   6.230   5.145  0.1333 -0.0718  0.1973
  291POPC   GL1 4036   3.270   6.292   5.497  0.1016 -0.1366  0.2533
  291POPC   GL2 4037   3.045   6.017   5.638  0.1639 -0.0814  0.0109
  291POPC   C1A 4038   2.974   6.445   5.782 -0.2479 -0.1835 -0.2273
  291POPC   D2A 4039   3.037   6.549   6.132 -0.0504  0.0941 -0.3173
  291POPC   C3A 4040   3.219   6.856   6.389  0.1222  0.2219 -0.1165
  291POPC   C4A 4041   3.302   6.968   6.835  0.3311 -0.2695  0.2631
  291POPC   C1B 4042   3.321   6.120   6.018  0.3189  0.0849 -0.1969
  291POPC   C2B 4043   3.258   6.052   6.361  0.0024 -0.1225 -0.1368
  291POPC   C3B 4044   3.278   5.847   6.774  0.1084 -0.0342  0.1567
  291POPC   C4B 4045   3.503   5.797   7.049  0.2092  0.2510 -0.2191
  292POPC   NC3 4046   9.505   6.128   5.257 -0.0738  0.1146 -0.0510
  292POPC   PO4 4047   9.474   5.710   5.214 -0.0327  0.0335 -0.0568
  292POPC   GL1 4048   9.654   5.809   5.605 -0.0196  0.3378  0.0645
  292POPC   GL2 4049   9.995   5.708   5.762 -0.0102 -0.2840 -0.1233
  292POPC   C1A 4050   9.475   5.986   6.049 -0.1576 -0.1571  0.4981
  292POPC   D2A 4051   9.515   6.200   6.462 -0.1507  0.1860 -0.2348
  292POPC   C3A 4052   9.283   6.022   6.805  0.1161 -0.0718 -0.0889
  292POPC   C4A 4053   9.044   5.849   7.154  0.0757  0.0185 -0.2854
  292POPC   C1B 4054  10.033   5.837   6.205 -0.2762  0.2450 -0.1787
  292POPC   C2B 4055  10.158   5.976   6.684 -0.0280  0.2484 -0.0408
  292POPC   C3B 4056  10.202   6.101   7.122  0.3400 -0.0278 -0.1213
  292POPC   C4B 4057  10.311   6.332   7.502 -0.1581  0.0727  0.0203
  293POPC   NC3 4058   8.891   0.887   5.452  0.1122 -0.1763 -0.0374
  293POPC   PO4 4059   8.511   0.630   5.482 -0.2225  0.1725 -0.0864
  293POPC   GL1 4060   8.275   0.465   5.776 -0.1114  0.0441  0.0308
  293POPC   GL2 4061   8.344   0.643   5.915 -0.2218  0.2227  0.3313
  293POPC   C1A 4062   7.919   0.271   5.945 -0.0338 -0.1331  0.3767
  293POPC   D2A 4063   7.568   0.076   6.156  0.0593 -0.0700  0.0088
  293POPC   C3A 4064   7.586   0.225   6.582 -0.0350 -0.0467 -0.3071
  293POPC   C4A 4065   7.540   0.438   6.836  0.0465  0.0523  0.3166
  293POPC   C1B 4066   8.497   0.692   6.357 -0.3384  0.2569 -0.0280
  293POPC   C2B 4067   8.585   0.666   6.748 -0.1095 -0.1291  0.0888
  293POPC   C3B 4068   8.515   0.877   7.203 -0.2921 -0.0075  0.1045
  293POPC   C4B 4069   8.352   1.121   7.603  0.4231  0.1273 -0.1363
  294POPC   NC3 4070   9.146   0.624   4.612 -0.1257  0.0356 -0.0194
  294POPC   PO4 4071   9.414   0.258   4.702 -0.0765  0.1102  0.0597
  294POPC   GL1 4072   9.748   0.367   5.078  0.1603  0.2940 -0.2673
  294POPC   GL2 4073   9.628   0.627   5.169 -0.2181 -0.0553 -0.2911
  294POPC   C1A 4074   9.882   0.368   5.526 -0.0847 -0.2431 -0.2039
  294POPC   D2A 4075   9.789   0.325   5.916 -0.1496  0.2403  0.0460
  294POPC   C3A 4076  10.138   0.137   6.050  0.2542 -0.0923  0.0056
  294POPC   C4A 4077  10.161   0.109   6.451 -0.2043 -0.0163 -0.0164
  294POPC   C1B 4078   9.379   0.413   5.542 -0.0761  0.3161  0.0111
  294POPC   C2B 4079   9.232   0.576   5.948 -0.0217  0.0542  0.1261
  294POPC   C3B 4080   9.370   0.467   6.399  0.0056 -0.4097  0.1196
  294POPC   C4B 4081   9.538   0.596   6.877 -0.0186  0.1409  0.1116
  295POPC   NC3 4082   6.584   5.693   4.731  0.1581 -0.0530 -0.2608
  295POPC   PO4 4083   6.415   5.538   5.090 -0.3287  0.0439 -0.0433
  295POPC   GL1 4084   6.378   5.309   5.459  0.0049 -0.0054 -0.3114
  295POPC   GL2 4085   6.364   5.537   5.696 -0.1751 -0.1606  0.1833
  295POPC   C1A 4086   6.518   4.979   5.761 -0.1476 -0.0740  0.2370
  295POPC   D2A 4087   6.627   5.155   6.160 -0.1516 -0.0935 -0.3189
  295POPC   C3A 4088   6.794   4.939   6.557  0.1857 -0.3781 -0.0416
  295POPC   C4A 4089   6.895   4.705   6.963 -0.1583  0.5231 -0.1294
  295POPC   C1B 4090   6.082   5.377   5.959 -0.0151  0.4176 -0.0088
  295POPC   C2B 4091   5.878   5.378   6.373 -0.0764 -0.1586  0.0058
  295POPC   C3B 4092   5.814   5.086   6.647  0.1009  0.0777  0.0424
  295POPC   C4B 4093   5.992   4.965   7.015 -0.1318  0.1991  0.1472
  296POPC   NC3 4094   0.125   1.118   4.939 -0.2323 -0.1560  0.0738
  296POPC   PO4 4095  -0.150   0.782   4.901  0.0072 -0.0340  0.3787
  296POPC   GL1 4096   0.059   0.617   5.244 -0.0530 -0.0256 -0.1978
  296POPC   GL2 4097   0.165   0.301   5.128 -0.0545  0.0614  0.0953
  296POPC   C1A 4098   0.155   0.783   5.567  0.1665  0.2178  0.3654
  296POPC   D2A 4099   0.146   0.578   5.811 -0.1016 -0.0079 -0.1337
  296POPC   C3A 4100   0.004   0.746   6.080 -0.0686 -0.3738  0.2552
  296POPC   C4A 4101  -0.259   0.518   6.344 -0.4249 -0.4043 -0.1053
  296POPC   C1B 4102   0.422   0.178   5.514 -0.2742 -0.0348  0.2244
  296POPC   C2B 4103   0.408  -0.006   5.885 -0.0748 -0.1276 -0.2311
  296POPC   C3B 4104   0.520  -0.178   6.343  0.3198 -0.1222 -0.2032
  296POPC   C4B 4105   0.219  -0.239   6.696 -0.0386 -0.4299 -0.0087
  297POPC   NC3 4106   7.701   7.273   5.004 -0.1491 -0.0358 -0.3053
  297POPC   PO4 4107   7.194   7.495   5.097 -0.2498 -0.0707 -0.0820
  297POPC   GL1 4108   7.240   7.511   5.439  0.4687  0.0086 -0.0121
  297POPC   GL2 4109   7.489   7.356   5.594  0.2329 -0.0769 -0.2939
  297POPC   C1A 4110   6.962   7.616   5.771 -0.2068  0.1539 -0.2663
  297POPC   D2A 4111   6.767   7.724   6.182 -0.1706 -0.0723 -0.1713
  297POPC   C3A 4112   6.786   7.960   6.469 -0.1537 -0.2129  0.0719
  297POPC   C4A 4113   6.507   8.407   6.693 -0.1048 -0.0601 -0.1039
  297POPC   C1B 4114   7.624   7.351   6.034 -0.1142  0.1426 -0.1596
  297POPC   C2B 4115   7.477   7.066   6.406 -0.1973 -0.0261 -0.1741
  297POPC   C3B 4116   7.636   7.079   6.800 -0.1383 -0.0025 -0.1049
  297POPC   C4B 4117   7.499   6.988   7.274 -0.0324  0.1474  0.0423
  298POPC   NC3 4118   9.671  10.096   4.359 -0.0576  0.0908  0.1533
  298POPC   PO4 4119   9.432   9.907   4.655 -0.2379 -0.1687 -0.1143
  298POPC   GL1 4120   9.648   9.982   4.994  0.1790  0.4618  0.2621
  298POPC   GL2 4121   9.441  10.166   5.243  0.2770 -0.0071  0.2720
  298POPC   C1A 4122  10.059  10.051   5.262  0.5629  0.2386 -0.1403
  298POPC   D2A 4123  10.199   9.916   5.660  0.1070 -0.2251 -0.3088
  298POPC   C3A 4124  10.487   9.612   5.835 -0.3838 -0.0367 -0.0716
  298POPC   C4A 4125  10.844   9.575   6.073  0.0107  0.0555  0.2182
  298POPC   C1B 4126   9.474   9.699   5.458 -0.0041  0.1527 -0.0041
  298POPC   C2B 4127   9.253   9.543   5.791  0.0031 -0.2080  0.2112
  298POPC   C3B 4128   9.383   9.537   6.158  0.1222  0.2899 -0.3220
  298POPC   C4B 4129   9.283   9.646   6.570  0.1363 -0.0907 -0.1054
  299POPC   NC3 4130   7.619   2.946   4.731  0.3650  0.3145  0.0313
  299POPC   PO4 4131   7.837   2.990   5.166 -0.1860 -0.0268  0.3435
  299POPC   GL1 4132   7.821   3.045   5.622  0.2047  0.1733 -0.1707
  299POPC   GL2 4133   7.487   2.954   5.647 -0.0640 -0.0577 -0.2260
  299POPC   C1A 4134   7.853   2.810   6.144 -0.0460 -0.0093 -0.6034
  299POPC   D2A 4135   7.879   2.666   6.595  0.1587  0.1487 -0.1862
  299POPC   C3A 4136   7.645   2.732   6.930  0.1564  0.0558 -0.0766
  299POPC   C4A 4137   7.529   2.731   7.347  0.1833  0.0589  0.1863
  299POPC   C1B 4138   7.455   3.077   5.987 -0.0777 -0.0420 -0.0762
  299POPC   C2B 4139   7.480   3.174   6.337 -0.1085 -0.0161 -0.0541
  299POPC   C3B 4140   7.719   3.243   6.700 -0.1884 -0.1511 -0.5673
  299POPC   C4B 4141   7.789   3.219   7.229  0.0185 -0.2727 -0.3405
  300POPC   NC3 4142   5.495   4.714   4.805 -0.3537  0.1491  0.1164
  300POPC   PO4 4143   5.831   4.629   5.005  0.2823 -0.1044  0.2776
  300POPC   GL1 4144   5.721   4.834   5.470 -0.0134  0.2762  0.2856
  300POPC   GL2 4145   5.515   4.647   5.760 -0.0166 -0.0587  0.2171
  300POPC   C1A 4146   5.966   4.940   5.823  0.3719  0.1543  0.2476
  300POPC   D2A 4147   6.119   4.963   6.278 -0.2072 -0.2606  0.0206
  300POPC   C3A 4148   6.238   4.618   6.652 -0.1642 -0.1582  0.1067
  300POPC   C4A 4149   6.531   4.518   6.680 -0.0044 -0.2339  0.0326
  300POPC   C1B 4150   5.709   4.680   6.158  0.2467  0.0870 -0.0631
  300POPC   C2B 4151   5.953   4.467   6.296  0.1541 -0.1960  0.0187
  300POPC   C3B 4152   6.201   4.174   6.314 -0.1661 -0.0358  0.1061
  300POPC   C4B 4153   6.481   4.032   6.090  0.4283  0.1261  0.4405
  301POPC   NC3 4154   2.658   6.987   4.439  0.2189  0.0470 -0.2154
  301POPC   PO4 4155   3.035   6.723   4.528  0.0130  0.1367 -0.0745
  301POPC   GL1 4156   2.860   7.116   4.924  0.3084  0.1796  0.0596
  301POPC   GL2 4157   2.961   7.413   4.795  0.0514 -0.0945  0.0317
  301POPC   C1A 4158   2.497   7.379   5.037 -0.2761  0.0063 -0.0671
  301POPC   D2A 4159   2.164   7.342   5.380 -0.2747  0.0293  0.1472
  301POPC   C3A 4160   2.147   7.508   5.772 -0.1758  0.1584  0.0655
  301POPC   C4A 4161   2.132   7.632   6.199 -0.2322 -0.1502  0.0595
  301POPC   C1B 4162   2.937   7.462   5.292 -0.0734 -0.0268 -0.1581
  301POPC   C2B 4163   3.136   7.612   5.602  0.0818  0.2775 -0.0305
  301POPC   C3B 4164   3.596   7.438   5.644  0.0286 -0.0899 -0.0274
  301POPC   C4B 4165   3.894   7.329   6.017 -0.2154 -0.3518  0.0532
  302POPC   NC3 4166   5.827   8.383   4.969  0.0604 -0.1984 -0.1187
  302POPC   PO4 4167   5.510   8.148   4.991  0.1166  0.3961 -0.2207
  302POPC   GL1 4168   5.113   8.279   5.219  0.1514  0.0909  0.1683
  302POPC   GL2 4169   4.881   8.242   5.059 -0.0586 -0.0430 -0.3138
  302POPC   C1A 4170   5.143   8.569   5.625 -0.1189 -0.1371  0.4190
  302POPC   D2A 4171   4.881   8.837   5.690  0.0579 -0.1808 -0.1101
  302POPC   C3A 4172   4.858   8.934   6.096 -0.0043  0.0617 -0.1822
  302POPC   C4A 4173   4.559   8.731   6.442  0.1980 -0.1033  0.4487
  302POPC   C1B 4174   4.674   8.450   5.422  0.0945  0.1578 -0.2362
  302POPC   C2B 4175   4.433   8.744   5.833  0.2066  0.0359 -0.1496
  302POPC   C3B 4176   4.212   8.556   6.183 -0.0396  0.0507  0.1375
  302POPC   C4B 4177   3.990   8.753   6.487  0.1156 -0.2226 -0.2623
  303POPC   NC3 4178   0.561   5.479   5.173  0.3233  0.1280 -0.0591
  303POPC   PO4 4179   0.708   5.085   5.345 -0.0737 -0.0420 -0.3924
  303POPC   GL1 4180   0.914   5.053   5.738  0.1042  0.0118 -0.2149
  303POPC   GL2 4181   1.360   5.146   5.708  0.0904  0.0085 -0.1320
  303POPC   C1A 4182   0.885   5.144   6.112 -0.2081 -0.1212 -0.1200
  303POPC   D2A 4183   0.772   5.210   6.561  0.0714  0.3802  0.0602
  303POPC   C3A 4184   0.818   5.492   6.903  0.0612 -0.0334 -0.3388
  303POPC   C4A 4185   0.810   5.481   7.251  0.1652 -0.2161  0.2668
  303POPC   C1B 4186   1.318   4.910   6.269  0.1440 -0.2452 -0.4847
  303POPC   C2B 4187   1.352   4.777   6.760 -0.1400 -0.0174 -0.0921
  303POPC   C3B 4188   1.522   4.949   7.197  0.0470 -0.0196 -0.1451
  303POPC   C4B 4189   1.618   5.134   7.593 -0.2369 -0.1218  0.0644
  304POPC   NC3 4190   3.010   0.629   4.008 -0.0181 -0.0727  0.0133
  304POPC   PO4 4191   2.753   0.237   4.062  0.2937 -0.0690  0.0242
  304POPC   GL1 4192   2.318   0.199   4.199 -0.0946 -0.0261 -0.0829
  304POPC   GL2 4193   2.092   0.056   3.954 -0.0783  0.1983 -0.2239
  304POPC   C1A 4194   1.998   0.179   4.497 -0.0494  0.0498  0.2054
  304POPC   D2A 4195   1.855   0.304   4.893  0.2656  0.3591  0.0121
  304POPC   C3A 4196   1.872  -0.017   5.167 -0.1241  0.0334 -0.3955
  304POPC   C4A 4197   1.867  -0.211   5.513 -0.2852  0.3661  0.4368
  304POPC   C1B 4198   1.715  -0.206   4.140  0.1841 -0.0797 -0.0267
  304POPC   C2B 4199   1.483  -0.593   4.330 -0.1865 -0.3016  0.1035
  304POPC   C3B 4200   1.170  -0.839   4.231 -0.1743 -0.0342  0.0505
  304POPC   C4B 4201   0.859  -1.141   4.299  0.1570  0.0567 -0.0465
  305POPC   NC3 4202   1.564   0.952   4.139 -0.2745 -0.0074  0.3101
  305POPC   PO4 4203   2.064   1.023   4.183 -0.1505 -0.2818  0.0000
  305POPC   GL1 4204   2.060   0.789   4.476  0.0391 -0.5693  0.1210
  305POPC   GL2 4205   1.763   0.656   4.569 -0.1566  0.2146  0.0822
  305POPC   C1A 4206   2.284   0.456   4.694 -0.1455  0.1236 -0.0346
  305POPC   D2A 4207   2.299   0.292   5.142 -0.0112  0.2414  0.1111
  305POPC   C3A 4208   1.874   0.436   5.339  0.1661  0.3666  0.3120
  305POPC   C4A 4209   1.470   0.623   5.103  0.1639 -0.1219 -0.0390
  305POPC   C1B 4210   1.877   0.855   4.915 -0.2260  0.0011 -0.0641
  305POPC   C2B 4211   2.201   0.784   5.090 -0.2579 -0.0619 -0.0336
  305POPC   C3B 4212   2.295   0.793   5.352 -0.0734 -0.0890  0.0996
  305POPC   C4B 4213   2.401   0.599   5.714  0.2435  0.2104 -0.0251
  306POPC   NC3 4214   7.550   7.870   5.363 -0.0937 -0.0431 -0.1042
  306POPC   PO4 4215   7.974   7.643   5.331 -0.1046 -0.2548 -0.1834
  306POPC   GL1 4216   7.754   7.738   5.797 -0.1347 -0.4509  0.2878
  306POPC   GL2 4217   7.451   7.825   5.850  0.0700  0.1620  0.1811
  306POPC   C1A 4218   7.890   7.703   6.224 -0.1302  0.0881  0.0762
  306POPC   D2A 4219   8.165   7.998   6.383 -0.3139 -0.1886 -0.0348
  306POPC   C3A 4220   8.554   7.876   6.259  0.2125 -0.1841  0.0521
  306POPC   C4A 4221   8.933   7.849   6.071  0.0855 -0.0369  0.2026
  306POPC   C1B 4222   7.261   7.846   6.333  0.2054  0.1437 -0.0786
  306POPC   C2B 4223   7.353   7.693   6.709 -0.2514  0.0049  0.1092
  306POPC   C3B 4224   7.441   7.434   7.070  0.1582  0.0589 -0.2842
  306POPC   C4B 4225   7.668   7.403   7.506  0.1723 -0.1214  0.2508
  307POPC   NC3 4226   1.166   3.935   5.310  0.0539 -0.0738 -0.0736
  307POPC   PO4 4227   1.268   3.527   5.094  0.0274 -0.1525  0.0815
  307POPC   GL1 4228   1.619   3.591   5.425  0.0042 -0.0749 -0.1638
  307POPC   GL2 4229   1.870   3.328   5.514  0.0035  0.0718  0.3414
  307POPC   C1A 4230   1.673   3.630   5.836 -0.0086 -0.1160 -0.2451
  307POPC   D2A 4231   1.644   3.369   6.213  0.0230  0.2603 -0.2828
  307POPC   C3A 4232   1.517   2.942   6.572  0.1770  0.1355 -0.1860
  307POPC   C4A 4233   1.369   2.764   7.015  0.0691 -0.0065 -0.1398
  307POPC   C1B 4234   1.859   3.053   5.814 -0.0202 -0.0161  0.0434
  307POPC   C2B 4235   1.833   2.854   6.161  0.3180  0.0108 -0.1528
  307POPC   C3B 4236   2.007   2.641   6.541  0.2500  0.1854 -0.0588
  307POPC   C4B 4237   2.120   2.310   6.845 -0.0522  0.0568  0.1268
  308POPC   NC3 4238   5.144   8.661   4.901  0.1170 -0.1272 -0.2619
  308POPC   PO4 4239   5.108   9.081   4.747 -0.1173  0.2772  0.2258
  308POPC   GL1 4240   4.641   9.279   4.842  0.1160  0.0926 -0.1273
  308POPC   GL2 4241   4.358   9.085   4.819  0.0817 -0.1396 -0.2575
  308POPC   C1A 4242   4.331   9.532   5.112  0.3619  0.1100  0.0860
  308POPC   D2A 4243   3.904   9.520   5.065 -0.2884  0.0250  0.0159
  308POPC   C3A 4244   3.659   9.683   5.376 -0.0284  0.0096  0.1544
  308POPC   C4A 4245   3.339   9.936   5.497  0.3382 -0.1716 -0.0569
  308POPC   C1B 4246   4.000   8.960   5.144  0.0256  0.3474  0.1371
  308POPC   C2B 4247   3.840   8.828   5.529 -0.2008 -0.2067  0.0665
  308POPC   C3B 4248   3.969   9.014   5.887 -0.1781  0.2869 -0.3970
  308POPC   C4B 4249   3.905   9.372   6.133 -0.0451  0.0241  0.4436
  309POPC   NC3 4250   7.764   6.419   4.924  0.1101 -0.1321 -0.0001
  309POPC   PO4 4251   7.370   6.607   5.097  0.0650  0.0126 -0.3511
  309POPC   GL1 4252   7.294   6.387   5.570 -0.1583  0.1352 -0.0285
  309POPC   GL2 4253   7.236   6.655   5.765  0.1516 -0.0983  0.1144
  309POPC   C1A 4254   7.567   6.324   5.969  0.1314  0.0910  0.2926
  309POPC   D2A 4255   7.588   6.423   6.464 -0.1803  0.3681  0.0826
  309POPC   C3A 4256   7.808   6.601   6.790  0.2092 -0.1455 -0.0414
  309POPC   C4A 4257   7.855   6.614   7.173 -0.0408 -0.2270 -0.1138
  309POPC   C1B 4258   7.163   7.029   5.962  0.0440  0.1751 -0.0314
  309POPC   C2B 4259   7.085   7.378   6.325 -0.0080 -0.1828 -0.2173
  309POPC   C3B 4260   6.854   7.500   6.704 -0.0278  0.3518  0.0904
  309POPC   C4B 4261   6.662   7.192   7.076 -0.0435 -0.1508 -0.1125
  310POPC   NC3 4262   4.614   4.608   4.848  0.1695  0.0561  0.2744
  310POPC   PO4 4263   5.018   4.901   4.849  0.4754  0.1581  0.0083
  310POPC   GL1 4264   4.984   4.867   5.239  0.0895 -0.1499  0.4157
  310POPC   GL2 4265   4.789   4.636   5.309 -0.1362  0.1178 -0.2645
  310POPC   C1A 4266   5.058   4.773   5.662  0.1861  0.0682 -0.1037
  310POPC   D2A 4267   5.145   4.816   6.089 -0.1574 -0.1300  0.1003
  310POPC   C3A 4268   4.849   4.994   6.431  0.1256 -0.3004  0.1911
  310POPC   C4A 4269   4.911   4.982   6.978  0.0233 -0.0984  0.0709
  310POPC   C1B 4270   4.523   4.538   5.688 -0.0352  0.1998 -0.0319
  310POPC   C2B 4271   4.286   4.340   6.040 -0.0979  0.1636 -0.1559
  310POPC   C3B 4272   4.003   4.093   6.321  0.2822 -0.1827  0.0395
  310POPC   C4B 4273   3.528   4.002   6.289  0.2221  0.4640 -0.1592
  311POPC   NC3 4274   8.173   5.298   5.165  0.1189  0.0967 -0.4198
  311POPC   PO4 4275   8.105   5.678   5.007  0.1317 -0.0414 -0.0930
  311POPC   GL1 4276   7.960   5.748   5.399  0.0240  0.2362  0.1070
  311POPC   GL2 4277   7.605   5.900   5.405 -0.0982  0.0647  0.1457
  311POPC   C1A 4278   7.955   6.071   5.772 -0.2297 -0.1952 -0.0578
  311POPC   D2A 4279   8.016   6.393   6.018  0.3397 -0.0834 -0.0166
  311POPC   C3A 4280   8.103   6.283   6.350  0.3196 -0.1524  0.5674
  311POPC   C4A 4281   7.934   6.099   6.778 -0.0431 -0.1647  0.1874
  311POPC   C1B 4282   7.501   5.868   5.866  0.3191  0.1430 -0.0909
  311POPC   C2B 4283   7.700   5.952   6.292  0.0920  0.0260 -0.2751
  311POPC   C3B 4284   7.577   5.771   6.733 -0.1317  0.0248  0.1848
  311POPC   C4B 4285   7.818   5.441   6.963 -0.0666 -0.1986  0.1108
  312POPC   NC3 4286   1.789   9.779   3.239 -0.0309  0.2143 -0.0306
  312POPC   PO4 4287   2.130   9.983   3.451 -0.0421  0.0140  0.2008
  312POPC   GL1 4288   2.139   9.744   3.772  0.1393 -0.1525 -0.1770
  312POPC   GL2 4289   2.418   9.812   4.072  0.1813 -0.0972  0.3096
  312POPC   C1A 4290   1.897   9.492   4.097  0.0443  0.1224  0.1581
  312POPC   D2A 4291   1.650   9.130   4.221  0.1676 -0.0695  0.0418
  312POPC   C3A 4292   1.454   9.207   4.755 -0.2313  0.0206 -0.2503
  312POPC   C4A 4293   1.356   8.902   5.029  0.0810 -0.2781 -0.3127
  312POPC   C1B 4294   2.132   9.804   4.369 -0.1012 -0.0614  0.1154
  312POPC   C2B 4295   2.210  10.051   4.798  0.0895  0.0443 -0.2029
  312POPC   C3B 4296   2.308  10.001   5.302  0.0681 -0.0054  0.0660
  312POPC   C4B 4297   2.300   9.699   5.632 -0.0027 -0.0426  0.2633
  313POPC   NC3 4298   8.923   8.774   5.177  0.0668  0.0573  0.1839
  313POPC   PO4 4299   8.555   8.875   5.053 -0.0070 -0.1466  0.0787
  313POPC   GL1 4300   8.598   8.917   5.585  0.0424  0.0759 -0.1693
  313POPC   GL2 4301   8.339   8.674   5.663 -0.0486  0.0343  0.1109
  313POPC   C1A 4302   8.701   8.910   6.026  0.2602  0.1029 -0.0806
  313POPC   D2A 4303   8.924   8.705   6.296 -0.0577 -0.3419 -0.0387
  313POPC   C3A 4304   8.955   8.189   6.444 -0.2353 -0.2660 -0.2336
  313POPC   C4A 4305   8.660   7.960   6.720 -0.1422 -0.2490  0.1159
  313POPC   C1B 4306   8.196   8.799   6.046 -0.1284 -0.1923  0.0170
  313POPC   C2B 4307   7.909   9.026   6.331 -0.0660 -0.1106  0.0566
  313POPC   C3B 4308   7.825   9.060   6.730 -0.0105 -0.0639  0.0711
  313POPC   C4B 4309   7.634   8.847   7.153 -0.1784  0.0934  0.1115
  314POPC   NC3 4310   0.124   6.395   5.187 -0.3723 -0.0880 -0.2997
  314POPC   PO4 4311  -0.140   6.189   5.306 -0.0771  0.0883 -0.1404
  314POPC   GL1 4312  -0.262   6.472   5.631 -0.0492  0.1543  0.0012
  314POPC   GL2 4313   0.076   6.601   5.642 -0.0919  0.1860 -0.0974
  314POPC   C1A 4314  -0.275   6.385   6.047 -0.3473  0.2166  0.0020
  314POPC   D2A 4315  -0.125   6.390   6.470  0.0442  0.0944 -0.2050
  314POPC   C3A 4316   0.218   6.499   6.696 -0.0698 -0.1433  0.0562
  314POPC   C4A 4317   0.542   6.331   7.088  0.3521  0.0856  0.0250
  314POPC   C1B 4318   0.161   6.966   5.798  0.1353  0.2187 -0.2118
  314POPC   C2B 4319   0.394   7.215   6.153 -0.0476 -0.1622 -0.2597
  314POPC   C3B 4320   0.719   7.535   6.342 -0.1141 -0.0695  0.2965
  314POPC   C4B 4321   1.006   7.857   6.329  0.1293  0.1496  0.3589
  315POPC   NC3 4322   5.030   2.451   5.237 -0.0050  0.2784 -0.1527
  315POPC   PO4 4323   5.294   2.045   5.031  0.1747  0.2621 -0.0597
  315POPC   GL1 4324   5.134   1.835   5.388 -0.1251 -0.1112  0.0801
  315POPC   GL2 4325   4.866   1.978   5.472  0.1201  0.1972  0.1210
  315POPC   C1A 4326   5.240   1.604   5.687  0.0996  0.3629 -0.0897
  315POPC   D2A 4327   5.279   1.409   6.110  0.1502  0.0482 -0.0302
  315POPC   C3A 4328   5.040   1.373   6.456  0.1925  0.0090 -0.0255
  315POPC   C4A 4329   5.099   1.113   6.883 -0.0784  0.0020  0.0858
  315POPC   C1B 4330   5.040   2.061   5.879  0.4360 -0.0212  0.2337
  315POPC   C2B 4331   5.468   1.957   6.083 -0.0330 -0.1409 -0.1368
  315POPC   C3B 4332   5.565   1.706   6.448  0.3038 -0.0258 -0.0678
  315POPC   C4B 4333   5.292   1.710   6.854  0.3172 -0.0391  0.1175
  316POPC   NC3 4334   6.224   0.862   5.163  0.3045  0.3851  0.0012
  316POPC   PO4 4335   6.605   1.150   5.247  0.0707  0.2614 -0.0220
  316POPC   GL1 4336   6.769   1.074   5.604 -0.3144 -0.1232 -0.3667
  316POPC   GL2 4337   6.611   1.089   5.881  0.0911 -0.3063 -0.1953
  316POPC   C1A 4338   7.069   1.155   6.002  0.1207  0.0053 -0.2594
  316POPC   D2A 4339   7.234   1.157   6.352 -0.0236  0.0338  0.0965
  316POPC   C3A 4340   6.984   1.330   6.672 -0.1903  0.0653 -0.0972
  316POPC   C4A 4341   6.477   1.284   7.012  0.1939 -0.0249 -0.1730
  316POPC   C1B 4342   6.617   1.237   6.304  0.2117  0.2076 -0.3288
  316POPC   C2B 4343   6.535   1.527   6.594 -0.0579  0.2905  0.0886
  316POPC   C3B 4344   6.576   1.751   6.823 -0.1596 -0.0827  0.1002
  316POPC   C4B 4345   6.267   1.947   7.189 -0.0889  0.0892  0.1123
  317POPC   NC3 4346   6.057   2.666   4.972 -0.1742 -0.0012 -0.1295
  317POPC   PO4 4347   6.008   2.514   5.342  0.1106 -0.2250  0.2398
  317POPC   GL1 4348   6.182   2.702   5.769  0.1786 -0.1300 -0.1286
  317POPC   GL2 4349   6.035   2.787   5.889 -0.0280 -0.0837  0.1497
  317POPC   C1A 4350   6.271   2.452   6.147 -0.1083 -0.4298 -0.0715
  317POPC   D2A 4351   6.278   2.336   6.575  0.0221 -0.1894 -0.0328
  317POPC   C3A 4352   6.122   2.602   6.775 -0.2034  0.0868 -0.0159
  317POPC   C4A 4353   6.266   3.000   7.029  0.0233  0.2187 -0.0470
  317POPC   C1B 4354   5.880   2.716   6.335  0.3799 -0.1086  0.0327
  317POPC   C2B 4355   5.569   2.775   6.736  0.0937 -0.0310  0.0367
  317POPC   C3B 4356   5.514   3.147   7.001 -0.3299 -0.2076 -0.4326
  317POPC   C4B 4357   5.558   3.548   7.148  0.1295  0.4043 -0.1472
  318POPC   NC3 4358   9.289   6.955   5.119 -0.0972  0.0984  0.0762
  318POPC   PO4 4359   9.514   6.644   5.241  0.1224  0.2519 -0.0316
  318POPC   GL1 4360   9.465   6.820   5.636 -0.2119  0.2138  0.1020
  318POPC   GL2 4361   9.808   7.029   5.645  0.1921  0.2235  0.2211
  318POPC   C1A 4362   9.477   6.656   6.119  0.3850  0.2819  0.2331
  318POPC   D2A 4363   9.647   6.729   6.568 -0.0894  0.1675  0.0424
  318POPC   C3A 4364   9.270   6.679   6.709  0.1016  0.2168  0.3868
  318POPC   C4A 4365   9.019   6.759   6.390 -0.0726  0.1653  0.0898
  318POPC   C1B 4366   9.777   7.128   6.115 -0.1865  0.0961 -0.0916
  318POPC   C2B 4367   9.591   7.272   6.467  0.1350  0.0787 -0.0559
  318POPC   C3B 4368   9.538   7.255   6.850 -0.0503 -0.3354  0.0774
  318POPC   C4B 4369   9.521   6.921   7.100 -0.0128 -0.0344 -0.0818
  319W        W 4370   5.242   5.705  11.923  0.0087 -0.1274 -0.0377
  320W        W 4371   0.452   0.984   9.974 -0.0166 -0.1546 -0.1420
  321W        W 4372   9.161   9.218  12.886  0.0621 -0.0543  0.0801
  322W        W 4373   2.675   6.321   4.446 -0.0075  0.3065 -0.0498
  323W        W 4374   7.581   5.821   9.269 -0.0559 -0.0217  0.2057
  324W        W 4375   7.106   5.433   3.526  0.1533 -0.1553 -0.0302
  325W        W 4376   1.562   6.274  12.453 -0.0026  0.1764 -0.0037
  326W        W 4377   6.849   7.688   0.487  0.0004 -0.0988 -0.3420
  327W        W 4378   1.827   9.779  12.875 -0.1275 -0.1223 -0.1367
  328W        W 4379   2.687   2.790   4.406  0.2198 -0.2252  0.1905
  329W        W 4380   7.041   6.038   4.702 -0.1025  0.0506 -0.0708
  330W        W 4381   2.359   5.274   0.713 -0.0562 -0.3620 -0.3433
  331W        W 4382   3.336   1.754   1.290 -0.0654  0.1081 -0.1168
  332W        W 4383   3.191   6.874   0.113 -0.2646  0.1192 -0.4697
  333W        W 4384   8.998   2.118   2.540 -0.1710  0.2870  0.2144
  334W        W 4385   9.340   1.045   9.829 -0.1754  0.1986 -0.1379
  335W        W 4386   4.034   3.846  11.000  0.1366 -0.0122 -0.1086
  336W        W 4387   3.550   4.829   1.022  0.0722  0.2621 -0.3606
  337W        W 4388   2.154   6.470   2.273 -0.1228 -0.0121 -0.0278
  338W        W 4389   5.972   6.567  10.512 -0.2083  0.2340 -0.1956
  339W        W 4390   2.409   8.764   0.363 -0.1885  0.0227  0.2714
  340W        W 4391   0.750   2.103  10.829 -0.2313  0.0726  0.0087
  341W        W 4392   3.391   6.882   1.927  0.2451  0.2476 -0.3096
  342W        W 4393   6.406   5.149   4.765 -0.0290 -0.0280 -0.1345
  343W        W 4394   2.579   7.081  12.783  0.0594 -0.0222 -0.1397
  344W        W 4395   4.071   2.994  10.616  0.3325  0.0185  0.0726
  345W        W 4396   3.700   3.454  13.306  0.1067  0.0376 -0.1491
  346W        W 4397   0.764  10.051  13.393 -0.3089  0.0310  0.0543
  347W        W 4398   4.629   0.400  13.843  0.0673 -0.0702  0.0945
  348W        W 4399   2.335   7.283   2.796  0.1959 -0.0983 -0.2835
  349W        W 4400   2.819   0.059   2.202  0.3808 -0.0184  0.1532
  350W        W 4401   7.255   0.320   0.019 -0.0916 -0.1602 -0.4277
  351W        W 4402   8.507   5.614  10.456  0.2629 -0.1598 -0.0233
  352W        W 4403   8.058   4.465  14.047 -0.1271 -0.0198 -0.2470
  353W        W 4404   1.265   1.805   2.281 -0.1859  0.4747  0.1204
  354W        W 4405   0.349   3.733  10.953 -0.0833  0.1543 -0.0966
  355W        W 4406   5.375   0.005  10.398 -0.1869 -0.3783  0.0009
  356W        W 4407   9.231   3.114  13.666 -0.6467 -0.0643 -0.0451
  357W        W 4408   7.905   2.987   0.573  0.0633 -0.0451 -0.0076
  358W        W 4409   2.508   6.230   0.033  0.1215  0.0397 -0.1195
  359W        W 4410   8.877   1.779   3.389 -0.0291 -0.2034 -0.2140
  360W        W 4411   3.762   6.601   3.180  0.0815 -0.0798 -0.0704
  361W        W 4412   5.023   0.960  11.840 -0.0313  0.1512 -0.1498
  362W        W 4413   1.395   1.494   0.925 -0.0989 -0.2298  0.1003
  363W        W 4414   2.702   0.119  13.609 -0.0048  0.0556 -0.1461
  364W        W 4415   6.619   8.443  13.852 -0.2679  0.0537  0.2582
  365W        W 4416   1.191   8.899   0.907  0.0351  0.0734  0.0181
  366W        W 4417   9.858   1.115   2.227 -0.0270 -0.0773 -0.1496
  367W        W 4418   9.373   7.288  11.032  0.3506  0.1939 -0.2992
  368W        W 4419   8.618   3.866   4.532  0.1339  0.0894 -0.0295
  369W        W 4420   3.903   6.713  12.611  0.0852  0.1420 -0.0387
  370W        W 4421   4.676   0.692  12.136  0.1267  0.0628  0.1327
  371W        W 4422   3.366   0.440  12.551  0.2194 -0.1393 -0.0224
  372W        W 4423   5.167   0.368  12.975 -0.0172  0.2664  0.2490
  373W        W 4424   8.132   6.045   0.063 -0.2564  0.3051  0.0933
  374W        W 4425   1.956   4.535   3.226  0.0119  0.0366  0.0947
  375W        W 4426   3.608   4.475   0.561 -0.0119  0.2185  0.0448
  376W        W 4427   1.412   6.882  11.873  0.0947 -0.4719  0.1111
  377W        W 4428   1.562   8.395  12.358 -0.0599  0.0924  0.0005
  378W        W 4429   5.922  10.119   1.217  0.2139 -0.0614 -0.3364
  379W        W 4430   4.022   6.702  13.271 -0.2047  0.1367 -0.3543
  380W        W 4431   1.023   4.847  11.729 -0.4483  0.0603  0.0359
  381W        W 4432   5.583   9.578   1.871 -0.2563  0.2166 -0.2276
  382W        W 4433   3.463   5.549  11.820 -0.0267  0.0183  0.2327
  383W        W 4434   6.118   6.672   3.307 -0.1201  0.2842 -0.3098
  384W        W 4435   5.096   2.221  10.424  0.1075  0.1214 -0.0870
  385W        W 4436   4.564   5.764   3.800  0.0040  0.1824 -0.0526
  386W        W 4437   5.016   8.631  13.486 -0.1512 -0.0182 -0.0527
  387W        W 4438   8.658   5.564   3.953 -0.2493 -0.0215 -0.0700
  388W        W 4439   7.395   6.553  12.267 -0.0352 -0.0470  0.2567
  389W        W 4440   7.826   8.712  11.927  0.1049  0.1170  0.2697
  390W        W 4441  10.121   5.550  11.398 -0.1384 -0.1932 -0.2035
  391W        W 4442   7.562   2.226  11.997  0.5148 -0.0836 -0.0364
  392W        W 4443   8.907   2.633   2.371 -0.1372  0.2635 -0.1767
  393W        W 4444   2.703   6.412   9.592  0.0179  0.0496 -0.3685
  394W        W 4445   2.829   7.550   1.474 -0.1101 -0.2729  0.1712
  395W        W 4446   1.167   2.777   1.623  0.0938 -0.0674 -0.0787
  396W        W 4447   3.609   2.469  10.059 -0.2348 -0.0732  0.0304
  397W        W 4448   7.026   7.047   0.079 -0.1473  0.2384  0.0236
  398W        W 4449   5.613   8.170  13.959 -0.1717 -0.5110  0.0775
  399W        W 4450   5.250   3.699   2.123  0.0322  0.4085 -0.2138
  400W        W 4451   5.986   7.456   8.814 -0.0901 -0.2020  0.0459
  401W        W 4452   4.997   5.715   2.870 -0.0219 -0.0147 -0.0574
  402W        W 4453   8.319   6.075   2.121  0.2397  0.1372  0.1225
  403W        W 4454   7.438   2.921  10.577  0.1798 -0.4982 -0.0200
  404W        W 4455   8.879   7.321   1.576 -0.1582 -0.1513  0.0023
  405W        W 4456   2.511   9.786   6.074 -0.0015 -0.1108  0.2778
  406W        W 4457   6.475   8.369   9.220  0.0395  0.2184  0.3132
  407W        W 4458   7.931   3.573   1.542  0.0338  0.0471  0.2117
  408W        W 4459   3.223   0.681  10.272 -0.2887  0.2011 -0.0191
  409W        W 4460   5.074   9.014   9.465 -0.0881 -0.1881  0.4971
  410W        W 4461   7.312   3.620   0.986  0.1748 -0.1227  0.1856
  411W        W 4462   4.836   6.975  11.291  0.1348  0.1121 -0.1842
  412W        W 4463  10.059   6.080  10.136 -0.1508  0.2494  0.1685
  413W        W 4464   2.453   0.562  11.033 -0.3305 -0.2177  0.0623
  414W        W 4465   5.639   9.074   2.070 -0.5945  0.2565  0.1595
  415W        W 4466   3.730   6.345  10.605 -0.0282  0.0506 -0.0722
  416W        W 4467   3.085   6.056  11.600  0.1757 -0.1620  0.0591
  417W        W 4468   2.834   6.395  12.420  0.0568  0.0243  0.2180
  418W        W 4469   5.922   8.323   0.531 -0.0760  0.1294  0.2782
  419W        W 4470   6.411   2.395   0.561 -0.2890  0.1257  0.1453
  420W        W 4471   8.039   5.395   2.817  0.1468  0.1061 -0.0529
  421W        W 4472   7.264   4.620   2.453 -0.1630  0.4211 -0.0892
  422W        W 4473   0.799   5.644   2.889  0.0535  0.0525  0.0216
  423W        W 4474   7.120   3.697  10.236  0.1351  0.0538 -0.4153
  424W        W 4475   1.383   6.845   1.887 -0.0042 -0.0566  0.2674
  425W        W 4476   4.624   3.356  11.383 -0.0652 -0.1111 -0.1031
  426W        W 4477   7.830   1.048   3.027 -0.1268 -0.0457 -0.1738
  427W        W 4478   4.507   1.527   1.939 -0.1484 -0.0742  0.1728
  428W        W 4479   6.350   2.735  11.254 -0.0502 -0.1139 -0.0127
  429W        W 4480   6.147   4.623  11.342 -0.0807 -0.1212 -0.2017
  430W        W 4481   1.508   5.005   4.954  0.0131 -0.1283  0.0912
  431W        W 4482   0.346   1.374   0.425  0.3388  0.1467  0.3038
  432W        W 4483   6.549   4.379   1.391 -0.2946  0.2370  0.1881
  433W        W 4484   5.284   5.769   1.692  0.0082 -0.1584  0.0045
  434W        W 4485   9.301   4.566  12.960 -0.0526 -0.1504  0.1829
  435W        W 4486   5.616   9.512   1.134  0.1305 -0.0890 -0.0576
  436W        W 4487   3.445   0.755  12.970 -0.0498 -0.0428 -0.0707
  437W        W 4488   3.497   9.688   1.835  0.1151  0.0132 -0.0790
  438W        W 4489   0.510   1.278   1.638 -0.0603  0.0345 -0.1146
  439W        W 4490   8.276   7.912  13.347  0.1050  0.0089  0.3657
  440W        W 4491   7.999   4.718   2.057 -0.2665  0.0021 -0.1816
  441W        W 4492   0.201   2.928  11.011 -0.0685 -0.1668 -0.0166
  442W        W 4493   3.242   5.224  13.740  0.0859 -0.0024  0.0181
  443W        W 4494   0.748   1.330  13.164 -0.1514 -0.1788  0.0857
  444W        W 4495   7.321   6.601   4.514 -0.0111 -0.0734  0.1880
  445W        W 4496   9.387   6.789  12.375 -0.0489 -0.0612  0.1074
  446W        W 4497   0.939   9.890  11.202 -0.0504  0.0863 -0.3810
  447W        W 4498   3.605   1.180   2.706  0.1238  0.0974 -0.1376
  448W        W 4499   4.933   0.453   4.663  0.1334 -0.1235  0.1155
  449W        W 4500   8.639   9.023  12.162 -0.1783 -0.0564  0.0307
  450W        W 4501   6.762   2.604   9.117  0.0972  0.1182  0.1525
  451W        W 4502   3.997   7.234   3.753  0.0055  0.4719 -0.1774
  452W        W 4503   8.641   7.843   4.736  0.0659  0.2314 -0.2030
  453W        W 4504   1.092   6.926   3.523  0.1826 -0.0128 -0.3149
  454W        W 4505   1.019   9.756   1.485  0.4538  0.0037  0.0479
  455W        W 4506   4.528   2.770   1.195 -0.0069 -0.0588 -0.3109
  456W        W 4507   7.248   8.010  11.995  0.0850 -0.0954  0.0609
  457W        W 4508   8.472   3.335   3.195  0.3213 -0.1743 -0.2431
  458W        W 4509   3.210   9.025   1.196  0.0367  0.1405  0.2472
  459W        W 4510   9.885   1.963   3.439 -0.0113 -0.0331  0.1442
  460W        W 4511   4.124   5.894  10.478  0.0180  0.0447 -0.1023
  461W        W 4512   4.190   5.205  11.209 -0.0907 -0.0262  0.1423
  462W        W 4513   2.995   7.569   0.716  0.0168 -0.1123 -0.1452
  463W        W 4514   7.619   1.152  13.611 -0.0110 -0.1199 -0.2891
  464W        W 4515   4.740   6.158   1.065 -0.0272 -0.0753  0.0569
  465W        W 4516   4.045   2.250  10.969 -0.3960  0.1093  0.0433
  466W        W 4517   2.478   8.603  12.561 -0.2307 -0.0898  0.2285
  467W        W 4518   6.851   9.179   9.938  0.0364  0.4078  0.0428
  468W        W 4519   8.560   5.187  13.268  0.0764  0.1059  0.1237
  469W        W 4520   5.455   3.286   3.291  0.0239 -0.1698 -0.0593
  470W        W 4521   2.073   4.036  12.794  0.0628 -0.0021  0.0151
  471W        W 4522   3.768   8.999   0.810 -0.0441  0.1044 -0.2051
  472W        W 4523   5.233   1.138   5.523  0.3909  0.1103 -0.0522
  473W        W 4524   6.376   1.594   5.532  0.2510  0.1665  0.2372
  474W        W 4525   5.022   2.080   9.522 -0.2767 -0.1072  0.0543
  475W        W 4526   0.958   3.418   8.902 -0.0087  0.0628  0.0538
  476W        W 4527   3.608   3.327   3.611 -0.0677  0.0289 -0.2278
  477W        W 4528   8.309   2.897   0.950 -0.1176  0.0204  0.0569
  478W        W 4529   5.767   3.311  12.620  0.0928  0.1855 -0.1854
  479W        W 4530   0.077   6.329   1.333  0.1098  0.1545 -0.0493
  480W        W 4531   2.109   9.337  12.873  0.1899  0.1194 -0.3596
  481W        W 4532   2.173   4.797   1.516 -0.0074 -0.1570  0.0072
  482W        W 4533   9.135   7.638   4.556 -0.1485 -0.2702  0.0273
  483W        W 4534   1.883   6.333   9.767  0.1357 -0.1250 -0.1814
  484W        W 4535   6.211   5.347   9.012 -0.1093  0.1731 -0.0688
  485W        W 4536   4.009   5.682  11.419 -0.0196  0.1172  0.1886
  486W        W 4537   7.006   0.209  11.465  0.2578 -0.2959 -0.1685
  487W        W 4538   9.293   1.944  13.582  0.0083 -0.1721  0.2219
  488W        W 4539   0.749   0.590   4.537 -0.1615 -0.2585  0.2956
  489W        W 4540   5.296   9.827   3.293 -0.1988 -0.4126 -0.2306
  490W        W 4541   8.386   4.481   9.212  0.1521  0.2575 -0.0725
  491W        W 4542   0.246   0.080  12.926  0.0375 -0.0615  0.1286
  492W        W 4543   7.308   3.790   9.752 -0.1226 -0.2560  0.1627
  493W        W 4544   5.642   3.010   0.343 -0.2899  0.1938 -0.0893
  494W        W 4545   5.417   8.961   0.252  0.0519 -0.1868 -0.1013
  495W        W 4546   5.345   0.997   4.076  0.1817 -0.1653 -0.1664
  496W        W 4547   0.296   7.038   4.505  0.1487 -0.1180 -0.1773
  497W        W 4548   8.365   2.978   4.110 -0.0698  0.1813  0.0309
  498W        W 4549   6.653   9.877   1.987 -0.0120  0.4126  0.0334
  499W        W 4550   6.219   3.480   4.413 -0.0230  0.1010  0.2610
  500W        W 4551   5.722   4.353  13.353 -0.2097 -0.2017  0.0537
  501W        W 4552   6.499   9.187   8.773  0.0164 -0.0568 -0.0500
  502W        W 4553   7.293   4.656  13.404 -0.0870  0.0253 -0.1101
  503W        W 4554   0.850   6.267   3.011  0.0921  0.0632 -0.1664
  504W        W 4555   2.017   1.798  11.937 -0.0352 -0.2073  0.3627
  505W        W 4556   5.102   4.879  13.787 -0.0767  0.1522  0.0258
  506W        W 4557   5.085   4.512   9.024 -0.1660 -0.0316 -0.3607
  507W        W 4558   2.079   5.262   1.113  0.0779  0.1093 -0.0225
  508W        W 4559   1.416   4.656  12.498 -0.0994  0.4406 -0.2205
  509W        W 4560   0.896   2.258   0.891 -0.1252  0.3006  0.0811
  510W        W 4561   0.358   0.523  12.177 -0.1142 -0.2165 -0.2022
  511W        W 4562   6.292   9.669  10.016  0.0833 -0.2472 -0.2166
  512W        W 4563   9.051   1.771   3.923 -0.0598 -0.1931  0.0475
  513W        W 4564   9.233   2.042   0.092 -0.1466 -0.0916  0.0867
  514W        W 4565   0.597   9.069  12.831 -0.0416  0.0904  0.0646
  515W        W 4566   0.870   7.740   0.538  0.0920  0.1932 -0.0497
  516W        W 4567   3.294   0.990   3.147  0.0933  0.0070 -0.2786
  517W        W 4568   7.696   2.697   1.968 -0.1333 -0.0963  0.1874
  518W        W 4569   5.467   4.858   2.889  0.2892  0.2122  0.2415
  519W        W 4570   5.158   8.296   9.794 -0.1674  0.0646  0.0109
  520W        W 4571   8.787   4.822   1.028  0.1322 -0.1412 -0.0547
  521W        W 4572   3.101   7.405  11.481  0.1436  0.1815  0.1382
  522W        W 4573   2.416   0.201   2.627 -0.0711  0.0867  0.2365
  523W        W 4574   3.899   0.322  12.622 -0.0166  0.0461 -0.0012
  524W        W 4575   6.076   3.157   3.973 -0.2141 -0.1392 -0.4114
  525W        W 4576   6.930   4.219  11.887 -0.3361 -0.2584  0.4859
  526W        W 4577   1.026   2.175  11.826  0.1658 -0.3819  0.0773
  527W        W 4578   8.655   2.105   5.567  0.1027  0.1692 -0.2760
  528W        W 4579   6.129   2.051   5.428  0.0254 -0.0215 -0.1014
  529W        W 4580   9.859   3.835   2.128  0.3150  0.2964  0.1708
  530W        W 4581   5.377   3.206  13.531 -0.0509 -0.1301 -0.1922
  531W        W 4582   0.439   7.328   1.166  0.3550 -0.2844  0.0568
  532W        W 4583   4.149   4.818   0.887  0.1090  0.1756  0.1894
  533W        W 4584   0.014   1.233   1.464 -0.3809 -0.5665  0.2303
  534W        W 4585   3.839   7.869  11.170 -0.0401 -0.2015  0.3957
  535W        W 4586   3.478   1.773   3.623  0.3254  0.1481 -0.1958
  536W        W 4587   7.546   0.962  13.124 -0.0277  0.1268 -0.1447
  537W        W 4588   0.053   0.448  13.676 -0.3804  0.2543  0.2613
  538W        W 4589   9.180   9.590  13.830 -0.0939  0.1331 -0.0575
  539W        W 4590   6.504   4.987   2.161  0.1787 -0.1677  0.0634
  540W        W 4591   5.331   3.976  10.322 -0.0047 -0.0613 -0.1724
  541W        W 4592   6.015   0.233   2.377 -0.2680  0.0948 -0.1149
  542W        W 4593   0.171   8.403  10.669 -0.0451 -0.2678  0.0972
  543W        W 4594   6.263   0.647   2.252  0.4030 -0.0623 -0.0834
  544W        W 4595   4.535   8.420  13.426 -0.3164 -0.2135  0.1285
  545W        W 4596   9.963   4.265   1.229 -0.1369  0.2167  0.0088
  546W        W 4597   3.248   7.919   3.536  0.1735 -0.0066  0.5854
  547W        W 4598   4.310   2.866   1.676  0.1300 -0.0607  0.0268
  548W        W 4599   0.343   9.142  11.860  0.1065 -0.0325 -0.2427
  549W        W 4600   1.591   6.527   2.370  0.1468 -0.3182 -0.0325
  550W        W 4601   1.431   8.176  11.916 -0.0589 -0.3186  0.2415
  551W        W 4602   3.465  10.089  13.344 -0.0428  0.3891  0.4243
  552W        W 4603   6.017   3.372  13.326  0.0597  0.0481  0.2393
  553W        W 4604  10.077   1.499   1.849  0.0864  0.1156  0.2223
  554W        W 4605   7.863   0.079   4.447 -0.1328 -0.0986 -0.3048
  555W        W 4606   8.118   5.498  10.767  0.2668 -0.3354 -0.0297
  556W        W 4607   5.607   8.253   1.953 -0.2722  0.1294 -0.7298
  557W        W 4608   8.740   3.276   2.760  0.3352  0.0722  0.1902
  558W        W 4609   4.776   7.047  13.661  0.1162  0.1838  0.1352
  559W        W 4610   2.875   2.437  11.445 -0.3097 -0.0733 -0.0047
  560W        W 4611   1.784   2.869   1.726 -0.0279  0.5259 -0.0862
  561W        W 4612   0.042   6.314  10.574  0.0473  0.0884  0.0490
  562W        W 4613   3.613   2.134   0.441 -0.0834 -0.5013  0.0690
  563W        W 4614   1.892   9.457   2.877  0.6145  0.1105  0.1963
  564W        W 4615   4.761   6.256  12.552  0.0385 -0.0176 -0.0590
  565W        W 4616   8.175   1.103   4.865 -0.1033  0.2238  0.3773
  566W        W 4617   4.282   4.246  13.930 -0.0751 -0.3727  0.1741
  567W        W 4618   8.145   5.059  12.547  0.1435 -0.3501  0.0536
  568W        W 4619   3.386  10.054  12.468  0.2907  0.0900  0.0827
  569W        W 4620   1.603   0.355   0.305 -0.2363 -0.0898 -0.2128
  570W        W 4621   8.450   5.307  12.228  0.1262  0.1185  0.1127
  571W        W 4622   0.891   7.641   4.700  0.0125  0.2826  0.1112
  572W        W 4623   1.550   2.202   2.198  0.0520 -0.1525  0.1357
  573W        W 4624   5.334   4.444   0.861 -0.2357 -0.2888 -0.0279
  574W        W 4625   4.486   3.622   2.932 -0.1908 -0.2745  0.0429
  575W        W 4626   8.018   5.241   1.955  0.2894  0.2506 -0.2978
  576W        W 4627   2.388   3.775  13.650 -0.1848 -0.1516  0.2888
  577W        W 4628   6.467   7.262   1.480 -0.0133 -0.3712 -0.0046
  578W        W 4629   0.472   9.777  11.580  0.1252  0.1379  0.1170
  579W        W 4630   2.033   3.529   8.907 -0.0021  0.2668  0.0077
  580W        W 4631   1.184   1.390  10.575  0.0455  0.3182 -0.3785
  581W        W 4632   1.301   8.412   0.009  0.1565 -0.0245 -0.1081
  582W        W 4633   5.409   4.420   4.021  0.1277  0.0442 -0.2228
  583W        W 4634   4.743   8.436   3.055  0.1358 -0.1173 -0.2415
  584W        W 4635   1.381   5.739   1.994  0.1273  0.2646  0.0087
  585W        W 4636   6.362   8.547   1.635 -0.0597  0.0783  0.2654
  586W        W 4637   1.896   7.445   2.470 -0.0225 -0.0815  0.2108
  587W        W 4638   4.552   5.646   5.027  0.2609  0.1736 -0.0883
  588W        W 4639   2.479   6.528  12.055 -0.0800  0.0331  0.0333
  589W        W 4640   9.118  10.089   0.231 -0.1722 -0.0631 -0.0740
  590W        W 4641   1.421   6.234   1.858 -0.3138  0.4704  0.3495
  591W        W 4642   6.123   7.993  12.055  0.2960  0.0628 -0.1144
  592W        W 4643   7.183   4.097   0.768 -0.2512  0.1521  0.0479
  593W        W 4644   6.294   9.198   4.623 -0.1286 -0.1042  0.1357
  594W        W 4645   2.921   1.847  11.040 -0.0882  0.2045  0.1177
  595W        W 4646   4.753   4.299  12.879  0.0032  0.2106 -0.1360
  596W        W 4647   9.016   9.650  11.545  0.0538 -0.0358 -0.0824
  597W        W 4648   1.683   7.882   4.743 -0.1620  0.1653  0.2502
  598W        W 4649   6.843   7.513   4.733  0.0529  0.2679 -0.1937
  599W        W 4650   8.886   6.323   3.429 -0.0605  0.0426 -0.2182
  600W        W 4651   0.751   8.877   3.788 -0.1546 -0.0669  0.3006
  601W        W 4652   1.377   1.006   0.691  0.1122 -0.0043  0.2544
  602W        W 4653   1.660   9.964   2.614  0.1849  0.2260  0.1378
  603W        W 4654   9.693   6.322   1.500 -0.2446  0.1253 -0.1545
  604W        W 4655   5.711   8.659   1.719 -0.2827 -0.2241 -0.2339
  605W        W 4656   8.238   7.729  12.068 -0.5480 -0.0090  0.3468
  606W        W 4657   1.421   8.865   0.115  0.0574  0.1485  0.1379
  607W        W 4658   9.452   8.567   3.033 -0.0869  0.2171  0.1701
  608W        W 4659   6.501   6.513  11.771  0.0937 -0.0524 -0.0586
  609W        W 4660   7.412   0.034   0.431 -0.4538  0.1442  0.0368
  610W        W 4661   7.134   1.148  12.890  0.0136 -0.4303  0.2905
  611W        W 4662   3.695   8.059   0.078  0.1204  0.1322 -0.4122
  612W        W 4663   0.292   9.765  13.109 -0.0348 -0.2073 -0.1309
  613W        W 4664   3.220   0.971  13.347 -0.0178 -0.2619 -0.1371
  614W        W 4665   9.957   9.437   2.677  0.2744  0.1741 -0.2142
  615W        W 4666   4.933   9.882   1.074 -0.4307  0.1084  0.1472
  616W        W 4667   1.678   4.703   1.829  0.0272 -0.1200  0.3049
  617W        W 4668   5.711   1.160  13.203 -0.0154  0.1803 -0.0781
  618W        W 4669   7.907   1.520   9.735 -0.0342  0.1561  0.2511
  619W        W 4670   9.833   6.479  11.333 -0.0203  0.1039  0.1587
  620W        W 4671   3.455   3.012   9.241  0.4769  0.2416  0.1212
  621W        W 4672   1.061   2.820  13.511 -0.0946 -0.0071 -0.0570
  622W        W 4673   8.734  10.029  11.090 -0.1262  0.2533  0.2008
  623W        W 4674   7.249   4.596   4.529  0.1044  0.0354  0.3088
  624W        W 4675  10.161   9.426   4.343 -0.0669  0.2267 -0.1195
  625W        W 4676   4.685   9.827   3.172 -0.0667 -0.0161  0.0440
  626W        W 4677   6.055   9.776  10.847 -0.2156 -0.1263  0.0638
  627W        W 4678   6.255   5.831   9.967 -0.0985  0.3096 -0.3735
  628W        W 4679   7.728   8.956   1.201 -0.0683  0.2085 -0.0340
  629W        W 4680   3.393   5.981  10.654  0.0835  0.0044 -0.1493
  630W        W 4681   8.791   3.973   3.459  0.1906  0.0786  0.2345
  631W        W 4682   4.218   9.796   4.639 -0.0780  0.1064  0.0681
  632W        W 4683   8.277   1.009   3.239  0.2677  0.0000 -0.1610
  633W        W 4684   5.007   7.583   3.462  0.2019  0.3085 -0.0107
  634W        W 4685   9.610   1.825   0.348 -0.0332  0.1631  0.3982
  635W        W 4686   4.493   9.860  10.619 -0.0713  0.1780  0.1329
  636W        W 4687   6.529   2.617   4.082  0.1173  0.0096 -0.1728
  637W        W 4688   5.367   2.598  11.523  0.0896  0.1215 -0.0957
  638W        W 4689   2.292   6.162  13.556 -0.2591  0.1330  0.0216
  639W        W 4690   7.763   7.867  12.137  0.1276  0.0843  0.0913
  640W        W 4691   9.749   2.313   0.437  0.3331 -0.3016  0.0657
  641W        W 4692   4.920   6.155  10.884  0.2101 -0.2472  0.4102
  642W        W 4693   8.447   9.424  12.419  0.2436 -0.1863  0.0874
  643W        W 4694   1.839   7.097   3.009  0.0222  0.0630  0.1802
  644W        W 4695   9.728   2.029  10.209  0.5365 -0.1264 -0.0686
  645W        W 4696   2.552   3.294  11.030 -0.1458 -0.0929  0.3251
  646W        W 4697   1.845   9.438  11.027  0.2554 -0.0520  0.0284
  647W        W 4698   0.865   3.084   3.809  0.0376 -0.1442 -0.0169
  648W        W 4699   4.237   3.433  11.971  0.1400  0.0497 -0.1287
  649W        W 4700   4.011   8.993   1.657 -0.0346 -0.1266 -0.1153
  650W        W 4701   2.088   2.217   2.931 -0.0494  0.0304 -0.0925
  651W        W 4702   0.228   9.509  14.037 -0.2726 -0.1754  0.2730
  652W        W 4703   7.736   1.002   3.995 -0.2036  0.1880  0.0349
  653W        W 4704   1.768   6.251  13.624 -0.1670  0.1439  0.3125
  654W        W 4705   2.576   3.191   1.975  0.0856 -0.0103 -0.1648
  655W        W 4706   9.953   7.349   3.633 -0.0218 -0.3281 -0.3967
  656W        W 4707   2.552   8.118   1.787 -0.0908  0.1674 -0.0897
  657W        W 4708   0.121   9.810  11.927  0.2395  0.2135 -0.1423
  658W        W 4709   6.323   4.629   0.974 -0.3728 -0.2413 -0.0794
  659W        W 4710   3.465   3.094   4.474  0.1984 -0.2019 -0.0193
  660W        W 4711   0.164   3.944  10.413 -0.2051 -0.2979  0.0425
  661W        W 4712   1.651   1.337   2.516  0.2240  0.1580 -0.0213
  662W        W 4713   9.490   7.873   5.407 -0.1347  0.2862 -0.0730
  663W        W 4714   8.504   4.548   4.921 -0.1749 -0.0304 -0.4897
  664W        W 4715   4.552   8.955   4.080 -0.2936 -0.0909 -0.0575
  665W        W 4716   7.412   9.167   3.254 -0.1697 -0.3704 -0.1411
  666W        W 4717   2.661   7.454  13.681 -0.0141  0.1014  0.0874
  667W        W 4718   7.769   9.111   1.705 -0.3398  0.0076  0.1158
  668W        W 4719   3.605   5.729   2.800 -0.0474 -0.0134  0.0217
  669W        W 4720   8.236   6.556   0.255 -0.1207 -0.0747 -0.1071
  670W        W 4721   3.526   3.664   4.504  0.0829  0.1954  0.2369
  671W        W 4722   6.619   5.026  11.977  0.0381  0.4723 -0.1128
  672W        W 4723   5.018   2.365   0.010  0.0970  0.0112  0.0030
  673W        W 4724   7.385   9.748   2.416  0.1498  0.0738 -0.0801
  674W        W 4725   1.589   2.676   1.333  0.1212  0.0249 -0.2275
  675W        W 4726   0.818   1.078   4.687  0.2392  0.2115 -0.0551
  676W        W 4727   6.049   9.449   1.891  0.0498  0.2146  0.2603
  677W        W 4728   9.453   4.046  12.326  0.2199 -0.1217  0.0781
  678W        W 4729   0.996   0.539   2.063  0.2602 -0.1026  0.5108
  679W        W 4730   0.609   9.247  10.040 -0.0589  0.1379  0.0432
  680W        W 4731   0.803   5.225   8.825 -0.1593 -0.1247  0.2148
  681W        W 4732   4.871  10.073  10.406 -0.0615 -0.0827 -0.0579
  682W        W 4733   9.896   2.844   9.866  0.0995 -0.0318  0.0877
  683W        W 4734   8.090   5.202   9.659 -0.0981 -0.2010  0.2474
  684W        W 4735   1.036   0.214   1.005  0.4618  0.0940  0.1674
  685W        W 4736   3.930   3.834   1.078 -0.0146  0.0498  0.1813
  686W        W 4737   2.137   1.259   2.596  0.0735  0.0282  0.1313
  687W        W 4738   9.422   3.549   1.587 -0.4009  0.1139 -0.0953
  688W        W 4739   9.540   2.771  10.895 -0.1160  0.1781  0.4752
  689W        W 4740   0.667   3.150  11.850  0.1700 -0.0046 -0.1338
  690W        W 4741   2.885   0.109  10.876  0.0118 -0.0614  0.4515
  691W        W 4742   3.143   5.166  13.239 -0.1950  0.1077  0.0713
  692W        W 4743   9.825   9.871   3.391  0.2305  0.0439  0.1556
  693W        W 4744   2.198   1.531  10.659  0.2172 -0.1810  0.1060
  694W        W 4745   4.278   8.797   2.514 -0.0712 -0.1450  0.1182
  695W        W 4746   0.505   5.373   4.204  0.2553 -0.0662  0.4540
  696W        W 4747   1.205   3.282  13.324  0.0052 -0.2184 -0.0768
  697W        W 4748   6.142   0.345  12.636 -0.1694 -0.0535  0.0223
  698W        W 4749   9.834   7.590   1.512 -0.2781  0.1563 -0.4356
  699W        W 4750   9.461   8.811   5.090 -0.0727  0.0192  0.0942
  700W        W 4751   3.348   7.258   2.718 -0.0823  0.0226 -0.4613
  701W        W 4752   6.017   4.301  12.817 -0.2125 -0.0416 -0.1835
  702W        W 4753   9.736   8.179   3.260 -0.1555 -0.2121 -0.0215
  703W        W 4754   5.152   8.034   2.140  0.1174 -0.2138  0.4740
  704W        W 4755   8.987   0.510  13.958 -0.0481 -0.1384 -0.0808
  705W        W 4756   1.085   8.102  10.962 -0.1022 -0.2124 -0.2285
  706W        W 4757   6.488   6.621   0.708  0.0746  0.2340  0.1737
  707W        W 4758   5.511   8.484   0.328 -0.0056  0.0824 -0.0042
  708W        W 4759   7.978   7.299  10.582 -0.3168 -0.0995 -0.2490
  709W        W 4760   3.147   4.262  11.502 -0.0939  0.0213 -0.0859
  710W        W 4761   3.674   9.556   0.143  0.0169  0.2625 -0.1290
  711W        W 4762   5.440   4.342  12.130  0.2260  0.1417 -0.2241
  712W        W 4763   2.459   5.339   1.720  0.4313 -0.3560 -0.1267
  713W        W 4764   8.152  10.116  13.926  0.2778  0.0558 -0.0745
  714W        W 4765   9.509   5.234   4.873 -0.2041 -0.1387  0.0289
  715W        W 4766   9.906   1.631   2.314 -0.2129  0.3313  0.0960
  716W        W 4767   7.849   8.873   0.590 -0.1225 -0.2981 -0.1138
  717W        W 4768   7.299   1.212  11.897 -0.0660 -0.0287 -0.0588
  718W        W 4769   3.507   2.203  12.794  0.0765  0.2582  0.1033
  719W        W 4770   2.357   2.371   3.528 -0.1454 -0.0838 -0.0318
  720W        W 4771   3.465   4.729   9.386  0.1421 -0.3550 -0.1844
  721W        W 4772   0.856   3.284  12.893  0.3692  0.1318  0.1094
  722W        W 4773   1.694   4.230   1.501  0.3547 -0.0799  0.0846
  723W        W 4774   7.672   1.199  10.870 -0.1195  0.1213  0.2336
  724W        W 4775   2.599   5.220   2.761  0.0242  0.2311  0.0237
  725W        W 4776   1.591   7.056   3.486  0.0895 -0.0261 -0.0102
  726W        W 4777   9.731   1.956   1.860 -0.2637 -0.2406  0.0493
  727W        W 4778   8.460   8.194  10.660  0.1265 -0.4733  0.2473
  728W        W 4779   1.429   3.823   2.629  0.1194  0.1006  0.1249
  729W        W 4780   5.834   7.584   9.381  0.1537 -0.0475 -0.0784
  730W        W 4781   6.891   1.456   4.867  0.1848  0.0122 -0.2829
  731W        W 4782   4.729   8.310  12.484  0.2562 -0.1295  0.1005
  732W        W 4783   5.027   7.213   1.606  0.2065  0.0106  0.0147
  733W        W 4784   8.376   0.741  10.522 -0.2701 -0.0036 -0.1163
  734W        W 4785   8.289   4.566   3.107 -0.2187  0.1016 -0.0033
  735W        W 4786   0.929   8.823  12.488  0.0625 -0.0240 -0.1244
  736W        W 4787   0.728   9.283   0.894 -0.4691 -0.1751 -0.0287
  737W        W 4788   1.436   5.148   3.787  0.3428  0.4523  0.1867
  738W        W 4789   3.106   2.881   4.163  0.1632 -0.2441 -0.1344
  739W        W 4790   9.890   7.113   3.207 -0.0217 -0.1192 -0.1962
  740W        W 4791   5.452   0.905   1.393  0.0589  0.1127 -0.0417
  741W        W 4792   2.124   2.662   9.455  0.0574  0.2552 -0.2744
  742W        W 4793   2.218   1.894   1.723  0.0998  0.1135  0.0873
  743W        W 4794   8.069   2.800  12.288  0.1249 -0.0652  0.0277
  744W        W 4795   2.662   8.606  10.839 -0.1540 -0.0172 -0.2148
  745W        W 4796   4.486   4.000   5.600  0.1621  0.1409  0.1130
  746W        W 4797   5.802   1.046   0.672 -0.1603  0.1118  0.0459
  747W        W 4798   8.169   1.149  13.660  0.3482 -0.1796 -0.1655
  748W        W 4799   6.946   7.815  12.765 -0.0470 -0.1100 -0.1267
  749W        W 4800   0.276   7.665   2.189 -0.0958  0.0758  0.0602
  750W        W 4801   9.909   2.333   9.851 -0.1311 -0.0023 -0.1653
  751W        W 4802   3.267   3.018   8.454 -0.2033  0.1696  0.1136
  752W        W 4803   5.420   4.820  12.528  0.0933  0.0788 -0.1890
  753W        W 4804   5.817   7.012  11.213 -0.1466 -0.3308  0.0073
  754W        W 4805   1.770   0.218   1.686  0.0836 -0.5253  0.1261
  755W        W 4806   2.539   8.647   2.963  0.2860  0.1859  0.0105
  756W        W 4807   9.586   5.508  10.276  0.3602  0.0045  0.0893
  757W        W 4808   1.416   3.336   2.725 -0.0538 -0.2461  0.0977
  758W        W 4809   1.396   4.210  10.788  0.0430 -0.0597  0.0708
  759W        W 4810   6.756   5.428   2.551  0.2060 -0.3245 -0.2109
  760W        W 4811   7.636   4.747   3.429  0.3470 -0.0060 -0.1056
  761W        W 4812   5.839   0.946   1.677 -0.2180  0.0494 -0.4001
  762W        W 4813   1.997   7.096  12.597  0.1778 -0.1282 -0.2106
  763W        W 4814   8.237   9.819   3.099 -0.0893 -0.2272  0.0797
  764W        W 4815   0.245   5.355   4.673  0.0566  0.0390  0.0732
  765W        W 4816   1.226   2.603   0.471  0.3330  0.0787 -0.1552
  766W        W 4817   2.598   3.973  11.319  0.0448 -0.3139 -0.0618
  767W        W 4818   9.258   6.031   9.650 -0.1187 -0.1602 -0.0794
  768W        W 4819   6.373   6.861  10.351 -0.0558  0.0974  0.5297
  769W        W 4820   6.402   9.488  13.872  0.0737 -0.0207 -0.5516
  770W        W 4821   5.167   0.453   3.738 -0.1453  0.0036  0.2488
  771W        W 4822   1.987   1.585   0.055  0.0177  0.1061  0.0259
  772W        W 4823   4.581   1.282   2.858 -0.1209 -0.1030 -0.2574
  773W        W 4824   4.610   2.239  12.860  0.0286  0.2377  0.0928
  774W        W 4825   3.559   3.715   3.923 -0.1224 -0.0170 -0.0459
  775W        W 4826   0.429   3.417   2.290  0.0507  0.2751  0.0266
  776W        W 4827   9.314   4.248   4.776  0.1915  0.0504  0.1971
  777W        W 4828   3.666   2.498   3.326 -0.1550  0.0635 -0.0224
  778W        W 4829   7.626   1.969   4.748  0.2276  0.1403  0.0523
  779W        W 4830   9.379   8.767  11.594  0.1618 -0.2558  0.1571
  780W        W 4831   7.371   7.090  13.198 -0.2254  0.0999 -0.0022
  781W        W 4832   6.945   7.072  10.966  0.2724  0.1892  0.0423
  782W        W 4833   4.254   0.179   2.163 -0.1213 -0.1235  0.1210
  783W        W 4834   2.488   9.326   0.558  0.0965 -0.0027 -0.1695
  784W        W 4835   4.084   3.622   9.283  0.2261  0.2702  0.1347
  785W        W 4836   7.005   1.628   1.423 -0.1096  0.0486  0.3740
  786W        W 4837   5.745   3.678   4.656 -0.0690  0.0529 -0.0730
  787W        W 4838   9.256   2.510   3.344 -0.2350  0.1353 -0.1931
  788W        W 4839   6.985   1.441   2.513 -0.1195  0.1169 -0.1068
  789W        W 4840   5.862   5.289   5.470 -0.1173  0.1971  0.1911
  790W        W 4841   9.873   7.360  12.750 -0.1895 -0.1933 -0.0543
  791W        W 4842   3.988   9.969  12.434  0.1430  0.0360 -0.0386
  792W        W 4843   8.624   3.506   4.132  0.1344  0.3189 -0.0795
  793W        W 4844   9.262   3.598  10.105  0.2202 -0.1861  0.2140
  794W        W 4845   0.136   5.184   9.848  0.2166 -0.0036  0.3079
  795W        W 4846   7.557   9.600  12.677  0.0833  0.0103  0.0641
  796W        W 4847   3.711   1.721  11.702 -0.1150  0.3275  0.3050
  797W        W 4848   4.178   4.877  13.293  0.1997 -0.0258  0.4052
  798W        W 4849   6.602   0.066   2.385  0.1443  0.1196  0.1781
  799W        W 4850   4.929   8.688   0.424  0.2247  0.1707 -0.1123
  800W        W 4851   9.321   5.704   3.842  0.5436  0.0317  0.1976
  801W        W 4852   1.796   3.260   3.573  0.0688 -0.1330 -0.2510
  802W        W 4853   2.771   4.920   0.727 -0.1947  0.0992 -0.1358
  803W        W 4854   2.438   7.162  12.315  0.3449  0.0987  0.0368
  804W        W 4855   6.592   8.941   4.323 -0.0954 -0.2440  0.2339
  805W        W 4856   7.070   8.117   4.447  0.3427  0.1448  0.0288
  806W        W 4857   5.824   1.561   9.419 -0.2497  0.2916 -0.1422
  807W        W 4858   7.195   5.306  13.904  0.0887  0.1084  0.3082
  808W        W 4859  10.145   3.658  13.843  0.0046 -0.0768  0.1883
  809W        W 4860   8.669   6.828  12.341  0.3277 -0.1569  0.0212
  810W        W 4861   3.360   7.339  12.369 -0.2384  0.3652  0.1720
  811W        W 4862   5.646   4.862  12.083 -0.0774  0.1356 -0.0646
  812W        W 4863   6.487   0.059  11.822 -0.0819  0.0594 -0.0762
  813W        W 4864   0.319   9.008   3.530  0.1481  0.3975 -0.2274
  814W        W 4865   5.336   9.457  13.000  0.0550 -0.3118  0.1140
  815W        W 4866   6.432   8.306  10.988  0.1001  0.1346  0.0952
  816W        W 4867   2.613   1.969  11.459 -0.3318 -0.1416 -0.0331
  817W        W 4868   4.566   9.400  13.889 -0.0532 -0.0014 -0.0517
  818W        W 4869   0.799   0.458   2.947 -0.2283 -0.0666 -0.1321
  819W        W 4870   5.408   7.257   8.530  0.4075 -0.0956 -0.0728
  820W        W 4871   9.246   2.682   4.247  0.1536  0.2959 -0.0820
  821W        W 4872   6.946   8.284  10.990  0.3334  0.0731  0.1369
  822W        W 4873   1.761   5.864   1.688  0.2840  0.0441 -0.1251
  823W        W 4874   9.997   6.865   4.659 -0.3070 -0.2603 -0.1148
  824W        W 4875   2.477   6.191   0.763 -0.1904  0.2171 -0.1300
  825W        W 4876   9.513   2.371   2.629 -0.3837  0.0512  0.0282
  826W        W 4877   5.177   4.319   0.283 -0.4321 -0.1395 -0.1765
  827W        W 4878   9.452   8.769  10.238 -0.0482  0.0694  0.0968
  828W        W 4879   4.287   0.730  13.474  0.2930 -0.0787  0.2549
  829W        W 4880   0.997   9.287  10.434  0.5821  0.0194 -0.1899
  830W        W 4881   3.896   9.882   0.993 -0.1720 -0.0744  0.2711
  831W        W 4882   1.579   4.259  11.287  0.1803 -0.2005  0.1454
  832W        W 4883   3.745   5.438   8.752 -0.2811 -0.3173 -0.1209
  833W        W 4884   8.449   4.843   5.430 -0.0456 -0.0927  0.2527
  834W        W 4885   8.275   9.450  11.966 -0.3242 -0.2132 -0.3995
  835W        W 4886   5.612   6.739   3.146  0.0191  0.2344  0.1338
  836W        W 4887  10.126   3.990   4.918 -0.3341 -0.1216  0.2260
  837W        W 4888   4.738   7.311   9.775  0.1381 -0.0519 -0.2627
  838W        W 4889   4.133   8.094  12.569  0.0197 -0.0048  0.0784
  839W        W 4890   3.522   3.539   1.746 -0.2727  0.1460  0.2601
  840W        W 4891   4.050  10.015   2.513 -0.1726 -0.0462  0.0068
  841W        W 4892   0.596   2.410   3.343 -0.0744 -0.2984  0.0510
  842W        W 4893   6.861   0.586   5.840 -0.0107  0.1869 -0.0843
  843W        W 4894   2.906   3.767  10.154 -0.0141 -0.1559  0.1215
  844W        W 4895   6.424   0.665   4.326 -0.1484  0.2374  0.2679
  845W        W 4896   3.748   2.538  11.855 -0.2533 -0.1067 -0.0882
  846W        W 4897   9.327   7.936  10.340  0.2963 -0.0330  0.0881
  847W        W 4898   8.707   9.019   2.928  0.0266  0.1101 -0.3614
  848W        W 4899   9.645   3.709   2.636 -0.0417 -0.0627  0.0287
  849W        W 4900   2.860   1.765  14.031 -0.3391  0.0820 -0.3536
  850W        W 4901   4.603   1.593   0.511  0.0868  0.1721 -0.1473
  851W        W 4902   2.242   3.199   3.200  0.3186  0.1724 -0.3926
  852W        W 4903   7.004   9.847   5.610 -0.0030 -0.1925  0.1065
  853W        W 4904   0.088   0.723  10.435 -0.1637  0.1449 -0.1427
  854W        W 4905   9.182   2.730  11.163 -0.5359  0.2653 -0.5692
  855W        W 4906   4.552   5.848   2.599  0.1146  0.0246  0.1372
  856W        W 4907   9.184   6.145   0.717  0.0050 -0.0564 -0.2955
  857W        W 4908   0.326   4.836   9.550 -0.0823  0.0661  0.0102
  858W        W 4909   1.879   4.700  12.302 -0.0807 -0.0369  0.1547
  859W        W 4910   6.201   7.274   2.994 -0.0312  0.1539 -0.0438
  860W        W 4911   9.203   4.404   9.010  0.3266 -0.0417  0.1050
  861W        W 4912   6.795   4.283   4.632  0.0559  0.1651  0.3429
  862W        W 4913   3.182   6.991   1.478 -0.0322  0.4882 -0.2503
  863W        W 4914   2.701   2.203   3.928  0.0684 -0.0127  0.2021
  864W        W 4915   8.913   1.171   2.628 -0.2116 -0.1955  0.2812
  865W        W 4916   9.464   7.329  11.959 -0.3431 -0.2082  0.0023
  866W        W 4917   7.220   1.947  13.935 -0.0742 -0.3437  0.0226
  867W        W 4918   8.005   7.389   3.362  0.4383  0.1064  0.1289
  868W        W 4919   4.620   0.678  11.641  0.0609  0.2145 -0.2477
  869W        W 4920   6.698   9.854  13.699 -0.0591  0.0673 -0.1360
  870W        W 4921   6.723   3.614   9.837 -0.3455  0.1655 -0.4672
  871W        W 4922   0.264   6.918  10.581  0.0851 -0.0455 -0.2125
  872W        W 4923   6.211   0.781   0.463 -0.1306 -0.1256 -0.1263
  873W        W 4924   2.154   1.361  12.136  0.0804 -0.0083 -0.1545
  874W        W 4925   0.329   8.945  12.446 -0.0565  0.1276 -0.1574
  875W        W 4926   5.211   5.715  13.845  0.7616  0.0193 -0.1728
  876W        W 4927   1.074   3.667   0.541 -0.1862 -0.1601  0.0508
  877W        W 4928   0.552   8.111  10.926  0.1705 -0.1394  0.0675
  878W        W 4929   0.902   5.624  10.259  0.0592 -0.0396 -0.3021
  879W        W 4930   8.378   6.912  10.933 -0.1005  0.1875  0.0301
  880W        W 4931   0.690   3.990   4.376  0.0647 -0.0565 -0.2073
  881W        W 4932   8.010   2.945  13.418  0.2176  0.1051 -0.0779
  882W        W 4933   9.839   6.422   4.875  0.0977  0.3034  0.0308
  883W        W 4934   1.140   1.694   2.786 -0.1687 -0.0768  0.0296
  884W        W 4935   8.391   5.411  10.005 -0.0689  0.1365 -0.1946
  885W        W 4936  10.044   1.031  12.730  0.0488  0.3015 -0.1228
  886W        W 4937   4.909   2.748  11.512 -0.1181  0.2146 -0.0954
  887W        W 4938   5.206   5.635  13.029  0.0721  0.0072  0.1618
  888W        W 4939   9.875   2.092  10.814 -0.2621  0.1956  0.0474
  889W        W 4940   6.835   5.699   9.874  0.2314  0.0543 -0.0468
  890W        W 4941   9.797   7.895   2.394  0.1663  0.0448 -0.0444
  891W        W 4942   1.429   7.862   4.167  0.0273  0.0614 -0.1479
  892W        W 4943   7.162   6.641   1.372  0.2154  0.0435 -0.1484
  893W        W 4944   8.911   8.718   0.953 -0.0176  0.2494 -0.3991
  894W        W 4945   8.379   3.112   0.376 -0.2091 -0.1203  0.0014
  895W        W 4946   4.828   1.806   2.155 -0.1339  0.0460 -0.1902
  896W        W 4947   9.398   6.438   3.457  0.1110 -0.1279  0.0635
  897W        W 4948   3.804   4.811   4.827  0.0237  0.0945 -0.0692
  898W        W 4949   0.388   7.249  11.945  0.2402  0.1781 -0.0423
  899W        W 4950   4.420   1.770  10.903 -0.0964  0.0232 -0.0656
  900W        W 4951   5.050   6.931  13.204 -0.1361 -0.0694 -0.1149
  901W        W 4952   1.054   7.576   4.207 -0.1375  0.0517 -0.1160
  902W        W 4953   4.746   5.771   3.344  0.1917  0.4720  0.1266
  903W        W 4954   9.405   7.516  12.444 -0.0186  0.0665  0.2455
  904W        W 4955   1.339   1.670   4.016  0.1315 -0.2125  0.0546
  905W        W 4956   5.115   0.520  10.071  0.5591 -0.0498 -0.0431
  906W        W 4957   3.773   0.796  12.495 -0.1328  0.0750  0.3015
  907W        W 4958   6.158   1.991   1.728 -0.2196 -0.3018 -0.1815
  908W        W 4959   6.662   8.872   2.680 -0.0126  0.0335  0.0022
  909W        W 4960   2.567   0.095  12.912 -0.2053 -0.6601  0.0488
  910W        W 4961   7.819   5.110  12.102  0.0980  0.1489  0.1092
  911W        W 4962   4.614   0.344  10.231 -0.2431  0.0415  0.1053
  912W        W 4963   7.621   0.791   3.573  0.1887 -0.1726 -0.0182
  913W        W 4964   9.639   1.352   0.117 -0.0292 -0.0900 -0.1047
  914W        W 4965   9.913   9.410   3.220 -0.2825  0.0251  0.1037
  915W        W 4966   6.716   8.754  10.034 -0.4462 -0.1320  0.2136
  916W        W 4967   4.016   9.845  11.418  0.3576 -0.1378 -0.4197
  917W        W 4968   9.862   3.863  12.414 -0.0680  0.0759 -0.1619
  918W        W 4969   9.531   8.757   4.162  0.1155 -0.1024 -0.1805
  919W        W 4970   2.091   2.796  11.063  0.1548  0.1436  0.0831
  920W        W 4971   1.087   6.962   2.264  0.0849 -0.0191  0.0436
  921W        W 4972   1.483   3.751   0.806  0.1257  0.1876 -0.3090
  922W        W 4973   9.917   9.774   4.068  0.3478  0.2250  0.0958
  923W        W 4974   0.101   9.921   2.176  0.1004 -0.0705 -0.1352
  924W        W 4975   4.292   7.041   2.356 -0.0077 -0.2958 -0.2605
  925W        W 4976   9.098   0.936   4.966  0.3726  0.0508  0.0823
  926W        W 4977   9.336   6.136   0.223 -0.0290 -0.2187  0.0983
  927W        W 4978   7.028   4.162   9.969 -0.1625 -0.0362  0.3114
  928W        W 4979   6.472   8.946  12.574 -0.0008  0.2371 -0.1293
  929W        W 4980   5.168   6.727   3.472 -0.1230  0.0961 -0.0823
  930W        W 4981   7.539   9.362  13.122  0.2485  0.0788 -0.0608
  931W        W 4982   2.528   4.584   3.372  0.2203 -0.3247 -0.0038
  932W        W 4983   0.842   2.322  12.366 -0.0132 -0.0603 -0.1377
  933W        W 4984   4.034   7.609  11.608  0.3314 -0.1269  0.1205
  934W        W 4985   2.417   8.804  12.096  0.0925  0.1932  0.2293
  935W        W 4986   6.967   4.130   2.304  0.0345 -0.1710  0.2359
  936W        W 4987   4.782   2.287  10.773  0.0776  0.1864 -0.4510
  937W        W 4988   3.264   4.125   3.069 -0.1732  0.0076  0.1460
  938W        W 4989   7.884   3.862   3.372 -0.0348 -0.0096  0.1675
  939W        W 4990   6.839   1.334   1.995 -0.0505 -0.0458  0.1482
  940W        W 4991   0.309   4.566   2.388  0.0828  0.1441 -0.0905
  941W        W 4992   1.895   2.647   3.825  0.0638 -0.1694 -0.1860
  942W        W 4993   8.370   0.457   1.600  0.0537  0.0914 -0.2637
  943W        W 4994   5.094   4.433   3.569  0.0629 -0.0410  0.2160
  944W        W 4995   0.444   4.105   1.640  0.2678 -0.0413 -0.0216
  945W        W 4996   8.146   6.125   1.618  0.0626 -0.2359 -0.0156
  946W        W 4997   3.496   4.409   9.785  0.0297 -0.0486  0.0979
  947W        W 4998   1.554   6.262   4.180  0.2361 -0.0942  0.6088
  948W        W 4999  10.121   3.414   0.757  0.3530 -0.0274 -0.1787
  949W        W 5000   2.010   8.700  12.443  0.2549 -0.0592  0.3423
  950W        W 5001   7.649   4.428   1.711  0.0049 -0.1551  0.2118
  951W        W 5002   6.284   1.734  12.849  0.1222 -0.1115 -0.0335
  952W        W 5003   5.231   4.957   3.463 -0.3008 -0.0805 -0.1419
  953W        W 5004   9.520   4.712  10.757  0.0662 -0.0799 -0.1503
  954W        W 5005   3.128   9.849  10.930 -0.2314 -0.0043  0.0992
  955W        W 5006   1.337   7.376  12.074 -0.3011 -0.1838  0.0975
  956W        W 5007   9.918   0.290   3.462  0.0713  0.3328  0.1069
  957W        W 5008   3.066   0.814  11.584 -0.0581  0.1372 -0.3061
  958W        W 5009   9.998   2.184   5.611  0.0795 -0.0283  0.0260
  959W        W 5010   4.605   4.869   1.013  0.0981  0.0802 -0.1277
  960W        W 5011   3.605   5.881  12.261  0.0664  0.1835 -0.1292
  961W        W 5012   0.866   2.548   2.892 -0.2381  0.1225 -0.1720
  962W        W 5013   5.499   7.544   3.807  0.1426 -0.1614  0.3727
  963W        W 5014   0.500   5.759  13.095  0.4683  0.1515  0.0380
  964W        W 5015   5.527   2.680  13.457  0.1504  0.0796 -0.0747
  965W        W 5016   6.432   4.168  13.688  0.0207 -0.2279  0.2240
  966W        W 5017   8.912   8.951   1.722  0.0213 -0.0606  0.1207
  967W        W 5018   7.048   0.891   2.606 -0.0300 -0.1961 -0.2078
  968W        W 5019   8.907   2.277  11.045 -0.0440  0.1702  0.2026
  969W        W 5020   5.812   9.317   0.098 -0.0417  0.0591  0.0836
  970W        W 5021   4.415   8.534  10.206 -0.0238 -0.2300 -0.2635
  971W        W 5022   9.685   0.461   1.691  0.1696  0.3176  0.0557
  972W        W 5023   5.069   3.306   4.928  0.1551  0.0060 -0.0908
  973W        W 5024   6.480   0.147   4.105 -0.1079 -0.1223 -0.1001
  974W        W 5025   4.289   2.753   0.276  0.0972 -0.0791 -0.2336
  975W        W 5026   3.984   1.190  13.356 -0.0901  0.1040  0.1698
  976W        W 5027   0.404   5.162  11.171 -0.1222 -0.0987 -0.2326
  977W        W 5028   8.181   4.759  10.000 -0.0224 -0.1186  0.2283
  978W        W 5029   5.300   0.231  12.534 -0.0048 -0.1402  0.2438
  979W        W 5030   2.151   3.618  13.234  0.0104  0.3182 -0.1024
  980W        W 5031  10.127   2.056  11.831 -0.0569 -0.0875  0.1301
  981W        W 5032   5.683   3.823   3.304 -0.1260 -0.1374  0.0767
  982W        W 5033   5.146   9.382   0.871  0.0844  0.1004 -0.1205
  983W        W 5034   5.857   6.249   2.001  0.2571 -0.0458  0.2446
  984W        W 5035   9.132   5.046   3.192 -0.0178  0.0546  0.0428
  985W        W 5036   3.895   3.811  11.879 -0.0438  0.0848 -0.2380
  986W        W 5037   0.710   4.506   1.678 -0.0059 -0.0860 -0.2122
  987W        W 5038   3.409   8.687   4.497  0.0678 -0.0096 -0.0080
  988W        W 5039   2.781   0.367   0.396 -0.1087 -0.1071 -0.2497
  989W        W 5040   3.793   2.312   2.421 -0.4840  0.1540  0.0103
  990W        W 5041   1.452   9.986  10.413 -0.2539  0.2169  0.1440
  991W        W 5042   3.307   7.962   1.106 -0.1336 -0.0694  0.0311
  992W        W 5043   8.084   4.002  13.074 -0.0015 -0.0341  0.3036
  993W        W 5044   6.544   6.749  10.804 -0.0503 -0.1140  0.1077
  994W        W 5045   0.517   8.464  11.666 -0.1005  0.0330  0.1483
  995W        W 5046   3.057   3.667   3.281 -0.3355 -0.1932  0.2263
  996W        W 5047   0.690   7.140   3.356  0.3027  0.1980  0.0176
  997W        W 5048   7.530   6.662   8.959 -0.0437  0.0373 -0.1218
  998W        W 5049   0.830   4.045  13.906 -0.0713 -0.1838 -0.3682
  999W        W 5050   5.711   3.314  11.273  0.3204 -0.3011 -0.1708
 1000W        W 5051   5.224   1.870   3.386 -0.0152 -0.0906  0.0306
 1001W        W 5052   7.849   6.430  13.434  0.0894  0.0028  0.0703
 1002W        W 5053   0.263   1.286  12.960 -0.3124 -0.0110 -0.1768
 1003W        W 5054   1.600   2.906   4.264  0.3591  0.0869  0.2474
 1004W        W 5055   5.668   6.973  11.710 -0.1159  0.0300  0.2346
 1005W        W 5056   8.155   2.418  11.796 -0.1166 -0.2550  0.2154
 1006W        W 5057   4.419   5.797   9.893  0.0726 -0.0005  0.1651
 1007W        W 5058   6.372   6.046  13.588 -0.1920  0.5822 -0.0385
 1008W        W 5059   9.315   6.231  10.134  0.1131  0.0500 -0.2138
 1009W        W 5060   0.574   7.235   4.868  0.3022 -0.0224 -0.1514
 1010W        W 5061   1.306   8.866  13.241  0.0384  0.0936 -0.2450
 1011W        W 5062   0.784   2.644   1.317 -0.3019  0.3535 -0.0448
 1012W        W 5063   0.204   3.829   0.630  0.0503  0.2477 -0.2537
 1013W        W 5064   3.649   2.516  11.115  0.0971  0.1272  0.2216
 1014W        W 5065   5.210   6.231   1.352 -0.0858 -0.0980 -0.1053
 1015W        W 5066   0.369   2.074   0.215  0.0381  0.1285  0.0491
 1016W        W 5067   6.067   9.547   3.547 -0.0873  0.0992  0.1898
 1017W        W 5068   7.329   8.016  11.187  0.2629 -0.1044  0.2022
 1018W        W 5069   3.080   4.989   9.566  0.0574 -0.4618 -0.0496
 1019W        W 5070   9.037   2.638  11.774 -0.0573 -0.1989  0.2431
 1020W        W 5071   0.109   9.967   4.366 -0.1492 -0.0711 -0.1338
 1021W        W 5072   6.517   1.683  13.300 -0.1376 -0.1716 -0.1200
 1022W        W 5073   6.546   1.230  11.132  0.1264  0.0668  0.1037
 1023W        W 5074   5.193   7.096  12.671  0.0051  0.1034 -0.2236
 1024W        W 5075   2.808   3.182   9.941  0.3021 -0.0549 -0.1871
 1025W        W 5076   7.955   0.645   0.790  0.1862 -0.3329 -0.1887
 1026W        W 5077   2.868   6.627  12.929 -0.2864  0.3998  0.3220
 1027W        W 5078   6.368   2.349   3.653 -0.1066  0.0400 -0.3780
 1028W        W 5079   1.464   4.962  10.044  0.1201 -0.5658  0.0067
 1029W        W 5080   2.748   7.908   0.961 -0.4436 -0.3976 -0.2275
 1030W        W 5081   0.014   0.845   9.594  0.0406 -0.0136  0.0377
 1031W        W 5082   6.981   9.239  11.797  0.3323 -0.0146  0.3146
 1032W        W 5083   1.756   8.994   8.301  0.0379  0.1171 -0.1964
 1033W        W 5084   9.215   9.630   2.021  0.2153 -0.1369 -0.1461
 1034W        W 5085   5.864   3.475   2.992  0.1171 -0.1037 -0.0013
 1035W        W 5086   3.577   9.427  12.580  0.0901  0.3103 -0.2571
 1036W        W 5087   9.617   5.617   2.085 -0.0061  0.1998  0.0754
 1037W        W 5088   1.175   8.684   2.532 -0.2521  0.0070  0.2843
 1038W        W 5089   8.323   7.885  13.887 -0.5346  0.1372 -0.1331
 1039W        W 5090   3.481   6.182   3.271  0.1293 -0.2595 -0.1447
 1040W        W 5091   6.903   7.972   3.161  0.1584 -0.4121  0.4029
 1041W        W 5092   9.479   8.823  13.727  0.0791 -0.0574 -0.1132
 1042W        W 5093   8.065   0.036   9.900 -0.0960 -0.0313  0.1699
 1043W        W 5094   1.596   0.955   2.178 -0.3258  0.0224 -0.0040
 1044W        W 5095   3.446   2.973   1.511 -0.3258  0.0442 -0.0354
 1045W        W 5096   4.457   0.369  11.241 -0.0346 -0.2195 -0.0477
 1046W        W 5097   2.821   7.430  12.464  0.0126 -0.0393 -0.1521
 1047W        W 5098   8.791   9.769   0.119  0.1273  0.0325 -0.1894
 1048W        W 5099   1.931   4.892   4.588 -0.4043 -0.0243  0.1898
 1049W        W 5100   3.903   3.160   1.660 -0.2789  0.1197  0.2860
 1050W        W 5101   7.211   4.423   3.510  0.2101  0.0642  0.1118
 1051W        W 5102   4.946   9.155  12.063  0.0958  0.1128  0.0970
 1052W        W 5103   7.120   0.983   4.858  0.1268  0.1521 -0.2724
 1053W        W 5104   3.968   4.205  12.204 -0.2697  0.0933 -0.2570
 1054W        W 5105   6.266   1.650   9.758  0.0910  0.0332 -0.0890
 1055W        W 5106   4.286   0.963   3.080 -0.2918 -0.0664 -0.0382
 1056W        W 5107   0.245   4.050   9.085 -0.0031 -0.0566  0.3613
 1057W        W 5108   5.191   2.352   3.107 -0.1530 -0.0110  0.1485
 1058W        W 5109   5.566   6.823   2.341 -0.1764 -0.1417  0.0089
 1059W        W 5110   5.113   6.531  12.238  0.1960 -0.2565 -0.0646
 1060W        W 5111   0.579   5.805   3.842  0.1000 -0.0871 -0.0749
 1061W        W 5112   2.383   1.779  11.086 -0.0965 -0.1006 -0.1785
 1062W        W 5113   9.153   7.640   0.346 -0.2059  0.0450  0.1257
 1063W        W 5114   6.424   4.818   9.791  0.0190 -0.0149 -0.0102
 1064W        W 5115   9.998   3.357   2.976 -0.0837 -0.3689  0.1369
 1065W        W 5116   3.177   0.276  10.506 -0.0810  0.0137  0.1206
 1066W        W 5117   1.158   1.787  12.229 -0.2283  0.0654 -0.1546
 1067W        W 5118   1.077   4.106   2.912 -0.1933 -0.3475  0.0045
 1068W        W 5119   7.378   2.705   5.174 -0.1800 -0.3358 -0.1074
 1069W        W 5120   4.396   1.612  11.451 -0.0447 -0.5939 -0.1916
 1070W        W 5121   8.033   4.324   1.382  0.0823 -0.0003 -0.2059
 1071W        W 5122   1.763   3.085   2.936 -0.3126  0.1579  0.1278
 1072W        W 5123   4.238   8.758  13.116  0.1843 -0.3992  0.1901
 1073W        W 5124   9.208   7.892   1.075  0.0196 -0.1365  0.0859
 1074W        W 5125   8.162   3.007   2.192  0.1732 -0.1795  0.0319
 1075W        W 5126   8.094   2.586   1.236  0.2313 -0.1613 -0.2189
 1076W        W 5127   1.566   7.202  13.916 -0.2080 -0.1022  0.0672
 1077W        W 5128   0.569   9.466   1.366  0.1485  0.3800  0.2170
 1078W        W 5129   7.568   8.330  12.247 -0.2371  0.0176 -0.2972
 1079W        W 5130   7.127   7.819   2.699  0.1644  0.2439 -0.0726
 1080W        W 5131   3.966   7.120   4.238 -0.2726 -0.0370 -0.3531
 1081W        W 5132   6.534   9.284   3.373  0.1604 -0.0089  0.0266
 1082W        W 5133   2.905   2.388   3.525  0.0228  0.3381 -0.0075
 1083W        W 5134   6.665   3.362  13.871 -0.1496  0.1669 -0.0493
 1084W        W 5135   9.068   7.972   2.040 -0.0245 -0.0862 -0.1552
 1085W        W 5136  10.008   7.521   2.632  0.4511 -0.3140 -0.0253
 1086W        W 5137   5.182   4.153   9.399  0.2095 -0.0617 -0.2491
 1087W        W 5138   4.523   2.083  12.386  0.0039 -0.1679 -0.1616
 1088W        W 5139   1.940   7.060   2.141  0.1821  0.3667  0.0971
 1089W        W 5140   0.180   7.336   2.985 -0.1233 -0.1534  0.0668
 1090W        W 5141   4.655   3.050  11.853  0.0221  0.0080  0.0664
 1091W        W 5142   2.242   9.534  11.348  0.1164  0.1859 -0.1651
 1092W        W 5143   1.730   3.966   3.031  0.1245  0.0688 -0.0559
 1093W        W 5144   1.221   2.840   1.059  0.0351 -0.0545 -0.0480
 1094W        W 5145   3.807   7.456   9.793  0.1269  0.0651  0.0473
 1095W        W 5146  10.105   3.454  11.218 -0.1282  0.2734 -0.2265
 1096W        W 5147   9.344   4.837  12.122 -0.2482  0.2405  0.0531
 1097W        W 5148   4.625   5.788  10.774 -0.2398 -0.2017 -0.2824
 1098W        W 5149   2.713   5.854  12.638 -0.0546 -0.1017 -0.2647
 1099W        W 5150   2.043   0.817   3.178  0.3321 -0.0632  0.0640
 1100W        W 5151   8.476   1.745   4.214  0.0986  0.0187  0.0563
 1101W        W 5152   6.461   8.784   3.171 -0.0123  0.1133  0.1080
 1102W        W 5153   4.558   3.289  10.610  0.1779 -0.1326 -0.0778
 1103W        W 5154   8.536   0.031   9.606 -0.2542 -0.2755 -0.0307
 1104W        W 5155   6.902   9.226   1.404 -0.1139 -0.4262  0.2029
 1105W        W 5156   0.577   6.692   3.680  0.0682  0.0929  0.2695
 1106W        W 5157   1.399   6.078   2.369  0.0398 -0.0292 -0.1713
 1107W        W 5158   8.874   0.711   1.797  0.1274 -0.0702 -0.0677
 1108W        W 5159   7.092   0.729  11.497  0.2422 -0.1314 -0.0399
 1109W        W 5160   8.141   9.492  10.827  0.1593 -0.1439 -0.0099
 1110W        W 5161   7.767   2.256   4.321 -0.0442 -0.3859  0.0863
 1111W        W 5162   2.065   7.403   0.691 -0.1108  0.1020 -0.0861
 1112W        W 5163   2.336   6.025   2.384  0.0056  0.1244  0.1695
 1113W        W 5164   8.673   3.291   0.739  0.1435  0.1999  0.0309
 1114W        W 5165   8.441   0.099   0.861 -0.1959  0.1911  0.0281
 1115W        W 5166   0.292   4.290  14.002  0.1468  0.2212 -0.3727
 1116W        W 5167   6.485   0.332  11.304 -0.1897 -0.3303  0.0191
 1117W        W 5168   8.286   1.709   9.507 -0.0022 -0.0421  0.1632
 1118W        W 5169   2.377   5.336   4.682 -0.0075  0.0695 -0.0085
 1119W        W 5170   7.208   9.282   8.923  0.1249  0.1228 -0.0462
 1120W        W 5171   9.553   6.868   0.212  0.0025 -0.0078 -0.1295
 1121W        W 5172   5.676   4.474   9.961 -0.1496 -0.2455  0.0682
 1122W        W 5173   0.207   0.486   3.314 -0.1118  0.1270  0.3534
 1123W        W 5174   8.443   9.622   1.057 -0.0082  0.1421  0.0050
 1124W        W 5175   8.875   8.565   3.006  0.2354  0.2200 -0.1264
 1125W        W 5176   7.269   0.668  12.297  0.2135 -0.1521  0.2504
 1126W        W 5177   0.186   4.919  12.555  0.2300  0.0423  0.2985
 1127W        W 5178   6.993   0.862  10.614 -0.3957  0.0546 -0.2141
 1128W        W 5179   8.787   7.733   2.437 -0.0428  0.0315  0.5731
 1129W        W 5180   1.475   3.132  12.828  0.0021 -0.1825  0.2847
 1130W        W 5181   3.974   9.401   1.267 -0.1733  0.0490  0.0459
 1131W        W 5182  10.076   1.677  11.499 -0.3327 -0.1655 -0.0841
 1132W        W 5183   3.863   1.824  12.169 -0.0382  0.1711 -0.0256
 1133W        W 5184   5.541   6.988   0.044 -0.5577 -0.0589 -0.0469
 1134W        W 5185   5.780   2.857   9.021 -0.2093  0.0229  0.0305
 1135W        W 5186   1.794   3.766   2.236 -0.2668  0.2359  0.2232
 1136W        W 5187   1.864   9.101  13.357 -0.0009 -0.1748 -0.4981
 1137W        W 5188   2.947   4.578   0.396  0.2641 -0.1447 -0.1671
 1138W        W 5189   2.704   2.126  10.286  0.0575  0.1257 -0.0163
 1139W        W 5190   1.432   1.528  11.442  0.0515 -0.1343 -0.0078
 1140W        W 5191   1.137   4.154   4.480 -0.3275 -0.2426 -0.1591
 1141W        W 5192   0.508   2.592   4.544 -0.0591  0.0157  0.0879
 1142W        W 5193   5.803   6.132  11.059  0.0458  0.1233 -0.1017
 1143W        W 5194   3.625   3.825   3.306  0.1300  0.1028 -0.1285
 1144W        W 5195   6.348   2.724  12.341  0.0336  0.0333  0.2882
 1145W        W 5196   8.117   4.230  10.190  0.2410  0.0891 -0.3221
 1146W        W 5197   0.265   7.670   0.731 -0.0070  0.0440  0.0949
 1147W        W 5198   0.113   7.229   0.331  0.0633 -0.0878 -0.0277
 1148W        W 5199   6.948   5.259   5.545  0.2107  0.6220  0.2537
 1149W        W 5200   5.131   5.210   9.708  0.2444 -0.4213 -0.0227
 1150W        W 5201   0.423   2.483   0.883 -0.1094 -0.2314  0.2517
 1151W        W 5202   0.765   6.252   3.482 -0.0257  0.3468 -0.1809
 1152W        W 5203   7.244   2.253   0.760  0.0369  0.2643 -0.1734
 1153W        W 5204   9.739   8.628  10.653  0.1148 -0.0326  0.0208
 1154W        W 5205   0.110   2.058   1.111  0.1455 -0.1970  0.2115
 1155W        W 5206   7.858   4.319   9.111 -0.0243  0.0399 -0.0464
 1156W        W 5207   8.342   3.899   4.068  0.0953  0.2382  0.3068
 1157W        W 5208   6.764   9.499   9.075 -0.3599 -0.3128  0.0319
 1158W        W 5209   5.582   6.951  13.293  0.0731  0.1080 -0.0332
 1159W        W 5210   7.234   7.192   4.144 -0.1557  0.1785 -0.0668
 1160W        W 5211   4.096   5.549   2.706 -0.0054  0.0135 -0.0083
 1161W        W 5212   7.617   4.294   9.878  0.1611  0.2290 -0.4815
 1162W        W 5213   7.735   2.823   2.465 -0.3883  0.1062  0.0326
 1163W        W 5214   7.873   3.467   0.464 -0.0053 -0.0358 -0.0050
 1164W        W 5215   4.360  10.142   3.018  0.2611 -0.1692 -0.1531
 1165W        W 5216   0.728   0.831   2.529 -0.0935  0.2050 -0.0609
 1166W        W 5217   1.501   7.725   2.388 -0.1328 -0.0469 -0.0474
 1167W        W 5218   5.743   2.311  10.213 -0.4688 -0.0922 -0.0317
 1168W        W 5219   2.262   0.647   3.950 -0.0115  0.1059 -0.1396
 1169W        W 5220   6.867   5.176   3.031  0.0166  0.0928  0.2290
 1170W        W 5221   0.855   7.528  12.889  0.1577 -0.0453 -0.1552
 1171W        W 5222   2.094   3.095  13.032  0.2095  0.0722  0.2114
 1172W        W 5223   5.905   2.727  11.540  0.0924 -0.1448 -0.0668
 1173W        W 5224   9.984   3.827  10.807 -0.0729  0.1505 -0.3067
 1174W        W 5225   4.816   1.320  11.578  0.1778 -0.1348  0.2012
 1175W        W 5226   5.674   2.860  10.567 -0.2609  0.1613 -0.1107
 1176W        W 5227   5.125   3.699  13.763  0.3704  0.1597  0.1585
 1177W        W 5228   7.974   9.071   4.053  0.1963 -0.0842 -0.2039
 1178W        W 5229   3.074   0.386   1.727 -0.0648 -0.2874 -0.4867
 1179W        W 5230   9.291   8.906  12.449 -0.3847 -0.3233 -0.0959
 1180W        W 5231   3.735   1.830   0.096 -0.1420  0.4961  0.2435
 1181W        W 5232   1.248   2.039   4.360 -0.3944 -0.0549  0.1259
 1182W        W 5233   3.750   5.213   0.064 -0.2394  0.1323 -0.1165
 1183W        W 5234   6.742   2.066  13.482  0.0170 -0.1525  0.0716
 1184W        W 5235   1.785   6.630   0.198  0.3120 -0.2868  0.1153
 1185W        W 5236   2.800   2.025   0.417 -0.3786 -0.0888 -0.2129
 1186W        W 5237   2.009   8.078   1.650 -0.0995 -0.2866 -0.2044
 1187W        W 5238   1.209   1.290  12.484 -0.4604 -0.2571 -0.3668
 1188W        W 5239   4.268   0.299   2.667 -0.0309  0.0995 -0.0727
 1189W        W 5240   2.183   5.657   1.481 -0.2839 -0.1862 -0.2085
 1190W        W 5241   0.722  10.056  12.914  0.0479  0.0689  0.0090
 1191W        W 5242   9.269   9.424   3.315 -0.3069  0.0404 -0.2782
 1192W        W 5243   6.955   0.670  13.081  0.1566 -0.0973  0.1356
 1193W        W 5244   8.533   8.325   4.096 -0.3332 -0.2700  0.1609
 1194W        W 5245   0.761   6.227   4.548  0.1564 -0.1238  0.3805
 1195W        W 5246   9.034  10.041   4.322 -0.2750  0.0005 -0.2438
 1196W        W 5247   4.967   3.548   3.585 -0.2660  0.0853  0.2275
 1197W        W 5248   5.392   4.918  10.001 -0.1470  0.1113  0.3625
 1198W        W 5249   9.110   2.894   1.539  0.1102  0.1447 -0.0093
 1199W        W 5250  10.097   5.903   1.504  0.2292  0.1920 -0.0274
 1200W        W 5251   9.375   1.945   3.585 -0.0654  0.0692 -0.1854
 1201W        W 5252   6.158   4.460   0.063  0.2051 -0.0050  0.0785
 1202W        W 5253   9.231   6.747   4.251  0.0694  0.0709  0.0151
 1203W        W 5254   8.188   9.815   4.414 -0.0455 -0.1239 -0.1565
 1204W        W 5255   1.363   6.068   0.813  0.0314  0.3105  0.0990
 1205W        W 5256   9.099   5.371  10.314 -0.0699 -0.1090  0.1204
 1206W        W 5257   6.537   1.585  12.390 -0.1779  0.2075  0.1582
 1207W        W 5258   2.074   7.508  13.818  0.0553  0.0928  0.0592
 1208W        W 5259   9.030   2.675   9.941  0.1838  0.0282  0.1157
 1209W        W 5260   4.321   6.997  11.130 -0.5168 -0.1929  0.4001
 1210W        W 5261   2.195   0.109  11.710 -0.1646  0.2300 -0.0422
 1211W        W 5262   3.554   7.459   5.104  0.0957 -0.0937 -0.2521
 1212W        W 5263   1.762   0.486  12.593  0.1711  0.0599  0.3757
 1213W        W 5264   1.770   3.633  12.825  0.0496  0.3261  0.0706
 1214W        W 5265   9.889   8.442   2.405 -0.1463 -0.1912  0.1868
 1215W        W 5266   1.839   7.531   1.436  0.1883 -0.0422 -0.0030
 1216W        W 5267   5.686   6.391   2.784 -0.2651 -0.3611  0.0604
 1217W        W 5268   9.976   7.631   3.218 -0.1059 -0.0479 -0.0240
 1218W        W 5269   7.829   8.722  11.440  0.0960  0.1998  0.2310
 1219W        W 5270   7.479   9.350   9.710 -0.1297 -0.0597 -0.0097
 1220W        W 5271   4.184   8.983   1.102  0.0385  0.0453  0.0092
 1221W        W 5272   4.923   0.208   0.874  0.3555 -0.1199  0.0382
 1222W        W 5273   7.963   7.644  13.642  0.1964 -0.0201  0.1361
 1223W        W 5274   1.707  10.160   3.650 -0.0231 -0.1720 -0.0860
 1224W        W 5275   1.101   4.015  11.811 -0.1469 -0.1652  0.0443
 1225W        W 5276   5.468   6.057   3.635 -0.1706  0.2010  0.3217
 1226W        W 5277   7.021   2.265   2.633 -0.0339 -0.1833 -0.0103
 1227W        W 5278   6.130   2.075  10.120  0.0439  0.0114 -0.2101
 1228W        W 5279   9.774   8.647   3.610  0.2848  0.0692  0.1092
 1229W        W 5280   4.472   3.778  10.111 -0.1554  0.0264 -0.1030
 1230W        W 5281   5.196   1.431   1.243 -0.1478  0.0772  0.0709
 1231W        W 5282   6.204   0.780  12.373  0.0179  0.2873 -0.1651
 1232W        W 5283   0.094   9.392   2.200  0.1402 -0.1396 -0.1503
 1233W        W 5284   3.651   9.243   2.057 -0.1396  0.0552 -0.2180
 1234W        W 5285   3.116   5.675  13.593  0.0532 -0.0232  0.1885
 1235W        W 5286   3.830   2.710   9.514  0.1238 -0.1139  0.1180
 1236W        W 5287   2.504   1.185  10.615 -0.0099  0.0206  0.0987
 1237W        W 5288   1.648   2.815   0.548  0.0706 -0.1254 -0.1312
 1238W        W 5289   5.590   6.982   3.868 -0.2306 -0.2601 -0.1285
 1239W        W 5290   3.207   3.412   1.387  0.0186 -0.0245  0.1141
 1240W        W 5291   6.548   3.787   4.546  0.2316 -0.4332  0.1321
 1241W        W 5292   0.498   8.794  11.250 -0.1209  0.0868 -0.0968
 1242W        W 5293   8.436   2.681  13.152 -0.2785 -0.1799 -0.2356
 1243W        W 5294   5.631   1.800   1.451 -0.2396  0.0682  0.2307
 1244W        W 5295   6.097   9.469  12.166 -0.0191 -0.1017  0.1786
 1245W        W 5296   3.540   5.908  11.321 -0.3090 -0.1524  0.0235
 1246W        W 5297   6.487   6.119  13.067 -0.0260 -0.1857  0.1015
 1247W        W 5298   2.328   2.940   3.633 -0.2040 -0.0501  0.1490
 1248W        W 5299   1.964   2.034   0.854 -0.2597  0.0185 -0.1945
 1249W        W 5300   5.043   0.670  12.508 -0.0398  0.1417 -0.2359
 1250W        W 5301   6.794   3.542  10.667  0.2630 -0.3361  0.0407
 1251W        W 5302   3.463   7.430   0.831  0.1402 -0.0124 -0.0199
 1252W        W 5303   8.630   7.387   2.094  0.0810  0.0049  0.0521
 1253W        W 5304   4.208   8.699   4.465  0.2173 -0.0608 -0.2133
 1254W        W 5305   1.869   6.064   3.477 -0.0422  0.0192  0.0243
 1255W        W 5306   8.185   0.982  13.199 -0.0455 -0.1718 -0.2724
 1256W        W 5307   5.647   3.260   5.116  0.1454 -0.1565  0.0775
 1257W        W 5308   9.050   6.034   2.334  0.0370  0.1159  0.1877
 1258W        W 5309   1.218   7.277  11.581  0.0615 -0.0041  0.0525
 1259W        W 5310   6.881   4.759  10.173 -0.1433 -0.2557  0.2201
 1260W        W 5311   8.481   3.470   9.781  0.0437  0.1370  0.3024
 1261W        W 5312   0.408   1.669   2.009  0.1302  0.0273  0.2791
 1262W        W 5313   9.623   9.697  11.256 -0.1374  0.1145  0.0540
 1263W        W 5314   2.365   0.659   0.447  0.2199  0.1706 -0.1324
 1264W        W 5315   8.531   9.611   0.546  0.3043  0.2914  0.1389
 1265W        W 5316   8.936   5.108   2.749  0.0435  0.0271 -0.1193
 1266W        W 5317   6.073   8.771  11.619 -0.1768 -0.0289  0.2476
 1267W        W 5318   5.626   6.388  10.171 -0.2322 -0.0897  0.0797
 1268W        W 5319   1.020   9.307   3.785  0.1146 -0.0486  0.3773
 1269W        W 5320   8.996   6.544  10.281  0.2648  0.0789 -0.0004
 1270W        W 5321   3.092   3.785   1.821 -0.3837 -0.1925  0.2120
 1271W        W 5322   3.291   0.085   2.869 -0.1494 -0.1570  0.0764
 1272W        W 5323   7.671   5.140   0.059  0.0546  0.2287 -0.1307
 1273W        W 5324   2.906   5.600  10.045 -0.1809  0.1258  0.3412
 1274W        W 5325   7.126   5.445   0.492  0.3551  0.1350 -0.2918
 1275W        W 5326   9.763   3.267   3.776  0.0186  0.2733 -0.1273
 1276W        W 5327   7.047   4.018   9.394 -0.2079  0.3865 -0.1738
 1277W        W 5328   8.805   8.122  13.221 -0.1084 -0.0217  0.1754
 1278W        W 5329   5.129   0.576  11.543  0.0306 -0.1402  0.1645
 1279W        W 5330   3.538   6.103   1.357 -0.3160  0.1396 -0.2477
 1280W        W 5331   8.798   0.783  10.211 -0.0753 -0.1027  0.0273
 1281W        W 5332   0.232   4.674  11.065 -0.1849 -0.1229 -0.2043
 1282W        W 5333   3.233   1.458  10.715  0.1315 -0.2782 -0.2064
 1283W        W 5334   8.382   8.514  12.513  0.1390  0.0800 -0.0006
 1284W        W 5335   5.667   4.314   0.126 -0.2675 -0.1233 -0.0851
 1285W        W 5336   7.792   9.603   1.560 -0.4031  0.1972 -0.0461
 1286W        W 5337   5.752   0.065  12.499  0.1632 -0.1600 -0.0450
 1287W        W 5338   2.236   8.746  11.075  0.3921 -0.1775  0.0485
 1288W        W 5339   8.802  10.058  10.567 -0.3110  0.1806 -0.0181
 1289W        W 5340   3.412   7.238  11.054 -0.0981  0.0402  0.0197
 1290W        W 5341   6.825   1.158   1.421  0.2176  0.1330  0.0727
 1291W        W 5342   6.344   0.871  11.328  0.0869  0.1620  0.1998
 1292W        W 5343   0.035   4.225  11.222 -0.1440  0.2393  0.4156
 1293W        W 5344   5.762   9.382   4.030  0.3514 -0.1658  0.2997
 1294W        W 5345   0.118   7.282  12.444  0.1012 -0.1474  0.0112
 1295W        W 5346   0.189   2.482   2.474  0.0284 -0.5275 -0.2287
 1296W        W 5347   7.714   6.873   9.355  0.0793  0.4469  0.1075
 1297W        W 5348   0.519   1.798  13.071  0.0879 -0.1989  0.0623
 1298W        W 5349   2.125   2.321  12.127 -0.2132 -0.0245 -0.0371
 1299W        W 5350   2.635   8.451  13.985  0.0748 -0.0364 -0.0900
 1300W        W 5351   6.463   5.671   1.555  0.0674 -0.0082 -0.0522
 1301W        W 5352   4.989   0.001  13.950  0.1725  0.1292 -0.2020
 1302W        W 5353   3.195   1.883   0.838  0.1681  0.1058 -0.2896
 1303W        W 5354   4.407   7.533   3.686 -0.1599  0.1816 -0.1511
 1304W        W 5355  10.136   6.678   2.983 -0.3227 -0.2378 -0.1378
 1305W        W 5356  10.005   7.499   2.046  0.0146  0.0441  0.0503
 1306W        W 5357   3.911   1.259  10.335  0.0364 -0.0396 -0.3147
 1307W        W 5358   2.595   2.764   1.150  0.0611 -0.0824 -0.3510
 1308W        W 5359   5.502   1.659  13.568  0.0396  0.2729  0.0940
 1309W        W 5360   0.873   4.366  11.583  0.7960  0.0053 -0.2645
 1310W        W 5361   0.578   9.437   3.536  0.4049  0.4345 -0.0770
 1311W        W 5362   4.825   5.052   8.742  0.1242  0.2862 -0.1069
 1312W        W 5363   5.890   7.694  10.622  0.2514 -0.2056  0.3106
 1313W        W 5364   9.861   7.239  13.958 -0.1055  0.3075 -0.1020
 1314W        W 5365   8.206   1.335  12.104  0.0800 -0.0492 -0.0271
 1315W        W 5366   3.347   3.085   2.915  0.2057 -0.0027 -0.0233
 1316W        W 5367   2.787   0.581   0.815  0.0869  0.1575 -0.1833
 1317W        W 5368   8.499   9.321  11.500 -0.0517  0.2338 -0.2350
 1318W        W 5369   9.960   6.618  13.282 -0.2176  0.2950 -0.0392
 1319W        W 5370   9.275   8.131   0.082  0.2311 -0.0334  0.0937
 1320W        W 5371   0.360   8.518   3.863 -0.3127 -0.0109 -0.1546
 1321W        W 5372   8.717   6.878   4.262  0.2055 -0.1201  0.1063
 1322W        W 5373   3.301   1.683   9.839 -0.3297 -0.0780  0.2192
 1323W        W 5374   6.863   4.878  12.919  0.2873 -0.1758  0.0784
 1324W        W 5375   1.828   4.641   1.204 -0.1394 -0.1837  0.1524
 1325W        W 5376   6.587   3.131   2.283  0.0056 -0.1103 -0.1159
 1326W        W 5377   0.310   2.945  11.544 -0.1789 -0.1174  0.0928
 1327W        W 5378   5.761   1.163  12.534 -0.1940 -0.1208  0.2209
 1328W        W 5379   5.623   2.634   2.583  0.1016 -0.2194 -0.0525
 1329W        W 5380   7.877   8.336   1.207 -0.0366  0.1228  0.2203
 1330W        W 5381   7.597   9.797  13.636  0.3311 -0.2211 -0.0474
 1331W        W 5382   1.588   8.267   3.221  0.1837  0.0366  0.1257
 1332W        W 5383   7.874   3.922   5.043  0.3565 -0.0518 -0.0419
 1333W        W 5384   6.464   8.825  13.469  0.0494  0.1231 -0.0420
 1334W        W 5385   1.812   8.349  12.803 -0.1290 -0.2358  0.2298
 1335W        W 5386   0.171   7.956   9.471 -0.1103 -0.1822  0.2963
 1336W        W 5387   8.064   9.908  10.334 -0.0659  0.2909  0.1022
 1337W        W 5388   2.992   6.995  10.935 -0.1797 -0.0022  0.0295
 1338W        W 5389   0.345   0.227  10.682 -0.2271 -0.2059 -0.2020
 1339W        W 5390   1.401   5.460  10.091  0.1388  0.2062  0.1654
 1340W        W 5391   1.864   5.613  10.278 -0.0639  0.2240  0.0439
 1341W        W 5392   3.932   0.224   1.732  0.2294 -0.0275  0.2510
 1342W        W 5393   9.015   7.695  13.369  0.0012 -0.1408  0.1698
 1343W        W 5394   6.679   1.333  12.760  0.0702 -0.0136 -0.1514
 1344W        W 5395   4.613   9.053   0.219  0.2360  0.1203  0.2499
 1345W        W 5396   7.159   9.083   4.533 -0.1028  0.0665 -0.0635
 1346W        W 5397   8.976   6.721   2.604  0.3251 -0.1598  0.1255
 1347W        W 5398   6.099   5.981   4.873 -0.3503  0.1785 -0.1172
 1348W        W 5399   1.466   4.714  12.025  0.0070  0.1170  0.2287
 1349W        W 5400   7.134   1.211  12.366  0.1198  0.0117 -0.2170
 1350W        W 5401   6.688   6.237   0.434  0.2040 -0.3173  0.0129
 1351W        W 5402   7.325   2.080  12.521  0.1426  0.1453  0.0819
 1352W        W 5403   8.649   9.941   4.607 -0.0113 -0.1501  0.1415
 1353W        W 5404   3.739   5.973  10.201 -0.0554  0.0010  0.1059
 1354W        W 5405   8.510   7.429   3.524  0.0513  0.3131 -0.1115
 1355W        W 5406   8.335   3.307  13.636 -0.1057  0.1954 -0.0237
 1356W        W 5407   0.078   6.818  12.243 -0.1856 -0.0026  0.0050
 1357W        W 5408   9.164   3.484   0.596  0.2906  0.2992 -0.0347
 1358W        W 5409   4.018   7.291  10.283 -0.0819 -0.6745  0.0718
 1359W        W 5410   8.916   5.510  11.877  0.2036 -0.1398 -0.2387
 1360W        W 5411   2.082   8.508   3.233  0.2135 -0.1080 -0.1113
 1361W        W 5412   9.955   2.677   5.496 -0.2436  0.2961 -0.0059
 1362W        W 5413   2.148   1.027  10.313 -0.3773 -0.2037 -0.1715
 1363W        W 5414   0.971   6.086   0.452 -0.0452 -0.3954  0.1062
 1364W        W 5415   9.700   0.578   4.020 -0.0138 -0.0034  0.1624
 1365W        W 5416   7.469   4.447   9.454 -0.0662  0.2293 -0.0818
 1366W        W 5417   7.052   1.028   9.658  0.2068 -0.5189  0.0828
 1367W        W 5418   6.398   1.539  13.949  0.2078 -0.0734  0.0548
 1368W        W 5419   6.076   7.031  10.779  0.2584  0.1777 -0.1075
 1369W        W 5420   2.738   1.081  13.134  0.3621 -0.0289  0.1963
 1370W        W 5421   9.870   2.726   0.059  0.0640  0.1376 -0.0296
 1371W        W 5422   4.038   6.824  12.126 -0.0443  0.1993  0.1098
 1372W        W 5423   6.459   1.556  10.734  0.3482 -0.1802 -0.0124
 1373W        W 5424   8.440   3.896   2.099  0.1169 -0.1727  0.0138
 1374W        W 5425   8.938   7.839   1.530  0.0265  0.0051 -0.0389
 1375W        W 5426   5.676   3.635  13.688 -0.0988  0.2921  0.0186
 1376W        W 5427   3.086   0.759  13.751  0.1000  0.1932 -0.0757
 1377W        W 5428   9.254   8.419  12.627  0.1673 -0.0311  0.1220
 1378W        W 5429   5.497   1.633   0.892 -0.0080  0.0193  0.0114
 1379W        W 5430   7.922   6.953   2.568 -0.3136  0.1393 -0.2054
 1380W        W 5431   5.435   6.342   2.338 -0.1706 -0.3383 -0.0483
 1381W        W 5432   0.719   3.968   0.431 -0.0392  0.0637 -0.0971
 1382W        W 5433   0.624   6.268  12.937 -0.1861 -0.2365 -0.3979
 1383W        W 5434   1.914   5.602   3.186  0.1867  0.3087 -0.0432
 1384W        W 5435   1.794   5.793   4.503  0.3902 -0.0013  0.4047
 1385W        W 5436   4.504   2.097  11.327  0.0952 -0.1976  0.1331
 1386W        W 5437   3.123   0.315  11.545  0.2214  0.0455  0.1006
 1387W        W 5438   5.006   5.932   3.899  0.0643  0.1531 -0.1482
 1388W        W 5439   4.374   4.561   1.306  0.2153  0.3252 -0.0905
 1389W        W 5440   5.221   2.913  14.003 -0.0544 -0.0476  0.1361
 1390W        W 5441   9.649   2.345   3.663  0.0149 -0.0185 -0.0536
 1391W        W 5442   4.665   5.144  12.517  0.3969 -0.3765 -0.2477
 1392W        W 5443   0.639   3.923   0.898  0.0298  0.3171 -0.2732
 1393W        W 5444   3.376   6.101  13.819 -0.3760 -0.1486 -0.0374
 1394W        W 5445   6.306   2.000  13.753  0.1987  0.0364  0.0585
 1395W        W 5446   3.072   8.636   4.138 -0.0525 -0.1531  0.0683
 1396W        W 5447   5.712   4.725   9.448 -0.0776  0.0535 -0.2413
 1397W        W 5448   3.567   5.889  12.915  0.0383  0.4115 -0.3621
 1398W        W 5449   5.313   5.259  14.048  0.2553  0.0159 -0.0399
 1399W        W 5450   8.303   9.809  11.281  0.0268 -0.5580 -0.0013
 1400W        W 5451   4.909   8.334   2.550 -0.0554  0.1191  0.0606
 1401W        W 5452   7.193   9.730   4.080 -0.3945 -0.0287 -0.1291
 1402W        W 5453   1.828   5.298   1.580 -0.1456  0.1263  0.1185
 1403W        W 5454   8.547   2.824   4.540 -0.1581  0.0521 -0.1300
 1404W        W 5455   0.527   5.638   9.723  0.0088  0.0397  0.2879
 1405W        W 5456   0.630   7.246  10.750  0.0768 -0.1016  0.1797
 1406W        W 5457   2.620   7.106  13.264  0.4483  0.1187 -0.1768
 1407W        W 5458   8.840   3.546   1.603  0.1122  0.1126  0.1313
 1408W        W 5459   8.868   6.055   3.900  0.3336 -0.0446  0.0146
 1409W        W 5460   0.412   2.630   8.705 -0.1351  0.0900  0.3049
 1410W        W 5461   7.199   0.849   4.005 -0.0936 -0.2371 -0.0595
 1411W        W 5462   9.671   0.391  10.070 -0.0790  0.4168  0.0207
 1412W        W 5463   9.106   8.968  11.981  0.2919  0.0681  0.2194
 1413W        W 5464   6.938   8.447  10.550 -0.1896 -0.4077  0.2172
 1414W        W 5465   5.261  10.027   2.054 -0.2551  0.0622 -0.1328
 1415W        W 5466   8.097   9.043   4.844  0.0754 -0.1744 -0.0858
 1416W        W 5467   4.771   0.554   3.436 -0.1044 -0.0512  0.1909
 1417W        W 5468   4.579   6.011   1.576 -0.1293  0.2016  0.2734
 1418W        W 5469   2.663   0.559  14.015 -0.0849  0.3211  0.0786
 1419W        W 5470   3.215   0.353   0.830  0.0570 -0.1252 -0.0332
 1420W        W 5471   1.154   8.636  10.972  0.0207 -0.0438 -0.0473
 1421W        W 5472   6.236   7.167   1.971 -0.0728  0.2253 -0.0688
 1422W        W 5473   0.635   2.753  13.156  0.1644 -0.1660 -0.0617
 1423W        W 5474   9.891   2.879  12.870 -0.0631  0.1636 -0.0383
 1424W        W 5475   8.196   8.976  13.187  0.1629  0.1569  0.0596
 1425W        W 5476   5.663   6.060   1.533 -0.3255  0.2605 -0.3041
 1426W        W 5477   5.649   2.407  13.919  0.0505 -0.0107 -0.2317
 1427W        W 5478   5.370   3.916   0.083 -0.2088  0.0906  0.2539
 1428W        W 5479   8.064   3.434  12.421 -0.0094 -0.2194 -0.0478
 1429W        W 5480   2.769   7.415  11.948 -0.2295 -0.0322 -0.0451
 1430W        W 5481  10.068   2.163  11.273 -0.1780 -0.1482  0.2651
 1431W        W 5482   5.639   8.446   9.922 -0.3870  0.0924  0.0969
 1432W        W 5483   8.968   6.522   4.852 -0.0683  0.1605  0.1321
 1433W        W 5484   1.249   3.414   1.139  0.2416 -0.2409 -0.1194
 1434W        W 5485   5.605   2.301   0.998 -0.2571 -0.1038 -0.1712
 1435W        W 5486   9.042   5.606   1.840 -0.2417  0.1886 -0.0838
 1436W        W 5487   4.147   3.368   3.288 -0.1755  0.0391  0.0718
 1437W        W 5488   1.717   5.085  10.551  0.0264  0.0147  0.0918
 1438W        W 5489   4.167   5.265   9.928  0.0642 -0.2087  0.2581
 1439W        W 5490   9.433   2.526   1.639 -0.2122  0.1139 -0.1937
 1440W        W 5491   9.671   5.690   3.120  0.2792  0.0460  0.1019
 1441W        W 5492   6.863   6.123  10.727 -0.0783 -0.1630 -0.0095
 1442W        W 5493   2.883   8.595   0.376  0.0960 -0.1827 -0.0874
 1443W        W 5494   1.612   9.730   1.072  0.1699 -0.2169 -0.2324
 1444W        W 5495   1.485   2.567  13.655 -0.1523  0.1589 -0.1619
 1445W        W 5496   5.543   7.452  10.309 -0.1063 -0.1107 -0.0735
 1446W        W 5497   7.376   8.282   1.258  0.1756  0.0889 -0.0703
 1447W        W 5498   6.566   5.493  11.735  0.0133  0.3829 -0.0655
 1448W        W 5499   7.877   5.088   4.099  0.1092  0.0255 -0.3019
 1449W        W 5500   0.307   7.530   4.556  0.0418  0.0223  0.2720
 1450W        W 5501   2.566   5.690   0.300 -0.0756 -0.0681 -0.1613
 1451W        W 5502   0.006   4.736  11.541 -0.1334 -0.1282 -0.2197
 1452W        W 5503   1.581   4.243   2.415 -0.1480  0.0952  0.1563
 1453W        W 5504   1.082   5.334   3.325  0.2707 -0.0759  0.1996
 1454W        W 5505   9.637   3.367   4.730  0.3933  0.2113  0.0331
 1455W        W 5506   8.426   7.366   2.611  0.0583 -0.3515  0.0112
 1456W        W 5507   8.739   6.170  13.525 -0.0229  0.0714 -0.2179
 1457W        W 5508   0.459   3.418  10.201 -0.3367 -0.3052 -0.0744
 1458W        W 5509   6.269   4.102  10.604 -0.0268  0.1110 -0.2388
 1459W        W 5510   3.358   5.135  11.459  0.3337 -0.1702 -0.0451
 1460W        W 5511   5.792   7.769   5.118  0.4585  0.1109 -0.0923
 1461W        W 5512   4.888   4.773  12.719 -0.0294  0.1270  0.2635
 1462W        W 5513   3.108   6.996   3.777  0.1174  0.0638  0.2747
 1463W        W 5514   1.312   6.557   0.509 -0.0741  0.0005  0.1465
 1464W        W 5515   7.279   1.839   2.349 -0.0771  0.3732 -0.2213
 1465W        W 5516   7.226   0.309   2.608  0.3974  0.0845  0.0823
 1466W        W 5517   7.909   3.447  12.894  0.0309  0.1186 -0.1639
 1467W        W 5518   2.993   9.312  13.643 -0.0365  0.0568 -0.0910
 1468W        W 5519   8.510   9.804  11.761  0.0195  0.0910 -0.2304
 1469W        W 5520  10.101   0.340  11.988  0.0754  0.1847  0.0588
 1470W        W 5521   6.971   1.942   9.847 -0.1914  0.1607  0.0950
 1471W        W 5522   6.342   0.837   3.746 -0.2739 -0.1204 -0.0416
 1472W        W 5523   6.670   7.591  13.641 -0.0850 -0.0325 -0.0845
 1473W        W 5524   2.639   4.038   4.242  0.0957 -0.0190  0.1118
 1474W        W 5525   7.722   2.947   4.004  0.1500 -0.0689  0.1556
 1475W        W 5526   1.245   1.590  13.541  0.2262  0.1986  0.1600
 1476W        W 5527   6.067   1.809   1.270 -0.0900  0.0752 -0.3082
 1477W        W 5528   8.269   7.013  12.097  0.2763  0.3621  0.2432
 1478W        W 5529   2.230   1.314  13.621  0.0386  0.1375 -0.0816
 1479W        W 5530   9.355   1.287  11.215 -0.2908 -0.1195 -0.1464
 1480W        W 5531   5.303   6.136   4.685  0.2096  0.0704 -0.2368
 1481W        W 5532   9.031   8.110  11.979  0.2742  0.1497  0.1825
 1482W        W 5533   2.784   5.799  10.554  0.0927 -0.1007 -0.3297
 1483W        W 5534   3.019   7.253   1.081  0.0805  0.0165  0.2108
 1484W        W 5535   3.885   7.613   2.073  0.4080 -0.0905 -0.2611
 1485W        W 5536   9.198   8.265  13.555  0.1953  0.1523  0.2087
 1486W        W 5537   7.500   3.365  10.143 -0.0893 -0.1249 -0.0340
 1487W        W 5538   9.809   4.602   0.898  0.1241 -0.1926 -0.1217
 1488W        W 5539   5.849   4.077  13.767 -0.1199  0.0255  0.1336
 1489W        W 5540   4.866   2.104   4.841 -0.2964  0.1842  0.1621
 1490W        W 5541   0.175   4.054   2.511 -0.0170 -0.0784  0.3039
 1491W        W 5542   9.747   9.042   1.370  0.1396  0.1623 -0.1235
 1492W        W 5543   1.576   4.320   3.497  0.1201 -0.0871  0.0231
 1493W        W 5544   3.552   1.117  10.644 -0.4356 -0.4460  0.1833
 1494W        W 5545   7.810   9.462  10.336  0.1193  0.5158 -0.2952
 1495W        W 5546   0.112   4.742  12.001 -0.2556  0.1096  0.1415
 1496W        W 5547   4.278   9.441   2.799  0.1598 -0.1216  0.1675
 1497W        W 5548   6.742   0.125  10.647  0.1752  0.1077 -0.4360
 1498W        W 5549   8.425   1.434  12.532  0.4728 -0.0251  0.3132
 1499W        W 5550   9.547   2.861   4.617 -0.1138  0.0191  0.0527
 1500W        W 5551   5.883   7.261   0.645 -0.1487 -0.0119  0.1462
 1501W        W 5552   6.478   5.989  11.720 -0.1820  0.1458 -0.0475
 1502W        W 5553   7.481   8.830  12.289 -0.1510 -0.5955 -0.3286
 1503W        W 5554   4.105   3.701   2.563  0.2005  0.2652 -0.0729
 1504W        W 5555  10.044   6.300  12.827  0.0950  0.0166 -0.0459
 1505W        W 5556   8.906   1.407   4.961  0.2307  0.0436  0.0096
 1506W        W 5557   6.373   7.028   0.950  0.1423 -0.0052 -0.0111
 1507W        W 5558   1.516   8.867  12.213 -0.1086 -0.1834 -0.2364
 1508W        W 5559   0.926   6.979   0.497  0.1480  0.3059  0.3159
 1509W        W 5560   1.379   1.477   0.422 -0.1230 -0.0395 -0.0919
 1510W        W 5561   0.420   4.413  12.585 -0.0044 -0.1084 -0.2123
 1511W        W 5562   5.725   0.105   4.022  0.3759  0.1425  0.0208
 1512W        W 5563   6.298   5.632  13.185 -0.0827 -0.1092  0.2804
 1513W        W 5564   0.967   8.058  13.060 -0.1440 -0.0456  0.4150
 1514W        W 5565   9.505   5.023  12.568 -0.4733  0.1743  0.1159
 1515W        W 5566   1.304   2.398   2.633 -0.1226  0.1352  0.1488
 1516W        W 5567   6.380   1.977   4.490 -0.2071  0.0377  0.2947
 1517W        W 5568   4.496   1.443   4.106  0.1687  0.2515  0.1444
 1518W        W 5569   8.517   5.931  10.831  0.1869  0.3256 -0.1186
 1519W        W 5570   7.321   5.097   3.217  0.2220 -0.1664  0.1868
 1520W        W 5571   8.268   0.650   2.895  0.0539 -0.0938 -0.0144
 1521W        W 5572   6.396   6.458  13.853  0.1189  0.1623 -0.1640
 1522W        W 5573   3.643   0.650   0.515 -0.1855  0.1083  0.0511
 1523W        W 5574   5.310   7.824   5.358  0.0322  0.1158 -0.1287
 1524W        W 5575   7.010   8.602   4.410 -0.1474 -0.0306  0.3552
 1525W        W 5576   3.339   3.437   0.487  0.1265  0.0545  0.1132
 1526W        W 5577   6.921   3.451   0.721  0.1463  0.3885  0.3256
 1527W        W 5578   5.114   8.020   4.687  0.4396  0.3550  0.0161
 1528W        W 5579   1.448   4.156  12.121 -0.1627  0.0070  0.1614
 1529W        W 5580   1.669   6.514  11.602  0.1859 -0.0481  0.1074
 1530W        W 5581   4.368   5.559   9.448 -0.2274 -0.4344 -0.0825
 1531W        W 5582   4.084   2.015  11.732  0.3140 -0.3148  0.0932
 1532W        W 5583   9.602   4.104   9.228 -0.2714  0.0458  0.1218
 1533W        W 5584   2.897   7.999  13.767 -0.0770 -0.0427  0.2724
 1534W        W 5585   3.259   1.578  11.466 -0.0479 -0.0565 -0.2030
 1535W        W 5586   8.860   6.757   1.538 -0.2700  0.3750  0.1357
 1536W        W 5587   4.157   8.251   4.275  0.1523 -0.1658  0.3068
 1537W        W 5588   7.429   0.410   3.859  0.0853 -0.2486 -0.3316
 1538W        W 5589   0.140   4.428   2.827  0.0405 -0.5758 -0.0498
 1539W        W 5590   6.687   3.201  11.536  0.2635 -0.1972 -0.0399
 1540W        W 5591   5.946   9.905   5.519  0.1381  0.0045  0.4417
 1541W        W 5592   9.643   2.695  13.631 -0.1768  0.1080 -0.0229
 1542W        W 5593   2.002   6.099   0.932  0.4560 -0.1266  0.0220
 1543W        W 5594   1.634   5.612   0.700  0.1097  0.1860 -0.2257
 1544W        W 5595   4.077   6.296   4.079  0.1684 -0.0922 -0.1424
 1545W        W 5596   2.468   2.695  10.158  0.0279  0.0781  0.2098
 1546W        W 5597   1.120   4.641   2.537  0.3011 -0.2510  0.0832
 1547W        W 5598   4.834   8.324   1.373 -0.0122  0.0364 -0.2177
 1548W        W 5599   5.716   6.448   4.989 -0.1304  0.0332 -0.2858
 1549W        W 5600   8.474   2.364   3.605  0.1279  0.1353 -0.1894
 1550W        W 5601   9.868   6.559   3.362 -0.1591  0.2857 -0.2661
 1551W        W 5602   3.221   6.434   1.555  0.0175 -0.0641  0.1616
 1552W        W 5603   8.515   2.093   2.342 -0.3639 -0.3500  0.2716
 1553W        W 5604   6.177   2.308   0.069  0.3171  0.0004  0.3356
 1554W        W 5605   8.002   0.386   1.969  0.1022 -0.1421  0.3500
 1555W        W 5606   7.200   9.147   5.013 -0.1469  0.0063  0.2837
 1556W        W 5607   2.685   0.701   1.744  0.2886 -0.2536  0.2790
 1557W        W 5608   0.211   7.576   4.067 -0.0675 -0.2675 -0.1613
 1558W        W 5609   7.501   8.967   0.247  0.0478 -0.1533 -0.1784
 1559W        W 5610   1.722   1.435  13.015 -0.2301 -0.2442  0.0692
 1560W        W 5611   9.921   5.545  11.869 -0.0208  0.1187  0.0668
 1561W        W 5612   9.966   2.455  12.611  0.0180 -0.0111 -0.0470
 1562W        W 5613   4.215   7.708   3.054 -0.1565  0.1026  0.1192
 1563W        W 5614   3.822   1.038   3.265  0.0740 -0.2065  0.3595
 1564W        W 5615   0.187   1.169   2.131  0.0487  0.0625  0.3805
 1565W        W 5616   6.361   4.382   2.936 -0.0897  0.1283  0.1455
 1566W        W 5617   9.918   5.012   3.563 -0.0128 -0.0615  0.0526
 1567W        W 5618   0.673   9.272  12.377 -0.1520  0.3293  0.1181
 1568W        W 5619   0.432   1.375  13.487  0.1704 -0.0041  0.1348
 1569W        W 5620   4.153   3.669  11.443  0.1339  0.2285 -0.0282
 1570W        W 5621   9.911   5.530   0.820  0.1051  0.1486  0.2356
 1571W        W 5622   4.790   0.807  10.393 -0.1312 -0.1171 -0.1173
 1572W        W 5623   2.551   9.747  11.629 -0.2456  0.1094  0.0792
 1573W        W 5624   9.198   7.178   1.219  0.0788  0.1993 -0.1390
 1574W        W 5625   5.654   9.700  10.430 -0.1702  0.3165  0.2404
 1575W        W 5626   5.098   0.419  13.740 -0.2727  0.1183  0.4089
 1576W        W 5627   7.237   1.118   0.384  0.0239 -0.0160 -0.1293
 1577W        W 5628   1.848   6.036   2.142 -0.2138 -0.0726  0.1401
 1578W        W 5629   2.371   4.024  12.110  0.1689  0.1820  0.2011
 1579W        W 5630   5.487   1.306   9.708  0.0647 -0.0236  0.2722
 1580W        W 5631   4.949   2.557   9.650  0.0740 -0.1298  0.1386
 1581W        W 5632   9.364   5.129   2.195  0.0776  0.2307  0.3114
 1582W        W 5633   6.072   0.333  13.241 -0.0697  0.1679 -0.1923
 1583W        W 5634   0.902   4.198  10.875  0.1197 -0.0616 -0.0453
 1584W        W 5635   1.340   2.623  10.553  0.1070  0.2714 -0.0598
 1585W        W 5636   8.989   8.709  10.255  0.0146 -0.1657  0.0114
 1586W        W 5637   4.373   0.010   4.319 -0.0086 -0.1784  0.1676
 1587W        W 5638   6.946   4.851   0.860 -0.1000  0.0793 -0.0073
 1588W        W 5639   9.632   2.358   9.292 -0.1320 -0.3318 -0.0966
 1589W        W 5640   1.114   7.357  11.033  0.1236  0.0777  0.2063
 1590W        W 5641   4.052   0.170  11.679 -0.0730 -0.1389  0.0596
 1591W        W 5642   6.431   9.215   0.792 -0.1861  0.1770 -0.0558
 1592W        W 5643   3.235   0.016   4.090 -0.0404  0.1206  0.2477
 1593W        W 5644   2.297   6.268   1.743 -0.1915  0.0334 -0.1328
 1594W        W 5645   4.123   8.979   2.959  0.1480  0.2257 -0.0951
 1595W        W 5646   3.186   8.305  10.890 -0.2248 -0.1232 -0.0702
 1596W        W 5647   9.137   4.301   2.034  0.1677 -0.0350  0.0686
 1597W        W 5648   3.285   4.484  10.762  0.2599 -0.0582  0.2999
 1598W        W 5649   5.085   0.367   2.606 -0.1661  0.5538 -0.5469
 1599W        W 5650   6.087   9.474   5.024 -0.1577  0.0644 -0.0014
 1600W        W 5651   5.597   7.835   2.619  0.0537  0.1231  0.2781
 1601W        W 5652   9.435   4.546   2.381  0.1237  0.1112 -0.2695
 1602W        W 5653   8.825   0.023  12.612 -0.0475 -0.3774  0.4207
 1603W        W 5654   8.561  10.004   2.763  0.1855 -0.1807  0.1342
 1604W        W 5655   4.476   8.566   0.219 -0.1152  0.0924 -0.0431
 1605W        W 5656   4.106   0.104   1.241 -0.3677 -0.0601 -0.0673
 1606W        W 5657   9.656   7.161   1.909 -0.0328  0.0362 -0.1336
 1607W        W 5658   1.490   3.745  11.135  0.1619  0.0665  0.1042
 1608W        W 5659   2.911   5.143   3.992  0.0580  0.0294  0.2998
 1609W        W 5660   4.845   2.255   2.316 -0.1020  0.2308  0.0027
 1610W        W 5661   4.984   0.077   3.420  0.1140  0.1674 -0.0240
 1611W        W 5662   3.352   7.935   2.239 -0.2363 -0.1498 -0.2659
 1612W        W 5663   8.598   1.870   3.784 -0.0299 -0.1856 -0.1733
 1613W        W 5664   9.263   8.714   4.656  0.0645  0.3242 -0.0177
 1614W        W 5665   3.173   6.395   9.776 -0.0647  0.2446 -0.0368
 1615W        W 5666   1.661   4.020  12.558 -0.3195 -0.1792 -0.1168
 1616W        W 5667   6.121   2.212   3.214 -0.1484  0.1836 -0.0020
 1617W        W 5668   7.911   1.053   8.893  0.0850  0.2631  0.1038
 1618W        W 5669   6.804   3.844   0.928 -0.0132 -0.0043 -0.0308
 1619W        W 5670   3.984   5.740  13.129 -0.1575  0.0024  0.2382
 1620W        W 5671   6.489   9.163   9.638  0.0349  0.0408 -0.1882
 1621W        W 5672   8.890   0.622   3.739 -0.0134  0.2141  0.0343
 1622W        W 5673   0.688   4.554  11.087 -0.1234 -0.1213  0.1449
 1623W        W 5674   8.750   5.030  10.012 -0.1609  0.0157 -0.0973
 1624W        W 5675   7.779   3.740   2.350  0.1320  0.0531  0.1511
 1625W        W 5676   4.422   1.603   2.454  0.0740 -0.1325 -0.0323
 1626W        W 5677   5.188   9.719  10.530  0.1755 -0.1305  0.1106
 1627W        W 5678   1.370   7.950  11.387  0.0952 -0.0559  0.0743
 1628W        W 5679   0.161   7.197   2.493  0.0741 -0.0597  0.0564
 1629W        W 5680   4.754   4.909   9.288  0.1534  0.0041  0.0272
 1630W        W 5681   9.153   1.874   0.577  0.1487  0.0553  0.2149
 1631W        W 5682   4.787   1.543   1.500 -0.3616  0.1412 -0.0383
 1632W        W 5683   6.781   2.415   4.504  0.0798  0.2041 -0.1850
 1633W        W 5684   2.692   4.462  12.132 -0.1233  0.3703 -0.0811
 1634W        W 5685   2.792   9.086  11.753 -0.1474 -0.0880 -0.2771
 1635W        W 5686   6.273   9.287   4.132  0.1062 -0.0945 -0.0679
 1636W        W 5687   4.838   5.163   1.775  0.3251 -0.2401  0.0481
 1637W        W 5688   5.617   7.139   9.920  0.0562 -0.1061  0.1123
 1638W        W 5689   5.173   3.777  12.147 -0.0823  0.1200 -0.0236
 1639W        W 5690   1.159   9.325  13.419  0.0778 -0.0678 -0.0841
 1640W        W 5691   3.224   5.763  12.564 -0.6991 -0.2047  0.0374
 1641W        W 5692   0.289   4.627   1.906 -0.1412  0.0972  0.0181
 1642W        W 5693   3.861   8.418  10.938 -0.2151 -0.2388  0.0803
 1643W        W 5694   7.845   6.353  12.149  0.0239 -0.1949  0.4001
 1644W        W 5695   8.137   6.173  11.669  0.3977  0.0209  0.1369
 1645W        W 5696   2.077   1.216   2.087 -0.0113 -0.0804  0.1300
 1646W        W 5697   6.913   1.704   5.322 -0.0039 -0.1393  0.0895
 1647W        W 5698   6.351   3.464  11.907 -0.0111 -0.1500  0.1797
 1648W        W 5699   9.217   4.853   9.129 -0.4036 -0.4280  0.1542
 1649W        W 5700   5.802   9.497  10.016 -0.0178 -0.5593 -0.1017
 1650W        W 5701   4.275   7.893  13.491 -0.0908 -0.0264  0.0466
 1651W        W 5702   9.706   1.953   4.022  0.0282  0.0406  0.1097
 1652W        W 5703   3.093   2.031  10.596  0.0101  0.0861  0.0653
 1653W        W 5704   5.783   1.161   4.868 -0.0724 -0.0263 -0.0001
 1654W        W 5705   0.190   9.904  10.459  0.2561 -0.0454  0.0877
 1655W        W 5706   4.974   4.761   3.056 -0.0220 -0.1114 -0.2317
 1656W        W 5707   1.972   3.959  11.313  0.4477  0.2753 -0.1211
 1657W        W 5708   3.749   3.951  10.112 -0.0602  0.3093  0.0876
 1658W        W 5709   0.561   4.451   4.165 -0.1716 -0.1164  0.0393
 1659W        W 5710   3.429   2.033  11.961 -0.1661 -0.1491  0.0137
 1660W        W 5711   8.461   3.564  11.405 -0.1962  0.0274  0.3655
 1661W        W 5712   1.630   8.086   1.996 -0.2517  0.0973 -0.3400
 1662W        W 5713   6.251   9.000  13.908 -0.1505 -0.0056 -0.0218
 1663W        W 5714   7.388   2.880  12.206  0.1207 -0.0910  0.0870
 1664W        W 5715   9.662   2.457   4.144  0.0559  0.1983 -0.0215
 1665W        W 5716   6.123   6.377   9.590  0.3419  0.0314  0.3323
 1666W        W 5717   6.156   9.963   1.783  0.1629  0.0174 -0.3099
 1667W        W 5718   4.261   2.451  10.057  0.0566  0.2420  0.0226
 1668W        W 5719   0.082   6.461   1.953 -0.0859 -0.0471  0.0404
 1669W        W 5720   8.435   5.074   0.719 -0.0872 -0.2720  0.1517
 1670W        W 5721   1.218   7.306   3.221 -0.1668 -0.1487  0.1549
 1671W        W 5722   8.422   6.340   9.602  0.2488  0.0742 -0.0148
 1672W        W 5723   3.994   4.296   9.719  0.3339  0.3688 -0.1399
 1673W        W 5724   2.600   5.322  10.380  0.3660 -0.1595 -0.0181
 1674W        W 5725  10.045   1.652   0.101 -0.0810 -0.3470 -0.1865
 1675W        W 5726   6.217   4.075   3.333  0.0902 -0.1486  0.0316
 1676W        W 5727   7.206   2.269  13.516  0.1498 -0.2052 -0.3130
 1677W        W 5728   5.429   7.913  12.140 -0.1375 -0.2410 -0.0079
 1678W        W 5729   9.575   4.540   3.837  0.0002 -0.0178 -0.3485
 1679W        W 5730   0.757   5.301  10.713 -0.2868  0.0201 -0.2736
 1680W        W 5731   5.347   2.441   2.207 -0.0820 -0.2654 -0.1593
 1681W        W 5732   6.842   2.542   0.401 -0.3355  0.1488  0.0458
 1682W        W 5733   0.729   7.407   3.770  0.1644  0.0534 -0.2547
 1683W        W 5734   6.612   1.092   2.336 -0.2413 -0.0479  0.1356
 1684W        W 5735   7.653   0.085   2.451  0.0660  0.2189  0.3413
 1685W        W 5736   1.061   7.809   3.755  0.0964  0.1298 -0.2399
 1686W        W 5737   5.021   5.926   2.315 -0.0557  0.1328 -0.0173
 1687W        W 5738   6.566   4.270   0.704  0.0556 -0.0568  0.0796
 1688W        W 5739   0.613   4.270   2.615 -0.0852  0.3627  0.0036
 1689W        W 5740   5.952   8.906   4.398 -0.0614  0.1406 -0.1318
 1690W        W 5741   5.241   5.455  10.167 -0.0006 -0.1774  0.2233
 1691W        W 5742   6.637   6.620   8.734 -0.0414  0.2127 -0.0248
 1692W        W 5743   8.170   9.261   1.349  0.2622 -0.1993  0.1528
 1693W        W 5744   5.625   2.820   4.802  0.5117 -0.0421  0.0810
 1694W        W 5745   8.206   7.919   3.503 -0.3875  0.2716  0.1118
 1695W        W 5746   2.233   1.676   3.884  0.1262 -0.0779 -0.0181
 1696W        W 5747   3.590   3.085  13.681  0.1137  0.0123 -0.1255
 1697W        W 5748   8.125   7.980   0.945 -0.3440 -0.1666 -0.0960
 1698W        W 5749   8.566   4.205   0.330 -0.0247 -0.1672  0.2742
 1699W        W 5750   4.145   5.180  12.491 -0.0284 -0.0543 -0.1556
 1700W        W 5751   6.433   4.682   0.445 -0.1110 -0.2617 -0.1882
 1701W        W 5752   8.709   6.276  12.425  0.3004  0.0873  0.1051
 1702W        W 5753   1.973   0.964  11.813 -0.0357 -0.0601 -0.2358
 1703W        W 5754   4.450   5.026   1.458  0.0351  0.0214 -0.0241
 1704W        W 5755   6.964   3.203  13.265  0.0738 -0.1191  0.0748
 1705W        W 5756   4.962   0.426   0.171  0.4213  0.2225  0.0286
 1706W        W 5757   3.504   8.468   2.318  0.2907  0.1283 -0.1529
 1707W        W 5758   4.175   3.104  11.462 -0.1920  0.1614  0.0560
 1708W        W 5759   7.260   1.721   2.872  0.0620  0.0070  0.0142
 1709W        W 5760   1.334   2.763   2.952 -0.2623 -0.1118  0.0970
 1710W        W 5761   7.025   7.359   2.404 -0.0889  0.0780  0.2005
 1711W        W 5762   5.637   9.805  12.140 -0.1078  0.0114  0.0906
 1712W        W 5763   7.050   9.330   9.491 -0.1317 -0.0746 -0.0975
 1713W        W 5764   4.210   8.406   1.999  0.0683  0.2831 -0.1808
 1714W        W 5765   0.749   6.390  11.391 -0.4010  0.0428 -0.1174
 1715W        W 5766   5.543   3.592   0.473  0.0313  0.4034 -0.0505
 1716W        W 5767   7.937   1.058   9.802  0.1148  0.0481  0.3211
 1717W        W 5768   0.717   2.290  12.901  0.0560  0.3033  0.0157
 1718W        W 5769   2.447   3.169   1.381  0.2540  0.0052  0.3796
 1719W        W 5770   5.154   5.276  12.696  0.1767  0.2347 -0.2648
 1720W        W 5771  10.042   1.702   3.068  0.0927 -0.0346 -0.2495
 1721W        W 5772   0.201   0.254   0.416  0.0450 -0.4340  0.2786
 1722W        W 5773   8.300   4.445  11.720 -0.0217  0.0389 -0.3115
 1723W        W 5774   2.585   8.887   1.295  0.1736 -0.1991 -0.0168
 1724W        W 5775   0.986   4.832   4.821 -0.3638 -0.0298  0.0532
 1725W        W 5776   4.930   2.775   3.274 -0.0050 -0.2816  0.3037
 1726W        W 5777   1.561   5.893   9.865 -0.1441  0.0244 -0.0983
 1727W        W 5778   2.343   0.634  11.898 -0.0149 -0.0069  0.1493
 1728W        W 5779   7.681   2.032   2.008  0.0446  0.2927 -0.2283
 1729W        W 5780   8.362   3.079  10.125  0.1038  0.2463  0.0090
 1730W        W 5781   9.127   2.986   3.212  0.0320  0.0744 -0.0250
 1731W        W 5782   9.790   1.114   4.016 -0.0861 -0.0101 -0.1553
 1732W        W 5783   1.061   0.087  12.539  0.1329  0.0131 -0.0554
 1733W        W 5784   4.406   3.192   9.266  0.0266 -0.1265 -0.1008
 1734W        W 5785   1.523   4.022   1.904  0.3664  0.0285  0.0690
 1735W        W 5786   7.411   0.445   8.903 -0.1343  0.1594  0.1456
 1736W        W 5787   6.568   9.289  12.194  0.1311  0.0413  0.1909
 1737W        W 5788   3.133   0.267  13.801  0.0104  0.1437  0.0396
 1738W        W 5789   3.364   9.965  14.011 -0.2491  0.1880  0.1228
 1739W        W 5790   5.439   4.749   0.120 -0.0439 -0.1736 -0.1441
 1740W        W 5791   1.602   1.008   3.313 -0.0478  0.3157 -0.0585
 1741W        W 5792   0.051   2.636   4.200 -0.1623 -0.0140 -0.2047
 1742W        W 5793   0.566   7.262   1.657 -0.2022 -0.1456  0.0487
 1743W        W 5794   4.541   7.924  10.438 -0.0404  0.0208 -0.1520
 1744W        W 5795   7.463   3.232   1.231  0.2249  0.1050  0.1300
 1745W        W 5796   7.996   5.927   4.533  0.2419 -0.0270 -0.1278
 1746W        W 5797   5.567   8.607  13.541 -0.1418  0.1552 -0.1160
 1747W        W 5798   6.334   9.200   1.422 -0.2321 -0.0217  0.2553
 1748W        W 5799   8.320   8.408  13.923 -0.0009 -0.5842 -0.0463
 1749W        W 5800   5.858   7.677   9.896  0.0066 -0.4422  0.1492
 1750W        W 5801   1.295   2.570   3.430 -0.3667  0.0847  0.0880
 1751W        W 5802   8.532   2.898   2.543 -0.2047  0.1306 -0.2530
 1752W        W 5803   5.326   4.286   1.418 -0.1265 -0.3100 -0.0605
 1753W        W 5804   9.863   6.356  11.817 -0.1272  0.0301  0.2867
 1754W        W 5805   9.302   5.686   4.742  0.2916  0.3526 -0.1994
 1755W        W 5806   0.643   3.673  12.648  0.1209  0.1308 -0.0383
 1756W        W 5807   2.511   7.460   2.365 -0.1325 -0.2169  0.1025
 1757W        W 5808   9.549   8.885  12.876 -0.0594  0.1463  0.1688
 1758W        W 5809   0.749   2.454   0.326 -0.1270 -0.2342 -0.3489
 1759W        W 5810   9.410   6.339  12.193  0.1259 -0.2602  0.1183
 1760W        W 5811   5.375   8.988  11.621  0.1198  0.3461 -0.2970
 1761W        W 5812   2.047   6.265   4.508 -0.0496 -0.3966 -0.0233
 1762W        W 5813   7.301   7.808   2.169 -0.3109  0.2201  0.0619
 1763W        W 5814   6.549   1.595  11.468 -0.1343 -0.1299  0.1917
 1764W        W 5815   1.987   3.781   0.897  0.2815  0.3525  0.0223
 1765W        W 5816   2.790   5.513  13.942 -0.1205 -0.0352 -0.0155
 1766W        W 5817   0.510   6.893  13.474  0.3636 -0.1022 -0.0362
 1767W        W 5818   7.297  10.145  10.136 -0.1365  0.0934 -0.3300
 1768W        W 5819   8.097   0.201  10.878 -0.1762 -0.5098  0.0767
 1769W        W 5820   1.964   0.356  12.155 -0.3460 -0.4455  0.0405
 1770W        W 5821   3.084   4.382   9.401  0.0162  0.0299  0.2845
 1771W        W 5822   9.448   1.215  12.597  0.0981 -0.3339  0.1483
 1772W        W 5823   8.698   9.760  13.222 -0.1287  0.0657 -0.1010
 1773W        W 5824   4.527   7.473   2.228 -0.4536  0.0816  0.2332
 1774W        W 5825   7.486   0.733  11.857  0.0045  0.3163 -0.1386
 1775W        W 5826   8.390   0.003   1.367 -0.0209  0.1954 -0.0953
 1776W        W 5827   7.488   3.210   0.651  0.0248  0.0015  0.0565
 1777W        W 5828   5.947   6.467   8.800  0.1776 -0.3304 -0.3265
 1778W        W 5829   4.223   7.897  10.824  0.3010 -0.0244  0.0184
 1779W        W 5830   7.330   6.310  10.363  0.0391 -0.3245  0.2022
 1780W        W 5831   9.772   7.734   3.946  0.1086  0.0760 -0.1031
 1781W        W 5832   1.339   4.560  13.283 -0.0808 -0.1803  0.2318
 1782W        W 5833   5.716   4.593   0.558  0.0282  0.2020 -0.0793
 1783W        W 5834   2.258   4.868  11.407 -0.1685  0.0029 -0.1826
 1784W        W 5835   5.060   1.444   4.013 -0.4640  0.3665 -0.1430
 1785W        W 5836   8.861   6.715  13.564  0.2745  0.1025 -0.0092
 1786W        W 5837   5.183   1.069  10.062  0.2083  0.0954  0.1740
 1787W        W 5838   0.636   3.970  11.828  0.1916  0.1707  0.0649
 1788W        W 5839   7.319   1.280   1.029 -0.1398  0.1896 -0.1693
 1789W        W 5840   4.821   4.829  11.459  0.1146  0.4883 -0.1034
 1790W        W 5841   4.697   6.391  11.993  0.0054  0.1979  0.0543
 1791W        W 5842   4.424   3.743   2.007  0.1753 -0.0850 -0.1948
 1792W        W 5843   5.283   6.938   4.251 -0.1476  0.2613  0.2477
 1793W        W 5844   4.798  10.123   0.477 -0.1466  0.3897  0.1893
 1794W        W 5845   4.385   3.175  13.015  0.0969  0.3884  0.1856
 1795W        W 5846   8.771   8.246  12.645 -0.1476 -0.1269 -0.1400
 1796W        W 5847   3.090   4.611   0.969  0.0301  0.1677  0.1033
 1797W        W 5848   6.446   6.825   9.371  0.0455 -0.1042 -0.0321
 1798W        W 5849   0.186   3.973  12.578 -0.0525 -0.0737 -0.4009
 1799W        W 5850   3.144   4.272  12.011  0.0293  0.2371 -0.1678
 1800W        W 5851   9.532   9.735   3.003 -0.0209 -0.1987 -0.2233
 1801W        W 5852   4.408   6.486   4.911 -0.3123 -0.0807  0.0276
 1802W        W 5853   8.500   1.342   9.797  0.1259  0.1176 -0.3568
 1803W        W 5854   1.980   8.026   2.431 -0.2118 -0.3376 -0.2042
 1804W        W 5855   5.253   0.808  14.003  0.0254  0.0832  0.3523
 1805W        W 5856   8.864   2.259   3.280  0.0054  0.1718 -0.1669
 1806W        W 5857   5.098   6.445   4.365 -0.1567 -0.0160  0.2293
 1807W        W 5858   0.614   9.848   2.258 -0.0798 -0.3721  0.1860
 1808W        W 5859   3.180   4.500   4.493 -0.1366  0.0563  0.1191
 1809W        W 5860   1.296   3.635   9.753 -0.1743 -0.1079  0.1842
 1810W        W 5861   9.282   4.395  11.962  0.2272  0.1027  0.0882
 1811W        W 5862   2.858   8.329   2.807  0.0978 -0.1933  0.3234
 1812W        W 5863   7.372   6.007  13.396 -0.1596 -0.0164 -0.1648
 1813W        W 5864   4.795   3.037  12.708 -0.4055  0.0940  0.0251
 1814W        W 5865   6.311   7.506  12.360  0.0842 -0.1542 -0.3543
 1815W        W 5866   7.663   2.596  12.539  0.2477 -0.0601  0.3197
 1816W        W 5867   0.574   9.384   2.309 -0.2732 -0.0547 -0.2049
 1817W        W 5868   9.111   9.406   2.845  0.1329  0.2350  0.0446
 1818W        W 5869   3.947   8.485  12.870 -0.0702  0.2510  0.1298
 1819W        W 5870   7.681   6.636   8.464 -0.0734 -0.0694 -0.0861
 1820W        W 5871   5.696   7.210   2.028 -0.0218  0.1048 -0.2530
 1821W        W 5872   6.896   4.300  12.898 -0.1562  0.1012 -0.1922
 1822W        W 5873   5.734   4.783  11.042 -0.1831 -0.1034  0.0608
 1823W        W 5874   8.817   2.334  13.322  0.2246 -0.2106 -0.0085
 1824W        W 5875   0.288   1.686   3.454  0.0607 -0.0418  0.1778
 1825W        W 5876   6.504   7.885   0.980  0.2641  0.3509 -0.1271
 1826W        W 5877   9.114   9.180   2.184 -0.2239 -0.1556  0.1243
 1827W        W 5878   5.792   2.332   5.823  0.0147 -0.1562 -0.1551
 1828W        W 5879   7.530   7.948  13.475  0.1820  0.5109  0.1786
 1829W        W 5880   1.263   1.352  11.964  0.1892 -0.3445  0.1056
 1830W        W 5881   0.712   2.784  12.698 -0.2026 -0.2313  0.2694
 1831W        W 5882   5.896   7.461   4.465  0.0548  0.3251 -0.2379
 1832W        W 5883   9.726   7.054  13.175 -0.0405  0.0924 -0.2557
 1833W        W 5884   5.605   4.276   3.539 -0.0550 -0.1255 -0.0211
 1834W        W 5885   7.770   4.383  10.725  0.0426  0.3647 -0.0279
 1835W        W 5886   7.353   0.884   3.156 -0.1845  0.0150  0.1317
 1836W        W 5887  10.026   9.523  10.445  0.2648 -0.0089  0.0689
 1837W        W 5888   3.705   5.492  10.638  0.0401 -0.2534  0.1186
 1838W        W 5889   2.054   7.047   0.088 -0.1051  0.2488  0.0336
 1839W        W 5890   6.543   4.401  11.595  0.4248 -0.0440 -0.0412
 1840W        W 5891   9.971   6.789   0.464  0.2473 -0.1673 -0.0457
 1841W        W 5892   0.464   1.665   2.943  0.0532  0.2255  0.2070
 1842W        W 5893   6.325   8.522   2.734  0.1114  0.1908 -0.0348
 1843W        W 5894   8.583   5.317  12.784  0.1949  0.2269 -0.0258
 1844W        W 5895   0.631   5.616   1.147  0.2445  0.2278  0.1906
 1845W        W 5896   0.602   7.791   1.284 -0.0803 -0.1889 -0.0576
 1846W        W 5897   4.820   4.100   3.799  0.0101 -0.0700 -0.2645
 1847W        W 5898   6.288   9.180  11.210 -0.0483 -0.2608 -0.1200
 1848W        W 5899   6.900   2.759  12.496 -0.0178 -0.1882  0.0760
 1849W        W 5900   0.461   1.955  11.600  0.0008  0.0068 -0.2296
 1850W        W 5901   0.758   4.741  13.527  0.1131 -0.1374 -0.1367
 1851W        W 5902  10.135   0.705   4.260  0.0411 -0.0265  0.0383
 1852W        W 5903   1.810   2.669   2.692  0.1367  0.1701  0.3539
 1853W        W 5904   2.579   9.789   1.954  0.0975  0.0500  0.0808
 1854W        W 5905   0.108   0.006   3.329  0.1272  0.2496 -0.1524
 1855W        W 5906   1.924   8.227   3.718 -0.0463 -0.2804 -0.0190
 1856W        W 5907   7.116   6.108  11.547 -0.0332  0.1460  0.1180
 1857W        W 5908   3.698   0.965  12.025  0.2428  0.0187 -0.1521
 1858W        W 5909   5.252   8.425  11.722 -0.0934 -0.1360  0.1201
 1859W        W 5910   5.775   4.451  10.559 -0.0650  0.1405 -0.1647
 1860W        W 5911   2.662   4.034   1.700  0.0019  0.1283  0.0403
 1861W        W 5912   2.652   6.034   2.879 -0.2070  0.2050 -0.1725
 1862W        W 5913   9.917   0.441  11.518  0.0621  0.3094 -0.0424
 1863W        W 5914   6.698   3.937   4.992 -0.2919 -0.0372 -0.2838
 1864W        W 5915   8.742   0.347   2.875  0.0900 -0.2668 -0.0793
 1865W        W 5916   8.249  10.022   4.859  0.4396  0.2332  0.1098
 1866W        W 5917   4.757   9.952   1.980 -0.0217 -0.1122  0.0085
 1867W        W 5918   7.833   6.043   0.840  0.2818  0.0945 -0.1177
 1868W        W 5919   8.825   4.091   9.576 -0.2815  0.0564 -0.0117
 1869W        W 5920   7.497   7.689   3.085 -0.0924 -0.1651 -0.0056
 1870W        W 5921   6.539   8.568   2.316  0.0446  0.5006  0.1744
 1871W        W 5922   7.859   8.079   9.774 -0.0049  0.0842 -0.0926
 1872W        W 5923   4.855   0.063  11.339 -0.0554  0.0637 -0.0332
 1873W        W 5924   3.474   3.301   4.913 -0.1132  0.0614  0.0230
 1874W        W 5925   9.180   3.746  11.425  0.1075  0.1172 -0.1970
 1875W        W 5926   6.862   1.727  11.110  0.0797  0.0340  0.0551
 1876W        W 5927   8.306   7.166   9.228  0.0481 -0.0619  0.0913
 1877W        W 5928   7.551   8.533   0.907 -0.1541  0.2319  0.1373
 1878W        W 5929   9.372   5.620   1.042 -0.1413 -0.1033 -0.0838
 1879W        W 5930  10.126   2.083   4.291  0.0475 -0.1045 -0.1805
 1880W        W 5931   6.519   3.673  13.446  0.0023 -0.0263 -0.2476
 1881W        W 5932  10.039   4.587   0.401  0.3325  0.1408  0.3324
 1882W        W 5933   4.623   4.480   0.142  0.0024  0.0211 -0.2708
 1883W        W 5934   9.242   1.014  11.735 -0.2998 -0.2880  0.0999
 1884W        W 5935   7.084  10.055   2.190  0.0655 -0.1445  0.1683
 1885W        W 5936   5.471   8.089   0.649  0.2387  0.1390 -0.1891
 1886W        W 5937   5.385   2.164  12.873 -0.0962 -0.1760  0.0262
 1887W        W 5938   1.395   4.638   9.498 -0.4776  0.0044 -0.4146
 1888W        W 5939   8.038   8.496   2.550 -0.2955 -0.2178 -0.0479
 1889W        W 5940   6.983   5.937   9.343  0.2388 -0.1381 -0.3469
 1890W        W 5941   1.863   8.006  12.152 -0.3689  0.1561 -0.1370
 1891W        W 5942   9.685   8.480   1.361 -0.4291  0.0720 -0.1183
 1892W        W 5943   1.090   7.449   2.419  0.1524 -0.0274 -0.1590
 1893W        W 5944   7.338   6.746   2.867 -0.0078 -0.2213 -0.3276
 1894W        W 5945   4.406   4.754  12.715  0.0157  0.1794 -0.0813
 1895W        W 5946   3.220   4.744   1.501 -0.0682 -0.1975  0.0888
 1896W        W 5947   7.819   4.241  13.456 -0.0086 -0.1005 -0.1269
 1897W        W 5948   5.797   8.230   1.497 -0.1733 -0.3273 -0.1996
 1898W        W 5949   9.017   9.727  12.735 -0.2321 -0.1854 -0.1512
 1899W        W 5950   5.167   0.675   3.070  0.1516  0.1411  0.0521
 1900W        W 5951   3.045   3.349   1.959  0.2539 -0.0557 -0.4061
 1901W        W 5952   9.371   9.820   0.709 -0.3006 -0.0314  0.3353
 1902W        W 5953   8.631   5.759  13.218  0.1516 -0.0512 -0.3057
 1903W        W 5954   1.234   3.899   0.074  0.2596  0.1195 -0.3442
 1904W        W 5955   5.251   0.505   4.258 -0.0742 -0.1131 -0.0292
 1905W        W 5956   7.742   4.369  13.006 -0.0611 -0.1351 -0.0626
 1906W        W 5957   8.692   6.435   0.077 -0.0690 -0.4303 -0.0798
 1907W        W 5958   1.034   8.796  13.883 -0.1534  0.1239  0.1223
 1908W        W 5959   0.202   1.983  10.805 -0.0404  0.0140 -0.4247
 1909W        W 5960   7.616   3.736   4.603  0.3487  0.5405 -0.0618
 1910W        W 5961   1.101   4.393   3.518 -0.1137 -0.0404  0.2232
 1911W        W 5962   6.852   6.431   2.731 -0.0574 -0.1055 -0.0933
 1912W        W 5963   4.899   9.646   2.339 -0.2743  0.0260 -0.0889
 1913W        W 5964   9.603   6.639   1.953 -0.0871  0.1786 -0.0690
 1914W        W 5965   5.942   0.938   3.431  0.0805  0.1040  0.0992
 1915W        W 5966   5.588   4.847   4.317 -0.0935  0.1923  0.2164
 1916W        W 5967   9.353   3.800   5.051  0.0695  0.0406 -0.2055
 1917W        W 5968   4.224   1.280  12.853 -0.0410  0.1034  0.1710
 1918W        W 5969   6.425   7.706   1.804  0.2939  0.1839 -0.2019
 1919W        W 5970   4.411   2.562   2.742  0.0715 -0.3738 -0.1719
 1920W        W 5971   1.221   5.679  11.736 -0.0433  0.4927 -0.1208
 1921W        W 5972   9.449   9.380  10.937 -0.1185  0.0740  0.3035
 1922W        W 5973   6.015   6.403   1.487  0.1735 -0.4482 -0.1089
 1923W        W 5974   8.960   7.627  12.096  0.2311  0.3724  0.0023
 1924W        W 5975   2.059   9.289   2.377  0.0172 -0.2688 -0.2532
 1925W        W 5976   6.702   7.988   4.821 -0.0954 -0.0272 -0.3087
 1926W        W 5977   0.140   6.725   4.176 -0.0360 -0.2414 -0.3364
 1927W        W 5978   2.790   6.299   1.657  0.0643 -0.0943  0.0118
 1928W        W 5979   3.396   5.066  10.489  0.3196 -0.1584  0.0956
 1929W        W 5980   6.958   6.863   3.217 -0.0588  0.0879 -0.2994
 1930W        W 5981   0.484   4.089   4.943 -0.0740  0.0183  0.0708
 1931W        W 5982   8.232   3.658   2.523  0.1256 -0.2000  0.3151
 1932W        W 5983   9.823   6.968  10.700 -0.0915  0.1387 -0.1403
 1933W        W 5984   5.540   0.166   2.605 -0.0319  0.1568  0.1424
 1934W        W 5985   1.867   8.008  10.877 -0.3094 -0.0297  0.0189
 1935W        W 5986   3.998   1.976   1.334 -0.3788  0.1848  0.2058
 1936W        W 5987   3.029   8.017   1.534 -0.0378 -0.0270  0.0027
 1937W        W 5988   6.238   2.136  12.362  0.1050  0.0213 -0.1258
 1938W        W 5989   5.239   5.635   4.291  0.2446  0.3034  0.1709
 1939W        W 5990   7.946   7.697  10.212  0.2292  0.2624 -0.1178
 1940W        W 5991   1.131   1.033   2.011 -0.1453 -0.1890  0.0548
 1941W        W 5992   6.681   1.603   4.290  0.5218  0.3081 -0.2116
 1942W        W 5993   2.257   5.884  12.995 -0.0671 -0.3589  0.0418
 1943W        W 5994   3.170   1.906   3.983 -0.0112  0.0096 -0.0432
 1944W        W 5995   1.158   9.909   0.861  0.1473  0.3645 -0.1701
 1945W        W 5996   6.945   4.399   1.097  0.1694  0.1244  0.4972
 1946W        W 5997   0.311   0.993   3.465 -0.0057 -0.2372 -0.0854
 1947W        W 5998   7.543   6.148   4.518 -0.1843  0.0526 -0.1177
 1948W        W 5999   5.323   8.663  11.195  0.1383  0.2632 -0.0350
 1949W        W 6000   9.372   3.076  12.833  0.0062  0.2001  0.1782
 1950W        W 6001   4.851   1.869  11.604  0.3052 -0.0897 -0.3502
 1951W        W 6002   5.664   8.192   2.919  0.0607 -0.1125  0.0680
 1952W        W 6003   8.775   3.623   0.261  0.0739 -0.0804  0.0698
 1953W        W 6004   4.255   4.637   1.800  0.0954  0.4081 -0.0367
 1954W        W 6005   0.163   1.754   9.494  0.2063 -0.0605  0.0579
 1955W        W 6006   9.932   6.447   4.346  0.1805 -0.0640  0.0164
 1956W        W 6007   6.061   5.182   2.491  0.2552 -0.4119  0.1084
 1957W        W 6008   7.721   7.665  11.212  0.2303  0.0959  0.0560
 1958W        W 6009   5.300  10.064   0.563 -0.0279  0.2302 -0.0115
 1959W        W 6010   7.625   4.378   2.199  0.1375 -0.0654  0.2484
 1960W        W 6011   7.944   2.323   3.545  0.2346 -0.0750 -0.1379
 1961W        W 6012   0.024   3.610   3.791 -0.0058  0.0964  0.0923
 1962W        W 6013   6.780   1.132   4.467 -0.0191 -0.0384  0.4226
 1963W        W 6014   6.454   2.357   2.069  0.0945  0.0767  0.0061
 1964W        W 6015   7.726   3.154   1.727 -0.0107  0.0679 -0.1723
 1965W        W 6016   0.429   6.177  10.035  0.2849  0.0612 -0.0544
 1966W        W 6017   3.041   0.574   4.515  0.1008 -0.0913 -0.1921
 1967W        W 6018   0.228   2.120   4.700  0.1821 -0.2913 -0.1483
 1968W        W 6019   0.932   5.250   1.361 -0.0492 -0.2235  0.2198
 1969W        W 6020   8.589   7.947  11.199  0.1600 -0.1654 -0.1130
 1970W        W 6021   4.465   9.803  12.953  0.2084 -0.0148 -0.1579
 1971W        W 6022   5.440   7.286   0.383 -0.1124 -0.1568 -0.1570
 1972W        W 6023   9.491   2.590   1.112  0.0916 -0.1493 -0.1097
 1973W        W 6024   1.945   9.116   0.197  0.4998  0.1575 -0.0288
 1974W        W 6025   3.175   4.170   0.744  0.1487  0.0143  0.4575
 1975W        W 6026   0.839   3.943   3.335  0.1621  0.0662  0.1864
 1976W        W 6027   0.795   8.368  11.258  0.2713 -0.2914  0.0650
 1977W        W 6028   6.402   4.097   2.256  0.1184  0.0509  0.0840
 1978W        W 6029   6.535   4.796   2.807 -0.1401 -0.2038 -0.0299
 1979W        W 6030   7.026   5.114  13.464 -0.2286 -0.2120  0.3566
 1980W        W 6031   8.438   1.488   3.471 -0.1642  0.0641 -0.4364
 1981W        W 6032   6.553   8.316  10.139  0.1251 -0.1349 -0.1091
 1982W        W 6033   5.026  10.074  12.770  0.0402 -0.1077 -0.2481
 1983W        W 6034   0.711   5.899  11.737 -0.1535  0.0609  0.0984
 1984W        W 6035   6.922   0.069   3.821 -0.0758 -0.0567  0.0390
 1985W        W 6036   4.382   6.925  10.611  0.0595 -0.2402 -0.1090
 1986W        W 6037   9.381   6.925   2.301  0.0503 -0.1578 -0.0006
 1987W        W 6038   0.874   1.243  13.697 -0.2257 -0.0410  0.1059
 1988W        W 6039   2.263   0.501   1.093  0.1863  0.1089  0.0520
 1989W        W 6040   9.007   3.838   4.144 -0.3209  0.3683  0.2147
 1990W        W 6041   3.914   8.589   0.271  0.1082 -0.1299  0.1104
 1991W        W 6042   8.384   3.601  12.829  0.0436  0.0475 -0.2922
 1992W        W 6043   2.584   1.552  13.114  0.0072  0.2041  0.0256
 1993W        W 6044   6.586   7.057  13.433  0.0671  0.3313  0.2664
 1994W        W 6045   1.912   1.456   1.631 -0.2519 -0.2975 -0.4538
 1995W        W 6046   8.191   8.718   1.026 -0.2777  0.1909 -0.1309
 1996W        W 6047   1.290   4.577   2.065 -0.0170  0.3037  0.0703
 1997W        W 6048   1.805   5.223  11.107  0.0362  0.2491  0.3108
 1998W        W 6049   2.696   7.730   3.924  0.1968 -0.0064  0.1084
 1999W        W 6050   0.568   0.333   1.641 -0.0340 -0.1279 -0.0558
 2000W        W 6051   8.682   4.692   0.099 -0.1745  0.2966  0.3085
 2001W        W 6052   6.664   6.825   2.038 -0.0989 -0.1479 -0.2546
 2002W        W 6053   9.051   4.589  11.135 -0.1316  0.2548 -0.2285
 2003W        W 6054   3.457   0.734   3.681 -0.0470  0.0177 -0.2544
 2004W        W 6055   4.243   6.761   5.286  0.0842  0.1589  0.1256
 2005W        W 6056   2.145   3.042   0.346  0.1635 -0.1604 -0.0988
 2006W        W 6057   3.921   3.606  12.871 -0.1074  0.1017 -0.0748
 2007W        W 6058   7.792   4.759  12.664 -0.2377  0.0684  0.2111
 2008W        W 6059   6.097   9.484  10.437  0.1098 -0.1617 -0.3754
 2009W        W 6060   5.258   4.923  10.674  0.4329  0.0754  0.1089
 2010W        W 6061   8.890   4.132  14.033  0.0320 -0.2967  0.4241
 2011W        W 6062   3.847   2.116  13.612  0.2932  0.0290  0.0756
 2012W        W 6063   4.689   4.151   3.305  0.0184  0.0549  0.2217
 2013W        W 6064   6.268   6.985   0.461 -0.1887 -0.0990  0.4109
 2014W        W 6065   8.768   1.796  11.272  0.0951 -0.3232  0.1353
 2015W        W 6066   7.847   1.286   4.442 -0.0115 -0.0907 -0.0991
 2016W        W 6067   9.923   1.714   1.365  0.1723 -0.0359  0.1830
 2017W        W 6068   4.777   3.438  12.270 -0.0414  0.1048  0.3037
 2018W        W 6069  10.133   0.304   2.351  0.0576 -0.2908  0.3929
 2019W        W 6070   2.331   8.551   1.579  0.1245  0.1991  0.1424
 2020W        W 6071   7.326   4.678   9.881  0.2190  0.0126 -0.3162
 2021W        W 6072   5.266   1.170   4.984  0.0561 -0.1641 -0.3473
 2022W        W 6073   6.254   7.629   4.864  0.0989 -0.0704  0.3112
 2023W        W 6074   3.374   2.873   3.630 -0.0651 -0.0010  0.1893
 2024W        W 6075   4.928   1.964   0.333 -0.0396  0.0108 -0.0920
 2025W        W 6076   3.659   4.427   1.584  0.2065  0.2587 -0.0781
 2026W        W 6077   1.434   1.004  11.624 -0.0628  0.3139 -0.1588
 2027W        W 6078   4.942   7.472  12.918 -0.1690  0.2234  0.0737
 2028W        W 6079   2.450   6.644   4.753 -0.1051 -0.1079 -0.2208
 2029W        W 6080   1.216   6.135  13.628 -0.5108  0.0375  0.0083
 2030W        W 6081   6.386   7.442   4.447  0.0189 -0.1045  0.0022
 2031W        W 6082   0.429   8.203   1.619  0.0826 -0.1092 -0.3749
 2032W        W 6083   4.111   4.727   2.827  0.5482 -0.0111 -0.1079
 2033W        W 6084   2.808   1.012   3.012  0.1891  0.0812 -0.3175
 2034W        W 6085   7.907   9.925  10.913  0.5383  0.0646  0.1627
 2035W        W 6086   6.016   5.821   0.226  0.4688 -0.0973  0.1019
 2036W        W 6087   3.779   2.819  11.465 -0.0985 -0.0558  0.0638
 2037W        W 6088   9.555   9.394  13.533  0.4125  0.1551  0.0513
 2038W        W 6089   1.735  10.079  13.288 -0.1824 -0.1964  0.1713
 2039W        W 6090   6.807   2.023   4.832  0.1431 -0.0564 -0.0821
 2040W        W 6091   7.313   9.685   9.296  0.1864 -0.0001  0.0850
 2041W        W 6092  10.005   4.357  10.770 -0.0860  0.1234 -0.0297
 2042W        W 6093   4.278   1.596   4.560  0.0231  0.1409  0.1417
 2043W        W 6094   0.011   8.202  11.683  0.1213 -0.2329  0.0821
 2044W        W 6095   6.034   5.232  13.279  0.1138  0.0066 -0.0080
 2045W        W 6096   3.249   3.465   9.735 -0.0363 -0.2780 -0.2483
 2046W        W 6097   0.391   6.460   3.218  0.2464 -0.0692  0.1325
 2047W        W 6098   4.354   7.435  10.618  0.0741  0.0952  0.1714
 2048W        W 6099   7.246   3.750   2.285 -0.1067 -0.1240 -0.0768
 2049W        W 6100   1.673   2.835   3.366 -0.1557  0.1610  0.0480
 2050W        W 6101   2.397   5.146  13.793 -0.0177 -0.1666  0.1975
 2051W        W 6102   1.507   4.718   0.492  0.2736 -0.0851  0.4751
 2052W        W 6103   7.335   7.030   5.299  0.0087  0.1926  0.1096
 2053W        W 6104   0.903   7.798  11.355 -0.1341 -0.1373  0.2063
 2054W        W 6105   0.703   4.524   0.149 -0.2077 -0.3226 -0.1135
 2055W        W 6106   4.073   6.573   4.528 -0.0165 -0.0284 -0.3357
 2056W        W 6107   8.149   4.802   4.369  0.4133  0.0463 -0.3758
 2057W        W 6108   2.662   3.081   5.025  0.1972  0.0908 -0.2096
 2058W        W 6109   6.512   9.482   2.298 -0.1063  0.3102  0.0288
 2059W        W 6110   6.119   7.252   9.773 -0.1273  0.1390 -0.0641
 2060W        W 6111   2.125   1.470   4.410 -0.3392 -0.0877 -0.2441
 2061W        W 6112   5.395   9.373  11.320  0.0865  0.0119 -0.5474
 2062W        W 6113  10.140   0.453  12.464  0.0398  0.0370  0.1617
 2063W        W 6114   6.042   5.175  13.807  0.0845 -0.3712 -0.0196
 2064W        W 6115   6.515   5.859  10.438 -0.1349  0.0408 -0.2371
 2065W        W 6116   8.272   7.783   5.778  0.1276 -0.0361  0.0856
 2066W        W 6117   3.987   2.794   4.527  0.2372 -0.1253  0.3108
 2067W        W 6118   3.913   6.658   9.834  0.1265  0.0154  0.2464
 2068W        W 6119   2.132   2.767   1.369 -0.0971  0.0851  0.2107
 2069W        W 6120  10.004   3.920  12.976 -0.3553 -0.3795  0.0668
 2070W        W 6121   9.554   8.909  11.135 -0.2932 -0.0443  0.1692
 2071W        W 6122   8.563   5.012   3.543 -0.0593 -0.0280  0.0230
 2072W        W 6123   2.657   9.387  12.702 -0.1321  0.1062 -0.2734
 2073W        W 6124   0.968   8.164  10.403 -0.0583 -0.2116  0.2151
 2074W        W 6125   9.865   9.681   0.752  0.1182 -0.0786 -0.1113
 2075W        W 6126   5.143   0.434  12.052 -0.2436 -0.1615 -0.0768
 2076W        W 6127   2.966   2.517   1.568 -0.2272  0.0646  0.4314
 2077W        W 6128   6.383  10.089  13.313 -0.1879  0.0217 -0.0198
 2078W        W 6129   6.032   0.754   4.646  0.5460 -0.2501  0.0162
 2079W        W 6130   7.118   7.314   2.921 -0.0478 -0.1658  0.0117
 2080W        W 6131   2.608   5.274   1.206  0.1076 -0.1657  0.0461
 2081W        W 6132   0.691   0.249   0.621  0.0534  0.1187 -0.1111
 2082W        W 6133  10.147   4.629   3.841 -0.3121 -0.1663 -0.2035
 2083W        W 6134   0.637   7.186  12.500  0.0021  0.1710  0.0930
 2084W        W 6135   2.302   1.882   1.226  0.0098  0.2209  0.1672
 2085W        W 6136   2.184   4.597   9.691  0.3836 -0.0628  0.0967
 2086W        W 6137   3.553   5.310  12.323 -0.1796 -0.0672 -0.2176
 2087W        W 6138   9.597   1.785   5.458  0.0579 -0.0200  0.0834
 2088W        W 6139   9.277   9.121   0.012  0.1476 -0.1178  0.0893
 2089W        W 6140   6.813   2.721   1.357 -0.0093  0.2577 -0.2563
 2090W        W 6141   4.966   6.410   0.521 -0.1281  0.0647  0.2383
 2091W        W 6142   9.405   5.120  14.036  0.0515 -0.0257 -0.5659
 2092W        W 6143   5.995   6.867   5.223 -0.0564  0.2687  0.1464
 2093W        W 6144   7.092   1.295   3.068 -0.1621 -0.0950  0.0944
 2094W        W 6145   1.825   1.680   2.119 -0.0278  0.1494  0.2971
 2095W        W 6146   4.832   1.581   3.615 -0.0503  0.1443 -0.1312
 2096W        W 6147   3.354   6.677   3.463  0.2386  0.0711 -0.0752
 2097W        W 6148   9.116   0.406  11.711  0.0485 -0.0591  0.1003
 2098W        W 6149   9.232   0.409   1.490 -0.0488  0.0068  0.1194
 2099W        W 6150   8.503   5.967   2.525  0.0438 -0.0917 -0.1893
 2100W        W 6151   7.784   4.304  11.510  0.1078 -0.0684 -0.2754
 2101W        W 6152   3.788   3.384  11.677  0.2565  0.1563 -0.1518
 2102W        W 6153   5.099   0.895  10.784 -0.1400 -0.0885  0.1773
 2103W        W 6154   9.843   4.572  10.363  0.2284 -0.0427 -0.0892
 2104W        W 6155   6.009   7.152   2.424  0.2626  0.0344  0.2826
 2105W        W 6156   3.789   9.129   3.596  0.3821  0.1137  0.0505
 2106W        W 6157   7.207   8.884   1.181  0.0289  0.3579  0.0166
 2107W        W 6158   3.209   6.096  13.365  0.1896 -0.0093 -0.0205
 2108W        W 6159   0.643   4.589  12.979 -0.2877 -0.1300 -0.1802
 2109W        W 6160   7.939   0.788  10.813 -0.0834 -0.1340  0.2592
 2110W        W 6161   0.999   7.619   2.872  0.0169  0.0725  0.2033
 2111W        W 6162   3.819   3.714  12.392 -0.0042 -0.1916  0.0202
 2112W        W 6163   6.700   5.905  11.294 -0.4006 -0.0859 -0.0684
 2113W        W 6164   0.251   5.959   1.864  0.0699  0.0102  0.0058
 2114W        W 6165   9.959   5.589   9.724  0.1207 -0.0878  0.3930
 2115W        W 6166   8.445   3.687  13.316 -0.2066 -0.0020  0.2259
 2116W        W 6167   9.914   8.972  11.645  0.0378 -0.0213  0.2932
 2117W        W 6168   7.680   2.074  10.144 -0.0550 -0.1484  0.2566
 2118W        W 6169   0.915   3.150   2.953 -0.0189  0.2574  0.1791
 2119W        W 6170   6.161   5.050   3.614 -0.0693 -0.2153  0.1324
 2120W        W 6171   1.581   4.156   5.340 -0.0202 -0.2540  0.2059
 2121W        W 6172   1.088   4.009  11.329 -0.1939 -0.3338  0.0525
 2122W        W 6173   4.696   7.919  11.012 -0.0987  0.0357  0.1153
 2123W        W 6174   5.835   4.424   0.992  0.1892  0.2625 -0.1840
 2124W        W 6175   3.981   4.616   9.210  0.0553  0.5267 -0.2983
 2125W        W 6176   0.845   7.503  10.242  0.4834  0.0433  0.0570
 2126W        W 6177   5.803   6.233   1.000  0.1151 -0.0009  0.2841
 2127W        W 6178   2.842   7.204   2.809  0.3212  0.0711 -0.0524
 2128W        W 6179   8.148   0.757   3.707 -0.0655  0.1171  0.2578
 2129W        W 6180   7.376   0.613  12.744 -0.1484 -0.1477  0.3561
 2130W        W 6181   1.941   2.823  10.249  0.1530 -0.1013  0.1093
 2131W        W 6182   8.625   4.235  10.849  0.0013 -0.0218  0.3095
 2132W        W 6183   0.742   9.533  13.161 -0.1313 -0.0003  0.1530
 2133W        W 6184   9.523   3.802   3.153  0.2200 -0.0939  0.1601
 2134W        W 6185   8.375   3.956   9.846 -0.0816 -0.1465  0.1112
 2135W        W 6186   0.169   8.579  12.083  0.2321 -0.0812 -0.0132
 2136W        W 6187   9.521   9.915  13.964  0.3828  0.1480  0.1712
 2137W        W 6188   9.255   8.433   3.468 -0.2053  0.1720 -0.0123
 2138W        W 6189   2.723   3.203   4.138  0.0114 -0.1678 -0.1211
 2139W        W 6190   6.075   6.188  12.194  0.0219  0.3851 -0.0281
 2140W        W 6191   9.119   7.771  13.837  0.2220  0.0093 -0.0124
 2141W        W 6192   7.487   2.905   2.871 -0.0594 -0.0418  0.1211
 2142W        W 6193   5.872   1.918   0.771 -0.0837 -0.3425  0.3332
 2143W        W 6194   1.456   7.293   2.129  0.1258  0.0887  0.3203
 2144W        W 6195   7.643   0.954   1.865 -0.0342  0.1173  0.1256
 2145W        W 6196   0.173   8.688   2.487 -0.3405 -0.0169 -0.1841
 2146W        W 6197   7.314   7.665   1.484 -0.3681 -0.2007  0.1301
 2147W        W 6198   1.157   3.961  12.494  0.0769  0.0821  0.0710
 2148W        W 6199   5.811   1.947  13.827 -0.2706 -0.1286  0.2345
 2149W        W 6200   8.334   4.083   4.918 -0.0122  0.0568 -0.0995
 2150W        W 6201   2.708   5.290   9.341  0.2048 -0.1979  0.0697
 2151W        W 6202   2.023   2.737  11.829  0.1058  0.2001 -0.1903
 2152W        W 6203   4.542   4.539   2.592 -0.0466  0.0518 -0.0919
 2153W        W 6204   9.669   0.898  11.445  0.3054 -0.4020  0.1031
 2154W        W 6205   4.514   3.418   2.410  0.0968  0.1209  0.2057
 2155W        W 6206   1.634   0.457   3.421 -0.0850  0.1639 -0.2644
 2156W        W 6207   9.378   2.353   2.127  0.2122  0.2298  0.0127
 2157W        W 6208   2.201   5.268   9.098 -0.1684 -0.0322  0.0425
 2158W        W 6209   8.855   0.077   2.438  0.2275  0.2250  0.0510
 2159W        W 6210   5.999   8.330   3.870 -0.2256 -0.0093  0.1556
 2160W        W 6211   3.477   5.199   1.453 -0.0166 -0.0466 -0.0271
 2161W        W 6212   2.021   2.262  10.215 -0.0009  0.0556  0.1267
 2162W        W 6213   8.329   3.907  11.773  0.2266 -0.0314 -0.0819
 2163W        W 6214   6.110   0.395   3.956  0.1826 -0.2509 -0.2048
 2164W        W 6215   5.658   3.087  13.149 -0.2264  0.2084  0.1930
 2165W        W 6216   3.608   2.117  10.426 -0.0739  0.0916 -0.0265
 2166W        W 6217   9.736   0.863  10.961 -0.3340  0.0902 -0.1532
 2167W        W 6218   7.767   3.465   0.977 -0.0626 -0.0299 -0.1774
 2168W        W 6219   2.703   6.469   2.189  0.3572  0.0210 -0.0741
 2169W        W 6220   8.939   1.421   0.736 -0.1003  0.1561  0.0225
 2170W        W 6221   5.326   4.475   5.327 -0.1216  0.0057  0.0994
 2171W        W 6222   5.863   7.271   4.921  0.1050 -0.0013  0.2588
 2172W        W 6223   6.988   4.470   0.462  0.1546 -0.2163 -0.4000
 2173W        W 6224   7.236   8.106   0.115 -0.0967  0.0449 -0.2438
 2174W        W 6225   5.117   5.759   0.335 -0.1278  0.0729  0.1939
 2175W        W 6226   7.092   8.437   9.904 -0.2576  0.3264  0.1057
 2176W        W 6227   3.034   8.344  12.721 -0.0592  0.0136 -0.3248
 2177W        W 6228   2.989   6.378  10.614 -0.3372  0.1501 -0.2098
 2178W        W 6229   6.105   4.438   9.629 -0.2188 -0.1212  0.2998
 2179W        W 6230   9.616   5.115   3.161  0.1183  0.1624 -0.2210
 2180W        W 6231   0.384   4.831   0.331 -0.0741  0.0635 -0.1715
 2181W        W 6232   5.215   4.686   9.449 -0.0459 -0.2098  0.0180
 2182W        W 6233   6.766   0.500   1.565  0.2835  0.0402  0.0190
 2183W        W 6234   5.296   5.467   9.211  0.0218 -0.0603  0.0116
 2184W        W 6235   5.654   1.341  11.220  0.1133 -0.1252  0.2653
 2185W        W 6236   8.766   7.597   1.124 -0.0631 -0.1904 -0.0373
 2186W        W 6237   7.713   2.458   0.356 -0.2432 -0.0018  0.1466
 2187W        W 6238   2.830   2.211  13.049  0.0004  0.0247 -0.0635
 2188W        W 6239   1.634   8.706   3.527  0.0421 -0.3694  0.0496
 2189W        W 6240   9.401   6.411   2.389 -0.1940 -0.2122 -0.0283
 2190W        W 6241   2.053   3.485   9.552 -0.3026 -0.0773  0.0646
 2191W        W 6242   7.574   6.230   3.078  0.2856 -0.0114  0.1736
 2192W        W 6243   1.161   6.816   0.068 -0.0346  0.0716 -0.2769
 2193W        W 6244   1.387   2.124  10.665  0.1919 -0.0136 -0.0258
 2194W        W 6245   0.998   8.768  10.495  0.1096  0.1025  0.0051
 2195W        W 6246   7.054   5.384   9.427 -0.1859  0.0727 -0.0898
 2196W        W 6247   9.773   7.077  12.354 -0.0220  0.1608  0.2308
 2197W        W 6248   9.546   8.807   1.789 -0.0178 -0.0956  0.1927
 2198W        W 6249   3.421   0.167   1.434  0.1012 -0.1279  0.1856
 2199W        W 6250   3.249   9.199  11.979 -0.1205 -0.1500 -0.0481
 2200W        W 6251   7.024   3.210  10.307  0.1571 -0.0001  0.2336
 2201W        W 6252   9.613   7.911  12.630  0.3172 -0.1624  0.0208
 2202W        W 6253   6.911   6.385  13.003  0.2516  0.0740 -0.3125
 2203W        W 6254   0.645   4.717   2.788 -0.0254  0.0431  0.1753
 2204W        W 6255   3.577   7.613  10.297 -0.0394  0.1595 -0.1002
 2205W        W 6256   6.850   5.422   0.930 -0.1721  0.1190 -0.0274
 2206W        W 6257   3.223   8.606   3.608  0.1745 -0.3455  0.0832
 2207W        W 6258   7.233   3.051  11.027  0.1418 -0.1954  0.1586
 2208W        W 6259   9.794   8.204   0.314 -0.0260 -0.1174 -0.1945
 2209W        W 6260   6.667   8.935   0.092  0.0108  0.1245  0.0900
 2210W        W 6261   6.254   7.034  12.567  0.1892  0.1595 -0.3653
 2211W        W 6262   8.612   0.997  12.868 -0.1232  0.0269  0.0003
 2212W        W 6263   1.012   0.525   1.419  0.2615 -0.0049 -0.2723
 2213W        W 6264  10.088   0.785   1.968 -0.0417 -0.1005 -0.1726
 2214W        W 6265   4.875   4.035   2.034  0.1140 -0.1988  0.0880
 2215W        W 6266   8.591   1.414  13.694  0.0358 -0.1591  0.2868
 2216W        W 6267   3.338   2.305   3.687 -0.1736  0.0724  0.2776
 2217W        W 6268   0.392   3.110   4.521 -0.2686 -0.1953  0.0776
 2218W        W 6269   2.413   7.699  10.716  0.1248  0.0715  0.2181
 2219W        W 6270   4.796   0.233  12.325 -0.2112  0.1812 -0.0355
 2220W        W 6271   3.386   3.717   1.027  0.0320  0.2130  0.2190
 2221W        W 6272   1.009   9.492   9.937 -0.1163 -0.2002 -0.0781
 2222W        W 6273   2.688   4.880   1.541 -0.1856  0.1287  0.1621
 2223W        W 6274   7.851   5.717   3.603 -0.1699 -0.1967 -0.1872
 2224W        W 6275   5.953   0.474   0.134  0.1243 -0.2100 -0.1680
 2225W        W 6276   1.164   8.563  12.111 -0.2551  0.1873 -0.2056
 2226W        W 6277   3.427   6.241  12.575  0.1406 -0.0314 -0.0673
 2227W        W 6278   3.614   5.018   9.007  0.0305  0.1457  0.0783
 2228W        W 6279   7.094   1.859   4.481 -0.4325  0.1058 -0.1653
 2229W        W 6280   7.365   3.688   4.050 -0.2371 -0.0159 -0.0237
 2230W        W 6281   4.440   0.069  12.631 -0.0813  0.1335 -0.1036
 2231W        W 6282   5.138   7.573  12.334 -0.1399  0.0719  0.1384
 2232W        W 6283   3.989   0.775  12.987  0.0791 -0.0439  0.2879
 2233W        W 6284   3.157   9.768   3.184  0.2838  0.3212 -0.3931
 2234W        W 6285   3.097   4.133   2.595 -0.0005  0.2696  0.1374
 2235W        W 6286   0.491   4.804  11.638 -0.1746  0.1787 -0.0097
 2236W        W 6287   7.241   2.198   4.202  0.0307  0.0842  0.2977
 2237W        W 6288   3.983   9.030  12.748 -0.1260 -0.1736  0.0027
 2238W        W 6289   8.066   1.326   1.990 -0.2993  0.0691  0.1252
 2239W        W 6290   9.059   2.045  13.020  0.3018 -0.1825 -0.1864
 2240W        W 6291   4.658   0.898   0.016 -0.1365 -0.0679 -0.0668
 2241W        W 6292   8.884   2.499  12.734  0.0064 -0.0154 -0.0727
 2242W        W 6293   8.315   1.975  11.932 -0.0674 -0.0208 -0.0111
 2243W        W 6294   5.047  10.023   2.730  0.0188  0.0227  0.2126
 2244W        W 6295   9.344   5.386  10.734  0.3086 -0.0171 -0.2714
 2245W        W 6296   4.572   5.044  13.638  0.2375 -0.1299 -0.1233
 2246W        W 6297   7.819   8.749  12.993  0.2150  0.2085 -0.0863
 2247W        W 6298   8.319   8.338  11.496  0.0889  0.2458  0.0462
 2248W        W 6299   8.682   9.346  12.920 -0.1523 -0.0111  0.0126
 2249W        W 6300   8.014   6.602   9.743  0.1238  0.0015  0.1668
 2250W        W 6301   9.873   4.225   2.451  0.1614  0.2658 -0.2749
 2251W        W 6302   7.167   1.492   9.530  0.0347 -0.1854 -0.2864
 2252W        W 6303   5.646   2.365   8.817 -0.0861  0.0225 -0.2887
 2253W        W 6304   8.180   0.869   1.839  0.0434 -0.1194  0.2524
 2254W        W 6305   3.691   7.311  11.874 -0.2590  0.1836 -0.1791
 2255W        W 6306   7.722   7.225  10.977 -0.0560 -0.0520 -0.1077
 2256W        W 6307   1.613   7.560   0.653  0.0561 -0.2486  0.1887
 2257W        W 6308   7.373   5.654  12.820  0.1205  0.1404  0.0701
 2258W        W 6309   3.654   7.028   1.135  0.3568  0.2150  0.1221
 2259W        W 6310   8.628   8.368  10.185 -0.3272  0.0170  0.2126
 2260W        W 6311   5.145   1.127   2.847 -0.0926 -0.1038 -0.0332
 2261W        W 6312   6.707   9.364  12.711 -0.3775  0.1820 -0.0240
 2262W        W 6313  10.081   5.596   4.342  0.2275 -0.0241  0.6106
 2263W        W 6314   9.724   7.989  13.227  0.1131 -0.1549  0.0481
 2264W        W 6315   0.208   9.241   1.656 -0.0656  0.1738 -0.1796
 2265W        W 6316   6.181   4.643  10.740 -0.0645 -0.0933  0.1409
 2266W        W 6317   8.861   1.967  10.606 -0.0553 -0.0483 -0.0331
 2267W        W 6318   2.815   1.327  10.978 -0.1205  0.0260 -0.0121
 2268W        W 6319   0.867   4.986  11.245 -0.0004  0.1820  0.1716
 2269W        W 6320   8.595   6.272   1.479  0.0342  0.4340  0.0911
 2270W        W 6321   9.480   6.280   4.399 -0.1646  0.0968 -0.1053
 2271W        W 6322   7.477   6.815  10.541  0.1933  0.3148  0.0184
 2272W        W 6323   0.821   6.968   1.174  0.4283 -0.2615 -0.0931
 2273W        W 6324   3.486   8.374  13.193 -0.0849 -0.2103  0.2516
 2274W        W 6325   6.399   2.822   1.851 -0.0930 -0.1055 -0.2271
 2275W        W 6326   5.547   0.661   0.971  0.0823 -0.2561 -0.1168
 2276W        W 6327  10.000   3.927   4.225  0.2413  0.2236 -0.1455
 2277W        W 6328   9.944   2.625   1.397 -0.0590  0.1148  0.0287
 2278W        W 6329   7.055   6.851   3.717  0.0530 -0.1787  0.1413
 2279W        W 6330   8.993   2.401   0.286  0.2557  0.0466 -0.2464
 2280W        W 6331   5.073   6.694  10.966 -0.2264 -0.0389 -0.2599
 2281W        W 6332   8.659   9.522  11.020 -0.0680 -0.1393 -0.2224
 2282W        W 6333   5.126   2.454   8.684  0.1663 -0.2454 -0.4035
 2283W        W 6334   5.777   6.795   0.529  0.2582  0.2422  0.3837
 2284W        W 6335   8.239   6.228  13.271  0.0197  0.1539  0.0236
 2285W        W 6336   2.976   5.200  11.779  0.0249 -0.3834 -0.4290
 2286W        W 6337   9.719   3.921   4.643  0.1214 -0.2325  0.1966
 2287W        W 6338   9.231   0.798  12.707  0.3070 -0.0281  0.0863
 2288W        W 6339   1.618   5.784  13.831  0.2131 -0.1406  0.0947
 2289W        W 6340   2.284   4.032   2.169 -0.0705 -0.3513  0.0919
 2290W        W 6341   8.724   1.607  12.890 -0.0822 -0.1167  0.4127
 2291W        W 6342   5.049   7.811  13.844 -0.0266  0.0358 -0.0470
 2292W        W 6343   1.779   8.749   0.953  0.3392 -0.1557  0.3003
 2293W        W 6344   4.492   0.952  13.097  0.1489 -0.2256  0.0142
 2294W        W 6345   1.811   4.371  11.781 -0.1867  0.0065  0.3553
 2295W        W 6346   9.090   6.885  14.000 -0.0162  0.0372 -0.2375
 2296W        W 6347   7.676   8.935   4.447 -0.1427  0.0970 -0.1494
 2297W        W 6348   7.363   5.483  11.748 -0.2028  0.2238 -0.1830
 2298W        W 6349   6.998   9.107  11.182  0.0191  0.2934  0.0585
 2299W        W 6350   4.893   3.361   2.099 -0.1175 -0.0697  0.0149
 2300W        W 6351   2.927   7.446  10.568  0.2027 -0.4210 -0.3353
 2301W        W 6352   0.302   4.022   3.985  0.0988  0.0051 -0.3688
 2302W        W 6353   0.275   7.450   3.526  0.1620  0.3520 -0.0982
 2303W        W 6354   4.008   6.322   2.732  0.0744  0.1720  0.0990
 2304W        W 6355   5.888   8.477   2.604  0.1721  0.2046  0.2899
 2305W        W 6356   5.994   3.349   0.186 -0.4189 -0.2267  0.2025
 2306W        W 6357   8.825   2.005   1.491 -0.0225 -0.1485 -0.1863
 2307W        W 6358   5.312   1.145   0.420 -0.2105  0.1807  0.1851
 2308W        W 6359   7.076   4.057   3.786  0.2163  0.0088 -0.2554
 2309W        W 6360   0.901   0.251  10.641 -0.0114  0.0210 -0.1601
 2310W        W 6361   4.694   9.619   0.620  0.0964 -0.2144 -0.2704
 2311W        W 6362   3.410   8.339   2.783 -0.4002 -0.3268  0.0679
 2312W        W 6363   7.242   1.800   1.896 -0.0874  0.0566  0.0266
 2313W        W 6364   9.640   0.028   3.052  0.0001  0.0571 -0.1434
 2314W        W 6365   5.370   2.286   4.004 -0.0841  0.0881  0.0214
 2315W        W 6366   1.727   1.152   0.109  0.3228 -0.1570  0.3004
 2316W        W 6367   1.157   3.202   4.207  0.0081  0.1853  0.0471
 2317W        W 6368   8.101   2.382  10.052  0.2539 -0.0628 -0.2758
 2318W        W 6369   8.248   9.318   9.320  0.1270  0.0129  0.2868
 2319W        W 6370   4.111   7.682   5.075  0.0170 -0.0868  0.3144
 2320W        W 6371   3.473   1.767  13.072 -0.1916 -0.2950  0.2221
 2321W        W 6372   1.621   6.042   0.375 -0.0651  0.0623  0.1944
 2322W        W 6373  10.045   5.111  11.186  0.1903 -0.0610  0.0604
 2323W        W 6374   4.804   3.799   4.844 -0.0906  0.1629 -0.2972
 2324W        W 6375   3.822   4.653   4.324  0.3897  0.0550 -0.1193
 2325W        W 6376   9.956   7.213  10.139  0.1873 -0.1053  0.0318
 2326W        W 6377   9.529   1.264   2.580  0.0533 -0.1141  0.2902
 2327W        W 6378   3.128   7.178   4.294  0.0468 -0.4164  0.3593
 2328W        W 6379   9.829   2.407  11.669 -0.1915 -0.4726 -0.0549
 2329W        W 6380   3.613   4.268   9.263 -0.0065  0.1763 -0.0482
 2330W        W 6381   8.092   6.091   4.050  0.0435 -0.2131  0.1747
 2331W        W 6382   5.893   9.933   2.601  0.3171  0.0715  0.0159
 2332W        W 6383   8.895   9.051  10.936  0.2853  0.0439  0.1061
 2333W        W 6384   5.086   7.205   2.220  0.0219 -0.1733  0.0096
 2334W        W 6385   8.815   7.121   9.345  0.1579 -0.0184 -0.0425
 2335W        W 6386   8.800   9.168   3.484 -0.0136  0.1572  0.4615
 2336W        W 6387   0.310   9.027   1.146  0.0743  0.1323  0.2263
 2337W        W 6388   3.202   5.396   2.628 -0.0540 -0.0480 -0.1047
 2338W        W 6389   9.593   5.951  10.996 -0.3327  0.2284  0.0654
 2339W        W 6390   8.062   1.765   1.676  0.0947 -0.0224 -0.0888
 2340W        W 6391   9.198   0.488   8.936  0.2336  0.1768  0.1523
 2341W        W 6392   2.935   2.262   2.033  0.2375 -0.1349 -0.1325
 2342W        W 6393   6.277   2.712  10.204 -0.0343  0.3092  0.0838
 2343W        W 6394   3.066   4.700  11.788 -0.0706  0.2283  0.1905
 2344W        W 6395   2.691   1.697  10.592  0.2933 -0.3229 -0.2758
 2345W        W 6396   3.872   5.368   1.892  0.3635  0.1911 -0.1173
 2346W        W 6397   7.594   2.453   3.889 -0.0212  0.0718 -0.0518
 2347W        W 6398   5.356   6.552  11.456 -0.3798 -0.1119  0.2702
 2348W        W 6399   1.082   4.159   5.769 -0.0438 -0.1373  0.0569
 2349W        W 6400   3.700   9.680   4.449 -0.0555  0.0282 -0.2024
 2350W        W 6401   8.754   1.843  12.204  0.0006 -0.1008  0.0141
 2351W        W 6402   5.974   6.613  12.550  0.4091 -0.1353 -0.0119
 2352W        W 6403   3.505   2.942   9.844  0.2420  0.2579 -0.3870
 2353W        W 6404   6.424   7.784   3.249 -0.2166 -0.0763  0.1115
 2354W        W 6405   1.927   6.274   2.653 -0.2677  0.1021 -0.3401
 2355W        W 6406   1.827   1.220  11.349 -0.1103  0.3170  0.0950
 2356W        W 6407   7.912   2.834   9.930  0.0520  0.0956  0.0486
 2357W        W 6408   7.836   8.084  12.996  0.1117  0.2400 -0.2050
 2358W        W 6409   3.357   2.210  13.362 -0.2614  0.4724  0.2710
 2359W        W 6410   2.386   7.433   0.159  0.0630 -0.3224  0.1532
 2360W        W 6411   4.899   0.795   1.992  0.1022  0.0931 -0.1034
 2361W        W 6412   2.374   2.615   3.942  0.1868 -0.2111 -0.0282
 2362W        W 6413   0.851   2.959   0.320  0.2661 -0.1658 -0.0619
 2363W        W 6414   5.358   0.242   9.141  0.1522 -0.3024  0.0614
 2364W        W 6415   4.908   0.583   1.560  0.0236 -0.2944 -0.1001
 2365W        W 6416   5.946   7.391  12.803  0.1123  0.0022 -0.0883
 2366W        W 6417   5.993   6.772   0.985 -0.3494 -0.1270 -0.2936
 2367W        W 6418   4.841   8.195  11.496  0.1274  0.1521  0.1597
 2368W        W 6419   9.437   8.703   2.257 -0.1576  0.1764 -0.0489
 2369W        W 6420   0.940   2.268   1.666  0.0014  0.0847 -0.0609
 2370W        W 6421   6.167   8.455  13.705  0.0903  0.0184 -0.1940
 2371W        W 6422   0.073   6.121   9.543 -0.4541  0.2382 -0.2707
 2372W        W 6423   5.289   8.068   1.625 -0.2470 -0.0362  0.0924
 2373W        W 6424   8.860   6.567   3.863  0.1296  0.0475  0.1486
 2374W        W 6425   1.470   3.103  10.330  0.1129  0.0903 -0.0180
 2375W        W 6426   8.865   0.773  10.812 -0.1307 -0.2396 -0.4131
 2376W        W 6427   9.143   6.229  10.653 -0.0264  0.0092 -0.3567
 2377W        W 6428   4.033   8.152   3.345 -0.4444 -0.1973  0.2276
 2378W        W 6429   8.096   7.732  12.594  0.0124 -0.0251 -0.0376
 2379W        W 6430   0.376   7.647  12.929  0.0891  0.3147 -0.0904
 2380W        W 6431   3.016   9.991   1.719 -0.3264  0.2294  0.3949
 2381W        W 6432   7.932   9.931  12.612  0.1150  0.1395  0.1719
 2382W        W 6433   0.965   1.567   0.096 -0.0164 -0.2390 -0.1743
 2383W        W 6434   7.406   5.769  11.336 -0.1300 -0.0081 -0.1902
 2384W        W 6435   3.248   1.796   0.325  0.2251  0.0614  0.1401
 2385W        W 6436   4.808   5.467   4.168  0.3836 -0.0471  0.2544
 2386W        W 6437   8.964   6.856   0.838 -0.1280  0.1213  0.1486
 2387W        W 6438   4.977   5.127   1.238 -0.1215  0.0649 -0.1906
 2388W        W 6439   4.980   1.282   1.996  0.0937 -0.1732  0.1712
 2389W        W 6440   1.470   0.331   2.191 -0.2841 -0.0201 -0.0738
 2390W        W 6441   0.897   2.884   4.462  0.4225 -0.0580 -0.1473
 2391W        W 6442   1.698   8.226   0.280 -0.2206 -0.3493 -0.1356
 2392W        W 6443   2.317   2.345  11.629  0.2755  0.1782 -0.0022
 2393W        W 6444   1.861   9.047  10.666 -0.1002  0.0607  0.0750
 2394W        W 6445   7.551   3.498   8.783 -0.0299 -0.4088  0.0606
 2395W        W 6446   4.173   1.953   9.970  0.0350  0.0058 -0.1561
 2396W        W 6447   0.783   4.241   1.291 -0.1639  0.1414  0.3841
 2397W        W 6448   7.096   7.220  12.725  0.3212  0.2064  0.2098
 2398W        W 6449   8.405   8.689  10.463  0.0933 -0.2169  0.0558
 2399W        W 6450   4.725   7.385   1.034  0.1674 -0.0377 -0.1645
 2400W        W 6451   0.164   4.940   2.634  0.0814  0.0111 -0.0694
 2401W        W 6452   9.087   1.955   4.778  0.1634  0.1284  0.1728
 2402W        W 6453   2.743   1.228   2.182  0.0015  0.1583  0.3246
 2403W        W 6454   4.245   6.195   0.102  0.2025  0.0292  0.1280
 2404W        W 6455   1.602   9.052   0.523  0.0946 -0.2659 -0.2805
 2405W        W 6456   9.140   0.568   0.988 -0.3563 -0.2488  0.0480
 2406W        W 6457   1.144   9.160   2.787  0.0010 -0.1329  0.4570
 2407W        W 6458   6.382   4.696   3.892 -0.0132  0.2434  0.0678
 2408W        W 6459   0.846   2.906   3.355 -0.0024 -0.2935 -0.2763
 2409W        W 6460   0.771   5.067   0.437 -0.1968  0.0222  0.3130
 2410W        W 6461   3.502   5.292   4.071 -0.0173  0.3603 -0.1170
 2411W        W 6462   1.417   1.911   0.182  0.3632  0.1251 -0.1747
 2412W        W 6463   6.066   8.783   1.338 -0.2637 -0.0041  0.1641
 2413W        W 6464   1.394   3.212   9.517 -0.2270  0.2165 -0.2145
 2414W        W 6465   7.904   4.096  12.113  0.0674 -0.0238 -0.0599
 2415W        W 6466   9.292   2.993   0.912  0.0454  0.0547  0.1890
 2416W        W 6467   6.361   1.012   1.900  0.3321 -0.0167 -0.0734
 2417W        W 6468   0.858   6.058   0.970 -0.1214 -0.0112  0.2030
 2418W        W 6469   9.160   1.604   2.799  0.0073 -0.2780  0.0689
 2419W        W 6470   4.114   9.323  11.753 -0.0036 -0.0716 -0.1507
 2420W        W 6471   9.353   9.581   5.038  0.0332  0.4813  0.0637
 2421W        W 6472   8.200   6.755   3.862 -0.1340  0.0662 -0.4139
 2422W        W 6473   6.011   5.611   9.551  0.0425  0.1766 -0.0845
 2423W        W 6474   7.206   7.981   9.203 -0.0549  0.4908  0.0073
 2424W        W 6475   9.761   4.321  12.067 -0.1265  0.0270 -0.1945
 2425W        W 6476   8.441   8.270   0.340 -0.0308  0.3194 -0.0390
 2426W        W 6477   1.552   0.163  12.905  0.1392  0.2885  0.1454
 2427W        W 6478   8.195   1.631  12.949  0.1101  0.0876  0.1567
 2428W        W 6479   9.142   4.881   8.572 -0.0478  0.0784  0.0100
 2429W        W 6480   8.626   6.869  11.663  0.0853 -0.1930 -0.0605
 2430W        W 6481   6.036   6.020   9.153 -0.2577  0.0821  0.2113
 2431W        W 6482   7.519   7.445  13.584  0.0301  0.3070  0.2943
 2432W        W 6483   2.570   6.572   0.477  0.1104 -0.2152 -0.1915
 2433W        W 6484   4.180   8.932   0.029  0.0447  0.1895  0.1411
 2434W        W 6485   5.893   5.643  10.904 -0.5126  0.0258  0.2945
 2435W        W 6486   8.380   0.540  12.752  0.2304  0.1137 -0.0682
 2436W        W 6487   1.650   8.167  13.683  0.0251 -0.0765 -0.1079
 2437W        W 6488   6.061   3.354   0.661  0.1063  0.3856 -0.0039
 2438W        W 6489   2.697   8.310  12.200 -0.1970 -0.3381  0.0437
 2439W        W 6490   6.228   4.112   1.117  0.1280  0.5203 -0.2257
 2440W        W 6491   5.241   4.631  11.699 -0.1837  0.2622  0.1715
 2441W        W 6492   8.199   9.687   0.182  0.0231  0.0244 -0.1816
 2442W        W 6493   4.136   0.678   1.540  0.0899  0.0508 -0.0149
 2443W        W 6494   1.840   1.378   2.994 -0.0191 -0.0930  0.1371
 2444W        W 6495   3.194   8.579  11.531 -0.2187  0.1492  0.0322
 2445W        W 6496   7.988   4.422   4.725  0.3554  0.1088  0.1464
 2446W        W 6497   0.651   7.962  12.595 -0.1328 -0.2172  0.1370
 2447W        W 6498   1.073   5.651   3.714 -0.2569 -0.0867  0.3687
 2448W        W 6499   7.804   6.436  10.214  0.1505 -0.2298 -0.0386
 2449W        W 6500   5.501   8.790   4.586  0.0168 -0.1638 -0.0293
 2450W        W 6501   8.820   5.966   9.464 -0.0227 -0.1018 -0.2154
 2451W        W 6502   3.771   0.983  11.175 -0.0253 -0.4038  0.2118
 2452W        W 6503   3.860   2.379   5.133  0.0962 -0.1189 -0.1365
 2453W        W 6504   3.115   4.306  12.545 -0.1998 -0.0840  0.0617
 2454W        W 6505   0.037   1.142  10.220 -0.2327 -0.0248  0.1598
 2455W        W 6506   0.126   7.054   1.992 -0.3772 -0.1068  0.3595
 2456W        W 6507   2.711   4.764   2.525  0.0422 -0.0494 -0.1822
 2457W        W 6508   1.006   3.656  10.208  0.0201 -0.1781 -0.1324
 2458W        W 6509   6.106   5.246  11.612 -0.4039 -0.2848 -0.1209
 2459W        W 6510   3.624   4.190   4.554 -0.1568 -0.0123  0.3675
 2460W        W 6511   1.549   9.852  13.922  0.2726 -0.1315  0.4196
 2461W        W 6512   0.158   7.733  11.893  0.2677  0.0672  0.1002
 2462W        W 6513   7.849   6.336   1.993  0.2910  0.0691  0.2894
 2463W        W 6514   3.329   3.531  13.712 -0.3823  0.1969  0.0873
 2464W        W 6515   4.304   1.453   0.043  0.1604 -0.1358  0.2943
 2465W        W 6516   0.302   3.624   3.244  0.0528  0.2550 -0.4037
 2466W        W 6517   6.011   1.625  10.265 -0.0371 -0.2070 -0.2816
 2467W        W 6518  10.128   1.703  13.290  0.1093  0.0997 -0.3228
 2468W        W 6519   3.143   8.247   0.078 -0.1240  0.0922 -0.1297
 2469W        W 6520   2.994   5.942   0.067  0.1022  0.2613  0.0357
 2470W        W 6521   5.021   7.110   3.152 -0.1263  0.0765  0.0668
 2471W        W 6522   6.372   3.629  11.454  0.2154 -0.0030  0.0110
 2472W        W 6523   3.860   7.359   2.963  0.0021 -0.0412  0.1757
 2473W        W 6524   3.553   3.760  10.842  0.4029  0.2446 -0.2440
 2474W        W 6525   0.379   0.447  11.105 -0.1279 -0.1413 -0.2647
 2475W        W 6526   2.440   3.568  11.865  0.0506  0.0971  0.0613
 2476W        W 6527   7.289   8.818  13.142 -0.2508  0.2664  0.0695
 2477W        W 6528   2.213   6.574   0.937  0.3388 -0.2265 -0.0947
 2478W        W 6529   4.792   7.119  10.838  0.0525  0.0175 -0.0625
 2479W        W 6530   5.502   3.111   2.365  0.0040 -0.1716  0.0959
 2480W        W 6531   8.284   2.785  10.543  0.0401 -0.0344 -0.0923
 2481W        W 6532   9.556   0.537   3.110 -0.3064 -0.1335 -0.1619
 2482W        W 6533   7.735   6.344  10.699  0.2633 -0.0424  0.1476
 2483W        W 6534   7.126   2.288  11.692 -0.1510  0.1234  0.1122
 2484W        W 6535   5.366   6.173   9.781  0.1516  0.2648 -0.0881
 2485W        W 6536   5.992   0.737  11.841  0.4014  0.2355  0.0735
 2486W        W 6537   9.424   0.435  11.292 -0.2673 -0.0746 -0.1425
 2487W        W 6538   5.395   0.559   1.751 -0.0448 -0.0540 -0.0035
 2488W        W 6539   9.171   7.039   1.867  0.1519  0.3640  0.0927
 2489W        W 6540   3.253   7.761   2.957  0.0909 -0.0120 -0.4013
 2490W        W 6541   1.693   1.639  10.967 -0.2311  0.0466  0.0808
 2491W        W 6542   8.160   0.893   4.221  0.0888  0.2738  0.3204
 2492W        W 6543   1.071   0.804  11.238 -0.0215  0.0446  0.3725
 2493W        W 6544   2.083   6.311   0.404 -0.1852 -0.0469  0.2595
 2494W        W 6545   5.345   4.116   9.842  0.0864  0.2358 -0.3532
 2495W        W 6546   9.099   7.745  11.201  0.0659  0.1840  0.0450
 2496W        W 6547   5.695   0.341  10.275  0.0350  0.1967  0.0659
 2497W        W 6548   3.893  10.049  12.955 -0.0660  0.1491 -0.0847
 2498W        W 6549   7.165   4.113   0.130  0.1071 -0.1721 -0.0031
 2499W        W 6550  10.015   1.276   2.670  0.4861  0.0317 -0.2069
 2500W        W 6551   4.840   3.496  10.944 -0.1560 -0.2380  0.0526
 2501W        W 6552   5.762  10.026   2.092  0.0050 -0.1581 -0.3945
 2502W        W 6553   6.106   3.097   2.599 -0.2424  0.2350 -0.2193
 2503W        W 6554   5.597   5.840   9.313 -0.1400  0.1267 -0.2187
 2504W        W 6555   7.540   8.099  10.309  0.2094 -0.2302 -0.1061
 2505W        W 6556   9.875   4.095  10.222 -0.0754  0.0939 -0.0221
 2506W        W 6557   1.988   3.185  11.452  0.0308 -0.1320  0.0911
 2507W        W 6558   8.490   3.191  13.198  0.6008 -0.1478 -0.0092
 2508W        W 6559   4.875   8.229  10.197 -0.1787  0.1117 -0.0328
 2509W        W 6560   4.372   1.605  10.424 -0.1347 -0.0323 -0.0480
 2510W        W 6561   0.942   5.513   2.439 -0.1101 -0.2101  0.2989
 2511W        W 6562   6.175   8.311   1.156 -0.0725  0.0311 -0.0299
 2512W        W 6563   8.583   6.521   3.005 -0.0056  0.0106 -0.0235
 2513W        W 6564   2.429   2.969  13.408  0.1726 -0.0234 -0.0884
 2514W        W 6565   7.598   0.330  10.945  0.2709 -0.2527 -0.1896
 2515W        W 6566   3.063   4.786   9.111 -0.3357  0.0917 -0.1078
 2516W        W 6567   9.089   0.449   5.116 -0.2632 -0.2191 -0.3307
 2517W        W 6568   2.043   9.933  13.783  0.0974 -0.0025  0.0103
 2518W        W 6569   6.736   2.582  12.035  0.1548  0.0840 -0.2900
 2519W        W 6570   0.849   4.174  13.402 -0.1394  0.1144  0.3876
 2520W        W 6571   6.494   0.646   0.015 -0.0758  0.0457  0.1249
 2521W        W 6572   1.560   6.683  13.759 -0.2414 -0.0169  0.2830
 2522W        W 6573   9.151   8.960   3.212  0.0076  0.1302  0.1540
 2523W        W 6574   6.140   4.708  13.496 -0.2649 -0.1968 -0.1195
 2524W        W 6575   7.841   9.680   9.438 -0.0973 -0.0236 -0.0240
 2525W        W 6576   3.510  10.080   3.431 -0.1589  0.2059 -0.0379
 2526W        W 6577   8.200   3.366   0.829  0.0525 -0.1280  0.0934
 2527W        W 6578   6.996   2.423  12.866  0.0499 -0.0166  0.2539
 2528W        W 6579   2.255   6.730  11.661 -0.1158 -0.0168  0.0077
 2529W        W 6580   0.981   6.535   9.565 -0.2745  0.0671  0.2221
 2530W        W 6581   5.486   1.684   4.242  0.0271  0.0433 -0.0038
 2531W        W 6582   9.993   3.776   3.389 -0.2291 -0.1778 -0.2088
 2532W        W 6583   9.910   9.169  12.596 -0.1119 -0.1866  0.1767
 2533W        W 6584   0.958   9.549   1.984 -0.1572  0.0253  0.1769
 2534W        W 6585   7.529   2.064  10.656  0.1773 -0.1001  0.1342
 2535W        W 6586   1.818   7.069   1.668  0.0285 -0.4918  0.1313
 2536W        W 6587   1.337   6.338   0.021 -0.1760  0.1002 -0.0656
 2537W        W 6588   0.892   8.849   2.091  0.1814 -0.0847  0.4685
 2538W        W 6589   1.070   4.217  10.351 -0.2534  0.0266  0.0452
 2539W        W 6590   0.602   5.111   2.509 -0.0783 -0.0526 -0.0316
 2540W        W 6591   1.515   0.180   7.911 -0.0704 -0.0982  0.0532
 2541W        W 6592   4.132   5.212  13.800 -0.1000 -0.2342 -0.0792
 2542W        W 6593   4.687   3.653   8.617  0.2026 -0.1796  0.2058
 2543W        W 6594   4.711   0.224  11.813  0.1269 -0.0857  0.0861
 2544W        W 6595   3.665   6.961   0.251 -0.2563 -0.2079  0.1346
 2545W        W 6596   0.698   5.197   9.517 -0.2187 -0.2020 -0.0252
 2546W        W 6597   1.018   0.256  12.991 -0.3747 -0.0832  0.1856
 2547W        W 6598   7.853   8.073   4.992  0.2301  0.3849 -0.0094
 2548W        W 6599   1.947   4.910  10.077 -0.0010  0.1582 -0.1926
 2549W        W 6600   9.421   5.357  11.965  0.1413 -0.2679  0.0474
 2550W        W 6601   2.881   7.854  12.227 -0.1497  0.3132 -0.0503
 2551W        W 6602   9.649   4.186  12.805 -0.0711  0.0188 -0.1700
 2552W        W 6603   6.118   4.134  11.481 -0.1379 -0.0287  0.1231
 2553W        W 6604   2.119   2.043  13.153  0.1081 -0.0890  0.0396
 2554W        W 6605   0.856   3.458   3.425 -0.2360  0.1519  0.1334
 2555W        W 6606   2.739   4.684   4.140  0.0129 -0.1520  0.0832
 2556W        W 6607   7.477   7.456  11.943  0.0158 -0.1189  0.2634
 2557W        W 6608   8.978   5.741  10.629  0.1151 -0.1751  0.1978
 2558W        W 6609   6.622   8.990   3.802  0.5042 -0.0179 -0.3080
 2559W        W 6610   8.319   3.916   1.552 -0.0148 -0.0682 -0.1713
 2560W        W 6611   6.741   3.088   3.176 -0.1032 -0.1039  0.0710
 2561W        W 6612   5.185   4.890  13.156 -0.0569  0.2076  0.3657
 2562W        W 6613   0.504   4.849  10.701 -0.1896 -0.1011 -0.0122
 2563W        W 6614   1.356   7.825  12.868  0.0487 -0.2732  0.3812
 2564W        W 6615   6.497   7.205   2.375  0.0326 -0.2087 -0.0390
 2565W        W 6616   3.258   2.164   3.158  0.1559 -0.2092  0.0398
 2566W        W 6617   9.764   5.187   9.890  0.1739 -0.2031 -0.0526
 2567W        W 6618   0.463   3.862  10.021 -0.3897 -0.1063  0.3258
 2568W        W 6619   7.754   5.155  11.000 -0.4417  0.0996  0.1660
 2569W        W 6620   9.724   0.601  12.808  0.1525  0.2611  0.2139
 2570W        W 6621   2.324   0.395  13.652  0.2747  0.1785  0.1110
 2571W        W 6622   1.414   8.516  11.548 -0.0096  0.3176 -0.0231
 2572W        W 6623   8.057   2.885  11.663  0.0110 -0.0890  0.2183
 2573W        W 6624   6.807   0.106   2.858 -0.2689 -0.0660  0.1530
 2574W        W 6625   2.774   2.367   8.847 -0.0460  0.1155 -0.0460
 2575W        W 6626   9.592   5.903  12.055 -0.0842  0.1208 -0.0513
 2576W        W 6627   8.374   6.944   9.676  0.6108 -0.0297  0.1955
 2577W        W 6628   5.289   3.592  10.640  0.1905  0.1295 -0.1291
 2578W        W 6629   8.379   8.716   4.483 -0.0433 -0.3018 -0.0341
 2579W        W 6630   2.280   5.612   2.869  0.3288  0.0085  0.1321
 2580W        W 6631   4.431   5.975   8.677 -0.2202 -0.0729 -0.4226
 2581W        W 6632   1.253   0.424  11.587  0.1344  0.3467  0.1828
 2582W        W 6633   1.315   4.562   1.005  0.0212 -0.0032 -0.0158
 2583W        W 6634   7.251   4.237  13.228  0.1013  0.0176  0.1580
 2584W        W 6635   8.067   7.055   1.363 -0.0796 -0.1459  0.0119
 2585W        W 6636   6.920   2.380  13.942  0.1616 -0.2493 -0.1110
 2586W        W 6637   5.471   9.819  13.499  0.4109 -0.0137  0.3925
 2587W        W 6638   1.895   4.330   4.768  0.1153  0.0503 -0.1190
 2588W        W 6639   1.031   7.535  12.444 -0.0980  0.1963 -0.0323
 2589W        W 6640   0.613   3.808   9.359  0.0398  0.0977  0.0588
 2590W        W 6641   2.359   3.728  10.045  0.1836  0.0134  0.4296
 2591W        W 6642   5.855   9.303  10.869  0.2764  0.0315  0.1695
 2592W        W 6643   7.912   3.316   3.368  0.1882 -0.3526 -0.3190
 2593W        W 6644   2.471   2.806   1.744 -0.1521  0.0432  0.1783
 2594W        W 6645   9.463   4.737   4.608  0.3170  0.1442  0.0116
 2595W        W 6646   1.523   6.595   3.784 -0.1935 -0.2911  0.1673
 2596W        W 6647   0.853   0.846  12.942  0.0115  0.0658 -0.1034
 2597W        W 6648   1.591   1.945  13.257  0.0743  0.1449  0.1240
 2598W        W 6649   0.733   7.708  11.819 -0.0189  0.0692 -0.0169
 2599W        W 6650  10.102   2.959   0.446 -0.3427  0.1530  0.1301
 2600W        W 6651   2.609   1.503  12.068 -0.0813 -0.1361  0.2800
 2601W        W 6652   6.673   6.981  12.901  0.2045  0.1689  0.0480
 2602W        W 6653   6.947   7.850  13.299 -0.0615 -0.1925 -0.0501
 2603W        W 6654  10.052   6.661  10.263  0.1992  0.0448 -0.0633
 2604W        W 6655   7.575   6.542  11.647 -0.1587 -0.0948  0.0604
 2605W        W 6656   4.418   8.222  12.952 -0.2195  0.0903  0.0996
 2606W        W 6657   2.501   1.901  12.820  0.1995 -0.0739  0.1013
 2607W        W 6658   5.464   1.298   3.707  0.0281  0.2321  0.1690
 2608W        W 6659   2.296   8.619   0.993  0.3591 -0.2886  0.2408
 2609W        W 6660   0.481   8.000  11.503 -0.2013  0.0426 -0.0924
 2610W        W 6661   1.501   5.180   1.948 -0.2156  0.0346  0.3766
 2611W        W 6662   0.136   7.879  10.120  0.1463  0.2037  0.1891
 2612W        W 6663   9.619   2.388  11.176  0.1279  0.1690 -0.1015
 2613W        W 6664   8.212   6.541  10.560 -0.1065  0.1626 -0.0083
 2614W        W 6665   8.456   6.775   0.876 -0.1370  0.0031  0.5891
 2615W        W 6666   0.297   3.483   9.610  0.2527  0.2425  0.2038
 2616W        W 6667   2.503   7.529  11.426 -0.1016 -0.0815 -0.1300
 2617W        W 6668   0.313   6.427  11.951  0.0973 -0.4604  0.1410
 2618W        W 6669   8.609   5.386  10.924  0.0683  0.2954  0.0152
 2619W        W 6670   0.814   3.153   1.106 -0.0298  0.2650  0.1719
 2620W        W 6671   0.409   1.465   3.855 -0.1455  0.0757 -0.1755
 2621W        W 6672   5.386   3.935   2.703  0.1243  0.0008 -0.2996
 2622W        W 6673   6.965   8.598   3.870  0.2597 -0.0366  0.1760
 2623W        W 6674   3.220   2.766   0.122 -0.2978  0.2537  0.1876
 2624W        W 6675   3.430   6.137   0.424 -0.5186 -0.0724 -0.1808
 2625W        W 6676   2.801   6.584  10.097 -0.0452 -0.2729 -0.3140
 2626W        W 6677   6.062   1.820   0.215 -0.2406 -0.1440  0.0368
 2627W        W 6678   6.265   7.886  12.720 -0.3690 -0.1822 -0.3036
 2628W        W 6679   7.459   9.838  12.234 -0.2166 -0.1747  0.2868
 2629W        W 6680   6.705   3.143   9.634 -0.0698  0.0648 -0.1942
 2630W        W 6681   8.425   0.451   4.050 -0.1541 -0.1097  0.2546
 2631W        W 6682   6.699   4.037   3.158 -0.0670 -0.2461 -0.0392
 2632W        W 6683   2.690   7.967  12.776  0.1222 -0.0645 -0.1578
 2633W        W 6684   8.234   6.581   1.392  0.0246 -0.0422  0.1275
 2634W        W 6685   6.853   6.939   2.637  0.0110 -0.0636 -0.2025
 2635W        W 6686   1.573   7.876   3.667 -0.2456  0.2628  0.4583
 2636W        W 6687   6.526   7.655   9.374 -0.1003 -0.0740 -0.1354
 2637W        W 6688   1.966   6.718  11.204 -0.0635 -0.1584 -0.1820
 2638W        W 6689   6.315   2.961   4.411 -0.1310 -0.0697  0.0946
 2639W        W 6690   9.438   7.780  10.777 -0.2502 -0.1794  0.1917
 2640W        W 6691   7.659   1.402   1.601 -0.2434  0.1245 -0.0552
 2641W        W 6692   6.743   9.884   4.141  0.2957 -0.0165 -0.0691
 2642W        W 6693   8.784   0.197   1.657  0.0659 -0.1669  0.3506
 2643W        W 6694   7.061   0.081   9.696 -0.2204  0.0668  0.1433
 2644W        W 6695   8.166   3.369   4.413  0.2995  0.0777 -0.1082
 2645W        W 6696   2.547   3.617  12.341 -0.0598 -0.2519 -0.0875
 2646W        W 6697   8.569   0.928   5.048 -0.2728 -0.1526  0.1743
 2647W        W 6698   2.996  10.129   0.536  0.2502  0.2280 -0.2815
 2648W        W 6699   6.239   1.216   3.092 -0.2138 -0.0343 -0.0061
 2649W        W 6700   5.655   9.785   9.568 -0.1606  0.0240  0.0832
 2650W        W 6701   9.476   5.437   4.388  0.1475  0.1448  0.0254
 2651W        W 6702   4.513   5.060  10.200 -0.3797  0.0747  0.1073
 2652W        W 6703   2.658   1.882   1.821 -0.2623 -0.1813 -0.1815
 2653W        W 6704   4.921   7.593  10.364  0.1181 -0.0755 -0.0723
 2654W        W 6705   4.158   8.490   0.756  0.1367 -0.0183  0.1147
 2655W        W 6706   4.671   1.792   9.849 -0.1741  0.0848 -0.0879
 2656W        W 6707   2.455   9.119   3.054  0.1859 -0.2443  0.1576
 2657W        W 6708   2.713   9.957   2.885 -0.0324 -0.1292 -0.3645
 2658W        W 6709   6.700   6.791  11.413  0.3103 -0.2680  0.1002
 2659W        W 6710   5.996   6.787   2.821  0.2770  0.2529  0.1224
 2660W        W 6711   1.659   9.167   2.015 -0.2584  0.1510 -0.0161
 2661W        W 6712   3.075   4.383   5.396 -0.2100 -0.0375 -0.1972
 2662W        W 6713   6.617   9.689   0.972 -0.1704  0.2313  0.5243
 2663W        W 6714   3.639   4.787   3.742 -0.2519  0.2056 -0.3717
 2664W        W 6715   4.706   1.091   3.778  0.1018 -0.2777 -0.3019
 2665W        W 6716   7.808   8.222  11.298 -0.1491  0.2442  0.1325
 2666W        W 6717   7.117   8.649   0.695 -0.0215  0.1215  0.2450
 2667W        W 6718   4.843   3.575   4.051 -0.0229 -0.3067  0.2812
 2668W        W 6719   9.286   7.781   2.465 -0.1830  0.1158 -0.0674
 2669W        W 6720   6.533   5.856  14.048 -0.0174  0.1210  0.1179
 2670W        W 6721   9.423   0.108  10.499 -0.3399 -0.0804  0.0730
 2671W        W 6722   3.385   6.828  13.072 -0.1012 -0.1567 -0.2971
 2672W        W 6723   8.825   7.802  10.017 -0.1071 -0.2496  0.1551
 2673W        W 6724   2.227   7.815   2.008 -0.1653  0.0393  0.1702
 2674W        W 6725   7.826   0.296   4.954  0.1523  0.1849 -0.2288
 2675W        W 6726   9.642   5.578   2.651 -0.0911  0.3418  0.1237
 2676W        W 6727   8.904   1.336  11.459 -0.0323 -0.0566 -0.0651
 2677W        W 6728   2.507   7.479   4.396  0.1756  0.0914  0.2456
 2678W        W 6729   0.425   4.962   4.916 -0.3485  0.1321 -0.2425
 2679W        W 6730   2.619   9.595  12.225 -0.1051 -0.0082 -0.0366
 2680W        W 6731   3.660   5.404  10.094 -0.1776 -0.1168  0.0390
 2681W        W 6732   3.578   3.927   0.559  0.0856  0.1278  0.4006
 2682W        W 6733   2.360   4.277   3.023  0.0586 -0.1258  0.1285
 2683W        W 6734   4.412   6.457   1.341 -0.0813  0.0759  0.0744
 2684W        W 6735   4.006   4.175  11.372  0.1046 -0.2305  0.1493
 2685W        W 6736   4.517   1.064   1.361 -0.1386 -0.0748 -0.0393
 2686W        W 6737   2.240   4.618  11.944  0.1236  0.3059  0.1927
 2687W        W 6738   8.794   8.634   0.462  0.0191  0.1883  0.0984
 2688W        W 6739   4.197   9.079  12.250  0.4102 -0.1569 -0.2328
 2689W        W 6740   8.830   9.248   0.210  0.0951 -0.0893 -0.3780
 2690W        W 6741   9.000   4.204   0.659 -0.1467 -0.0373 -0.0010
 2691W        W 6742   0.201   2.917  10.410 -0.2528 -0.0962  0.1829
 2692W        W 6743   2.449   9.262  13.490 -0.6859  0.0289 -0.1348
 2693W        W 6744   8.850   5.998   2.983  0.2158  0.1377  0.0559
 2694W        W 6745   2.939   5.504   3.556  0.1454  0.0898  0.0914
 2695W        W 6746   5.057   3.415   9.373 -0.1810 -0.1807 -0.3082
 2696W        W 6747   3.862   7.379   2.478  0.0327  0.0168  0.1976
 2697W        W 6748   0.889   2.071  14.012 -0.2079  0.1503 -0.5915
 2698W        W 6749   6.127   9.301  12.627  0.0223 -0.0732  0.2098
 2699W        W 6750   8.226   1.450   0.092  0.1393 -0.1886 -0.0449
 2700W        W 6751   4.579   6.940   9.413  0.1285 -0.0958 -0.0106
 2701W        W 6752   6.542   5.375  11.215 -0.1131  0.0403 -0.3117
 2702W        W 6753   0.005   1.852   0.531 -0.0101 -0.1569  0.1510
 2703W        W 6754   7.550   6.824   2.114 -0.3600 -0.0299  0.1541
 2704W        W 6755   1.113   0.058   0.453 -0.0962  0.2110 -0.2964
 2705W        W 6756   1.526   3.901  11.640  0.0310  0.0149 -0.0444
 2706W        W 6757   3.830   5.191  11.535  0.0365  0.5572 -0.2939
 2707W        W 6758   7.669   9.740   4.259 -0.2451 -0.1578  0.0897
 2708W        W 6759   0.270   0.563  11.600  0.4172 -0.2176  0.1320
 2709W        W 6760   6.934   3.710  11.920  0.3263 -0.1300  0.1001
 2710W        W 6761   1.818   4.498  13.031 -0.0882  0.2293  0.1920
 2711W        W 6762   5.593   1.123  10.715  0.0787  0.2269 -0.2581
 2712W        W 6763   5.691   7.114   9.373 -0.1595 -0.1041  0.1494
 2713W        W 6764   5.363   2.149  12.309  0.2140 -0.0267 -0.1164
 2714W        W 6765   2.491   7.732   0.560 -0.1273  0.0833 -0.0094
 2715W        W 6766   0.845   3.558   1.964  0.1246  0.2062 -0.1071
 2716W        W 6767   7.537   7.886  11.644  0.2846  0.1170  0.2403
 2717W        W 6768   2.453   3.092  11.617  0.0400  0.0984  0.2349
 2718W        W 6769   2.967   3.855   1.262  0.0348 -0.1797 -0.3254
 2719W        W 6770   6.031   7.895  11.428 -0.2031  0.3524 -0.2101
 2720W        W 6771   3.051   3.364  12.431 -0.1932  0.2176  0.0801
 2721W        W 6772   2.459   3.597   4.227 -0.1237  0.3939  0.0019
 2722W        W 6773   9.895   9.261  11.203  0.1332 -0.1728 -0.2157
 2723W        W 6774   5.985   6.471   2.420 -0.0819  0.0944 -0.0252
 2724W        W 6775   0.974   8.685   2.975 -0.0876  0.0613 -0.0540
 2725W        W 6776   1.320   1.198  10.133 -0.4644  0.2726  0.0923
 2726W        W 6777   7.170   5.219  12.585 -0.0069  0.1565 -0.2241
 2727W        W 6778   0.150   3.409  11.763  0.2747 -0.0840 -0.1482
 2728W        W 6779   0.017   1.143   0.077  0.0981  0.0616 -0.0689
 2729W        W 6780   8.731   5.003  11.256  0.0023  0.0693  0.0465
 2730W        W 6781   1.366   0.040  11.243 -0.0217 -0.1057 -0.4638
 2731W        W 6782   5.861   2.810  12.096 -0.2079  0.1445  0.2011
 2732W        W 6783   2.084   0.467   0.059 -0.1488  0.1117 -0.1039
 2733W        W 6784   2.489   3.857   3.814  0.0164  0.0387 -0.0839
 2734W        W 6785   1.403   5.948  10.326 -0.1646  0.0949  0.2108
 2735W        W 6786   0.804   6.723  12.686  0.0864 -0.0364  0.1227
 2736W        W 6787   2.434   2.618   2.740  0.1419  0.0096  0.0889
 2737W        W 6788   9.164   3.782   3.596 -0.2513  0.2335 -0.0960
 2738W        W 6789   2.572   2.095   2.651 -0.0625 -0.2713  0.3527
 2739W        W 6790   2.852  10.141   0.064 -0.0753  0.1428 -0.3017
 2740W        W 6791   5.307   7.553   2.921  0.1083 -0.2486  0.0207
 2741W        W 6792   4.616   5.403   2.904 -0.2485 -0.0213 -0.0753
 2742W        W 6793   6.977   6.805  13.320  0.0401  0.1385 -0.1033
 2743W        W 6794   7.258   4.994   3.767  0.0930  0.2150 -0.1388
 2744W        W 6795   6.613   5.357  10.272 -0.3167  0.0236  0.0486
 2745W        W 6796   6.580   2.034   5.613 -0.1186 -0.2310 -0.1738
 2746W        W 6797   5.656   3.947  11.376  0.2126 -0.0045  0.2534
 2747W        W 6798   1.253   3.674   1.675 -0.4756 -0.0664 -0.1053
 2748W        W 6799   7.650   1.461   2.237 -0.0216  0.1086  0.0209
 2749W        W 6800   8.672   7.805   0.206 -0.1644 -0.0566  0.2411
 2750W        W 6801   3.820   2.733   1.921  0.2082  0.3609 -0.2266
 2751W        W 6802   4.468   5.222  10.801  0.0243 -0.0138  0.2808
 2752W        W 6803   9.004   6.020  13.906 -0.1376  0.1941  0.0588
 2753W        W 6804   9.315   0.329   4.176  0.0894  0.0078 -0.3023
 2754W        W 6805   3.597   8.150  12.744  0.2774 -0.0650  0.1926
 2755W        W 6806   0.073   7.123  13.063  0.3047  0.0210  0.0128
 2756W        W 6807   3.765   9.525   0.643 -0.0109  0.1461  0.3344
 2757W        W 6808   6.271   8.706   4.825  0.3093 -0.0954  0.1222
 2758W        W 6809   9.660   5.470  11.118 -0.5004 -0.0722  0.0729
 2759W        W 6810   7.274   8.343   2.676  0.1521  0.1373  0.1070
 2760W        W 6811   9.650   5.230  11.549 -0.1916 -0.1184 -0.1922
 2761W        W 6812   2.953   1.568   4.332 -0.1500 -0.1116  0.1361
 2762W        W 6813   7.438   3.431  12.228  0.3676  0.0353 -0.0971
 2763W        W 6814   2.985   0.557  12.967  0.1666 -0.0534  0.2937
 2764W        W 6815   3.052   9.256   0.791 -0.4125 -0.0725 -0.0264
 2765W        W 6816   5.494   7.918  13.085 -0.0356 -0.1654 -0.0043
 2766W        W 6817   8.739   6.923   2.166  0.2350  0.1413 -0.0755
 2767W        W 6818   3.124   3.227   0.008 -0.1515 -0.0419 -0.0004
 2768W        W 6819   6.995   3.627   2.752 -0.1574 -0.0747 -0.0598
 2769W        W 6820   8.395  10.090   0.385 -0.1789 -0.2285 -0.0057
 2770W        W 6821   7.740   0.514  14.021  0.1472 -0.0739  0.1755
 2771W        W 6822   6.007   4.984   0.727 -0.0063 -0.0117  0.0882
 2772W        W 6823   0.171   6.479   0.755 -0.0194 -0.0379  0.1520
 2773W        W 6824   1.522   6.102  10.877  0.2592 -0.1962  0.2948
 2774W        W 6825   6.045   7.598   2.091  0.1738 -0.2153  0.0057
 2775W        W 6826   7.960   7.879   3.092  0.0579  0.1037  0.2605
 2776W        W 6827   9.699   9.117   0.338  0.0010  0.2898  0.0509
 2777W        W 6828   5.078   8.126   3.488 -0.0741 -0.2609  0.0228
 2778W        W 6829   3.986   4.542  12.927 -0.2374  0.0162  0.2471
 2779W        W 6830   5.579   1.213   2.590 -0.1700  0.1030  0.0174
 2780W        W 6831   5.771   9.424  13.566 -0.1799  0.2581 -0.2824
 2781W        W 6832   1.422   7.818   1.539  0.0587  0.2503 -0.1243
 2782W        W 6833   5.226   8.890  12.988  0.0246 -0.1216 -0.0832
 2783W        W 6834   3.437   2.196  13.926  0.1840 -0.0268  0.1348
 2784W        W 6835   3.868   1.816  12.745  0.0489  0.2281 -0.2082
 2785W        W 6836   6.246   6.145  11.303 -0.1441  0.0316 -0.1315
 2786W        W 6837   3.230   2.662  13.641 -0.2671  0.0783  0.1374
 2787W        W 6838   4.848   1.768  10.559 -0.0633  0.0386  0.0728
 2788W        W 6839   0.331   2.776  13.610 -0.0482  0.2449 -0.4656
 2789W        W 6840   1.752   7.200  11.748  0.0980 -0.0162 -0.1990
 2790W        W 6841   2.952   4.986   0.005  0.1425  0.0991 -0.0584
 2791W        W 6842   9.516   1.403  10.153 -0.0694  0.0087  0.1399
 2792W        W 6843   6.814   3.169   1.614  0.0519  0.0785  0.1822
 2793W        W 6844   4.012   8.840  11.818 -0.1263 -0.0539  0.2949
 2794W        W 6845   7.396   4.414  11.938 -0.1772  0.1993  0.2330
 2795W        W 6846   9.856   3.801   9.509 -0.2629  0.0136  0.3800
 2796W        W 6847   7.533   1.666   4.289  0.0638  0.0916  0.2207
 2797W        W 6848   1.756   9.130  12.638 -0.0338 -0.2489  0.0853
 2798W        W 6849   6.882   7.542  10.437  0.1634  0.0911  0.0471
 2799W        W 6850   5.082   6.801  13.995 -0.0168  0.1278 -0.0108
 2800W        W 6851   0.899   2.117   2.551 -0.1380 -0.4060  0.1503
 2801W        W 6852   1.000   0.758  10.683  0.2522  0.0118 -0.0001
 2802W        W 6853   9.494   9.899  12.870 -0.1757  0.0145  0.1546
 2803W        W 6854   2.810   0.546  11.980 -0.0179 -0.1255  0.1560
 2804W        W 6855   2.642   7.223   3.449  0.0652  0.1884 -0.1023
 2805W        W 6856   1.641   1.006   1.676 -0.1357  0.0138  0.0046
 2806W        W 6857   2.268   0.458   1.607 -0.1048  0.0925 -0.1869
 2807W        W 6858   6.506   6.196   1.373  0.0508  0.0990  0.3440
 2808W        W 6859   2.812   0.395   1.289  0.2424  0.1617 -0.1260
 2809W        W 6860   8.531   7.294   4.591 -0.0451 -0.2025  0.1505
 2810W        W 6861   4.418   8.326   2.521  0.0295 -0.3105  0.1792
 2811W        W 6862   9.622   0.796  12.366 -0.1511  0.0030  0.3696
 2812W        W 6863   9.577   8.178   2.725 -0.3392  0.2554 -0.2153
 2813W        W 6864   3.849   0.430   2.407  0.0311  0.0988 -0.0262
 2814W        W 6865   5.974   3.444   3.512  0.1360 -0.0394  0.2579
 2815W        W 6866   6.216   2.664   2.343  0.0895 -0.3601 -0.0102
 2816W        W 6867   2.295   4.450  12.515  0.1366  0.0418 -0.1078
 2817W        W 6868   5.416   1.917  11.849 -0.2840 -0.3446  0.1098
 2818W        W 6869   0.970   3.295  10.618 -0.2850  0.1003  0.1618
 2819W        W 6870   7.227   9.628   1.004  0.0879 -0.3231 -0.0347
 2820W        W 6871   8.618   3.330   4.624 -0.1778 -0.1291 -0.1189
 2821W        W 6872   9.504   5.319   1.671  0.4269  0.1423  0.0471
 2822W        W 6873   3.624   9.013  11.569 -0.1356 -0.0195 -0.1973
 2823W        W 6874   3.258   6.725   1.050  0.0251  0.2864 -0.1457
 2824W        W 6875   6.645   9.471  11.417 -0.1370 -0.0483 -0.0459
 2825W        W 6876   3.292   0.848   0.796 -0.3574  0.1537  0.1790
 2826W        W 6877   5.392   9.697   2.356 -0.1797  0.3338 -0.0821
 2827W        W 6878   6.539   9.714  11.915 -0.0648  0.1701 -0.1925
 2828W        W 6879   2.438   5.713   0.906  0.0419  0.0294  0.0063
 2829W        W 6880   6.498   4.807  11.036 -0.0876 -0.2682  0.1009
 2830W        W 6881   3.730   1.507   2.309  0.0744  0.3978  0.5761
 2831W        W 6882   0.582   2.746  12.232 -0.1349  0.4064  0.4067
 2832W        W 6883   2.779   2.814  13.874  0.0704 -0.0378  0.0076
 2833W        W 6884   4.043   5.642   5.415  0.2245  0.2011  0.0224
 2834W        W 6885   0.930   5.460  12.173 -0.0919 -0.2189  0.1103
 2835W        W 6886   7.452   8.269   5.638  0.2330 -0.0758 -0.2347
 2836W        W 6887   6.211   3.743   9.020  0.3430  0.1730  0.0223
 2837W        W 6888   7.549   8.440  13.364  0.0677  0.3294 -0.0620
 2838W        W 6889   8.648   7.521  13.645  0.0138 -0.1084  0.0094
 2839W        W 6890   1.149   1.010  13.287  0.1521 -0.1313 -0.1028
 2840W        W 6891   3.645   7.255   1.712  0.1094 -0.1036 -0.1021
 2841W        W 6892   5.222   7.938  12.617  0.1328  0.2077  0.0822
 2842W        W 6893  10.077   4.867   4.751  0.0755 -0.1503  0.1190
 2843W        W 6894   2.310   2.800  12.528 -0.2607 -0.0783 -0.1188
 2844W        W 6895   4.673   9.422   1.106 -0.1715  0.1341  0.0023
 2845W        W 6896   2.144   7.798   0.969  0.1807  0.0775  0.0746
 2846W        W 6897   3.173   8.276  12.026  0.1750  0.2469 -0.5179
 2847W        W 6898   6.989   2.953   0.962  0.1561 -0.1847 -0.0537
 2848W        W 6899   7.088   3.882   5.337  0.1410 -0.3309 -0.1088
 2849W        W 6900   3.236   0.793  12.068 -0.2672 -0.1058 -0.2820
 2850W        W 6901   9.552   9.573   1.184  0.0012  0.0499  0.1440
 2851W        W 6902   2.844   1.644   1.301 -0.0550  0.1758 -0.0043
 2852W        W 6903   8.349   5.818   3.656 -0.0728 -0.2064  0.0745
 2853W        W 6904   0.893   1.629   3.721 -0.1748 -0.1853  0.0044
 2854W        W 6905   5.629   9.442   3.307 -0.2619 -0.1774  0.1343
 2855W        W 6906   2.154   1.870  13.681  0.2288  0.1163 -0.1096
 2856W        W 6907   7.454   8.372   2.181 -0.0133  0.1799  0.1645
 2857W        W 6908   0.561   3.076   8.736 -0.1292  0.0798  0.0865
 2858W        W 6909   8.799   3.492   5.549  0.0924 -0.0900 -0.3912
 2859W        W 6910   6.411   7.487   0.685  0.0394  0.2158 -0.2137
 2860W        W 6911   2.693   1.070  13.634 -0.1618 -0.1542  0.2213
 2861W        W 6912   3.551   6.383  13.013  0.1496 -0.0945  0.0039
 2862W        W 6913   7.414   4.978  11.794 -0.1390 -0.1225  0.0119
 2863W        W 6914   7.292   6.674  11.196  0.3726 -0.1608 -0.0108
 2864W        W 6915   9.145   3.185   1.931 -0.2692 -0.3031 -0.0487
 2865W        W 6916   8.598   9.643   9.016  0.2589 -0.2347  0.2015
 2866W        W 6917   4.270   1.936   0.261 -0.1602 -0.1471  0.2059
 2867W        W 6918   4.709   2.340   3.054 -0.2439 -0.1659  0.1969
 2868W        W 6919   8.390   6.019   4.798  0.0390  0.0248  0.1388
 2869W        W 6920   6.170   2.788   1.375  0.0766  0.2466  0.0547
 2870W        W 6921   9.433   5.239   8.449  0.2640 -0.1934 -0.3915
 2871W        W 6922   4.805   5.074   3.797  0.0944 -0.0264  0.3069
 2872W        W 6923   2.664   0.268   6.779  0.0968  0.0943  0.1344
 2873W        W 6924   6.737   2.048   0.420 -0.2368  0.3268 -0.0837
 2874W        W 6925   8.263   8.333   3.087 -0.1962 -0.1715  0.1549
 2875W        W 6926   9.059   0.540   9.855 -0.3877 -0.1582  0.1401
 2876W        W 6927   5.957   7.684  13.295 -0.3155  0.0785 -0.0913
 2877W        W 6928   8.249   0.213   2.565  0.0060  0.1355  0.0590
 2878W        W 6929   4.022   9.370  13.834  0.4503 -0.1869 -0.4065
 2879W        W 6930   3.101   2.914   4.748 -0.0206  0.0708 -0.1742
 2880W        W 6931   7.752   5.535  13.184  0.3094 -0.1787 -0.0900
 2881W        W 6932   4.066   9.786   3.125 -0.2387 -0.1121  0.0886
 2882W        W 6933   5.554   4.087   0.574 -0.1375  0.0664  0.6259
 2883W        W 6934   2.816   2.621  13.358 -0.0754  0.3650 -0.0211
 2884W        W 6935   6.832   4.061  10.553 -0.0142  0.4738 -0.2333
 2885W        W 6936   1.578   7.039  12.990 -0.1339 -0.2045 -0.0847
 2886W        W 6937   3.518   6.370   2.754  0.2454 -0.1517 -0.0196
 2887W        W 6938   0.912   1.446  11.283  0.0370 -0.1376  0.2043
 2888W        W 6939   1.095   4.709   3.038 -0.1638  0.0241 -0.0123
 2889W        W 6940   0.106   7.296  10.905  0.1040 -0.0381 -0.1108
 2890W        W 6941   6.130   5.930   1.291  0.1527  0.2008  0.1174
 2891W        W 6942   4.705   0.073   2.458  0.0461 -0.1539  0.2059
 2892W        W 6943   3.617   4.595   2.843 -0.0716 -0.0662 -0.3392
 2893W        W 6944   0.214   5.296  10.534 -0.2020 -0.1697  0.0458
 2894W        W 6945   5.423   3.573  11.638  0.0500 -0.0383  0.0167
 2895W        W 6946   0.594   6.450   1.223 -0.3425  0.0925  0.0787
 2896W        W 6947   9.974   2.801   2.259 -0.1354 -0.1611  0.3746
 2897W        W 6948   7.742   6.888  12.474 -0.0493 -0.1900  0.1509
 2898W        W 6949   7.186   1.292   4.231 -0.0622 -0.0234  0.0028
 2899W        W 6950   2.414   9.671   0.113 -0.1018 -0.1798 -0.3819
 2900W        W 6951   4.069   1.397  11.932 -0.2449  0.1735 -0.1114
 2901W        W 6952   2.258   9.185  12.379  0.0711 -0.0373  0.0659
 2902W        W 6953   7.528   0.569   0.450 -0.0113  0.2502  0.0780
 2903W        W 6954   6.082   4.247   0.513  0.0313 -0.2427  0.0825
 2904W        W 6955   4.696   4.980   4.476 -0.0363  0.0154  0.0899
 2905W        W 6956   2.548   5.762  13.419  0.0890  0.0066  0.1240
 2906W        W 6957   5.967   2.643   3.430 -0.1281  0.0743 -0.0027
 2907W        W 6958   0.461   9.632   1.849  0.0082  0.0283  0.1296
 2908W        W 6959   5.125   0.955   2.425  0.3141 -0.0717  0.1213
 2909W        W 6960   4.118   2.350   0.562  0.1095  0.0599 -0.0515
 2910W        W 6961   5.193   7.479   1.218 -0.1400 -0.0617 -0.0350
 2911W        W 6962   0.930   9.628  12.666  0.0227  0.0244 -0.1682
 2912W        W 6963   6.218   3.031   9.766 -0.1338 -0.3074  0.0406
 2913W        W 6964   5.527   3.607  10.092 -0.1601 -0.1420  0.1058
 2914W        W 6965   6.484   7.612  11.917 -0.1554 -0.2621  0.3219
 2915W        W 6966   5.045   5.226  10.973  0.0058  0.3498 -0.1014
 2916W        W 6967   3.703   4.942  13.623 -0.1534  0.0487  0.0191
 2917W        W 6968   8.089   0.587   9.815  0.1355 -0.0193 -0.0569
 2918W        W 6969   6.874   9.098   3.066  0.0290  0.1706  0.1224
 2919W        W 6970   0.611   2.877  13.997  0.0959 -0.0609  0.1097
 2920W        W 6971   1.986   3.804  11.813 -0.0440 -0.1185 -0.0060
 2921W        W 6972   5.790   2.378  12.414 -0.2288 -0.0120 -0.1762
 2922W        W 6973   4.348   4.732   8.464 -0.0253  0.1399  0.0971
 2923W        W 6974   1.910  10.026   0.252  0.0913  0.3006 -0.1564
 2924W        W 6975  10.140   6.080   4.076 -0.0115 -0.2812 -0.0214
 2925W        W 6976   4.118   9.664  10.915  0.1052 -0.1385 -0.1473
 2926W        W 6977   6.797   5.551   1.975  0.0840 -0.2156  0.1949
 2927W        W 6978   1.780   7.577   1.886  0.0096 -0.1234  0.2127
 2928W        W 6979   6.910   7.349  13.186 -0.2166 -0.1713 -0.1390
 2929W        W 6980   9.043   7.503   2.887 -0.0680  0.0840 -0.1412
 2930W        W 6981   0.032   3.510   9.204  0.1498 -0.0069 -0.0314
 2931W        W 6982   2.351   4.809   0.422  0.1518  0.0909  0.0537
 2932W        W 6983   5.619   5.181   9.624  0.1236  0.0602 -0.0071
 2933W        W 6984   8.577   5.703   9.074 -0.2191  0.0920 -0.3023
 2934W        W 6985   5.405  10.018   1.128  0.1483  0.3818 -0.1712
 2935W        W 6986   5.516   1.325   1.682 -0.0906  0.0510  0.0471
 2936W        W 6987   0.231   4.108   1.108  0.1963  0.0502  0.0122
 2937W        W 6988   5.734   4.077  12.417  0.6230  0.3264 -0.0957
 2938W        W 6989   5.683   5.062  10.402 -0.1147 -0.2690 -0.0061
 2939W        W 6990   4.786   0.127   3.866 -0.1191 -0.0251 -0.0275
 2940W        W 6991   7.748   4.717   0.468 -0.1995 -0.2873 -0.1517
 2941W        W 6992   5.931   5.017   4.645  0.2708 -0.2479 -0.1734
 2942W        W 6993   6.872   9.923  11.587 -0.0445  0.1695 -0.1098
 2943W        W 6994   5.670   9.351  11.872  0.3062 -0.0489 -0.0393
 2944W        W 6995   2.278   5.835  11.642 -0.0044 -0.4187  0.2246
 2945W        W 6996   1.453   2.407   0.088  0.2154  0.2059 -0.1460
 2946W        W 6997   6.914   8.982  10.423 -0.1403 -0.0594  0.0244
 2947W        W 6998   7.008  10.001  12.587  0.1866  0.1310 -0.1882
 2948W        W 6999   7.105   9.343   3.681  0.0566 -0.2852  0.2451
 2949W        W 7000   4.354   3.515  12.609  0.0216 -0.0183  0.1717
 2950W        W 7001   2.380   1.713   0.339 -0.0734  0.0396 -0.3101
 2951W        W 7002   9.598   4.186   3.440 -0.2822 -0.2030 -0.1607
 2952W        W 7003   2.949   3.004  11.303  0.1943  0.0024  0.0470
 2953W        W 7004   1.136   4.596   4.236 -0.3087 -0.0295  0.1313
 2954W        W 7005   6.859   2.853   4.353  0.2231 -0.2138  0.0768
 2955W        W 7006   1.273   6.591   4.459 -0.1865 -0.1400  0.3004
 2956W        W 7007   1.743   0.065  10.890  0.1369  0.1829  0.3290
 2957W        W 7008  10.023   9.378   1.161  0.0428 -0.3250 -0.0558
 2958W        W 7009   6.624   3.156  12.594 -0.2723  0.1545  0.1287
 2959W        W 7010   9.985   2.152   2.793 -0.1778  0.0045  0.1017
 2960W        W 7011   4.975   9.081   5.265 -0.2694 -0.1425 -0.2234
 2961W        W 7012   6.890   5.921   1.348  0.2238  0.1308 -0.1555
 2962W        W 7013   2.248   3.103  10.666  0.0717  0.1774 -0.0968
 2963W        W 7014   9.748   0.049  11.158  0.2196  0.1603  0.1709
 2964W        W 7015   0.198  10.038   1.666 -0.0441  0.0679 -0.1765
 2965W        W 7016   7.204   8.126   0.704 -0.0432  0.1858 -0.0363
 2966W        W 7017   8.493   4.880   2.003  0.1761 -0.1724 -0.3336
 2967W        W 7018   6.543   6.849   9.841 -0.2072 -0.0482  0.0632
 2968W        W 7019   5.968   7.321   3.992  0.2144  0.2157  0.0280
 2969W        W 7020   3.952   2.520  10.474  0.0129 -0.0441 -0.0594
 2970W        W 7021   9.968   0.173  14.047  0.1327 -0.2802 -0.4302
 2971W        W 7022   7.265   1.983  13.018  0.1602 -0.4891 -0.1678
 2972W        W 7023   0.773   8.627  10.080  0.0886  0.0668  0.2189
 2973W        W 7024   4.494   3.822  13.019 -0.2121 -0.2412  0.0659
 2974W        W 7025   1.062   2.461   4.192  0.2859  0.4006 -0.1309
 2975W        W 7026   3.511   6.640  10.139  0.0952  0.0285 -0.0547
 2976W        W 7027   2.133   3.543   0.476  0.0455 -0.0874  0.2401
 2977W        W 7028   1.381   8.480   1.123  0.1606 -0.0349 -0.3711
 2978W        W 7029   2.258   7.488  13.356 -0.1243  0.0489 -0.0859
 2979W        W 7030   6.529   5.129   0.728 -0.0682  0.0204 -0.0231
 2980W        W 7031   0.308   4.298   0.443 -0.3989  0.1319  0.1118
 2981W        W 7032   7.972   8.720  13.700 -0.0898 -0.1156 -0.2294
 2982W        W 7033   8.990   7.074   5.529 -0.0671 -0.1449  0.1108
 2983W        W 7034   6.155   1.957   2.254 -0.1809 -0.0129 -0.0558
 2984W        W 7035   2.282   5.940   4.217  0.2305  0.0536  0.1104
 2985W        W 7036   6.450   1.118  11.746 -0.1019 -0.1164 -0.0506
 2986W        W 7037   6.473   6.535  13.356 -0.1851  0.1853 -0.0653
 2987W        W 7038   2.967   8.282   3.270 -0.3394 -0.1540 -0.2243
 2988W        W 7039   6.949   6.680   4.804  0.1065 -0.3607 -0.2491
 2989W        W 7040   8.815   4.623  11.555  0.4169  0.2580 -0.1117
 2990W        W 7041   8.899   0.350   9.429  0.0339 -0.0712 -0.1028
 2991W        W 7042   2.270   0.025   1.374 -0.0530 -0.1807 -0.2729
 2992W        W 7043   6.965   8.763  11.537 -0.1657 -0.0252  0.1923
 2993W        W 7044   1.655   7.925   1.035 -0.0232  0.2047  0.1339
 2994W        W 7045   6.090   6.885  13.546 -0.1878 -0.1646  0.0009
 2995W        W 7046   4.832   1.717  11.116  0.2110  0.2549  0.1517
 2996W        W 7047   9.596   5.874   0.595  0.0864 -0.0855 -0.0812
 2997W        W 7048   5.599  10.001   5.086 -0.1336  0.2813 -0.0998
 2998W        W 7049   1.289   2.483  11.552 -0.0779 -0.0401  0.1875
 2999W        W 7050   6.563   9.452  13.327 -0.1823 -0.0187 -0.4114
 3000W        W 7051   3.201   2.606  13.010 -0.0611  0.0077 -0.0801
 3001W        W 7052   3.989   0.880   9.706 -0.2297  0.2203  0.1799
 3002W        W 7053   7.382   1.536  11.325 -0.1850  0.0091 -0.0880
 3003W        W 7054   7.180   4.147   3.107  0.0812 -0.1484  0.0192
 3004W        W 7055   3.407   7.250  10.563  0.0654 -0.0346 -0.0667
 3005W        W 7056   4.422   4.854   4.037  0.0948 -0.0829  0.2541
 3006W        W 7057   4.406   8.591   1.317 -0.4941 -0.0524  0.2939
 3007W        W 7058   3.690   7.882   3.152  0.1135  0.2302  0.1487
 3008W        W 7059   1.572   4.203   0.509 -0.2320  0.1784 -0.2481
 3009W        W 7060   7.902   7.445   2.700  0.2547  0.0102 -0.0518
 3010W        W 7061   1.531   6.589  13.253  0.0090 -0.1431 -0.1231
 3011W        W 7062   7.439  10.137  11.770  0.2420 -0.2336 -0.3169
 3012W        W 7063   0.227   6.491  11.446  0.2756  0.0045 -0.3470
 3013W        W 7064   8.120   8.418  13.274  0.2378  0.0390 -0.2130
 3014W        W 7065   7.288   3.137  13.624 -0.1952  0.1398  0.1480
 3015W        W 7066   3.401   4.918   4.638 -0.2717  0.0453 -0.2376
 3016W        W 7067   2.157   6.596  13.906 -0.0963  0.0325  0.2939
 3017W        W 7068   9.065   3.400   2.395  0.2198  0.1653  0.2646
 3018W        W 7069   6.701   3.851   4.084 -0.1301  0.0624  0.0940
 3019W        W 7070   5.440   6.202  13.758  0.2674 -0.0779  0.0411
 3020W        W 7071   9.241   4.044   1.590  0.1159  0.1775  0.1663
 3021W        W 7072   5.304   2.437   1.304 -0.1458 -0.0110 -0.4455
 3022W        W 7073   4.062   3.654   9.798  0.1090  0.1318 -0.1019
 3023W        W 7074   6.005   7.263   0.115 -0.1071 -0.0154 -0.4024
 3024W        W 7075   1.492   8.342   1.650  0.1541 -0.0330  0.3750
 3025W        W 7076   8.059   8.505   4.130 -0.3009  0.0902 -0.2510
 3026W        W 7077   0.433   5.609  13.692  0.0223  0.0228  0.0656
 3027W        W 7078   4.435   6.134   3.495  0.0030  0.1844 -0.1897
 3028W        W 7079   7.285   4.948   0.372 -0.0217  0.1078 -0.2129
 3029W        W 7080   0.760   1.801  13.597 -0.1151  0.2125 -0.1048
 3030W        W 7081   8.353   8.884   3.857 -0.2294  0.0314 -0.0239
 3031W        W 7082   0.385   6.894   2.886  0.3278 -0.0529 -0.0688
 3032W        W 7083   6.263   0.390  13.740 -0.0885  0.1293  0.0609
 3033W        W 7084   7.847   1.609  11.208 -0.4605  0.1284 -0.3023
 3034W        W 7085   9.037   7.003  10.368 -0.2060 -0.0029 -0.2109
 3035W        W 7086   8.659   3.741  10.713  0.0169 -0.1348  0.1776
 3036W        W 7087   6.733   3.135   9.120 -0.2119 -0.0712  0.1410
 3037W        W 7088   3.931   6.372  11.408  0.1477  0.1202 -0.0915
 3038W        W 7089   6.715   3.045  10.738 -0.0847  0.0293 -0.1526
 3039W        W 7090   0.679  10.068  12.221 -0.0761  0.0574  0.3896
 3040W        W 7091   0.465   9.478  10.495  0.0544 -0.0459 -0.1182
 3041W        W 7092   8.214   5.281   3.780 -0.2054 -0.0947  0.0635
 3042W        W 7093   6.366   5.159  12.870 -0.1028  0.0039  0.2617
 3043W        W 7094   7.361   5.114  13.052  0.4870  0.0927 -0.2414
 3044W        W 7095   2.509   1.989   3.281 -0.0239  0.3438 -0.1109
 3045W        W 7096   6.520   2.147   9.780  0.3049 -0.0270 -0.0388
 3046W        W 7097   4.197   2.465  12.087 -0.4219 -0.0691 -0.0011
 3047W        W 7098   3.993   8.164   9.290 -0.0154 -0.0085 -0.0458
 3048W        W 7099   1.535   2.851  13.250 -0.0470 -0.1340 -0.0445
 3049W        W 7100   0.848   6.429  11.874 -0.0153 -0.0073 -0.1212
 3050W        W 7101   0.057   3.124   4.014 -0.1560  0.0454 -0.1649
 3051W        W 7102   8.667   1.296   9.314 -0.2215 -0.0715 -0.1555
 3052W        W 7103   4.277   9.421   0.270  0.0983 -0.3501  0.1145
 3053W        W 7104   1.815   2.584   9.011 -0.0843  0.0109  0.0187
 3054W        W 7105   6.952   1.262  11.519 -0.0363 -0.0750 -0.1432
 3055W        W 7106   6.445   1.170  13.631 -0.2664  0.1605  0.1351
 3056W        W 7107   8.462   9.547  10.483  0.0519 -0.2103 -0.1680
 3057W        W 7108   3.242   7.641  11.877  0.0658  0.1861  0.2036
 3058W        W 7109   1.913   5.178   0.547  0.1561  0.2386 -0.2215
 3059W        W 7110   7.458   3.443  13.222  0.0910 -0.0264  0.1683
 3060W        W 7111   3.388   8.979   2.386 -0.0324  0.0453  0.0882
 3061W        W 7112   8.783   9.763   3.678 -0.0164 -0.1976 -0.0937
 3062W        W 7113   9.111   4.444   4.352  0.0608 -0.0976 -0.0268
 3063W        W 7114   6.165   3.664  13.820 -0.0374 -0.2574 -0.2918
 3064W        W 7115   9.276   7.097  13.617  0.1688  0.0916 -0.0293
 3065W        W 7116   6.340   9.934  11.463  0.0162  0.0464 -0.2130
 3066W        W 7117   3.782   6.035  11.816  0.1954 -0.2023  0.1073
 3067W        W 7118   6.460   0.491  10.824  0.1302  0.0371 -0.0270
 3068W        W 7119   5.505   4.057  10.799 -0.2333 -0.1917 -0.1944
 3069W        W 7120   4.662   2.967   2.801 -0.1232 -0.4919 -0.0680
 3070W        W 7121   9.297   8.085  13.018 -0.2147  0.2486 -0.0973
 3071W        W 7122   9.689  10.155   0.363  0.1935  0.2164 -0.1366
 3072W        W 7123   5.157   8.268  12.271 -0.1289  0.3181  0.0782
 3073W        W 7124   9.547   5.371   0.448  0.0704  0.0272 -0.1212
 3074W        W 7125   8.033   3.949  10.632 -0.2420  0.0544 -0.1583
 3075W        W 7126   4.868   7.798   1.384  0.1802  0.1767  0.1699
 3076W        W 7127   0.728   2.455   9.720  0.0944  0.0814  0.0783
 3077W        W 7128   8.150   1.817   5.260 -0.0331  0.2550 -0.0726
 3078W        W 7129   5.551   1.075   3.072  0.1029  0.0517  0.0880
 3079W        W 7130   0.561   9.553   0.437  0.0945 -0.0990 -0.1904
 3080W        W 7131   2.261   3.894   0.074  0.0520 -0.0410 -0.3329
 3081W        W 7132   9.335   2.029   1.018 -0.0984  0.0113  0.2916
 3082W        W 7133   2.480   5.007  11.809 -0.0554 -0.3301 -0.1158
 3083W        W 7134   2.136   7.521  10.225 -0.2435 -0.1101 -0.0940
 3084W        W 7135   6.278   7.626   0.186 -0.0143  0.0869 -0.3004
 3085W        W 7136   7.787   6.336   1.319  0.1787  0.0613 -0.1750
 3086W        W 7137   2.956   1.364  12.524  0.1307 -0.3075 -0.0222
 3087W        W 7138   5.204   1.272   4.472  0.1863  0.3220 -0.2009
 3088W        W 7139   4.530   3.412   9.686 -0.1223 -0.1135  0.0669
 3089W        W 7140   2.809   7.565  11.079 -0.0202 -0.0122 -0.0359
 3090W        W 7141   3.180   4.926  12.752  0.3766 -0.1185  0.1536
 3091W        W 7142   9.237   7.197  11.534 -0.0749 -0.1779 -0.0204
 3092W        W 7143   5.296   6.082   0.711  0.2262  0.1108  0.6740
 3093W        W 7144   2.482   2.760   0.641  0.0314 -0.1923 -0.0343
 3094W        W 7145   4.859   1.335   0.196  0.0934  0.1331 -0.0207
 3095W        W 7146   8.678   3.337  10.972  0.0675 -0.3267  0.2065
 3096W        W 7147   7.398   8.715   1.636 -0.3135 -0.0156 -0.1450
 3097W        W 7148   7.303   4.585   0.032  0.0080  0.1140 -0.2613
 3098W        W 7149   4.644   9.847   4.019 -0.3505  0.2282 -0.0710
 3099W        W 7150   2.263   2.509  13.076 -0.1076 -0.4169  0.0104
 3100W        W 7151   4.899   3.996  10.845  0.0329  0.0289 -0.1034
 3101W        W 7152   3.599   7.112  10.059 -0.0323 -0.1365  0.0274
 3102W        W 7153   7.705   5.859   1.475 -0.2284 -0.0116  0.1806
 3103W        W 7154   9.899   3.474   1.694 -0.0961  0.0989 -0.0699
 3104W        W 7155   4.411   5.540   1.423 -0.2726  0.0957 -0.0047
 3105W        W 7156   9.233   2.238  11.462 -0.0604 -0.5124 -0.1596
 3106W        W 7157   2.246   4.276   1.620 -0.1856  0.2584 -0.2207
 3107W        W 7158   1.002   9.478  11.692 -0.0132 -0.2913 -0.1512
 3108W        W 7159   7.664   9.021  10.139  0.1724 -0.1113  0.0703
 3109W        W 7160   8.399   7.520   1.434  0.0470  0.1965 -0.0934
 3110W        W 7161   5.354   9.285  10.739 -0.0587  0.2298  0.0790
 3111W        W 7162   4.153   2.454  11.448  0.0965  0.0479 -0.2947
 3112W        W 7163   8.251   1.793   9.981  0.1139 -0.1758 -0.1463
 3113W        W 7164   9.345   7.529   1.541 -0.0152 -0.0961  0.0412
 3114W        W 7165   9.685   1.848  11.219  0.0787 -0.0778  0.1675
 3115W        W 7166   3.698   2.636  13.904  0.5245  0.3092 -0.1466
 3116W        W 7167   0.779   3.710   1.384 -0.0257 -0.3071 -0.1467
 3117W        W 7168   5.166   3.195  11.373  0.1530 -0.0355 -0.0093
 3118W        W 7169   1.898   4.596  10.489  0.1472 -0.1793 -0.0473
 3119W        W 7170   6.552   3.191   0.490 -0.3411  0.0886 -0.0273
 3120W        W 7171   3.071   9.552  12.438  0.0791 -0.0786 -0.0096
 3121W        W 7172   3.533   7.578  11.483 -0.3959 -0.2645 -0.2744
 3122W        W 7173   0.696   4.096  12.332 -0.2292 -0.0885  0.0290
 3123W        W 7174   7.787   3.154  11.983  0.0156  0.1278 -0.5347
 3124W        W 7175   6.663   7.312  10.082  0.1203 -0.0057 -0.0210
 3125W        W 7176   4.931   9.203  10.438 -0.0960  0.0956 -0.0721
 3126W        W 7177   1.445   7.865  14.042 -0.0501 -0.2873  0.1288
 3127W        W 7178   8.384   8.026  12.870  0.4102  0.2552  0.1735
 3128W        W 7179   1.283  10.158   2.868  0.1208 -0.0789 -0.3034
 3129W        W 7180   9.602   8.632   0.107  0.0264  0.0452  0.3840
 3130W        W 7181   8.526   1.899  13.248 -0.1133 -0.0850  0.3318
 3131W        W 7182   4.910   5.691   0.793 -0.1139  0.0220 -0.0931
 3132W        W 7183   1.961   8.069  10.410  0.1350 -0.0058  0.0054
 3133W        W 7184   1.135   0.237   3.534 -0.1271 -0.1160 -0.0131
 3134W        W 7185   3.752   2.960   3.243 -0.0123 -0.2336 -0.1899
 3135W        W 7186   0.647   3.228  12.339  0.0841  0.1176 -0.3366
 3136W        W 7187   7.375   4.081  11.387 -0.0980 -0.1884  0.0062
 3137W        W 7188   8.164   6.653   9.266 -0.2711  0.0129 -0.2248
 3138W        W 7189   1.171   8.252   2.885  0.0903  0.0128  0.0551
 3139W        W 7190   2.841   2.845   3.736  0.2354  0.0017  0.1176
 3140W        W 7191   3.670   6.172   2.347  0.1884 -0.3148 -0.5392
 3141W        W 7192   3.702   7.867   2.633 -0.1123  0.1227 -0.1128
 3142W        W 7193   2.702   4.631  11.479  0.1541  0.3350  0.3772
 3143W        W 7194   6.977   3.519   9.419  0.1896 -0.0097  0.0365
 3144W        W 7195   9.036   9.527  10.704 -0.0035  0.2405  0.1117
 3145W        W 7196   7.781   3.815  11.505  0.1286  0.2357 -0.1590
 3146W        W 7197   4.007   1.219   9.348  0.2863  0.0028 -0.0704
 3147W        W 7198   7.922   0.693  12.416  0.1151 -0.2653 -0.1542
 3148W        W 7199   3.370   6.712  10.699  0.0308 -0.2436  0.0371
 3149W        W 7200   1.875   8.494   1.334  0.1425 -0.0574 -0.1771
 3150W        W 7201   8.536   7.008  12.801  0.0886 -0.2716 -0.1198
 3151W        W 7202   5.957   4.902   0.192  0.0254  0.2499 -0.0441
 3152W        W 7203   7.372   8.933  11.798 -0.1246  0.0422  0.0379
 3153W        W 7204   3.443   7.754   1.782  0.3021  0.0052 -0.3990
 3154W        W 7205   6.520   8.881  11.794 -0.1160  0.0175  0.1621
 3155W        W 7206   8.885   2.031   2.005 -0.0662 -0.0895 -0.1598
 3156W        W 7207   5.893   0.327   9.776  0.3503 -0.0209 -0.2809
 3157W        W 7208   7.915   5.088   0.908 -0.0435  0.1416 -0.1353
 3158W        W 7209   9.710   7.992   1.175  0.0701  0.2824 -0.1063
 3159W        W 7210   7.902   7.603  13.119 -0.1622 -0.0666  0.2113
 3160W        W 7211   0.748   3.315   0.650  0.3142  0.2488  0.0113
 3161W        W 7212   9.638   3.088  13.281  0.1587  0.2528 -0.2188
 3162W        W 7213   3.301   5.798   0.799  0.0289  0.1686 -0.0205
 3163W        W 7214   4.986   0.379  10.551 -0.2066 -0.0980 -0.1601
 3164W        W 7215   1.319   7.949  13.364  0.3490 -0.2400  0.0559
 3165W        W 7216   0.430   3.443   1.700  0.0004 -0.0269 -0.0590
 3166W        W 7217   1.075   8.041  13.803  0.0759 -0.1611  0.0108
 3167W        W 7218   9.172   1.756  10.960  0.0372 -0.0492  0.0451
 3168W        W 7219   4.077   6.642   0.162  0.0325 -0.3932 -0.2956
 3169W        W 7220   1.432   0.630  13.461 -0.1455  0.0571  0.3297
 3170W        W 7221   6.700   2.544  10.851  0.0417 -0.0320  0.1101
 3171W        W 7222   6.601   6.793   3.631  0.1925 -0.0476  0.0731
 3172W        W 7223   6.547   8.074   1.439  0.2781 -0.3623 -0.3342
 3173W        W 7224   7.325   9.619  11.805  0.0154 -0.4888  0.0199
 3174W        W 7225   9.418   8.075   1.558 -0.0506 -0.0701 -0.0108
 3175W        W 7226   9.814   5.019  11.920  0.1202 -0.1474  0.0883
 3176W        W 7227   2.424   1.474   1.852 -0.1016 -0.1152 -0.1064
 3177W        W 7228   9.560   1.957  12.997  0.0447 -0.1293  0.2405
 3178W        W 7229   1.107   0.821  12.045  0.0384  0.1593 -0.1901
 3179W        W 7230   8.031   2.544   2.759 -0.1353 -0.0766 -0.0155
 3180W        W 7231   9.346   2.910  12.059  0.2592 -0.2931  0.1511
 3181W        W 7232   8.534   4.078  10.373  0.6013 -0.1603  0.3018
 3182W        W 7233   9.589   5.038  10.383 -0.0880 -0.0183  0.2070
 3183W        W 7234   8.151   3.377   3.924 -0.4343  0.0412  0.0407
 3184W        W 7235   5.334   3.871   1.032  0.1788 -0.0539 -0.0228
 3185W        W 7236  10.103   8.378  13.254  0.2212  0.0111  0.3159
 3186W        W 7237   6.654   0.527   0.662 -0.0549  0.1943 -0.1733
 3187W        W 7238   6.419   7.142  11.183  0.0536  0.1358 -0.0277
 3188W        W 7239   5.058   5.330   0.503  0.0466  0.3705 -0.1555
 3189W        W 7240   5.744   2.866   9.561  0.0619 -0.1373 -0.1327
 3190W        W 7241   8.023   2.069  10.492  0.0986 -0.1158 -0.1416
 3191W        W 7242   9.024   6.340   5.326 -0.4610  0.0498  0.0063
 3192W        W 7243  10.055   4.496   4.313  0.1182 -0.0486 -0.3429
 3193W        W 7244   5.801   2.142   4.263  0.2189 -0.3945  0.0896
 3194W        W 7245   1.689   6.540   0.818  0.1779  0.2694  0.2356
 3195W        W 7246   6.079   8.977   0.362  0.2072  0.0452 -0.0927
 3196W        W 7247   7.026   3.586  13.578 -0.3299  0.2506 -0.2793
 3197W        W 7248   0.944   8.062  12.191 -0.2175 -0.0736 -0.1652
 3198W        W 7249   9.498   4.606  13.492  0.0423 -0.1586  0.1389
 3199W        W 7250   4.114   5.950   1.400  0.1913  0.2855  0.0225
 3200W        W 7251   5.711   7.391  12.325 -0.1334  0.1224  0.0340
 3201W        W 7252   2.330   6.725  12.497  0.0225 -0.2766 -0.1165
 3202W        W 7253   1.377   0.422  12.212 -0.1228 -0.0163  0.0316
 3203W        W 7254   3.897   1.891   3.283  0.1964  0.0674  0.1505
 3204W        W 7255   5.975   4.904   1.956 -0.1794 -0.0335  0.1203
 3205W        W 7256   5.458   2.137   2.625 -0.0785  0.1144 -0.1701
 3206W        W 7257   5.208   3.647   4.446  0.1406 -0.2903 -0.4794
 3207W        W 7258   2.507   3.316   4.622 -0.2375  0.3094 -0.0882
 3208W        W 7259   6.073   2.557  10.701  0.1844  0.2389 -0.0212
 3209W        W 7260   2.044   2.659   0.862 -0.1150 -0.1816 -0.4040
 3210W        W 7261   9.833   2.435   1.901  0.2174  0.0352  0.3708
 3211W        W 7262   6.435   8.313   3.200 -0.0601  0.1147  0.2913
 3212W        W 7263   7.102   5.153   9.897 -0.1122  0.4410  0.3122
 3213W        W 7264   2.660   3.362  13.738  0.4926  0.3694 -0.0282
 3214W        W 7265   2.568   8.606  11.598 -0.1036 -0.3817 -0.2557
 3215W        W 7266   5.556   6.115   5.971 -0.1748 -0.0185 -0.1703
 3216W        W 7267   0.240   7.854   3.152 -0.0231  0.2095  0.0523
 3217W        W 7268   4.526   6.238  13.718 -0.3499 -0.3580  0.0526
 3218W        W 7269   6.543   3.938   2.705  0.0643  0.0614  0.0382
 3219W        W 7270   6.665   1.416   3.252  0.0749  0.1582 -0.1176
 3220W        W 7271   6.542   4.290  11.074  0.2934  0.1173  0.0564
 3221W        W 7272   0.901   3.373   2.475  0.1195 -0.3822  0.1114
 3222W        W 7273   7.264   1.400  13.965 -0.1638 -0.0534  0.0819
 3223W        W 7274   2.101   9.193   3.761 -0.1908 -0.2849  0.1805
 3224W        W 7275   8.677   5.537   0.651  0.1707  0.1427 -0.1684
 3225W        W 7276   8.833   5.793   3.437 -0.3467 -0.1587 -0.0321
 3226W        W 7277   7.341   8.605  11.232 -0.1495 -0.0638 -0.2268
 3227W        W 7278   8.076   7.925   1.482  0.2112  0.4268 -0.0059
 3228W        W 7279   0.475   3.803  13.552  0.0458 -0.0921 -0.3049
 3229W        W 7280   5.250   2.990   1.270 -0.1388 -0.0511  0.1066
 3230W        W 7281   0.035   9.901   1.158  0.1948  0.1197  0.0057
 3231W        W 7282   7.019   0.206   4.329 -0.1211 -0.1704 -0.1129
 3232W        W 7283   9.918   4.775  12.368 -0.2564  0.2944 -0.1595
 3233W        W 7284   7.208   9.085  12.684 -0.3637  0.1406  0.2441
 3234W        W 7285   3.809   1.343   4.764  0.0480 -0.0111 -0.1274
 3235W        W 7286   3.995   4.359  10.927 -0.1247 -0.2772 -0.0737
 3236W        W 7287   2.547   1.373   0.005  0.0010  0.0486 -0.1625
 3237W        W 7288   7.601   2.432   9.765 -0.5298 -0.1197 -0.3366
 3238W        W 7289  10.109   1.104  10.763 -0.0845  0.0729  0.2301
 3239W        W 7290   0.759   4.950   4.382 -0.0168  0.0183 -0.1170
 3240W        W 7291   8.920   4.926  13.018 -0.1495 -0.2948  0.0114
 3241W        W 7292   1.532   4.969  12.918  0.1125  0.1365  0.0687
 3242W        W 7293   7.427   1.118   5.613 -0.2749 -0.0880 -0.2882
 3243W        W 7294   0.178   9.388  12.801 -0.0767  0.0918  0.3014
 3244W        W 7295   8.722   2.829   0.058 -0.1337  0.0799  0.2587
 3245W        W 7296   1.225   6.492  12.211  0.0360  0.1272 -0.0593
 3246W        W 7297   0.486   1.778  11.166  0.1764 -0.1348  0.2821
 3247W        W 7298   5.962   2.557  13.574 -0.1591  0.0426  0.0618
 3248W        W 7299   6.949   0.735   5.318 -0.1240  0.1334  0.0085
 3249W        W 7300   5.562   3.972   1.927  0.2209 -0.1737 -0.0030
 3250W        W 7301   0.420   8.122  13.128  0.2786  0.2855  0.3084
 3251W        W 7302   7.771   6.979   4.141 -0.2193  0.3685  0.2857
 3252W        W 7303   0.934   6.802   1.655  0.3156 -0.0175  0.2573
 3253W        W 7304   6.378   6.369   9.082 -0.2295 -0.1094 -0.0842
 3254W        W 7305   4.535   1.234  13.648 -0.1005 -0.0523  0.2614
 3255W        W 7306   1.196   3.115   0.660 -0.0758  0.0589 -0.2463
 3256W        W 7307  10.006   3.967   2.910 -0.1181  0.0389  0.0284
 3257W        W 7308   9.190   1.466   0.255  0.1697 -0.0231 -0.4885
 3258W        W 7309   8.825   9.003   4.606 -0.4345 -0.1332 -0.1221
 3259W        W 7310   4.683   0.204   1.389 -0.2165  0.0471  0.1791
 3260W        W 7311   0.850   4.083  12.879 -0.2122  0.1615  0.1418
 3261W        W 7312   2.624   9.403   1.644  0.3274 -0.3550 -0.2509
 3262W        W 7313   6.504   3.948  12.823 -0.0059 -0.1279 -0.0872
 3263W        W 7314   8.622   2.224   4.773 -0.1304 -0.4288  0.1381
 3264W        W 7315   9.916   8.186  10.991 -0.1017 -0.1798  0.0102
 3265W        W 7316   2.777   8.320   7.672  0.3931  0.2158 -0.1629
 3266W        W 7317   4.563   6.214   3.961  0.1138 -0.0290  0.1736
 3267W        W 7318   5.858  10.002   3.135  0.1988  0.2392 -0.0693
 3268W        W 7319   6.128   4.751  13.014 -0.0049 -0.1712  0.1227
 3269W        W 7320   1.878   4.254   3.856 -0.1951 -0.0622  0.2504
 3270W        W 7321   2.485   2.319   1.582 -0.0870 -0.0996  0.0164
 3271W        W 7322   4.339   0.947   4.841 -0.0840  0.0614 -0.1252
 3272W        W 7323   4.054   3.709   3.768 -0.0296  0.2293 -0.3381
 3273W        W 7324   6.103   4.813  11.902  0.4031  0.1615 -0.0851
 3274W        W 7325   6.480   4.740   4.447  0.3003  0.0505 -0.3645
 3275W        W 7326   6.947   3.115   2.648 -0.0176 -0.0724  0.1172
 3276W        W 7327   1.976   1.779  12.750  0.1972 -0.1803  0.1238
 3277W        W 7328   3.379   2.029   9.502 -0.3988 -0.0512  0.0213
 3278W        W 7329   9.835   5.924   0.092 -0.1059  0.0998 -0.1900
 3279W        W 7330   6.873   8.387   3.434  0.1083  0.1858  0.1550
 3280W        W 7331   2.012   0.308   0.642  0.0635 -0.3686  0.1528
 3281W        W 7332   2.024   6.562  10.355  0.1943  0.1348  0.0957
 3282W        W 7333   7.771   6.458   3.863 -0.2091  0.2542 -0.1352
 3283W        W 7334   4.706   3.206   3.792  0.4290 -0.0119 -0.2011
 3284W        W 7335   4.129   7.126   0.347  0.0191  0.1723 -0.2902
 3285W        W 7336   8.642   0.737   0.229  0.2239  0.2347 -0.2577
 3286W        W 7337   6.435   5.697  12.667 -0.1469  0.0216 -0.1177
 3287W        W 7338   0.759   1.860   3.317  0.0073  0.0224 -0.0178
 3288W        W 7339   9.355   9.280   1.739 -0.0298 -0.1105 -0.0072
 3289W        W 7340   0.697   6.571   0.690  0.1188 -0.2042 -0.0516
 3290W        W 7341   8.716   9.642   4.216  0.0687 -0.1344 -0.1293
 3291W        W 7342   3.511   4.637  11.533  0.0730 -0.0214  0.0849
 3292W        W 7343   2.293   9.041  11.534  0.0694 -0.1906 -0.2169
 3293W        W 7344   1.828   5.378   9.779 -0.1011 -0.2855 -0.0358
 3294W        W 7345   8.234   6.323   2.762 -0.0935  0.0399  0.0096
 3295W        W 7346   5.507   3.493   3.738  0.0381 -0.1302 -0.0402
 3296W        W 7347   2.891   8.837  13.220 -0.0661  0.4166 -0.3811
 3297W        W 7348   9.996   5.074   0.589  0.0024 -0.1377  0.0792
 3298W        W 7349   7.590   9.531   3.718 -0.1343  0.0849  0.0669
 3299W        W 7350   9.298   1.413   4.117  0.0684 -0.1562  0.1192
 3300W        W 7351   1.700   0.102   3.068  0.2939  0.0885  0.2512
 3301W        W 7352   9.817   3.316  12.597  0.2646 -0.0245 -0.1025
 3302W        W 7353   5.229   1.014  11.423 -0.0534  0.1530 -0.1882
 3303W        W 7354   4.898   2.989   0.911  0.0997 -0.1427 -0.3858
 3304W        W 7355   9.697   4.137  11.185 -0.0861 -0.2889  0.1377
 3305W        W 7356   9.113   3.889   2.844  0.1006  0.0037 -0.1908
 3306W        W 7357   9.308   5.491   3.356  0.3382  0.0619  0.0458
 3307W        W 7358   1.394   8.735   2.029  0.2329  0.2280 -0.1040
 3308W        W 7359   8.256  10.120  13.454 -0.0815  0.0426  0.1477
 3309W        W 7360   9.387   7.097  12.755 -0.0739  0.1410  0.3188
 3310W        W 7361   3.269   5.458  10.911  0.2869 -0.0249 -0.0495
 3311W        W 7362   1.889   8.295   0.748  0.1741  0.0909  0.3042
 3312W        W 7363   4.540   7.998   3.333 -0.0945 -0.1606 -0.1049
 3313W        W 7364   0.550   7.693   9.866  0.2467  0.2099  0.0629
 3314W        W 7365   8.732   3.751   2.432 -0.1179  0.1085  0.0255
 3315W        W 7366   4.839   1.055   3.253  0.0954 -0.5858  0.0199
 3316W        W 7367   0.448   8.746   1.575  0.2379 -0.0725 -0.2268
 3317W        W 7368   4.381   5.397   4.547  0.0436  0.0252  0.0950
 3318W        W 7369   9.222   1.786  10.127 -0.1559 -0.2885 -0.0253
 3319W        W 7370   9.296   2.036   1.694 -0.2590  0.1702 -0.1798
 3320W        W 7371   4.271   0.759  10.230 -0.0939  0.1718 -0.0420
 3321W        W 7372   3.542   8.642  11.923 -0.0078  0.1924  0.1561
 3322W        W 7373   4.808   2.711   0.338 -0.3842 -0.0684  0.0488
 3323W        W 7374   9.416   3.925  11.813 -0.1123 -0.3811 -0.0393
 3324W        W 7375   6.510   5.722  12.148  0.0148  0.0705 -0.0759
 3325W        W 7376   8.934   7.492  10.419  0.1532  0.4964  0.0123
 3326W        W 7377   0.197   4.517  10.454 -0.0656  0.1529 -0.0875
 3327W        W 7378   1.840   4.990   0.134  0.0423  0.3003  0.0167
 3328W        W 7379   7.490   0.441  11.420  0.3910  0.1846 -0.0289
 3329W        W 7380   8.169   5.678   1.779 -0.0569 -0.2163 -0.0986
 3330W        W 7381   5.151   8.060   2.881 -0.2248 -0.0650 -0.0545
 3331W        W 7382   6.801   0.389   4.924 -0.1143 -0.0026  0.0031
 3332W        W 7383   7.067   6.312   9.865  0.0333  0.0992 -0.2619
 3333W        W 7384   5.609   2.149  13.402  0.1157 -0.1570  0.3866
 3334W        W 7385   2.504   3.941  13.018 -0.1471  0.0866 -0.0469
 3335W        W 7386   2.720   6.245  11.150 -0.0968 -0.3745 -0.1744
 3336W        W 7387   6.386   0.459   2.735  0.2930 -0.3701 -0.2736
 3337W        W 7388   0.311   8.827   3.040 -0.0123  0.1851  0.0413
 3338W        W 7389   2.040   0.111  10.419 -0.2593 -0.2366 -0.0358
 3339W        W 7390   3.957   2.253   9.645 -0.0896 -0.1527  0.0624
 3340W        W 7391   7.367   5.136  11.297  0.3888  0.0964 -0.3029
 3341W        W 7392   8.300   8.968  12.698 -0.0401 -0.3080 -0.1957
 3342W        W 7393   1.015   4.463  12.618  0.0208  0.0808 -0.0552
 3343W        W 7394   8.501   7.879   3.898 -0.0308 -0.1446  0.0475
 3344W        W 7395   8.215   7.138   2.249 -0.0624  0.2333 -0.0792
 3345W        W 7396   7.102   7.195   1.422 -0.4904 -0.1334  0.0301
 3346W        W 7397   3.860   1.462  13.757 -0.1981  0.0329  0.0117
 3347W        W 7398   2.088   2.287   2.431 -0.1751  0.0668 -0.0414
 3348W        W 7399   3.421   2.627   2.266  0.1170  0.1748 -0.0256
 3349W        W 7400   7.334   0.213  12.260 -0.1150 -0.2717 -0.0398
 3350W        W 7401   3.535   2.881  10.353  0.4319 -0.1912 -0.0498
 3351W        W 7402   0.232   5.413   2.729  0.1540  0.0719 -0.2067
 3352W        W 7403   6.755   2.503  13.330  0.0042 -0.0422 -0.0476
 3353W        W 7404   4.164   9.368   2.285  0.0198 -0.0724  0.0398
 3354W        W 7405   7.857   5.716  11.985 -0.0762 -0.0092 -0.0763
 3355W        W 7406   3.466   1.778  13.651  0.2044 -0.0182  0.1329
 3356W        W 7407   8.193   2.086   0.813  0.2570 -0.0791 -0.1705
 3357W        W 7408   9.176   7.100   0.428 -0.1026 -0.0309 -0.0679
 3358W        W 7409   5.758   9.029  11.325 -0.2190 -0.1545 -0.0134
 3359W        W 7410   2.500   8.005   2.417 -0.1564  0.1496 -0.0389
 3360W        W 7411   0.157   4.218   3.349  0.3565 -0.2317  0.4042
 3361W        W 7412   8.718   9.198   4.000  0.3371  0.2157 -0.0915
 3362W        W 7413   0.484   7.585  11.066  0.1381  0.1643 -0.3566
 3363W        W 7414   2.817   7.511  13.012 -0.1275  0.0992 -0.3257
 3364W        W 7415   4.506   3.971   2.461  0.1817 -0.0689  0.1934
 3365W        W 7416   7.610   5.893  10.166 -0.0589 -0.2703 -0.0476
 3366W        W 7417   5.850   0.056   0.402  0.1747  0.1147 -0.2155
 3367W        W 7418   9.411   7.260  10.492  0.0555  0.2648 -0.0306
 3368W        W 7419   7.273   4.830   1.385  0.2208  0.1593  0.0395
 3369W        W 7420   9.371   0.259  12.663  0.1180  0.1688 -0.1027
 3370W        W 7421   1.898   5.274   2.764  0.0936 -0.0615  0.0355
 3371W        W 7422   8.850   7.317   0.079 -0.4121  0.2215 -0.0415
 3372W        W 7423   0.448   0.049  11.345  0.2663  0.0618  0.0812
 3373W        W 7424   3.307   1.066   4.028 -0.0318  0.0803 -0.1104
 3374W        W 7425   9.051  10.075   2.876 -0.3136 -0.2760 -0.0781
 3375W        W 7426   2.733   0.010  11.833 -0.0720  0.2527  0.0257
 3376W        W 7427   8.006   8.573   5.208  0.0254  0.0732  0.0536
 3377W        W 7428   1.301   2.039  13.733 -0.0631 -0.0740 -0.1452
 3378W        W 7429   2.277   2.971  13.913 -0.2626 -0.0860 -0.1596
 3379W        W 7430   0.351   3.674  12.160 -0.0735  0.0383 -0.0993
 3380W        W 7431   6.295  10.094   9.047  0.0774  0.5077 -0.1858
 3381W        W 7432   0.174   7.904  12.456 -0.1620  0.1784 -0.0452
 3382W        W 7433   1.770   7.046  10.374  0.2855 -0.0963 -0.0932
 3383W        W 7434   2.635   3.400  13.194  0.0836  0.1091 -0.3290
 3384W        W 7435  10.090   6.747  13.966  0.1854 -0.3680  0.0320
 3385W        W 7436   4.877   5.642   1.354  0.3546 -0.2476  0.1726
 3386W        W 7437   8.167   6.724   5.082 -0.1018 -0.0758  0.1782
 3387W        W 7438   6.337   4.151   3.865  0.0585  0.0273 -0.1086
 3388W        W 7439   2.123   4.162  13.257 -0.3527  0.0574  0.0446
 3389W        W 7440   9.153   6.938   9.132 -0.2938 -0.0316  0.4286
 3390W        W 7441   1.408   6.095   3.718  0.1159 -0.0877 -0.4503
 3391W        W 7442   7.547   5.384   1.419  0.0764 -0.1672  0.1223
 3392W        W 7443   9.422   7.857   3.527  0.0820  0.1053  0.0946
 3393W        W 7444   4.711   4.782  13.180  0.1739 -0.0614  0.0491
 3394W        W 7445   9.584   1.557   3.244  0.1733 -0.0346 -0.1197
 3395W        W 7446   1.065   9.165  11.194  0.0612 -0.0393  0.2025
 3396W        W 7447   4.403   3.785   1.258  0.0302  0.0349  0.2929
 3397W        W 7448   6.181   4.776   9.109  0.0063  0.2319 -0.1202
 3398W        W 7449   7.392   3.688   0.434 -0.0439 -0.0839  0.3907
 3399W        W 7450  10.051   4.668  13.652  0.2224 -0.1479  0.1930
 3400W        W 7451   3.089   2.761  10.073  0.1299  0.2413 -0.1616
 3401W        W 7452   2.922   7.175   2.315  0.0275 -0.1513 -0.1720
 3402W        W 7453   1.281   3.681   3.141  0.0464  0.0091  0.1487
 3403W        W 7454   8.485   4.305   5.343  0.3396 -0.0692 -0.1729
 3404W        W 7455   9.541   9.195   2.910 -0.1820 -0.1214  0.0079
 3405W        W 7456   7.827   3.501   5.353 -0.0389 -0.0560  0.0184
 3406W        W 7457   9.526   6.722   2.993 -0.1886 -0.1442  0.1739
 3407W        W 7458   0.579  10.035   1.299  0.1505 -0.1165 -0.0927
 3408W        W 7459   2.684   3.363   3.625  0.2001 -0.1879  0.0693
 3409W        W 7460   2.575   3.111  12.792 -0.2670  0.1033 -0.2656
 3410W        W 7461   0.438   9.226   4.013  0.1005 -0.0772 -0.2317
 3411W        W 7462   0.346   9.209  13.241 -0.0657 -0.1712 -0.2697
 3412W        W 7463   7.596   3.310   9.610  0.1071  0.1447  0.1386
 3413W        W 7464   7.397   1.448   4.735  0.1230 -0.0365 -0.3460
 3414W        W 7465   1.094   5.122   2.764 -0.2483 -0.0351 -0.3316
 3415W        W 7466   8.891   2.783  12.211 -0.1736 -0.1059  0.2252
 3416W        W 7467   7.349  10.115  11.261  0.0072 -0.2176  0.2132
 3417W        W 7468   0.083   1.527   1.018 -0.0311  0.0523  0.2267
 3418W        W 7469   8.733   1.706  10.138  0.1161  0.2736 -0.2500
 3419W        W 7470   4.222   2.793   3.184 -0.4713 -0.0249 -0.3123
 3420W        W 7471   2.512   0.573   3.087  0.0121  0.0062 -0.1105
 3421W        W 7472   1.504   2.860   9.886 -0.1473 -0.2186  0.2229
 3422W        W 7473   9.695   6.862  11.920 -0.0679  0.2184  0.1334
 3423W        W 7474   2.783   2.536  10.520 -0.4675 -0.3217 -0.0965
 3424W        W 7475   7.383   3.370   2.575  0.2412  0.3766 -0.0907
 3425W        W 7476   8.394   3.816  12.245  0.2173 -0.1338  0.1855
 3426W        W 7477   8.777   7.136  13.238 -0.0962 -0.1590 -0.1885
 3427W        W 7478   7.152   2.817  11.763 -0.0918 -0.1686 -0.0322
 3428W        W 7479   6.778   1.485  11.935  0.1321  0.2103  0.0438
 3429W        W 7480   6.204   9.957   5.047  0.1139 -0.3444 -0.4632
 3430W        W 7481   5.855   6.841   4.686  0.1173  0.0110  0.0067
 3431W        W 7482   0.488   2.363   4.088  0.1648 -0.2950  0.0462
 3432W        W 7483   8.050   1.814   4.424  0.1456 -0.0925 -0.0053
 3433W        W 7484   1.796   4.348   9.344 -0.2011 -0.3191 -0.1468
 3434W        W 7485   5.871   6.177  13.966  0.0446  0.0336  0.0934
 3435W        W 7486   7.898   6.525   0.845  0.3306  0.0921  0.0822
 3436W        W 7487   9.364   6.259  11.734 -0.0012  0.0426  0.1150
 3437W        W 7488   5.573   4.854  13.461 -0.0978 -0.2524  0.1847
 3438W        W 7489   3.747   8.725   3.175  0.0058  0.0521  0.3369
 3439W        W 7490   4.723   0.531  13.377 -0.1400  0.2261  0.0384
 3440W        W 7491   0.479   6.009  10.601 -0.2970  0.2356  0.0556
 3441W        W 7492   1.702   0.073  11.664  0.0788 -0.0912  0.1115
 3442W        W 7493   6.666   8.519  12.314  0.0165 -0.0275  0.0828
 3443W        W 7494   4.389   0.952   0.873  0.1961  0.3364  0.2548
 3444W        W 7495   9.913   2.387   0.902  0.0770 -0.1011 -0.1833
 3445W        W 7496   6.366   5.827  10.928  0.1489 -0.3063  0.0712
 3446W        W 7497   1.211   5.907   3.292  0.1381 -0.1998  0.1157
 3447W        W 7498   0.679   1.387  12.143 -0.2630  0.0432 -0.0317
 3448W        W 7499   9.908   9.373  14.028  0.2017 -0.2132  0.1015
 3449W        W 7500   2.544   8.456  13.041  0.3577 -0.2518 -0.1645
 3450W        W 7501   8.860   3.684  12.981 -0.1390  0.2581 -0.1864
 3451W        W 7502   7.125   4.082   4.288  0.4020  0.3570  0.0772
 3452W        W 7503   3.041   6.650  13.387 -0.1762  0.0250  0.0863
 3453W        W 7504   1.377   2.935   0.188  0.0021  0.1256  0.3467
 3454W        W 7505   8.240   8.157   4.531  0.2369 -0.1740  0.0050
 3455W        W 7506   8.764   5.373   3.179 -0.0010  0.2405  0.1115
 3456W        W 7507   6.492   0.583  11.767 -0.2968 -0.0956 -0.1757
 3457W        W 7508   0.436   9.056   0.585 -0.2348 -0.2682 -0.0680
 3458W        W 7509   0.666   8.576   4.221 -0.1837 -0.1652 -0.1055
 3459W        W 7510   9.747   8.483  11.384 -0.2077  0.0553  0.1978
 3460W        W 7511   6.167   3.156  11.508  0.4134  0.0684 -0.1293
 3461W        W 7512   8.144   4.653  13.548 -0.0177 -0.2568 -0.1596
 3462W        W 7513   3.091   2.389   4.153 -0.1056 -0.0659 -0.1707
 3463W        W 7514   4.210   8.739  10.698  0.0499 -0.0207  0.2470
 3464W        W 7515   9.374   2.224  10.776 -0.0479 -0.0777 -0.1749
 3465W        W 7516   9.875   7.587  12.241  0.3034 -0.4677 -0.5919
 3466W        W 7517   9.785   1.874   0.906 -0.0033 -0.0756  0.2584
 3467W        W 7518   0.055   0.234   1.258 -0.1902 -0.1132 -0.0650
 3468W        W 7519   4.560   6.559   0.098 -0.1027 -0.1471  0.0418
 3469W        W 7520   3.670   6.470   1.936 -0.1597  0.0143 -0.0470
 3470W        W 7521   4.861   7.677   1.892 -0.2976  0.0715  0.2080
 3471W        W 7522   7.787   4.753   1.215 -0.0416  0.1212 -0.0729
 3472W        W 7523   1.830   7.439  12.265 -0.3271  0.0266 -0.0276
 3473W        W 7524   3.208   9.312  11.419  0.1643  0.0268 -0.1755
 3474W        W 7525   7.696   5.013   2.709 -0.1128  0.0531 -0.0355
 3475W        W 7526   4.639   9.804   0.118 -0.0212 -0.1294 -0.0635
 3476W        W 7527   3.955   9.772   3.595 -0.0464 -0.3306  0.2221
 3477W        W 7528   0.058   8.981   0.290 -0.2212 -0.2873  0.0381
 3478W        W 7529   4.686   2.051   3.493 -0.0910  0.0944 -0.0294
 3479W        W 7530   8.046   5.127  13.578  0.5144  0.3786 -0.1090
 3480W        W 7531   2.363   6.554  13.073 -0.0026 -0.0273  0.0753
 3481W        W 7532   0.672   6.607  10.619 -0.3391 -0.0075  0.2571
 3482W        W 7533   0.963   5.231   9.947  0.1518 -0.1509  0.1167
 3483W        W 7534   9.994   1.225  13.272  0.0989 -0.0595 -0.2205
 3484W        W 7535   0.327   1.818   4.250 -0.1614 -0.1187 -0.1288
 3485W        W 7536   9.937   8.481  13.671  0.2013 -0.0891 -0.1245
 3486W        W 7537   0.832   1.774   4.198  0.0808  0.0237 -0.5173
 3487W        W 7538   2.823   7.684   3.293  0.0321 -0.3255  0.1299
 3488W        W 7539   2.880   4.543  10.542  0.1180  0.0787 -0.3840
 3489W        W 7540   4.357   7.044   0.757 -0.0443  0.1309  0.0080
 3490W        W 7541   9.308   8.153   4.661 -0.0177 -0.3274  0.0371
 3491W        W 7542   4.340   3.323   4.193 -0.0239  0.2068  0.1627
 3492W        W 7543   3.409   2.578   2.757  0.0748  0.2999 -0.0496
 3493W        W 7544   7.532   1.926   3.356 -0.0297 -0.1562 -0.0724
 3494W        W 7545   8.799   3.262   9.353  0.1505  0.1539 -0.1506
 3495W        W 7546   6.029   1.495   8.946  0.3195 -0.1836  0.0983
 3496W        W 7547   1.765   0.416   4.126 -0.2979 -0.1145 -0.1457
 3497W        W 7548   1.862   5.531   2.076 -0.2875 -0.1191  0.2019
 3498W        W 7549   9.840   0.004   0.941 -0.0057  0.2834  0.3902
 3499W        W 7550   4.428   1.531  13.255  0.1458  0.0716 -0.1496
 3500W        W 7551   9.050   2.629  10.707 -0.0097 -0.0519  0.0730
 3501W        W 7552   4.941   0.916  13.644  0.1820  0.1221 -0.0172
 3502W        W 7553   8.637   5.988  11.359 -0.0477 -0.1417  0.1440
 3503W        W 7554   6.157   6.316  10.144 -0.2531 -0.2568  0.4010
 3504W        W 7555   7.692   6.466  12.736  0.3732  0.1471 -0.2316
 3505W        W 7556   4.356   3.831  13.616  0.1722 -0.0938  0.0381
 3506W        W 7557   6.920   4.602  11.328  0.1719 -0.0590  0.2877
 3507W        W 7558   3.242   9.167   6.939 -0.5606 -0.2814  0.2516
 3508W        W 7559   9.477   9.480  12.583 -0.3633 -0.1999  0.4322
 3509W        W 7560   6.492   3.337   3.557 -0.0363  0.4663  0.2483
 3510W        W 7561   6.274   5.167   3.000 -0.0748  0.0517  0.1600
 3511W        W 7562   8.358   3.295  10.649 -0.1243 -0.4772  0.1246
 3512W        W 7563   7.906   0.636  12.936  0.0076 -0.0836 -0.2476
 3513W        W 7564   9.580   7.516   0.989 -0.2268  0.1038  0.3933
 3514W        W 7565   2.571   7.898  13.395 -0.2337 -0.0692  0.0958
 3515W        W 7566   3.433   5.952   4.281  0.0447 -0.0944  0.2686
 3516W        W 7567   5.967   9.459   2.384  0.0947  0.1119  0.0722
 3517W        W 7568   9.210   8.435   1.846 -0.2083  0.0115 -0.1075
 3518W        W 7569   6.807   0.162  13.432  0.0648 -0.1363  0.3627
 3519W        W 7570   7.270   5.701   1.168 -0.0175 -0.0511 -0.4678
 3520W        W 7571   4.538   4.329  10.683 -0.1445  0.0032 -0.1777
 3521W        W 7572   4.634   2.579  12.291 -0.1257 -0.3065  0.1148
 3522W        W 7573   4.407   9.319   1.505 -0.1205  0.2202  0.1859
 3523W        W 7574   0.514   4.430   3.634  0.0225  0.1283  0.0965
 3524W        W 7575   0.745   5.809   2.105  0.1870 -0.0015 -0.2203
 3525W        W 7576   1.192   8.898   6.328 -0.2412 -0.1584  0.4046
 3526W        W 7577   1.074   2.818   9.561 -0.2596  0.1025  0.2462
 3527W        W 7578   5.860   6.429  11.480 -0.2104 -0.3080 -0.1715
 3528W        W 7579   2.888   1.043   0.101 -0.0336 -0.0472  0.2586
 3529W        W 7580   9.911   6.878  12.759 -0.0774 -0.1284 -0.1613
 3530W        W 7581   2.723   5.305  13.461  0.2771  0.0674 -0.1008
 3531W        W 7582   9.319   3.464  11.810  0.0070 -0.1183  0.1807
 3532W        W 7583   3.003   8.789   1.624 -0.0660 -0.1466 -0.0417
 3533W        W 7584   4.381   8.475  11.570 -0.5686  0.2197 -0.0855
 3534W        W 7585   2.870   2.959   2.801  0.0363 -0.1608 -0.0014
 3535W        W 7586   9.398   5.832   1.498 -0.2467  0.1667  0.1417
 3536W        W 7587   6.826   7.785   2.077  0.2518 -0.0983 -0.2483
 3537W        W 7588   7.269   6.116   5.153  0.1594 -0.2197  0.2022
 3538W        W 7589   3.745   7.593   1.206 -0.1587 -0.0577 -0.0388
 3539W        W 7590   0.082   4.587  13.123  0.0483 -0.2072  0.0110
 3540W        W 7591   5.336   3.749   4.926  0.2753 -0.1299  0.1320
 3541W        W 7592   8.657   7.253   0.726 -0.0449  0.0505 -0.0151
 3542W        W 7593   5.560   8.559   4.078 -0.0365  0.4046 -0.2020
 3543W        W 7594   3.316   9.838   1.383  0.0381  0.1243  0.3951
 3544W        W 7595   4.884   3.674   2.598  0.0413 -0.2204 -0.1723
 3545W        W 7596   7.307   8.817   2.926  0.3737  0.3001  0.1041
 3546W        W 7597   0.920   6.166   2.506  0.1297  0.1950 -0.0891
 3547W        W 7598   9.246   6.439  13.806 -0.0916  0.2490 -0.0607
 3548W        W 7599   9.144   4.099  11.001  0.1412 -0.1253  0.2893
 3549W        W 7600   3.670   1.957   9.911 -0.1897  0.0622  0.2076
 3550W        W 7601   2.118   2.963   2.109 -0.2224 -0.0366  0.1180
 3551W        W 7602   4.872   2.562  13.172 -0.0294 -0.0745 -0.3650
 3552W        W 7603   5.666   6.934  12.774 -0.0904 -0.0275  0.0263
 3553W        W 7604   8.075   1.843   2.232 -0.0897 -0.0070  0.0485
 3554W        W 7605   3.942   3.055   9.141 -0.0148  0.5403  0.2022
 3555W        W 7606   9.043   4.747   3.610 -0.0307 -0.0261  0.2715
 3556W        W 7607   8.989   9.483   0.606  0.0722  0.1454  0.1761
 3557W        W 7608   5.109   2.706   4.002  0.0360  0.0742 -0.0135
 3558W        W 7609   8.850  10.022   0.689  0.1686 -0.2817  0.3659
 3559W        W 7610   7.362   6.798  12.784  0.1117  0.2499  0.0567
 3560W        W 7611   8.233   4.901  13.982  0.0660 -0.0247 -0.1702
 3561W        W 7612   9.636   9.135   3.541  0.1778  0.0433 -0.1146
 3562W        W 7613   9.822   4.742  12.878 -0.1619 -0.0918  0.0079
 3563W        W 7614   5.421   0.049   4.512 -0.2951  0.0345  0.2444
 3564W        W 7615   1.523   9.489   0.276 -0.3801  0.2454 -0.0909
 3565W        W 7616   4.757   6.654   0.920  0.1153 -0.3124 -0.1236
 3566W        W 7617   6.809   9.933  11.115  0.0102 -0.2007 -0.0019
 3567W        W 7618   1.495   9.925   0.525 -0.0729  0.0858  0.2997
 3568W        W 7619   6.427   8.526   9.687  0.2486  0.1765  0.0514
 3569W        W 7620   1.341   6.982   1.235 -0.1863  0.4426 -0.2333
 3570W        W 7621   6.401   1.514   2.598 -0.0003  0.0125 -0.3197
 3571W        W 7622   8.515   4.730  12.551 -0.0182 -0.0943  0.1451
 3572W        W 7623   7.813   8.232   3.438 -0.1480  0.0596 -0.1410
 3573W        W 7624   7.683   0.434   1.582  0.4708 -0.0525 -0.0718
 3574W        W 7625   9.070   7.871  12.559 -0.0565  0.1791 -0.1444
 3575W        W 7626   4.719   0.724   9.897 -0.0396 -0.1466  0.1901
 3576W        W 7627   2.682   1.806   0.883 -0.1181 -0.0692 -0.2975
 3577W        W 7628   5.955   8.083  10.949  0.3595 -0.0669  0.0691
 3578W        W 7629   4.138   4.684  13.737 -0.2224  0.0391 -0.1751
 3579W        W 7630   5.296   4.382  12.608 -0.0089  0.0066 -0.1034
 3580W        W 7631   5.721   1.479   0.461 -0.2012  0.1949 -0.0194
 3581W        W 7632   7.245   2.312   4.714  0.2112 -0.0812  0.1436
 3582W        W 7633   7.359   3.396  10.694 -0.1788  0.0025 -0.0243
 3583W        W 7634   6.257   3.670   2.408 -0.2528 -0.1941  0.4039
 3584W        W 7635   2.340   4.837   2.924 -0.3789 -0.0567  0.1962
 3585W        W 7636   0.436   6.296   3.928 -0.0773  0.0814 -0.0975
 3586W        W 7637   8.182   5.851  11.177 -0.1897  0.0568  0.1605
 3587W        W 7638   9.595   5.252   5.366  0.1219  0.0021  0.1020
 3588W        W 7639   8.589   6.606  13.096  0.1693 -0.2499 -0.0655
 3589W        W 7640   8.985   5.398  13.220  0.0768  0.2672 -0.2166
 3590W        W 7641   2.435  10.152   0.458 -0.0035 -0.1121 -0.1975
 3591W        W 7642   0.172   2.472  11.571 -0.0492 -0.0789  0.2018
 3592W        W 7643   5.774   8.288  12.832  0.3685 -0.1220 -0.1141
 3593W        W 7644   3.484   5.036  11.907 -0.2133 -0.1396  0.1620
 3594W        W 7645   4.223   6.147   9.477 -0.0548 -0.0085  0.1727
 3595W        W 7646   9.832   8.338   0.828  0.3541  0.0133 -0.0427
 3596W        W 7647   9.140   5.867   4.321 -0.1444  0.0323  0.2459
 3597W        W 7648   3.136   4.692  11.197 -0.1219  0.3319 -0.2374
 3598W        W 7649   7.861   7.388  12.268  0.2814 -0.1118  0.2011
 3599W        W 7650   6.837   6.862   1.045  0.1390 -0.0510 -0.0738
 3600W        W 7651   8.316   1.816  13.841 -0.0367  0.1125  0.0329
 3601W        W 7652   7.936   8.577   4.647  0.0409 -0.0635 -0.3496
 3602W        W 7653   7.912   3.869   8.951  0.1240 -0.3146  0.2099
 3603W        W 7654   4.931   1.992  13.193  0.0219  0.0954  0.2319
 3604W        W 7655   5.271   6.787  10.045  0.0314  0.0213 -0.3163
 3605W        W 7656   7.321   6.642   0.045 -0.4918 -0.2733 -0.0864
 3606W        W 7657   9.146   2.263  10.320  0.0668  0.0546  0.3115
 3607W        W 7658   9.550   6.867  11.188 -0.1160  0.0808  0.3668
 3608W        W 7659   5.494   0.411  10.672  0.4383 -0.0322  0.1494
 3609W        W 7660   2.664   0.102   1.687  0.2464  0.0378  0.1941
 3610W        W 7661   5.629   0.769   9.829 -0.0584  0.0423 -0.0566
 3611W        W 7662  10.073   4.657   9.709  0.1398 -0.2069 -0.0693
 3612W        W 7663   8.423   1.493   0.892 -0.1513 -0.1628  0.2882
 3613W        W 7664   3.578   7.062  12.684 -0.1377  0.0663 -0.1294
 3614W        W 7665   1.991   4.549   0.677 -0.0034  0.0240  0.3665
 3615W        W 7666   1.604   0.967  12.659 -0.0766 -0.1862 -0.0541
 3616W        W 7667   4.689   9.113  12.451 -0.3982 -0.1909 -0.2526
 3617W        W 7668   0.120   6.438   3.624 -0.2204  0.1050 -0.1371
 3618W        W 7669   1.950   3.267   1.407 -0.0381 -0.5333 -0.0740
 3619W        W 7670   0.455   5.569  11.417  0.0935 -0.3417 -0.1848
 3620W        W 7671   9.199   0.480   2.804  0.1599 -0.2321 -0.0078
 3621W        W 7672   1.166   5.058   2.279  0.0263  0.0206 -0.0952
 3622W        W 7673   2.188   3.460   2.167 -0.0916 -0.3067  0.3756
 3623W        W 7674   4.562   9.443  11.998  0.0462  0.0600  0.0651
 3624W        W 7675   0.330   1.242  12.477 -0.0083 -0.0335 -0.0917
 3625W        W 7676   7.979   8.998  10.594 -0.3873 -0.1440 -0.1055
 3626W        W 7677   6.856   1.485   0.150 -0.1115 -0.3986  0.2449
 3627W        W 7678   9.108   9.977  11.903  0.1372  0.1363 -0.0613
 3628W        W 7679   0.314   0.477   2.706  0.1205  0.0448  0.0597
 3629W        W 7680   1.060   1.807   1.290  0.0098 -0.0242  0.0174
 3630W        W 7681   9.492   8.265   3.860  0.1939 -0.1513  0.1832
 3631W        W 7682   7.586   5.696   2.772  0.3024 -0.0022 -0.3002
 3632W        W 7683   1.866   2.443  13.297  0.1784 -0.0507 -0.3140
 3633W        W 7684   3.502   3.916  13.331 -0.0524 -0.1189  0.0672
 3634W        W 7685   1.967   7.995  14.002  0.0410 -0.0123 -0.2416
 3635W        W 7686   4.188   7.249   3.327  0.0347  0.1040  0.0312
 3636W        W 7687   4.021   3.658   1.654  0.2479  0.0835 -0.1272
 3637W        W 7688   6.562   5.543   9.442  0.2537  0.4194  0.0076
 3638W        W 7689   8.208   5.553   0.810 -0.0590  0.0525  0.1099
 3639W        W 7690   3.226   0.104  12.905 -0.1147  0.6255  0.0521
 3640W        W 7691   8.400   4.756   3.954 -0.0410  0.2092 -0.0676
 3641W        W 7692   0.437   1.466  11.556  0.1773  0.1439  0.0324
 3642W        W 7693   4.146   3.257   0.381  0.1145  0.0178  0.0724
 3643W        W 7694   4.399   3.069   4.626 -0.0493  0.1109  0.1577
 3644W        W 7695   6.267   2.379   1.108 -0.0931  0.0802  0.1946
 3645W        W 7696   1.066   6.772  11.528  0.3089 -0.0314  0.1498
 3646W        W 7697   7.914   0.767   9.380 -0.1431 -0.0855  0.0203
 3647W        W 7698   6.087   0.233  11.580 -0.0248 -0.1034 -0.2376
 3648W        W 7699   7.651   5.561   1.852  0.1286 -0.0906  0.2524
 3649W        W 7700   2.978   9.715   0.944  0.3472  0.3327 -0.1628
 3650W        W 7701   8.218   9.174   0.847  0.1354 -0.1192 -0.0340
 3651W        W 7702   5.671   5.001  11.568 -0.0520  0.0546 -0.0125
 3652W        W 7703   3.336   7.087   4.780  0.0253  0.1227  0.0574
 3653W        W 7704   8.035   4.283   3.650 -0.3305 -0.2338 -0.0288
 3654W        W 7705   9.043   3.063   4.627 -0.2472 -0.0819  0.1067
 3655W        W 7706   6.787   1.159  13.229  0.0773  0.1735  0.0699
 3656W        W 7707   5.717   2.766   2.060 -0.0953  0.2663  0.1204
 3657W        W 7708   0.271   5.647  11.852  0.3519 -0.1226 -0.2207
 3658W        W 7709   4.281   2.841   4.069 -0.0115 -0.0507 -0.1244
 3659W        W 7710   4.235   2.494   2.235 -0.1393 -0.0428 -0.3090
 3660W        W 7711   9.728   4.966   4.269  0.2312  0.3110  0.2626
 3661W        W 7712   3.227   0.345   2.428 -0.0122  0.0106  0.2407
 3662W        W 7713   1.290   3.404   0.152 -0.1747 -0.1729  0.2357
 3663W        W 7714   3.685   0.210   3.762  0.0678  0.3150 -0.1017
 3664W        W 7715   4.441   6.209  11.453  0.1366  0.2466  0.1237
 3665W        W 7716   5.395   7.617   0.790  0.3002 -0.1290  0.1619
 3666W        W 7717   7.222   4.659   1.918  0.1992 -0.2506  0.2915
 3667W        W 7718   7.678   2.990  13.065  0.0903 -0.1075 -0.0472
 3668W        W 7719   8.830   8.211  13.870  0.4486  0.2323  0.0345
 3669W        W 7720   8.214   5.366  11.262 -0.0806  0.1872 -0.0366
 3670W        W 7721   1.708   1.045   9.776 -0.1776  0.1485 -0.0165
 3671W        W 7722   3.153   3.971   4.410  0.0545 -0.0691 -0.0263
 3672W        W 7723   5.889   5.824   4.232  0.1030 -0.1401 -0.0333
 3673W        W 7724   5.775   3.531   2.501  0.0175 -0.0734 -0.0039
 3674W        W 7725   7.456   6.766   3.366 -0.2595 -0.0597 -0.1152
 3675W        W 7726   1.864   2.761   5.246 -0.0042 -0.3601  0.0525
 3676W        W 7727   9.047   6.977   4.680  0.2759 -0.1922 -0.0768
 3677W        W 7728   0.442   6.011   3.018  0.0279  0.1321 -0.3309
 3678W        W 7729   5.692   2.779   1.207  0.3424  0.1365  0.1621
 3679W        W 7730   2.660   7.954  11.732  0.0860 -0.0315 -0.1700
 3680W        W 7731   4.650   5.320   0.922  0.2554  0.0482 -0.0343
 3681W        W 7732   2.028   3.347  13.633 -0.1434  0.2223  0.0099
 3682W        W 7733   4.252   2.511  13.222  0.2006 -0.1693  0.0211
 3683W        W 7734   9.736   1.542   4.329  0.0731  0.2977 -0.0842
 3684W        W 7735   2.205   3.762  10.922  0.1345 -0.0633  0.0282
 3685W        W 7736   0.713   1.966   4.973  0.3099 -0.2355  0.0617
 3686W        W 7737   8.801   3.697  11.719  0.4628  0.3394 -0.1253
 3687W        W 7738   4.677   1.199  12.107  0.0418  0.0227 -0.0604
 3688W        W 7739   4.565   1.955   1.633  0.3133 -0.0598  0.0123
 3689W        W 7740   0.864   4.141   9.845  0.3030 -0.4640 -0.1824
 3690W        W 7741   8.585   6.818   3.465 -0.0158 -0.0551  0.0205
 3691W        W 7742  10.057   9.463  13.564  0.2761 -0.2025 -0.0218
 3692W        W 7743   8.400   6.476   4.239 -0.0419  0.0110  0.0142
 3693W        W 7744   9.800   0.707  13.323  0.1186 -0.2798 -0.4711
 3694W        W 7745   8.295   6.375  13.785 -0.2717 -0.0254  0.2440
 3695W        W 7746   3.558   3.919   1.420 -0.4255  0.0410 -0.0916
 3696W        W 7747   9.961   4.204  11.642 -0.1421 -0.0866  0.2198
 3697W        W 7748   4.713   3.937  12.560 -0.1188 -0.2347 -0.1917
 3698W        W 7749   4.854   6.827   4.580  0.1303  0.1958 -0.1022
 3699W        W 7750   9.201   0.003  11.384 -0.0788  0.0593 -0.1039
 3700W        W 7751   1.780   2.151  13.680  0.0795  0.0389 -0.1668
 3701W        W 7752   0.186   5.609   3.187 -0.2155 -0.0992 -0.0499
 3702W        W 7753   4.426   4.829  12.228  0.0729 -0.0227 -0.1077
 3703W        W 7754   4.053   5.177   2.355  0.0639  0.2990  0.1304
 3704W        W 7755   3.681   2.164  11.430  0.0055  0.3916 -0.1804
 3705W        W 7756   3.567   4.367  11.126  0.2080  0.0029  0.0847
 3706W        W 7757   7.784   5.054   4.630 -0.1838  0.0121  0.1996
 3707W        W 7758  10.000   1.388   0.557  0.0842  0.1479  0.2564
 3708W        W 7759   4.764   7.998  13.493 -0.1932 -0.1018  0.3054
 3709W        W 7760   5.251   1.254  12.773  0.2840  0.1011 -0.5362
 3710W        W 7761   5.493   1.604   4.726  0.2406 -0.1986 -0.0698
 3711W        W 7762   2.476   3.144  12.182 -0.1817 -0.0949 -0.2620
 3712W        W 7763   1.415   8.391  13.101 -0.0924  0.0127  0.1713
 3713W        W 7764   4.951   4.819   0.199  0.1211  0.1388 -0.0374
 3714W        W 7765   0.154   2.571  12.986  0.0108  0.0054 -0.0632
 3715W        W 7766   0.194   2.836   5.291 -0.1976 -0.1142 -0.1263
 3716W        W 7767   5.284   3.823   1.528 -0.2251 -0.2779 -0.1425
 3717W        W 7768   8.542   0.629   0.716  0.0018 -0.0456  0.1926
 3718W        W 7769   0.582   0.426  13.241 -0.2695  0.1635  0.2108
 3719W        W 7770   2.619   2.723   9.646 -0.3195  0.0619 -0.1885
 3720W        W 7771   9.209   0.374  12.214  0.2006 -0.1770  0.0907
 3721W        W 7772   4.143   9.833   0.031  0.2509  0.5648 -0.1828
 3722W        W 7773   7.981   9.906  11.742 -0.0999 -0.2324  0.0681
 3723W        W 7774   5.105   3.539   0.678 -0.0137 -0.0177  0.1497
 3724W        W 7775   2.601   6.753   9.219 -0.0009  0.0283  0.0102
 3725W        W 7776   8.259   3.030   3.589 -0.1134  0.0346 -0.0482
 3726W        W 7777   3.871   1.328  12.393 -0.3956  0.1119  0.0835
 3727W        W 7778   7.962   6.282   3.374 -0.2604 -0.1268  0.0068
 3728W        W 7779   5.311   6.575   0.865  0.1334 -0.0699 -0.0313
 3729W        W 7780   3.563   6.910   4.399 -0.2910  0.1888  0.2626
 3730W        W 7781   5.257   4.834  11.216 -0.2591  0.1152  0.1965
 3731W        W 7782   8.996   8.159   3.810 -0.1029 -0.0591  0.2131
 3732W        W 7783   2.834   2.358   3.016  0.1288 -0.3369  0.1819
 3733W        W 7784   9.788   3.006  10.292  0.0213  0.2164  0.1007
 3734W        W 7785   5.442   1.606  10.820 -0.1077  0.1264 -0.2196
 3735W        W 7786   3.735   7.571   3.529 -0.1817 -0.0451  0.0729
 3736W        W 7787   9.313   2.718  12.483 -0.2292 -0.0992 -0.3254
 3737W        W 7788   6.696   9.897  12.926  0.2509 -0.0444  0.1143
 3738W        W 7789   6.729   6.368   9.455 -0.2954  0.3908 -0.0317
 3739W        W 7790   7.084   3.176   2.150  0.0062 -0.0251 -0.0086
 3740W        W 7791   4.459   0.139   3.440 -0.2870  0.3153 -0.0592
 3741W        W 7792   8.546   1.333  13.229 -0.1437  0.0235 -0.0616
 3742W        W 7793   6.143   7.887   9.056  0.2205  0.1106  0.0326
 3743W        W 7794   0.325   7.097   3.883 -0.1067  0.1688 -0.3985
 3744W        W 7795   6.010   3.750  11.122  0.2011  0.2837 -0.2258
 3745W        W 7796   8.586   4.434   9.852 -0.0333 -0.0491 -0.0077
 3746W        W 7797   6.711   3.526  12.918  0.2625 -0.3592  0.2303
 3747W        W 7798   7.288   7.673   4.451 -0.0619 -0.2326  0.1724
 3748W        W 7799   0.276   3.527   4.224 -0.2975  0.0906  0.0818
 3749W        W 7800   3.740   3.576   0.138  0.2736  0.1152 -0.1187
 3750W        W 7801   6.355   9.350   0.283 -0.2028 -0.0342 -0.0811
 3751W        W 7802   5.933   9.134   1.004  0.1644  0.0106  0.1223
 3752W        W 7803  10.109   8.265   1.489  0.0975 -0.0817  0.1035
 3753W        W 7804   2.561   6.649  13.504 -0.1474 -0.2239 -0.1708
 3754W        W 7805   4.167   6.223  10.024  0.0082 -0.0267 -0.2021
 3755W        W 7806   4.017   4.567  11.751 -0.0661 -0.1200  0.0265
 3756W        W 7807   0.136   3.018   2.580  0.2859  0.2704  0.1232
 3757W        W 7808   9.395   3.930   9.690  0.0764  0.2200 -0.1968
 3758W        W 7809   6.847   6.383   1.700 -0.1383  0.0838  0.0862
 3759W        W 7810   7.723   7.652   4.116 -0.1020  0.0503  0.2383
 3760W        W 7811   4.609   8.499   4.121  0.0957  0.0083 -0.0189
 3761W        W 7812   5.767   8.062  10.305  0.4489  0.1836 -0.1441
 3762W        W 7813   1.232   0.880   2.500  0.1277 -0.4967 -0.0452
 3763W        W 7814   1.607   2.850  11.582 -0.0904  0.1349 -0.2448
 3764W        W 7815   0.949   1.290   1.188  0.0063  0.1862  0.1152
 3765W        W 7816   0.535   1.679   1.092  0.1757 -0.0968  0.0854
 3766W        W 7817   9.928   6.486   2.464  0.0825  0.0178  0.2952
 3767W        W 7818   8.787   3.734  10.130  0.4123  0.0739  0.1056
 3768W        W 7819   7.020   4.696  11.908 -0.0811  0.0391  0.0962
 3769W        W 7820   7.704   3.250   2.211 -0.2920  0.2488  0.1025
 3770W        W 7821   8.263   5.411   3.320  0.0790 -0.2030  0.2179
 3771W        W 7822   4.848   5.918  12.243 -0.0872  0.1535  0.1175
 3772W        W 7823   3.216   4.043   3.645  0.1389  0.1468 -0.0849
 3773W        W 7824   8.534   8.084   1.341 -0.0864 -0.1079  0.0541
 3774W        W 7825   9.830   5.998   3.602  0.0483  0.1611  0.2222
 3775W        W 7826   6.614   5.551   3.137  0.1680 -0.1377 -0.3263
 3776W        W 7827   3.772   3.244  12.259 -0.1857  0.0489 -0.0566
 3777W        W 7828   1.865   3.371  10.441 -0.0181  0.0951 -0.0548
 3778W        W 7829   6.066   0.820  13.433 -0.0667  0.0082  0.2423
 3779W        W 7830   8.730   8.504   1.784  0.0836  0.0542  0.1940
 3780W        W 7831   1.271   6.093   9.430 -0.2634  0.1823 -0.3047
 3781W        W 7832   3.670   7.659  12.669  0.1836  0.3740 -0.1094
 3782W        W 7833   5.858   2.470   3.874  0.3400 -0.0107  0.2200
 3783W        W 7834   0.121   8.061   0.467  0.0183 -0.0880  0.0232
 3784W        W 7835   9.127   2.973   2.692  0.1177 -0.2080 -0.1540
 3785W        W 7836   8.487   9.657   1.615  0.1244 -0.1627 -0.1323
 3786W        W 7837   5.075   4.229   4.801  0.1525 -0.0493  0.0804
 3787W        W 7838   4.874   1.551  12.385  0.0653  0.0087 -0.0014
 3788W        W 7839   6.638   2.087  12.922  0.2280  0.2370 -0.2712
 3789W        W 7840   2.911   1.490   0.460 -0.1153 -0.1877 -0.2632
 3790W        W 7841   4.033   8.308  13.375  0.1109 -0.0147 -0.0636
 3791W        W 7842   4.965   7.889   0.825 -0.0810  0.1265  0.2005
 3792W        W 7843   4.218   7.598  12.714 -0.0041  0.2397  0.1170
 3793W        W 7844   6.763   9.188  13.670  0.4731  0.0370  0.0553
 3794W        W 7845   6.323   9.674   9.527  0.0380 -0.1512  0.3629
 3795W        W 7846   3.600   5.393   1.006  0.0693  0.1062  0.3487
 3796W        W 7847   8.576   9.809  13.695 -0.2022  0.3382  0.1114
 3797W        W 7848   1.482   8.931   3.055 -0.0628 -0.0367  0.2788
 3798W        W 7849   0.625   7.318   4.286  0.1668  0.2583 -0.3174
 3799W        W 7850   8.597   2.689   5.064  0.1378 -0.2482  0.2048
 3800W        W 7851   7.702   3.402  13.832 -0.1399  0.2937 -0.0742
 3801W        W 7852   5.242   6.260   5.189  0.0853 -0.0887  0.1339
 3802W        W 7853   8.118   4.243   2.337 -0.1858 -0.5344 -0.0066
 3803W        W 7854   9.796   9.436  13.019 -0.1819  0.2132 -0.3094
 3804W        W 7855   0.889   2.588   3.765 -0.1221  0.1187  0.1467
 3805W        W 7856   5.454   9.916  14.016  0.3942 -0.1438  0.1027
 3806W        W 7857   6.585   9.352   1.820  0.2344 -0.1704 -0.0755
 3807W        W 7858   1.304   6.634  12.745  0.0404 -0.0717 -0.1650
 3808W        W 7859   4.411   9.805   3.582 -0.4805  0.1865 -0.4412
 3809W        W 7860   2.998   4.499  13.972 -0.0999 -0.1689  0.2632
 3810W        W 7861   6.707   3.979   1.873 -0.0571 -0.5429 -0.3161
 3811W        W 7862   7.474   9.545   1.883 -0.0471  0.1579  0.2852
 3812W        W 7863   1.650   7.122   0.357  0.1522 -0.2126  0.2388
 3813W        W 7864   6.247   7.914  13.655 -0.5466  0.1319  0.2468
 3814W        W 7865   7.784   2.133   1.159 -0.0375 -0.4518  0.0191
 3815W        W 7866   0.981   4.280   4.901  0.0091 -0.4621  0.1193
 3816W        W 7867   8.751   4.264   4.021 -0.2008 -0.1374 -0.1576
 3817W        W 7868   1.792   5.179  11.645  0.2487  0.1622  0.1976
 3818W        W 7869  10.012   2.545  10.827 -0.0573 -0.1124 -0.2307
 3819W        W 7870   7.391   4.360  10.993 -0.2541 -0.1147 -0.1888
 3820W        W 7871   9.084   1.506  10.499 -0.3506  0.0548  0.0088
 3821W        W 7872   5.526   7.279  10.819 -0.0038 -0.0915  0.1038
 3822W        W 7873   0.446   8.098  12.057  0.3446 -0.1324  0.1199
 3823W        W 7874   4.848   2.598  10.217  0.1708  0.0227  0.1751
 3824W        W 7875   4.709   3.215   0.542  0.3167  0.2918  0.3940
 3825W        W 7876   3.840   9.957   1.498  0.0297  0.3608 -0.0125
 3826W        W 7877   0.977   6.461   2.029 -0.1836  0.0649  0.0261
 3827W        W 7878   4.658   9.080  13.498 -0.1605 -0.2140  0.1803
 3828W        W 7879   3.931   4.753   1.400  0.1087 -0.0445  0.2157
 3829W        W 7880   8.147   8.869   2.865  0.1883  0.0175  0.0391
 3830W        W 7881   7.084   9.906   0.183 -0.0311 -0.2284 -0.0489
 3831W        W 7882   1.528   4.805   3.342 -0.0913  0.0748 -0.3774
 3832W        W 7883   0.592   6.874  11.654 -0.0886 -0.0449  0.2466
 3833W        W 7884   9.841   6.056   1.876 -0.1766  0.3762 -0.3513
 3834W        W 7885   4.543   2.319   3.976  0.0399  0.1097  0.0698
 3835W        W 7886   1.969   0.755   2.439 -0.4455  0.0083 -0.1017
 3836W        W 7887   4.964   3.782  11.368  0.1592  0.4897  0.1891
 3837W        W 7888   2.000   6.234  11.783 -0.2352 -0.0688 -0.1517
 3838W        W 7889   7.552   9.293  13.860 -0.0945 -0.1438  0.0436
 3839W        W 7890   4.472  10.087  13.765  0.0983  0.0041 -0.1230
 3840W        W 7891   5.029   9.569  10.957  0.0728 -0.0125 -0.1823
 3841W        W 7892   0.335   2.404  10.539  0.0357  0.0985 -0.1394
 3842W        W 7893   2.226   4.260  13.742 -0.1963 -0.1179  0.0830
 3843W        W 7894   5.579   2.203   1.824  0.3172  0.0129  0.4521
 3844W        W 7895   0.698   4.941  12.622  0.1295 -0.0015 -0.0515
 3845W        W 7896   9.519   4.575   5.101 -0.0902 -0.1844  0.0229
 3846W        W 7897   8.724   8.061   2.816  0.1125 -0.2167 -0.0081
 3847W        W 7898   6.103   6.807   3.807  0.0755 -0.0744 -0.0914
 3848W        W 7899   4.821   6.274  13.192  0.1504 -0.4164 -0.0682
 3849W        W 7900   2.370   0.073  14.031  0.0126  0.1838  0.0526
 3850W        W 7901   3.819   8.647   2.695 -0.4339  0.1093 -0.1660
 3851W        W 7902   0.079   5.648   3.818 -0.3429 -0.0795  0.0079
 3852W        W 7903   5.150   7.958   9.437  0.2410 -0.0509  0.0975
 3853W        W 7904   5.148   1.356  13.846  0.1648  0.0534 -0.0273
 3854W        W 7905   6.563   3.766  10.283  0.0188  0.1916  0.0531
 3855W        W 7906   1.611   5.574  10.715  0.0404  0.2338 -0.1236
 3856W        W 7907   6.624   0.741   1.161 -0.2506  0.2788  0.0854
 3857W        W 7908   5.511   0.671   2.742  0.2137 -0.0458  0.1653
 3858W        W 7909   6.439   7.039   4.110 -0.2612 -0.3292  0.1563
 3859W        W 7910   5.012   5.881  10.018 -0.1167  0.0832 -0.1103
 3860W        W 7911   5.290   2.703  12.871  0.2159  0.1785  0.0989
 3861W        W 7912   0.796   6.758   3.109  0.0623  0.0710  0.0414
 3862W        W 7913   9.296   1.486   4.650  0.0486 -0.0429 -0.3773
 3863W        W 7914   2.295   6.204   9.413  0.0435  0.1186  0.1766
 3864W        W 7915   3.851   8.832  11.162 -0.2591  0.0035 -0.2545
 3865W        W 7916   2.559   9.797  13.540 -0.2611  0.1616 -0.1539
 3866W        W 7917   7.122   5.611   2.971 -0.0752 -0.0393 -0.0713
 3867W        W 7918   0.708   5.683  12.576  0.1104  0.0898 -0.0084
 3868W        W 7919   1.959   8.736   0.461  0.2908  0.1023 -0.2172
 3869W        W 7920   5.472   2.015   9.324 -0.2405  0.0960  0.0604
 3870W        W 7921   5.579   2.345   9.715 -0.3292 -0.1800  0.0026
 3871W        W 7922   1.551   2.220  10.215 -0.2825  0.0747  0.0483
 3872W        W 7923   8.159   6.671  11.668 -0.4314  0.2176  0.1126
 3873W        W 7924   6.997   6.683   0.515 -0.1013 -0.2416  0.0320
 3874W        W 7925  10.128   0.812   3.004  0.0167  0.2486 -0.1593
 3875W        W 7926   2.726   8.067   0.298  0.1313  0.1494  0.2490
 3876W        W 7927   0.377   3.089   1.369  0.2705 -0.0624  0.1038
 3877W        W 7928   9.738   5.452  12.355  0.1267  0.2743 -0.2414
 3878W        W 7929   3.375   2.304   1.191 -0.1249  0.0966 -0.2767
 3879W        W 7930   7.051   0.682   4.490 -0.2392  0.0223  0.0615
 3880W        W 7931   6.145   8.107   0.041 -0.1408  0.1545 -0.1650
 3881W        W 7932   2.003   4.460   0.191 -0.0412  0.1701 -0.0279
 3882W        W 7933   8.238   9.207  10.185  0.0263 -0.0837 -0.2640
 3883W        W 7934   8.064   4.783   3.604  0.1720  0.2161 -0.0068
 3884W        W 7935   7.424   5.860   3.465  0.0488 -0.0909 -0.2667
 3885W        W 7936   0.997   0.745  13.781  0.1230 -0.2146 -0.1921
 3886W        W 7937   8.149   3.670   2.983 -0.0900 -0.6295  0.2010
 3887W        W 7938   6.797   9.514   0.532 -0.0157  0.0003 -0.1973
 3888W        W 7939   8.744   2.810  10.381 -0.1131 -0.0009  0.2925
 3889W        W 7940   7.739   2.002   0.117  0.2372  0.1228 -0.0686
 3890W        W 7941   1.068   5.276   4.201 -0.2423  0.0246  0.1239
 3891W        W 7942   9.388   0.013   1.753 -0.3221  0.2473  0.0240
 3892W        W 7943   9.387   8.285  11.710 -0.2159  0.1957  0.0767
 3893W        W 7944   1.394   4.969   1.440 -0.1471  0.1992 -0.1205
 3894W        W 7945   8.976   5.921   1.290 -0.2443  0.1839 -0.3497
 3895W        W 7946   5.792   3.332   9.750 -0.1397 -0.1742 -0.0633
 3896W        W 7947   1.373   5.173   0.430  0.0361  0.1644  0.3080
 3897W        W 7948   5.954   3.182   1.147  0.0040  0.0542  0.2918
 3898W        W 7949   6.849   3.366   5.476  0.0139  0.1928  0.0426
 3899W        W 7950   6.671   8.840   1.176 -0.1342  0.4386  0.0626
 3900W        W 7951   3.196   0.237  12.106 -0.2671 -0.0248  0.0196
 3901W        W 7952   8.191   7.685   2.180  0.1830 -0.1282  0.0311
 3902W        W 7953   7.858   0.199   0.681  0.1570 -0.2204  0.1283
 3903W        W 7954   0.517   8.370   0.325  0.2837  0.0768 -0.0448
 3904W        W 7955   7.637   7.999   0.539 -0.3122  0.1374 -0.3550
 3905W        W 7956   9.156   9.097   4.229 -0.0085 -0.1847  0.1505
 3906W        W 7957   6.814   7.296   3.864 -0.0994  0.2639  0.3953
 3907W        W 7958   1.529   3.139  13.684 -0.0022 -0.1919 -0.0311
 3908W        W 7959   4.717   7.660   0.150  0.1942 -0.0580  0.0674
 3909W        W 7960   0.863   2.918   9.123  0.1745 -0.0818  0.2383
 3910W        W 7961   1.839   8.806  12.982  0.0739 -0.1150 -0.0203
 3911W        W 7962   7.637   9.282   8.631  0.2158 -0.0386 -0.1064
 3912W        W 7963   0.969   5.764   1.496 -0.0701 -0.1755 -0.0486
 3913W        W 7964   0.488   1.979   3.790  0.2283  0.0570  0.0127
 3914W        W 7965   6.030   4.227   9.091 -0.2690 -0.0300 -0.2681
 3915W        W 7966   9.680   7.389   0.470 -0.1639  0.2119  0.2179
 3916W        W 7967   4.492   0.436   1.764  0.1191  0.1974 -0.0449
 3917W        W 7968   3.473   9.500   1.070 -0.0232  0.1808 -0.0536
 3918W        W 7969   9.098   8.604   0.022  0.1420 -0.2102 -0.3009
 3919W        W 7970   0.993   4.877   9.156  0.1660 -0.2564  0.0658
 3920W        W 7971   0.938   8.115   0.272 -0.0330  0.0753  0.1591
 3921W        W 7972   1.868   4.310   2.037  0.0151 -0.2419  0.1318
 3922W        W 7973  10.087   3.602   2.517 -0.2468 -0.1847 -0.2735
 3923W        W 7974   7.473  10.074   5.699 -0.2502 -0.2491 -0.2154
 3924W        W 7975   2.875   6.598   5.123 -0.1781 -0.2236  0.2200
 3925W        W 7976   9.148   4.980  11.592 -0.2775  0.0316 -0.1181
 3926W        W 7977   3.825   9.384  11.306 -0.3405 -0.0901  0.0196
 3927W        W 7978   5.248   6.838   8.719  0.0466 -0.0979 -0.1356
 3928W        W 7979   4.979   2.022   2.773 -0.1428  0.1399  0.0809
 3929W        W 7980   0.702   3.128  11.013 -0.2478  0.2951 -0.3602
 3930W        W 7981   9.822   8.697   0.509 -0.3468 -0.3343 -0.0470
 3931W        W 7982   9.703   1.184  12.052  0.3296  0.2116  0.0490
 3932W        W 7983  10.003   0.438  11.002  0.1101  0.2488 -0.0581
 3933W        W 7984   8.906   8.902  13.714 -0.0890 -0.1979  0.1456
 3934W        W 7985   4.898   6.472  11.410  0.2592  0.1601  0.0742
 3935W        W 7986   6.204   6.409   0.244 -0.3147  0.3259 -0.1594
 3936W        W 7987   0.499   6.007  12.227  0.1656 -0.0758 -0.2182
 3937W        W 7988   8.941   8.209   0.755  0.2560  0.2501  0.0344
 3938W        W 7989   3.723   2.589  13.422 -0.0691  0.0540  0.1837
 3939W        W 7990   9.404   9.954  10.854 -0.0925 -0.1516  0.0090
 3940W        W 7991   9.971   6.003   1.009  0.1991 -0.2763 -0.1086
 3941W        W 7992   6.090   5.178  11.033 -0.0687 -0.0373  0.0389
 3942W        W 7993   7.879  10.037   0.346 -0.1950  0.1450  0.0532
 3943W        W 7994   6.120   8.753  10.144 -0.1790 -0.2752  0.2686
 3944W        W 7995   3.471   8.394   0.437  0.0602  0.0960  0.3254
 3945W        W 7996   4.840   4.489  11.080 -0.1368  0.0826 -0.2741
 3946W        W 7997   5.510   8.176   3.738 -0.0087 -0.0658  0.0889
 3947W        W 7998   3.251   5.510   4.448  0.0309 -0.1650  0.1877
 3948W        W 7999   8.476   9.358  13.909 -0.2373 -0.1314  0.0816
 3949W        W 8000   8.717   0.641   1.241  0.3096 -0.3865  0.0303
 3950W        W 8001   8.392  10.127   4.007  0.0786  0.0386  0.0046
 3951W        W 8002   5.528   6.923  12.281  0.2934  0.0663  0.2374
 3952W        W 8003   8.382   8.938   1.699  0.0901 -0.3322  0.2350
 3953W        W 8004   5.073   2.493  11.950  0.1168  0.1161  0.1279
 3954W        W 8005   6.497   3.044   1.041 -0.1558 -0.1391 -0.1373
 3955W        W 8006   1.336   4.122   9.632 -0.2519 -0.0462 -0.0468
 3956W        W 8007   9.912   3.714  11.940 -0.0806 -0.1635  0.0166
 3957W        W 8008   5.807   2.841  10.052 -0.0515  0.1791 -0.2277
 3958W        W 8009   5.771   7.183  13.696  0.0304  0.1510 -0.0202
 3959W        W 8010   1.684   4.879   2.366 -0.1794  0.0132 -0.0776
 3960W        W 8011   8.294   9.212   0.366 -0.0080  0.1272 -0.2110
 3961W        W 8012   3.142   9.398   2.421 -0.1332 -0.0878  0.0494
 3962W        W 8013   8.964   2.562   4.659 -0.2449 -0.0041 -0.2414
 3963W        W 8014   8.609   8.512  13.507  0.3201  0.0374 -0.0722
 3964W        W 8015   1.646   4.833   2.866 -0.2414 -0.0368 -0.1448
 3965W        W 8016   0.033   0.943  13.645  0.0235  0.2235  0.1959
 3966W        W 8017   2.874   6.809   1.840  0.1028 -0.3038  0.1029
 3967W        W 8018   2.038   0.842  12.356  0.2294 -0.0660  0.1813
 3968W        W 8019   3.393   0.603  10.762  0.0562  0.1224  0.0541
 3969W        W 8020   2.012   9.553   0.491  0.1142 -0.1109 -0.0750
 3970W        W 8021   8.473   6.605   1.888 -0.0994  0.1481 -0.0998
 3971W        W 8022   5.059   3.444   1.229  0.2382 -0.0824 -0.0509
 3972W        W 8023   1.161   2.891  10.931 -0.3562 -0.0506  0.2171
 3973W        W 8024   7.028   8.630   1.991 -0.0920 -0.1922 -0.0952
 3974W        W 8025   2.696   9.912   1.353 -0.0938 -0.2922  0.3670
 3975W        W 8026   9.278   1.670  11.519 -0.0493  0.0816  0.0140
 3976W        W 8027   2.669   5.828   1.602  0.1504  0.1516 -0.1013
 3977W        W 8028   7.344   7.119  12.306  0.1742  0.1734  0.4416
 3978W        W 8029   0.347   3.288  10.714 -0.3476  0.1041  0.0643
 3979W        W 8030   1.403   0.634   1.753  0.1882  0.3884 -0.3984
 3980W        W 8031   0.766   5.346  12.928  0.2450 -0.0424  0.1006
 3981W        W 8032   1.178   1.376  12.934  0.2005  0.0138 -0.0576
 3982W        W 8033   1.007   6.835  13.163 -0.3716 -0.0391 -0.2175
 3983W        W 8034   8.578   5.648   5.142  0.4197  0.0231  0.0563
 3984W        W 8035  10.114   9.982  13.733 -0.1541  0.0962  0.1603
 3985W        W 8036   5.739   5.516  11.365  0.0386 -0.2575  0.0480
 3986W        W 8037   0.987   4.061   1.779  0.0267  0.2049 -0.0685
 3987W        W 8038   8.062   9.003   2.365 -0.2248  0.2345 -0.0271
 3988W        W 8039   3.170   6.390   2.054 -0.1354 -0.0914  0.2978
 3989W        W 8040   5.390   1.448   2.225  0.2093 -0.2125 -0.0466
 3990W        W 8041   7.083   2.880   4.776  0.1797 -0.1567 -0.0829
 3991W        W 8042   4.724   8.704  13.025  0.0827 -0.0287  0.1669
 3992W        W 8043   3.929   6.264  12.792 -0.2336 -0.3885  0.0313
 3993W        W 8044   3.300   8.916   0.489  0.2100  0.1554 -0.2451
 3994W        W 8045   2.565   8.949   1.873  0.5242  0.1740  0.0203
 3995W        W 8046   2.125   3.136   0.884 -0.2198 -0.2087  0.0056
 3996W        W 8047   3.584   4.534  12.066 -0.3481  0.1381 -0.1678
 3997W        W 8048   7.261   5.523  13.329  0.1175 -0.0237  0.1211
 3998W        W 8049   3.921   5.608  12.029 -0.2663  0.1230  0.1530
 3999W        W 8050   6.756   4.376   4.027  0.0617  0.3072 -0.1026
 4000W        W 8051   5.468   9.067   3.709 -0.0130 -0.0606  0.0861
 4001W        W 8052   7.865   1.660  10.731 -0.1344 -0.0050  0.0842
 4002W        W 8053   5.340   9.339  10.205  0.2914 -0.0364  0.2820
 4003W        W 8054  10.011   8.237   3.925  0.0312  0.0598  0.0543
 4004W        W 8055   5.694   9.008   9.924 -0.1533 -0.0603 -0.2329
 4005W        W 8056   6.299   6.382   3.705  0.2053  0.4818 -0.1434
 4006W        W 8057   5.322   1.688  13.061  0.0735 -0.0104 -0.0153
 4007W        W 8058   6.942   3.565   3.756  0.0612  0.0285 -0.1245
 4008W        W 8059   9.696   3.565   9.993  0.1812  0.1341 -0.1532
 4009W        W 8060   9.251   2.946  10.368  0.6084  0.0830  0.2649
 4010W        W 8061   0.034   1.958   2.031 -0.0412  0.2755 -0.1836
 4011W        W 8062   3.070   5.437   0.303  0.0470  0.0231  0.0640
 4012W        W 8063   3.687   0.587   1.297 -0.2141  0.0020  0.1000
 4013W        W 8064   1.116   5.639   0.536  0.2692  0.0158 -0.1803
 4014W        W 8065   5.686   5.456  11.840  0.4024  0.0664 -0.3320
 4015W        W 8066   9.499   1.819  10.557  0.2863  0.2235  0.2473
 4016W        W 8067   4.221   7.515  11.116 -0.0717 -0.0017 -0.2345
 4017W        W 8068   1.240   5.265  10.948  0.1839  0.0687  0.2885
 4018W        W 8069   1.588   5.618   3.587  0.2166 -0.0111  0.2266
 4019W        W 8070   7.571   1.938   3.851  0.2365  0.1581  0.1229
 4020W        W 8071   9.242   7.087   9.597  0.0171 -0.2037 -0.2324
 4021W        W 8072   4.840   3.510  12.836 -0.1724  0.2132  0.2433
 4022W        W 8073   2.246   1.016   1.665 -0.1938  0.0486  0.0543
 4023W        W 8074   1.368   4.256  12.872  0.1739  0.0113  0.1784
 4024W        W 8075   1.662   1.856   3.126 -0.2759 -0.3509 -0.1204
 4025W        W 8076   5.389   4.012  13.464 -0.2677 -0.1651 -0.2715
 4026W        W 8077   4.340   0.540   3.662 -0.1682 -0.2456  0.2141
 4027W        W 8078   7.016   9.530  12.299  0.0265  0.0541 -0.2649
 4028W        W 8079   9.652   5.994  13.646 -0.1384  0.0199 -0.1238
 4029W        W 8080   7.104   9.470  12.957  0.0422 -0.1712  0.1037
 4030W        W 8081   8.552   3.101  11.510 -0.0167  0.1511  0.0303
 4031W        W 8082   9.826   4.426   4.760 -0.2785  0.1030  0.0036
 4032W        W 8083   3.497   9.564   7.314  0.0995 -0.3513  0.1446
 4033W        W 8084   6.886   0.070   1.722  0.0929 -0.2076 -0.0882
 4034W        W 8085   9.276   3.792  13.737  0.2214  0.1521  0.1268
 4035W        W 8086   1.052   1.467   1.735 -0.1258  0.4082  0.3715
 4036W        W 8087   5.320   4.957   1.793 -0.0270  0.1231  0.0443
 4037W        W 8088   4.444   9.203  12.873  0.2495  0.1929  0.0271
 4038W        W 8089   5.098   6.261   1.877 -0.0069 -0.0946 -0.1764
 4039W        W 8090   1.313   5.202  11.873  0.1259 -0.1569  0.1706
 4040W        W 8091   4.947   5.733   9.551 -0.1393  0.3260  0.1150
 4041W        W 8092   7.132   7.235  10.084  0.0730  0.0231  0.1109
 4042W        W 8093   1.562   3.091  12.071 -0.0259 -0.3135  0.0001
 4043W        W 8094   0.521   5.092  10.243 -0.0956  0.0690  0.0758
 4044W        W 8095   4.871   9.346   4.386  0.2496 -0.1214  0.1263
 4045W        W 8096   1.575   3.025  11.156 -0.2823 -0.0125 -0.3231
 4046W        W 8097   5.308   0.769   9.128  0.0587  0.0218 -0.0399
 4047W        W 8098   0.730   0.851   1.799 -0.2088  0.0463 -0.2039
 4048W        W 8099   2.717   4.527   4.570  0.1348 -0.3278 -0.2798
 4049W        W 8100   9.683   6.026   2.381 -0.1862 -0.0302  0.1690
 4050W        W 8101   7.560   5.299   9.729  0.2065  0.0531  0.0870
 4051W        W 8102   6.206   5.468   4.458 -0.3687  0.0026  0.0537
 4052W        W 8103   1.402   4.162   4.003  0.5327  0.2752 -0.3707
 4053W        W 8104   6.839   3.046   3.746 -0.0061 -0.1912  0.4150
 4054W        W 8105   3.597   1.519  11.048 -0.0337  0.0318 -0.1334
 4055W        W 8106   8.220   5.542   2.312  0.0373 -0.0014 -0.3035
 4056W        W 8107   7.655   7.302  10.141 -0.0944  0.1119 -0.1982
 4057W        W 8108   8.673   5.695   2.167 -0.1450  0.1094  0.2706
 4058W        W 8109   3.312   9.641   0.439  0.1437 -0.1395  0.3271
 4059W        W 8110   5.814   9.624  13.066 -0.0215 -0.0009 -0.0159
 4060W        W 8111   3.346   3.840  12.680 -0.2255 -0.0345 -0.0441
 4061W        W 8112   9.761   3.777   0.609 -0.0822 -0.4205  0.2321
 4062W        W 8113   9.759   8.329   1.860 -0.4736 -0.2362 -0.1101
 4063W        W 8114   0.708   1.683   2.491 -0.1010 -0.0909  0.0595
 4064W        W 8115  10.130  10.119  11.581  0.0687 -0.1622  0.0114
 4065W        W 8116   5.301   3.288   1.737 -0.1068 -0.0074 -0.0358
 4066W        W 8117   0.429   9.567  11.079  0.4098  0.0568  0.1425
 4067W        W 8118   4.973   4.179  13.915 -0.0843 -0.1079 -0.1385
 4068W        W 8119   3.041   1.938   5.150  0.0962  0.0213 -0.0802
 4069W        W 8120   2.260   8.180  12.510  0.1777 -0.0101 -0.3888
 4070W        W 8121   6.567   1.102  12.264  0.1496  0.0413  0.2147
 4071W        W 8122   2.821   6.114  13.655  0.0998  0.2340 -0.1971
 4072W        W 8123   9.423   2.853   2.253 -0.0569 -0.1192  0.0751
 4073W        W 8124   8.512   4.346  12.211  0.0401  0.1215  0.2379
 4074W        W 8125   7.273   5.854  10.676  0.0870  0.0570  0.2213
 4075W        W 8126   7.254   9.363  10.252  0.2158 -0.2161 -0.1960
 4076W        W 8127   8.921   6.617  12.741  0.0115 -0.3034  0.1742
 4077W        W 8128   7.919   1.567  12.501 -0.2440 -0.0836 -0.1252
 4078W        W 8129   4.287   5.701   0.014  0.0992 -0.0903 -0.2447
 4079W        W 8130   9.729   5.568  13.421  0.1610 -0.1719  0.0105
 4080W        W 8131   1.025   5.624   9.615 -0.1328 -0.0533  0.0629
 4081W        W 8132   6.615   8.354   0.946 -0.0533  0.0598  0.1879
 4082W        W 8133   9.019   5.056  10.823 -0.0081  0.0533 -0.0723
 4083W        W 8134   0.446   7.666  10.490 -0.1177 -0.3630 -0.2836
 4084W        W 8135   8.817   8.468   9.658 -0.0897  0.3600 -0.1392
 4085W        W 8136   5.631   9.864   4.270  0.1409 -0.1383  0.1132
 4086W        W 8137   0.960   1.941   0.416  0.0250  0.1420  0.0655
 4087W        W 8138   9.979   3.250   1.211  0.2521  0.0899  0.1080
 4088W        W 8139   5.895   2.420   0.513 -0.3766  0.0374  0.3353
 4089W        W 8140   2.676   3.369   2.994  0.1124  0.0176 -0.2530
 4090W        W 8141   0.566   9.106  10.887  0.0733 -0.1267 -0.1315
 4091W        W 8142   1.971   4.203  12.253  0.3233 -0.0361 -0.3376
 4092W        W 8143   2.307   4.400  11.132 -0.1998  0.0757  0.4128
 4093W        W 8144   8.773   1.787   0.084 -0.2758 -0.3405  0.1748
 4094W        W 8145   0.611   0.322  12.661 -0.1835  0.2286 -0.2333
 4095W        W 8146   5.045   1.950   3.894  0.1153  0.1607  0.2422
 4096W        W 8147   0.276   7.055  13.851 -0.2762  0.1037 -0.1835
 4097W        W 8148   4.408   4.495  11.360 -0.0861 -0.4794  0.0356
 4098W        W 8149   1.284   7.416   0.207 -0.1801 -0.0883 -0.2821
 4099W        W 8150   3.641   8.071   1.451 -0.1465  0.2511 -0.3010
 4100W        W 8151   4.207   1.039   3.576  0.2388  0.1957  0.0136
 4101W        W 8152   6.662   7.506   2.843  0.2452 -0.2239 -0.1412
 4102W        W 8153   1.919   9.989   0.795  0.0273  0.0157 -0.1140
 4103W        W 8154   6.705   3.872   5.650  0.1055  0.2940  0.3389
 4104W        W 8155   0.514   8.167  10.434  0.3342  0.2939  0.3061
 4105W        W 8156   4.771   5.253   0.038 -0.0266  0.3231 -0.2726
 4106W        W 8157   3.868   6.052  10.978  0.0728 -0.4218 -0.0469
 4107W        W 8158   7.592   7.828   2.602 -0.2305  0.1436 -0.1088
 4108W        W 8159   0.259   1.462  10.518 -0.0903 -0.2156  0.0399
 4109W        W 8160   9.429   0.847   1.881  0.0266  0.1245 -0.1022
 4110W        W 8161   2.558   3.336   0.665 -0.1404 -0.1876  0.1720
 4111W        W 8162   4.986   9.077  13.871 -0.0175 -0.4687  0.1596
 4112W        W 8163   1.756   0.817  13.806  0.0745  0.2088  0.1374
 4113W        W 8164   0.498   4.938   3.948 -0.2910 -0.0852  0.1673
 4114W        W 8165   4.443   5.485   8.888 -0.0245  0.0402 -0.3927
 4115W        W 8166   6.110   0.928  13.895  0.1083  0.2937 -0.1306
 4116W        W 8167   2.975   0.593   3.269 -0.3984 -0.1532  0.2089
 4117W        W 8168   0.089   0.644   0.082  0.3898 -0.1888  0.0588
 4118W        W 8169   3.543   3.345  10.607  0.0903  0.2164  0.1950
 4119W        W 8170   3.955   3.437  13.721  0.0516 -0.0207 -0.0277
 4120W        W 8171   0.677   5.888  11.051  0.1744 -0.0297  0.0837
 4121W        W 8172   2.335   0.513  10.362 -0.1990 -0.0604  0.2457
 4122W        W 8173   5.205   1.390   3.285 -0.2667  0.1086 -0.1166
 4123W        W 8174   7.928   1.609   4.839 -0.0099  0.0629  0.2902
 4124W        W 8175   1.933   2.900  13.497  0.1199 -0.0541  0.1561
 4125W        W 8176   4.093   2.252  12.673 -0.2920  0.0121 -0.2136
 4126W        W 8177   5.572   1.481   5.236 -0.2318 -0.1787  0.0564
 4127W        W 8178   1.798   2.423  10.600 -0.0228  0.2288 -0.0182
 4128W        W 8179   5.528   6.714  13.717  0.1133 -0.2767  0.0288
 4129W        W 8180   6.557   5.111  13.342 -0.1266 -0.1513  0.0980
 4130W        W 8181   7.559   5.918   2.256  0.2132 -0.1346 -0.0404
 4131W        W 8182   6.765   0.772  11.136 -0.2319 -0.2557  0.0501
 4132W        W 8183   3.329   6.288  11.066  0.1131 -0.2223  0.2039
 4133W        W 8184  10.149   4.188   2.035 -0.0305  0.1233  0.0968
 4134W        W 8185   8.936   6.430   1.091  0.0229  0.1183 -0.2644
 4135W        W 8186   8.491   9.847  12.811  0.1255 -0.3379  0.2838
 4136W        W 8187   9.015   3.789  12.144  0.0893  0.1394  0.1711
 4137W        W 8188   8.806   1.955  13.656 -0.3708  0.0440  0.1398
 4138W        W 8189   9.534   3.048   1.318  0.1797  0.3234 -0.1688
 4139W        W 8190   3.344   8.698  14.033 -0.3124  0.3213 -0.0142
 4140W        W 8191   3.992   8.997   4.109 -0.2132  0.3038  0.2103
 4141W        W 8192   4.415   3.938   9.521 -0.1732  0.2511 -0.2128
 4142W        W 8193   9.137   8.406   2.601 -0.3250  0.3927  0.2205
 4143W        W 8194   0.755   5.944  13.500  0.1866 -0.1016  0.1412
 4144W        W 8195   7.534   8.425  13.872 -0.0402  0.1190  0.0271
 4145W        W 8196   2.729   2.517   0.250 -0.1337  0.0937  0.1279
 4146W        W 8197   0.015   5.203  12.162 -0.1828  0.3317  0.3523
 4147W        W 8198   5.905   6.242   3.219 -0.0221 -0.1239 -0.2324
 4148W        W 8199   9.894   0.085  12.676  0.0351  0.0954  0.1946
 4149W        W 8200   0.850   3.666  11.040  0.0502 -0.0614 -0.3114
 4150W        W 8201   6.758   5.623  13.396 -0.2471 -0.1987  0.2487
 4151W        W 8202   7.618   2.679  11.829  0.1115  0.1795 -0.0470
 4152W        W 8203   5.772   2.918   3.039 -0.2233 -0.0923 -0.1311
 4153W        W 8204   4.722   7.059  10.318  0.0905 -0.0441  0.3730
 4154W        W 8205   6.369   6.186   0.867 -0.0840  0.0382 -0.3776
 4155W        W 8206   5.374   0.987   2.033  0.0719 -0.1023  0.2301
 4156W        W 8207   7.504   0.501   2.163 -0.0421 -0.1078  0.2144
 4157W        W 8208   7.541   3.845  13.568  0.1819  0.4830 -0.1191
 4158W        W 8209   6.151   1.109   2.508  0.2097  0.0737 -0.0981
 4159W        W 8210   3.679   6.443   1.039 -0.6619 -0.2569 -0.0086
 4160W        W 8211   2.007   7.895   0.496  0.0900  0.3063  0.1320
 4161W        W 8212   6.708   6.855   1.505  0.1343 -0.2151 -0.0578
 4162W        W 8213   4.993   1.093   1.540 -0.1140  0.0474 -0.0287
 4163W        W 8214   8.177   3.070   4.810 -0.2654 -0.2336 -0.0471
 4164W        W 8215   3.345   5.395   3.121  0.0401  0.0157 -0.2029
 4165W        W 8216   6.019   8.779   9.626  0.2224 -0.2371  0.1215
 4166W        W 8217   8.947   4.301   2.526 -0.1134 -0.2714 -0.1881
 4167W        W 8218   1.851   0.745   3.742 -0.0939 -0.0488  0.0484
 4168W        W 8219   7.888   5.612  11.491 -0.4521  0.0112 -0.3136
 4169W        W 8220   9.097   8.293  10.029 -0.2904  0.3557 -0.0548
 4170W        W 8221   0.628   1.867   9.762  0.2569 -0.0872 -0.2568
 4171W        W 8222   5.599   4.694  12.965 -0.1416  0.1586  0.0031
 4172W        W 8223   3.231   5.696   1.342  0.2008 -0.2714  0.0450
 4173W        W 8224   0.902   8.809  11.593 -0.0664 -0.0614  0.0368
 4174W        W 8225   6.630   1.102   0.366 -0.1563  0.1410  0.0856
 4175W        W 8226   7.553  10.080   9.634 -0.0737 -0.0513 -0.1283
 4176W        W 8227   1.229   3.719  12.969 -0.1777 -0.1964 -0.1638
 4177W        W 8228   4.735   5.130  11.833 -0.2010  0.1903  0.2760
 4178W        W 8229   5.492   0.770  11.890 -0.1141  0.1502  0.1342
 4179W        W 8230   5.644   1.832   3.807 -0.0888  0.1598  0.2706
 4180W        W 8231   0.194   6.927   3.358 -0.0417 -0.0052  0.3507
 4181W        W 8232   7.398   8.313  10.774  0.2848 -0.5367  0.2166
 4182W        W 8233   8.970   6.621  12.074 -0.1034  0.1904 -0.2602
 4183W        W 8234   5.754   0.483   4.333  0.1674 -0.0184 -0.3528
 4184W        W 8235   7.068   2.635   3.923 -0.0314  0.3246 -0.0415
 4185W        W 8236   6.670   7.070   8.483  0.0956 -0.2207  0.1882
 4186W        W 8237   6.596   6.689   0.204 -0.5277 -0.0954 -0.2126
 4187W        W 8238   4.048   1.065   1.162 -0.0628 -0.2287 -0.3336
 4188W        W 8239   4.831   0.598   9.318  0.0108  0.1448 -0.1598
 4189W        W 8240   7.998   2.309  12.294  0.0276  0.2213  0.3123
 4190W        W 8241   6.555   9.859   0.177  0.2609 -0.3677 -0.1173
 4191W        W 8242   8.176   6.538   2.296  0.1270 -0.0034  0.0412
 4192W        W 8243   8.702   5.401   4.619  0.2164 -0.3879  0.0228
 4193W        W 8244   6.282   3.833   0.650 -0.3696 -0.0308 -0.2410
 4194W        W 8245   5.574   5.566  10.531 -0.1436 -0.0241 -0.0189
 4195W        W 8246   7.158   0.987  13.492 -0.1737  0.0948  0.1776
 4196W        W 8247   6.720   2.868  10.070  0.0350  0.2963  0.2244
 4197W        W 8248   7.440   1.654  13.511  0.0458 -0.2209 -0.1139
 4198W        W 8249   9.489   4.221   2.824 -0.2746 -0.0024  0.1377
 4199W        W 8250   7.484   1.405   3.790 -0.2265  0.1267  0.0228
 4200W        W 8251   8.900   0.396  11.217  0.1525  0.0109  0.1186
 4201W        W 8252   1.513   4.509  14.045  0.0974 -0.0463 -0.0227
 4202W        W 8253   6.432   1.725   5.031  0.1246 -0.1532 -0.2598
 4203W        W 8254   2.205   8.391  13.781 -0.3287 -0.0076 -0.1333
 4204W        W 8255   6.979   1.119  10.192  0.0426 -0.0008  0.3725
 4205W        W 8256   7.512   0.367  13.147  0.1117  0.1429 -0.1667
 4206W        W 8257   9.852   9.467  12.137 -0.1054  0.0576  0.1979
 4207W        W 8258   9.107   3.605  10.933  0.1713  0.1959 -0.2657
 4208W        W 8259   6.998   0.052   3.317 -0.0834  0.2046  0.1148
 4209W        W 8260   1.687   3.753   9.389  0.1188 -0.2272  0.0585
 4210W        W 8261   7.005   7.499   9.231  0.0821 -0.1193 -0.0223
 4211W        W 8262   4.176   7.279   1.872 -0.4110  0.2413 -0.0306
 4212W        W 8263   9.437   6.765   1.386  0.0275  0.0179  0.1454
 4213W        W 8264   8.106   2.998   2.965 -0.1234  0.2417  0.0340
 4214W        W 8265   7.760   1.732   2.972  0.0046  0.0451  0.2749
 4215W        W 8266   6.914   3.407   0.214  0.1220  0.0662  0.1673
 4216W        W 8267   0.249   8.365  13.628  0.1364  0.0099 -0.0606
 4217W        W 8268   9.309   5.957   2.730  0.3649  0.0802 -0.0892
 4218W        W 8269   0.327   6.026   0.991  0.0250 -0.1502  0.1288
 4219W        W 8270   7.569   5.334   0.610  0.4061  0.0383  0.2323
 4220W        W 8271   4.756   8.550  13.874  0.0810 -0.1528 -0.0201
 4221W        W 8272   6.601   6.369   2.243 -0.3668 -0.0743 -0.1243
 4222W        W 8273   8.072   9.676  13.743  0.0365 -0.0489  0.2781
 4223W        W 8274   4.270   7.303  12.016  0.2269  0.0674  0.2420
 4224W        W 8275   1.678   3.332  13.248 -0.2458  0.0095  0.2293
 4225W        W 8276   7.913   9.372   4.525 -0.1569  0.0371  0.2747
 4226W        W 8277   4.542   7.391   1.594 -0.1822  0.3765 -0.1377
 4227W        W 8278   2.857   4.538   1.843 -0.0489  0.0382 -0.1418
 4228W        W 8279   7.375   3.339   3.182 -0.0340  0.1483 -0.0076
 4229W        W 8280   2.592   6.863   9.674 -0.2116  0.0443 -0.2192
 4230W        W 8281   7.765   6.026  13.062  0.1040  0.0591 -0.1838
 4231W        W 8282   8.451   1.658   1.370  0.0201  0.1585  0.1217
 4232W        W 8283   3.671   9.968   0.430 -0.0631  0.2157 -0.2209
 4233W        W 8284   4.277   3.297  11.003  0.0034  0.3773 -0.0017
 4234W        W 8285   7.912   2.114  11.028 -0.1814  0.3018  0.1918
 4235W        W 8286   7.755   1.459  13.145 -0.1223 -0.0236  0.3092
 4236W        W 8287   0.130   7.867  10.823 -0.0253 -0.1413 -0.1862
 4237W        W 8288   6.669   3.264   4.579 -0.2415 -0.3156 -0.3645
 4238W        W 8289   0.419   3.620   4.710 -0.1004 -0.0317 -0.2536
 4239W        W 8290   5.909   5.440   4.980  0.1232 -0.1584 -0.1496
 4240W        W 8291   3.730   1.276  12.880 -0.2092  0.1332 -0.0165
 4241W        W 8292   2.021   6.432  12.274  0.2395  0.3018  0.3747
 4242W        W 8293   3.389   6.613   0.544 -0.3054  0.1496  0.2787
 4243W        W 8294   0.994   4.897   3.897 -0.1503 -0.0165 -0.0435
 4244W        W 8295   3.602   9.664  10.127  0.1174 -0.1843 -0.2192
 4245W        W 8296   3.927   2.738  12.367  0.1165  0.0476  0.2458
 4246W        W 8297   5.843   6.015   9.778 -0.1419  0.0166  0.2441
 4247W        W 8298   6.013   3.747  12.703  0.2207 -0.2918  0.4774
 4248W        W 8299   5.282   0.160   3.047  0.2702 -0.2392  0.0211
 4249W        W 8300   8.129   1.593  13.435  0.1689  0.0117 -0.0182
 4250W        W 8301   4.064   5.837   9.042  0.3280  0.1605  0.0438
 4251W        W 8302   3.785   8.066   1.960 -0.2036 -0.0184  0.2911
 4252W        W 8303   9.554   2.576  10.389 -0.4697 -0.1328 -0.0969
 4253W        W 8304   4.806   6.781   4.067  0.1409 -0.0244 -0.0673
 4254W        W 8305   4.088   1.135   1.705 -0.2024  0.0281 -0.0407
 4255W        W 8306   8.871   3.619   5.040 -0.0535 -0.1471 -0.2161
 4256W        W 8307  10.107   8.770   1.609 -0.1208  0.0443  0.1389
 4257W        W 8308   9.445   6.317   5.710 -0.1041  0.4223  0.3630
 4258W        W 8309   2.377   2.108   2.124  0.1577 -0.1781  0.0627
 4259W        W 8310   3.873   8.777   2.198 -0.0185 -0.2114 -0.0134
 4260W        W 8311   0.631   6.411  13.442  0.0007  0.0822  0.2327
 4261W        W 8312  10.015   3.383  13.096 -0.0073  0.4344 -0.0035
 4262W        W 8313   6.170   2.073   3.999 -0.1004 -0.2674  0.0057
 4263W        W 8314   4.396   9.808   2.241 -0.1306 -0.0214 -0.2009
 4264W        W 8315   0.980   8.165   3.345  0.1789  0.4057  0.0865
 4265W        W 8316   7.867   0.593   3.161 -0.1605  0.3916 -0.3556
 4266W        W 8317   6.568   0.842   4.820 -0.2511  0.2960 -0.0142
 4267W        W 8318   9.688   4.618  13.990 -0.1690  0.0221 -0.2778
 4268W        W 8319   7.828  10.091   3.116 -0.0286  0.1895  0.2531
 4269W        W 8320   4.857   7.301   2.721  0.2186  0.1542  0.0197
 4270W        W 8321   6.727   2.591   2.397  0.0345 -0.3311 -0.3153
 4271W        W 8322   9.331   0.984   0.059  0.1326  0.0751  0.0747
 4272W        W 8323   8.949   2.150   9.886  0.0814 -0.0893 -0.0644
 4273W        W 8324   6.851   8.343   0.375 -0.1284  0.2762 -0.3192
 4274W        W 8325   5.146   2.861   4.481 -0.1941 -0.2004 -0.0512
 4275W        W 8326   8.045   6.894  10.192  0.0878  0.0902  0.0815
 4276W        W 8327   6.244   1.328   3.604 -0.1780 -0.3427  0.2462
 4277W        W 8328   1.050   2.723  10.055 -0.0870  0.0176 -0.0498
 4278W        W 8329   2.453   0.123   3.207 -0.0819 -0.0229  0.1546
 4279W        W 8330   5.849   6.275   3.939  0.3020 -0.0021 -0.2131
 4280W        W 8331   0.408   2.745   2.965 -0.0262  0.2261  0.1479
 4281W        W 8332   3.178   4.116  13.606  0.1568 -0.0643  0.1473
 4282W        W 8333   1.179   1.756  10.916 -0.0421  0.2001  0.2343
 4283W        W 8334   1.156   5.373  14.012  0.1096  0.0373 -0.1855
 4284W        W 8335   2.387   8.181   1.221  0.0879 -0.3081 -0.1094
 4285W        W 8336   5.646   5.905  12.863  0.1373  0.1674 -0.2014
 4286W        W 8337   6.396   7.959   4.471 -0.1361 -0.0667 -0.0969
 4287W        W 8338   8.342   4.814  12.022 -0.1547  0.1831  0.0357
 4288W        W 8339   4.070   9.810   4.122 -0.0549 -0.1424 -0.1630
 4289W        W 8340   6.760   0.935   3.353  0.1681  0.1539  0.1400
 4290W        W 8341   1.509   2.407   1.755 -0.1972 -0.0301 -0.1085
 4291W        W 8342   6.501   9.721  12.455  0.1768 -0.2535  0.5327
 4292W        W 8343   2.326   3.502  12.762 -0.0384 -0.3276  0.3232
 4293W        W 8344   6.455   7.100  14.036  0.0549  0.1938  0.0705
 4294W        W 8345   5.734   7.829  12.620 -0.1385  0.3250  0.1454
 4295W        W 8346   9.180   4.185   3.248 -0.0414  0.0822 -0.0087
 4296W        W 8347   4.670   8.424  10.598  0.0736 -0.1093  0.0323
 4297W        W 8348   9.629   0.358   1.187 -0.1944  0.1944 -0.3562
 4298W        W 8349   3.550   2.127   4.864 -0.1679 -0.0559  0.0393
 4299W        W 8350   1.052   9.733   0.352 -0.0922  0.0526  0.0653
 4300W        W 8351   8.053   3.840  13.745 -0.3310 -0.2156 -0.1103
 4301W        W 8352   0.532   5.120  12.172  0.1347  0.2493 -0.2191
 4302W        W 8353   3.467   8.895   3.981  0.1924 -0.0552  0.2708
 4303W        W 8354   4.288   8.264   3.746  0.1027 -0.0107  0.0538
 4304W        W 8355   9.234   3.889   0.253 -0.1506  0.0837 -0.1251
 4305W        W 8356   0.151   3.301  13.470  0.0419 -0.2971  0.0156
 4306W        W 8357   8.574   6.412   5.162 -0.3297 -0.2310 -0.0314
 4307W        W 8358   7.198   5.755   1.712 -0.2884 -0.1769 -0.2082
 4308W        W 8359   9.212   4.906   1.325  0.0550  0.1240 -0.0465
 4309W        W 8360   9.062   7.242   4.252 -0.1632 -0.1574  0.0706
 4310W        W 8361   1.504   6.972   2.591 -0.1505 -0.3457  0.2742
 4311W        W 8362   8.440   6.489  11.996 -0.0023  0.1973  0.0820
 4312W        W 8363   7.547   7.122  11.451 -0.2463 -0.0547 -0.1459
 4313W        W 8364   3.461   5.866   4.823 -0.1123  0.4263 -0.1844
 4314W        W 8365   1.059   3.581  13.796 -0.2616  0.0397  0.0206
 4315W        W 8366   6.565   6.226   9.923 -0.2481 -0.1899  0.1683
 4316W        W 8367   0.684   1.337   4.270  0.0187 -0.3890  0.1049
 4317W        W 8368   9.553   0.171  13.127  0.2999 -0.0373  0.0872
 4318W        W 8369   5.168   9.805   4.376 -0.0576  0.0365 -0.1263
 4319W        W 8370   9.493   1.302   0.622 -0.4097 -0.0581  0.2359
 4320W        W 8371  10.064   4.011   0.252  0.0205  0.1111 -0.4473
 4321W        W 8372   2.567   0.662   4.355 -0.0417  0.0123 -0.0547
 4322W        W 8373   3.044   0.940   2.548 -0.2361  0.1546  0.3205
 4323W        W 8374   6.570   1.690   3.829  0.3899 -0.0772 -0.0471
 4324W        W 8375   0.006   6.818  11.755 -0.0934 -0.2119  0.3401
 4325W        W 8376   6.685   0.438   9.684 -0.2770 -0.2140 -0.2197
 4326W        W 8377   8.762   9.776  12.297 -0.2700  0.0182 -0.0265
 4327W        W 8378   3.235   4.815   3.205 -0.2897 -0.0389 -0.0697
 4328W        W 8379   7.832   0.710  13.467 -0.0035 -0.0215 -0.0087
 4329W        W 8380   2.356  10.014  11.253 -0.0959 -0.2889 -0.0950
 4330W        W 8381   2.862   6.663   1.350  0.0184 -0.0093  0.3558
 4331W        W 8382   9.470   4.511  12.460 -0.1919  0.1161  0.1197
 4332W        W 8383   7.923   8.173   5.488  0.0176  0.3142  0.4151
 4333W        W 8384   8.169   4.696  13.023  0.0816  0.0328  0.0195
 4334W        W 8385   5.402   2.699   0.797  0.1407 -0.0145 -0.0611
 4335W        W 8386   3.767   8.809  13.287 -0.1478 -0.1223 -0.3291
 4336W        W 8387   3.843   4.846   9.715 -0.3058 -0.0448 -0.0659
 4337W        W 8388   0.200   6.724   2.371 -0.0579 -0.0675 -0.2999
 4338W        W 8389   6.815   0.621   2.947 -0.4408  0.1151 -0.1712
 4339W        W 8390   8.596   0.332  10.767  0.0744 -0.0827 -0.2678
 4340W        W 8391   8.906   7.039   3.804  0.2634 -0.1745  0.4354
 4341W        W 8392   3.058   3.073  12.896  0.3099  0.1741  0.1063
 4342W        W 8393   8.055   8.722  10.074  0.0491 -0.0793  0.1264
 4343W        W 8394   2.916   2.170   1.171 -0.4750 -0.0125  0.2142
 4344W        W 8395   9.321   8.466   0.968 -0.1942 -0.0460  0.0033
 4345W        W 8396   9.476   3.504   0.986  0.1542  0.2618  0.0685
 4346W        W 8397   6.296   8.942   1.910 -0.2630  0.0904 -0.1383
 4347W        W 8398   1.222   3.319  11.303 -0.3309 -0.0588  0.3575
 4348W        W 8399   7.593   4.050   3.766  0.1509 -0.2125  0.0154
 4349W        W 8400   1.427   4.031   4.887  0.0344 -0.2103  0.1142
 4350W        W 8401   4.336   2.424   3.549  0.0449 -0.1121 -0.0842
 4351W        W 8402   5.812   8.499  11.234 -0.0144  0.0472 -0.4214
 4352W        W 8403   7.561   0.954  11.335  0.1589 -0.0470  0.3199
 4353W        W 8404   1.808   7.498  13.086 -0.1258  0.1592  0.2060
 4354W        W 8405   2.935   1.689  10.152  0.0097 -0.2581  0.1947
 4355W        W 8406   6.844   5.315   4.523  0.2590 -0.0052 -0.0957
 4356W        W 8407   0.339   5.848   4.359  0.1143 -0.1124 -0.0789
 4357W        W 8408   8.030   9.105  14.016  0.1155  0.6133  0.2403
 4358W        W 8409   6.303   3.251   1.569 -0.1568  0.1567  0.2114
 4359W        W 8410   2.421   0.346   2.085 -0.1816 -0.2779 -0.0940
 4360W        W 8411   0.194   8.331  12.657 -0.0849 -0.1905  0.0338
 4361W        W 8412   8.135   0.421   0.291 -0.0136 -0.2427 -0.0795
 4362W        W 8413   4.188   1.258   2.156 -0.2210  0.1034 -0.3720
 4363W        W 8414   8.399   9.394   3.689  0.2520  0.3040 -0.0322
 4364W        W 8415   2.041   7.170  11.368  0.1898  0.3020 -0.1771
 4365W        W 8416   5.403   0.244   9.671  0.1642  0.1625 -0.2127
 4366W        W 8417   8.827   2.828   0.923  0.0789 -0.1471  0.1987
 4367W        W 8418   1.500   4.855  13.723 -0.2647  0.1957  0.0652
 4368W        W 8419   7.501   7.575   9.321  0.0012  0.2879  0.1097
 4369W        W 8420   7.627   7.786  10.686 -0.0209  0.0206  0.0516
 4370W        W 8421   8.150   7.052   0.438 -0.0846  0.0334 -0.1854
 4371W        W 8422   2.862   3.133   1.047  0.0153  0.0714 -0.0694
 4372W        W 8423   3.202   6.049  10.186  0.0610  0.0931 -0.1328
 4373W        W 8424   4.784   0.930  11.183 -0.0188  0.1264 -0.2691
 4374W        W 8425   2.200   3.702   4.645  0.1700 -0.0612 -0.2201
 4375W        W 8426   4.023   3.152   9.674  0.0316  0.0170  0.1588
 4376W        W 8427   7.131   8.804  10.808 -0.0915  0.0261  0.0395
 4377W        W 8428   1.456   6.155  12.923 -0.0233  0.2444 -0.0757
 4378W        W 8429   8.219   2.487  11.053  0.1587 -0.0387  0.0232
 4379W        W 8430   0.542   5.758   0.634 -0.1550 -0.1710  0.0985
 4380W        W 8431   6.236   9.326  11.689 -0.1534  0.2912  0.0380
 4381W        W 8432   7.525   1.362   3.267  0.0266 -0.0395  0.0399
 4382W        W 8433   7.117   3.733  13.056 -0.3926  0.0396 -0.0741
 4383W        W 8434   5.195   7.744   0.324  0.2141  0.0833 -0.0492
 4384W        W 8435   9.702   8.487   4.715 -0.3084 -0.2933 -0.0595
 4385W        W 8436   7.198   2.439  10.852 -0.2776  0.1527 -0.0448
 4386W        W 8437   4.366   5.532  12.736 -0.3360  0.2064  0.1800
 4387W        W 8438   4.850   4.239   2.839 -0.1980  0.4297  0.2114
 4388W        W 8439  10.094   7.981   4.398  0.3823 -0.0963 -0.1392
 4389W        W 8440   8.126   9.128  11.209 -0.1143 -0.0442  0.4517
 4390W        W 8441   9.185   4.584   0.235 -0.0860 -0.1144 -0.2828
 4391W        W 8442   5.675   1.839   9.902  0.2714 -0.1327 -0.3616
 4392W        W 8443   4.112   3.843   3.201 -0.0127  0.0538 -0.0840
 4393W        W 8444   6.544   2.829   2.790 -0.3592  0.5338 -0.0870
 4394W        W 8445   2.413   9.821   0.898  0.1340  0.1822 -0.5366
 4395W        W 8446   2.206   1.493  11.571 -0.2222 -0.2115 -0.0269
 4396W        W 8447   0.139   4.594   0.829 -0.0548  0.0533  0.3636
 4397W        W 8448   9.997   5.753  12.837 -0.0053 -0.0638 -0.1010
 4398W        W 8449   4.021   1.462   0.437 -0.1449 -0.1150  0.0300
 4399W        W 8450   6.911   5.769  11.862 -0.0623  0.2142  0.1416
 4400W        W 8451   3.001   4.154  13.020 -0.0872  0.1588  0.0618
 4401W        W 8452   4.396   6.052  12.813 -0.1640  0.0147  0.0830
 4402W        W 8453   9.525   9.914  13.506  0.2186 -0.1002 -0.0517
 4403W        W 8454   5.553  10.142   1.617 -0.5072  0.0116  0.0504
 4404W        W 8455   3.439   1.623  10.298 -0.2985  0.1713 -0.0696
 4405W        W 8456   9.451   7.349   3.886  0.2164 -0.1102 -0.2419
 4406W        W 8457   3.577   0.630  14.005  0.0792 -0.0151 -0.0122
 4407W        W 8458   7.895   6.643   3.000  0.1497 -0.1676 -0.1324
 4408W        W 8459   5.074   0.008  13.356 -0.2408 -0.1495  0.1787
 4409W        W 8460   3.727   0.260  12.158 -0.0303  0.0846  0.2244
 4410W        W 8461  10.053   3.279   2.147 -0.1865  0.1478 -0.0259
 4411W        W 8462   3.845   6.828   0.659 -0.0975  0.0676 -0.1602
 4412W        W 8463   5.984   1.989  10.746  0.0885 -0.2009 -0.2284
 4413W        W 8464   4.199   6.800   2.822  0.1029  0.2218  0.1046
 4414W        W 8465   9.960   5.213  12.728  0.1740  0.1114  0.0242
 4415W        W 8466   6.823   5.399  12.967  0.0343  0.2072 -0.2013
 4416W        W 8467   5.241   6.125   3.088  0.1211  0.2422 -0.3370
 4417W        W 8468   8.995   0.110   1.191  0.1487 -0.0526 -0.1373
 4418W        W 8469   0.838   7.426   0.940  0.0365 -0.2634 -0.2581
 4419W        W 8470   1.447   0.910  10.714  0.1712  0.2517  0.2973
 4420W        W 8471   9.878   6.716   0.988  0.1163  0.1521 -0.2004
 4421W        W 8472   8.696   5.068  11.808  0.2030 -0.1115 -0.1519
 4422W        W 8473   9.777   0.965  10.407 -0.0491  0.0311  0.2361
 4423W        W 8474   2.325   6.754   4.171  0.0017 -0.0869  0.0272
 4424W        W 8475   7.888   4.828  10.678  0.0160  0.0801 -0.1471
 4425W        W 8476   7.994   0.146  13.076 -0.0753 -0.0521 -0.5154
 4426W        W 8477   8.587   1.101   0.553 -0.1871 -0.2435  0.1092
 4427W        W 8478   1.026   9.676  12.187 -0.1480  0.0839 -0.0895
 4428W        W 8479   0.154   8.027   1.098 -0.1873  0.1864  0.0377
 4429W        W 8480   3.551   4.165   5.432 -0.1122 -0.2126 -0.1351
 4430W        W 8481   0.977   3.230   1.581 -0.1721  0.1045 -0.1848
 4431W        W 8482   9.299   5.970   3.292 -0.1329  0.4094 -0.1343
 4432W        W 8483   1.247   7.270   0.725  0.4404 -0.1863  0.1682
 4433W        W 8484   5.648   2.410   3.032  0.1021 -0.2319  0.2502
 4434W        W 8485   0.202   2.852  11.974  0.1911 -0.2930 -0.3284
 4435W        W 8486   8.506   1.575   0.437 -0.1028 -0.0033  0.0666
 4436W        W 8487   1.747   2.062  12.262 -0.0671 -0.0309  0.0426
 4437W        W 8488   7.552   6.334   9.763  0.0905 -0.1994  0.0781
 4438W        W 8489   8.865  10.003   2.018 -0.0755  0.1410  0.0399
 4439W        W 8490   4.335   6.470  12.368  0.3183  0.1988  0.2705
 4440W        W 8491   2.746   3.524   1.571  0.0768 -0.0361 -0.1839
 4441W        W 8492   8.803   9.636   3.148  0.2985 -0.0978 -0.0275
 4442W        W 8493   8.470   4.902   9.593 -0.3052  0.4795  0.2569
 4443W        W 8494   3.991   7.539  13.243  0.2533 -0.1708 -0.0731
 4444W        W 8495   1.205   4.560  11.161 -0.0016  0.2407  0.2346
 4445W        W 8496   7.953   2.270   1.680 -0.1664 -0.1827 -0.0988
 4446W        W 8497   8.273   7.338  10.096 -0.0637 -0.0505  0.0346
 4447W        W 8498   8.489   2.164   9.687  0.0989 -0.0700  0.1667
 4448W        W 8499   5.037   3.626   5.843 -0.0941 -0.0589 -0.0942
 4449W        W 8500   5.542   1.877  10.408  0.0167 -0.0032 -0.2722
 4450W        W 8501   7.392   6.726   0.848 -0.1817  0.0466  0.2950
 4451W        W 8502   2.674   4.190   9.763  0.2048  0.0948  0.0322
 4452W        W 8503   4.675   0.790   2.745  0.1881 -0.1562  0.1591
 4453W        W 8504   5.189   3.129  10.874  0.2604 -0.0714 -0.1209
 4454W        W 8505   5.623   8.028   9.630  0.3028  0.0148  0.3157
 4455W        W 8506   7.608   6.757   1.486 -0.0449  0.3353  0.2416
 4456W        W 8507   9.580   7.414   2.421  0.1233  0.2303  0.3582
 4457W        W 8508   3.565   3.131   0.179  0.0550 -0.0618  0.0864
 4458W        W 8509   3.851   1.516   3.803 -0.1131 -0.2299  0.0524
 4459W        W 8510   4.294   7.571   4.559 -0.1116 -0.1955  0.2334
 4460W        W 8511   6.739   4.037  12.319  0.1644  0.0125  0.2734
 4461W        W 8512   9.989   4.163   3.738 -0.0897  0.4215 -0.5313
 4462W        W 8513   4.261   3.178   0.880 -0.3183 -0.4325  0.0186
 4463W        W 8514   4.964   3.096  13.212  0.0172  0.0834  0.0454
 4464W        W 8515   2.751   5.687  11.865  0.2305 -0.2650  0.2707
 4465W        W 8516   6.330   0.168   0.323 -0.0664 -0.1370  0.0965
 4466W        W 8517   7.046   8.841   3.447 -0.0672 -0.0071 -0.0014
 4467W        W 8518   9.631   3.781   3.803 -0.1179 -0.4059 -0.1685
 4468W        W 8519   0.547   2.612  10.142  0.0017 -0.2807 -0.1618
 4469W        W 8520   6.148   1.334  11.350  0.0572 -0.0289  0.0412
 4470W        W 8521   7.684   5.458   2.320 -0.0983 -0.3018  0.1547
 4471W        W 8522   8.998   2.271   3.804 -0.2652 -0.0298  0.4175
 4472W        W 8523   6.915   0.317  12.661  0.0220 -0.0210 -0.0827
 4473W        W 8524   7.372   3.947  12.148 -0.1107 -0.1461 -0.2885
 4474W        W 8525   2.548   1.016  12.239  0.0382 -0.0592  0.0358
 4475W        W 8526   0.853   0.405  12.172 -0.1186  0.0357 -0.3844
 4476W        W 8527   0.455   3.438  11.323  0.3958  0.2326 -0.3145
 4477W        W 8528  10.060   2.461  13.679  0.1652 -0.0292 -0.0009
 4478W        W 8529   4.476   4.327  12.314 -0.0264 -0.1191  0.0231
 4479W        W 8530   5.175  10.120  10.854  0.2581 -0.3293  0.1151
 4480W        W 8531   3.494   4.360  13.021 -0.0356 -0.1422  0.2889
 4481W        W 8532   8.270   0.104  11.840 -0.0170 -0.0429 -0.3791
 4482W        W 8533   2.443   2.290   4.434  0.0970  0.2260  0.1657
 4483W        W 8534   6.117   5.269  12.144 -0.1339 -0.0294 -0.0890
 4484W        W 8535   7.431   4.628   2.954 -0.1674  0.0427  0.0276
 4485W        W 8536   2.515   6.757   3.682  0.0253  0.0072 -0.2449
 4486W        W 8537   7.473   8.950   2.116 -0.0803  0.2673 -0.0567
 4487W        W 8538   6.983   3.614  12.513  0.1309 -0.1797  0.0873
 4488W        W 8539   3.478   4.458   4.920  0.1845 -0.0751  0.0191
 4489W        W 8540   0.604   7.110  13.019  0.2123 -0.0821  0.0927
 4490W        W 8541   7.985   0.870  11.757 -0.1909 -0.1260  0.1353
 4491W        W 8542   2.457   7.230  11.074  0.3312  0.0920  0.0832
 4492W        W 8543   9.831   2.913   5.041 -0.0043  0.1289  0.3556
 4493W        W 8544   4.055   4.126   1.428 -0.0431  0.1787  0.0101
 4494W        W 8545   4.322   1.114  10.543 -0.0943 -0.0057  0.1477
 4495W        W 8546   4.464   2.885   9.853 -0.0496 -0.2303  0.0309
 4496W        W 8547   1.688   9.342   3.509  0.1876 -0.1572 -0.0293
 4497W        W 8548   9.341   2.214  12.545  0.0578 -0.2144 -0.0424
 4498W        W 8549   3.324   7.404   0.379 -0.3533 -0.0279 -0.2124
 4499W        W 8550   5.721   5.327   4.287  0.0887  0.2271 -0.1506
 4500W        W 8551   3.990   4.650  12.374  0.0982  0.1257  0.0563
 4501W        W 8552   1.516   5.307   3.111 -0.1155  0.0776 -0.1040
 4502W        W 8553   8.286   2.373   4.371 -0.2091 -0.2037 -0.5342
 4503W        W 8554   2.451   4.812   3.771  0.2242  0.1274  0.2161
 4504W        W 8555   8.213   7.945   2.651  0.0604  0.0005 -0.1619
 4505W        W 8556   4.655   6.600   3.576 -0.2471  0.3108 -0.0757
 4506W        W 8557   0.092   4.272   9.932  0.1459  0.0209 -0.0260
 4507W        W 8558   4.074   8.753   9.720  0.1854 -0.0428 -0.2896
 4508W        W 8559   8.246   0.681   2.351 -0.1137  0.1584 -0.0412
 4509W        W 8560   4.934   3.217  13.747 -0.1023 -0.0992  0.0139
 4510W        W 8561   7.956   3.329  11.476 -0.1335 -0.0051  0.2416
 4511W        W 8562   8.330  10.122   1.899 -0.0426  0.1397  0.2785
 4512W        W 8563   0.588   2.922   9.622  0.3011  0.0425 -0.2080
 4513W        W 8564   8.026   6.131   9.872  0.3606 -0.0837  0.5295
 4514W        W 8565   5.534   2.553   5.174  0.0135 -0.1578  0.1249
 4515W        W 8566   8.303   3.791   0.326 -0.1363 -0.2250  0.0726
 4516W        W 8567   4.259   8.925   0.516 -0.0893  0.0927 -0.0526
 4517W        W 8568   6.626   5.291  12.458  0.0776  0.1405 -0.1798
 4518W        W 8569   0.186   3.855  11.530 -0.1978 -0.2911 -0.0382
 4519W        W 8570   6.072   9.067   3.721  0.0689 -0.2500  0.3652
 4520W        W 8571   6.971   2.431   9.982  0.1212  0.1065  0.0688
 4521W        W 8572   6.576   8.419   4.630  0.0933 -0.2811  0.0707
 4522W        W 8573   9.922   3.131  10.867  0.1522 -0.2100 -0.0871
 4523W        W 8574   7.433   2.382   2.234 -0.1013 -0.2220 -0.3642
 4524W        W 8575   5.442   8.872  10.331  0.0360  0.1669 -0.2881
 4525W        W 8576   8.500   5.434   9.481 -0.2688 -0.3105 -0.1562
 4526W        W 8577   3.013   3.829  12.239 -0.0144  0.0312 -0.0414
 4527W        W 8578   7.897  10.147   1.615  0.1789  0.3219 -0.1014
 4528W        W 8579   1.057   3.084  13.899  0.2189 -0.3910  0.2016
 4529W        W 8580   0.248   0.786   1.091  0.0330 -0.0648  0.2518
 4530W        W 8581   0.625   2.138   1.290 -0.6212 -0.0957  0.2702
 4531W        W 8582   5.251   0.300   1.237 -0.2579 -0.3289  0.1439
 4532W        W 8583   6.195   0.691  10.144  0.1863 -0.0764  0.0584
 4533W        W 8584   1.197   5.339   5.186 -0.3847  0.0467 -0.0639
 4534W        W 8585   5.317   9.427  14.016  0.1342  0.3872  0.1831
 4535W        W 8586   3.123   2.601  11.029 -0.1143 -0.0558 -0.0831
 4536W        W 8587   4.834   9.749  13.663  0.1870 -0.4082 -0.0428
 4537W        W 8588   4.347  10.109   1.694  0.1444  0.1830 -0.0839
 4538W        W 8589   7.638   0.018  13.968  0.4597  0.0918  0.0409
 4539W        W 8590   5.827   1.546  12.922 -0.3369 -0.0103  0.2156
 4540W        W 8591   4.056   5.451   4.951 -0.1014  0.1022  0.3622
 4541W        W 8592   4.526   8.969  10.425  0.0355  0.3052 -0.0327
 4542W        W 8593   0.151   7.715   1.551  0.0224 -0.2626  0.1625
 4543W        W 8594   1.679   9.338  11.477  0.3384 -0.0813  0.0190
 4544W        W 8595   3.141   3.555   2.761 -0.0659 -0.0456 -0.0947
 4545W        W 8596   7.334   4.523  10.415  0.8522  0.0172  0.0562
 4546W        W 8597   5.544   5.903  10.154  0.0724 -0.0627  0.3222
 4547W        W 8598   2.338   1.433   1.354 -0.2148 -0.1023 -0.2969
 4548W        W 8599   6.965   5.359   3.984  0.1205  0.2315 -0.2647
 4549W        W 8600   0.297   5.277   0.114 -0.2055  0.1183  0.1992
 4550W        W 8601   4.681   5.281  11.324  0.1270 -0.3228  0.4493
 4551W        W 8602   7.228   0.345  10.440 -0.0164 -0.0514 -0.2009
 4552W        W 8603   8.173   6.174  12.670  0.1136  0.1451 -0.4195
 4553W        W 8604   2.899  10.034  11.316 -0.0111 -0.1143 -0.0657
 4554W        W 8605   0.899   4.097   3.890  0.0999  0.1397  0.0905
 4555W        W 8606   3.498   4.029   1.917  0.0128  0.1049 -0.1439
 4556W        W 8607   0.900   1.668  11.726 -0.2891 -0.2030 -0.0592
 4557W        W 8608   4.116   6.801   3.482 -0.3413  0.2759  0.0097
 4558W        W 8609   9.378   1.985   4.382 -0.1243  0.1784  0.0773
 4559W        W 8610   5.571   6.534  11.931  0.2366 -0.1527 -0.1897
 4560W        W 8611   6.745   2.246  12.444 -0.0057  0.0073  0.0823
 4561W        W 8612   8.869   5.478   9.859  0.0132  0.1149  0.0598
 4562W        W 8613   7.408   5.013  10.304  0.1339 -0.4952  0.0199
 4563W        W 8614   0.041   6.496   9.819  0.0594  0.0085 -0.0875
 4564W        W 8615   5.473   8.673  12.537  0.0038 -0.3304  0.4191
 4565W        W 8616   7.335   6.492  13.189  0.0045  0.0311 -0.2359
 4566W        W 8617   6.505   3.530   1.976  0.1869  0.0657  0.3060
 4567W        W 8618   3.547   2.008  10.984  0.3907 -0.2710  0.3039
 4568W        W 8619   4.052   4.624   0.369  0.0956  0.3378 -0.1785
 4569W        W 8620   0.923   1.089  11.676 -0.2445 -0.0916 -0.0005
 4570W        W 8621   7.926   9.140   3.504  0.1206  0.0254  0.1787
 4571W        W 8622   5.545   7.725  11.054  0.4200  0.1033 -0.0420
 4572W        W 8623   5.542   0.686  11.089  0.0836  0.1605  0.1949
 4573W        W 8624   8.961   4.477  13.321  0.3606 -0.0408  0.1117
 4574W        W 8625   1.449   3.364  10.784 -0.1282 -0.1023  0.1510
 4575W        W 8626   5.383   9.909   9.177  0.0053  0.0254  0.2024
 4576W        W 8627   0.613   4.045  11.283  0.0663  0.3267 -0.0099
 4577W        W 8628   1.181   0.162   1.757 -0.1723  0.2376 -0.0233
 4578W        W 8629   6.046   3.766   1.949 -0.1141  0.0508 -0.2524
 4579W        W 8630   6.607   9.545   3.785  0.1917  0.0209 -0.1916
 4580W        W 8631   7.096   0.392  10.922  0.0059 -0.2656 -0.0270
 4581W        W 8632   4.020   4.303   0.901 -0.1544  0.2881  0.0899
 4582W        W 8633   3.095   7.200  13.299 -0.1287 -0.0986  0.0800
 4583W        W 8634   9.223   3.403  13.253 -0.0630 -0.0723  0.2448
 4584W        W 8635   5.207   1.558  10.061 -0.1065  0.0552  0.0991
 4585W        W 8636   7.680   2.563  13.483 -0.2354 -0.0065  0.0495
 4586W        W 8637   3.353   9.791  11.340  0.1131  0.0311 -0.4567
 4587W        W 8638   4.596   1.293  10.913  0.0822 -0.2915 -0.0597
 4588W        W 8639   2.092   5.734   0.520  0.0231  0.0271  0.1827
 4589W        W 8640   8.497   1.976  10.904 -0.1508  0.0790  0.0175
 4590W        W 8641   9.784   9.092  10.699  0.3597 -0.0903 -0.0427
 4591W        W 8642   6.019   2.574   4.457  0.0310  0.2142 -0.0453
 4592W        W 8643   5.495   5.854   2.136 -0.0588  0.0972 -0.3245
 4593W        W 8644   0.292   3.642  13.108  0.0674  0.0859  0.0499
 4594W        W 8645   9.445   6.128   1.114  0.0282  0.3849  0.0209
 4595W        W 8646   3.168   4.712   2.390 -0.2022  0.0664  0.0771
 4596W        W 8647   9.874   3.445   4.197  0.0728  0.0019 -0.1990
 4597W        W 8648   6.132   5.941   2.344  0.1768 -0.1872 -0.1969
 4598W        W 8649   7.398   8.489   3.604  0.1057  0.0998  0.2774
 4599W        W 8650   2.995   1.482   3.831  0.1015  0.2136  0.0214
 4600W        W 8651   1.263   3.429   3.714  0.0114  0.2907 -0.0207
 4601W        W 8652   4.574   6.577  10.987 -0.1199 -0.1010  0.1763
 4602W        W 8653   8.525   9.267   9.787  0.1159  0.0522  0.0969
 4603W        W 8654   0.039   0.851   0.573 -0.1789  0.1101 -0.0297
 4604W        W 8655   8.222   7.065   2.989 -0.2596 -0.1106  0.2542
 4605W        W 8656   2.675   9.696   2.423 -0.0577 -0.1293 -0.1394
 4606W        W 8657   5.781   5.476   9.996  0.0613 -0.2076 -0.2569
 4607W        W 8658   8.205   5.289  11.783  0.2844  0.0536  0.0147
 4608W        W 8659   4.018   0.621   0.910  0.0391 -0.1404 -0.1064
 4609W        W 8660   1.363   0.759   0.075  0.0242 -0.1389 -0.2572
 4610W        W 8661   9.572   7.765   1.977 -0.2842  0.0569  0.1047
 4611W        W 8662   8.434   5.354  13.800 -0.1628  0.1889  0.0431
 4612W        W 8663   6.343   4.291   4.338 -0.1372 -0.3255  0.0450
 4613W        W 8664  10.145   3.289  12.181 -0.1452  0.1748  0.0367
 4614W        W 8665   7.709   3.937   0.842  0.4065 -0.0644 -0.1784
 4615W        W 8666   1.107   3.197   9.989  0.0663  0.2391  0.0088
 4616W        W 8667   1.089   2.784  13.007  0.1308  0.0336  0.0480
 4617W        W 8668   0.881   3.625  11.555 -0.0510  0.1724  0.1208
 4618W        W 8669   5.228   8.193  13.614  0.0539 -0.2972  0.0198
 4619W        W 8670   2.477   5.082   4.283  0.2500 -0.1088 -0.0592
 4620W        W 8671   3.651   0.276  13.066  0.1577 -0.2677 -0.0432
 4621W        W 8672   1.570   2.386   0.934 -0.7652  0.1095 -0.0541
 4622W        W 8673   9.194   8.438   4.247 -0.1785  0.0284 -0.1998
 4623W        W 8674   1.069   0.959   4.125  0.4241  0.4282 -0.1719
 4624W        W 8675   3.820   2.588  12.880 -0.1663 -0.0184 -0.0293
 4625W        W 8676   7.616   4.327  12.407 -0.1723 -0.0102  0.0827
 4626W        W 8677   2.220   4.305   1.125  0.1805 -0.1494 -0.2178
 4627W        W 8678   7.668   5.464   3.213  0.0444  0.3246 -0.0170
 4628W        W 8679   6.982  10.008  12.095 -0.1328  0.1913 -0.0493
 4629W        W 8680  10.085   2.894  13.360 -0.1600  0.0999  0.0528
 4630W        W 8681   5.785  10.120  10.689  0.0273  0.1435  0.1474
 4631W        W 8682   7.754   5.220   9.285  0.3254 -0.2039 -0.0471
 4632W        W 8683   2.108   6.751   9.522 -0.3005 -0.1265 -0.0940
 4633W        W 8684   3.519   1.101   1.135  0.0408  0.4270  0.2908
 4634W        W 8685   4.205   2.986   2.341 -0.1719 -0.0185 -0.1752
 4635W        W 8686   1.637   3.118   1.069 -0.2613  0.1635 -0.0634
 4636W        W 8687   6.213   3.629  10.642 -0.2534  0.1205  0.1151
 4637W        W 8688   3.008   4.981  10.794  0.0891 -0.1432 -0.3423
 4638W        W 8689   0.247   5.993  11.462  0.0936 -0.1692 -0.3084
 4639W        W 8690   4.660   7.068   1.917 -0.1291  0.1442 -0.1219
 4640W        W 8691   6.502   6.832   2.967 -0.0878 -0.0153  0.0235
 4641W        W 8692   9.379   7.982   0.635 -0.0388  0.3264  0.2110
 4642W        W 8693   3.358   6.705   2.410  0.1784  0.2493  0.2916
 4643W        W 8694   9.629   0.247   2.597  0.1258  0.0925  0.0591
 4644W        W 8695   5.914   3.608  12.220 -0.1690 -0.0432 -0.1961
 4645W        W 8696   5.618   6.552   8.380 -0.0064 -0.3345 -0.2294
 4646W        W 8697   7.023   4.406   1.582 -0.2676  0.0605 -0.1892
 4647W        W 8698   5.398   6.390  13.289 -0.1059 -0.0679 -0.2166
 4648W        W 8699   6.414   8.030   2.282 -0.0879  0.1514  0.1603
 4649W        W 8700   7.202   9.483   2.945 -0.1426 -0.0911  0.2396
 4650W        W 8701   0.169   6.941   1.103  0.2465 -0.1355  0.3631
 4651W        W 8702   0.518   0.853   2.996 -0.2957  0.1647 -0.1663
 4652W        W 8703   7.265   7.653   3.944 -0.1314  0.2399 -0.1159
 4653W        W 8704   0.041   3.988  13.427 -0.0354 -0.2194  0.0132
 4654W        W 8705   6.476   0.364   8.843 -0.3159  0.0757  0.0957
 4655W        W 8706   7.761   5.815  10.936  0.2056 -0.0984 -0.0562
 4656W        W 8707   3.461   1.148  11.574 -0.1686  0.3121  0.3515
 4657W        W 8708   9.709   0.488   9.039 -0.2940 -0.0660  0.0200
 4658W        W 8709   9.590   5.123   8.976 -0.0624 -0.1061 -0.1021
 4659W        W 8710   6.997   1.866  11.563 -0.1513  0.1255 -0.0019
 4660W        W 8711   0.946   1.108   0.374  0.0173 -0.0610  0.1783
 4661W        W 8712   8.295   9.899  12.239 -0.0200  0.2980 -0.1264
 4662W        W 8713   3.019   6.560  11.816 -0.4988  0.0051  0.1143
 4663W        W 8714   8.098   3.888   4.542 -0.0902  0.0497 -0.1968
 4664W        W 8715   3.392   2.018   2.184  0.2078  0.1364  0.0933
 4665W        W 8716   7.939   8.169  13.680  0.0959 -0.0584 -0.2489
 4666W        W 8717   3.039   6.137   4.071  0.0759  0.2409 -0.0840
 4667W        W 8718   9.918   6.879   2.196  0.2967  0.0444 -0.1182
 4668W        W 8719   0.300   0.049  13.437  0.1919 -0.1380  0.2058
 4669W        W 8720   5.746   7.824   1.750 -0.1064  0.1058 -0.0609
 4670W        W 8721   7.159   6.729   9.570 -0.0162 -0.1894  0.1819
 4671W        W 8722   6.800   7.460   0.046 -0.1652 -0.1475  0.0226
 4672W        W 8723   8.249   4.488  10.632 -0.1433 -0.2299 -0.1276
 4673W        W 8724   3.002   3.407   4.932 -0.2088  0.1718  0.1456
 4674W        W 8725   3.927   5.003  10.246  0.0513  0.0520 -0.0645
 4675W        W 8726   2.276   3.246  10.042 -0.0334 -0.0567  0.1169
 4676W        W 8727   6.270   0.351   5.038  0.1758 -0.1821  0.2990
 4677W        W 8728   5.541   8.901   3.195 -0.2183  0.2882  0.0995
 4678W        W 8729   6.262   3.670   3.935 -0.1543 -0.2622  0.1306
 4679W        W 8730   8.742   2.049  12.653  0.2295 -0.2585  0.0645
 4680W        W 8731   3.197   9.242   1.879  0.1923  0.1504 -0.2432
 4681W        W 8732   5.340   1.602   2.813 -0.0905  0.0712  0.3696
 4682W        W 8733   9.682   1.379  10.800 -0.1924  0.1263 -0.1201
 4683W        W 8734   3.897   5.610   4.059 -0.0010 -0.1295  0.2893
 4684W        W 8735   5.716   1.833  11.125 -0.0543 -0.0562  0.2044
 4685W        W 8736   9.617   9.203   2.351 -0.1231  0.2780 -0.0033
 4686W        W 8737   9.186   9.016   0.499 -0.0779 -0.0937 -0.3274
 4687W        W 8738   3.708   4.658  10.609  0.3226 -0.0627 -0.1563
 4688W        W 8739   2.422   5.915  10.933 -0.0916 -0.0269 -0.0074
 4689W        W 8740   2.605   4.968   2.012 -0.0708  0.2225 -0.0328
 4690W        W 8741   2.488   5.368   3.774  0.1182  0.0060  0.1900
 4691W        W 8742   5.505   3.240   0.842 -0.1767 -0.1266  0.0978
 4692W        W 8743   0.610   0.885  13.445 -0.2236 -0.2934  0.3131
 4693W        W 8744   6.371   6.755   2.457  0.0337  0.0767  0.1290
 4694W        W 8745   1.675   4.407   9.855  0.3328  0.0658 -0.2235
 4695W        W 8746   3.017   8.727  12.117 -0.1075  0.0232 -0.2404
 4696W        W 8747   3.250   3.326   3.999  0.1500 -0.2400  0.1402
 4697W        W 8748   4.688   5.690  13.721  0.0150  0.1270 -0.0119
 4698W        W 8749   0.648   9.897   0.814 -0.5409 -0.0667 -0.0275
 4699W        W 8750   0.117   8.490   1.969 -0.2166 -0.1454 -0.0197
 4700W        W 8751   1.981   8.998   3.280 -0.1415 -0.0352  0.2305
 4701W        W 8752   3.467   0.069   1.932  0.0158 -0.0978  0.1419
 4702W        W 8753   6.843   4.932   2.453 -0.1856 -0.1125 -0.2208
 4703W        W 8754   8.558   7.873  12.405 -0.3357 -0.1047  0.2501
 4704W        W 8755   7.971   4.437   0.936 -0.3482  0.2232 -0.0633
 4705W        W 8756   1.570   0.957  12.178  0.0780  0.1083  0.2299
 4706W        W 8757   9.810   6.444   3.872  0.2327 -0.0798 -0.1523
 4707W        W 8758   9.175   6.170  12.644  0.0454 -0.1025 -0.0912
 4708W        W 8759   4.049   4.521   3.900 -0.1307  0.1223 -0.0304
 4709W        W 8760   3.885   4.097   0.241 -0.0956 -0.1256  0.1314
 4710W        W 8761   3.141   2.048   1.637 -0.0531 -0.1078 -0.0821
 4711W        W 8762   7.185   5.781   4.320 -0.1926  0.0997  0.2944
 4712W        W 8763  10.090   4.809   5.755  0.0800 -0.1130  0.0905
 4713W        W 8764   1.409   6.519   1.442  0.3267 -0.0561 -0.0970
 4714W        W 8765   7.472   1.833   9.732 -0.0001 -0.0663 -0.2724
 4715W        W 8766   8.700   9.444   2.101  0.1683 -0.3670  0.0652
 4716W        W 8767   0.545   8.961  10.450  0.2286  0.0410  0.2261
 4717W        W 8768   9.545   0.619  11.873  0.0775 -0.0137  0.0165
 4718W        W 8769   3.661   1.921   0.991 -0.1819  0.3484 -0.0902
 4719W        W 8770   9.076   4.624   9.912 -0.1187  0.2420  0.0442
 4720W        W 8771   7.032   7.808  11.581  0.0381 -0.0547  0.4290
 4721W        W 8772   3.609   9.225  13.077 -0.0840 -0.0730  0.0231
 4722W        W 8773   6.168   9.763   4.095 -0.0356 -0.2238  0.3483
 4723W        W 8774   7.873   3.120  10.357 -0.0695 -0.0345  0.0683
 4724W        W 8775   7.572   7.414  12.705  0.2904 -0.0067  0.4985
 4725W        W 8776   9.004   4.159  10.064 -0.1303 -0.2846 -0.0292
 4726W        W 8777   9.375   0.506   0.375 -0.2521  0.1872 -0.1457
 4727W        W 8778   1.007   4.902  12.225  0.3072 -0.1767  0.1198
 4728W        W 8779   8.902   6.787  11.193 -0.2765 -0.0191 -0.3714
 4729W        W 8780   4.320   0.240  10.588  0.0340 -0.2833 -0.1001
 4730W        W 8781   9.547   9.580   3.754 -0.0207 -0.0868  0.2067
 4731W        W 8782   8.748   8.642   3.502 -0.1492 -0.1417 -0.0055
 4732W        W 8783   6.219   4.079  12.409  0.0787  0.1023  0.4998
 4733W        W 8784   7.180   3.243  11.565  0.2827 -0.1154  0.0640
 4734W        W 8785   9.023   9.761   1.080  0.3090 -0.2689 -0.2953
 4735W        W 8786   3.545   8.523  10.471 -0.0148  0.4737 -0.0642
 4736W        W 8787   1.710   3.280   2.300  0.1006 -0.1555 -0.0967
 4737W        W 8788   4.663   9.392   3.802  0.2276  0.1027  0.0381
 4738W        W 8789   9.188   3.883  10.489 -0.1065 -0.0282  0.3191
 4739W        W 8790   0.739   8.357  13.504 -0.3797  0.1141 -0.3007
 4740W        W 8791   3.241   8.352  13.617  0.1214 -0.0210 -0.0826
 4741W        W 8792   9.080   5.057   4.717  0.1204  0.2579 -0.2791
 4742W        W 8793   5.591   4.096  12.924  0.1155  0.1532  0.0899
 4743W        W 8794   7.933   3.573  13.371  0.4167  0.0797 -0.0380
 4744W        W 8795   1.761   7.956  13.137  0.1273 -0.3759 -0.0714
 4745W        W 8796   5.699   6.632   4.211 -0.0528 -0.2541  0.2032
 4746W        W 8797   3.835   0.349   9.678 -0.0928 -0.1021 -0.1861
 4747W        W 8798   1.919   1.467  10.056  0.1708  0.1145  0.1359
 4748W        W 8799   4.297   7.636   1.199  0.3556 -0.0729 -0.1827
 4749W        W 8800   6.184   3.059  10.583 -0.1499 -0.2018 -0.1431
 4750W        W 8801   1.866   6.580  12.744  0.1395  0.1049  0.2307
 4751W        W 8802   2.422   5.370   2.278  0.3857  0.4533  0.1052
 4752W        W 8803   1.843   3.423  11.074 -0.0630 -0.2139  0.1009
 4753W        W 8804   3.460   5.753   3.539 -0.0031 -0.1935 -0.1370
 4754W        W 8805   9.305   8.827   1.335 -0.3328 -0.0877  0.2137
 4755W        W 8806   4.330   0.619  12.605 -0.1085  0.1242  0.0494
 4756W        W 8807   6.991   5.858   0.254  0.2124  0.4359  0.3364
 4757W        W 8808   0.162   2.587   0.060 -0.2211  0.4207 -0.1037
 4758W        W 8809   5.175   5.170   4.408 -0.0270  0.3887 -0.1467
 4759W        W 8810   8.444   7.709  10.361  0.0092 -0.1109 -0.0082
 4760W        W 8811   8.259   4.687   0.411 -0.1958  0.2055  0.1351
 4761W        W 8812   6.980   3.965   1.371  0.0436  0.1222 -0.0850
 4762W        W 8813   9.058   7.492   9.064 -0.1748  0.2041  0.0579
 4763W        W 8814   2.966   3.533   9.290  0.0830 -0.1236 -0.1665
 4764W        W 8815   4.906   0.817   1.073 -0.0643  0.4250  0.5104
 4765W        W 8816   8.323   2.809  13.786  0.0847 -0.3417  0.4191
 4766W        W 8817   4.361   8.969   2.029  0.1822 -0.0918 -0.0488
 4767W        W 8818   0.965   1.514   0.670 -0.1411  0.2458 -0.1238
 4768W        W 8819   4.740   1.428   1.034 -0.0371 -0.0010  0.4722
 4769W        W 8820  10.160   0.195  10.276 -0.1091 -0.0081  0.2136
 4770W        W 8821   3.059   5.868  11.027  0.3373 -0.0522  0.0649
 4771W        W 8822   7.382   5.850   9.698  0.3695 -0.0349 -0.0024
 4772W        W 8823   8.034   1.822   3.530 -0.0011  0.0008  0.2943
 4773W        W 8824   3.774   9.282   3.095  0.1137 -0.0593 -0.0853
 4774W        W 8825   3.406   7.392   2.207 -0.1521  0.1706 -0.1138
 4775W        W 8826   7.358   6.618   4.004  0.0424  0.0064 -0.1047
 4776W        W 8827   3.274  10.014  11.802 -0.0230  0.0743  0.3466
 4777W        W 8828   4.325   0.156   0.126 -0.0545  0.0462  0.0287
 4778W        W 8829   8.338   0.102  12.562 -0.0650 -0.0548 -0.1870
 4779W        W 8830   4.386   2.701  12.759  0.1134 -0.0400  0.2861
 4780W        W 8831   1.008   1.880  10.460 -0.1675 -0.1233  0.3581
 4781W        W 8832   0.398   6.562  13.897  0.1760  0.1500 -0.0857
 4782W        W 8833   7.758   4.641  10.179 -0.1642 -0.1084 -0.2308
 4783W        W 8834   3.925   3.309   2.132 -0.0745  0.1144 -0.3985
 4784W        W 8835   4.667   8.492   0.820 -0.2555  0.0463 -0.2818
 4785W        W 8836   0.172   1.359   4.281  0.1933 -0.0632 -0.0943
 4786W        W 8837   5.571   2.066   0.276 -0.3060 -0.1919 -0.1600
 4787W        W 8838   7.732   8.265   2.847 -0.1940 -0.1510 -0.2455
 4788W        W 8839   5.366   2.037   8.482 -0.0776  0.1103  0.2086
 4789W        W 8840   4.686   0.575   0.602  0.1112 -0.3682 -0.2495
 4790W        W 8841   4.894   3.082  10.102  0.1975 -0.0076  0.0431
 4791W        W 8842   9.706   3.405   9.132  0.0495  0.1073  0.3604
 4792W        W 8843   7.680   0.096  10.474  0.2763  0.3936 -0.0207
 4793W        W 8844   2.590   3.839   2.529 -0.2017 -0.1174  0.0591
 4794W        W 8845   7.745   8.061   4.498 -0.3183 -0.0050  0.0173
 4795W        W 8846   2.863   3.835  13.366 -0.2781 -0.2009 -0.1124
 4796W        W 8847   6.215   1.767  11.137  0.1244 -0.1051 -0.2626
 4797W        W 8848   6.223   0.337   9.344 -0.0858  0.0066  0.0273
 4798W        W 8849   0.284   6.694   0.317 -0.1634  0.2653 -0.1777
 4799W        W 8850   5.287   3.278   9.842 -0.1792  0.1010  0.1849
 4800W        W 8851   5.338   4.802   1.280 -0.1906 -0.0220  0.1741
 4801W        W 8852   5.801   6.265   0.478 -0.1381  0.0063 -0.1177
 4802W        W 8853   8.467   0.992   8.966 -0.0977 -0.2795  0.1775
 4803W        W 8854   8.752   4.096   1.732 -0.2176  0.0397  0.0686
 4804W        W 8855   8.983   4.197  12.398 -0.1753 -0.2853 -0.0871
 4805W        W 8856   5.569   6.621   1.246 -0.2122  0.0708 -0.5383
 4806W        W 8857   7.875   9.542  12.240 -0.2132  0.3052  0.0502
 4807W        W 8858   1.819   0.745   0.894 -0.0873  0.0091  0.0722
 4808W        W 8859   6.404   0.084   1.448  0.3039  0.2389  0.0070
 4809W        W 8860   7.108   2.809   9.658 -0.1019  0.1509  0.0239
 4810W        W 8861   5.010   4.117   0.746  0.1873 -0.1212 -0.3048
 4811W        W 8862   3.991   0.123   3.384  0.1540  0.0695  0.2731
 4812W        W 8863   3.576   6.512   0.012 -0.0503  0.1048  0.1018
 4813W        W 8864   4.575   6.428   4.395 -0.2130 -0.1994 -0.1755
 4814W        W 8865   0.619   2.927   2.533  0.0443  0.2690  0.2159
 4815W        W 8866   2.826   4.977   3.437  0.1370 -0.0452  0.1430
 4816W        W 8867   9.446   2.816  11.601  0.3040 -0.4806 -0.1366
 4817W        W 8868  10.048   5.372   8.958  0.0601 -0.0384  0.0038
 4818W        W 8869   4.331   4.191  11.805  0.3945  0.1580 -0.3498
 4819W        W 8870   4.157   6.049   2.295 -0.0598  0.1611  0.0961
 4820W        W 8871   3.038   1.252  11.857  0.1444 -0.0451 -0.1122
 4821W        W 8872   2.896   5.202   4.654 -0.0616 -0.0305 -0.0135
 4822W        W 8873   5.496   8.975   1.185  0.1636 -0.2075  0.0528
 4823W        W 8874   3.614   3.874   2.682 -0.1551 -0.1258 -0.1478
 4824W        W 8875   9.672   8.129   9.118 -0.0358 -0.0713  0.1258
 4825W        W 8876   3.765   6.924   2.644  0.1247  0.1448 -0.0378
 4826W        W 8877   4.674   1.822  13.991  0.1741  0.2171  0.3334
 4827W        W 8878   9.305   5.401  13.645  0.0557  0.0692  0.0011
 4828W        W 8879   6.807   7.680   1.540  0.0427 -0.0816 -0.2248
 4829W        W 8880   2.742   7.072  11.438 -0.0718 -0.0497 -0.0912
 4830W        W 8881   7.826   3.411   4.867  0.1616 -0.1759  0.1263
 4831W        W 8882   0.481   2.201   1.804 -0.1090  0.1031 -0.0823
 4832W        W 8883   8.941   0.408  12.885 -0.2416  0.2835 -0.2022
 4833W        W 8884   6.370   5.977   9.514  0.2232 -0.2799 -0.1644
 4834W        W 8885   0.738  10.061   1.781  0.1086 -0.1358  0.1585
 4835W        W 8886   5.165   1.991   1.222  0.1935 -0.0146  0.2873
 4836W        W 8887   0.088   1.979  12.285  0.1436 -0.1726 -0.0299
 4837W        W 8888   0.273   4.896   4.411 -0.2178 -0.0859 -0.0142
 4838W        W 8889   2.030   3.313  11.968  0.3140 -0.1470 -0.1863
 4839W        W 8890   6.518   7.913  11.266  0.2459  0.1135 -0.0058
 4840W        W 8891   4.110   1.484   0.911 -0.3544  0.0875 -0.1123
 4841W        W 8892   0.141   9.687   3.483  0.0924  0.0487 -0.0667
 4842W        W 8893   0.932   7.110   2.775 -0.1266 -0.0875  0.1170
 4843W        W 8894   1.017   5.980  12.174 -0.3215 -0.0279 -0.1204
 4844W        W 8895   3.770   6.112  13.334  0.1526  0.0493  0.0087
 4845W        W 8896   6.311   0.047   3.000 -0.1321  0.0930 -0.2807
 4846W        W 8897   7.394   0.016   4.114  0.2919  0.4684 -0.2799
 4847W        W 8898   1.080   9.678   2.495 -0.3122 -0.4860 -0.1576
 4848W        W 8899   7.499   2.428   2.802  0.1454  0.0649 -0.0673
 4849W        W 8900   2.392   6.234  12.663 -0.0546 -0.0764 -0.1441
 4850W        W 8901   7.432   6.055  12.192  0.4070 -0.4137 -0.1314
 4851W        W 8902   9.993   8.868   2.167 -0.2436 -0.0202 -0.0218
 4852W        W 8903   0.248   9.171   2.630  0.1400 -0.1601  0.5915
 4853W        W 8904   5.091   1.582   9.448  0.0523  0.3100  0.0315
 4854W        W 8905  10.016   0.801  11.798  0.0774 -0.2320  0.2032
 4855W        W 8906   9.167   1.366   3.457 -0.1256 -0.0503 -0.1255
 4856W        W 8907   8.750   4.430  12.864  0.0208 -0.2163 -0.1590
 4857W        W 8908   2.442   3.192   9.557  0.3785  0.3824 -0.2450
 4858W        W 8909   5.588   1.990   5.535 -0.2026 -0.0131 -0.1239
 4859W        W 8910   8.155   1.478   3.037  0.0735  0.0804  0.0139
 4860W        W 8911   8.005   8.691   1.522  0.1167 -0.3568  0.1338
 4861W        W 8912   7.629   9.652   3.210 -0.0032 -0.0861 -0.1515
 4862W        W 8913   7.719   7.746   3.559  0.1883  0.0971  0.0441
 4863W        W 8914   2.178   3.062   2.655 -0.0431  0.2062 -0.0971
 4864W        W 8915   7.527   0.669   2.684  0.0766 -0.2139  0.0005
 4865W        W 8916   2.990   3.426  10.575  0.0376  0.1719 -0.0125
 4866W        W 8917   3.806   0.208   0.194  0.3703 -0.0224 -0.1524
 4867W        W 8918   3.914   6.291   0.531 -0.0948 -0.0346  0.0831
 4868W        W 8919   2.610   4.798  10.964  0.2906  0.0800 -0.1156
 4869W        W 8920   6.362   0.002  10.931 -0.2012  0.0996  0.0785
 4870W        W 8921   1.962   4.765   9.131  0.0831 -0.1329 -0.2844
 4871W        W 8922   1.119   8.256  12.628 -0.0843 -0.3557  0.2104
 4872W        W 8923   3.822   2.918   0.720  0.0529  0.2469  0.2364
 4873W        W 8924   8.530   0.411   9.933 -0.1065 -0.0607 -0.1573
 4874W        W 8925   0.671   4.380   3.158  0.1215  0.0179 -0.0984
 4875W        W 8926   7.917   5.723   9.671 -0.0758  0.2938 -0.3994
 4876W        W 8927   8.779   1.323   3.090  0.2735 -0.3826  0.0870
 4877W        W 8928   2.199   6.281  11.351  0.0201 -0.2756  0.2733
 4878W        W 8929   4.550   9.822   2.695  0.1513  0.1236 -0.1517
 4879W        W 8930   0.365   4.157  13.057  0.2366  0.0214 -0.1882
 4880W        W 8931   2.970   3.745   3.960 -0.1324  0.0509 -0.0580
 4881W        W 8932   4.925   9.913  11.767 -0.1849  0.0846 -0.4372
 4882W        W 8933   5.942   4.430   4.059 -0.3168 -0.0262  0.0721
 4883W        W 8934   1.617   3.916   4.447  0.1136 -0.1368  0.1411
 4884W        W 8935   1.845   5.755   2.598 -0.0001 -0.2953 -0.4630
 4885W        W 8936   2.037   1.233   3.613 -0.0480 -0.0818  0.1536
 4886W        W 8937   0.155   8.876  13.646 -0.0174 -0.0023  0.2077
 4887W        W 8938   7.792   2.451  11.360 -0.2192  0.0628 -0.4776
 4888W        W 8939   6.239   9.109  13.152 -0.0205  0.1943  0.2970
 4889W        W 8940   4.085   4.098  10.492  0.1299 -0.0703 -0.0530
 4890W        W 8941   2.676   0.396   3.569  0.0265 -0.0872  0.0965
 4891W        W 8942   2.474   0.928  12.721  0.0464  0.1431 -0.0946
 4892W        W 8943   9.181   8.027   3.028 -0.4090 -0.1014  0.0893
 4893W        W 8944   6.929   2.452   5.089  0.2635  0.0223 -0.0350
 4894W        W 8945   7.991   8.392   0.681 -0.1283 -0.0038 -0.0963
 4895W        W 8946   3.641   2.888  10.811  0.1480 -0.0362  0.1723
 4896W        W 8947   9.014   8.504   9.203 -0.0181 -0.1176 -0.2072
 4897W        W 8948   5.019   6.770   1.331  0.1722  0.1283  0.3207
 4898W        W 8949   0.397   2.302  11.979  0.3079 -0.4093  0.1135
 4899W        W 8950   9.435  10.054   1.254  0.0768 -0.2636 -0.0258
 4900W        W 8951   9.632   4.294   2.008  0.1215  0.3977 -0.2468
 4901W        W 8952   8.551   1.585   2.574  0.0037  0.1373  0.0878
 4902W        W 8953   6.925   8.702  12.723 -0.0991  0.0348  0.0275
 4903W        W 8954   1.302   1.930   1.782  0.0736  0.1668  0.2208
 4904W        W 8955   2.072   0.116  12.890 -0.0862  0.1602 -0.0478
 4905W        W 8956   7.572   7.278   3.698  0.0221  0.0852 -0.1124
 4906W        W 8957   4.606   5.090   5.465 -0.0741  0.3935 -0.0860
 4907W        W 8958   3.778   1.772   4.509  0.0843  0.0485  0.0964
 4908W        W 8959   2.724   4.713  12.607  0.0769 -0.1370  0.2393
 4909W        W 8960   9.666   8.225   4.284 -0.0673  0.0755  0.1413
 4910W        W 8961   9.405   4.214  13.985 -0.1333  0.0598 -0.1490
 4911W        W 8962   4.367   9.397   4.299 -0.1980  0.0536  0.3315
 4912W        W 8963   7.983   4.970   5.712  0.0817  0.0108  0.0308
 4913W        W 8964   2.436   5.351  11.384 -0.2089  0.3503  0.1348
 4914W        W 8965   8.381   0.762  11.026 -0.3386  0.2509 -0.0235
 4915W        W 8966   2.267   3.547   1.678 -0.1084 -0.1132 -0.2217
 4916W        W 8967   0.560   2.781   1.734  0.2666  0.3722 -0.0320
 4917W        W 8968   4.277   2.371   1.036 -0.1087  0.1484 -0.1511
 4918W        W 8969   1.767   5.734   1.158 -0.1919 -0.1383 -0.1953
 4919W        W 8970   5.286   6.925   2.755  0.2552  0.1413 -0.1496
 4920W        W 8971   9.895   8.977  13.347 -0.3694  0.0315 -0.2829
 4921W        W 8972   6.450   1.891   8.824  0.3361  0.0477  0.3521
 4922W        W 8973   8.394   2.595  12.674 -0.2166 -0.0176 -0.1455
 4923W        W 8974   6.548   0.684   9.223 -0.2296 -0.1462  0.2753
 4924W        W 8975   7.721   2.572  10.326  0.5091 -0.1277 -0.0340
 4925W        W 8976   7.147   5.642   2.354 -0.2574  0.0414 -0.2564
 4926W        W 8977   3.456   8.837   1.774 -0.2453  0.3583 -0.0071
 4927W        W 8978   8.922   7.180  10.890  0.1229 -0.0443 -0.0318
 4928W        W 8979   2.328   9.541   2.760 -0.3809 -0.1843  0.0120
 4929W        W 8980   2.850   8.329  11.282 -0.0711  0.0092 -0.1114
 4930W        W 8981   8.153   2.690   0.251 -0.0095 -0.0305 -0.0561
 4931W        W 8982   4.615   6.885  12.071  0.1042  0.1668 -0.1467
 4932W        W 8983   6.841   8.696   9.496  0.1205  0.1837 -0.1449
 4933W        W 8984   8.812   4.166  11.810  0.3353  0.0150  0.1192
 4934W        W 8985   0.625   9.261  11.452  0.2004 -0.1579  0.0035
 4935W        W 8986   4.600   2.867  13.435 -0.1057 -0.2448 -0.0309
 4936W        W 8987   7.143   3.302   9.794  0.1026 -0.0951 -0.0808
 4937W        W 8988   3.875   2.726   3.689 -0.1378 -0.0396 -0.4233
 4938W        W 8989   8.733   1.257  12.133 -0.3381  0.3223  0.2796
 4939W        W 8990   0.934   3.656  12.113 -0.0539  0.1906  0.2718
 4940W        W 8991   4.269   6.733   4.013  0.2243  0.0969 -0.0297
 4941W        W 8992   9.714   2.945   4.133  0.1076  0.0502 -0.3515
 4942W        W 8993   3.349   8.734  11.122 -0.4752  0.2105 -0.0003
 4943W        W 8994   0.299   1.593  10.013 -0.4202  0.0904  0.0894
 4944W        W 8995   7.671   3.883  10.985 -0.2629 -0.0324 -0.0788
 4945W        W 8996   1.938   0.770  12.953 -0.0724  0.0591 -0.0824
 4946W        W 8997   3.504   4.016  12.172 -0.0463 -0.0388 -0.1447
 4947W        W 8998   8.259   3.696  10.258 -0.1838  0.0614 -0.1585
 4948W        W 8999   9.404   9.641   2.487  0.1625 -0.2345  0.0306
 4949W        W 9000   7.285   2.914   3.432 -0.0725 -0.3441  0.2407
 4950W        W 9001   2.406   0.883   2.165  0.1715  0.0662  0.1477
 4951W        W 9002   9.148   4.905   4.112  0.3258 -0.0525  0.0620
 4952W        W 9003   5.482   7.969  11.616 -0.1182 -0.0077  0.1634
 4953W        W 9004   4.992   6.549  13.587  0.0481 -0.0693  0.3925
 4954W        W 9005   3.022   9.916  13.666 -0.3572 -0.1844 -0.1922
 4955W        W 9006  10.047   1.429  12.418  0.0692 -0.0433  0.0496
 4956W        W 9007   0.434   6.452  12.509 -0.2003 -0.0360  0.0147
 4957W        W 9008   4.344   1.555  12.411 -0.0746  0.1841  0.1263
 4958W        W 9009   9.115   0.369  10.793  0.1002 -0.0362  0.0250
 4959W        W 9010   3.712   9.055  12.257 -0.1862 -0.1572  0.0536
 4960W        W 9011   3.011   3.060  13.426  0.1774 -0.0388 -0.1678
 4961W        W 9012   4.672   3.453  13.413  0.2829  0.0242  0.0693
 4962W        W 9013   4.962   4.625   4.007  0.0716  0.1891  0.0764
 4963W        W 9014   0.639   8.750  12.080  0.0421  0.2301  0.2411
 4964W        W 9015   3.289   2.452   9.648  0.1924 -0.2439  0.0538
 4965W        W 9016   6.347   1.160   1.357 -0.0020  0.1208 -0.0686
 4966W        W 9017   5.620   6.616   3.571  0.1217  0.0971 -0.0752
 4967W        W 9018   8.057   4.178   0.519 -0.0315 -0.2965 -0.0523
 4968W        W 9019   6.902   5.882  12.945 -0.3080  0.0865 -0.3313
 4969W        W 9020   2.610   0.136   0.936  0.0539  0.1638  0.1321
 4970W        W 9021   1.135   2.974  12.370 -0.0557 -0.0339 -0.0266
 4971W        W 9022   6.479   1.309  10.209 -0.2016  0.1348  0.0680
 4972W        W 9023   2.855   6.955  13.744  0.1280  0.2047  0.0246
 4973W        W 9024   4.181   0.282  10.076 -0.1515  0.0127  0.2792
 4974W        W 9025   2.007   1.226  12.665 -0.1827  0.1045 -0.1008
 4975W        W 9026   5.543   7.018   1.542  0.3068 -0.1771  0.1302
 4976W        W 9027   5.066   4.597   2.599 -0.3012  0.3043  0.3706
 4977W        W 9028   6.307   4.972  10.349  0.0057 -0.3467 -0.0532
 4978W        W 9029   9.008   3.235  11.395 -0.2430 -0.0661 -0.1777
 4979W        W 9030   2.174   0.842  11.340 -0.0174  0.0639  0.0421
 4980W        W 9031   8.873   5.507   0.115 -0.0967  0.0476  0.2873
 4981W        W 9032   0.090   2.351   0.516 -0.1178  0.1012  0.0460
 4982W        W 9033   6.021   6.896   1.508 -0.2963 -0.0668 -0.2805
 4983W        W 9034   7.856   0.061  11.377  0.0785  0.0862  0.0017
 4984W        W 9035   0.026   1.975  10.379  0.4305  0.2337  0.1619
 4985W        W 9036   2.244   8.201   6.626  0.0531 -0.0205  0.0103
 4986W        W 9037   4.675   9.769   9.746  0.2988 -0.3273 -0.0191
 4987W        W 9038   6.677   1.764  10.298 -0.1670  0.2848  0.2807
 4988W        W 9039   1.661   1.856   2.640  0.0958  0.0388  0.0086
 4989W        W 9040   6.951   5.973   3.377  0.1741  0.1034  0.1169
 4990W        W 9041   1.128   1.005   1.538  0.2102 -0.0160 -0.0982
 4991W        W 9042   7.020   9.092   0.415  0.0398 -0.0222  0.1531
 4992W        W 9043   6.930   9.843   2.649  0.3184  0.2359 -0.0420
 4993W        W 9044   2.325   0.115  10.828 -0.1894 -0.5336  0.1593
 4994W        W 9045   7.294   4.923   9.449  0.1741 -0.0077 -0.0875
 4995W        W 9046   2.752   4.013  11.848  0.1245  0.1103  0.2457
 4996W        W 9047   4.323   8.821   3.650  0.1026 -0.0140 -0.0949
 4997W        W 9048   4.698   2.349  13.592 -0.0793 -0.0797 -0.0903
 4998W        W 9049   3.951   5.096  10.738 -0.0113 -0.0119 -0.0436
 4999W        W 9050   3.321   6.604   4.053  0.1457  0.1099  0.1146
 5000W        W 9051   4.459   9.788  11.584  0.0368  0.2403  0.2504
 5001W        W 9052   5.202   9.379  13.505  0.0401 -0.2083 -0.0811
 5002W        W 9053   7.457   9.015   3.739 -0.0308 -0.1423 -0.6799
 5003W        W 9054   4.849   5.657  12.695  0.1065 -0.0934 -0.1054
 5004W        W 9055   5.547   5.925  13.364 -0.3520  0.2555  0.3768
 5005W        W 9056   6.114   7.436   1.129 -0.1428  0.1968  0.3109
 5006W        W 9057   0.991   0.928   3.186  0.5257  0.1923 -0.2475
 5007W        W 9058   6.075   5.423  10.395 -0.0860  0.3456 -0.0720
 5008W        W 9059   6.166   8.662   0.796  0.1036  0.0958 -0.1403
 5009W        W 9060   8.647   2.584   4.081 -0.2163 -0.1555  0.0584
 5010W        W 9061   8.136   5.055   2.436  0.2938 -0.0735  0.0383
 5011W        W 9062   0.004   5.127   4.018 -0.2641  0.1744 -0.3021
 5012W        W 9063   0.239   5.162   3.566 -0.0902  0.1174  0.0129
 5013W        W 9064   5.578   1.044  13.722  0.0112  0.0200  0.0463
 5014W        W 9065   5.887   9.701   1.463 -0.1139 -0.2589 -0.3474
 5015W        W 9066   5.265   4.485   1.900 -0.0963  0.0401  0.2115
 5016W        W 9067   8.587   5.559   2.757  0.2130  0.3126  0.2205
 5017W        W 9068   4.076   1.849   4.098  0.0647  0.1491 -0.0349
 5018W        W 9069   2.564   5.439  12.259 -0.0335 -0.3453  0.0223
 5019W        W 9070   2.507   7.454   1.039 -0.3106 -0.0866 -0.2604
 5020W        W 9071   7.167   9.703   9.908  0.0896  0.3328  0.0636
 5021W        W 9072   0.814   0.643   0.218 -0.1403  0.0487  0.0270
 5022W        W 9073   1.412   5.017   4.454  0.1114 -0.0348 -0.2195
 5023W        W 9074   6.068   3.976   2.875 -0.2866 -0.2643  0.0314
 5024W        W 9075   4.970   8.833   2.532 -0.1310 -0.1055  0.1915
 5025W        W 9076   9.837   8.554  11.896 -0.0471 -0.0128 -0.2419
 5026W        W 9077   4.049   1.886   0.716  0.1692 -0.3363 -0.1980
 5027W        W 9078   0.520   9.727  13.641 -0.0772 -0.0236  0.1787
 5028W        W 9079   8.160   0.857   0.003 -0.0559  0.1944  0.1143
 5029W        W 9080   4.262   1.794   3.613  0.3428 -0.1783  0.0395
 5030W        W 9081   2.528   5.574   9.765  0.1055  0.1103 -0.0282
 5031W        W 9082   6.767   9.432   4.287  0.0483  0.0766 -0.1353
 5032W        W 9083   9.208   2.457   9.018  0.1306 -0.0090  0.0967
 5033W        W 9084   7.876   5.057   8.849 -0.1103  0.0997 -0.1816
 5034W        W 9085   1.078   1.379   2.439 -0.1475  0.2631  0.0384
 5035W        W 9086   8.394   8.724   2.148 -0.0798  0.2010  0.3308
 5036W        W 9087   9.010   8.451   1.363  0.0307 -0.0557 -0.1597
 5037W        W 9088   5.222   4.219  11.242  0.0036 -0.2132  0.0271
 5038W        W 9089   1.941   6.866   3.870 -0.0358 -0.3585  0.0138
 5039W        W 9090   8.680   3.270  13.987 -0.1029 -0.2573  0.1032
 5040W        W 9091   9.712   6.897   4.153 -0.0282 -0.1760 -0.0765
 5041W        W 9092   3.768   7.897  13.549 -0.0476 -0.3176 -0.0436
 5042W        W 9093   0.901   2.410  10.484  0.0765  0.0719 -0.2463
 5043W        W 9094   5.215   7.631  11.429 -0.0305 -0.0638  0.0196
 5044W        W 9095   6.058  10.060   9.643  0.2672  0.2475  0.2323
 5045W        W 9096   4.891   9.235  13.091 -0.1114  0.1465 -0.2147
 5046W        W 9097   3.759   3.319  10.157  0.4233  0.0163  0.1396
 5047W        W 9098   8.573   7.797   0.756 -0.0517 -0.0036  0.0332
 5048W        W 9099   1.138   9.303   1.211  0.0409 -0.1267  0.0256
 5049W        W 9100  10.077   6.335  13.714  0.0410 -0.3092  0.1837
 5050W        W 9101   5.373   4.479  13.741  0.0012 -0.0289  0.1299
 5051W        W 9102   2.067   3.112   4.027  0.2732 -0.1106  0.0240
 5052W        W 9103   8.573   6.862  10.152 -0.0813  0.4809  0.0993
 5053W        W 9104   6.680   7.391  11.527 -0.0929 -0.2157 -0.2398
 5054W        W 9105   4.377   1.828  12.831 -0.3342  0.2677  0.3406
 5055W        W 9106   0.158   1.913  13.688 -0.1656 -0.0573  0.2318
 5056W        W 9107   5.850   2.301   1.402 -0.0511  0.2204  0.1536
 5057W        W 9108   2.618   6.803  10.527 -0.0397  0.0942  0.2237
 5058W        W 9109   7.173   9.640  11.303  0.0838 -0.1924 -0.1508
 5059W        W 9110   0.439   7.743   0.263  0.0425 -0.2332 -0.0101
 5060W        W 9111   0.529   7.609  12.224  0.0258  0.0777  0.0192
 5061W        W 9112   6.783   7.504  11.034 -0.0020 -0.0486 -0.1941
 5062W        W 9113   3.037   5.647  13.049 -0.0028 -0.2331  0.1513
 5063W        W 9114   9.041   2.971   0.449  0.0670  0.1082 -0.1094
 5064W        W 9115   7.316   1.606  10.188  0.0611  0.0787 -0.1155
 5065W        W 9116   5.812   2.454  13.002 -0.1621  0.3063  0.1647
 5066W        W 9117   4.075   9.209  13.217  0.0456  0.1819  0.2459
 5067W        W 9118   7.092   6.757  10.111  0.0557 -0.0132  0.0399
 5068W        W 9119   3.961   5.284  13.001 -0.1545 -0.2329  0.0338
 5069W        W 9120   5.764   0.590  12.348 -0.1711 -0.0916  0.3651
 5070W        W 9121   0.096   9.238  10.775 -0.2648  0.0581  0.1396
 5071W        W 9122   7.274   7.543   0.206 -0.0037 -0.3037 -0.2166
 5072W        W 9123   1.667   5.026   0.927  0.0099  0.3098 -0.2604
 5073W        W 9124   3.077   1.623   1.939 -0.1153 -0.0474  0.1851
 5074W        W 9125   6.896   4.564  10.773 -0.1056 -0.1000  0.2483
 5075W        W 9126   2.267   9.733  12.548 -0.0516  0.0030  0.0713
 5076W        W 9127   5.398   7.490   1.702  0.0666  0.0430  0.2285
 5077W        W 9128   0.977   8.236  11.689  0.0594  0.0700  0.0914
 5078W        W 9129   4.980   9.799   3.692 -0.2291  0.1915  0.6057
 5079W        W 9130   2.124   5.708   3.768  0.1841 -0.3453  0.0176
 5080W        W 9131   1.700   8.631  13.448  0.1751 -0.3948 -0.1956
 5081W        W 9132   1.932   2.308   1.294  0.0576  0.1449  0.0314
 5082W        W 9133   8.919   9.732   2.481  0.2443 -0.0184 -0.3111
 5083W        W 9134   5.526   9.231   0.635  0.0766  0.2155  0.0842
 5084W        W 9135   9.020   2.267  12.211  0.1532 -0.2107 -0.1581
 5085W        W 9136   1.356   5.993   1.326 -0.1506 -0.3878  0.0103
 5086W        W 9137   3.390   0.169  10.970  0.0009 -0.0723 -0.0768
 5087W        W 9138   4.739   6.530  10.544 -0.0433 -0.1773 -0.0384
 5088W        W 9139   9.168   6.463   9.363 -0.0559  0.1716 -0.2724
 5089W        W 9140   8.652   8.010   9.588  0.0297 -0.1104 -0.0132
 5090W        W 9141   3.904   7.298  12.393  0.0278 -0.2811  0.1216
 5091W        W 9142   1.323   1.944   3.535 -0.1817 -0.0596 -0.0770
 5092W        W 9143   9.506   4.731   1.868  0.0793 -0.3213 -0.1699
 5093W        W 9144   2.619   4.079  12.543  0.2807 -0.0687  0.2565
 5094W        W 9145   0.757   1.334  12.707 -0.2584 -0.1548 -0.4190
 5095W        W 9146   0.015   6.023  13.237  0.1831 -0.1328  0.4151
 5096W        W 9147   7.742   5.572   1.003  0.1522 -0.1327 -0.3472
 5097W        W 9148   4.317   5.143   1.901 -0.1459 -0.0437  0.5395
 5098W        W 9149   4.016   6.576   2.301  0.2532  0.4255  0.4036
 5099W        W 9150   0.147   5.099   2.135  0.3436  0.0493 -0.0450
 5100W        W 9151   4.610   6.723  13.240 -0.0326  0.0409 -0.3594
 5101W        W 9152   0.442   9.782   3.086  0.0391  0.1433 -0.1944
 5102W        W 9153   2.988   4.200   4.876  0.2731 -0.3783 -0.1125
 5103W        W 9154   5.773   6.367  13.006 -0.1068 -0.0562  0.0643
 5104W        W 9155   4.874   9.568  12.739  0.3519 -0.2888 -0.4859
 5105W        W 9156   8.504   5.872   9.916 -0.0301 -0.0595 -0.0439
 5106W        W 9157   0.853   7.018  13.821  0.0996 -0.0568  0.0174
 5107W        W 9158   2.890   5.945   0.546 -0.1121  0.1769 -0.1899
 5108W        W 9159   5.555   5.198  10.946 -0.2147  0.1198 -0.1126
 5109W        W 9160   0.102  10.080  11.006  0.1484  0.0361 -0.2958
 5110W        W 9161   6.588   0.712  13.424 -0.1435 -0.1471  0.2450
 5111W        W 9162   6.743   8.873   1.646 -0.2240 -0.2559 -0.0863
 5112W        W 9163   6.316   1.145   4.296  0.0869  0.1721 -0.0364
 5113W        W 9164   9.759   4.045   1.621  0.1570  0.0440 -0.0206
 5114W        W 9165   5.164   5.614   3.545 -0.0765  0.0698  0.0248
 5115W        W 9166   4.603   7.185   4.342 -0.1115  0.3222  0.1892
 5116W        W 9167   0.426   0.813  10.804 -0.0401  0.1729  0.0325
 5117W        W 9168   8.830   2.398   9.382  0.0711 -0.0341 -0.1585
 5118W        W 9169   4.314   8.531  12.091  0.2084 -0.0653 -0.0429
 5119W        W 9170   1.861   8.708  10.161  0.1470  0.1149 -0.0383
 5120W        W 9171   1.214   2.310   1.269  0.0545 -0.0780 -0.0146
 5121W        W 9172   7.613   2.984  11.399  0.2740  0.3896 -0.0886
 5122W        W 9173   0.012   7.984   1.908  0.2856  0.0116 -0.0797
 5123W        W 9174   5.220   4.044  11.710 -0.1648 -0.0317 -0.1845
 5124W        W 9175   4.319   0.262  12.186 -0.3643 -0.0633 -0.0288
 5125W        W 9176   9.330  10.134   2.285  0.0797  0.0944 -0.0595
 5126W        W 9177   5.279   5.203   3.892  0.2557  0.1545  0.2255
 5127W        W 9178   4.172  10.139  10.996  0.1073  0.1773 -0.1903
 5128W        W 9179   2.632   1.364   2.665  0.0295 -0.3607  0.2422
 5129W        W 9180   5.290   3.700  12.619  0.0105 -0.6959  0.2109
 5130W        W 9181   6.497   7.937   9.783 -0.4563 -0.0674 -0.3567
 5131W        W 9182   7.117   6.618   2.379 -0.1523 -0.0178 -0.1471
 5132W        W 9183   5.001   6.203   8.710 -0.1562 -0.1902 -0.1542
 5133W        W 9184   0.944   8.614   0.314 -0.0864 -0.2176 -0.0954
 5134W        W 9185   8.919   0.080   3.830 -0.2034  0.0150 -0.0599
 5135W        W 9186   0.023   7.870   3.643  0.2587  0.0908 -0.1773
 5136W        W 9187   1.625   0.391   2.664 -0.1481 -0.1544  0.1895
 5137W        W 9188   5.455   3.244   4.592  0.0530  0.1483  0.0839
 5138W        W 9189   6.822   9.430   0.066  0.4496  0.0712  0.0936
 5139W        W 9190   9.365   7.317   0.014  0.0546  0.0967 -0.1680
 5140W        W 9191   4.380   6.022   4.725  0.0436  0.1087  0.0019
 5141W        W 9192   9.272   5.815  13.342  0.3535  0.0971 -0.0996
 5142W        W 9193   7.064   9.939   0.669  0.3011  0.0403 -0.1943
 5143W        W 9194   6.574   7.885  10.750  0.5455  0.3031 -0.1670
 5144W        W 9195   1.735   3.538   3.187  0.2726  0.1904  0.0809
 5145W        W 9196   9.806   2.136   2.315  0.0246 -0.1570 -0.2984
 5146W        W 9197   9.603   4.237   4.241  0.1326 -0.0304  0.0464
 5147W        W 9198   7.923   8.663  12.446  0.1841  0.0524  0.0586
 5148W        W 9199   0.230   3.043   9.939 -0.1364  0.0750  0.0257
 5149W        W 9200   2.700   3.768   4.703  0.0063 -0.0098 -0.0969
 5150W        W 9201   3.682   7.494  13.868  0.0928 -0.0539 -0.1702
 5151W        W 9202   1.801   1.783   0.468  0.0340  0.0181  0.0268
 5152W        W 9203   6.613   1.497   1.092 -0.0136 -0.1055  0.0548
 5153W        W 9204   0.300   0.600   3.802  0.1619  0.2867  0.1105
 5154W        W 9205   2.247   8.271  10.850  0.1157 -0.3633  0.1714
 5155W        W 9206   1.491   7.307  12.581  0.2450  0.0517 -0.2539
 5156W        W 9207   8.747   0.811   3.031 -0.3491 -0.0785 -0.1215
 5157W        W 9208   5.974   2.937  11.038 -0.1575  0.0451  0.1571
 5158W        W 9209   1.127   2.917   2.464  0.0876 -0.0968 -0.1815
 5159W        W 9210   1.442   9.431  11.960 -0.1136 -0.2132 -0.3661
 5160W        W 9211   5.940   9.983  13.438 -0.0362 -0.1655  0.0644
 5161W        W 9212   7.591   1.863   1.500  0.1937  0.0690  0.0524
 5162W        W 9213  10.128   2.483  12.162 -0.0413 -0.1601  0.1341
 5163W        W 9214   2.680   3.867  10.849 -0.0893  0.1120  0.3108
 5164W        W 9215   5.070   6.732   2.127  0.0271 -0.0243 -0.0804
 5165W        W 9216   1.266   3.664   2.188 -0.0971  0.1098 -0.0864
 5166W        W 9217   6.461  10.152   0.886  0.1328  0.0119 -0.2560
 5167W        W 9218   2.641   3.677   2.079 -0.1197  0.1074  0.1946
 5168W        W 9219   2.456   5.811   3.413 -0.0219 -0.1189  0.1685
 5169W        W 9220   4.629   2.312  11.743  0.0411 -0.3273  0.1908
 5170W        W 9221   6.926   4.682   3.162  0.2222 -0.0755  0.0960
 5171W        W 9222   2.917   5.330  12.629  0.1933  0.0350 -0.2748
 5172W        W 9223   8.041   5.323   1.329  0.3220 -0.1072 -0.2372
 5173W        W 9224   7.017   9.576   2.134 -0.2497  0.3402  0.0478
 5174W        W 9225   7.916   4.575   2.621  0.0221  0.1196  0.0647
 5175W        W 9226   1.353   0.003   1.268  0.1415  0.1835 -0.1749
 5176W        W 9227   0.491   2.330  13.832 -0.1312  0.0065 -0.2854
 5177W        W 9228   8.332   9.278   4.336  0.0340  0.1835  0.1715
 5178W        W 9229   0.659   8.061   2.918 -0.0784 -0.0268 -0.0148
 5179W        W 9230   9.933   1.678  12.008  0.0846 -0.0243 -0.1554
 5180W        W 9231   9.463   7.553  13.468 -0.0690 -0.2241 -0.1177
 5181W        W 9232   8.802   0.728  13.246  0.3787 -0.2047  0.1203
 5182W        W 9233   2.685   4.615   9.516  0.0960  0.2144  0.0558
 5183W        W 9234   9.163   4.949  13.456  0.0942  0.0463 -0.1429
 5184W        W 9235   6.535  10.142   8.537 -0.0194  0.2023 -0.0839
 5185W        W 9236   2.482   2.648  12.060  0.0324 -0.1831 -0.0031
 5186W        W 9237   2.983   0.961   3.587 -0.3843 -0.2051  0.0615
 5187W        W 9238   8.829   8.604  10.696 -0.2903  0.3099  0.0826
 5188W        W 9239   5.164   7.046  10.524 -0.0398  0.0742  0.1345
 5189W        W 9240   3.291   0.229   0.243 -0.0465 -0.1730  0.1922
 5190W        W 9241   3.386   1.190   9.568 -0.2039 -0.2385 -0.0168
 5191W        W 9242   4.930   8.960   3.780 -0.0539  0.2752 -0.0070
 5192W        W 9243   5.927   7.174   3.391  0.1180 -0.2150 -0.2253
 5193W        W 9244   8.252   5.714  12.955  0.1361  0.0047  0.0345
 5194W        W 9245   0.670   1.613  10.736 -0.0267  0.1101  0.3150
 5195W        W 9246   3.498   4.998  10.969 -0.2572  0.0419 -0.0130
 5196W        W 9247   1.789   3.333   0.070 -0.1743  0.0118 -0.2232
 5197W        W 9248   5.628   6.332   9.355  0.2974  0.0315  0.0954
 5198W        W 9249   3.458   1.479  12.086  0.2614  0.2723  0.2612
 5199W        W 9250   1.421   7.855  12.332 -0.0276  0.0095 -0.2242
 5200W        W 9251   3.501   3.512   2.234 -0.0284  0.3118  0.0460
 5201W        W 9252   4.553   6.976   1.308 -0.0030 -0.2048  0.1774
 5202W        W 9253   4.588   7.487  13.662  0.1079  0.2545  0.0848
 5203W        W 9254   4.043   9.183  10.771  0.0107 -0.1756  0.0658
 5204W        W 9255   4.651   7.978   2.275 -0.0081 -0.1643  0.0570
 5205W        W 9256   0.229   5.991   3.516  0.2142  0.0837  0.2677
 5206W        W 9257   6.549   2.784   4.793  0.4934 -0.1941  0.0279
 5207W        W 9258   4.697   9.788   4.548  0.0818 -0.1410  0.1482
 5208W        W 9259   6.283   2.085  11.561 -0.2928 -0.3542  0.2917
 5209W        W 9260   9.100   5.569   2.874  0.0887  0.0418 -0.0783
 5210W        W 9261   6.075  10.063   3.723 -0.0512  0.2698  0.0057
 5211W        W 9262   0.241   4.787   5.340 -0.0936 -0.0937  0.0189
 5212W        W 9263   3.931   3.690   4.248  0.0381  0.1655  0.2238
 5213W        W 9264   5.214   1.708   1.773  0.0375 -0.2280  0.4032
 5214W        W 9265   9.451   6.692   4.692  0.2535  0.0126 -0.2801
 5215W        W 9266   7.002   9.849  10.448  0.3728  0.0419 -0.1369
 5216W        W 9267   3.473   8.291  11.271  0.0885  0.0979  0.0528
 5217W        W 9268   2.276   9.406  11.877 -0.0555 -0.0948  0.1341
 5218W        W 9269   8.491   4.607   2.589  0.0064  0.0208 -0.3739
 5219W        W 9270   9.157   0.861  11.206  0.1134 -0.3686 -0.1170
 5220W        W 9271   4.363   2.704   9.266 -0.0674 -0.1525  0.0298
 5221W        W 9272   6.769   7.121   0.561  0.1509 -0.1149  0.1230
 5222W        W 9273   8.868   0.338   0.401  0.0577  0.0138 -0.0809
 5223W        W 9274   6.483   3.027   5.524 -0.1903  0.2001  0.0558
 5224W        W 9275   9.936   7.541  13.202 -0.0740 -0.1427 -0.2178
 5225W        W 9276   6.458   1.599   0.470 -0.3007  0.2944 -0.2228
 5226W        W 9277   8.300   7.879   9.944  0.1892  0.0174  0.2249
 5227W        W 9278   8.730   1.214   1.210 -0.2266  0.2692  0.3039
 5228W        W 9279   5.350   8.391  10.311  0.2623 -0.0028  0.2711
 5229W        W 9280   3.224   3.537  13.161 -0.1239 -0.1314 -0.3026
 5230W        W 9281   4.789   4.549  10.283 -0.0041 -0.2191 -0.0905
 5231W        W 9282   7.063   8.591   0.023 -0.1234 -0.2580  0.0091
 5232W        W 9283   6.801   6.682   4.140 -0.4297 -0.0415 -0.0470
 5233W        W 9284   9.698   0.629   4.547  0.0232 -0.0213  0.0169
 5234W        W 9285   4.423   3.351  14.007 -0.0193  0.2681 -0.2498
 5235W        W 9286   3.582   8.067  11.666  0.0423 -0.1387 -0.5121
 5236W        W 9287   0.654   2.523   2.252 -0.0223  0.3197 -0.2955
 5237W        W 9288   6.694   5.920   2.827 -0.0028  0.3170 -0.2227
 5238W        W 9289   8.322   2.019  11.392 -0.0774 -0.1349  0.1558
 5239W        W 9290   7.668   7.638   9.759 -0.0653  0.1165  0.1484
 5240W        W 9291   6.141   0.376   0.942 -0.0208 -0.1030 -0.1501
 5241W        W 9292   4.574   6.977   3.227 -0.0711 -0.0116 -0.0269
 5242W        W 9293   8.358   0.211  11.267  0.0287  0.0525 -0.1573
 5243W        W 9294   0.608   8.660  13.944  0.1991  0.0693 -0.4148
 5244W        W 9295   7.861   2.204   3.077  0.0220 -0.0558  0.1568
 5245W        W 9296   0.515   6.006   1.453  0.0617 -0.1043  0.2302
 5246W        W 9297   8.236   2.553   3.240  0.1975 -0.2452  0.1583
 5247W        W 9298   8.332   4.986   4.800  0.0519  0.3956  0.3657
 5248W        W 9299   1.728   1.173   4.521 -0.1987 -0.0730 -0.2453
 5249W        W 9300   7.155   9.102  14.015 -0.1485 -0.0611  0.1526
 5250W        W 9301   3.679   0.973   1.590  0.1338  0.3727 -0.1293
 5251W        W 9302   5.306   7.067  11.331  0.0496  0.0950  0.0615
 5252W        W 9303   1.582   5.507  12.201 -0.0604  0.0087 -0.2181
 5253W        W 9304   5.638   5.661   0.550 -0.0933 -0.1707 -0.2916
 5254W        W 9305   5.519   6.486   0.102 -0.0926  0.2225  0.1972
 5255W        W 9306   0.550   1.193   0.822 -0.0024  0.1740  0.2989
 5256W        W 9307   6.841   0.184  10.199 -0.2974  0.0727  0.1946
 5257W        W 9308   7.223   2.000   5.096 -0.1322 -0.0024 -0.1152
 5258W        W 9309   7.983   9.286   9.758  0.0815  0.1334  0.0667
 5259W        W 9310   2.833   4.481   2.974  0.0263  0.0420  0.1227
 5260W        W 9311   9.855   5.094   1.925 -0.0765  0.2537 -0.0850
 5261W        W 9312   1.764   5.325   4.725  0.1882  0.0653  0.0219
 5262W        W 9313   2.009   5.222  12.081  0.1132  0.0007 -0.1585
 5263W        W 9314   8.913   1.339  10.949  0.0856 -0.2790  0.0461
 5264W        W 9315   8.637   1.648  11.736  0.0209 -0.0441  0.0104
 5265W        W 9316   0.304   4.730   3.270 -0.0104  0.0656  0.0715
 5266W        W 9317   6.130   2.419  11.918  0.1849 -0.1294 -0.1760
 5267W        W 9318   5.636   4.141   4.957  0.2790 -0.0360  0.2314
 5268W        W 9319  10.134   6.184   3.153 -0.2751 -0.1822 -0.2171
 5269W        W 9320   6.034   8.415   4.469  0.0782  0.0393  0.2212
 5270W        W 9321   5.885   8.988   2.753  0.0848  0.3326 -0.0898
 5271W        W 9322   1.644   4.166  10.335 -0.2510  0.0230  0.0537
 5272W        W 9323   5.273   8.510   2.895 -0.1085 -0.0025  0.0364
 5273W        W 9324   5.426   7.703   9.106 -0.0772 -0.0788 -0.1097
 5274W        W 9325   7.318   4.088  12.749 -0.0086 -0.4467  0.0886
 5275W        W 9326   0.720   2.935  10.460  0.0939  0.0195 -0.2029
 5276W        W 9327   2.893   9.659   8.046 -0.0927  0.1116 -0.2532
 5277W        W 9328   2.097   4.154   4.346 -0.0242 -0.0039 -0.0246
 5278W        W 9329  10.051   7.159  13.537  0.0694 -0.2101  0.0501
 5279W        W 9330   2.921   8.892  13.856 -0.0149  0.3634 -0.0904
 5280W        W 9331   9.383   5.639   0.017 -0.1172 -0.0860  0.2428
 5281W        W 9332   8.030   1.619   0.505 -0.0863  0.0282  0.0875
 5282W        W 9333   2.773   3.945   2.935 -0.2871  0.0950  0.0874
 5283W        W 9334   6.669   5.851   2.316  0.3276  0.1025 -0.0385
 5284W        W 9335   8.459   4.365   0.932 -0.2156 -0.1311  0.0300
 5285W        W 9336   8.966   2.525   1.880  0.1571  0.2789 -0.1211
 5286W        W 9337   0.577   8.479   3.358  0.1270  0.2065 -0.0474
 5287W        W 9338   1.753   6.627   2.970 -0.2491 -0.0385  0.1581
 5288W        W 9339   6.063   1.195  12.142  0.2899  0.4392 -0.1459
 5289W        W 9340   9.919   5.478   4.840  0.0293  0.0683  0.0086
 5290W        W 9341   5.195   1.237  13.355 -0.4013 -0.0869  0.1815
 5291W        W 9342   1.956   9.678   1.943  0.0884  0.0024 -0.0646
 5292W        W 9343   7.731   9.752   9.974  0.3020 -0.0312  0.1744
 5293W        W 9344   7.476   0.290   3.166  0.0780  0.0704 -0.1498
 5294W        W 9345   1.805   1.861  10.530  0.0716  0.0823 -0.1693
 5295W        W 9346   4.234   8.547   3.134 -0.1732  0.1637 -0.1475
 5296W        W 9347   5.089   6.120   9.247  0.0652 -0.1948 -0.1479
 5297W        W 9348   7.229   0.616   1.700  0.0779 -0.0667 -0.2519
 5298W        W 9349   5.096   9.284   3.437  0.3570 -0.2688 -0.0534
 5299W        W 9350   7.248   2.585   1.204 -0.0011 -0.0993  0.3148
 5300W        W 9351   0.575   9.173   0.121  0.0759 -0.0063 -0.2953
 5301W        W 9352   9.292   3.339   4.179 -0.3379 -0.2542 -0.1632
 5302W        W 9353   6.134   9.646   1.022  0.0309 -0.0051  0.0794
 5303W        W 9354   8.116   5.440   4.610 -0.1684  0.2339  0.0785
 5304W        W 9355   9.209   8.824   3.818  0.1130  0.0255  0.3428
 5305W        W 9356   7.847   8.104   2.268 -0.2344 -0.0849  0.0050
 5306W        W 9357   3.990   5.086  12.022  0.0168  0.0162  0.1359
 5307W        W 9358   9.042   5.376   4.189  0.1105  0.1481  0.0221
 5308W        W 9359   8.121   3.375   0.047  0.1772 -0.0008 -0.0324
 5309W        W 9360   5.867   8.052   2.315 -0.0167 -0.0805  0.0753
 5310W        W 9361   1.498   9.623   1.847  0.1191  0.2344 -0.0798
 5311W        W 9362   3.513   4.452   3.356  0.1014 -0.0298  0.2786
 5312W        W 9363   9.489   5.063   9.490  0.0251 -0.2083  0.0152
 5313W        W 9364   9.447   8.210   2.218  0.0149  0.0786  0.1982
 5314W        W 9365   3.788   4.134   3.629 -0.0041 -0.1283  0.2391
 5315W        W 9366   4.039   5.763   3.571  0.1742  0.0228 -0.0360
 5316W        W 9367   5.727   2.206   4.817 -0.3028 -0.0306 -0.0056
 5317W        W 9368   1.330   4.207   9.146  0.2319 -0.0230  0.2660
 5318W        W 9369  10.112   4.846  10.737  0.1718  0.2941  0.0124
 5319W        W 9370   4.488   3.774  10.653 -0.0109  0.0799 -0.1000
 5320W        W 9371   8.436   4.337   4.441 -0.0505  0.2834  0.1471
 5321W        W 9372   1.148   1.476   3.279  0.2000  0.1771 -0.0796
 5322W        W 9373   2.949   0.791  12.439  0.0381  0.0674  0.1081
 5323W        W 9374   2.934   9.925  13.162 -0.3112 -0.0252 -0.2811
 5324W        W 9375   1.412   8.978  11.699  0.2377  0.0196  0.1570
 5325W        W 9376   1.899   0.759   0.408  0.2021 -0.0246 -0.0346
 5326W        W 9377   5.667   7.243   1.075  0.1898  0.1296 -0.0634
 5327W        W 9378   3.714   7.946   4.300 -0.3254 -0.3186  0.1891
 5328W        W 9379   6.361   6.578   1.781  0.2162  0.2401  0.2153
 5329W        W 9380   0.784   0.530   3.967 -0.1276 -0.0953  0.0117
 5330W        W 9381   5.012   6.084  13.584  0.0577 -0.0903  0.1179
 5331W        W 9382   3.063   4.970   2.776 -0.1419  0.1430 -0.1455
 5332W        W 9383   0.165   2.502   1.985  0.2282  0.0297  0.1186
 5333W        W 9384   6.004   5.926  10.479 -0.0452  0.1425  0.1001
 5334W        W 9385   4.770   6.617   1.699  0.1803  0.0379  0.0670
 5335W        W 9386   6.291   2.267  13.298  0.0839 -0.0145  0.1948
 5336W        W 9387   6.109   7.262  10.289  0.0246  0.0355 -0.1506
 5337W        W 9388   2.309   8.895  12.978 -0.0534  0.0213 -0.1700
 5338W        W 9389   8.008   6.815   1.826  0.0160  0.1264 -0.1874
 5339W        W 9390   5.995   3.346  10.258 -0.2500 -0.1117 -0.1494
 5340W        W 9391   2.248   4.895  12.861 -0.0872 -0.2433 -0.3739
 5341W        W 9392   6.552   5.659   0.468  0.2837 -0.1094 -0.1832
 5342W        W 9393  10.153   4.337   5.875  0.2386  0.2645  0.2479
 5343W        W 9394   0.225   8.361   2.933  0.0174  0.1769 -0.0095
 5344W        W 9395   8.499   2.547   2.125 -0.1225 -0.0480  0.3933
 5345W        W 9396   9.936   8.075  10.464 -0.0861 -0.1608 -0.3154
 5346W        W 9397   7.652   0.177  12.675  0.0231 -0.1051  0.4262
 5347W        W 9398   7.753   7.304   2.217 -0.1114 -0.0308 -0.0433
 5348W        W 9399   9.900   2.529   4.580  0.1866  0.3054 -0.0686
 5349W        W 9400   3.135   0.712   0.329 -0.0139  0.1042 -0.1411
 5350W        W 9401   4.114   1.036  13.857  0.0251 -0.2445 -0.2258
 5351W        W 9402   8.697   0.677   2.515 -0.2227  0.1395 -0.0406
 5352W        W 9403   5.931   0.436   1.904  0.3319  0.0192  0.0111
 5353W        W 9404   9.965   9.728  12.625  0.0802 -0.1705  0.1150
 5354W        W 9405   3.488   6.467  13.540 -0.0014 -0.0631 -0.0052
 5355W        W 9406   3.084   5.569   9.583 -0.1815  0.0070 -0.0011
 5356W        W 9407   3.630   1.921   1.686 -0.1147 -0.3134 -0.1754
 5357W        W 9408  10.078   6.086  11.100 -0.1112  0.1588 -0.0121
 5358W        W 9409  10.133   3.464  10.504 -0.0752 -0.3805 -0.0597
 5359W        W 9410   7.183   9.234  13.420  0.0454 -0.1275 -0.2405
 5360W        W 9411   6.907   0.931  11.939 -0.3011  0.0824  0.1819
 5361W        W 9412   3.951   7.588   4.092  0.4478 -0.1241  0.0506
 5362W        W 9413   3.716   8.217  12.189  0.3176  0.0161 -0.8410
 5363W        W 9414   4.398   6.893   9.009 -0.1446 -0.1004  0.1812
 5364W        W 9415   4.919   5.421  12.206 -0.3491  0.1832  0.0998
 5365W        W 9416   6.466   5.337  10.746 -0.1493  0.1780  0.3021
 5366W        W 9417   0.940   3.269   9.413 -0.1244 -0.1687  0.0037
 5367W        W 9418   8.335   8.712   0.557  0.3416 -0.0719 -0.0419
 5368W        W 9419   0.750   1.831  12.594 -0.2561 -0.0981  0.3745
 5369W        W 9420   1.427   9.784  12.568 -0.1398 -0.3686  0.4222
 5370W        W 9421   5.503   7.180   4.663  0.2137 -0.2233 -0.1733
 5371W        W 9422   5.522   5.082   0.499  0.2503  0.0168  0.1106
 5372W        W 9423   6.881   7.150   5.597 -0.1977 -0.0440  0.3358
 5373W        W 9424   8.166   3.019  12.890  0.0941 -0.1824  0.2333
 5374W        W 9425   9.974   1.967   5.182 -0.1590  0.3227  0.0078
 5375W        W 9426   6.007   3.125   4.738 -0.3345 -0.1739  0.3037
 5376W        W 9427   5.599   2.635  11.110  0.0207 -0.1072  0.1482
 5377W        W 9428   4.291   1.800  13.671 -0.2529 -0.2275  0.0656
 5378W        W 9429   5.792   4.054   1.389  0.3644 -0.1745  0.0315
 5379W        W 9430   6.488   9.568  10.920 -0.2584  0.0360  0.1686
 5380W        W 9431   3.204   2.110  10.132  0.1907  0.1111 -0.0431
 5381W        W 9432   1.859   2.416   9.787 -0.0207 -0.0754 -0.2278
 5382W        W 9433   8.304   4.095   3.227 -0.1817 -0.0451 -0.1887
 5383W        W 9434   6.389   4.579   2.396 -0.0784  0.1060  0.0805
 5384W        W 9435   3.728   0.042  10.124  0.0357 -0.0894  0.1757
 5385W        W 9436   0.013   2.167   1.608 -0.2397 -0.5584  0.1297
 5386W        W 9437   4.642   8.872  10.884  0.0465  0.2520 -0.0304
 5387W        W 9438   0.646   6.346   5.042  0.0199  0.2837 -0.2251
 5388W        W 9439   6.701   9.520   5.765  0.1647 -0.0170 -0.1096
 5389W        W 9440   1.408   1.202  13.813 -0.1965 -0.1052  0.0563
 5390W        W 9441   0.933   2.442   4.791 -0.3207 -0.2578  0.1105
 5391W        W 9442   0.674   7.179   9.839 -0.1046  0.0694  0.0422
 5392W        W 9443   8.607   7.602  10.847  0.0401  0.0699 -0.3682
 5393W        W 9444   6.660   4.674  13.601 -0.0904 -0.0588 -0.1165
 5394W        W 9445   2.433   7.686  12.240  0.1237  0.0993  0.0212
 5395W        W 9446   0.779   8.862   1.237 -0.0858 -0.0513  0.2596
 5396W        W 9447   1.678   0.903   2.794 -0.0460 -0.1766 -0.4279
 5397W        W 9448   7.731   9.705   0.060  0.1015  0.0302 -0.1111
 5398W        W 9449   7.304   7.675  10.106 -0.0384 -0.2091 -0.0645
 5399W        W 9450   7.400   5.069   4.279  0.3101 -0.2476  0.1712
 5400W        W 9451   6.452   3.936  11.853 -0.2181  0.0540  0.2265
 5401W        W 9452   8.962   1.063   2.116  0.2644 -0.1576 -0.1051
 5402W        W 9453   7.189   8.105   1.787 -0.0759 -0.1711 -0.1010
 5403W        W 9454   5.214   3.982   3.458 -0.0195  0.2934 -0.0343
 5404W        W 9455   0.800   4.792   9.773 -0.1384 -0.3160 -0.0869
 5405W        W 9456   9.063   2.500   2.879 -0.1458  0.0648 -0.1437
 5406W        W 9457   3.320   1.978   4.456 -0.1063 -0.2043  0.0343
 5407W        W 9458   6.144   5.709   8.680 -0.0167  0.1086  0.0122
 5408W        W 9459   4.605   9.821  11.095 -0.3620  0.1450  0.2012
 5409W        W 9460   6.180   7.655   2.561 -0.2620 -0.0275 -0.3231
 5410W        W 9461   6.153   5.544   3.309 -0.0044  0.0022 -0.5802
 5411W        W 9462   3.658   6.390   4.373  0.0046  0.2071  0.0189
 5412W        W 9463   5.793   3.354  10.741 -0.2097 -0.2262  0.2246
 5413W        W 9464   3.729   2.589   0.331  0.4088  0.2993  0.0177
 5414W        W 9465   6.874   8.162   9.567 -0.1015 -0.2013  0.0488
 5415W        W 9466   3.358   8.286   1.826  0.2965  0.0930  0.1240
 5416W        W 9467   0.449   8.161   2.141  0.0051  0.2124 -0.0700
 5417W        W 9468   6.197   6.443   4.775  0.2892 -0.0128  0.1667
 5418W        W 9469   0.294   3.557   1.053  0.0644  0.0359  0.1469
 5419W        W 9470   4.676   3.782  14.023  0.0688 -0.0736  0.1567
 5420W        W 9471   6.157   1.807   3.557 -0.0581  0.1360 -0.0128
 5421W        W 9472   4.349   5.450  13.353  0.2379 -0.0719 -0.3224
 5422W        W 9473   6.847   5.669  10.867  0.2194 -0.0651 -0.0101
 5423W        W 9474   0.278   2.557   1.387 -0.0049 -0.0573  0.0408
 5424W        W 9475   3.346   6.923  13.675 -0.1391  0.0290  0.0284
 5425W        W 9476   0.548   5.160   3.110  0.1669 -0.0590  0.0723
 5426W        W 9477   9.895   3.329   9.627 -0.1178 -0.0567  0.0999
 5427W        W 9478   4.948   1.794   4.408 -0.1155 -0.2709 -0.0303
 5428W        W 9479   8.687   6.108  10.439 -0.0171  0.2636 -0.0957
 5429W        W 9480   3.653   6.775   1.541 -0.1606 -0.1162  0.0623
 5430W        W 9481   3.065   6.361   9.141 -0.1826  0.0216  0.0559
 5431W        W 9482   6.697   1.984   1.778 -0.0082 -0.1614 -0.0658
 5432W        W 9483   2.367   5.776  10.297  0.1530 -0.1287  0.2281
 5433W        W 9484   6.974   3.566   1.829  0.0892  0.1389 -0.1298
 5434W        W 9485   5.670   5.768   4.658 -0.3289  0.4565  0.0107
 5435W        W 9486   6.016   0.988  10.997 -0.1732 -0.0988  0.2677
 5436W        W 9487   6.060   5.457   1.413  0.4090 -0.2403  0.3033
 5437W        W 9488   9.090   6.595   1.998 -0.1807  0.5722  0.0665
 5438W        W 9489   6.524   4.981  11.496  0.1682  0.2406 -0.1964
 5439W        W 9490   6.861   2.831  11.265  0.3240  0.0843 -0.2300
 5440W        W 9491   9.190   2.068   9.392 -0.0789  0.1839 -0.2674
 5441W        W 9492   1.191   9.162   2.295 -0.1241 -0.0154  0.2968
 5442W        W 9493   9.301   0.686  10.335  0.1222 -0.1471  0.3175
 5443W        W 9494   8.090   3.877   1.130  0.0958  0.1109  0.0524
 5444W        W 9495   5.629   9.698   0.380  0.2344  0.1714 -0.0908
 5445W        W 9496  10.079   5.525  10.193 -0.1476  0.2551  0.1541
 5446W        W 9497   6.224   3.122   3.190 -0.2234  0.1984 -0.2193
 5447W        W 9498   0.365   4.383  13.517 -0.0927 -0.0183  0.2003
 5448W        W 9499   4.013   1.376   2.946  0.1210 -0.2400  0.3521
 5449W        W 9500   1.851   8.677   1.810  0.1806 -0.2530  0.1413
 5450W        W 9501   5.197   1.998  10.951 -0.0108  0.2974  0.0849
 5451W        W 9502   6.719   9.005   2.176  0.2045  0.1270  0.1251
 5452W        W 9503   4.029   1.728   1.921  0.0331 -0.1608 -0.0332
 5453W        W 9504   3.845   5.466   3.149 -0.3870  0.0539 -0.0889
 5454W        W 9505   9.795   8.716  12.421 -0.1395 -0.0378  0.1060
 5455W        W 9506   4.550   2.251   9.664 -0.3013  0.0017  0.0685
 5456W        W 9507   9.580   6.943   3.634 -0.2088 -0.2168  0.2169
 5457W        W 9508   3.548   4.268   2.395 -0.0294 -0.2804 -0.1010
 5458W        W 9509   6.899   6.688  12.593  0.0765  0.1185  0.0111
 5459W        W 9510   1.896   5.347  13.783  0.0688  0.1191  0.3508
 5460W        W 9511   5.513   7.691   2.156 -0.0316  0.1935 -0.0990
 5461W        W 9512   8.220   1.216  10.746  0.0017 -0.0357  0.0735
 5462W        W 9513   8.237   2.181  12.885 -0.0433 -0.0570 -0.2584
 5463W        W 9514   8.237   2.297  13.480 -0.1173 -0.0516 -0.1466
 5464W        W 9515   4.971   1.440   2.516  0.0154 -0.0589 -0.0017
 5465W        W 9516   4.302   4.752   9.881 -0.1321 -0.0871  0.2026
 5466W        W 9517   5.504   7.844   3.355  0.0433  0.1271 -0.1495
 5467W        W 9518   5.042   2.283  11.333  0.3744  0.1812  0.0208
 5468W        W 9519   7.338   7.262   9.671 -0.0376  0.1298 -0.2202
 5469W        W 9520   1.023   7.585   1.413 -0.2403  0.0450 -0.3069
 5470W        W 9521   5.583   8.227   4.500 -0.2484 -0.2222  0.0268
 5471W        W 9522   1.087   0.402   2.541 -0.1090  0.1490 -0.0520
 5472W        W 9523   3.710   7.160  13.358  0.0601 -0.1815  0.2517
 5473W        W 9524   3.835   7.524   0.372  0.2560  0.0761 -0.0034
 5474W        W 9525   8.644   4.595  10.307 -0.1219 -0.0214 -0.0332
 5475W        W 9526   6.217   6.849  11.556  0.4140 -0.2027 -0.0712
 5476W        W 9527   3.680   8.330   0.862 -0.2153 -0.0961 -0.2212
 5477W        W 9528   6.843   2.542   3.410  0.0568  0.0703  0.0174
 5478W        W 9529   5.606   6.262  12.503 -0.2953 -0.3536  0.2247
 5479W        W 9530   9.834   2.837  11.935  0.1569  0.3018  0.3499
 5480W        W 9531   1.292   5.700   4.147  0.0010  0.3538 -0.2396
 5481W        W 9532   0.392   1.567  13.954 -0.0865 -0.0661 -0.2746
 5482W        W 9533   0.518   6.390   1.771  0.0634 -0.0723  0.0523
 5483W        W 9534   5.342   5.507   2.589 -0.0531 -0.1726  0.0160
 5484W        W 9535   7.573   1.408   0.630  0.1663 -0.0520  0.2147
 5485W        W 9536   4.349   0.922   4.225 -0.2744  0.0257  0.0811
 5486W        W 9537   4.420   8.057  10.007 -0.0590  0.0430  0.1104
 5487W        W 9538   7.626   7.207   1.635  0.0212 -0.1193 -0.2934
 5488W        W 9539   4.920   2.025  12.097 -0.0891  0.3313  0.0351
 5489W        W 9540  10.090   7.554  10.498 -0.0798  0.3056  0.3908
 5490W        W 9541   1.785   2.021   1.650  0.2700  0.2792 -0.0610
 5491W        W 9542   7.550   3.424  11.174  0.0515 -0.2190 -0.2159
 5492W        W 9543   7.930   8.204  10.769 -0.0689 -0.1355  0.2527
 5493W        W 9544   5.700   4.152   9.433 -0.0901 -0.0873  0.0035
 5494W        W 9545   5.792   3.199  11.814  0.2796 -0.2263  0.0177
 5495W        W 9546   8.949   8.525  11.760  0.0205 -0.3673 -0.2040
 5496W        W 9547   3.724   9.104   0.269 -0.0085 -0.2122 -0.1386
 5497W        W 9548   6.606   8.036  12.382 -0.0156  0.0538 -0.1957
 5498W        W 9549   9.532   6.423  13.377  0.1575 -0.1808  0.1392
 5499W        W 9550   1.010   5.846  13.060  0.2089 -0.0197 -0.3480
 5500W        W 9551   8.391   3.350   1.745 -0.0986 -0.5045 -0.0612
 5501W        W 9552   8.396   4.113   2.698 -0.0302  0.0811 -0.3671
 5502W        W 9553  10.080   6.876   3.761 -0.0959  0.1621 -0.0811
 5503W        W 9554   8.908   8.652   2.216  0.0599 -0.1133  0.0051
 5504W        W 9555   5.296   2.449   9.230  0.1563  0.0661 -0.0605
 5505W        W 9556   4.079   0.211   0.654 -0.2331  0.5744 -0.1495
 5506W        W 9557   5.809   1.635  11.597 -0.1815 -0.0292 -0.0739
 5507W        W 9558   3.862   5.257   3.719 -0.0100 -0.4039 -0.3285
 5508W        W 9559   0.815   2.309  13.468 -0.0332  0.2114 -0.3095
 5509W        W 9560   1.490   1.040   1.237  0.2403  0.2720 -0.0197
 5510W        W 9561   8.889   4.600   1.721  0.2398  0.3548  0.1307
 5511W        W 9562   2.403   9.709  12.998 -0.1647  0.1953 -0.0552
 5512W        W 9563   9.026   1.610   1.838  0.2138  0.0595 -0.2709
 5513W        W 9564   4.478   3.855   4.161  0.1750 -0.1663 -0.1208
 5514W        W 9565   6.198   8.224  10.535 -0.1252 -0.1862  0.1239
 5515W        W 9566   6.970   6.809  12.108 -0.1159  0.2469 -0.1093
 5516W        W 9567   6.515   3.278  10.152  0.0321 -0.0516 -0.1728
 5517W        W 9568   2.479   4.718  10.133 -0.1339 -0.2031 -0.0414
 5518W        W 9569   2.424   2.592   2.200  0.2153 -0.1219  0.0689
 5519W        W 9570   7.223   4.531   3.975 -0.2742  0.0613 -0.1592
 5520W        W 9571   1.736   6.593  10.791 -0.0507 -0.0899  0.1348
 5521W        W 9572   8.628   2.023   0.561  0.0688  0.1197  0.3449
 5522W        W 9573   4.798   4.259  11.528  0.1433  0.2931  0.0319
 5523W        W 9574   2.460   9.021   2.582 -0.1023  0.1256 -0.0177
 5524W        W 9575   1.671   4.306  13.579 -0.1573 -0.1945  0.2089
 5525W        W 9576   8.187   9.250   1.976  0.0165 -0.0039  0.0914
 5526W        W 9577   3.865   5.619  12.619  0.1624  0.1966 -0.0304
 5527W        W 9578   0.703   5.749   3.336  0.0248  0.1966 -0.1687
 5528W        W 9579   4.207   9.896   0.567 -0.1873  0.3003  0.0791
 5529W        W 9580   9.139   2.875   9.498  0.0928  0.2106  0.0695
 5530W        W 9581   3.826   4.198   3.035 -0.0379  0.0307 -0.1432
 5531W        W 9582   0.601   8.507  12.630 -0.1007  0.0820 -0.0009
 5532W        W 9583   3.499   3.006  11.926  0.4338 -0.0966  0.1807
 5533W        W 9584   3.476   6.477  11.653  0.2697  0.1510  0.0535
 5534W        W 9585   9.618   1.763  13.876  0.0020 -0.0163  0.1592
 5535W        W 9586   1.624   5.484   0.184  0.3100  0.1031 -0.1133
 5536W        W 9587   4.709   8.501   3.603  0.0639  0.1317 -0.0611
 5537W        W 9588   8.655   1.837   5.120 -0.1384  0.1844  0.1358
 5538W        W 9589   1.745   5.136  12.488 -0.0223  0.0617  0.1371
 5539W        W 9590   8.009   5.530  13.953 -0.1133 -0.1191 -0.3362
 5540W        W 9591   0.924   4.758   1.272 -0.1574  0.2229  0.0368
 5541W        W 9592  10.122   8.062  13.931 -0.1176  0.0573 -0.1051
 5542W        W 9593   1.093   7.027  12.323 -0.0415 -0.0181  0.1144
 5543W        W 9594  10.073   5.774   2.798 -0.0138 -0.1898 -0.1189
 5544W        W 9595   7.812   5.081  11.498 -0.1489  0.3956  0.0799
 5545W        W 9596   5.003   0.517  11.017 -0.1969  0.0595 -0.2222
 5546W        W 9597   5.115   8.918   4.240 -0.5407  0.3026 -0.0782
 5547W        W 9598   3.201   1.409   0.937 -0.1271  0.0577 -0.1228
 5548W        W 9599   0.707   6.696   2.514 -0.3134 -0.0259  0.0305
 5549W        W 9600   2.185   9.440   3.323 -0.3192 -0.1541 -0.0405
 5550W        W 9601   6.785   4.081  13.355  0.1579  0.2079 -0.0787
 5551W        W 9602   1.069   6.348  13.188  0.0617 -0.1279  0.0999
 5552W        W 9603   2.498   6.676  11.207 -0.0763  0.0613  0.3480
 5553W        W 9604   4.745   4.548   0.618  0.0095  0.0664  0.1206
 5554W        W 9605   4.232   6.407  11.857 -0.0528 -0.0399  0.0816
 5555W        W 9606   1.234   8.448  13.556 -0.0509  0.4774  0.2420
 5556W        W 9607   4.923   4.234  12.126 -0.2118  0.0557 -0.1098
 5557W        W 9608   3.696   3.923   9.606 -0.0369 -0.0118  0.1566
 5558W        W 9609   1.622   2.172   4.790  0.1872  0.2952  0.0808
 5559W        W 9610   5.553   5.658   3.901  0.2006  0.0994 -0.1714
 5560W        W 9611   0.445   6.300   2.267 -0.0227 -0.0280 -0.2044
 5561W        W 9612   9.580   1.055   4.933 -0.1994  0.0424  0.0808
 5562W        W 9613   2.771   3.087   9.209  0.0342  0.0371  0.2276
 5563W        W 9614   4.451   0.661  10.839  0.0959 -0.2248 -0.1322
 5564W        W 9615   8.874   9.387   1.459 -0.1666  0.0190 -0.1280
 5565W        W 9616   7.056   6.636  10.766  0.0155 -0.1946 -0.0807
 5566W        W 9617   6.376   5.986   3.211  0.2015 -0.4963  0.0677
 5567W        W 9618   6.356   2.207   4.985 -0.2145 -0.0210  0.0278
 5568W        W 9619   1.600   6.034  11.350 -0.0327  0.3063  0.0350
 5569W        W 9620   2.025   8.633  11.528  0.4920 -0.2591 -0.1279
 5570W        W 9621   9.744   4.205   6.084 -0.0393 -0.3538  0.0343
 5571W        W 9622   9.286   0.661  13.171 -0.1281 -0.2800 -0.1735
 5572W        W 9623   9.046   0.869   0.572  0.0641 -0.0613  0.3838
 5573W        W 9624   9.942   1.769   9.896 -0.1481 -0.1421 -0.3319
 5574W        W 9625   9.243   8.935  10.627 -0.2341 -0.0066  0.2009
 5575W        W 9626   9.176   9.575  13.221  0.2236 -0.0432  0.0740
 5576W        W 9627   9.919   9.918  13.183 -0.3077  0.1850  0.0626
 5577W        W 9628   1.258   7.053  13.544 -0.2922  0.0737  0.0113
 5578W        W 9629   1.116   4.319   0.301 -0.1054  0.0429 -0.1303
 5579W        W 9630   3.440   5.790   9.817  0.0670 -0.0223  0.0038
 5580W        W 9631   9.782   0.893   9.904  0.0557  0.0643 -0.0407
 5581W        W 9632   0.957   4.391   9.445 -0.0871 -0.0392  0.3229
 5582W        W 9633   7.876   5.694   0.442  0.0523  0.3068  0.1505
 5583W        W 9634   1.244  10.105   6.512  0.0388 -0.0894 -0.1774
 5584W        W 9635   2.439   3.665   1.171  0.0994 -0.1308  0.1410
 5585W        W 9636   7.478   1.475  12.760  0.4392  0.0545  0.0723
 5586W        W 9637   2.698   6.200  13.206  0.3804 -0.1496  0.0497
 5587W        W 9638   8.280   6.754  13.458 -0.0015  0.0033  0.1377
 5588W        W 9639   4.398   2.096   2.642  0.2385  0.1592  0.0656
 5589W        W 9640   9.188   6.718  11.605  0.3900  0.0683  0.0543
 5590W        W 9641   4.673   7.842  12.700  0.0399  0.2058  0.1211
 5591W        W 9642   8.706   2.958   1.907  0.2120 -0.2827 -0.0653
 5592W        W 9643   5.598   6.574  10.998  0.3716 -0.1764  0.1734
 5593W        W 9644   6.321   2.853   3.704 -0.0756  0.0253  0.0604
 5594W        W 9645   3.915   0.631   3.479  0.0324  0.5625  0.0338
 5595W        W 9646   1.318   7.414  13.201 -0.0216 -0.4302  0.3159
 5596W        W 9647   1.782   8.604   4.109  0.0767  0.1882  0.2227
 5597W        W 9648   4.242   6.802   1.643  0.0689 -0.0137  0.0373
 5598W        W 9649   8.888   6.282   9.895 -0.1017 -0.1382 -0.1999
 5599W        W 9650   8.442   5.721  11.829 -0.1102 -0.0073 -0.2170
 5600W        W 9651   1.220   5.135  10.471  0.2964 -0.0387 -0.0246
 5601W        W 9652   0.306   7.228  10.184  0.1053 -0.0411 -0.0499
 5602W        W 9653   6.044   3.625   1.456 -0.0401 -0.1876  0.2366
 5603W        W 9654   9.447   0.214  13.975 -0.3017  0.2079  0.0980
 5604W        W 9655   4.273   6.341   1.828  0.3005 -0.1617 -0.1567
 5605W        W 9656   9.959   4.178  13.815 -0.0465 -0.1694 -0.1375
 5606W        W 9657   4.981   6.136   3.481 -0.0544 -0.1837  0.2540
 5607W        W 9658   0.941   6.864  11.064 -0.3282  0.1983 -0.0445
 5608W        W 9659   2.697   3.627   9.670  0.0888 -0.0265 -0.0314
 5609W        W 9660   3.442   1.871   8.944 -0.0766  0.4227 -0.2287
 5610W        W 9661   5.280   8.682  13.936 -0.1557  0.1429 -0.1121
 5611W        W 9662   9.182   4.641   2.853  0.1824  0.1362 -0.0726
 5612W        W 9663   1.629   2.253  12.845  0.0347 -0.1415 -0.2049
 5613W        W 9664   1.374   2.393  12.096  0.1619  0.1006  0.1856
 5614W        W 9665  10.048   3.231   5.394 -0.4140 -0.3104 -0.0473
 5615W        W 9666   5.056   6.298   0.022 -0.3040  0.0378 -0.0335
 5616W        W 9667   9.568   7.686   2.958 -0.1878 -0.1650  0.4028
 5617W        W 9668   4.877   1.545   8.973  0.1129  0.0441  0.2156
 5618W        W 9669   7.325   1.939   9.253 -0.0448  0.0299 -0.1789
 5619W        W 9670   0.166   9.212  10.215  0.0598  0.1007  0.0933
 5620W        W 9671   7.441   9.929   1.396  0.0381  0.3513 -0.0501
 5621W        W 9672   0.547   9.233  13.671 -0.2066 -0.0389  0.0448
 5622W        W 9673   5.655   5.312  12.315  0.0206 -0.2531 -0.2250
 5623W        W 9674   1.494   5.308  13.537 -0.0914 -0.2099 -0.0513
 5624W        W 9675   0.840   3.078   2.091 -0.0716 -0.1939 -0.2225
 5625W        W 9676   2.462   2.168  13.517 -0.0438  0.3215  0.3239
 5626W        W 9677   6.648   4.879   5.302 -0.0880 -0.2509  0.0792
 5627W        W 9678   7.515   8.460   0.365 -0.0184  0.0540  0.1169
 5628W        W 9679   6.267   9.653  12.950 -0.0672  0.0484  0.3633
 5629W        W 9680   6.052   6.779   0.026  0.1154  0.0981 -0.2127
 5630W        W 9681   5.900   7.939   4.139  0.0756 -0.2266 -0.1025
 5631W        W 9682   9.171   1.170   1.553 -0.1199  0.1737  0.1852
 5632W        W 9683   6.865   9.291   2.591 -0.1402 -0.1706  0.0624
 5633W        W 9684   7.579   3.682   1.879  0.0061  0.1280  0.0864
 5634W        W 9685   6.295   5.290   9.942 -0.1494 -0.0976  0.2073
 5635W        W 9686   9.963   3.791   1.072  0.1337  0.1798  0.0249
 5636W        W 9687   7.412   2.459   3.380  0.1583 -0.2107  0.2306
 5637W        W 9688   9.920   7.752   0.693 -0.1858 -0.0051  0.0421
 5638W        W 9689   5.509   8.355  10.832  0.1916 -0.0887  0.0028
 5639W        W 9690   3.761   3.026   4.090  0.0479  0.0892 -0.1032
 5640W        W 9691   2.030   9.591  13.339 -0.1466  0.0762 -0.2611
 5641W        W 9692   1.152  10.040   2.194  0.3919  0.2050  0.1626
 5642W        W 9693   5.647   0.215   0.870 -0.1152 -0.0093 -0.0937
 5643W        W 9694   3.241   3.233  10.212 -0.2005 -0.0088  0.1554
 5644W        W 9695   5.972   1.960  12.026  0.4369 -0.1007  0.0446
 5645W        W 9696   7.277   5.094   4.740  0.1736 -0.0818 -0.2868
 5646W        W 9697   6.088   4.903   4.187 -0.0412  0.2769 -0.1067
 5647W        W 9698   6.633   5.683   4.246 -0.1337  0.3435 -0.2113
 5648W        W 9699   0.185   2.581   9.698  0.1001  0.3292  0.1600
 5649W        W 9700   2.817   4.325  10.999 -0.1641 -0.1374 -0.0454
 5650W        W 9701   1.916   9.559  12.247  0.3263  0.3168 -0.2404
 5651W        W 9702   1.825   2.111  10.961 -0.1819  0.1960 -0.2227
 5652W        W 9703   8.955   5.247   3.683 -0.3289  0.1257  0.0698
 5653W        W 9704   0.120   1.762   2.593 -0.3128  0.0432 -0.2134
 5654W        W 9705   5.415   0.682  13.353  0.0708 -0.2001 -0.0243
 5655W        W 9706   4.607   2.547  11.159 -0.0167 -0.1941  0.0962
 5656W        W 9707   9.583   2.278  13.883  0.3170  0.5438  0.1091
 5657W        W 9708   1.935   5.025  13.268 -0.1113 -0.2038  0.2722
 5658W        W 9709   3.165   5.615  11.456  0.0619 -0.0358  0.3256
 5659W        W 9710   4.507   6.572  10.131  0.1094 -0.0718 -0.0462
 5660W        W 9711   4.748   9.728   1.530  0.0568 -0.0539  0.1244
 5661W        W 9712   0.603   9.960  10.824 -0.1086  0.1742  0.1210
 5662W        W 9713   6.629   6.132  12.527 -0.1648  0.2786 -0.4315
 5663W        W 9714   1.492   8.556   0.564 -0.2245  0.2412  0.0945
 5664W        W 9715   5.571   5.239  12.951  0.4457  0.0639  0.0370
 5665W        W 9716   7.948   8.637   0.126  0.4522  0.0221 -0.0000
 5666W        W 9717   8.282   5.865   3.117 -0.0745  0.1043 -0.2417
 5667W        W 9718   7.037   1.762   3.474  0.0453  0.0476 -0.1607
 5668W        W 9719   8.233   0.178   3.068 -0.1016 -0.0364 -0.3925
 5669W        W 9720   7.669   6.974  11.946  0.0616  0.1353 -0.1904
 5670W        W 9721   1.189  10.045  10.790  0.1954 -0.1967 -0.1856
 5671W        W 9722   7.191   7.429   3.397 -0.0770  0.2068 -0.3665
 5672W        W 9723   6.754   3.907   0.412 -0.2095  0.2388  0.1172
 5673W        W 9724   7.999   8.037   4.003  0.2163  0.0304  0.3579
 5674W        W 9725   0.579   6.817  12.138  0.1756 -0.2222 -0.0119
 5675W        W 9726   5.882   8.713  13.080 -0.0157 -0.4107  0.1976
 5676W        W 9727   9.800   5.480   1.258  0.1075 -0.0420 -0.1783
 5677W        W 9728   4.202   4.666   2.268  0.2512  0.0818  0.1523
 5678W        W 9729   7.274   2.396   1.688 -0.1323  0.2875 -0.0838
 5679W        W 9730   2.760   5.981   2.107 -0.0428 -0.1091 -0.1989
 5680W        W 9731   2.032   3.722  12.314  0.0965 -0.4280  0.0104
 5681W        W 9732   4.355   7.310   2.775  0.1043  0.0901  0.2138
 5682W        W 9733   9.900   1.511  10.375 -0.1874 -0.0217 -0.2925
 5683W        W 9734   1.721   4.516   4.272 -0.0560 -0.0445 -0.2654
 5684W        W 9735   4.001   9.510   1.725 -0.0309  0.0118 -0.3115
 5685W        W 9736   9.653   3.645   0.057 -0.2457 -0.1028 -0.2617
 5686W        W 9737   4.811   3.024   1.627 -0.0244  0.0041  0.0252
 5687W        W 9738   4.475   2.703  10.650  0.1357 -0.2207  0.1962
 5688W        W 9739   7.500   0.738   9.742 -0.0702 -0.0868 -0.3376
 5689W        W 9740   3.817   5.575  13.758  0.0417 -0.0080 -0.1167
 5690W        W 9741   8.181   1.260   1.448  0.2282  0.1297 -0.3218
 5691W        W 9742   8.992   1.569  13.342  0.0909 -0.1930  0.0194
 5692W        W 9743   4.811   4.698   1.615  0.2251  0.0055  0.2125
 5693W        W 9744   5.419   7.308   3.348 -0.2609  0.2347  0.0556
 5694W        W 9745  10.160   6.625  10.950 -0.2362  0.2123 -0.2063
 5695W        W 9746   6.485   4.457  12.673  0.3451  0.1482 -0.2387
 5696W        W 9747   9.766   2.867  12.407 -0.3134 -0.1524  0.0658
 5697W        W 9748   4.615   3.154   3.297 -0.1866 -0.1432  0.0052
 5698W        W 9749   3.352   7.813  13.775 -0.3149 -0.1054  0.1472
 5699W        W 9750   7.250   1.725   0.346 -0.1468 -0.0906  0.1745
 5700W        W 9751   0.516   8.061   3.658 -0.0196  0.1436 -0.0904
 5701W        W 9752   0.684   8.674   0.755  0.3222  0.0982 -0.1051
 5702W        W 9753   7.047   5.808   3.831 -0.1100 -0.1380  0.1340
 5703W        W 9754   7.089   2.966   0.424 -0.0296 -0.1282 -0.1338
 5704W        W 9755   9.478   7.038  10.051  0.0173  0.0162 -0.0595
 5705W        W 9756   5.966   6.790  10.018  0.0275 -0.2112  0.3625
 5706W        W 9757   3.817   6.895  13.811 -0.0427 -0.1621 -0.2647
 5707W        W 9758   2.746   1.175   1.624 -0.0477 -0.5684  0.0399
 5708W        W 9759   1.805   2.955  10.700 -0.0108  0.0418  0.0283
 5709W        W 9760   3.723   5.629   2.287 -0.1694  0.2320 -0.1980
 5710W        W 9761   0.989   6.557   3.943  0.0296 -0.0309  0.1717
 5711W        W 9762   7.463   0.754  10.742 -0.0630 -0.1447  0.0238
 5712W        W 9763   3.353   6.836   2.929  0.1856  0.1096 -0.1265
 5713W        W 9764   2.557   0.905   1.240 -0.0289  0.0959 -0.1754
 5714W        W 9765   4.894   1.172   9.266 -0.0384 -0.0167  0.0617
 5715W        W 9766   1.523   6.933  11.356 -0.1557 -0.0770  0.1293
 5716W        W 9767   6.199   6.360   5.257  0.0368 -0.0776  0.2051
 5717W        W 9768   3.837   7.006   2.125  0.0467 -0.2674  0.1466
 5718W        W 9769   7.398   2.101  11.200  0.0661 -0.3921  0.2182
 5719W        W 9770   4.846   1.091   0.674 -0.1512  0.2578  0.0092
 5720W        W 9771   9.005   3.476   3.249  0.0196 -0.0870 -0.1578
 5721W        W 9772   4.923   7.393   0.598 -0.4230  0.2177  0.0956
 5722W        W 9773   2.882   0.390   9.976  0.3238 -0.2087  0.2970
 5723W        W 9774   4.627   7.380  12.395 -0.0447 -0.1277  0.0125
 5724W        W 9775   2.836   6.695   4.078 -0.1331 -0.0389 -0.1264
 5725W        W 9776   7.014   9.487  10.803  0.0253 -0.3119  0.0095
 5726W        W 9777   8.035   1.106  11.280 -0.0385  0.1080 -0.1085
 5727W        W 9778   8.646   4.777  13.555 -0.0367  0.1479 -0.1336
 5728W        W 9779   4.387   2.018   2.092 -0.0011 -0.0630 -0.3180
 5729W        W 9780   2.876   7.279   0.194 -0.2048 -0.1544  0.1111
 5730W        W 9781   1.154   2.517   2.102 -0.1539  0.0157  0.0082
 5731W        W 9782   6.493   8.647  10.510 -0.1138  0.2092  0.0963
 5732W        W 9783   3.089   6.510  13.860  0.1695  0.0519 -0.0543
 5733W        W 9784   5.043  10.138   1.563 -0.0945  0.1497 -0.3800
 5734W        W 9785   5.756   8.413  12.247 -0.3483 -0.2116 -0.1714
 5735W        W 9786   9.447   4.668   3.303 -0.1357  0.1448  0.1500
 5736W        W 9787   1.479   7.714  10.899  0.0120  0.1373 -0.0364
 5737W        W 9788   6.288   9.733   3.168  0.1037  0.1903  0.0030
 5738W        W 9789   3.248   5.850   2.301  0.0836 -0.0022  0.0796
 5739W        W 9790   4.191   5.301   0.281  0.2560  0.0939 -0.1497
 5740W        W 9791   5.961  10.111  10.119  0.3482 -0.0377 -0.1487
 5741W        W 9792   5.832   3.921   3.867  0.1384  0.0666  0.1678
 5742W        W 9793   2.494   0.081  12.280 -0.3236 -0.0639  0.1893
 5743W        W 9794   1.241   5.827   0.090  0.0814 -0.1723  0.0670
 5744W        W 9795   2.838   8.837  12.748  0.2529 -0.0970 -0.2156
 5745W        W 9796   6.339   2.928  13.792 -0.1679 -0.1126  0.1347
 5746W        W 9797   5.487   7.506  13.999  0.0029  0.0207  0.1148
 5747W        W 9798   7.323   8.171   4.035  0.1208  0.3040  0.0874
 5748W        W 9799   2.531   9.173  14.037  0.2158 -0.2144 -0.2231
 5749W        W 9800   9.818   2.023  13.488 -0.2145  0.0420 -0.1275
 5750W        W 9801   9.572   8.455  13.306  0.4614  0.0192 -0.1770
 5751W        W 9802   8.642   3.994  12.654 -0.1554 -0.4762  0.1797
 5752W        W 9803   5.043   6.414   2.691 -0.0844  0.1077  0.1098
 5753W        W 9804   2.483   6.898   2.992  0.1159  0.0559 -0.1717
 5754W        W 9805   3.475   5.202   2.183  0.1064  0.0136 -0.2127
 5755W        W 9806   6.947   6.029  10.272  0.0285  0.2442  0.0139
 5756W        W 9807   6.331   8.317  11.526 -0.2822 -0.0932  0.2506
 5757W        W 9808   1.643  10.037   2.110 -0.3184 -0.1374  0.1157
 5758W        W 9809   9.424   0.376   3.668  0.1237  0.0838  0.0827
 5759W        W 9810   6.144   7.234   9.243  0.0316 -0.2159  0.0394
 5760W        W 9811   0.399   6.875  11.122 -0.1626 -0.1167 -0.0149
 5761W        W 9812   3.217   5.206   9.979  0.0292  0.3143 -0.0737
 5762W        W 9813   2.976   3.688   0.702  0.0242 -0.1386  0.2780
 5763W        W 9814   0.581   8.092  13.937  0.1851  0.2145 -0.0196
 5764W        W 9815   3.845   4.446  10.171 -0.0009  0.0429 -0.1198
 5765W        W 9816   1.657   4.000  13.154  0.0203 -0.1184 -0.0810
 5766W        W 9817   8.542   3.481   1.209 -0.1277 -0.2441  0.3665
 5767W        W 9818   1.919   3.512   2.730  0.0375 -0.3124 -0.1066
 5768W        W 9819   8.225   0.095   5.392  0.1072  0.0512 -0.0929
 5769W        W 9820   9.875   9.898   2.529  0.3014  0.0302  0.5163
 5770W        W 9821   9.028   8.635  11.186 -0.0076  0.2427 -0.0511
 5771W        W 9822   4.226   4.934   3.547 -0.2163 -0.0799  0.1903
 5772W        W 9823   6.212   1.474   2.137 -0.2025 -0.2185  0.1929
 5773W        W 9824   9.372   2.648   0.087  0.1791 -0.5193  0.4351
 5774W        W 9825   5.948   0.363  10.947  0.0049  0.1121  0.0818
 5775W        W 9826   7.707   6.483   2.573  0.0490  0.1317  0.0318
 5776W        W 9827   4.805   5.691  11.641 -0.0867 -0.0232  0.2131
 5777W        W 9828   2.457   2.091  14.021 -0.2086 -0.1070 -0.2623
 5778W        W 9829   4.180   8.112   0.305 -0.0999 -0.2706  0.1815
 5779W        W 9830   5.584   9.763   3.774  0.1496 -0.1898 -0.0639
 5780W        W 9831   3.249   1.048  11.144  0.1598  0.2827  0.2311
 5781W        W 9832   5.970   3.720   9.467  0.2517  0.0363  0.2091
 5782W        W 9833   9.977   6.796   1.682 -0.0152  0.1937  0.3137
 5783W        W 9834   6.046   0.412   3.434 -0.0658  0.1021 -0.2616
 5784W        W 9835   3.270   0.424  13.344 -0.2718 -0.2613  0.1312
 5785W        W 9836   3.028   8.349  10.380  0.1645 -0.2037 -0.0838
 5786W        W 9837   6.224   5.465   2.111  0.0442 -0.1976  0.2186
 5787W        W 9838   0.974   7.330   1.943  0.0343 -0.0540  0.2066
 5788W        W 9839   1.501   4.277   8.569  0.0121 -0.1932  0.0788
 5789W        W 9840   8.070   8.189  10.280 -0.1318 -0.2318  0.0310
 5790W        W 9841   1.528   0.195   0.767 -0.0170 -0.1003  0.0888
 5791W        W 9842   7.905   4.081   2.823 -0.1119  0.1892  0.2061
 5792W        W 9843   3.039   9.800   3.641  0.1358  0.0582 -0.2026
 5793W        W 9844   7.805   0.180  13.577 -0.1675  0.1708 -0.1909
 5794W        W 9845   2.238   4.996  10.511 -0.1268 -0.2548  0.0125
 5795W        W 9846   7.723   2.321   9.212  0.2639 -0.1945 -0.0738
 5796W        W 9847   5.011   3.817   3.058  0.0364 -0.0584 -0.3547
 5797W        W 9848   2.902   9.108   0.358  0.0445 -0.2794 -0.0371
 5798W        W 9849   7.212   2.767   0.020 -0.3599  0.1675 -0.1330
 5799W        W 9850   7.327   7.360  10.574 -0.1093  0.4228  0.1812
 5800W        W 9851   7.325   6.161   1.421 -0.0406 -0.2231  0.0573
 5801W        W 9852   1.320   9.921   3.356 -0.1624  0.0457  0.0090
 5802W        W 9853   6.089   0.774   9.046 -0.0233  0.1040  0.1517
 5803W        W 9854   4.331   9.287   3.317  0.2508 -0.1237 -0.1401
 5804W        W 9855   8.708   5.972   0.878 -0.0240 -0.0833  0.1122
 5805W        W 9856   5.058   9.513   1.862 -0.2101  0.0465 -0.2978
 5806W        W 9857   3.818   8.494   1.707  0.1529 -0.0178  0.1427
 5807W        W 9858   0.410   5.825   2.556 -0.2681  0.2312 -0.1479
 5808W        W 9859   2.274   3.439  14.028  0.0098 -0.2082 -0.0549
 5809W        W 9860   2.000   5.960   0.036  0.0317 -0.1021  0.2226
 5810W        W 9861   8.504   8.826   0.113  0.0919  0.0527 -0.0893
 5811W        W 9862   3.695   4.592  13.977 -0.1010 -0.0659  0.0357
 5812W        W 9863   6.101   8.739  10.886 -0.1071 -0.0018  0.1858
 5813W        W 9864   4.374   4.234   2.041 -0.2390  0.1575 -0.2261
 5814W        W 9865   9.810   6.856   9.763 -0.1037 -0.0544 -0.0399
 5815W        W 9866   0.835   1.978   2.053  0.1049  0.3435  0.0944
 5816W        W 9867   6.883   1.350  10.627 -0.0731 -0.1947  0.0196
 5817W        W 9868   8.154   3.556  10.998  0.0650  0.2610 -0.0569
 5818W        W 9869   3.076   7.751   0.188 -0.0062  0.4406 -0.2015
 5819W        W 9870   3.554   5.227   9.523  0.4026 -0.2166  0.1286
 5820W        W 9871   7.419   2.677   0.664  0.0730  0.0869 -0.0283
 5821W        W 9872   3.005   1.442   3.291 -0.1506 -0.2466  0.1013
 5822W        W 9873   1.252   3.991   1.273  0.0140 -0.1999 -0.0900
 5823W        W 9874   0.779   4.057   8.972  0.1036  0.0065  0.0499
 5824W        W 9875   3.745   9.878  13.724 -0.3844  0.0724 -0.0483
 5825W        W 9876   9.009   6.013  12.056 -0.0819 -0.0806 -0.2518
 5826W        W 9877   0.285   5.012  13.060 -0.1234 -0.3150 -0.2730
 5827W        W 9878   8.944   9.066  11.488 -0.4284  0.0745  0.1631
 5828W        W 9879   7.310   7.338   1.986 -0.0078  0.3073 -0.0053
 5829W        W 9880   4.371   4.375   5.211 -0.1442 -0.1375  0.0927
 5830W        W 9881   6.720   3.984  11.427 -0.0949 -0.1311 -0.0113
 5831W        W 9882   5.232   9.654   1.426 -0.1966  0.1453 -0.1533
 5832W        W 9883   7.213   7.994   3.568 -0.0714  0.1833  0.1425
 5833W        W 9884   8.366   0.239   4.503  0.1378 -0.0746  0.2270
 5834W        W 9885   9.776   7.133   1.298 -0.1844  0.1136  0.1949
 5835W        W 9886   4.468   2.041   4.442  0.2556  0.0751  0.0611
 5836W        W 9887   1.605   9.569   2.341 -0.1195 -0.0243 -0.2900
 5837W        W 9888   2.105   6.632   3.408  0.2138 -0.0406 -0.2838
 5838W        W 9889   3.603   5.924   1.922 -0.2077  0.0357 -0.2810
 5839W        W 9890   5.725   4.443  11.544 -0.0572  0.2865  0.2575
 5840W        W 9891   8.294   7.417  11.251  0.2711 -0.2225 -0.4045
 5841W        W 9892   4.163   8.027   4.713  0.3045 -0.0446 -0.0005
 5842W        W 9893   0.305  10.116   2.716  0.2609 -0.3748 -0.3403
 5843W        W 9894   6.854   1.071  13.904  0.0348 -0.1812  0.3614
 5844W        W 9895   5.787   4.030   2.354  0.1160  0.2626 -0.1554
 5845W        W 9896   0.506   4.245   8.566  0.1787  0.1847 -0.0971
 5846W        W 9897   9.560   8.063  13.765 -0.1031  0.1688 -0.1972
 5847W        W 9898   7.130   6.880   1.862  0.2446 -0.2727 -0.0590
 5848W        W 9899   8.767   3.321   3.675 -0.2570  0.0542 -0.0523
 5849W        W 9900   0.243   6.562  13.118 -0.1755  0.3305  0.0257
 5850W        W 9901   8.331   9.717   9.801 -0.0584 -0.0221  0.2474
 5851W        W 9902   9.292   5.083   9.951  0.2739 -0.2086  0.2303
 5852W        W 9903   2.225   7.909  13.017 -0.3020 -0.2262  0.2086
 5853W        W 9904   3.991   6.434  13.702  0.2096 -0.0501  0.0223
 5854W        W 9905   5.966   3.963   4.325 -0.1105  0.3861 -0.1329
 5855W        W 9906   0.936   2.325   5.373 -0.1994 -0.1731  0.0686
 5856W        W 9907   6.102   2.537   9.752  0.0488 -0.1640 -0.2123
 5857W        W 9908   7.068   2.193   5.517  0.1339  0.0563  0.2772
 5858W        W 9909   0.532   3.326   9.183 -0.0659  0.0265 -0.0608
 5859W        W 9910   4.507   2.710   0.726  0.1544  0.0754 -0.0813
 5860W        W 9911   2.678   4.449   1.252 -0.2272 -0.0078 -0.4604
 5861W        W 9912   7.860   1.165   1.009 -0.1231 -0.0385  0.1447
 5862W        W 9913   7.531   5.638  13.696 -0.2053 -0.0781 -0.0492
 5863W        W 9914   4.237   2.395   1.577  0.0749 -0.1899  0.0054
 5864W        W 9915   5.231   8.081  11.178  0.2047  0.0959 -0.1808
 5865W        W 9916   2.170  10.128   1.937  0.1992 -0.0483  0.1458
 5866W        W 9917   5.928   3.665  11.684  0.0254 -0.0620  0.0488
 5867W        W 9918   1.660   3.731   1.361 -0.0006  0.1289 -0.1231
 5868W        W 9919   3.901   2.175  13.148 -0.0654 -0.0680 -0.0360
 5869W        W 9920   8.069   4.359   4.118  0.0027  0.2067  0.0955
 5870W        W 9921   9.487   2.586   9.758 -0.1032  0.0516  0.3018
 5871W        W 9922   0.643   7.286   0.226 -0.0987 -0.0112  0.2174
 5872W        W 9923   0.106   2.862  12.577  0.0740 -0.4611 -0.0752
 5873W        W 9924   2.746   7.228   3.987 -0.0159  0.0565  0.0302
 5874W        W 9925   8.976   4.764   2.334 -0.2567 -0.0054 -0.0029
 5875W        W 9926   8.742   7.035   2.958  0.1661  0.0929 -0.0960
 5876W        W 9927   8.771   3.135   5.138  0.2017 -0.2937 -0.0729
 5877W        W 9928   2.532   6.421   3.263 -0.1141 -0.2489 -0.0645
 5878W        W 9929   0.948   8.644  12.975 -0.0625 -0.1008 -0.0199
 5879W        W 9930   5.226   5.127  11.921 -0.3037  0.1332  0.1819
 5880W        W 9931   5.322   7.973   1.132 -0.0594 -0.1804 -0.0745
 5881W        W 9932   8.450   6.855   8.906  0.1426  0.1757 -0.2212
 5882W        W 9933   4.577   7.092   3.742 -0.3984 -0.1968  0.0626
 5883W        W 9934   9.300   6.821  10.749 -0.2493 -0.1291  0.2206
 5884W        W 9935   8.486   7.345  11.755 -0.1361  0.1116 -0.0702
 5885W        W 9936   2.609   3.366   2.485  0.0248 -0.1979 -0.2249
 5886W        W 9937   6.610   4.338   3.517 -0.0148 -0.1589  0.3885
 5887W        W 9938   9.415   3.985   2.330  0.0506  0.1166  0.2689
 5888W        W 9939   1.909   1.593   1.125 -0.0563  0.0146 -0.2055
 5889W        W 9940   2.079   9.110   0.796  0.2850  0.0199 -0.1482
 5890W        W 9941   8.070   6.060  10.523  0.3312  0.1440 -0.2682
 5891W        W 9942   1.659   7.631  13.576 -0.0890 -0.1074  0.1873
 5892W        W 9943   7.698   1.184  12.165 -0.4838  0.1601  0.0371
 5893W        W 9944   7.528   4.293   1.222 -0.2042 -0.1049  0.3316
 5894W        W 9945   6.817   6.176  13.439 -0.2100  0.0217 -0.0280
 5895W        W 9946   6.441   9.798   2.717  0.1206 -0.1095 -0.1624
 5896W        W 9947   5.287   2.746   9.991 -0.0066 -0.1601  0.1865
 5897W        W 9948   2.572   1.379   3.589 -0.3776 -0.0540  0.1277
 5898W        W 9949   3.208   1.272   1.528 -0.3498 -0.1045  0.0968
 5899W        W 9950   5.052   2.704  13.610 -0.0795 -0.1666 -0.0031
 5900W        W 9951   0.285   6.395   4.568  0.0078 -0.0833  0.2784
 5901W        W 9952   6.720   7.127  12.365 -0.1158 -0.2610 -0.2446
 5902W        W 9953   3.032   7.666  13.446 -0.3991 -0.1167 -0.1134
 5903W        W 9954   3.802   1.504   1.346 -0.1714 -0.0064 -0.2678
 5904W        W 9955   0.449   3.438  13.849  0.2398  0.1313  0.1086
 5905W        W 9956   3.490   8.307   3.339 -0.2186  0.1686 -0.1476
 5906W        W 9957   2.870   5.739   1.071  0.1699  0.0925 -0.1440
 5907W        W 9958   8.645   1.534   8.868  0.0865  0.2339  0.0224
 5908W        W 9959   1.802   1.215   0.641 -0.2885  0.1894  0.1353
 5909W        W 9960   9.931   0.017  10.704  0.1558 -0.0212  0.0064
 5910W        W 9961   2.767   4.020   9.237  0.2328 -0.0799 -0.3027
 5911W        W 9962   6.922   1.431   0.617 -0.1346 -0.2856  0.0793
 5912W        W 9963   3.927   8.623  12.332 -0.3133  0.0209 -0.2023
 5913W        W 9964   2.268   5.378  13.338 -0.0037  0.1037 -0.2898
 5914W        W 9965   0.500   7.619   2.778  0.3501 -0.3915  0.0577
 5915W        W 9966   5.435   7.833  10.584  0.0526 -0.0048 -0.0194
 5916W        W 9967   0.850   0.010  11.592 -0.0373 -0.1797  0.0495
 5917W        W 9968   8.083   3.517   2.057 -0.2399  0.0979  0.2041
 5918W        W 9969   1.451   5.812  13.353  0.1339 -0.0814  0.4527
 5919W        W 9970   1.725   8.498   2.306 -0.0473 -0.4600 -0.1869
 5920W        W 9971  10.076   0.275   2.925 -0.1208 -0.0888 -0.0249
 5921W        W 9972   1.092   5.045   0.832  0.0849  0.0157  0.0362
 5922W        W 9973   5.192   7.022   9.578  0.2672 -0.1628 -0.0926
 5923W        W 9974   3.559   1.064  13.781  0.0608 -0.2381  0.0275
 5924W        W 9975   7.670   1.084   4.952  0.2621 -0.2190  0.0013
 5925W        W 9976   0.335   2.148   2.903 -0.0367 -0.1024  0.0933
 5926W        W 9977   9.833   3.252  11.693  0.1375  0.0300  0.0473
 5927W        W 9978   5.962   5.502  12.794 -0.1948  0.2263  0.0014
 5928W        W 9979   1.351   4.477  11.646 -0.1840 -0.1120  0.0854
 5929W        W 9980   4.678   5.559  10.333 -0.0432 -0.0574  0.2832
 5930W        W 9981   6.135   2.472   2.818 -0.1948  0.0162 -0.0926
 5931W        W 9982   2.331   7.473  12.782  0.2024  0.0941 -0.1014
 5932W        W 9983   0.955   5.399   1.896 -0.2011 -0.1624 -0.0808
 5933W        W 9984   8.580   7.866   1.837 -0.3715 -0.1653 -0.1282
 5934W        W 9985   6.541   7.022  11.903 -0.2234  0.2815  0.2574
 5935W        W 9986   8.259   8.955  11.719  0.1391 -0.1993 -0.2391
 5936W        W 9987   5.966   0.803   2.844 -0.3251 -0.0458 -0.0931
 5937W        W 9988   0.431   6.823   1.516 -0.0077  0.0198  0.1565
 5938W        W 9989   3.860   7.141  11.226  0.0308 -0.0588  0.0223
 5939W        W 9990   8.154   6.317  11.016  0.4550 -0.1969  0.2769
 5940W        W 9991   7.967   7.417  11.714 -0.0425  0.1824  0.2926
 5941W        W 9992   2.878   2.473   0.802 -0.0854 -0.2198  0.2456
 5942W        W 9993   3.406   9.977   0.809  0.2752  0.2323  0.2018
 5943W        W 9994   9.490   7.022   0.791 -0.0235  0.3160  0.0645
 5944W        W 9995  10.091   8.820  11.068 -0.0845 -0.1955  0.1454
 5945W        W 9996   8.604   3.328   2.196 -0.1844 -0.1524 -0.0240
 5946W        W 9997   7.913   7.107  13.238 -0.0578  0.2756  0.3587
 5947W        W 9998   5.259   3.210  12.775  0.3548 -0.1547  0.0013
 5948W        W 9999   3.365   6.418  12.149 -0.1451 -0.0830  0.0254
 5949W        W10000   7.898  10.032   3.883 -0.0669 -0.1188 -0.2260
 5950W        W10001   3.070   3.749   2.298 -0.0860  0.3703 -0.1407
 5951W        W10002   6.398   4.701   1.741 -0.0590 -0.3097  0.0573
 5952W        W10003  10.011   7.235   0.785  0.0052  0.0916 -0.0007
 5953W        W10004   1.455   1.736  12.653 -0.3612  0.0789 -0.1561
 5954W        W10005   0.736   6.989  10.333 -0.0216 -0.2108 -0.0153
 5955W        W10006   0.760   9.050   3.262 -0.1515 -0.1802 -0.0865
 5956W        W10007   5.622   3.921  11.924  0.0824 -0.2935 -0.1577
 5957W        W10008   1.406   0.287  13.909  0.2096  0.0109  0.0963
 5958W        W10009   4.000   5.112   4.257  0.1106 -0.0320  0.3698
 5959W        W10010   2.045   7.688  11.323  0.2633  0.1454 -0.0586
 5960W        W10011   4.691   4.580  13.690 -0.1328  0.5543 -0.5224
 5961W        W10012   4.705   3.003  10.989  0.1059  0.2324 -0.2745
 5962W        W10013   9.332   6.612   9.842 -0.4333 -0.1944  0.0750
 5963W        W10014   6.937   4.081   8.705  0.0196 -0.0304 -0.1300
 5964W        W10015   3.960   2.836  10.133 -0.2141  0.1242  0.1455
 5965W        W10016   4.893   4.095   5.251  0.1189  0.2689 -0.1955
 5966W        W10017   6.945   3.528   4.295 -0.1343  0.0776 -0.0989
 5967W        W10018   4.887   0.091   4.345  0.1464  0.1267 -0.0231
 5968W        W10019   7.733   5.255  12.688 -0.0150  0.2002  0.0391
 5969W        W10020   0.271   5.629  10.906  0.0612  0.2254 -0.3485
 5970W        W10021   2.567   6.196   1.231 -0.2290 -0.2187 -0.1096
 5971W        W10022   5.082   8.444   4.429 -0.1549  0.1551  0.0468
 5972W        W10023   4.702   8.946   3.317  0.4972  0.3869  0.1310
 5973W        W10024   7.796   9.946   2.078 -0.0204  0.0340 -0.2995
 5974W        W10025   8.599   9.051   2.461 -0.0328  0.3053 -0.0764
 5975W        W10026   4.610   8.152  11.951 -0.2146 -0.1202  0.1087
 5976W        W10027   3.256   3.779   0.146 -0.0628 -0.0656  0.0059
 5977W        W10028   0.139   7.836  13.387 -0.1958  0.1191 -0.0683
 5978W        W10029   6.081   6.064  12.667 -0.4282 -0.1541 -0.2009
 5979W        W10030   2.836   1.822  12.400  0.0190  0.1065  0.0323
 5980W        W10031   2.185   7.782  11.833  0.2251  0.1960  0.0477
 5981W        W10032   8.126   2.043   3.997 -0.0401  0.0265  0.0862
 5982W        W10033   3.198   2.052  11.336  0.2248 -0.0363  0.0423
 5983W        W10034   7.308   1.641  10.824  0.2078 -0.0886 -0.0619
 5984W        W10035   5.731   2.943   4.292  0.0010  0.0727 -0.1641
 5985W        W10036   3.433   7.923  13.173  0.1471  0.2895 -0.2290
 5986W        W10037   8.511   2.372   2.804  0.0900 -0.0431 -0.3947
 5987W        W10038   2.232   7.260  11.860 -0.4209 -0.1407  0.2200
 5988W        W10039   3.600   4.189  11.699  0.0067  0.3509 -0.3424
 5989W        W10040   0.444   2.069   2.300  0.5566  0.0570 -0.3326
 5990W        W10041   3.641   0.043  11.409  0.0915 -0.0796  0.0507
 5991W        W10042   0.672   8.461   2.453 -0.3291  0.2170  0.0545
 5992W        W10043   0.463   6.145   0.417 -0.1799  0.0921  0.1757
 5993W        W10044   3.612   9.461  11.729 -0.0237 -0.1557 -0.0168
 5994W        W10045   7.511   5.452  12.274 -0.3063  0.0655  0.0537
 5995W        W10046   4.524   3.324   5.035 -0.0512  0.3103 -0.2521
 5996W        W10047   7.535   6.867  13.607 -0.4377 -0.4175  0.0163
 5997W        W10048   8.699   0.137  11.609 -0.2357  0.2114 -0.0192
 5998W        W10049   8.464   1.233   4.393  0.1938 -0.0597  0.0748
 5999W        W10050   0.296   6.881  12.711 -0.1346  0.1683  0.2557
 6000W        W10051   4.979   5.330  13.525 -0.0109  0.0109 -0.1332
 6001W        W10052   3.033   4.702   3.747 -0.1160 -0.1210  0.2880
 6002W        W10053   1.044   8.357   0.740 -0.0722 -0.2535 -0.2743
 6003W        W10054   6.649   7.983  14.015 -0.1288  0.0451 -0.0044
 6004W        W10055   4.406   7.997   1.506 -0.1108  0.0040 -0.2578
 6005W        W10056   8.597   8.822   9.934  0.1185 -0.1357 -0.1379
 6006W        W10057   7.047   9.028   4.037 -0.2964  0.0799 -0.0874
 6007W        W10058   5.737   0.950   0.151  0.1250  0.2492  0.0448
 6008W        W10059   2.425   6.287   3.747  0.0384  0.1403 -0.1762
 6009W        W10060   8.687   0.751  12.005  0.0156 -0.0629  0.0153
 6010W        W10061   6.838   5.263   5.077  0.0321  0.0495  0.1598
 6011W        W10062   8.960   8.176  11.364 -0.1455  0.2523 -0.0441
 6012W        W10063   5.946   6.712   9.277 -0.3692  0.1512  0.1956
 6013W        W10064   4.977   3.288   3.044  0.1474 -0.0638 -0.0071
 6014W        W10065   2.264   1.549   0.809 -0.4942 -0.4058 -0.1534
 6015W        W10066   9.021   7.118  12.030  0.3978  0.0500  0.2307
 6016W        W10067   9.202   4.252  11.468 -0.0917 -0.1883 -0.0054
 6017W        W10068   0.058   5.936   4.807 -0.1593 -0.0354 -0.2444
 6018W        W10069   6.658   4.886   9.346 -0.1263 -0.3687 -0.0910
 6019W        W10070   9.991   4.673   2.202 -0.0101 -0.0767 -0.0157
 6020W        W10071   7.803   0.268   3.533 -0.0055 -0.4828 -0.0293
 6021W        W10072   0.698   5.620   9.228  0.1584  0.0518 -0.1927
 6022W        W10073   9.246   3.267   3.719  0.2917  0.0354  0.1149
 6023W        W10074   5.353   5.814  12.409  0.2426  0.0548 -0.1694
 6024W        W10075   3.570   3.301   8.826 -0.0967  0.2623 -0.2417
 6025W        W10076   4.464  10.141   0.944  0.1203 -0.3978 -0.1328
 6026W        W10077   8.802   0.596  12.450 -0.2261 -0.3034  0.1405
 6027W        W10078   5.416   0.253   0.107  0.1676  0.1074 -0.0574
 6028W        W10079   7.729   2.621  10.880  0.1108 -0.1277  0.1490
 6029W        W10080   0.711   0.542   3.450 -0.2633  0.0728  0.1368
 6030W        W10081   2.111   0.795  13.497  0.2075  0.0949  0.0246
 6031W        W10082   8.551   0.872  13.707 -0.3173  0.1869  0.3825
 6032W        W10083   7.681   5.514  10.496 -0.3729  0.2625 -0.2014
 6033W        W10084   1.687   7.909   2.840 -0.1186 -0.0107  0.1586
 6034W        W10085   7.108   7.120  11.646  0.1586 -0.2311 -0.1354
 6035W        W10086   2.007   8.975   2.794 -0.0963  0.1602 -0.2609
 6036W        W10087   8.380   1.121   2.768  0.0626 -0.0731  0.3523
 6037W        W10088   8.196   5.613  13.431  0.1518 -0.1640 -0.1380
 6038W        W10089   5.039   4.988   2.209  0.0452  0.0339  0.1682
 6039W        W10090   1.960   3.164  12.493  0.0315 -0.3137 -0.2918
 6040W        W10091   1.534   5.997  12.019 -0.1122  0.0192  0.1970
 6041W        W10092   5.670   6.974  10.395  0.1145  0.0263  0.1113
 6042W        W10093   8.657   4.008   1.227 -0.0331 -0.0771  0.0097
 6043W        W10094   1.328   0.491   3.070  0.1132 -0.0542  0.0787
 6044W        W10095   7.148   7.736  13.819  0.0661 -0.0577 -0.2036
 6045W        W10096   1.582   9.583  13.514  0.0574  0.4411  0.2767
 6046W        W10097   5.906   2.831   0.736 -0.0012  0.3811 -0.0417
 6047W        W10098   6.506   0.093  12.405 -0.1971  0.1339 -0.0324
 6048W        W10099  10.066   5.519   0.356 -0.2674 -0.1007  0.1229
 6049W        W10100  10.093   1.653   3.930  0.1822 -0.1026  0.1197
 6050W        W10101   4.598   2.131   0.657  0.2676  0.0215 -0.1670
 6051W        W10102   2.864   0.560   2.205 -0.0497  0.0158  0.0906
 6052W        W10103   9.452   2.385   4.693  0.2455  0.1394  0.1988
 6053W        W10104   0.118   8.718  11.622 -0.0359  0.2886  0.1281
 6054W        W10105   2.960   9.621  11.863 -0.4301  0.0587 -0.0267
 6055W        W10106   3.935   1.282   4.221 -0.2292  0.1068  0.0736
 6056W        W10107   9.149   2.804  13.187  0.0934 -0.4355  0.0117
 6057W        W10108   0.250   7.626  13.838  0.0571 -0.3341  0.1507
 6058W        W10109   5.078   7.603  10.884  0.1658 -0.0978 -0.1551
 6059W        W10110   4.410   8.462  11.036 -0.2342  0.1224 -0.2462
 6060W        W10111   1.327   8.154   2.440 -0.3602  0.1119  0.0547
 6061W        W10112   0.389   3.416   2.796 -0.2484  0.0678  0.0488
 6062W        W10113   2.060   8.910  13.806 -0.1988 -0.1722  0.0845
 6063W        W10114   5.319   9.081   1.694  0.1622  0.0156  0.0145
 6064W        W10115   5.481   8.630   5.224 -0.0700 -0.0442 -0.0181
 6065W        W10116   9.597   3.000   9.376 -0.0204 -0.0650 -0.1298
 6066W        W10117   8.401   5.036   2.863  0.0011 -0.0551 -0.1833
 6067W        W10118   5.240   8.235   9.014 -0.3266  0.1799 -0.0478
 6068W        W10119   7.628   9.260   9.209 -0.1747 -0.3290  0.3155
 6069W        W10120   7.799   4.705  11.805  0.0950  0.1854 -0.0917
 6070W        W10121   5.053   7.273   0.035  0.0190 -0.0716 -0.2919
 6071W        W10122   6.435   9.880  10.489 -0.2250 -0.2182  0.0803
 6072W        W10123   7.955   1.257   3.604 -0.2913  0.0192 -0.0062
 6073W        W10124   0.002   9.958   0.288 -0.2805  0.1873 -0.0010
 6074W        W10125   8.523   0.485   3.364 -0.3231 -0.1576 -0.2114
 6075W        W10126   6.348   9.194  10.114  0.0886 -0.3524  0.1413
 6076W        W10127   5.378   2.694  12.352 -0.2118  0.1318  0.0676
 6077W        W10128   9.795   1.142   3.125 -0.0123 -0.1094  0.3695
 6078W        W10129   0.653   0.906   1.323  0.2064 -0.0195  0.1709
 6079W        W10130   6.046   2.012   2.755  0.0055  0.1257 -0.1166
 6080W        W10131   9.587   7.758   0.174  0.0402  0.2421 -0.0044
 6081W        W10132   5.357   4.261   3.098  0.1107 -0.1810 -0.0160
 6082W        W10133   5.885   2.861  12.639  0.0138  0.0548  0.1936
 6083W        W10134   6.473   2.422  13.750  0.0273 -0.1217 -0.0189
 6084W        W10135   1.479   3.217   1.550 -0.0958  0.3834  0.1014
 6085W        W10136   1.737   9.425   1.482 -0.2335  0.0042 -0.3419
 6086W        W10137   7.392   9.225   2.563 -0.1253  0.0081 -0.0592
 6087W        W10138   3.304   4.857   4.135  0.1870  0.0841 -0.1676
 6088W        W10139  10.060   8.686   1.104  0.0679  0.0314  0.2600
 6089W        W10140   1.037   6.273  10.892  0.1000 -0.0321  0.3447
 6090W        W10141   9.458   5.142  13.072 -0.0623 -0.3917  0.3243
 6091W        W10142   8.114   7.769  10.814 -0.1468  0.2597  0.2289
 6092W        W10143   1.360   9.840  11.647  0.0431  0.1670  0.2250
 6093W        W10144   1.486   1.403   1.938 -0.2276  0.1214 -0.2098
 6094W        W10145   7.011   5.338  12.150  0.1438 -0.2380  0.1660
 6095W        W10146   9.961   8.212  12.282 -0.0618  0.1489 -0.0536
 6096W        W10147   0.189   9.151  11.310  0.0701 -0.1772  0.0258
 6097W        W10148   2.973   6.006   3.330  0.2783  0.2515  0.0824
 6098W        W10149   4.761   3.623   1.661 -0.0101  0.3058 -0.2303
 6099W        W10150   7.121   9.758   5.090 -0.2152 -0.0183  0.3566
 6100W        W10151   5.545   7.128   5.650 -0.2992  0.0145  0.0525
 6101W        W10152   7.410   3.236   0.150  0.1387 -0.0988  0.3387
 6102W        W10153   2.367   1.617   2.332  0.1936 -0.0218  0.0367
 6103W        W10154   7.059   5.783  12.394  0.1052 -0.1499 -0.3092
 6104W        W10155   5.734   4.969   3.834 -0.1826 -0.0221 -0.2098
 6105W        W10156   5.855   4.894   3.224 -0.1908  0.0618 -0.0597
 6106W        W10157   5.553   5.365  13.513 -0.2619  0.0515 -0.1239
 6107W        W10158   7.325   7.621  13.111 -0.2663 -0.0310  0.1515
 6108W        W10159   9.006   9.112   9.865 -0.1526  0.0408 -0.2486
 6109W        W10160   3.260   8.618   0.899 -0.2392 -0.1435 -0.2343
 6110W        W10161   6.483   2.089  10.911  0.2292 -0.4910 -0.0137
 6111W        W10162   7.015   9.792   3.622 -0.1940  0.1370  0.0478
 6112W        W10163   8.072   0.289   9.437 -0.0362  0.0825  0.1720
 6113W        W10164   6.260   9.040   2.416 -0.1913  0.2173  0.1311
 6114W        W10165   6.608   3.836   3.567 -0.1563  0.0678 -0.2663
 6115W        W10166   4.154   6.230   0.944  0.0974 -0.0826 -0.2667
 6116W        W10167   9.831   9.667   2.103  0.1002  0.3900 -0.0434
 6117W        W10168   1.091   4.174   2.334  0.0041  0.0602 -0.0008
 6118W        W10169   7.062   1.243   3.569  0.1274 -0.1232  0.0884
 6119W        W10170   4.346   6.771  13.737 -0.1284 -0.0018  0.2030
 6120W        W10171   0.598   4.521  12.033  0.1643  0.2543 -0.2642
 6121W        W10172   9.546   3.695  11.001  0.2119 -0.3218  0.0705
 6122W        W10173   6.205  10.033  13.844 -0.0497 -0.1245 -0.0282
 6123W        W10174   4.048   7.865   0.742 -0.1785  0.0527  0.0838
 6124W        W10175   7.687   8.848   9.623 -0.2706  0.0874 -0.0235
 6125W        W10176   1.707   3.773  10.705 -0.0663  0.4805 -0.1271
 6126W        W10177   7.910   7.042   0.884 -0.1053  0.0925  0.1365
 6127W        W10178   9.800   1.489  12.867  0.0017 -0.0347 -0.0651
 6128W        W10179   7.126   2.184   3.694 -0.1900 -0.3015 -0.2034
 6129W        W10180   1.857   0.187  13.758 -0.0370 -0.2795 -0.1565
 6130W        W10181   1.182   2.145  12.718 -0.0453 -0.0855  0.3753
 6131W        W10182   9.658   6.018  13.072  0.2594 -0.2000 -0.0161
 6132W        W10183   6.124  10.020  12.233 -0.3355 -0.1985 -0.0134
 6133W        W10184   0.981   0.337  13.524 -0.2541  0.1810  0.0830
 6134W        W10185   8.375   9.982  10.712  0.5722 -0.0551  0.2083
 6135W        W10186   5.279   0.877   3.570  0.4814  0.3090  0.4546
 6136W        W10187   7.632   8.478   9.938  0.0424 -0.1667 -0.2511
 6137W        W10188   8.132   9.786   0.726  0.0651 -0.1012 -0.0700
 6138W        W10189   8.042   9.059   5.306  0.3961  0.0117 -0.2903
 6139W        W10190   0.437   0.186  11.817  0.0851  0.1850 -0.2157
 6140W        W10191   9.625   1.414   1.113  0.1223 -0.4214  0.0645
 6141W        W10192   3.126   7.077  11.985  0.1314 -0.0567 -0.0689
 6142W        W10193   4.958   8.720  10.234  0.2393 -0.0672 -0.1427
 6143W        W10194   2.972   5.748   4.778  0.0300 -0.1523 -0.2517
 6144W        W10195   9.105   3.085   5.561 -0.1291 -0.2806 -0.1245
 6145W        W10196   9.663   4.712   2.795 -0.1963 -0.2625 -0.2758
 6146W        W10197   9.195   6.791  13.137 -0.0599 -0.0151  0.1713
 6147W        W10198   9.614   3.308   0.538  0.1011  0.0326  0.2456
 6148W        W10199   2.247   6.433  10.841  0.1904  0.1253  0.0976
 6149W        W10200   9.415   7.877   9.842  0.2240 -0.2258  0.1826
 6150W        W10201   7.428   5.724   0.156 -0.2306  0.0716  0.1839
 6151W        W10202   3.781   5.964   0.048 -0.1784 -0.3318  0.3264
 6152W        W10203   4.284   9.092  10.031  0.1515 -0.1846  0.0480
 6153W        W10204   5.673   7.410  11.455  0.1079  0.1753  0.1048
 6154W        W10205   0.228   1.672   1.499  0.0043  0.0018  0.0691
 6155W        W10206   9.521   6.464  12.861  0.1377  0.2918 -0.1172
 6156W        W10207   7.144   0.761   1.200  0.0473  0.0273 -0.3149
 6157W        W10208   0.054   4.958   1.596  0.0662 -0.1809 -0.1406
 6158W        W10209   3.565   4.335   1.046 -0.1356 -0.1459 -0.0176
 6159W        W10210   2.114   9.837   2.424 -0.1065  0.0009  0.1716
 6160W        W10211   3.899   3.762   4.840  0.0215 -0.1571  0.2888
 6161W        W10212   7.659   4.979   1.675 -0.2652 -0.2484 -0.0008
 6162W        W10213   0.602   4.574   4.646  0.2837 -0.3813  0.0519
 6163W        W10214   6.461   6.674  12.286  0.0267  0.4336  0.0496
 6164W        W10215   2.272   8.830  10.458  0.1948  0.0188 -0.0454
 6165W        W10216   4.667   2.745   3.718  0.1511  0.0999  0.2237
 6166W        W10217   5.304   8.792  12.107  0.0555  0.0320  0.1031
 6167W        W10218   0.246   5.368   0.733 -0.0988  0.0528  0.1159
 6168W        W10219   1.603   6.889  12.344 -0.0961 -0.0079  0.1390
 6169W        W10220   1.633   1.078  13.363 -0.0721 -0.3230  0.2068
 6170W        W10221   4.696   0.436  12.842 -0.2530  0.0426 -0.0604
 6171W        W10222   7.246   2.229   0.270  0.1859  0.2377 -0.1017
 6172W        W10223   1.292   1.174   3.697 -0.4691 -0.0044 -0.0176
 6173W        W10224   4.393   3.005  12.322 -0.2181 -0.0532 -0.0219
 6174W        W10225   3.955   7.301   0.862 -0.1467  0.0129 -0.1527
 6175W        W10226   0.811   3.300   4.929 -0.2077  0.0693 -0.3781
 6176W        W10227   4.211   5.141   3.060  0.2169 -0.1655 -0.0046
 6177W        W10228   5.827   9.151   1.527 -0.0419 -0.0829  0.1771
 6178W        W10229   3.660   9.904  10.888  0.1007 -0.1821  0.1254
 6179W        W10230   7.967   8.192   0.168 -0.2117  0.0992  0.0416
 6180W        W10231   9.536   7.223   4.598 -0.0962  0.0834  0.3559
 6181W        W10232   3.377   3.702  10.306 -0.1549  0.0011 -0.0620
 6182W        W10233   9.671   0.486   2.205  0.0822 -0.0610  0.0608
 6183W        W10234   3.605   6.970   9.560  0.2025 -0.0667 -0.1722
 6184W        W10235   4.455   4.644   8.977  0.3583  0.0216 -0.1411
 6185W        W10236   5.149   4.603   4.440  0.4510  0.0799 -0.3574
 6186W        W10237   6.039   2.321  11.134  0.2413 -0.0535 -0.3946
 6187W        W10238   6.113   8.163   9.469 -0.0481  0.1625 -0.1043
 6188W        W10239   6.087   3.881  13.281  0.1551  0.2586 -0.1617
 6189W        W10240   6.889   2.260  11.213  0.3283  0.3488 -0.2069
 6190W        W10241   7.775   3.806   0.122 -0.0819 -0.4006  0.1419
 6191W        W10242   9.931   8.492   2.889  0.0349 -0.1405  0.0019
 6192W        W10243   6.047   1.137  10.385 -0.2164  0.5085  0.2804
 6193W        W10244   5.726   7.747   0.296  0.1424 -0.0057 -0.0011
 6194W        W10245   6.495   3.187  13.327 -0.0920 -0.0601  0.3087
 6195W        W10246   3.141   9.807   2.144  0.0098  0.2632 -0.3124
 6196W        W10247   4.061   6.587  10.935  0.0250 -0.0984 -0.2539
 6197W        W10248   9.174   9.887  10.278  0.1481  0.0285 -0.0542
 6198W        W10249   8.046   0.236   1.152 -0.3674 -0.0627  0.0056
 6199W        W10250   1.421   2.099  11.264 -0.2461  0.1591  0.0727
 6200W        W10251   7.571   0.493   1.124 -0.1067  0.0662  0.1187
 6201W        W10252   6.048   1.173   9.854  0.0356 -0.1680 -0.0814
 6202W        W10253   4.711   1.379   4.573  0.0651 -0.0453  0.1907
 6203W        W10254  10.158   6.727   9.378  0.4842 -0.0933  0.3233
 6204W        W10255   2.307   1.887  12.370  0.3745  0.0076 -0.0511
 6205W        W10256   5.534   0.132   3.539  0.0741 -0.1414  0.0053
 6206W        W10257   5.826   0.915  11.435  0.1836  0.1804  0.1625
 6207W        W10258   1.618   6.091   3.071 -0.2218 -0.2198  0.0121
 6208W        W10259   7.152   2.149  10.361 -0.1465  0.1326  0.1117
 6209W        W10260   6.174   1.144   9.358 -0.1103 -0.2107 -0.0287
 6210W        W10261  10.033   6.961  11.288  0.1531  0.2337 -0.2266
 6211W        W10262   8.398   5.231   4.240  0.2544  0.0269 -0.0131
 6212W        W10263   3.497   9.825   3.859 -0.1213  0.1683  0.0244
 6213W        W10264   8.474   4.529  11.245  0.0813  0.5091  0.1535
 6214W        W10265   6.489   3.188   5.082  0.0571 -0.3927  0.2187
 6215W        W10266   4.339   6.149  10.973 -0.0634 -0.1016 -0.0766
 6216W        W10267   8.620   3.024   1.374  0.0687  0.0167 -0.2602
 6217W        W10268   5.206   2.112   9.967 -0.3196  0.1947  0.0752
 6218W        W10269   3.939   2.250   1.898 -0.0314  0.2617  0.1053
 6219W        W10270   2.325   0.498  13.104 -0.3842  0.0048  0.1875
 6220W        W10271   5.095   5.722  10.570 -0.1084  0.1719 -0.1107
 6221W        W10272   4.373   7.124  13.329  0.0097  0.1857 -0.2769
 6222W        W10273   2.215   1.697   2.814 -0.0117  0.2593 -0.1594
 6223W        W10274   7.014   2.685  10.447  0.2501 -0.0321  0.0217
 6224W        W10275   7.345   4.590  12.791  0.1535 -0.4160  0.1343
 6225W        W10276   5.414   8.299   2.474 -0.0816 -0.1547  0.0193
 6226W        W10277   7.139   3.817   4.703  0.2047 -0.3504  0.2141
 6227W        W10278   6.567   5.640   3.665  0.0997  0.0737  0.1581
 6228W        W10279   9.881   2.413  13.168 -0.2819  0.0375  0.5189
 6229W        W10280   9.285   4.628   0.875  0.0563  0.2289 -0.1390
 6230W        W10281   5.798   4.653  13.836 -0.3121  0.1259  0.4206
 6231W        W10282   5.300   3.874   3.998 -0.1417 -0.1243  0.0898
 6232W        W10283   4.010   6.331   3.565  0.2795  0.0648 -0.1307
 6233W        W10284   8.957   1.590   2.339  0.0490 -0.3469  0.2452
 6234W        W10285   6.908   2.713   1.973 -0.4098 -0.0610 -0.1398
 6235W        W10286   5.596   8.861  10.871  0.0362  0.1767  0.2998
 6236W        W10287   2.533   6.904   1.052 -0.0988  0.0448 -0.2600
 6237W        W10288   3.926   6.643   8.768  0.0646 -0.2249  0.0496
 6238W        W10289   6.664   8.129  11.888  0.1489  0.1589 -0.1557
 6239W        W10290   0.243   1.594  12.043  0.1223  0.1748 -0.0458
 6240W        W10291   7.263   6.213  12.620 -0.0751  0.0549  0.0080
 6241W        W10292   8.548   7.336   4.056 -0.0292  0.1699 -0.0233
 6242W        W10293   8.775   2.934  13.575  0.0647 -0.0453  0.1144
 6243W        W10294   3.974   0.761  10.702 -0.2352 -0.1416  0.1206
 6244W        W10295   7.107   7.894  10.708 -0.4971 -0.2746 -0.0399
 6245W        W10296   8.459   4.312  13.327 -0.1081 -0.1843 -0.1458
 6246W        W10297   3.260   3.388  11.050 -0.0380 -0.2213  0.3735
 6247W        W10298   5.341   2.921  11.912 -0.1623  0.2967  0.1856
 6248W        W10299   9.593   2.895   3.421 -0.1016 -0.0056 -0.2596
 6249W        W10300   3.919   1.684  13.278 -0.1586  0.0941  0.4026
 6250W        W10301   2.483   1.140  11.771  0.0326  0.1724  0.1089
 6251W        W10302   3.400   7.888  12.332  0.2497 -0.0524 -0.2268
 6252W        W10303   6.564   9.991   3.479 -0.1323  0.0243 -0.0389
 6253W        W10304   1.071   5.746  10.715  0.0361  0.0627  0.0833
 6254W        W10305   6.016   7.450  11.032  0.1117  0.3055 -0.3628
 6255W        W10306   7.581   4.976   2.244  0.3164  0.4351 -0.2900
 6256W        W10307   6.321   3.667   3.168  0.1507  0.1742  0.3029
 6257W        W10308   1.722   1.426  11.806 -0.1843  0.1483 -0.3608
 6258W        W10309   4.278   7.870   1.974 -0.1002 -0.1203  0.0633
 6259W        W10310   6.756   8.244   1.880 -0.4304  0.2072 -0.2274
 6260W        W10311   4.419   5.466  12.173  0.0558  0.2181  0.1650
 6261W        W10312   2.369   4.481  10.657  0.0423  0.0016  0.1594
 6262W        W10313   0.909   9.630   3.150  0.1099 -0.0797 -0.1490
 6263W        W10314   5.759   8.669   3.616  0.0625  0.0521 -0.2875
 6264W        W10315   6.383   4.031   0.111  0.0908 -0.3351 -0.2898
 6265W        W10316   3.201   7.221   3.251 -0.4518 -0.0147 -0.0399
 6266W        W10317   2.128   3.883   9.258 -0.0934 -0.2404 -0.0601
 6267W        W10318   6.001   8.520   2.171  0.2040 -0.0157 -0.2615
 6268W        W10319   5.144   4.447  10.724 -0.1388 -0.0255  0.2015
 6269W        W10320   2.409   6.444   2.716  0.1353 -0.0206  0.0328
 6270W        W10321   4.357   9.740   1.267  0.3703 -0.3191 -0.2776
 6271W        W10322   2.321   2.199   0.539 -0.0568 -0.0117 -0.0661
 6272W        W10323   9.103   7.462   0.800  0.3518 -0.0949  0.1140
 6273W        W10324   6.228   6.540   4.225 -0.0852 -0.2544  0.0153
 6274W        W10325   3.504   0.450   3.256  0.0848  0.1093 -0.1227
 6275W        W10326   3.667   3.051   2.495  0.0155  0.3044  0.1359
 6276W        W10327   3.825   5.858   0.961 -0.1131  0.1023  0.3383
 6277W        W10328   9.510   8.087  12.193  0.0522  0.2185 -0.0768
 6278W        W10329   0.979   8.340   2.038  0.1989 -0.0896  0.2791
 6279W        W10330   3.443   1.310   3.591 -0.1146  0.1570  0.1777
 6280W        W10331   2.090   5.491  10.753 -0.3206  0.1480  0.0673
 6281W        W10332   5.882   0.684  10.585 -0.1117  0.0997 -0.0398
 6282W        W10333   8.557   0.724   4.574 -0.3407  0.0143  0.0789
 6283W        W10334   9.191   6.363   1.499 -0.1178  0.4162 -0.0888
 6284W        W10335   9.274   1.055  10.720 -0.0783 -0.2858 -0.0628
 6285W        W10336   4.417   1.120   9.005 -0.2135  0.0921 -0.4061
 6286W        W10337   5.788   2.234   2.299 -0.0043 -0.0696  0.0676
 6287W        W10338   8.369   5.590   0.209  0.1553 -0.0481 -0.0894
 6288W        W10339   7.044   1.721   3.980 -0.0730 -0.1686  0.1337
 6289W        W10340   0.782   7.828  13.454  0.1185 -0.2090  0.3554
 6290W        W10341   4.929   3.523  10.230  0.0407 -0.1161 -0.1098
 6291W        W10342   7.881   8.643   2.043 -0.0124 -0.2306 -0.2265
 6292W        W10343   0.321   6.110  13.673 -0.2030  0.1928 -0.3231
 6293W        W10344   4.911   5.479   2.391  0.2555 -0.1010 -0.2403
 6294W        W10345   2.917   2.937  11.832  0.0811  0.2279 -0.1603
 6295W        W10346   4.620   9.257   2.422 -0.2610  0.4135 -0.3880
 6296W        W10347   0.745   5.226  11.699 -0.0457  0.0566  0.1602
 6297W        W10348   4.001   0.533  11.132  0.1023  0.2103  0.3677
 6298W        W10349   1.973   3.704   4.145 -0.0207  0.2620 -0.1547
 6299W        W10350   1.262   6.763  10.662 -0.0054 -0.0514  0.2663
 6300W        W10351   5.437   6.764   9.158 -0.1645 -0.0010 -0.2031
 6301W        W10352   0.996   6.041   9.939  0.0286 -0.0369  0.2736
 6302W        W10353   3.557   9.391  13.683 -0.0086  0.1725 -0.2571
 6303W        W10354   4.618   2.758  13.944 -0.1614 -0.2495  0.3930
 6304W        W10355   0.760   6.551   0.195 -0.0506  0.0749  0.3196
 6305W        W10356   8.297   1.905  12.426 -0.1247  0.1252  0.0067
 6306W        W10357   9.059   6.827   3.394 -0.1173  0.2476  0.2471
 6307W        W10358   0.658   1.880  12.111 -0.0878 -0.2220  0.0357
 6308W        W10359   2.221   1.134  13.158  0.0900  0.0532 -0.2257
 6309W        W10360   2.297   8.265  11.890 -0.0287  0.1448  0.0355
 6310W        W10361   6.586   8.998  10.826  0.0643  0.0411 -0.0212
 6311W        W10362   5.670   0.491  11.517 -0.1107 -0.1218 -0.1555
 6312W        W10363   1.461   7.460   1.109 -0.1768  0.1979  0.3369
 6313W        W10364   0.155   8.611   0.652 -0.1237  0.2564 -0.3294
 6314W        W10365   2.593   0.343  11.503  0.1788  0.0934  0.2755
 6315W        W10366   0.698   7.746   1.774 -0.0843  0.2184 -0.0876
 6316W        W10367   8.629   6.160  12.918  0.0374  0.1256  0.0378
 6317W        W10368   6.639   2.482  11.568  0.1573  0.0711  0.0521
 6318W        W10369   5.547   3.443   1.324 -0.1250  0.3479  0.0896
 6319W        W10370   6.302   5.298   0.261  0.2126  0.2681 -0.0242
 6320W        W10371   4.271   6.233  13.288  0.0154 -0.0302  0.1673
 6321W        W10372   7.268   7.538  11.049  0.4172 -0.0763  0.2498
 6322W        W10373   7.778   7.572   0.806 -0.4518 -0.0806  0.0307
 6323W        W10374  10.051   5.849  10.579  0.0776 -0.0835 -0.0203
 6324W        W10375   1.382   2.037   0.732 -0.2131  0.1888 -0.0189
 6325W        W10376   4.391   7.235  11.557  0.1761 -0.0061  0.1118
 6326W        W10377   0.013   5.484   1.805 -0.0288 -0.1155 -0.0289
 6327W        W10378   9.085   1.112  13.105 -0.1900  0.1102 -0.1999
 6328W        W10379   7.592   7.907  12.600 -0.1315  0.3796 -0.0491
 6329W        W10380   7.631   9.757  11.432 -0.2672 -0.1003 -0.2696
 6330W        W10381   7.396   4.600  11.475  0.2430 -0.0351 -0.0450
 6331W        W10382   7.155   5.561  10.202  0.0427  0.2498 -0.2016
 6332W        W10383   2.249   8.311   0.222  0.3175  0.1343 -0.0389
 6333W        W10384   6.664   2.895   0.098 -0.1856  0.0748  0.2546
 6334W        W10385   8.145  10.051   8.751 -0.2033 -0.1330  0.0313
 6335W        W10386   7.822   6.505  13.975  0.1860  0.0648 -0.3476
 6336W        W10387   6.162   3.209  12.328  0.0287 -0.1135 -0.1038
 6337W        W10388   2.044   2.004   4.572 -0.0295  0.1072  0.3387
 6338W        W10389   1.513   7.439   2.799  0.1057 -0.0821 -0.3521
 6339W        W10390   9.401   5.522   9.724  0.2506  0.1362 -0.1571
 6340W        W10391   4.676   7.563   3.093 -0.1452  0.1115 -0.0896
 6341W        W10392   9.081   4.829  10.365  0.0194 -0.2928 -0.2746
 6342W        W10393   6.559   4.441  10.426  0.0065 -0.1342 -0.0034
 6343W        W10394   5.180   0.864   9.625  0.0376  0.3918  0.0078
 6344W        W10395   3.833   0.882   3.945 -0.1259 -0.2334  0.0059
 6345W        W10396   1.064   6.627  13.634 -0.2002  0.2150  0.1095
 6346W        W10397   7.025   0.378  11.927  0.2452 -0.0620  0.2272
 6347W        W10398   1.939  10.127  12.411 -0.1377 -0.1543  0.0168
 6348W        W10399   8.723   6.906   0.349  0.0738  0.0755 -0.0511
 6349W        W10400   8.213   1.340  10.212 -0.1459  0.0740 -0.2039
 6350W        W10401   7.263   3.682  14.013  0.1778 -0.0197  0.0666
 6351W        W10402   3.493   1.604   3.156  0.3252  0.2592 -0.2109
 6352W        W10403   0.197   8.347  11.174  0.1262 -0.2122  0.1420
 6353W        W10404   9.665   5.875   4.160  0.1017 -0.2493  0.0426
 6354W        W10405   4.052   5.772   0.492  0.2913  0.1567  0.5872
 6355W        W10406   3.700   9.482  10.595 -0.0992  0.0269  0.1909
 6356W        W10407   2.103   4.154   5.192 -0.0320 -0.2459  0.1242
 6357W        W10408   2.865   2.761  12.394  0.3384  0.0239 -0.0415
 6358W        W10409   6.565   2.324  10.370 -0.0007 -0.1088 -0.0032
 6359W        W10410   9.943   1.028   0.997  0.0919  0.2687  0.3634
 6360W        W10411   5.868   9.916   4.659 -0.2638  0.0737  0.3428
 6361W        W10412   7.132   1.561  13.164  0.2224 -0.1002  0.1801
 6362W        W10413   5.653   2.980   3.706 -0.2146 -0.1212  0.1865
 6363W        W10414   7.646   1.239   9.431 -0.0865  0.0803  0.1153
 6364W        W10415   4.032   7.810  10.287 -0.0789 -0.0272  0.1687
 6365W        W10416   7.940   9.797  13.198 -0.1320  0.1254  0.5765
 6366W        W10417   4.843   7.809   9.859 -0.1941  0.0887  0.1811
 6367W        W10418   7.226   2.780   2.437 -0.0324  0.2069 -0.1622
 6368W        W10419   7.624   7.920   1.089  0.1051 -0.0007  0.2091
 6369W        W10420   4.217   7.775   2.546 -0.0247 -0.1339 -0.2108
 6370W        W10421   4.653   3.506   0.938 -0.3084  0.1952  0.3223
 6371W        W10422   4.545   5.947   9.149  0.0206 -0.1371 -0.0018
 6372W        W10423   9.528   0.845   0.767 -0.1824 -0.3217  0.0747
 6373W        W10424   4.387   8.720  12.614  0.1117  0.0137 -0.1218
 6374W        W10425   7.376   6.212   0.946  0.0008 -0.2755  0.4034
 6375W        W10426   6.463   3.627  12.405  0.0256  0.0344  0.1991
 6376W        W10427   6.578   8.227  13.438 -0.4657  0.4705 -0.2498
 6377W        W10428   5.847   3.061  13.726 -0.1161 -0.2236 -0.2186
 6378W        W10429   7.252  10.121  10.769 -0.1003  0.2451 -0.0716
 6379W        W10430   0.868   8.036   9.967  0.2154 -0.1169  0.0145
 6380W        W10431   7.897   7.495   1.327 -0.0952 -0.1840 -0.3526
 6381W        W10432   9.494   9.629  10.493  0.0994 -0.1070  0.1173
 6382W        W10433   3.052   7.025   0.625  0.1221 -0.1308 -0.0253
 6383W        W10434   2.858   1.768   2.387 -0.0665 -0.1565 -0.1456
 6384W        W10435   4.788   4.556   2.119  0.2098 -0.1980 -0.5609
 6385W        W10436   3.834   6.362  12.243  0.3281 -0.2119 -0.0875
 6386W        W10437   7.065   2.119   3.179  0.2079 -0.1549  0.1824
 6387W        W10438  10.049   2.149   0.023  0.0058  0.1816  0.0852
 6388W        W10439   5.467   4.091   4.447  0.1771  0.0419 -0.2593
 6389W        W10440   8.635   4.803   4.446  0.0104  0.0526  0.0087
 6390W        W10441   2.475   8.338   0.643  0.0191 -0.2711 -0.2055
 6391W        W10442   4.044   7.176  12.908 -0.0168  0.1859 -0.4647
 6392W        W10443   6.180   8.371  12.529  0.2513  0.2181  0.0843
 6393W        W10444   1.796   7.327   3.879 -0.4649 -0.0642 -0.0830
 6394W        W10445   5.285   2.156   0.670  0.0082 -0.0075  0.0936
 6395W        W10446   2.919   5.357   1.553 -0.3017 -0.0193 -0.0495
 6396W        W10447   7.286   3.314   4.647  0.0693 -0.3853  0.1702
 6397W        W10448   6.235   7.786  10.258  0.1870 -0.2890 -0.0918
 6398W        W10449   5.740   6.251   4.491 -0.0793  0.0092  0.0007
 6399W        W10450   0.851   2.755   0.773 -0.0205 -0.0665 -0.0180
 6400W        W10451   5.503  10.049  12.999 -0.0365  0.1772 -0.1349
 6401W        W10452   8.995   8.065  10.825 -0.0299 -0.0038 -0.1619
 6402W        W10453   1.410   9.662   3.770 -0.1142 -0.0704 -0.3132
 6403W        W10454   1.141   4.795   0.045  0.3523 -0.3787 -0.1108
 6404W        W10455   6.738   1.247   3.940  0.3236  0.3010 -0.2105
 6405W        W10456   8.060   6.855   3.414  0.2394  0.1901  0.1287
 6406W        W10457   1.245   3.069   4.822 -0.0864  0.1610  0.1489
 6407W        W10458   6.150   5.136   9.490  0.0110 -0.0313  0.0451
 6408W        W10459   0.761   3.564   0.174 -0.1045 -0.0282  0.0134
 6409W        W10460   3.782   1.097   0.193  0.2362 -0.1469  0.0891
 6410W        W10461   4.392   7.810   4.148  0.4698 -0.0986 -0.1456
 6411W        W10462   1.735   3.291   9.962  0.0105 -0.0737 -0.1859
 6412W        W10463   3.856   3.317   1.205 -0.1152  0.2339 -0.2121
 6413W        W10464   8.148   1.962   2.754 -0.1258  0.3567  0.1090
 6414W        W10465   5.689   0.362  12.896  0.1877 -0.1972  0.2843
 6415W        W10466   3.261   5.118   0.651 -0.0667 -0.2196  0.0131
 6416W        W10467   1.427   4.616  10.382  0.2668  0.1454  0.0275
 6417W        W10468   7.375   0.094   1.869  0.2489 -0.3062  0.2236
 6418W        W10469   4.129   5.630  10.873 -0.2027  0.2394 -0.0615
 6419W        W10470   2.893   2.275  13.839 -0.1185  0.1401 -0.0448
 6420W        W10471   0.023   0.825   2.476  0.3812  0.1618 -0.0391
 6421W        W10472   8.706   8.958  13.242 -0.1569 -0.1140 -0.2171
 6422W        W10473   4.091   0.707   0.401 -0.0394 -0.2106 -0.1810
 6423W        W10474   6.956   0.738   8.927 -0.0814  0.0343  0.2851
 6424W        W10475   3.826   8.030   3.767  0.1265  0.2220  0.1320
 6425W        W10476   4.637   3.603   9.109  0.1700 -0.1346  0.3666
 6426W        W10477   1.206   7.544  13.748 -0.0321  0.2010 -0.0812
 6427W        W10478   4.591   4.611   3.613 -0.6835  0.2530 -0.1842
 6428W        W10479   5.272   2.532   5.660  0.2226 -0.1829  0.0246
 6429W        W10480   7.543   4.206   0.430 -0.0473 -0.1734  0.3245
 6430W        W10481   2.900   2.563   2.493 -0.0967  0.3325 -0.3664
 6431W        W10482   6.730   1.949  14.003  0.1784 -0.1130  0.3340
 6432W        W10483   7.588   0.376   9.350 -0.0147  0.1496  0.2484
 6433W        W10484   7.715   3.060  12.570 -0.0857 -0.1817 -0.0433
 6434W        W10485   1.230   6.400   3.389  0.0661 -0.3141 -0.1820
 6435W        W10486   7.237   2.941   1.686  0.3149 -0.0834  0.0002
 6436W        W10487   2.482   4.234   5.602  0.1657  0.0211  0.0427
 6437W        W10488   1.230   5.771  12.574 -0.1468  0.4914  0.0492
 6438W        W10489  10.111   5.129   3.089 -0.0143  0.1224 -0.0749
 6439W        W10490   0.003   8.447  10.142 -0.1910 -0.0010  0.2494
 6440W        W10491   8.064   5.654  10.213  0.0343  0.0210  0.1971
 6441W        W10492   0.533   1.940  10.313  0.0793  0.2199 -0.2561
 6442W        W10493   7.712   2.863   1.027 -0.0414 -0.1009  0.1542
 6443W        W10494   8.306   4.888  11.495  0.0188 -0.2126 -0.0201
 6444W        W10495   4.723   0.283   2.961  0.0607  0.0395 -0.3891
 6445W        W10496   6.446   8.667  12.951  0.0351 -0.2119 -0.0310
 6446W        W10497   3.361   9.025   3.379  0.0818 -0.3041  0.1847
 6447W        W10498   8.807   3.448  13.519 -0.1480  0.1215  0.0492
 6448W        W10499   8.086   2.600   3.939  0.1571 -0.0827  0.1978
 6449W        W10500  10.103   8.836  12.898 -0.0913  0.1146  0.2079
 6450W        W10501   7.830   6.259   9.340  0.2048 -0.1606  0.2758
 6451W        W10502   2.465   5.319   3.251  0.1314 -0.2807 -0.2172
 6452W        W10503   0.722   2.388  11.546 -0.4499  0.0696 -0.1135
 6453W        W10504   1.550   4.373   2.860  0.0853 -0.1991 -0.1630
 6454W        W10505   0.560   9.593  12.004 -0.4343 -0.4026 -0.4146
 6455W        W10506   7.934   5.957  13.671  0.0733  0.0599  0.0427
 6456W        W10507   7.367   3.931  10.543 -0.0217 -0.4472 -0.1733
 6457W        W10508   7.978   3.990   1.897  0.3999 -0.1743 -0.0210
 6458W        W10509   9.890   2.902   0.887  0.2684  0.5710  0.3032
 6459W        W10510   4.026   4.203   2.518  0.0477 -0.4047 -0.0498
 6460W        W10511   6.050   4.494   3.574 -0.2553  0.1838  0.3035
 6461W        W10512   8.955   7.569   3.858  0.1213  0.0597  0.0169
 6462W        W10513   7.107   0.577   3.457  0.1698  0.1266 -0.2208
 6463W        W10514   6.807   9.057  13.133 -0.0249  0.0700 -0.2761
 6464W        W10515   8.868   1.170   0.022 -0.1752  0.2385  0.0931
 6465W        W10516   3.566   9.294   1.556  0.0483  0.1045  0.3345
 6466W        W10517   8.803   9.414  11.929  0.0208 -0.0150  0.0724
 6467W        W10518   7.603   6.790   9.989  0.0318 -0.0151  0.0714
 6468W        W10519   7.562   4.215  13.860  0.0794 -0.2379 -0.1652
 6469W        W10520   0.233   4.269   5.383  0.0759  0.2475  0.0591
 6470W        W10521   8.553   8.829  11.241  0.1834  0.2963  0.1188
 6471W        W10522   4.113   0.592  13.978 -0.1909  0.2715 -0.2388
 6472W        W10523   5.821   7.629  11.871 -0.0565 -0.1863 -0.0747
 6473W        W10524   3.418   6.979  11.586  0.1271 -0.1350  0.0065
 6474W        W10525   9.503   4.159   0.869 -0.0924  0.1811  0.0442
 6475W        W10526   9.498   5.128   0.894 -0.2514  0.4492 -0.0629
 6476W        W10527   0.384   8.675  13.166 -0.0236  0.1537 -0.0673
 6477W        W10528   0.371   6.280   9.131  0.1839 -0.1757 -0.0643
 6478W        W10529   7.455   7.215   1.076 -0.2210 -0.0125 -0.0929
 6479W        W10530   3.922   3.857   2.145  0.1668 -0.0183 -0.0539
 6480W        W10531   5.349   3.175  10.358 -0.0116  0.0648 -0.0690
 6481W        W10532  10.143   9.844   2.944 -0.1186  0.0711  0.1417
 6482W        W10533   3.722   8.817   1.266  0.2474  0.0101 -0.1284
 6483W        W10534   8.873   3.041   4.165 -0.2197 -0.1666  0.1425
 6484W        W10535   5.937   4.947   9.928  0.2664 -0.1473 -0.1494
 6485W        W10536   5.129   4.101   8.577 -0.3384  0.1112 -0.0386
 6486W        W10537   2.206   5.469   4.268  0.2397  0.0343  0.1610
 6487W        W10538   2.866   6.723   2.672 -0.0930  0.0207 -0.2107
 6488W        W10539   0.586   6.827   2.004 -0.1585 -0.1659  0.2279
 6489W        W10540   6.765   8.110   3.983 -0.1208 -0.0431 -0.2721
 6490W        W10541   0.602   7.271   2.277 -0.1482 -0.1390 -0.0470
 6491W        W10542   6.295   1.581  11.900 -0.0530 -0.1077  0.1382
 6492W        W10543   5.652   7.656   1.311  0.0098  0.0221  0.2391
 6493W        W10544   8.884   2.001   8.912  0.3844 -0.1190  0.1185
 6494W        W10545   9.760   6.396   9.957  0.0250  0.1305 -0.3328
 6495W        W10546   9.584   1.700  12.459  0.1315 -0.0124  0.0795
 6496W        W10547   4.561   9.348  11.268  0.1980 -0.0238  0.1012
 6497W        W10548   9.211   3.126  10.844  0.1275 -0.1909  0.1253
 6498W        W10549   0.150   8.479   4.305  0.2615 -0.0468 -0.1128
 6499W        W10550   3.332   0.627   2.841  0.0692  0.2407 -0.1533
 6500W        W10551   5.702   5.703  13.841  0.0587 -0.2840  0.0362
 6501W        W10552   9.232   0.730   2.327  0.0086  0.1445 -0.1419
 6502W        W10553   0.520   1.840   0.659  0.0523  0.2919 -0.2905
 6503W        W10554   5.240  10.107   3.988  0.1073 -0.0891 -0.2404
 6504W        W10555   7.902   7.093   9.745 -0.0235 -0.0002  0.0221
 6505W        W10556   7.569   4.202   4.287 -0.2246  0.1359  0.0599
 6506W        W10557   6.926   8.426   1.409 -0.1656  0.0752 -0.0884
 6507W        W10558   6.318   7.297   3.618  0.1019  0.2321 -0.2810
 6508W        W10559   6.897   1.998  10.699  0.2274  0.0237  0.1462
 6509W        W10560   2.102   8.474   2.645  0.0641 -0.1168  0.0773
 6510W        W10561   7.076   8.503  12.013 -0.2144  0.2782 -0.4345
 6511W        W10562   0.356   5.723  10.203  0.2693  0.2553  0.1580
 6512W        W10563   7.372   0.470  13.628  0.1117 -0.1681  0.1097
 6513W        W10564   9.270   7.903   4.126  0.0842  0.0666 -0.0433
 6514W        W10565   3.723   8.965  13.817 -0.2068  0.1333  0.1487
 6515W        W10566   3.082   2.918   9.586 -0.0144 -0.1693 -0.0774
 6516W        W10567   8.511   8.556   2.599 -0.2324 -0.1668 -0.1702
 6517W        W10568   8.446   6.310   3.720  0.2531 -0.0871  0.0860
 6518W        W10569   1.056   2.154   9.404  0.1761  0.0432  0.0352
 6519W        W10570   6.415   8.086   0.472 -0.0654 -0.2436 -0.1692
 6520W        W10571   7.217   5.200   2.625 -0.2906 -0.2110  0.5847
 6521W        W10572   3.026   7.662   2.524  0.0722  0.1041 -0.0789
 6522W        W10573   8.925   3.249  11.976  0.4965 -0.2497 -0.1324
 6523W        W10574   5.079   1.535   0.673 -0.2188 -0.2915  0.1196
 6524W        W10575   5.452   5.334   4.744  0.2581 -0.0125 -0.2923
 6525W        W10576   5.774   3.047   1.651 -0.0568  0.2008  0.2411
 6526W        W10577  10.130   7.537   1.155 -0.1782  0.0999  0.2729
 6527W        W10578   4.543   8.056   1.041 -0.2031  0.0177  0.1548
 6528W        W10579   9.567   3.511  12.230  0.1397 -0.1153  0.1262
 6529W        W10580   7.326   8.316   3.152  0.1096 -0.0951  0.0370
 6530W        W10581   1.667   2.379   3.140 -0.1787  0.0303 -0.1308
 6531W        W10582   8.174   4.010  11.276  0.2099  0.2017  0.0638
 6532W        W10583   6.227   3.631   9.912 -0.2015  0.0060 -0.2354
 6533W        W10584   6.662   5.383  13.910  0.0200  0.0110  0.0426
 6534W        W10585   3.895   8.547   3.702 -0.0144 -0.5194 -0.0154
 6535W        W10586   4.284   0.933  11.231  0.0356  0.2662  0.1848
 6536W        W10587   6.936   8.978  12.220  0.0288 -0.1920  0.2758
 6537W        W10588   8.724   9.159  10.381  0.0579  0.2261  0.1717
 6538W        W10589   8.673   0.276  13.580  0.0378 -0.0379  0.0970
 6539W        W10590   5.887   4.393   3.120 -0.0918  0.0157  0.1265
 6540W        W10591   5.029   9.198   0.393  0.3323 -0.0399  0.0341
 6541W        W10592   1.909   7.829  12.634  0.3290  0.2216 -0.1170
 6542W        W10593   7.961   1.652   1.183  0.1100 -0.1103  0.2882
 6543W        W10594   7.413   8.490  12.685 -0.0535 -0.1777  0.2932
 6544W        W10595   9.508   3.234  11.237  0.0606 -0.3613  0.2213
 6545W        W10596   3.824   9.659  13.295 -0.0393 -0.2905  0.1588
 6546W        W10597   6.979   5.119  10.523  0.0326 -0.0762 -0.0611
 6547W        W10598   0.656   9.379   2.837  0.5065  0.3731  0.0801
 6548W        W10599   8.554   5.142   0.243 -0.0967 -0.1879 -0.0728
 6549W        W10600   2.167   2.497  13.735 -0.0750 -0.1918  0.1623
 6550W        W10601   9.867   9.198   1.840  0.0684 -0.2051  0.1166
 6551W        W10602   9.747   7.409  11.438  0.2714 -0.0352  0.0595
 6552W        W10603   4.357   7.638   9.646 -0.0709  0.1643 -0.3277
 6553W        W10604   8.450   9.820   2.312  0.0161 -0.0851 -0.1051
 6554W        W10605   3.421   9.667  12.140  0.2182  0.1072  0.0121
 6555W        W10606   7.892   1.810  12.099 -0.0206  0.0499  0.1539
 6556W        W10607   4.282   5.910   3.074  0.5394  0.2923  0.1197
 6557W        W10608   5.582   4.724   2.210  0.0133 -0.0773  0.1298
 6558W        W10609   0.346   8.521   1.143 -0.0689 -0.2116  0.1004
 6559W        W10610   7.200   5.580   4.782  0.1278  0.0614  0.2306
 6560W        W10611   2.692   9.753  10.719 -0.0721 -0.1516 -0.2237
 6561W        W10612   4.440   5.361   3.533 -0.0028 -0.0562  0.1397
 6562W        W10613   1.696   4.186   1.012 -0.3476  0.0438  0.0395
 6563W        W10614   3.034   3.131   3.324 -0.3019  0.1150  0.2273
 6564W        W10615   3.155   9.783   2.702 -0.3175 -0.6091  0.4631
 6565W        W10616   2.222   5.321  10.069  0.3041  0.2615 -0.6907
 6566W        W10617   9.954   5.510   3.485  0.3232  0.3741 -0.2071
 6567W        W10618   3.389   1.686  12.571 -0.2361 -0.3997  0.0102
 6568W        W10619   7.474   1.230   2.719  0.0766 -0.0657 -0.2401
 6569W        W10620   3.184   5.949   2.878  0.1021 -0.1272  0.1725
 6570W        W10621   7.426   1.462   9.047 -0.0757  0.0120  0.0521
 6571W        W10622  10.109   9.615   1.642  0.1278 -0.1237  0.3489
 6572W        W10623   7.509   0.901   0.791  0.1161  0.2109 -0.1199
 6573W        W10624   2.316   4.781   0.999  0.0883 -0.0885 -0.0129
 6574W        W10625   9.501   2.556  12.899 -0.0364 -0.1101 -0.0453
 6575W        W10626  10.072   5.496   2.334 -0.1982 -0.0777  0.4127
 6576W        W10627   8.162   9.416  12.915  0.3407 -0.2526  0.2965
 6577W        W10628   4.670   2.834   2.242  0.1329 -0.0310  0.0797
 6578W        W10629   4.993   2.414  12.584  0.0083  0.0183 -0.2083
 6579W        W10630   8.470   0.726   9.428 -0.1018  0.4517 -0.1233
 6580W        W10631   7.107   0.070  13.015  0.4400 -0.2878  0.0225
 6581W        W10632   5.079   8.672   3.366 -0.1857 -0.0015 -0.2704
 6582W        W10633   5.422   1.649  12.509  0.2335 -0.0519 -0.2030
 6583W        W10634   4.824   5.863   4.482 -0.0291 -0.4534 -0.1857
 6584W        W10635   5.344   5.355   3.109 -0.1683 -0.1142  0.1704
 6585W        W10636   0.700   5.221  13.893 -0.5419  0.1835  0.0129
 6586W        W10637   1.152   3.118  11.800  0.0056  0.3715  0.3095
 6587W        W10638   4.147  10.006  13.390  0.1259 -0.2296 -0.0502
 6588W        W10639   5.234   9.844  11.333 -0.1602 -0.0759  0.1080
 6589W        W10640   6.482   1.598   1.596 -0.2275  0.0260 -0.0548
 6590W        W10641   5.201   8.887   0.773  0.0011 -0.2187  0.0051
 6591W        W10642   5.977   5.956   2.788 -0.2182 -0.0697  0.0889
 6592W        W10643   5.378   2.727   3.331  0.1249  0.0059 -0.0520
 6593W        W10644   3.159   2.173   2.636  0.0677  0.1488  0.1543
 6594W        W10645   7.021   5.880  13.802  0.0968  0.1382 -0.0270
 6595W        W10646   7.954   2.593  13.028  0.4273 -0.0456  0.1556
 6596W        W10647   9.315   2.067   3.065 -0.1910 -0.0558 -0.3673
 6597W        W10648   5.769   0.074  13.883 -0.2348  0.2478 -0.1629
 6598W        W10649   5.221   5.430   1.995  0.1081  0.3836  0.2265
 6599W        W10650   1.316   2.571  12.538  0.1571 -0.1868  0.1364
 6600W        W10651   7.822   7.418   0.305 -0.1572  0.0307  0.1950
 6601W        W10652   3.317   9.360   2.949  0.1075  0.0247 -0.1309
 6602W        W10653   9.766   5.942   4.638 -0.1006  0.4431  0.0695
 6603W        W10654   1.664   3.591   8.485  0.2794 -0.1271 -0.1688
 6604W        W10655   5.019   7.548  13.403 -0.0867 -0.0887 -0.0740
 6605W        W10656   4.137   5.987  12.326 -0.0397 -0.0898 -0.2719
 6606W        W10657   5.518   9.054  13.781 -0.2284 -0.0009  0.0079
 6607W        W10658   1.920   0.619   1.931 -0.2751 -0.2463 -0.5535
 6608W        W10659   6.793   9.407   4.832 -0.2644  0.4653  0.0075
 6609W        W10660   6.075   4.309  11.953  0.0366  0.4139 -0.2242
 6610W        W10661   2.436   3.517   9.189 -0.2421 -0.3588  0.1255
 6611W        W10662   4.863   3.920   1.222 -0.1507 -0.1443  0.1098
 6612W        W10663   8.956   5.848  10.150  0.3431 -0.1022 -0.0704
 6613W        W10664   1.751   2.342   0.502  0.0582 -0.0590 -0.0224
 6614W        W10665   5.518   6.019   0.190 -0.3772 -0.0787 -0.1534
 6615W        W10666   2.841   4.184   2.159  0.1474  0.0052 -0.0777
 6616W        W10667   0.832   4.860   3.421  0.0478 -0.2714 -0.0800
 6617W        W10668   0.546   5.261  13.380 -0.1786  0.2583  0.1792
 6618W        W10669   9.925   2.663   2.717  0.0344  0.1886  0.0356
 6619W        W10670   4.753   2.958   9.482 -0.1753  0.0037  0.1963
 6620W        W10671   6.850   7.076   4.489 -0.2084  0.1242  0.4064
 6621W        W10672   2.954   1.771  12.867  0.2174  0.0586  0.0013
 6622W        W10673   4.651   8.128   0.454  0.1582  0.1772 -0.2201
 6623W        W10674   9.656   2.471   5.148 -0.2416 -0.2240  0.2281
 6624W        W10675   5.502   9.765   2.868  0.2095 -0.4374  0.1129
 6625W        W10676   0.926   9.507  10.903  0.0068 -0.1032 -0.2872
 6626W        W10677   0.781   3.443   4.419  0.1837 -0.0540  0.1444
 6627W        W10678   8.638   6.421   2.354 -0.2856 -0.0900  0.0727
 6628W        W10679   0.868   4.697  10.324  0.1600 -0.2191  0.1723
 6629W        W10680   6.394   3.453   9.396  0.0752  0.0011  0.0777
 6630W        W10681   3.364   9.256  10.910  0.0035  0.2294 -0.0066
 6631W        W10682   3.257   4.723  12.304  0.1998 -0.3829  0.0735
 6632W        W10683   1.546   8.296  11.074 -0.0177 -0.2137 -0.0037
 6633W        W10684   8.333   8.569  12.005  0.0279 -0.1763 -0.0277
 6634W        W10685   5.697   0.593   3.735 -0.1393  0.0322  0.1737
 6635W        W10686   3.359   4.251   0.149 -0.4329  0.1279  0.0267
 6636W        W10687   1.729   7.067   0.870 -0.1543  0.1035  0.2958
 6637W        W10688   8.064   9.561   3.994  0.0738 -0.0181  0.2438
 6638W        W10689   7.829   3.367   2.701 -0.1195  0.0939 -0.1195
 6639W        W10690   6.264   9.899   2.286  0.0399  0.2161 -0.1230
 6640W        W10691   6.956   0.233   0.378  0.2971 -0.2742  0.1174
 6641W        W10692   6.957   5.536  11.410  0.0483  0.1565 -0.1900
 6642W        W10693   9.452   4.291  10.160  0.1680  0.0144  0.0613
 6643W        W10694   2.716   8.901   0.765 -0.3007  0.1735  0.0847
 6644W        W10695   2.191   6.875   0.566  0.2136  0.1563  0.2188
 6645W        W10696   2.164   4.294  10.158 -0.1958  0.1548  0.0834
 6646W        W10697   1.178   0.560   0.538 -0.2260  0.0502 -0.1467
 6647W        W10698   7.860   9.797   2.682  0.2031  0.2689 -0.2025
 6648W        W10699   4.726   1.077  12.646 -0.0039  0.0169  0.0071
 6649W        W10700   8.855   6.143   1.869 -0.1114 -0.1441 -0.1984
 6650W        W10701   2.488   2.712  11.356  0.2236 -0.2439 -0.0202
 6651W        W10702   6.073   8.243   9.999 -0.1616 -0.2983  0.0334
 6652W        W10703   8.436   6.844   2.605  0.0822  0.1280 -0.1977
 6653W        W10704   8.030   4.549  12.264 -0.1496 -0.1062 -0.1007
 6654W        W10705   8.888   8.029   4.372 -0.2024  0.2782 -0.1378
 6655W        W10706   9.155   4.253   3.712 -0.4950 -0.4259  0.3656
 6656W        W10707   5.313   1.639   0.224  0.0152 -0.2033 -0.0747
 6657W        W10708   4.618   1.139   2.365  0.2053  0.0963 -0.0598
 6658W        W10709   9.064   5.319   0.861  0.1264 -0.1818 -0.1026
 6659W        W10710   9.344   6.084   1.931 -0.2017  0.1582 -0.0398
 6660W        W10711   1.026   6.247  12.616  0.0923 -0.0680 -0.1591
 6661W        W10712   9.705   0.500  10.548 -0.2231  0.1649 -0.2614
 6662W        W10713   4.647   0.585   4.067  0.0526  0.1398  0.0432
 6663W        W10714   8.806   7.254   9.840 -0.1683  0.3582 -0.1702
 6664W        W10715   1.451   3.588  10.279  0.0965  0.2069 -0.4024
 6665W        W10716   0.778   8.899  13.374 -0.0836 -0.0277  0.0693
 6666W        W10717   7.101   4.581   8.618  0.1258 -0.0653  0.1852
 6667W        W10718   1.453   0.537   1.165  0.2912 -0.1265 -0.2208
 6668W        W10719   5.101   2.672  11.045 -0.1859 -0.1710 -0.1174
 6669W        W10720   0.158   9.428  12.284  0.2227  0.2248  0.1491
 6670W        W10721   5.946   8.179   3.406 -0.0558  0.1046 -0.2065
 6671W        W10722   6.854   6.256  12.070  0.2098 -0.0506 -0.1187
 6672W        W10723   5.736   3.488   4.190 -0.1433 -0.2059  0.1363
 6673W        W10724   4.182   7.747   0.012  0.1081  0.0270  0.3645
 6674W        W10725   8.216   0.412  13.799 -0.1291 -0.1552 -0.1669
 6675W        W10726   8.505   7.029   1.724 -0.0427  0.1193  0.0751
 6676W        W10727   8.666   3.723   3.006  0.1336 -0.2234 -0.0598
 6677W        W10728   7.106   8.826   2.445 -0.1319 -0.0392  0.2139
 6678W        W10729   0.732   3.610   3.960  0.5974 -0.0260  0.1579
 6679W        W10730   1.651   5.430   5.294 -0.1639 -0.1917  0.0625
 6680W        W10731   5.799   1.221   2.108  0.0052  0.2313  0.0222
 6681W        W10732   9.276   7.769  11.722  0.1420  0.2206 -0.0179
 6682W        W10733   5.467   0.832  12.874 -0.1936  0.0618 -0.1076
 6683W        W10734   2.670   0.949  11.376 -0.3285 -0.1572 -0.3485
 6684W        W10735   3.252   9.054  12.482 -0.3624  0.2336  0.0104
 6685W        W10736   7.429   4.710   0.846  0.4299 -0.2552  0.0117
 6686W        W10737   0.271   2.697   3.688  0.0224  0.0656 -0.0776
 6687W        W10738   6.136   8.072   2.883  0.1611  0.1546 -0.2142
 6688W        W10739   0.349   0.718  12.669  0.0155  0.3688  0.2887
 6689W        W10740   1.808   9.937   1.498 -0.1793  0.0867  0.1225
 6690W        W10741   8.207   6.610  12.460  0.0882  0.1285 -0.4006
 6691W        W10742   5.111   7.056   0.923 -0.0870 -0.2540  0.1967
 6692W        W10743   6.999   8.014   5.203 -0.2420 -0.0586 -0.2117
 6693W        W10744   0.901   7.036   4.023  0.0770  0.2728 -0.0409
 6694W        W10745   5.088   6.192  11.764 -0.0535  0.0651 -0.3192
 6695W        W10746   8.936   9.047   8.931  0.0512  0.3202  0.0893
 6696W        W10747   5.865   2.452   9.307 -0.0614  0.0679 -0.3445
 6697W        W10748   9.401   5.001  11.147 -0.1917  0.0580 -0.1379
 6698W        W10749   4.933   8.805  11.518 -0.0943 -0.5179 -0.0601
 6699W        W10750   3.845   0.626   2.920 -0.1758  0.3564  0.1725
 6700W        W10751   6.388   8.581   0.228  0.4520 -0.3079 -0.3568
 6701W        W10752   7.408   8.446   4.580 -0.0848  0.3862  0.1251
 6702W        W10753   6.060   9.102   3.237  0.1203 -0.1476 -0.0324
 6703W        W10754   5.029   3.413   0.158 -0.2699 -0.0093  0.1586
 6704W        W10755   4.479   0.928   1.902  0.5680  0.0440 -0.4250
 6705W        W10756  10.150   4.361   9.321 -0.0176 -0.3556  0.0461
 6706W        W10757   6.163   2.876  13.195  0.0875 -0.1042 -0.1213
 6707W        W10758   5.246   0.673   0.533 -0.0909 -0.2563 -0.0419
 6708W        W10759   5.600   2.431  11.959  0.0789 -0.0536 -0.0396
 6709W        W10760   8.211   8.337   1.800 -0.1872  0.0646  0.1782
 6710W        W10761   4.578   5.069   2.402 -0.0927 -0.0574 -0.4345
 6711W        W10762   6.759   1.813   2.931 -0.0361  0.1286 -0.2177
 6712W        W10763   3.677   0.175   0.966  0.2729  0.1189  0.0348
 6713W        W10764   2.630   9.410   1.112 -0.2724 -0.1520 -0.1329
 6714W        W10765   1.916   9.432  13.865 -0.1487 -0.0781  0.0920
 6715W        W10766   1.196   0.687  12.564  0.2523 -0.1591  0.2478
 6716W        W10767   2.845   6.944  12.392 -0.4236  0.1613  0.1643
 6717W        W10768   4.215   2.093  10.524  0.0453  0.1253 -0.1569
 6718W        W10769   6.834   7.652   4.218 -0.1943 -0.2006 -0.0505
 6719W        W10770   7.859   0.377  11.763  0.1076  0.3584  0.3172
 6720W        W10771   4.342   4.168   0.419 -0.0871  0.1326  0.3667
 6721W        W10772   7.537   5.945   3.968 -0.0279 -0.2377 -0.1040
 6722W        W10773   1.340   9.303  12.479  0.4707  0.2162  0.0543
 6723W        W10774   8.877   9.349  13.579 -0.0731 -0.3445  0.2138
 6724W        W10775   2.900   6.778   3.319  0.2193  0.1230  0.4193
 6725W        W10776   9.042   5.514   9.350  0.1382  0.1465 -0.1758
 6726W        W10777   2.534   4.403   0.693 -0.2377  0.1959 -0.1233
 6727W        W10778   9.973   2.868  11.370  0.2170  0.1423  0.3428
 6728W        W10779   8.716   0.012   9.076 -0.2806 -0.2373 -0.3070
 6729W        W10780   8.731   3.986  11.282 -0.0250  0.1220  0.0738
 6730W        W10781   2.551   9.274   2.173  0.1872 -0.1020  0.0757
 6731W        W10782   9.367   0.984   5.413 -0.0189 -0.1319  0.1785
 6732W        W10783   3.873   4.389   2.060 -0.0459 -0.2151  0.2433
 6733W        W10784   3.779   4.951   3.279  0.1212 -0.0790  0.2360
 6734W        W10785   8.464   1.377  11.240  0.1684 -0.0789  0.1704
 6735W        W10786   6.872   8.242  11.462 -0.2071 -0.1019  0.1758
 6736W        W10787   8.784   3.029  12.797  0.2103  0.5166 -0.1749
 6737W        W10788   5.900   0.871   4.093 -0.2219  0.1879  0.6017
 6738W        W10789   2.681   3.440   5.413 -0.1154 -0.1010 -0.0281
 6739W        W10790   9.033   2.441  13.742 -0.0106 -0.0336 -0.0127
 6740W        W10791   6.367   3.293  11.055 -0.1483  0.1050  0.1262
 6741W        W10792   8.583   1.186   1.749 -0.1450  0.0547 -0.0629
 6742W        W10793   5.997   1.845  13.314 -0.4067 -0.0071 -0.2645
 6743W        W10794   5.736   4.995   1.484 -0.0255 -0.1594  0.3203
 6744W        W10795   6.695   2.121   4.013 -0.1094  0.2393  0.1238
 6745W        W10796   4.276   5.034   9.444 -0.0468 -0.0702 -0.1153
 6746W        W10797   8.616   9.022   1.253 -0.2179 -0.1492 -0.0570
 6747W        W10798   8.009   3.357   9.980 -0.0126 -0.0697  0.0225
 6748W        W10799   8.278   2.107   1.312  0.0328  0.1648  0.1187
 6749W        W10800   3.198   6.206   1.042  0.5243  0.0811  0.0819
 6750W        W10801   7.824   3.191  10.835  0.0445  0.0294 -0.2058
 6751W        W10802   9.497   3.452  10.512  0.1211  0.2274 -0.3673
 6752W        W10803   1.593   9.259   1.004  0.0436  0.1249  0.1066
 6753W        W10804   8.477   2.612   9.887 -0.0922  0.2261 -0.2867
 6754W        W10805   6.209   5.661  11.393 -0.0988 -0.0361 -0.0975
 6755W        W10806   1.774   2.264  11.752 -0.2344 -0.1949  0.0501
 6756W        W10807   0.757   0.868  12.408 -0.1399  0.2443 -0.1427
 6757W        W10808   2.936   8.837   3.218 -0.3172 -0.0790 -0.1229
 6758W        W10809  10.029   9.113   0.718 -0.0318  0.1776  0.0110
 6759W        W10810   9.213   1.663   1.349  0.2971 -0.1561  0.1925
 6760W        W10811   6.892   3.489  11.170  0.2254 -0.3814 -0.0128
 6761W        W10812   7.876   0.430   3.989 -0.0072 -0.2028  0.0088
 6762W        W10813   5.475   7.793  13.556  0.0930 -0.1359 -0.1388
 6763W        W10814   3.354   2.576  11.594  0.3225  0.0559  0.0286
 6764W        W10815   0.080   3.069  13.904 -0.1471  0.0395 -0.0211
 6765W        W10816   4.797   5.364   9.246  0.3449 -0.2848  0.1251
 6766W        W10817   9.959   7.311   4.159 -0.0650 -0.1163 -0.3770
 6767W        W10818   4.135   8.090  11.825 -0.1559 -0.2426  0.0823
 6768W        W10819   3.277   9.253   0.043 -0.3902 -0.1898 -0.0158
 6769W        W10820   8.983   4.575   4.815  0.0623 -0.0812  0.1966
 6770W        W10821   8.693   4.702  10.794  0.1179  0.1860 -0.0457
 6771W        W10822   9.801   7.677  10.105 -0.1354 -0.1678  0.0624
 6772W        W10823   1.283   3.155   8.562 -0.0044 -0.3088  0.0969
 6773W        W10824   8.425   1.995   3.279  0.2681 -0.0566 -0.1557
 6774W        W10825   6.619   6.412   3.287  0.0939 -0.1268  0.3970
 6775W        W10826   0.922   2.691  11.930 -0.0830  0.0284  0.2023
 6776W        W10827   2.567   9.715   3.287 -0.1257  0.1919  0.2760
 6777W        W10828   7.028   2.704   2.964 -0.2449  0.0735 -0.0630
 6778W        W10829   5.602   1.341  10.244  0.2043 -0.3078  0.0192
 6779W        W10830   7.743   6.879   4.694 -0.0252 -0.1833  0.0627
 6780W        W10831   0.049   9.475   0.429  0.2069  0.0302  0.0640
 6781W        W10832   4.296   5.012  11.655 -0.1357  0.1077 -0.0287
 6782W        W10833  10.078   7.687   0.186  0.0282  0.0894 -0.4556
 6783W        W10834   4.682   9.067   0.743  0.0993 -0.0707 -0.0685
 6784W        W10835   2.119   3.921  10.489 -0.1191 -0.1034  0.0887
 6785W        W10836   2.025   5.053   3.229  0.1228  0.0577 -0.1396
 6786W        W10837   0.000   8.857  10.464 -0.0050  0.3595  0.1390
 6787W        W10838   3.888   1.669  10.631  0.0067 -0.5218  0.0460
 6788W        W10839   3.995   7.697   1.592  0.2271 -0.4097 -0.3550
 6789W        W10840   8.446   8.548   1.388 -0.2492 -0.0505  0.3500
 6790W        W10841   9.330   7.132   2.753 -0.1650 -0.0321 -0.0837
 6791W        W10842   3.086   3.958  10.620  0.0677  0.5188  0.1816
 6792W        W10843   5.455   6.064  10.622  0.1689 -0.1476 -0.2447
 6793W        W10844   6.523   4.354   9.315 -0.1326 -0.0137  0.0577
 6794W        W10845   8.703   5.224   2.290  0.2414 -0.0199 -0.0997
 6795W        W10846   2.267   9.722   1.526 -0.1967 -0.1144 -0.2219
 6796W        W10847   0.584   5.069   1.786  0.0700  0.1889 -0.3423
 6797W        W10848   4.636   5.295   9.765 -0.2155  0.1429  0.1659
 6798W        W10849   4.697   5.279  13.023  0.1669 -0.1998  0.0894
 6799W        W10850   8.119   8.156  12.251  0.0476 -0.2523 -0.2697
 6800W        W10851   1.588   8.835  11.208 -0.1611 -0.0213 -0.1425
 6801W        W10852   2.305   6.472   9.949  0.0321 -0.0143  0.3261
 6802W        W10853   3.321   8.951  13.554  0.0806 -0.1260 -0.2752
 6803W        W10854   4.416   4.889   0.029 -0.1541  0.1071  0.1298
 6804W        W10855   1.737   5.763  12.600  0.0187 -0.3186  0.4508
 6805W        W10856  10.092   9.392  11.692 -0.1911  0.1948 -0.1843
 6806W        W10857   5.444   9.293   4.425 -0.2397 -0.4739  0.2606
 6807W        W10858   0.378   0.086  13.993 -0.0508  0.0409 -0.0594
 6808W        W10859   3.923   7.968  13.057 -0.0801  0.3960 -0.0145
 6809W        W10860   6.392   8.077   3.639  0.0409  0.0165 -0.0998
 6810W        W10861   5.381   5.321   1.427 -0.1101 -0.1174  0.0569
 6811W        W10862   7.300   5.365  10.831 -0.1541  0.1493 -0.1734
 6812W        W10863   3.130   0.808   1.348  0.1206 -0.2541 -0.1737
 6813W        W10864   0.838   3.662   2.832  0.1004 -0.1246 -0.2503
 6814W        W10865   1.040   7.926   0.971 -0.0134 -0.1802 -0.1391
 6815W        W10866   3.244   6.675  12.586  0.4458 -0.1055 -0.1572
 6816W        W10867   9.109   1.872   5.400 -0.1434 -0.2940 -0.0485
 6817W        W10868   8.114   4.389   9.689 -0.0971  0.0431  0.0750
 6818W        W10869   4.586   0.040  13.240 -0.1660 -0.1253 -0.1955
 6819W        W10870   6.626   8.742   0.627 -0.1218  0.1287  0.2259
 6820W        W10871   3.841   1.083   0.684  0.3590 -0.2429  0.4149
 6821W        W10872   0.183   0.839  13.117 -0.0295  0.1696 -0.1525
 6822W        W10873   9.631   1.542   3.748 -0.0251  0.0148 -0.1364
 6823W        W10874   3.301   3.901   9.289 -0.0316  0.0582 -0.1130
 6824W        W10875   7.458   7.072   2.517 -0.0232  0.2837 -0.1706
 6825W        W10876   8.891   8.560  12.240  0.1815 -0.2873 -0.0434
 6826W        W10877   5.183   3.043   0.498  0.2442  0.3972 -0.0806
 6827W        W10878   3.640   3.745  11.385  0.0044 -0.4879 -0.0806
 6828W        W10879   3.359   8.832   2.878  0.2057  0.1277  0.1081
 6829W        W10880  10.151   3.247   3.466  0.0322  0.0839  0.2316
 6830W        W10881   5.890   5.008  12.679  0.4211  0.1093  0.1087
 6831W        W10882   8.167   1.550  11.591 -0.2619  0.1919 -0.0002
 6832W        W10883   1.027   1.851  13.100 -0.0109 -0.3928 -0.0926
 6833W        W10884   5.778   0.531   0.541  0.1119  0.1419 -0.1673
 6834W        W10885   7.451   1.234   9.900 -0.0669 -0.2124  0.1613
 6835W        W10886   1.354   3.206   3.249  0.1294  0.0377 -0.1167
 6836W        W10887   6.604   0.957   9.891  0.0045 -0.0835 -0.0674
 6837W        W10888   3.943   6.405   1.452  0.1694 -0.1223 -0.1988
 6838W        W10889   8.958   5.754  12.909 -0.0319 -0.2278  0.3009
 6839W        W10890   4.375   4.305  13.375  0.0484 -0.0840  0.1097
 6840W        W10891   3.160   2.673   3.208 -0.0892  0.0008 -0.0724
 6841W        W10892   8.919   5.082  13.892 -0.0005 -0.0908 -0.0283
 6842W        W10893   5.306   6.563  12.826  0.2859 -0.1207  0.0675
 6843W        W10894   8.691   0.863  11.367 -0.2234  0.0242  0.1093
 6844W        W10895   4.357   4.203   2.880 -0.0040 -0.1256  0.3500
 6845W        W10896   6.506   9.729   1.523  0.3377 -0.0311 -0.2624
 6846W        W10897   0.675   1.260   2.142 -0.0820 -0.0083  0.2411
 6847W        W10898   7.014   0.368   2.123 -0.0623  0.0896  0.2070
 6848W        W10899   6.951   6.320   0.017 -0.0183  0.1675 -0.0928
 6849W        W10900   2.691   5.766  11.370 -0.1722 -0.1472 -0.0849
 6850W        W10901   2.828   8.461   1.030 -0.1847  0.1348  0.0159
 6851W        W10902  10.093   2.479  10.301  0.1863 -0.3050  0.0361
 6852W        W10903   5.976   5.928   3.584 -0.1325 -0.1117  0.1289
 6853W        W10904   2.746   5.444  10.943  0.4032  0.2548  0.1809
 6854W        W10905   6.926   8.234   2.362  0.1727  0.2493 -0.2029
 6855W        W10906   4.538   8.954  11.810  0.2198 -0.2787  0.1176
 6856W        W10907   9.710   6.276   2.864  0.2889 -0.2100 -0.1465
 6857W        W10908   1.568   3.401  11.611  0.1752  0.1381 -0.1485
 6858W        W10909   1.738   7.549   3.350  0.0949 -0.0411  0.0517
 6859W        W10910   9.696   3.200   2.534 -0.1457 -0.2462 -0.0037
 6860W        W10911   2.924   1.828   2.941  0.2059  0.1940 -0.3581
 6861W        W10912   1.996   4.997   4.116 -0.2199 -0.3003  0.0932
 6862W        W10913   6.335   6.341   2.798 -0.0796 -0.0804  0.1376
 6863W        W10914   3.493   0.485   4.780 -0.2867 -0.0585  0.0793
 6864W        W10915   3.745   1.003   2.225  0.2197  0.0927 -0.0902
 6865W        W10916   2.969   2.766   2.036 -0.1713 -0.2020 -0.0722
 6866W        W10917  10.019   7.985   2.839  0.0449  0.3939  0.0027
 6867W        W10918   4.077   3.025  13.406 -0.1285 -0.1437  0.2630
 6868W        W10919   4.557   9.470   1.942 -0.2372 -0.0955 -0.0942
 6869W        W10920   6.944   7.630   9.753  0.0022 -0.3325  0.2198
 6870W        W10921   8.735   7.568  12.858  0.0140  0.1043  0.1027
 6871W        W10922   8.856   4.675  12.093  0.0311  0.0467  0.1483
 6872W        W10923   1.128  10.149  12.015 -0.1841  0.1035  0.2013
 6873W        W10924   8.366   7.448  13.182  0.3012  0.1440  0.0055
 6874W        W10925   6.311   8.801   9.253 -0.3037 -0.0172  0.0731
 6875W        W10926   5.800   5.385   0.206 -0.4192  0.0257  0.4005
 6876W        W10927   3.488   0.587  11.276  0.0155  0.0461  0.1373
 6877W        W10928   1.937   0.584  10.788  0.1506  0.1823  0.2438
 6878W        W10929   7.427   2.686   4.323  0.1240 -0.1248  0.1012
 6879W        W10930   9.480   7.390   3.331  0.1489 -0.0156 -0.1034
 6880W        W10931  10.139   6.141  12.303 -0.0029 -0.2682  0.2669
 6881W        W10932   0.623   8.591  10.780  0.0544  0.3516 -0.3856
 6882W        W10933   1.659   0.578  11.837 -0.0965  0.2758  0.0934
 6883W        W10934   3.344   7.424   1.401  0.3902  0.1258 -0.1898
 6884W        W10935   1.850   9.894  11.254  0.1402 -0.0010 -0.1518
 6885W        W10936   2.907   8.174   2.157 -0.1735 -0.1594 -0.1612
 6886W        W10937   9.810   5.458  13.931  0.1362  0.0381  0.1392
 6887W        W10938   2.865   3.655  12.783 -0.1710 -0.0250  0.2639
 6888W        W10939   6.954   9.711   1.659  0.0171  0.1292 -0.2360
 6889W        W10940   9.968   2.658   9.421 -0.3406  0.0876 -0.0944
 6890W        W10941   9.110   2.380   1.316 -0.2103  0.2785  0.0740
 6891W        W10942   7.839   3.771   4.094 -0.2561 -0.1635  0.2129
 6892W        W10943   5.071   3.944  12.957 -0.0216 -0.0202  0.2926
 6893W        W10944   8.127   3.124   1.331 -0.0494  0.0185  0.0953
 6894W        W10945   3.578   8.128  10.161 -0.2799 -0.2220 -0.1382
 6895W        W10946   3.480   9.540   3.428  0.2434 -0.1264  0.0593
 6896W        W10947   5.283   8.822   9.846  0.0508  0.3721  0.1214
 6897W        W10948   6.829   4.437   2.645  0.0677 -0.2315 -0.0083
 6898W        W10949   4.409   9.541  13.404  0.0845 -0.4121  0.1814
 6899W        W10950   8.254   7.254  13.616 -0.2533  0.2450 -0.0847
 6900W        W10951   5.921   8.834  12.538 -0.1362  0.1397  0.1979
 6901W        W10952   2.254   9.868  10.294  0.0190 -0.1234  0.1188
 6902W        W10953   2.564   1.134   4.022  0.1761  0.0117  0.0188
 6903W        W10954   9.393   5.151   2.678  0.3508  0.1559  0.1241
 6904W        W10955   8.579   8.531  13.004  0.0047  0.3280  0.0109
 6905W        W10956   9.065  10.064  13.763 -0.1275  0.2664  0.3233
 6906W        W10957   8.139   7.753   4.799  0.0303  0.0270  0.0772
 6907W        W10958   3.156   2.972  10.681 -0.1299 -0.0598  0.1505
 6908W        W10959   0.304   5.434  12.725 -0.0209  0.0796  0.1548
 6909W        W10960   3.653   0.832   9.349  0.0936  0.0273  0.0759
 6910W        W10961   4.349   1.804   3.031  0.0998 -0.2278 -0.3748
 6911W        W10962   7.156   9.598  13.787 -0.1473 -0.0252 -0.1923
 6912W        W10963   4.067   4.070  12.698  0.3467  0.2420 -0.2915
 6913W        W10964   0.211  10.077   0.737  0.1897  0.1917 -0.1600
 6914W        W10965   5.310   2.964   2.854  0.0487  0.1619  0.0543
 6915W        W10966   5.350   3.451   2.833 -0.1143  0.2050 -0.0308
 6916W        W10967   1.723   5.868   3.979  0.3012 -0.0875  0.1790
 6917W        W10968   7.364   9.579   4.669  0.1799 -0.1133  0.2693
 6918W        W10969   1.309   6.430   2.813  0.2712  0.3074  0.3260
 6919W        W10970   0.956   2.849  11.392 -0.3369  0.0700  0.0938
 6920W        W10971   9.115   5.529   2.361 -0.1572  0.0728 -0.2636
 6921W        W10972   7.043   8.229  12.477 -0.1493 -0.0245  0.1210
 6922W        W10973   7.355   4.894  12.300  0.1308 -0.0041  0.1340
 6923W        W10974   2.454   0.890   3.544  0.2672 -0.3586  0.0921
 6924W        W10975   7.756   8.760   3.162 -0.1852 -0.2817  0.1033
 6925W        W10976   4.278   4.740  10.924  0.0669  0.1492 -0.1638
 6926W        W10977   9.724   7.986   4.828 -0.0014  0.0639  0.0956
 6927W        W10978   7.965   4.978   3.128  0.1401 -0.1571  0.1642
 6928W        W10979   7.852   0.533  10.407 -0.0450  0.0972  0.0097
 6929W        W10980   7.762   1.148   0.101 -0.0823  0.0017 -0.0719
 6930W        W10981   6.497   8.740  11.279 -0.1358 -0.2242 -0.4270
 6931W        W10982   3.680   7.062   3.447  0.1305 -0.1128  0.0418
 6932W        W10983   6.916   2.807  13.689 -0.1139 -0.0382  0.2088
 6933W        W10984  10.153   8.495   0.176 -0.0279  0.0585 -0.0584
 6934W        W10985   5.914   6.778   1.986 -0.2819 -0.1874  0.1419
 6935W        W10986   1.493   8.168  10.599 -0.0228  0.0272  0.0610
 6936W        W10987   0.555   0.489  13.796  0.0641 -0.1510  0.3119
 6937W        W10988   3.466   2.401   1.743 -0.1066  0.1561  0.1821
 6938W        W10989   6.018   2.403   1.899 -0.0800 -0.1949  0.0921
 6939W        W10990   4.506   8.960   9.506 -0.0014 -0.1440 -0.1629
 6940W        W10991   9.112   3.698   4.616  0.0165 -0.0033  0.0242
 6941W        W10992   1.787   4.690  11.358  0.3389  0.0391  0.4381
 6942W        W10993   1.289   6.851   3.081  0.3137  0.3398  0.1519
 6943W        W10994   3.354   1.686   2.611 -0.3355 -0.2121  0.1712
 6944W        W10995   5.880   4.534  12.437 -0.0517 -0.0699  0.3593
 6945W        W10996   9.462  10.083   3.893 -0.2163  0.2871  0.1317
 6946W        W10997   8.894   3.191   9.939 -0.2705  0.3334  0.0716
 6947W        W10998   7.501   2.412  12.990  0.1654  0.0581 -0.0261
 6948W        W10999   5.355   3.639  11.109 -0.0153 -0.1302  0.1062
 6949W        W11000   6.442   4.904  14.029 -0.1396  0.2095 -0.1238
 6950W        W11001   9.332   6.231   3.969  0.2236  0.3232  0.0014
 6951W        W11002   3.781   6.667   3.894 -0.0157 -0.1811 -0.1936
 6952W        W11003   8.352   8.023   5.222 -0.1234 -0.0114  0.0070
 6953W        W11004   7.308   5.193   1.031  0.3326  0.0277  0.1584
 6954W        W11005   7.408   5.789   0.669  0.0078 -0.2462  0.0178
 6955W        W11006   0.364   0.435   4.251  0.2070  0.4343  0.2700
 6956W        W11007   6.091   4.489   8.648  0.1024 -0.0580  0.0081
 6957W        W11008   9.893   5.370  10.701 -0.2487  0.1704  0.1772
 6958W        W11009   6.865   0.815  12.570  0.3605 -0.0683  0.2377
 6959W        W11010   4.077   0.990   2.622  0.0444  0.1985  0.0982
 6960W        W11011   0.676   9.167   1.749 -0.2353  0.2131 -0.2065
 6961W        W11012   0.427   5.494   2.190  0.0334  0.3135  0.3095
 6962W        W11013   1.820   6.758   1.273  0.0531 -0.1120 -0.1422
 6963W        W11014   6.485   8.494   4.165  0.3498 -0.0590  0.2085
 6964W        W11015   1.641   8.544   2.802  0.1013  0.0112 -0.0447
 6965W        W11016   5.492   3.359  14.037  0.0138 -0.0561  0.0109
 6966W        W11017   9.129   7.496   1.984  0.3302 -0.4186 -0.2041
 6967W        W11018   4.853   6.610   3.113 -0.4018 -0.0312  0.1006
 6968W        W11019   7.806   2.027  12.637 -0.1321  0.2497  0.0896
 6969W        W11020   4.725   7.478  11.286 -0.0276 -0.1571 -0.1985
 6970W        W11021   3.040  10.127  10.091  0.4751  0.1346 -0.0254
 6971W        W11022   9.098   4.593  13.787 -0.1711  0.1390 -0.1333
 6972W        W11023   6.390   1.266   4.780  0.0544  0.1584  0.0834
 6973W        W11024   1.766   1.498  13.622  0.0989  0.0277 -0.1019
 6974W        W11025   9.776   4.236   9.712  0.0194  0.1612  0.0949
 6975W        W11026   7.101   8.254  13.634  0.2664 -0.0660  0.0013
 6976W        W11027   8.093   9.578   4.987 -0.0177  0.2632  0.2145
 6977W        W11028   3.987   1.782  11.244  0.2537  0.3832  0.1393
 6978W        W11029   6.658   7.290   3.275  0.0939 -0.3007  0.1416
 6979W        W11030   4.741   6.146   3.024 -0.3721 -0.2972 -0.0817
 6980W        W11031   4.070   1.340  10.942 -0.3233  0.0504 -0.3088
 6981W        W11032   6.146   6.594  11.016 -0.1455 -0.2134  0.2727
 6982W        W11033   7.261   8.126  13.054  0.3206 -0.2331 -0.3327
 6983W        W11034   6.934   5.358   1.426  0.0634  0.1861  0.0353
 6984W        W11035   4.930   2.480   0.901  0.1782  0.1983 -0.0984
 6985W        W11036   8.074   5.631   4.122  0.0590  0.0988  0.1058
 6986W        W11037   3.266   2.511  10.502  0.2445  0.1109  0.3696
 6987W        W11038   2.322   9.233  10.962 -0.1385 -0.1830 -0.0936
 6988W        W11039   0.876   9.389   7.529  0.1405  0.0206 -0.0056
 6989W        W11040   5.034   4.744  12.242  0.0044  0.0912 -0.0935
 6990W        W11041   9.369   4.104  13.391 -0.0249 -0.1071  0.0515
 6991W        W11042   1.991   4.528   2.527 -0.0815  0.1668  0.1004
 6992W        W11043   3.583   6.712  11.151 -0.1213 -0.0227 -0.0248
 6993W        W11044   2.700   4.359  13.410  0.0726  0.0455  0.1850
 6994W        W11045   0.944   6.211  10.399  0.2115  0.1916 -0.2943
 6995W        W11046   2.833   3.907  13.930 -0.1727  0.1838 -0.0516
 6996W        W11047   6.061   6.635  11.991 -0.1187 -0.0080 -0.3841
 6997W        W11048   3.067   8.649   2.154  0.0777 -0.1977 -0.1099
 6998W        W11049   8.563   2.503   1.508  0.0252 -0.3327  0.3201
 6999W        W11050   1.775   2.649  12.285 -0.2092  0.1506 -0.0666
 7000W        W11051   0.236   6.363   2.701  0.2362 -0.0311 -0.3967
 7001W        W11052   8.640   0.049  14.017 -0.2257 -0.3160 -0.0474
 7002W        W11053   9.145   0.874  12.192 -0.0180  0.0594 -0.1335
 7003W        W11054   5.458   0.480   2.208 -0.2586  0.1261 -0.2648
 7004W        W11055   7.146   2.391  12.195  0.2155  0.1318 -0.0327
 7005W        W11056   1.800   2.689  12.827 -0.5496  0.1865  0.0249
 7006W        W11057   7.488   3.356   3.685  0.0891  0.2497 -0.1035
 7007W        W11058   2.884   4.074   0.326  0.0884 -0.3128 -0.0145
 7008W        W11059   6.653   6.408   4.512 -0.0327  0.1435 -0.1193
 7009W        W11060   8.757   6.444   0.574  0.1041  0.2284 -0.1941
 7010W        W11061   6.283   5.932   3.982  0.0377 -0.1747  0.2987
 7011W        W11062   4.697   6.959   0.389 -0.1675  0.0903 -0.1357
 7012W        W11063   4.823   3.347   4.511 -0.0362  0.2127  0.1110
 7013W        W11064   2.943   9.604   0.027 -0.1754  0.0440  0.0083
 7014W        W11065   4.574   5.027   0.462 -0.3201  0.2497 -0.0234
 7015W        W11066   5.750   8.840  11.931  0.1425 -0.1907 -0.1609
 7016W        W11067   3.609   6.123   3.816 -0.0364  0.3625  0.0934
 7017W        W11068   1.576   2.735   2.184  0.1436  0.1509  0.1814
 7018W        W11069   0.983   2.388  11.135  0.1073  0.1965  0.1252
 7019W        W11070   6.702   9.892   9.998  0.3306 -0.0520  0.4193
 7020W        W11071   9.142   9.216   1.034 -0.0363 -0.0030 -0.0782
 7021W        W11072   9.975   1.472   9.220 -0.5293 -0.2502  0.2275
 7022W        W11073   2.216   4.633  13.342 -0.3100  0.1908  0.1398
 7023W        W11074   6.588   1.976   3.401  0.1324 -0.2490 -0.1877
 7024W        W11075   4.198   4.604  10.431 -0.0729  0.0618 -0.2070
 7025W        W11076   5.523   9.685  10.935  0.3820  0.0272 -0.0282
 7026W        W11077   6.324   8.193   5.047  0.0626 -0.0159 -0.1464
 7027W        W11078   5.035   1.643   4.874 -0.1595  0.3039 -0.2125
 7028W        W11079   1.970   2.201   9.285  0.1451 -0.0766  0.2141
 7029W        W11080   6.174   7.353  11.621  0.0387  0.0183  0.1047
 7030W        W11081   4.973   7.548   4.434  0.0109 -0.2285 -0.1472
 7031W        W11082   3.479   2.901  12.597 -0.0467  0.0457 -0.0398
 7032W        W11083   2.425   8.770  13.476 -0.1601 -0.0689  0.0333
 7033W        W11084   3.653   4.752   2.412 -0.0552 -0.1953  0.1365
 7034W        W11085   6.244   5.584   2.719 -0.1827 -0.2072 -0.2802
 7035W        W11086   1.067   4.150   0.789 -0.4029 -0.0188 -0.1494
 7036W        W11087   0.883   7.982   2.493  0.1856 -0.0501  0.2782
 7037W        W11088   5.495   2.538   4.412  0.0375  0.2628  0.1050
 7038W        W11089   6.642   1.989   1.307 -0.0844 -0.0656 -0.0949
 7039W        W11090   6.478   0.836  12.909 -0.0705 -0.1840 -0.0843
 7040W        W11091   2.367   6.789   1.934 -0.1100  0.1426  0.2051
 7041W        W11092   8.645   1.281  10.470  0.1186  0.0079  0.3779
 7042W        W11093   4.666   5.813  13.225 -0.1819 -0.0116 -0.0636
 7043W        W11094   6.531   3.720   1.419  0.0384 -0.2839  0.2087
 7044W        W11095   1.084   9.163  12.916 -0.1942 -0.0685 -0.2770
 7045W        W11096   4.806   4.086  10.331  0.1217  0.0310 -0.1416
 7046W        W11097   7.318   7.070   0.512 -0.3012  0.3279 -0.2050
 7047W        W11098   1.090   5.920  11.278 -0.2017  0.0769  0.2129
 7048W        W11099   8.689   5.476  11.437 -0.1901 -0.0701 -0.2358
 7049W        W11100   5.628   6.030  12.094 -0.2317  0.0671 -0.1359
 7050W        W11101   9.816   6.578  12.329 -0.0428  0.3883 -0.0111
 7051W        W11102   8.271   8.846   3.346 -0.3498 -0.2050  0.0587
 7052W        W11103   8.786   6.728  10.682 -0.1132 -0.1704  0.3542
 7053W        W11104   3.346   3.201   0.908  0.1832 -0.1273 -0.0826
 7054W        W11105   5.517   8.235   5.611  0.1321 -0.1622 -0.1470
 7055W        W11106   1.010   9.123  12.035  0.0262 -0.1865 -0.2356
 7056W        W11107   6.327   4.272  13.204  0.1240 -0.2860  0.0600
 7057W        W11108   0.985   5.451  13.518 -0.0093 -0.1648 -0.2475
 7058W        W11109   9.132   5.351   8.878 -0.0089 -0.1138  0.0948
 7059W        W11110   4.518   6.743  11.606 -0.0024  0.0114 -0.2110
 7060W        W11111   7.243   7.649  12.368  0.0663 -0.1591  0.2101
 7061W        W11112   4.374   6.560   9.673 -0.3592  0.0614 -0.1677
 7062W        W11113   5.893   1.507   2.829 -0.0157 -0.1302 -0.3706
 7063W        W11114   6.636   0.370   3.525  0.0504  0.1195 -0.2073
 7064W        W11115   8.308   4.322   1.809  0.0820  0.0126 -0.0360
 7065W        W11116   3.356   4.570  13.583 -0.0864 -0.2125 -0.0342
 7066W        W11117   9.328   9.551   4.214  0.1000 -0.2137 -0.1914
 7067W        W11118   0.213   2.119   9.915  0.0294 -0.0010  0.0601
 7068W        W11119   1.810   7.168  13.485  0.0969  0.3230 -0.1535
 7069W        W11120   7.563   0.946   1.369 -0.1849  0.3542  0.0275
 7070W        W11121   8.893   7.867   3.396 -0.0975  0.2336  0.0950
 7071W        W11122   5.942   8.140   5.383  0.0874  0.1161 -0.1825
 7072W        W11123   9.649   7.417   9.753 -0.1450  0.0448 -0.2648
 7073W        W11124   8.464   2.361  12.234 -0.1214 -0.0579 -0.0654
 7074W        W11125   6.143   3.553   4.941  0.2450  0.2578 -0.0710
 7075W        W11126   1.866   3.741   5.054 -0.0053  0.0719  0.1685
 7076W        W11127   5.373   5.649   9.720 -0.0759  0.2751  0.2068
 7077W        W11128   4.125   3.774   0.604 -0.2134 -0.4709 -0.3615
 7078W        W11129   6.035   6.007  13.227  0.0102  0.1181  0.1244
 7079W        W11130   9.594   5.996  10.501  0.1086 -0.3631  0.0178
 7080W        W11131   6.842   7.148   9.558 -0.0000 -0.0931 -0.1358
 7081W        W11132   6.350   7.665   3.984 -0.0841  0.0655  0.2027
 7082W        W11133   9.872   7.654  13.693 -0.1874  0.0766  0.1351
 7083W        W11134   1.201   7.750   1.965  0.1571  0.0154  0.0298
 7084W        W11135   1.036   9.335  14.022  0.4148 -0.0074 -0.2741
 7085W        W11136   3.621   4.328  12.550 -0.1278  0.1347 -0.0383
 7086W        W11137   3.254   1.288  12.944  0.3909  0.2411 -0.0526
 7087W        W11138   6.805   2.349   0.972 -0.1423 -0.0712  0.1593
 7088W        W11139   2.049   4.061   0.509 -0.0780 -0.0300 -0.1778
 7089W        W11140   2.054   4.773  10.936  0.1081 -0.2015  0.1339
 7090W        W11141   4.783   8.014   4.308 -0.0019  0.1896 -0.1546
 7091W        W11142   1.943   3.248   4.537  0.1210 -0.0320 -0.0967
 7092W        W11143   9.806   0.184  13.580 -0.0126  0.0462 -0.2493
 7093W        W11144   6.092   0.075   4.383 -0.0791 -0.0824  0.1167
 7094W        W11145   4.856   8.593  11.950  0.2560  0.2894  0.0456
 7095W        W11146   6.247   6.924   8.883  0.0296 -0.0916  0.1735
 7096W        W11147   0.097   2.316   3.344 -0.2358 -0.2721  0.1235
 7097W        W11148   9.562   4.824   0.477 -0.3973  0.1696 -0.1378
 7098W        W11149   9.386   7.545  12.956 -0.3547  0.1364  0.0211
 7099W        W11150   9.151   0.745   3.345  0.0641  0.1182 -0.2315
 7100W        W11151   8.489   2.819  11.901 -0.2008  0.0582 -0.1516
 7101W        W11152   5.759   0.415   1.430  0.2858 -0.0381 -0.1374
 7102W        W11153   7.523   5.156  13.531  0.0864 -0.0679  0.3037
 7103W        W11154   4.084   8.168   2.868 -0.3856  0.1713 -0.3057
 7104W        W11155   6.212   0.743   9.667  0.1435  0.0177 -0.0286
 7105W        W11156   9.083  10.109  13.133 -0.0338  0.2819  0.1757
 7106W        W11157   9.917   8.988   4.479  0.0247  0.0830  0.0927
 7107W        W11158   2.941   4.165   8.470  0.0981 -0.0904  0.0985
 7108W        W11159   7.861   9.938   1.137 -0.0598 -0.2833  0.2635
 7109W        W11160   0.318   4.688  10.031 -0.0354 -0.1074 -0.3934
 7110W        W11161   5.069   6.860  11.763 -0.2726 -0.2560 -0.0061
 7111W        W11162   0.320   3.138  13.012 -0.3926 -0.1910 -0.0960
 7112W        W11163   2.906   9.328   3.346  0.2268 -0.2962 -0.1361
 7113W        W11164  10.160   3.579   9.985 -0.2935 -0.1354 -0.2477
 7114W        W11165   3.716   4.949  12.687 -0.1195 -0.0773 -0.0306
 7115W        W11166   0.466   7.033   0.682  0.2944 -0.2818  0.1417
 7116W        W11167   4.175   8.747  13.612  0.1089  0.1596  0.0139
 7117W        W11168   1.194   5.560   1.030  0.1949 -0.1495 -0.0726
 7118W        W11169   7.662   7.869  13.957  0.0198 -0.0473 -0.0498
 7119W        W11170   2.153   4.973   2.448  0.0189  0.2358  0.2154
 7120W        W11171   5.002   7.873  11.906 -0.0987  0.0233  0.0940
 7121W        W11172   3.905   2.772   2.805 -0.1736  0.0445 -0.0513
 7122W        W11173   1.128   6.522   1.016 -0.1049  0.1987  0.2832
 7123W        W11174   4.339   5.356   3.986 -0.1433 -0.2076  0.1722
 7124W        W11175   4.499   4.165   0.932 -0.0251  0.1944  0.1445
 7125W        W11176   6.060   5.776  11.827  0.0450  0.1166  0.0859
 7126W        W11177   2.467   7.852  13.887  0.2378  0.0215 -0.4203
 7127W        W11178   4.384   7.976  11.384  0.3555  0.2332  0.0134
 7128W        W11179   5.307   7.146  13.638 -0.0258  0.0444 -0.0395
 7129W        W11180   9.293   1.116   3.032  0.1103 -0.0304  0.0059
 7130W        W11181   5.170   1.448  11.986 -0.1448  0.2189  0.0901
 7131W        W11182   4.228   4.752   4.536 -0.1160 -0.2344 -0.0057
 7132W        W11183   3.659   1.479   5.312 -0.2382 -0.1983 -0.0111
 7133W        W11184   1.866   8.090  11.540 -0.0854 -0.1945 -0.0462
 7134W        W11185   1.735   5.401   4.128 -0.0380 -0.6764 -0.0178
 7135W        W11186   8.315   7.407   0.149 -0.0738  0.1103  0.2268
 7136W        W11187   2.547   1.831   4.296  0.1464  0.0559 -0.0963
 7137W        W11188   2.321   0.448  12.530  0.1760  0.3093 -0.2812
 7138W        W11189   9.210   9.282  10.301  0.0284 -0.1502 -0.2833
 7139W        W11190   3.422   3.071   2.006  0.0004 -0.1800  0.0168
 7140W        W11191   2.238   5.193   9.588 -0.1175  0.1496  0.3691
 7141W        W11192   4.714   0.103  10.884  0.0141  0.0985 -0.2125
 7142W        W11193   1.726   3.767   3.688 -0.0530  0.0603 -0.3717
 7143W        W11194   6.322   6.183   8.591  0.2335 -0.1815  0.1042
 7144W        W11195   3.349   1.152   0.429 -0.3443  0.0382 -0.1533
 7145W        W11196   9.774   3.593   5.129  0.0269  0.1301  0.1929
 7146W        W11197   5.962   4.054   9.903  0.0869 -0.0712  0.0416
 7147W        W11198   0.071   5.662  12.345  0.1309 -0.4308  0.2056
 7148W        W11199   2.937   1.021   4.367  0.3464 -0.2683  0.1012
 7149W        W11200   7.807   2.921  14.014 -0.0232 -0.1567 -0.0841
 7150W        W11201  10.083   9.374   3.793  0.1411  0.4090  0.0025
 7151W        W11202   0.756   7.580  13.929 -0.3098 -0.2148  0.0811
 7152W        W11203   8.274  10.131   3.527  0.0842 -0.3495  0.4838
 7153W        W11204   6.980   5.123  11.666 -0.1407 -0.0691  0.1069
 7154W        W11205   2.667   5.822   3.908 -0.4204 -0.0871  0.2079
 7155W        W11206   9.619   3.280   8.600  0.1001 -0.0389 -0.2547
 7156W        W11207   2.335   1.279  11.129 -0.1319 -0.4021  0.0243
 7157W        W11208   6.851   4.883  12.391  0.2297  0.1006 -0.2413
 7158W        W11209   2.726   1.300   0.949 -0.5095 -0.0857  0.3847
 7159W        W11210   6.758   3.687   2.319 -0.1709 -0.0093 -0.1654
 7160W        W11211   0.433   2.765   0.477 -0.5102 -0.1398 -0.3086
 7161W        W11212   7.068   4.854   9.030  0.1572 -0.2720 -0.0702
 7162W        W11213   3.367   4.849   0.210 -0.0675  0.2937  0.0777
 7163W        W11214   1.797   4.091  13.990  0.0747  0.1370 -0.1802
 7164W        W11215   1.215   9.850  13.077 -0.1429  0.1068 -0.1076
 7165W        W11216   7.256   7.612   0.824 -0.1319 -0.1052 -0.0951
 7166W        W11217   3.404   3.895   4.911  0.0587 -0.2886  0.3528
 7167W        W11218   9.336   8.464   0.483  0.1406 -0.3362 -0.2077
 7168W        W11219   0.692   3.818  10.589  0.1346  0.1742  0.1349
 7169W        W11220   0.556   0.389   1.143 -0.0542  0.2199 -0.1212
 7170W        W11221   9.847   4.272  13.314  0.2002 -0.1106  0.0072
 7171W        W11222   0.316   4.311  11.643 -0.0219 -0.0459  0.0797
 7172W        W11223   8.649   2.845  10.919 -0.0583  0.1869  0.2441
 7173W        W11224   8.780   4.704   0.551  0.3821 -0.2243 -0.1752
 7174W        W11225   2.611   2.797   3.223  0.2280  0.0951 -0.1103
 7175W        W11226   2.094  10.008   2.923  0.4163  0.3203  0.0900
 7176W        W11227   6.373   4.738   3.305  0.0704 -0.0092  0.1306
 7177W        W11228   4.086   0.282  13.564  0.3577  0.2198  0.1455
 7178W        W11229   7.728   8.282   1.705 -0.0024 -0.0899  0.0023
 7179W        W11230   3.176   0.878   1.992 -0.0221 -0.0179  0.3634
 7180W        W11231   2.108   2.653   3.195  0.2474 -0.1027  0.2095
 7181W        W11232   8.968   3.349  10.428  0.0001  0.3578 -0.0550
 7182W        W11233   1.989   1.077   1.233 -0.4258  0.3518  0.3991
 7183W        W11234   7.017   7.453   8.708  0.1364  0.2005 -0.1712
 7184W        W11235   5.612   6.668   9.690  0.0491  0.0476  0.1463
 7185W        W11236   7.902   5.126  10.128 -0.0939 -0.0086  0.3055
 7186W        W11237   0.781  10.115   2.775  0.3794 -0.1368  0.2050
 7187W        W11238   8.733   7.769  11.614  0.1213 -0.0564 -0.0994
 7188W        W11239   6.848   8.432   2.884  0.3769 -0.0275 -0.0425
 7189W        W11240   8.054   1.082   0.499  0.2131  0.0539  0.0890
 7190W        W11241   6.190   5.621  13.756 -0.1027 -0.1295  0.0650
 7191W        W11242   8.854   9.627   9.985 -0.0828  0.0537  0.2962
 7192W        W11243   7.874   6.763  10.948  0.2803 -0.0995 -0.1680
 7193W        W11244   4.360   9.925  12.029  0.0081 -0.2331  0.1803
 7194W        W11245   4.261   6.391  10.562 -0.1910 -0.1074 -0.1203
 7195W        W11246   2.585   1.660  13.628 -0.0537  0.0873 -0.3212
 7196W        W11247   5.292   4.208   2.312  0.1620  0.1025  0.1765
 7197W        W11248   2.134   5.863  12.325 -0.1731 -0.1814 -0.1803
 7198W        W11249   7.289   6.228  10.982 -0.3447 -0.1088  0.2124
 7199W        W11250   4.917   4.492   1.154 -0.3436 -0.0161  0.1430
 7200W        W11251   9.544   4.233  10.614 -0.1316 -0.1180  0.1879
 7201W        W11252   0.327   2.399  12.560 -0.1119  0.1628  0.0614
 7202W        W11253   7.195   1.175  11.023 -0.0756 -0.1733  0.2071
 7203W        W11254   6.068   1.617  12.392  0.1044  0.0930  0.0174
 7204W        W11255   8.740   7.826   5.513  0.2222 -0.1064 -0.0447
 7205W        W11256   2.150   2.758   4.400 -0.0085  0.1270  0.1868
 7206W        W11257   8.431   1.635   4.673 -0.0213 -0.0198 -0.1460
 7207W        W11258  10.139   0.960  12.253 -0.1346  0.0380  0.1081
 7208W        W11259   6.125   6.775  13.091 -0.0148 -0.1405  0.2148
 7209W        W11260   0.272   1.335  11.069  0.3565  0.1185 -0.1704
 7210W        W11261   4.787   8.186   1.826 -0.2022 -0.2601 -0.2208
 7211W        W11262   8.700   5.959   0.354 -0.0926 -0.4310 -0.1081
 7212W        W11263   6.743   4.506   2.034 -0.1698  0.4842 -0.1598
 7213W        W11264  10.011   0.680   1.385  0.2399  0.0134 -0.0912
 7214W        W11265   9.195   6.593   0.468  0.1228  0.1471  0.1080
 7215W        W11266   6.949   7.422  12.022  0.0008 -0.1069  0.2024
 7216W        W11267   4.375   4.317  10.062  0.3725 -0.3157 -0.2532
 7217W        W11268   1.966   2.067   0.124 -0.2335 -0.0785 -0.1408
 7218W        W11269   2.530   8.369  10.429 -0.0717 -0.1284 -0.1394
 7219W        W11270   5.131   7.292  10.031  0.1245  0.0839 -0.0375
 7220W        W11271   8.847   3.954  13.492 -0.1916 -0.3918 -0.5975
 7221W        W11272   2.992   6.422   0.343 -0.2558  0.0981 -0.1926
 7222W        W11273   8.457   3.050  12.429  0.1033  0.0435  0.1948
 7223W        W11274   3.640   3.469   9.375 -0.0513  0.2930 -0.3541
 7224W        W11275   5.430   7.369  13.049  0.2730 -0.3357  0.1147
 7225W        W11276   8.361   1.760  10.523 -0.4987  0.2541 -0.1367
 7226W        W11277   2.923   9.792   4.143 -0.0137 -0.0749 -0.0580
 7227W        W11278   7.681   4.269   3.228  0.1513 -0.1456  0.6444
 7228W        W11279   3.015   4.281   3.990  0.0751  0.1046  0.0669
 7229W        W11280   4.679   3.807  11.955  0.1360 -0.4657  0.0368
 7230W        W11281   5.502  10.014   9.974 -0.0015 -0.0043  0.0744
 7231W        W11282   3.151   5.996   1.736 -0.2602  0.1126  0.2436
 7232W        W11283   3.163   7.346  13.894 -0.2336 -0.0115  0.3971
 7233W        W11284   0.749   2.108   4.510 -0.0452  0.0335 -0.0801
 7234W        W11285   1.940   1.097  10.859 -0.1222 -0.0182  0.0667
 7235W        W11286   7.521   9.571  10.935 -0.0720 -0.1696  0.0878
 7236W        W11287   7.950   0.614  11.314 -0.2367  0.2338  0.0014
 7237W        W11288   7.808   3.815  10.097 -0.2136 -0.0511 -0.0190
 7238W        W11289   4.474   7.225   0.018  0.0189 -0.1671  0.1244
 7239W        W11290   8.790   2.777   3.571 -0.1921 -0.0919  0.1930
 7240W        W11291   0.266   9.658   2.609 -0.2480  0.1714 -0.1638
 7241W        W11292   2.892   0.287  12.515 -0.2974  0.1084  0.1103
 7242W        W11293   5.542   0.133  11.166  0.2397  0.2783 -0.0968
 7243W        W11294   8.474   7.378  12.356 -0.4090  0.0518 -0.1627
 7244W        W11295   4.017   1.809   2.635  0.0521  0.3564 -0.2368
 7245W        W11296   4.972   2.588   2.651  0.1334 -0.0687  0.1920
 7246W        W11297   7.346   8.005   9.718 -0.0883  0.1832  0.1825
 7247W        W11298   8.510   5.891   4.294 -0.4309 -0.1795 -0.0104
 7248W        W11299   0.054   5.019   1.027 -0.0065 -0.3427  0.0809
 7249W        W11300   4.946   5.729  11.184 -0.1415 -0.1407  0.1275
 7250W        W11301   1.384   7.962   0.500  0.3483 -0.0448 -0.0947
 7251W        W11302   9.310   6.399  11.146  0.0333  0.1122  0.0580
 7252W        W11303   8.383   8.944  13.639 -0.1654  0.0565 -0.2641
 7253W        W11304   3.852   3.927  13.775  0.0820  0.1778  0.1746
 7254W        W11305   5.014   5.033  10.258 -0.0186  0.1638 -0.1597
 7255W        W11306   5.415   9.091   5.125  0.2286  0.1963 -0.0886
 7256W        W11307   1.803   6.738   4.330  0.0642 -0.0831 -0.1331
 7257W        W11308   3.961   8.782  10.302 -0.1866  0.3192  0.0037
 7258W        W11309   0.143   5.535   1.242  0.1393  0.0532  0.0348
 7259W        W11310   4.297   1.066  12.326  0.0108 -0.2426  0.0276
 7260W        W11311   4.041   3.539  10.555 -0.2263 -0.0994  0.0049
 7261W        W11312   5.708   5.369   3.416 -0.0781 -0.6837  0.0737
 7262W        W11313   4.300   3.568   4.649 -0.3481  0.0453 -0.0894
 7263W        W11314   5.355   0.720   4.740  0.1668 -0.1362  0.0868
 7264W        W11315   4.597   6.193   2.128  0.0394 -0.0321  0.1847
 7265W        W11316   1.185   4.510   9.985  0.0079 -0.1521  0.1034
 7266W        W11317   8.613   4.327   2.186 -0.3878  0.1512  0.0499
 7267W        W11318   4.343   5.853   4.233  0.0239  0.2351 -0.1829
 7268W        W11319   2.639   6.228  11.705  0.1791  0.1303  0.1871
 7269W        W11320   1.181   2.159   3.106  0.1494  0.2393 -0.0245
 7270W        W11321   0.597   4.279  10.330 -0.0910  0.1725 -0.0052
 7271W        W11322   4.173   3.515  13.279  0.0047 -0.0237 -0.1030
 7272W        W11323   3.746   5.468   4.482  0.0252  0.1110 -0.1793
 7273W        W11324  10.056   4.177   0.761 -0.1048  0.0802 -0.0857
 7274W        W11325   0.069   4.044   8.611 -0.0315 -0.3315  0.0242
 7275W        W11326   3.461   3.406  12.690 -0.1556  0.1667  0.0041
 7276W        W11327   8.943   1.112   4.525  0.0126  0.0698  0.1404
 7277W        W11328   1.984   5.767  13.407 -0.2331 -0.2577  0.0129
 7278W        W11329   2.769   8.044  10.785  0.0727  0.0164  0.3085
 7279W        W11330   3.163   9.324  12.903  0.3220  0.1286 -0.2378
 7280W        W11331   5.957   4.743   2.682 -0.3055 -0.0080 -0.0928
 7281W        W11332   7.390   0.022   0.915  0.0050  0.2611 -0.1264
 7282W        W11333   6.009   9.790  11.817 -0.0177  0.1997 -0.0759
 7283W        W11334   3.029   7.656   4.330  0.1886  0.2109 -0.1323
 7284W        W11335   7.686   2.471   4.802 -0.3095  0.1294 -0.0226
 7285W        W11336   5.724   1.738   2.432 -0.3152 -0.0389  0.0350
 7286W        W11337   1.872   6.527   1.790 -0.0979 -0.1191 -0.4145
 7287W        W11338   0.992   2.123  10.049 -0.5074  0.0035 -0.2381
 7288W        W11339   6.397   1.913   0.871  0.1982 -0.0716 -0.0495
 7289W        W11340   2.021   0.276  11.254 -0.0372 -0.2134 -0.0122
 7290W        W11341   5.953   1.365  13.559 -0.0034 -0.1933  0.1130
 7291W        W11342   6.020   7.857   0.860  0.0044 -0.0964 -0.1785
 7292W        W11343   5.257   7.905   4.050 -0.3346 -0.1450  0.3650
 7293W        W11344   9.079   5.132   0.368  0.1904  0.1465  0.3656
 7294W        W11345   4.260   9.422   0.812 -0.2122 -0.1823 -0.0279
 7295W        W11346   7.992   7.040  11.379  0.2677  0.0992 -0.1553
 7296W        W11347   2.762   7.852   9.593 -0.2415  0.2987 -0.0074
 7297W        W11348   6.431   3.907   9.507 -0.1550  0.2381  0.1959
 7298W        W11349   2.289   3.573  11.388 -0.5101 -0.1592 -0.2812
 7299W        W11350   1.255   2.348  13.227 -0.2075  0.2515 -0.0189
 7300W        W11351   7.433   4.121   2.552  0.0183  0.2867  0.0080
 7301W        W11352   0.246   2.321  13.385  0.0672 -0.2436  0.0718
 7302W        W11353   1.389   9.672  11.176 -0.2840 -0.2159  0.3832
 7303W        W11354   1.284   3.895   3.598  0.1322 -0.0046 -0.2621
 7304W        W11355   6.590   7.466  12.819 -0.2253 -0.0827  0.2798
 7305W        W11356   2.220   5.365  12.594  0.1362  0.0186 -0.0926
 7306W        W11357   6.013   5.448   3.838  0.1581  0.3392 -0.2245
 7307W        W11358   4.796   5.690   1.924  0.1575  0.3850 -0.1898
 7308W        W11359   5.914  10.022  11.228  0.0217  0.1959  0.1744
 7309W        W11360   3.030   3.428   4.444  0.0885  0.1478  0.0857
 7310W        W11361   7.534   3.638   9.246 -0.3486  0.2409 -0.2947
 7311W        W11362   4.982   3.430  11.784  0.0151 -0.3129 -0.1544
 7312W        W11363   7.629   3.866  13.072  0.2534 -0.0468 -0.0606
 7313W        W11364   8.152   4.834   1.602  0.0137 -0.0771 -0.0781
 7314W        W11365   8.962   9.612   5.370 -0.0532 -0.1486  0.2660
 7315W        W11366   6.940   5.020  11.027  0.2554 -0.1157 -0.0162
 7316W        W11367   0.141  10.010   9.968  0.1246  0.0995  0.1364
 7317W        W11368   8.778   1.871   1.034  0.2015  0.0582  0.1799
 7318W        W11369   1.753   1.444   4.099  0.4037 -0.0878  0.3584
 7319W        W11370   5.771   5.411   2.869 -0.1858 -0.2731 -0.3027
 7320W        W11371   7.235   6.280   0.460 -0.1477  0.2124  0.0024
 7321W        W11372   6.625   8.225  12.847  0.0302 -0.1296 -0.1534
 7322W        W11373   5.457   7.337   2.486  0.0878 -0.1189 -0.0009
 7323W        W11374   9.701   0.270  12.248 -0.0993 -0.2393 -0.1223
 7324W        W11375   5.287   6.549  10.546 -0.3195  0.0117  0.2246
 7325W        W11376   6.032   8.867   8.849 -0.1404 -0.0405  0.5268
 7326W        W11377  10.159   2.036  12.897 -0.0926 -0.2774  0.0408
 7327W        W11378   8.959   0.256  10.293  0.1182 -0.0740  0.4545
 7328W        W11379   5.248   1.079  12.286 -0.3179  0.0721 -0.0127
 7329W        W11380   1.804   6.256   1.380  0.0226 -0.0045  0.0464
 7330W        W11381   2.946   3.027   1.563  0.0339 -0.2279 -0.0875
 7331W        W11382   5.286   6.135  11.225  0.0824  0.1098  0.3850
 7332W        W11383   8.718   9.082   0.666  0.0112 -0.0884 -0.2845
 7333W        W11384   3.948   4.021  13.216  0.2790  0.5172  0.2893
 7334W        W11385   8.271   4.944  10.958 -0.0366  0.0001 -0.0075
 7335W        W11386   6.881   8.500  13.182 -0.1595  0.2731 -0.1983
 7336W        W11387   2.269   9.876  12.026  0.3451 -0.0905  0.2808
 7337W        W11388   1.779   8.592  14.016  0.0745 -0.1961 -0.0039
 7338W        W11389   4.591   2.149  10.205  0.0873  0.1495  0.1980
 7339W        W11390   2.916   8.939   2.572  0.2071 -0.0816 -0.0185
 7340W        W11391   8.480   1.620   1.960  0.0105 -0.0627  0.2039
 7341W        W11392   8.603   7.512   3.056 -0.1532 -0.2698 -0.0866
 7342W        W11393   5.366   9.357   9.657 -0.0314 -0.1866  0.0278
 7343W        W11394   9.329   4.480   9.484  0.0502 -0.1943  0.0263
 7344W        W11395   2.297   7.358   1.843 -0.2901 -0.1619 -0.1003
 7345W        W11396   3.070   0.008   1.124  0.1544  0.0077 -0.1159
 7346W        W11397   5.688   1.551  12.124  0.0310  0.2078 -0.0129
 7347W        W11398   8.758   8.424   4.575  0.0922 -0.1642 -0.0979
 7348W        W11399   9.188   9.895   3.375 -0.1113 -0.0785 -0.0478
 7349W        W11400   9.170   1.515  13.821 -0.0653 -0.0669 -0.2736
 7350W        W11401   7.746   9.282   2.861 -0.2502 -0.0983 -0.1029
 7351W        W11402  10.027   5.020   0.075 -0.0442 -0.0279 -0.1662
 7352W        W11403   2.916   4.938  10.242 -0.1091  0.4172 -0.3160
 7353W        W11404   3.705   5.147   2.736 -0.1333  0.4473 -0.0610
 7354W        W11405   7.414   3.630  11.770  0.0517  0.1322 -0.1922
 7355W        W11406   6.218   7.319  13.652 -0.3063 -0.1710 -0.0665
 7356W        W11407   9.865  10.001  12.193  0.1278 -0.1450 -0.0514
 7357W        W11408   9.498   5.600  12.843  0.1485  0.5670  0.0277
 7358W        W11409   9.129   1.626   9.681 -0.0509 -0.1015  0.0674
 7359W        W11410   9.631   8.248  10.139  0.0706 -0.1231 -0.1037
 7360W        W11411   1.706   1.509  12.304 -0.1796  0.0353 -0.0641
 7361W        W11412   8.565   4.431   3.487 -0.2631  0.0614 -0.0688
 7362W        W11413   8.007   0.726   1.310 -0.1243 -0.1030  0.1658
 7363W        W11414   9.051   4.352  10.566 -0.3207  0.0520  0.4497
 7364W        W11415   7.801   4.016   9.483 -0.0344  0.1498 -0.3200
 7365W        W11416   2.931   5.146   2.326 -0.0188  0.0506  0.2749
 7366W        W11417   2.476   8.368   8.084  0.0055  0.0605  0.1243
 7367W        W11418   4.895   9.058   2.001  0.3152  0.3835 -0.1423
 7368W        W11419   9.142   0.341   2.004 -0.0438 -0.0780 -0.1630
 7369W        W11420   3.779   0.154  10.595 -0.1413  0.1922  0.0754
 7370W        W11421   2.069   7.936  13.514 -0.1400  0.0298  0.1012
 7371W        W11422   4.082   5.308   0.764 -0.0636 -0.1572 -0.2273
 7372W        W11423   2.858   6.521   0.831 -0.1673  0.0414  0.0478
 7373W        W11424   3.695   2.412   0.880  0.1562  0.0985  0.0064
 7374W        W11425   4.706   6.843   2.593  0.1452 -0.0913 -0.2363
 7375W        W11426   2.792   9.547  11.189  0.0119 -0.1093 -0.3138
 7376W        W11427   9.184   8.891   2.687 -0.1395 -0.0896  0.1166
 7377W        W11428   3.376   1.107  12.444  0.1606  0.0185  0.1721
 7378W        W11429   4.723   9.711   5.055 -0.0567  0.1213 -0.1562
 7379W        W11430   5.993   9.806   0.116 -0.0338 -0.1370 -0.1358
 7380W        W11431   5.311   5.331   0.933  0.2996  0.1645  0.0304
 7381W        W11432   5.761   0.825   2.355  0.2208  0.1953  0.0065
 7382W        W11433   5.284   6.524   3.903  0.2673 -0.1777  0.1004
 7383W        W11434   4.484   4.688   3.119 -0.1122  0.2907 -0.2198
 7384W        W11435   7.694   1.993   0.633  0.0071 -0.1112  0.2899
 7385W        W11436   6.341   5.179   1.702 -0.2994  0.0118  0.1408
 7386W        W11437   0.919   1.974  11.335 -0.0427  0.3161 -0.2079
 7387W        W11438   9.566   2.795   0.498 -0.2573 -0.0290  0.0972
 7388W        W11439   6.169   3.248  12.876 -0.1508 -0.1211 -0.1623
 7389W        W11440   4.702   3.790   0.456  0.0805 -0.2559 -0.4206
 7390W        W11441   5.026   7.117  12.211 -0.0972 -0.3976  0.1874
 7391W        W11442   7.284   0.013   9.197 -0.3135 -0.2048 -0.0472
 7392W        W11443   0.908   5.328   4.764  0.1619 -0.0716 -0.0486
 7393W        W11444   2.200   3.498   3.635 -0.0118  0.1675 -0.2132
 7394W        W11445   5.904   9.709  12.585 -0.2311 -0.2076  0.0114
 7395W        W11446   6.320   5.116   1.177  0.1437 -0.3106 -0.1313
 7396W        W11447   5.327   1.705  11.444  0.1322 -0.0660  0.0906
 7397W        W11448   7.192   3.133   4.152 -0.1598 -0.1543 -0.0047
 7398W        W11449   2.093   8.690   3.679  0.0275  0.1466 -0.0375
 7399W        W11450   5.761   8.350  11.730  0.0815  0.0729  0.3592
 7400W        W11451   4.529   9.380  10.745 -0.0993 -0.3846 -0.2392
 7401W        W11452   7.335   2.598  11.256  0.2332 -0.0799 -0.1454
 7402W        W11453   0.097   0.812  11.205  0.0753 -0.0732  0.0295
 7403W        W11454   0.633   4.459   0.903  0.2762 -0.1192 -0.3133
 7404W        W11455   0.422   5.165   1.350  0.1508  0.1362  0.2351
 7405W        W11456   5.864   9.539  11.411 -0.3306 -0.1317  0.0160
 7406W        W11457   3.964   0.870  11.574 -0.0803 -0.0549  0.0415
 7407W        W11458   4.986   8.729  12.558  0.1433 -0.2377  0.0170
 7408W        W11459   0.051   2.921   1.707  0.0957 -0.1932 -0.2457
 7409W        W11460   8.962   1.269  10.054  0.1791 -0.0189 -0.0412
 7410W        W11461   1.989   6.902  12.059  0.1786  0.0853 -0.1144
 7411W        W11462   1.494   5.841   4.937 -0.2164 -0.1524  0.4155
 7412W        W11463   4.146   2.303   3.082 -0.0873  0.0095  0.1271
 7413W        W11464   9.344   8.377  10.513  0.0576  0.1998  0.0133
 7414W        W11465   3.777   3.455   2.927  0.2741 -0.1354 -0.2458
 7415W        W11466   1.970   4.706   3.673  0.2749 -0.1025 -0.0003
 7416W        W11467   2.513   1.964  11.931 -0.0328 -0.2190  0.1155
 7417W        W11468   3.019   4.515   9.861 -0.2165 -0.0563 -0.3812
 7418W        W11469   2.074   7.159   3.492  0.0657  0.1030 -0.0352
 7419W        W11470   0.004   0.356   1.774 -0.3547 -0.2165  0.2291
 7420W        W11471   3.376   7.750  11.012 -0.2261  0.1882  0.1380
 7421W        W11472   4.356   3.273   1.392 -0.1062 -0.0368  0.2408
 7422W        W11473   4.685   7.944   2.798 -0.1132  0.2205  0.1389
 7423W        W11474   0.259   0.797   1.609 -0.0630 -0.0036 -0.1684
 7424W        W11475   0.965   6.329   1.558  0.2115 -0.1304  0.1510
 7425W        W11476   1.961   3.887   1.777  0.1329  0.0449  0.0713
 7426W        W11477   4.348   6.581  12.817  0.2326  0.1333 -0.2675
 7427W        W11478   4.997   0.878  13.094 -0.1943 -0.1760  0.0420
 7428W        W11479   4.376   5.465  11.640  0.0828 -0.1078  0.2944
 7429W        W11480   0.977   0.829   0.954 -0.0726  0.2476  0.1086
 7430W        W11481   6.451   6.036   1.928 -0.0262  0.1500  0.0979
 7431W        W11482   3.993   1.318  11.436  0.1258 -0.3957  0.3728
 7432W        W11483   9.628   1.490  13.362  0.0883  0.1724 -0.0132
 7433W        W11484   2.816   8.947  11.245  0.0949 -0.1582  0.1983
 7434W        W11485   7.796   8.579  10.485  0.1786 -0.0673 -0.1449
 7435W        W11486   9.887   8.928   2.664 -0.1579 -0.1917 -0.0256
 7436W        W11487   1.351   0.067   3.954  0.3223 -0.0197  0.5677
 7437W        W11488   0.714   3.259  13.423  0.0145  0.1294 -0.0023
 7438W        W11489   5.981   9.435   0.609  0.0328 -0.1133  0.1925
 7439W        W11490   1.574   3.668  12.056  0.1365 -0.2757 -0.1235
 7440W        W11491   9.033   4.369   1.245  0.1177 -0.0082 -0.1548
 7441W        W11492   5.865   4.366   4.590  0.0862  0.1525  0.2001
 7442W        W11493   7.049   9.779  13.380  0.1314 -0.3056  0.1647
 7443W        W11494   0.380   4.609   1.320 -0.2065 -0.3300 -0.0951
 7444W        W11495   1.930   5.435  12.954 -0.4948 -0.0703 -0.1061
 7445W        W11496   6.965   2.228   2.124 -0.2753  0.0786 -0.1448
 7446W        W11497   8.513   8.123  11.948 -0.1998  0.0027  0.3850
 7447W        W11498   3.066   9.414   1.465 -0.2283 -0.1267 -0.1465
 7448W        W11499   5.719   1.050   5.724 -0.0885  0.1274  0.1754
 7449W        W11500   1.494   6.465  10.333  0.2488  0.1539  0.0689
 7450W        W11501   7.458   9.283  12.144  0.1550  0.1238 -0.0691
 7451W        W11502   2.780   9.125  12.269  0.4238  0.2376  0.2681
 7452W        W11503   0.916   0.158  14.034  0.0634 -0.0881  0.3938
 7453W        W11504   8.433   2.153   1.856 -0.1155  0.0984 -0.1826
 7454W        W11505   2.623   5.202   0.313 -0.0518 -0.2921  0.1879
 7455W        W11506   4.532   1.658  11.973 -0.3812 -0.2400 -0.0757
 7456W        W11507   1.377   6.497  11.160 -0.0255  0.3737 -0.0511
 7457W        W11508   1.287   3.152   1.996  0.4170  0.0989  0.0935
 7458W        W11509   2.581   7.159   0.564  0.1777  0.0314 -0.1635
 7459W        W11510   3.723   4.863   1.908 -0.2879 -0.1216  0.0691
 7460W        W11511   1.214   1.998   5.033  0.2226 -0.2192  0.0997
 7461W        W11512   8.894   2.169   4.314 -0.0823 -0.3673  0.2025
 7462W        W11513   4.584   5.553   0.463  0.0497 -0.0987 -0.0210
 7463W        W11514   2.797   5.642   2.566 -0.1139  0.0321 -0.1435
 7464W        W11515   8.963   7.233  12.521 -0.3340 -0.4914  0.1481
 7465W        W11516   6.826   7.932  10.188 -0.0558 -0.2130  0.0732
 7466W        W11517   5.468   3.341  12.205  0.2481 -0.0555  0.1598
 7467W        W11518   9.678   4.926   1.407 -0.1167 -0.2263  0.4057
 7468W        W11519   6.915   3.576   3.265  0.1855 -0.3537  0.1587
 7469W        W11520   4.890   4.091   4.346 -0.0424 -0.3856  0.2444
 7470W        W11521   0.115   3.036   9.394 -0.0081  0.1466 -0.1252
 7471W        W11522   2.444   7.244  10.532  0.1555 -0.0340  0.1344
 7472W        W11523   2.986   0.064   3.257 -0.1475  0.3327  0.2112
 7473W        W11524   6.168   1.258   0.207 -0.0221 -0.1594  0.1062
 7474W        W11525   6.237   1.187  12.652 -0.2053 -0.0998 -0.2751
 7475W        W11526   5.317   1.118   0.935 -0.0477 -0.4255 -0.1232
 7476W        W11527   5.653   0.544  13.785 -0.0197  0.0893  0.0808
 7477W        W11528   2.562   2.305  12.411  0.1971  0.1040 -0.0258
 7478W        W11529   1.446   4.638   3.855 -0.2323 -0.0524 -0.0320
 7479W        W11530   2.671   5.021  13.062 -0.2120 -0.0956 -0.0816
 7480W        W11531   4.712   5.981   0.139 -0.0225 -0.2438  0.1087
 7481W        W11532   5.176   6.116  12.837  0.0763  0.0186 -0.3240
 7482W        W11533   5.050   8.101  10.690  0.0743  0.0332  0.0993
 7483W        W11534   6.952   3.400   4.969 -0.1014 -0.1349 -0.2956
 7484W        W11535   2.918   6.404   3.683 -0.0881  0.1018 -0.0926
 7485W        W11536   6.944   9.957   1.238  0.1583  0.0293  0.2138
 7486W        W11537   4.133   3.146   3.745 -0.0038 -0.0412 -0.1620
 7487W        W11538   0.214   4.097   4.501 -0.0625 -0.2239  0.0076
 7488W        W11539   2.551   6.924   0.102 -0.1016  0.3259 -0.0179
 7489W        W11540   5.073   2.393   3.614  0.0787  0.0363 -0.1910
 7490W        W11541   8.631   5.026   1.436 -0.0450 -0.0874 -0.1712
 7491W        W11542   5.610   9.977  11.618 -0.1441  0.0568 -0.0938
 7492W        W11543   8.751   4.751   3.122  0.1767  0.3293 -0.1173
 7493W        W11544   3.145   6.242   4.597  0.3019 -0.1055 -0.0942
 7494W        W11545   9.442   5.123   3.650 -0.4224  0.0434 -0.1452
 7495W        W11546   8.347   0.552  11.642  0.1946  0.3183 -0.3082
 7496W        W11547   1.920   9.398   5.795 -0.3114 -0.0155  0.1718
 7497W        W11548   8.562   0.358   2.091 -0.0031 -0.0296  0.0014
 7498W        W11549   0.502   5.560   1.659  0.0490  0.0021  0.0608
 7499W        W11550   6.755   9.702   3.105 -0.3295 -0.0698  0.1752
 7500W        W11551   5.318   7.836  10.034  0.3740 -0.0065 -0.0803
 7501W        W11552   5.210   2.482   4.794 -0.0257 -0.0433  0.0139
 7502W        W11553   6.428   3.575   0.205  0.4098  0.0567 -0.0987
 7503W        W11554   0.685   5.337   3.671  0.1370  0.0984  0.0535
 7504W        W11555   1.451   5.500  11.345  0.3309  0.2560 -0.1584
 7505W        W11556   5.564   0.158  13.426 -0.0470  0.0119  0.0379
 7506W        W11557   2.264   0.002  13.319 -0.1172  0.0396 -0.2661
 7507W        W11558   9.166   6.414   2.967 -0.1252 -0.0645  0.0014
 7508W        W11559   7.182   6.315   3.657  0.1528  0.3323 -0.1841
 7509W        W11560   6.993   6.640   9.061  0.0845  0.1073  0.2203
 7510W        W11561   4.136   0.746  11.987  0.2641 -0.0619 -0.0837
 7511W        W11562   0.282   1.697  12.632  0.3235 -0.1937 -0.0615
 7512W        W11563   1.149   5.455   9.132  0.1413 -0.0814  0.0629
 7513W        W11564   2.145   6.954  10.047 -0.1036 -0.0393  0.1539
 7514W        W11565  10.032   7.306  11.874  0.1683  0.0042 -0.1719
 7515W        W11566   7.810   9.437   2.309  0.0548  0.2213  0.0220
 7516W        W11567   7.535   1.757   1.015  0.4650  0.4268  0.2472
 7517W        W11568   7.803   9.216  11.784  0.0991 -0.1980 -0.0311
 7518W        W11569   4.496   6.036   0.608  0.1345  0.0877 -0.2513
 7519W        W11570   4.989   1.916  12.697 -0.0084  0.3234 -0.3010
 7520W        W11571  10.013   3.446   0.259 -0.1787  0.4946  0.1569
 7521W        W11572   1.222   5.208  12.563  0.0193  0.3255 -0.1565
 7522W        W11573   1.568   4.688  10.871  0.0191  0.0036  0.0989
 7523W        W11574   7.497   9.119  10.631  0.1666  0.2881 -0.0448
 7524W        W11575   9.577   3.398   3.340  0.1138  0.2042  0.2498
 7525W        W11576   3.143   9.590  10.488  0.1901 -0.0554 -0.2020
 7526W        W11577   6.287   2.441  12.800 -0.0494  0.2077 -0.1558
 7527W        W11578   1.048   4.421  12.134  0.0886  0.0375 -0.0800
 7528W        W11579   7.648   2.824   9.446  0.1378 -0.0059  0.2554
 7529W        W11580   2.683   2.849  10.898  0.2161  0.4346  0.0266
 7530W        W11581   0.943   5.439  11.329 -0.1922 -0.0348 -0.3047
 7531W        W11582   1.816   7.598   0.174  0.0755  0.1536 -0.1463
 7532W        W11583   2.271   4.355   9.192  0.0373 -0.0759  0.1327
 7533W        W11584   5.795   2.174  11.570  0.3363 -0.1730  0.1253
 7534W        W11585   9.846   0.445   0.413  0.4806  0.0903 -0.0101
 7535W        W11586   6.123   5.577   0.651  0.1108 -0.0956  0.0868
 7536W        W11587   0.308   2.960   2.144 -0.1327  0.0088  0.4069
 7537W        W11588   0.355   4.200  10.806  0.0809 -0.3446 -0.0331
 7538W        W11589   5.437   5.688  11.031  0.1449 -0.1729 -0.1313
 7539W        W11590   3.390   7.693   9.826 -0.0566 -0.0398  0.2139
 7540W        W11591   2.986   1.914  13.451 -0.3027  0.0749 -0.2590
 7541W        W11592   9.387   0.152   0.802 -0.1665 -0.1553  0.1959
 7542W        W11593   5.238   9.416   3.963  0.3768 -0.3935 -0.2437
 7543W        W11594   8.058   7.357   1.824 -0.4448 -0.1504  0.0900
 7544W        W11595   6.377   2.651   3.236  0.2739  0.0312  0.0395
 7545W        W11596   7.973   6.961   0.007  0.0258  0.0075  0.0549
 7546W        W11597   9.328   1.483   5.202 -0.1111 -0.2269 -0.0204
 7547W        W11598   8.511   5.337   1.806 -0.1331  0.3629 -0.0027
 7548W        W11599   7.720   4.837  13.195 -0.0129  0.0739  0.1480
 7549W        W11600   0.850   0.351  11.214 -0.0015 -0.2147  0.1904
 7550W        W11601   8.897   3.947   5.457  0.1482 -0.1193 -0.0488
 7551W        W11602   1.032   4.917   1.804  0.0879  0.0424  0.0747
 7552W        W11603   7.330   0.882  13.961  0.3475  0.0464  0.0628
 7553W        W11604   8.333   0.474  12.248  0.1855 -0.0214 -0.0548
 7554W        W11605   6.597   7.713   8.444  0.0200 -0.0552  0.1799
 7555W        W11606   0.979   9.711  13.748  0.1012  0.0501 -0.0890
 7556W        W11607   1.228   5.109   9.546  0.2432  0.2089  0.0567
 7557W        W11608   2.833   4.939  12.152 -0.1807 -0.1315  0.4430
 7558W        W11609   7.354   7.898   4.866 -0.1263 -0.0725  0.0074
 7559W        W11610   2.519   4.297   2.550 -0.3002 -0.1971 -0.0863
 7560W        W11611   6.436   6.545  12.804 -0.0942  0.0477 -0.0207
 7561W        W11612   1.323   7.832   3.220  0.0674  0.0915 -0.2030
 7562W        W11613   4.069   6.648   9.330 -0.0633 -0.2331  0.0932
 7563W        W11614   9.537   0.123  11.706  0.0631 -0.1414  0.0089
 7564W        W11615   9.441   9.531   0.227 -0.2718 -0.0966  0.1472
 7565W        W11616   3.430   3.536  12.047 -0.0345  0.0743  0.1918
 7566W        W11617   3.794   9.151   2.555  0.3356  0.4274 -0.1482
 7567W        W11618   1.858   9.694  11.721 -0.1770  0.1667 -0.1115
 7568W        W11619   9.634   1.972  11.727 -0.0765 -0.0267 -0.0148
 7569W        W11620   1.467   5.432   2.394  0.0668 -0.0709  0.1243
 7570W        W11621   7.703   6.153   0.345 -0.1392 -0.3265  0.0269
 7571W        W11622   8.058   1.115  12.763 -0.0724 -0.0133  0.1742
 7572W        W11623   4.978   9.736  13.183  0.1455  0.3195 -0.3210
 7573W        W11624   1.054   2.524  13.908 -0.0680 -0.0343  0.0629
 7574W        W11625   6.057  10.093  12.861 -0.0815 -0.0068  0.0121
 7575W        W11626   7.484   1.616  12.257  0.1439 -0.1324  0.1403
 7576W        W11627   4.762   8.069   3.818  0.1563  0.3610 -0.0543
 7577W        W11628   0.542   4.210   2.107 -0.1061  0.3553  0.2094
 7578W        W11629   4.063   4.536   3.337  0.0590 -0.1790  0.0359
 7579W        W11630   7.801   1.569  13.873  0.1811  0.1725 -0.1983
 7580W        W11631   9.954   8.927   3.119  0.0250  0.0223  0.0824
 7581W        W11632   3.777   3.261  11.089  0.1288  0.0643 -0.0624
 7582W        W11633   0.259   7.215  11.485  0.2184  0.3384 -0.0618
 7583W        W11634   5.548   1.235  11.714 -0.1104 -0.0327 -0.2207
 7584W        W11635   8.448   6.914  13.951  0.0944  0.3270 -0.1065
 7585W        W11636   2.147   7.163   1.156 -0.3823  0.0462  0.1397
 7586W        W11637   8.487   6.560  11.315 -0.0900 -0.3419  0.0530
 7587W        W11638   5.983   8.617   3.157  0.2961 -0.0998  0.1537
 7588W        W11639   2.012   7.411  10.799  0.0861  0.0995 -0.1682
 7589W        W11640   9.456   1.997   5.052 -0.3411  0.2277 -0.0655
 7590W        W11641   9.737   6.372  14.033 -0.3461 -0.3057  0.2410
 7591W        W11642  10.064   1.318   3.489  0.1511 -0.0821  0.0173
 7592W        W11643   4.788   4.818  10.703 -0.0283 -0.1086 -0.0634
 7593W        W11644   7.326  10.059   2.888 -0.1564  0.0503  0.0038
 7594W        W11645   4.148   5.890  13.622 -0.0098  0.0101  0.0947
 7595W        W11646   6.598   0.087   4.603  0.2958  0.2358 -0.2100
 7596W        W11647   0.254   0.463   9.926 -0.2331  0.1452  0.3505
 7597W        W11648   0.191  10.158  12.319  0.2187  0.0331 -0.0766
 7598W        W11649   2.178   2.592   0.198  0.0039  0.0094  0.2597
 7599W        W11650   2.116   6.931  10.766  0.0090 -0.2751 -0.0313
 7600W        W11651   5.067   9.056  11.054  0.2283 -0.0139 -0.4041
 7601W        W11652   9.040   0.945  13.641 -0.5125 -0.1574  0.0783
 7602W        W11653   0.072   4.101  12.079 -0.1582  0.1108  0.0087
 7603W        W11654   3.842   2.171   3.660 -0.0739 -0.0587 -0.2291
 7604W        W11655   5.796   1.959  12.664  0.1529  0.0920  0.2501
 7605W        W11656   6.790   0.562   4.005 -0.0797 -0.0092 -0.1514
 7606W        W11657   6.660   0.636  10.270 -0.0930  0.1921  0.2976
 7607W        W11658   4.631   2.519   1.836 -0.0370  0.1396 -0.3988
 7608W        W11659   2.974   1.902   3.534 -0.1788  0.2580  0.0811
 7609W        W11660   8.940   7.243   2.446  0.3229  0.2160 -0.3262
 7610W        W11661   8.532   0.113  13.076 -0.1745  0.2384  0.0969
 7611W        W11662   0.855   7.214  11.934 -0.2676 -0.3449 -0.1977
 7612W        W11663   8.214   3.041  11.156 -0.1072  0.2614 -0.0406
 7613W        W11664   9.846   0.037   2.038  0.2421 -0.1630 -0.1281
 7614W        W11665   9.115   9.346   3.805  0.2325 -0.3472  0.2146
 7615W        W11666   9.765   0.938   0.355 -0.0533 -0.2578  0.1991
 7616W        W11667   4.293   6.454   3.141  0.2475  0.0888  0.1287
 7617W        W11668   6.135   8.146   1.851  0.4227 -0.1260  0.0889
 7618W        W11669   9.454   2.133   9.826 -0.0018  0.3694  0.2072
 7619W        W11670   0.240   9.705   3.948 -0.1563  0.2826 -0.1501
 7620W        W11671   9.701   0.822   2.729  0.0808  0.0399 -0.1567
 7621W        W11672   2.512   4.474  12.965  0.0280  0.4348  0.1616
 7622W        W11673  10.066   1.608  10.926  0.2096 -0.2815 -0.3872
 7623W        W11674   6.448   0.265   1.967 -0.0789 -0.2805  0.1832
 7624W        W11675   0.414   6.394  11.031 -0.2058  0.4197  0.0473
 7625W        W11676   5.747   5.115   9.153 -0.1778 -0.2927  0.2098
 7626W        W11677   5.872   3.851  10.407 -0.0275  0.6021 -0.1313
 7627W        W11678   6.966   9.855   4.598  0.2011 -0.1690  0.0448
 7628W        W11679   8.390   5.065  10.435  0.3976 -0.0935  0.1200
 7629W        W11680   9.519   1.057   3.634 -0.1129 -0.2515 -0.0379
 7630W        W11681   7.373   1.004   2.248  0.2136  0.1218  0.1497
 7631W        W11682   7.172   2.796  13.156 -0.0778 -0.1764 -0.0466
 7632W        W11683   2.991   1.418  13.400  0.1122  0.0020 -0.0169
 7633W        W11684   8.591   3.893   0.754 -0.1489 -0.0508 -0.0300
 7634W        W11685   3.446   9.832  12.905  0.3176  0.1007  0.0281
 7635W        W11686   7.113   6.251   4.222 -0.0426  0.4176 -0.2964
 7636W        W11687   9.572   4.319   0.401  0.2155 -0.1735 -0.0504
 7637W        W11688   3.109   5.481  12.196 -0.2274 -0.1618  0.1003
 7638W        W11689   8.852   0.324   4.300 -0.0151  0.0307 -0.1190
 7639W        W11690   4.488   6.362   2.585  0.0737  0.1461 -0.2206
 7640W        W11691   1.101   4.448  13.756  0.5599  0.0590  0.1837
 7641W        W11692   5.392   8.421  13.081  0.1001 -0.1204 -0.1573
 7642W        W11693   3.605   0.529  11.783  0.1204 -0.2791  0.1944
 7643W        W11694   4.966   9.397  11.606 -0.0636 -0.0820  0.3752
 7644W        W11695   7.234   0.211   1.371  0.0259  0.2200 -0.1847
 7645W        W11696   3.311   8.512   1.389 -0.0545 -0.2980  0.1163
 7646W        W11697   1.604   9.403  13.030  0.3876  0.0905  0.0344
 7647W        W11698   6.505   1.090   0.850 -0.1219 -0.0494  0.0110
 7648W        W11699   0.654   3.845   2.407  0.1995 -0.1257  0.1215
 7649W        W11700   9.229   3.669  12.646  0.0371 -0.3189 -0.1843
 7650W        W11701   4.289   1.193   9.902  0.1168 -0.1794 -0.0907
 7651W        W11702   5.564   0.852   5.290 -0.0251 -0.1528  0.4159
 7652W        W11703   7.487   9.992  13.160  0.1150  0.2368  0.1398
 7653W        W11704   5.039   3.189   2.527  0.3478 -0.0721 -0.0533
 7654W        W11705   6.854   6.737  13.812  0.0307 -0.2893 -0.0369
 7655W        W11706   7.809   9.146  12.602 -0.2910  0.0148 -0.1440
 7656W        W11707   8.547   2.367  13.920  0.0546 -0.0832 -0.1119
 7657W        W11708   8.151   5.562  12.485  0.1119 -0.0429 -0.1477
 7658W        W11709   0.543   8.141   0.780 -0.0225  0.1833 -0.0350
 7659W        W11710   3.781   9.228  10.050 -0.1131  0.0177 -0.4813
 7660W        W11711   4.392   1.095  11.680  0.0283 -0.1740 -0.4032
 7661W        W11712   2.735   0.510  10.610 -0.2092  0.1148  0.2722
 7662W        W11713   9.506   2.794   2.931  0.2418  0.0177  0.1146
 7663W        W11714   4.112   7.284  13.735 -0.2349  0.0610 -0.1340
 7664W        W11715   8.835   0.974   9.661 -0.0389 -0.1802  0.1756
 7665W        W11716   2.549   5.509  12.924 -0.0700  0.0907  0.1976
 7666W        W11717   7.667   8.787   2.606 -0.2658 -0.2545 -0.0194
 7667W        W11718   7.705   4.643   3.938  0.1063 -0.0686 -0.0134
 7668W        W11719   3.287   2.592  12.132 -0.4429 -0.1291  0.3510
 7669W        W11720   6.855   3.432   1.226  0.0640 -0.0271 -0.2535
 7670W        W11721   0.021   6.001   0.542  0.1400 -0.1302 -0.0481
 7671W        W11722   6.594   8.002   2.744 -0.1369  0.2237  0.0702
 7672W        W11723   7.427   1.768  11.812  0.1147 -0.4052  0.1135
 7673W        W11724   1.459   1.531   1.484 -0.1981  0.0947  0.0510
 7674W        W11725   8.793   7.369  11.326  0.0393  0.1477  0.0621
 7675W        W11726   7.685   8.045   9.264 -0.2493  0.0074  0.2332
 7676W        W11727   1.895   2.140   3.563 -0.4065  0.2480 -0.2498
 7677W        W11728   9.772   3.153  13.753 -0.2635  0.0054 -0.2033
 7678W        W11729   3.066   6.000  12.129 -0.1464 -0.1911 -0.0032
 7679W        W11730   2.627   4.139  10.416 -0.3532  0.0583  0.0045
 7680W        W11731   2.857   0.404   2.791 -0.0475  0.0397  0.0274
 7681W        W11732   9.493   0.865   1.307 -0.2848 -0.2326  0.1225
 7682W        W11733   1.323   5.529   4.623 -0.0617  0.1632  0.2311
 7683W        W11734   8.746   4.255   2.998 -0.4411  0.1449  0.0294
 7684W        W11735   6.273   1.694   3.070  0.3418  0.0991  0.4299
 7685W        W11736   0.947   2.123   3.842 -0.2112  0.0166  0.1662
 7686W        W11737   1.930   5.260   3.688  0.3007 -0.1581  0.2881
 7687W        W11738   7.738   9.399   1.026  0.1493 -0.1795  0.4825
 7688W        W11739   0.694   8.939   2.572 -0.2969  0.2305  0.1867
 7689W        W11740   2.692   2.635  12.873 -0.0341 -0.3586 -0.4222
 7690W        W11741   5.540   9.079  13.281  0.0617 -0.0408 -0.1011
 7691W        W11742   7.503  10.019   3.548  0.1722  0.0478 -0.1577
 7692W        W11743   7.261   7.126   4.763  0.3612 -0.1394 -0.1905
 7693W        W11744   9.649   9.796  11.763  0.2142  0.0168 -0.1956
 7694W        W11745   2.056   0.396   2.891 -0.1304 -0.0429 -0.5186
 7695W        W11746   2.171   6.088   3.079  0.0323 -0.1678  0.1726
 7696W        W11747   6.916   1.634   8.927 -0.3380  0.0398  0.2413
 7697W        W11748   2.329   5.658  13.863  0.0901  0.1950 -0.3146
 7698W        W11749   5.274   6.845   0.461 -0.0439 -0.0118  0.3543
 7699W        W11750   2.003   6.383   3.988 -0.0432 -0.1849 -0.2681
 7700W        W11751   3.167   0.206   3.651  0.0497 -0.0451 -0.0653
 7701W        W11752   1.215   7.772  11.804  0.1152 -0.0314  0.0224
 7702W        W11753   9.565   7.991  11.326 -0.0944  0.4251  0.0473
 7703W        W11754   8.748   4.162   9.058  0.0641 -0.0192 -0.2016
 7704W        W11755   4.407   1.107   0.356  0.2584 -0.1555 -0.2428
 7705W        W11756   1.440   3.416   8.977 -0.1609  0.1238  0.4200
 7706W        W11757   8.211   8.864   9.626  0.0936 -0.2191  0.2910
 7707W        W11758   2.470   6.866   2.427  0.2932 -0.1262 -0.2569
 7708W        W11759   0.072   5.244  13.663 -0.0726 -0.1273 -0.2211
 7709W        W11760   8.118   5.212  13.016 -0.0473 -0.1852  0.3383
 7710W        W11761   4.203   3.755   0.125  0.0145 -0.0249 -0.2023
 7711W        W11762   5.891   4.287  11.052 -0.1085  0.0235  0.0643
 7712W        W11763   7.961   1.054   2.458  0.2889  0.0504 -0.0236
 7713W        W11764   4.960   0.291   2.051  0.1363  0.0612 -0.0727
 7714W        W11765   5.918   6.391  13.537 -0.0364  0.3945  0.0489
 7715W        W11766   0.235   3.777   1.995  0.0444  0.0215 -0.0027
 7716W        W11767   7.324   9.478   0.288  0.0712 -0.0205  0.2573
 7717W        W11768   8.718   0.126  12.145  0.0361  0.1095 -0.0473
 7718W        W11769   6.410   2.399   1.563  0.2896  0.1406  0.0390
 7719W        W11770   5.999   0.827   1.089 -0.2359  0.3142 -0.0340
 7720W        W11771   9.792   7.549  10.948 -0.2427 -0.0068  0.0714
 7721W        W11772   9.432   9.306  11.587 -0.4862  0.0619 -0.0572
 7722W        W11773   3.232   1.362   2.292 -0.0113  0.2404 -0.3939
 7723W        W11774   6.494   0.652   5.528 -0.3043  0.2140  0.2955
 7724W        W11775   7.973   1.537   2.614  0.2028  0.4058 -0.0808
 7725W        W11776   1.108   0.178  10.182  0.0293  0.0416  0.0346
 7726W        W11777   5.399   2.558   0.352  0.0054  0.3063  0.0292
 7727W        W11778   7.622   5.848   4.918 -0.1526 -0.3164  0.1330
 7728W        W11779   8.059   3.627   9.571  0.1469 -0.2414  0.2161
 7729W        W11780   0.421   3.948   2.947 -0.1746 -0.1748 -0.5061
 7730W        W11781   9.006   5.379   1.369  0.3001 -0.1372  0.0111
 7731W        W11782   4.596   4.194   1.554 -0.1120 -0.2322 -0.1951
 7732W        W11783   7.116   0.502   9.972 -0.1064 -0.2468  0.0447
 7733W        W11784   2.003   6.798   2.625 -0.2892 -0.2078  0.0583
 7734W        W11785   8.445   1.117  11.715 -0.0943 -0.0732 -0.1299
 7735W        W11786   3.843   7.764  12.053 -0.1803  0.0302 -0.0852
 7736W        W11787   5.453   7.428   4.249 -0.2960  0.0340 -0.1143
 7737W        W11788   6.887   4.911   4.209  0.3312  0.0776  0.0093
 7738W        W11789   0.292   5.971  12.710  0.2399  0.1317  0.2663
 7739W        W11790   4.963   8.133  12.988  0.0278 -0.1520  0.0053
 7740W        W11791   4.832   1.696   3.105  0.0153 -0.1386  0.1335
 7741W        W11792   5.094   9.023   2.953 -0.1746 -0.2674 -0.0365
 7742W        W11793   7.876   8.661   3.725  0.2056 -0.1769  0.2151
 7743W        W11794   6.175   0.207  10.483  0.1994  0.0417 -0.1925
 7744W        W11795   2.287   1.043   0.840  0.1130 -0.1829  0.0765
 7745W        W11796   1.881   0.398  13.281  0.1274 -0.1482 -0.3232
 7746W        W11797   9.279   1.885  12.055  0.3736  0.1686  0.1863
 7747W        W11798   1.580   9.091   2.561  0.3939  0.3772  0.1284
 7748W        W11799   1.052   4.955  13.103 -0.1378 -0.0868 -0.1466
 7749W        W11800   2.781   7.724   2.034 -0.0456  0.1764 -0.1469
 7750W        W11801   4.382   3.263   1.921 -0.1275  0.0364  0.1367
 7751W        W11802   9.821   8.352  12.759 -0.0671 -0.0902  0.1262
 7752W        W11803   3.109   6.150  12.875  0.0917  0.0814  0.1112
 7753W        W11804   8.765   1.916   2.930  0.0832  0.2223  0.0232
 7754W        W11805   2.268   5.826   1.948  0.0902  0.4529 -0.0687
 7755W        W11806   2.274   2.273  11.156 -0.0347 -0.0583 -0.1848
 7756W        W11807   9.078   3.835   1.029 -0.1788  0.2057 -0.4538
 7757W        W11808   9.849   4.633  11.164 -0.2738  0.0817 -0.0077
 7758W        W11809   8.401   3.325  11.963  0.2063  0.1039 -0.0019
 7759W        W11810   6.562   2.125  11.988 -0.1261  0.0231 -0.0388
 7760W        W11811   8.309   6.245   1.011  0.0231  0.1125  0.0523
 7761W        W11812   9.276   2.776   5.108 -0.3509  0.1155  0.1186
 7762W        W11813   7.414   8.379  11.664  0.1456  0.2722  0.1563
 7763W        W11814   4.220   0.314  13.054  0.1764 -0.1347 -0.1570
 7764W        W11815  10.110   5.008  10.278  0.1217 -0.1723  0.3961
 7765W        W11816   9.810   5.933  11.501  0.2467 -0.2562 -0.2872
 7766W        W11817   7.519   8.864  13.657  0.1347  0.0882  0.1896
 7767W        W11818   7.994   5.923   2.514  0.0841 -0.2645  0.0891
 7768W        W11819   3.126   3.945  11.142  0.0968 -0.0874  0.1216
 7769W        W11820   2.662   1.042   0.510  0.0739 -0.0749 -0.1329
 7770W        W11821   3.121   5.647   3.986 -0.2077 -0.1267 -0.3662
 7771W        W11822   9.193   1.110   1.035 -0.5500 -0.0391  0.4585
 7772W        W11823   5.174  10.073  12.186  0.0606  0.0952 -0.0133
 7773W        W11824   3.705   8.497  13.709  0.0196  0.1368  0.0210
 7774W        W11825   2.876   3.431  11.991  0.1180  0.0351 -0.4102
 7775W        W11826   5.693   9.150  12.826 -0.2921  0.1281  0.0242
 7776W        W11827   4.785   2.370   1.372 -0.1103  0.0209 -0.1076
 7777W        W11828   7.085   3.893  10.973  0.0810 -0.2435 -0.1026
 7778W        W11829   5.779   9.889   0.805  0.0694 -0.3585 -0.1152
 7779W        W11830   6.698   4.391   0.073  0.1892 -0.1130  0.1188
 7780W        W11831   1.504   8.306   7.203 -0.2454  0.1439  0.2162
 7781W        W11832   6.836   6.337   1.039  0.0162 -0.4444 -0.0481
 7782W        W11833   7.861   7.392   4.521 -0.1615 -0.1135  0.1419
 7783W        W11834   1.678   1.321  10.477  0.2303 -0.4251 -0.1902
 7784W        W11835   0.726   6.107  13.978  0.1373  0.1675 -0.0473
 7785W        W11836   9.566   9.720   1.675 -0.0361  0.0838  0.2535
 7786W        W11837   1.165   3.698   4.190  0.3258 -0.0918 -0.0973
 7787W        W11838   8.101   2.066   4.823 -0.0707  0.1375  0.2349
 7788W        W11839   4.892   8.460  11.088 -0.0470  0.3629  0.0734
 7789W        W11840   9.740   3.736  11.473  0.1184  0.1219  0.0499
 7790W        W11841   1.918   9.021  11.971 -0.1529 -0.0009  0.0074
 7791W        W11842   5.988   1.457  10.820  0.0630  0.0326  0.0234
 7792W        W11843   8.070   7.318   3.897 -0.0008  0.1530 -0.0399
 7793W        W11844   0.206   3.217   4.944 -0.2108 -0.0641 -0.0655
 7794W        W11845   2.416   1.445  12.542  0.0078 -0.2776 -0.1933
 7795W        W11846   6.388   3.507   1.004 -0.0057 -0.0315  0.0409
 7796W        W11847   8.520   2.192  10.257  0.1714 -0.1205 -0.0714
 7797W        W11848   8.789   8.743   4.130 -0.1294 -0.0662 -0.0535
 7798W        W11849   9.246   9.740   9.544  0.1058  0.3421 -0.2079
 7799W        W11850   2.808   9.408   2.821 -0.0423 -0.0551 -0.2306
 7800W        W11851   3.240   9.599  13.336 -0.1820 -0.2895 -0.3039
 7801W        W11852   6.549   4.463  12.149 -0.2392 -0.3803 -0.0435
 7802W        W11853   5.244   3.505   5.411 -0.1486  0.0039 -0.0557
 7803W        W11854   0.370   4.825  13.852  0.1456 -0.0330  0.3490
 7804W        W11855   9.211   0.839   4.096  0.0957 -0.1452 -0.1743
 7805W        W11856   5.793   5.404   0.970  0.2032 -0.0112 -0.0956
 7806W        W11857   6.868   4.757   4.825 -0.0049  0.1593 -0.2424
 7807W        W11858   9.651   6.035  12.564 -0.1870 -0.0901 -0.0418
 7808W        W11859   3.551   4.313   4.064  0.0226  0.1711 -0.2144
 7809W        W11860   4.148   5.424  10.434  0.1119  0.1676 -0.0532
 7810W        W11861   4.276   3.146   5.438  0.1000 -0.0762 -0.1652
 7811W        W11862   2.079   5.022   1.899 -0.5714 -0.0450  0.2063
 7812W        W11863   5.974   2.028   9.583 -0.0614  0.0880  0.1769
 7813W        W11864   4.329   6.975  12.481 -0.1435 -0.0681 -0.0583
 7814W        W11865   6.355   9.730   4.644 -0.0197  0.2224  0.4316
 7815W        W11866   7.725   1.317  11.702  0.0708 -0.1684 -0.0139
 7816W        W11867   9.957   4.544   3.268 -0.1809  0.1751  0.0110
 7817W        W11868   6.249   4.104   1.660  0.0246  0.1812 -0.1746
 7818W        W11869   2.494   0.835   2.659 -0.0327 -0.1739  0.0243
 7819W        W11870   7.451   5.439   3.935  0.2192  0.1606  0.0756
 7820W        W11871   2.336   1.196   3.084  0.0713 -0.1020 -0.0019
 7821W        W11872   5.479   6.569   1.827  0.0437  0.1643  0.0973
 7822W        W11873   1.426   3.480   4.628 -0.3146 -0.0489 -0.1383
 7823W        W11874   7.103   6.401   3.168 -0.0536  0.0845 -0.1938
 7824W        W11875   3.564   4.143  10.547  0.3953 -0.1259  0.2318
 7825W        W11876  10.105   5.755  13.706  0.0646 -0.1745  0.2340
 7826W        W11877   6.048   1.608   4.077 -0.1105 -0.0195 -0.4457
 7827W        W11878   7.388   1.271  10.505 -0.0104  0.0755  0.2513
 7828W        W11879   3.924   7.029  10.736  0.4261  0.1803 -0.2691
 7829W        W11880   7.949   1.551   4.005 -0.0907 -0.1141  0.3015
 7830W        W11881   7.438   9.294   4.163 -0.4542  0.1328 -0.2692
 7831W        W11882   2.706   5.560   4.298  0.1677 -0.1178 -0.0999
 7832W        W11883   1.294   5.687   2.830 -0.0859  0.0135 -0.2368
 7833W        W11884   1.941   1.920  11.420  0.0865 -0.1026 -0.1609
 7834W        W11885   3.306   5.106   3.597 -0.3410 -0.0034  0.2011
 7835W        W11886   9.804   6.345   0.712  0.1297  0.1487  0.0420
 7836W        W11887   8.769   6.308  10.991 -0.0341 -0.1985  0.1812
 7837W        W11888   9.104   1.760  12.569  0.1010  0.0390  0.0722
 7838W        W11889   6.135   1.484   0.871 -0.1441 -0.1231 -0.2662
 7839W        W11890   7.544   9.757   0.654  0.1704  0.2095 -0.2162
 7840W        W11891   6.325   1.782   9.286  0.1131  0.0574  0.1484
 7841W        W11892   7.412   8.335   5.153 -0.0349  0.3215  0.1006
 7842W        W11893   6.791   7.732   3.619  0.3311 -0.1232 -0.1905
 7843W        W11894   5.510   8.375   3.310  0.1396 -0.0330  0.0075
 7844W        W11895   2.876   2.368  11.907 -0.0496  0.2743 -0.2243
 7845W        W11896   5.205   9.364   8.965 -0.3358  0.1695 -0.4993
 7846W        W11897   2.589   8.584   2.329  0.2993  0.0447  0.4757
 7847W        W11898   6.964   1.833   0.888  0.1169 -0.1888 -0.0832
 7848W        W11899   3.856   9.900  11.880 -0.3057  0.1528 -0.2170
 7849W        W11900   0.491   0.918  11.953  0.1076 -0.0719  0.0481
 7850W        W11901   8.023   2.548   0.753  0.0876  0.3767 -0.0042
 7851W        W11902   7.599   4.716   4.927 -0.2720  0.1394 -0.1061
 7852W        W11903   3.942   2.250   4.570  0.0291  0.2305  0.2063
 7853W        W11904   8.559   5.783   1.512 -0.1256 -0.1062 -0.4520
 7854W        W11905   0.380   0.690   2.131  0.4024 -0.4601  0.0452
 7855W        W11906   8.131   6.749  12.925  0.0156 -0.3293 -0.2180
 7856W        W11907   6.209   7.772   5.688  0.0118 -0.0848 -0.4447
 7857W        W11908   3.690   6.225   9.746  0.0867  0.0905  0.0587
 7858W        W11909   2.415   8.029  11.255  0.1963  0.4318  0.0627
 7859W        W11910   9.656   5.924   9.914  0.0339 -0.0054 -0.1212
 7860W        W11911   4.178   8.364  13.856 -0.0719  0.2645 -0.1933
 7861W        W11912   3.044   2.268  12.483  0.0679  0.1097 -0.2915
 7862W        W11913   5.135   7.184   3.797 -0.2513 -0.1135  0.1721
 7863W        W11914   0.911   7.705  10.730  0.1285  0.0770  0.1232
 7864W        W11915   3.408   1.466   0.026  0.2626 -0.1625 -0.1977
 7865W        W11916   5.026   2.213   1.837  0.1792 -0.0380 -0.2195
 7866W        W11917   3.954   8.373  11.445 -0.0456 -0.0448 -0.0193
 7867W        W11918   8.676   2.767   3.109  0.1479 -0.2487  0.3951
 7868W        W11919   0.387   3.121   3.262 -0.0226  0.1700  0.0820
 7869W        W11920   3.998   8.211   2.389  0.0195 -0.0121  0.0172
 7870W        W11921   4.284   3.839  12.244 -0.1509 -0.2120  0.1477
 7871W        W11922   0.440   2.283  11.186  0.0445  0.2229 -0.1968
 7872W        W11923   7.401   9.353   1.399 -0.0697  0.0536 -0.0216
 7873W        W11924   2.993   1.877  11.750 -0.1634 -0.1117  0.1260
 7874W        W11925   8.970   7.313   3.359 -0.0866 -0.4647 -0.1615
 7875W        W11926   8.485   1.195   2.274 -0.1302  0.0675  0.1010
 7876W        W11927   1.875   3.834  13.569  0.1844 -0.0306 -0.3033
 7877W        W11928   4.671   8.638   2.175 -0.0736  0.0749  0.1414
 7878W        W11929   3.047   0.555  11.103  0.1467  0.0495  0.2264
 7879W        W11930   4.077   8.150   1.155  0.1162 -0.3750  0.1006
 7880W        W11931   3.969   6.826  10.292  0.1576 -0.1904  0.0591
 7881W        W11932   0.290   3.066   0.827  0.1584  0.0219 -0.1690
 7882W        W11933   6.700   0.120  14.019 -0.1884 -0.0623  0.1258
 7883W        W11934   3.982   6.827  11.588 -0.1848 -0.1496 -0.0138
 7884W        W11935   4.714   2.888   4.257 -0.0557 -0.1394 -0.4426
 7885W        W11936   6.656   2.856  12.982  0.2741  0.0035 -0.0526
 7886W        W11937   4.492   3.902  11.163  0.1848 -0.1581 -0.3825
 7887W        W11938   7.752   5.842  12.579 -0.1484  0.0662  0.1152
 7888W        W11939   7.550   3.721   2.942 -0.0119 -0.0085  0.2288
 7889W        W11940   0.170   3.447  12.582 -0.1897  0.3783 -0.0224
 7890W        W11941   7.176   3.081  12.727  0.0987 -0.3883 -0.1855
 7891W        W11942   7.920   0.116  12.215 -0.0790  0.1304 -0.0860
 7892W        W11943   8.844   8.862  12.674  0.1470 -0.0812 -0.3472
 7893W        W11944   4.059   4.140   4.277 -0.1161 -0.0167 -0.4249
 7894W        W11945   9.956   1.278  11.269 -0.1029  0.1231  0.1124
 7895W        W11946   2.774   8.423  13.476 -0.0295  0.2631 -0.3450
 7896W        W11947   4.334   5.749   0.980 -0.1940  0.3473  0.1944
 7897W        W11948   5.099   8.291   0.093 -0.1058 -0.1240 -0.0692
 7898W        W11949   6.393   0.174   9.984 -0.2891  0.0690  0.0465
 7899W        W11950   7.933   3.628  11.918  0.3263  0.1861 -0.1111
 7900W        W11951   1.110   8.703   3.458 -0.0631  0.1376  0.0308
 7901W        W11952   5.125   8.488   3.880  0.0904  0.0436  0.0338
 7902W        W11953   1.869   6.121  10.181 -0.0442  0.2050 -0.0540
 7903W        W11954   7.082   9.191   1.883 -0.1551 -0.2839  0.0475
 7904W        W11955   5.116   1.322  10.557 -0.1095  0.1104 -0.1740
 7905W        W11956   4.306   2.971   8.799  0.0979  0.0580 -0.0444
 7906W        W11957   5.492   9.262   2.767 -0.1098  0.2545 -0.0145
 7907W        W11958   9.829   7.048   2.700 -0.0720  0.0720  0.0348
 7908W        W11959   1.438   2.323   3.838  0.4079 -0.3645  0.2900
 7909W        W11960   2.156   2.134   4.035 -0.2914 -0.3599 -0.1729
 7910W        W11961   0.161   5.173  11.631 -0.0139  0.2756 -0.3103
 7911W        W11962   1.363   4.975  11.347  0.0253 -0.0309 -0.1406
 7912W        W11963   6.971   8.766  13.571  0.1240  0.1790 -0.0913
 7913W        W11964   6.477   7.766  13.181  0.1860 -0.0568  0.3137
 7914W        W11965   7.259   4.066   1.854  0.0760  0.0720 -0.3351
 7915W        W11966   6.222   9.877   0.546  0.3116  0.1813 -0.0251
 7916W        W11967   5.320   1.931   2.193  0.0712 -0.2863 -0.3822
 7917W        W11968   9.402   3.121   9.936 -0.2627 -0.2122  0.0673
 7918W        W11969   6.280   1.266  13.151  0.0926 -0.1381  0.1783
 7919W        W11970   3.565   1.400   1.846 -0.3492 -0.0181 -0.1556
 7920W        W11971   2.141   9.286   1.759 -0.2096 -0.3037 -0.1415
 7921W        W11972   3.062   7.311   1.874 -0.1625 -0.2938  0.0680
 7922W        W11973   4.468   1.826   1.058 -0.1138 -0.0871  0.1269
 7923W        W11974   9.667   9.226   4.069  0.1358  0.1243 -0.2680
 7924W        W11975   5.906   7.662  13.844  0.0085  0.2734 -0.2631
 7925W        W11976   5.595   0.588   3.258  0.0303  0.0910  0.0804
 7926W        W11977   0.757   7.285  11.407 -0.0628  0.0920  0.1296
 7927W        W11978   0.172   4.528   8.336 -0.0247 -0.3386  0.2383
 7928W        W11979   9.422   8.356  11.045  0.1946 -0.0461  0.3297
 7929W        W11980   9.017   9.351  12.408 -0.0002 -0.1619  0.1977
 7930W        W11981   6.915   9.171   0.894  0.1200  0.2413 -0.1407
 7931W        W11982   4.233   5.797   1.885  0.0504 -0.1124  0.3017
 7932W        W11983   2.113   7.202   4.250  0.1034  0.0336 -0.2756
 7933W        W11984   9.271   7.468  10.045  0.1479 -0.2003  0.1426
 7934W        W11985   5.940   7.934   4.695 -0.0297 -0.0311  0.1391
 7935W        W11986   0.250   9.525   0.892  0.0134  0.1211  0.1491
 7936W        W11987   9.659   5.031  13.660  0.1576  0.0590 -0.1766
 7937W        W11988   0.508   2.903   4.095  0.2687 -0.3792  0.0586
 7938W        W11989   8.973   9.573   4.649  0.2327  0.2013 -0.0931
 7939W        W11990   3.098   1.331   2.818  0.0140 -0.0457  0.0494
 7940W        W11991   2.739   2.313  10.979  0.5697 -0.1448  0.0447
 7941W        W11992   6.392   6.619   1.214 -0.2599 -0.3276 -0.0853
 7942W        W11993   5.818   8.539  10.472 -0.0262 -0.1904 -0.2288
 7943W        W11994   3.872   5.756   9.542 -0.1936 -0.1815 -0.1295
 7944W        W11995   9.404   3.465   9.520  0.2556  0.1631  0.0406
 7945W        W11996   6.184   8.975  12.131  0.0181 -0.0177  0.3690
 7946W        W11997   6.700   9.475  10.319  0.1310 -0.1541  0.1001
 7947W        W11998   8.909   5.115  12.278  0.3034 -0.3560  0.0381
 7948W        W11999   5.178   3.558  13.295  0.2314  0.0793 -0.0278
 7949W        W12000   0.229   5.829   0.070  0.3326 -0.2041  0.0690
 7950W        W12001   5.866   9.097  10.413  0.2127  0.2619  0.1647
 7951W        W12002   6.700   0.604   2.410 -0.1019 -0.1608  0.1284
 7952W        W12003   3.566  10.154   2.419 -0.2239  0.1421 -0.2648
 7953W        W12004   4.681   1.262  10.240  0.1757  0.2178 -0.0218
 7954W        W12005   9.933   9.700  10.900 -0.1886 -0.1852  0.3330
 7955W        W12006   1.615   9.071  13.754  0.0846 -0.2763  0.0869
 7956W        W12007   4.948   2.353   4.370 -0.2463 -0.0799  0.4284
 7957W        W12008   4.310   1.501   1.466 -0.1391 -0.1160  0.2027
 7958W        W12009   7.692   3.325   4.310  0.2356  0.1141 -0.5901
 7959W        W12010   5.158   8.681  10.675 -0.5377  0.1389 -0.4175
 7960W        W12011   7.796   9.365   0.416  0.0309  0.0754  0.0872
 7961W        W12012   7.206   1.123   1.703 -0.3529 -0.4848  0.0565
 7962W        W12013   5.189   2.763  10.540 -0.2569 -0.1092 -0.1420
 7963W        W12014   6.991   0.731   0.281 -0.0481  0.0465  0.1830
 7964W        W12015   7.405   6.137  13.918 -0.1018  0.0859 -0.1614
 7965W        W12016   4.068   2.407   4.112  0.2826  0.1355  0.3264
 7966W        W12017   0.729   4.729   2.183  0.1305  0.1171  0.3079
 7967W        W12018   3.380   8.554  12.401 -0.1375  0.2409  0.1221
 7968W        W12019   5.133   8.434   0.953  0.0415 -0.2600  0.1303
 7969W        W12020   4.805   7.507   3.990  0.1942 -0.0453 -0.0463
 7970W        W12021   7.336   8.677  10.367  0.1620 -0.0192  0.3044
 7971W        W12022   8.966   5.118   1.845  0.2767  0.1997  0.1797
 7972W        W12023   2.346   4.977  12.327 -0.5793 -0.1091 -0.0408
 7973W        W12024   5.226   9.544  12.054 -0.0127  0.0968 -0.3045
 7974W        W12025   4.333   7.800  12.218 -0.3124  0.0081 -0.1798
 7975W        W12026   8.329   4.815   1.107  0.1736 -0.0748  0.1501
 7976W        W12027   4.565   7.627  13.160  0.0261 -0.0747  0.0606
 7977W        W12028   7.621   0.316   9.929 -0.3610  0.0833 -0.2586
 7978W        W12029   5.843   3.801   0.856  0.2087  0.2123 -0.0102
 7979W        W12030   6.848   9.765   9.496  0.0509 -0.1880  0.0993
 7980W        W12031   0.068   5.531  13.207  0.1612  0.1858  0.2077
 7981W        W12032   4.967   2.942  12.276  0.0581 -0.0365  0.1770
 7982W        W12033   9.840   5.085   2.509  0.1613  0.2815 -0.2524
 7983W        W12034   3.092   7.926  11.366 -0.2082  0.0849 -0.0109
 7984W        W12035   6.855   0.836   1.922 -0.1093  0.3986 -0.0263
 7985W        W12036   2.341   7.664   1.470  0.4105  0.1023  0.0912
 7986W        W12037   7.725   6.195  11.222 -0.0448 -0.0183  0.3178
 7987W        W12038   1.335   3.921  13.568  0.5795 -0.0492  0.4645
 7988W        W12039   4.506   7.734  11.763  0.2501  0.3020  0.0888
 7989W        W12040   2.416   4.506   2.087  0.0390 -0.0620  0.2570
 7990W        W12041   7.005   7.944   1.178 -0.0809 -0.0291  0.0945
 7991W        W12042   2.265   0.935  13.972 -0.1731  0.0225 -0.3881
 7992W        W12043   3.572   7.851   0.614  0.3409  0.1912 -0.0793
 7993W        W12044   6.044   7.104  12.053 -0.0284 -0.1417 -0.0304
 7994W        W12045   5.621   5.964  11.570 -0.0823 -0.3700 -0.0221
 7995W        W12046   1.610   1.496   3.538  0.0287 -0.0566 -0.1190
 7996W        W12047   9.353   1.341   2.065 -0.0411 -0.0347 -0.0369
 7997W        W12048   6.605   5.183   3.465  0.3073  0.0965 -0.1604
 7998W        W12049   4.009   4.364   4.778 -0.1809 -0.1927 -0.0628
 7999W        W12050   6.942   5.884   0.801  0.0374  0.0549  0.2420
 8000W        W12051   7.353   3.763   3.413  0.2277  0.1576 -0.0788
 8001W        W12052   8.482   8.356   0.850 -0.2095 -0.0840  0.0540
 8002W        W12053   0.789   3.685  13.174 -0.2185 -0.0789 -0.1302
 8003W        W12054   4.996   7.646   2.424 -0.1778  0.0347 -0.0193
 8004W        W12055   6.125   3.177   2.063  0.1157  0.1919  0.0853
 8005W        W12056   4.605   8.086  13.948  0.1329  0.2271  0.1349
 8006W        W12057   5.021   6.366  10.161 -0.0997 -0.0132 -0.0209
 8007W        W12058   1.536   3.612  13.848  0.0866  0.0880  0.1083
 8008W        W12059   5.607   4.413   2.674 -0.5690 -0.2485  0.2102
 8009W        W12060   9.479   7.578   4.967 -0.3633  0.1255 -0.1345
 8010W        W12061   3.596   4.923  13.151  0.2393 -0.1280 -0.0026
 8011W        W12062   6.333   4.891  12.416  0.0266  0.1194  0.0067
 8012W        W12063   7.102   7.213  13.624  0.1007  0.2526 -0.0444
 8013W        W12064   3.513   1.334  13.369 -0.0950 -0.3569 -0.1573
 8014W        W12065   3.327   2.677   0.642  0.2468  0.0898 -0.0425
 8015W        W12066   9.355   9.931  12.368  0.1650  0.2707 -0.1961
 8016W        W12067   9.993   4.998  13.293  0.1370 -0.1245  0.2019
 8017W        W12068   8.470   5.870  13.836 -0.0062  0.0142  0.1449
 8018W        W12069   3.347   4.665  10.226  0.1448  0.2218  0.0431
 8019W        W12070   6.270   0.586   1.500  0.0177  0.0769 -0.0339
 8020W        W12071   8.170   7.750   0.465 -0.1981 -0.3167  0.1395
 8021W        W12072   7.610   7.203   3.016 -0.1356 -0.1106  0.0796
 8022W        W12073   7.386   9.053   0.775  0.2562  0.0403 -0.1051
 8023W        W12074   6.226   8.485  11.982 -0.0584 -0.0438  0.0177
 8024W        W12075   2.368   2.322   9.833  0.2167  0.0987  0.1406
 8025W        W12076   5.149   3.059   3.659 -0.1953 -0.0420 -0.1469
 8026W        W12077   4.830   4.814   9.798 -0.0463 -0.1082 -0.0195
 8027W        W12078   4.413   2.054  13.270  0.4220  0.1051 -0.1035
 8028W        W12079   2.064   9.506   1.089 -0.2842  0.1869 -0.2200
 8029W        W12080   0.537  10.013   0.356  0.1450  0.0778 -0.2532
 8030W        W12081   6.010   1.462   1.658  0.3467 -0.4922  0.0072
 8031W        W12082   6.015   1.547   4.645 -0.3218  0.1385 -0.1661
 8032W        W12083   5.657   8.775   0.703  0.1035  0.1222  0.2399
 8033W        W12084   0.854   5.704   4.372 -0.0999  0.2323 -0.0821
 8034W        W12085   1.295   5.387  13.095 -0.4841  0.1846 -0.0910
 8035W        W12086   5.955   8.921  13.543  0.1918 -0.0103  0.2425
 8036W        W12087   8.848   1.348   3.988  0.1914 -0.0718 -0.0835
 8037W        W12088   9.716   3.684  13.416  0.1524 -0.0032 -0.0622
 8038W        W12089   5.326   6.645   4.723 -0.2550 -0.2306 -0.0425
 8039W        W12090   9.728   5.429   3.953 -0.3502  0.0735  0.0153
 8040W        W12091   5.240   4.487  10.264 -0.4196 -0.1121  0.1408
 8041W        W12092   1.399   5.508   1.513  0.0692 -0.1269  0.4282
 8042W        W12093   2.375   2.353   1.042 -0.4359  0.1717 -0.2505
 8043W        W12094   5.030   5.174   2.776 -0.0920  0.4140  0.0697
 8044W        W12095   4.217   3.147   2.805 -0.1648  0.1033  0.1047
 8045W        W12096   9.003   9.870   1.565 -0.1924 -0.0919  0.3581
 8046W        W12097   5.423   5.992   2.634  0.0785 -0.0790  0.1146
 8047W        W12098   9.372   3.186   0.141 -0.1422  0.1745 -0.0543
 8048W        W12099  10.060   4.368  12.587 -0.0716 -0.3450 -0.0051
 8049W        W12100   2.483   4.339   3.859 -0.2168 -0.2409 -0.3825
 8050W        W12101   8.571   2.382  10.677 -0.2572 -0.2048 -0.3257
 8051W        W12102   1.891   6.223  13.124  0.2238 -0.2085  0.0846
 8052W        W12103   3.165   3.781  11.709  0.0644  0.1110 -0.2008
 8053W        W12104  10.158   1.255  11.725 -0.0429  0.0421  0.1098
 8054W        W12105   6.979   1.852  12.200  0.3024  0.1060  0.1220
 8055W        W12106   4.870   6.723  12.618  0.2113 -0.2595 -0.1544
 8056W        W12107   0.514   0.995  14.035  0.1617 -0.0402  0.2366
 8057W        W12108   4.849   1.660  13.532 -0.2834  0.3611  0.3096
 8058W        W12109   5.882   7.662   3.085  0.0245  0.0112 -0.0371
 8059W        W12110   1.440   0.642  12.987 -0.1037 -0.1379  0.0969
 8060W        W12111   1.330   1.189   2.895 -0.2773 -0.4749 -0.1073
 8061W        W12112   4.101   2.735  11.057 -0.0355 -0.1462 -0.0457
 8062W        W12113   5.908   3.885   0.167 -0.1737  0.1239  0.1548
 8063W        W12114   8.309   0.997   0.995  0.2845  0.3683 -0.0141
 8064W        W12115   5.696   5.435   1.795 -0.3908 -0.1460  0.0576
 8065W        W12116   3.332   8.782  12.900  0.0707  0.1918 -0.1595
 8066W        W12117   8.683   5.698  12.455 -0.0348 -0.4158  0.2556
 8067W        W12118   9.820   0.682  13.887  0.0853  0.3408  0.2796
 8068W        W12119   2.510   3.535  10.494  0.2014  0.0496 -0.2078
 8069W        W12120   8.817   6.336  11.653 -0.0720 -0.0520  0.1418
 8070W        W12121   9.058   4.739  12.565 -0.0494 -0.1537  0.1961
 8071W        W12122   6.875   8.936   5.343 -0.2079  0.3528 -0.2913
 8072W        W12123   5.749   1.439   3.319  0.0814 -0.0035  0.0889
 8073W        W12124   9.580   8.853   0.905  0.3087 -0.0317  0.0196
 8074W        W12125   4.664   4.572  11.872  0.0316  0.0882 -0.0186
 8075W        W12126   2.124   0.350   3.540 -0.1742  0.2291  0.1012
 8076W        W12127   0.524   4.980   0.885 -0.2777  0.5060  0.3667
 8077W        W12128   9.267   9.044   9.391 -0.2135 -0.2164 -0.2106
 8078W        W12129   4.795   1.491  12.907 -0.1894  0.0566  0.1808
 8079W        W12130   5.356   7.376  11.941  0.1397 -0.0640  0.0196
 8080W        W12131   5.797   8.131  13.493 -0.0112  0.0289  0.1408
 8081W        W12132   1.515   1.916   1.201 -0.1342  0.0395 -0.2770
 8082W        W12133   6.003   5.693  12.303 -0.1939 -0.1295 -0.1660
 8083W        W12134   3.899   5.985   4.497  0.0658 -0.2580 -0.0915
 8084W        W12135   2.872   4.831  13.538 -0.1392 -0.1802 -0.1206
 8085W        W12136   9.287   9.044  13.306 -0.1617  0.3771 -0.0960
 8086W        W12137   7.866   2.042  11.625  0.0983 -0.0669 -0.0222
 8087W        W12138   6.312   8.622   3.588  0.2048 -0.3306  0.0666
 8088W        W12139   0.336   7.381  13.382 -0.2531 -0.0517 -0.0960
 8089W        W12140   8.900   1.669   4.427  0.1595  0.1794  0.0486
 8090W        W12141   8.747   2.142  11.753  0.1200 -0.0142  0.2523
 8091W        W12142   1.306   3.448  12.464 -0.0048  0.0266 -0.2224
 8092W        W12143   3.806   7.511  10.782  0.2474  0.2398  0.0251
 8093W        W12144   8.248   7.412   0.965 -0.2428 -0.1428 -0.0426
 8094W        W12145   3.668   2.083   2.893 -0.1584 -0.0573  0.3245
 8095W        W12146   5.942   7.377   1.612  0.2152  0.2851 -0.0483
 8096W        W12147   3.129   2.756   1.137 -0.0111 -0.1022 -0.1789
 8097W        W12148   5.143   8.623   2.023 -0.0449  0.0250 -0.1375
 8098W        W12149   3.147   7.783  12.749  0.0094  0.0195  0.2001
 8099W        W12150   7.800   2.787   3.412 -0.1564  0.1051  0.3129
 8100W        W12151   9.473   1.066   4.435 -0.1168 -0.2681 -0.0892
 8101W        W12152   7.559   1.021  12.608  0.1416  0.1554  0.0413
 8102W        W12153   6.526   3.807  10.980  0.2897  0.0980 -0.3620
 8103W        W12154   4.680   8.692   1.702  0.0937 -0.0909 -0.0934
 8104W        W12155   7.607   6.009  11.758  0.1362 -0.0552 -0.0423
 8105W        W12156   1.426   4.577   4.654  0.0312  0.1679 -0.2680
 8106W        W12157   3.761   0.699  13.502 -0.2174  0.2192 -0.4413
 8107W        W12158   7.887   4.687  11.208  0.0252  0.0283  0.3847
 8108W        W12159   6.805   0.269   1.135 -0.0455  0.1671 -0.2515
 8109W        W12160   9.395   1.819   2.227 -0.1279 -0.5153 -0.2848
 8110W        W12161   6.163   0.349  12.076  0.2730 -0.1288  0.0051
 8111W        W12162   0.996   4.800  10.787 -0.2063  0.0139  0.2298
 8112W        W12163  10.138   2.309   3.833 -0.0492  0.1826 -0.0545
 8113W        W12164   3.987   9.532  12.843  0.0171  0.3151 -0.0008
 8114W        W12165   5.077   9.711   0.283  0.0448  0.0152  0.0405
 8115W        W12166   4.461   0.525   1.135 -0.1523  0.1097  0.0225
 8116W        W12167   1.835   5.686  11.745  0.2141 -0.2696 -0.2898
 8117W        W12168   9.128   6.297  13.116  0.0328 -0.0646  0.1771
 8118W        W12169   6.951   4.893  13.896  0.1101  0.1316  0.0729
 8119W        W12170   4.451   4.086   4.621  0.1345 -0.0835 -0.2187
 8120W        W12171   1.247   4.459   1.583 -0.1658  0.1177 -0.0346
 8121W        W12172   4.789   4.342   9.813 -0.0590 -0.1504 -0.1151
 8122W        W12173   9.605   3.663  12.940 -0.1521 -0.0657 -0.0004
 8123W        W12174   8.274   0.272  10.390 -0.2659  0.0063 -0.1005
 8124W        W12175   8.700  10.132   3.224  0.0697  0.2762 -0.2270
 8125W        W12176   2.160   8.358   2.069 -0.0409 -0.0923  0.0587
 8126W        W12177   8.061   2.317   2.198  0.0351  0.1335  0.1969
 8127W        W12178   7.730   8.768  10.959  0.0800  0.0131  0.2902
 8128W        W12179   7.536   9.247  11.346  0.1681 -0.0733  0.2339
 8129W        W12180   3.583   1.586   0.659  0.1723 -0.2002 -0.1304
 8130W        W12181  10.000   5.826   9.197  0.0540  0.1340  0.3473
 8131W        W12182   5.124   1.339  11.061 -0.0549 -0.4297  0.1291
 8132W        W12183   1.846   0.202   1.146 -0.4018  0.2983 -0.1757
 8133W        W12184   2.259   4.614   4.271  0.0599  0.1925  0.0078
 8134W        W12185   2.347   8.154   2.919 -0.1248 -0.0393 -0.0135
 8135W        W12186   7.088   4.436  12.343 -0.3632  0.4034 -0.0033
 8136W        W12187   8.052   5.193   0.327  0.0563 -0.0049  0.1230
 8137W        W12188   3.405  10.020  10.470  0.2658 -0.3188 -0.0651
 8138W        W12189   6.605   2.300   2.986  0.2061  0.0562 -0.1035
 8139W        W12190   4.539   2.341   0.140 -0.0064  0.2875 -0.1620
 8140W        W12191   8.020   9.697   3.545  0.1015  0.2479  0.1070
 8141W        W12192  10.090   3.041   4.484 -0.0332  0.6327 -0.0604
 8142W        W12193   5.278   5.346  11.472 -0.1202 -0.3015 -0.0886
 8143W        W12194   6.584   3.320   4.075  0.1375  0.0726 -0.1291
 8144W        W12195   3.552   7.174   3.925 -0.0197 -0.2461 -0.1817
 8145W        W12196   2.458   4.339   8.467  0.1165 -0.0113  0.0367
 8146W        W12197   2.776   9.940  12.627 -0.1198 -0.1528  0.0451
 8147W        W12198   4.008   5.248   1.315 -0.0377 -0.4166  0.0409
 8148W        W12199   0.865   9.880   3.612 -0.1754  0.0472  0.3018
 8149W        W12200  10.160   6.010   2.318 -0.2426 -0.1008  0.0601
 8150W        W12201   8.495   7.236  10.544 -0.2347  0.1048  0.3443
 8151W        W12202   4.274   0.461   3.145 -0.0706  0.2793 -0.0228
 8152W        W12203   3.221   5.540  10.435 -0.1685 -0.0896 -0.1555
 8153W        W12204   5.193   3.250   4.103 -0.0419  0.0349 -0.4990
 8154W        W12205   9.684   1.426  11.629 -0.0557  0.0596  0.3014
 8155W        W12206   4.477   7.533  10.120 -0.0096  0.1609  0.1136
 8156W        W12207   7.221   0.036   5.209  0.1443  0.0562 -0.2154
 8157W        W12208   2.856   5.423   0.739  0.2430  0.0154 -0.0649
 8158W        W12209   8.466   9.032  10.792 -0.0001 -0.0760 -0.3204
 8159W        W12210   2.519   3.879   0.651  0.1438 -0.0043 -0.1860
 8160W        W12211   3.932   4.740  11.269 -0.0198  0.0718 -0.0543
 8161W        W12212   2.688   3.037  10.438 -0.0754 -0.1677  0.2097
 8162W        W12213   9.795   2.380   3.150 -0.3408 -0.1941  0.2064
 8163W        W12214   5.786   8.663  13.991 -0.0147  0.1278  0.0884
 8164W        W12215   0.122   3.753   1.456  0.2379  0.1219 -0.0922
 8165W        W12216   3.603   2.039   4.067 -0.0256 -0.2032  0.2075
 8166W        W12217   2.972   8.102  13.171 -0.0007  0.2254  0.0009
 8167W        W12218   9.699   2.147   1.371  0.2096  0.4514  0.4434
 8168W        W12219   9.147   3.217  12.419  0.2283  0.1275  0.0701
 8169W        W12220   4.330   6.585   0.597  0.0732 -0.0225  0.1326
 8170W        W12221   4.260   8.982  11.376 -0.3350 -0.1837  0.1309
 8171W        W12222   6.444   4.123   9.946 -0.1282  0.0649 -0.1343
 8172W        W12223   2.156   6.991  13.124  0.1335  0.0516  0.2474
 8173W        W12224   0.170   4.462   4.898 -0.4661  0.1337 -0.2115
 8174W        W12225   0.672   7.680   3.305  0.1400  0.0513 -0.0779
 8175W        W12226   1.535   5.661   9.376  0.2493  0.1526 -0.0282
 8176W        W12227   6.538   2.139   2.547  0.1013 -0.0677 -0.4205
 8177W        W12228   6.925   1.715  12.717 -0.0058 -0.0033 -0.2546
 8178W        W12229   8.382   9.321   3.157  0.0152  0.1046 -0.0736
 8179W        W12230   5.501   2.377  10.672  0.0258 -0.0160 -0.0361
 8180W        W12231   0.794   8.304   1.182  0.2213  0.1951 -0.0773
 8181W        W12232   5.405   5.809   1.163  0.0575  0.0765  0.2937
 8182W        W12233   8.945   1.218  12.574  0.1746  0.2276  0.1374
 8183W        W12234   3.706   5.608   1.541  0.1948  0.0947  0.2833
 8184W        W12235   6.863   5.006   1.785  0.0363 -0.1752 -0.2915
 8185W        W12236   4.437   1.407   3.372  0.1498 -0.0591  0.3192
 8186W        W12237   2.018   0.215   2.378  0.2229 -0.5868  0.2520
 8187W        W12238   0.086   7.231   1.535  0.2153  0.1258 -0.1862
 8188W        W12239   6.829   7.302   1.909  0.2898 -0.3611  0.4289
 8189W        W12240   6.798   3.923  13.923 -0.0457 -0.1378  0.0269
 8190W        W12241   9.564   1.102  13.697 -0.2959 -0.2997  0.2207
 8191W        W12242   4.406  10.049  10.184  0.2882 -0.0856  0.0355
 8192W        W12243   2.185   4.120   9.714  0.0359  0.1347  0.0146
 8193W        W12244   6.149   8.223  13.115 -0.2337 -0.1853 -0.0336
 8194W        W12245   0.239   2.697   5.806  0.4053 -0.2563  0.1269
 8195W        W12246   4.884   9.195   9.916 -0.2116  0.1237  0.0678
 8196W        W12247   6.965   1.642  13.661  0.0964  0.0548 -0.0841
 8197W        W12248   2.186   5.357   0.170 -0.1016  0.1109 -0.0328
 8198W        W12249   0.404   8.924   2.078  0.0196 -0.1281 -0.1026
 8199W        W12250   5.521   7.712   4.643 -0.0999  0.1146 -0.3354
 8200W        W12251   4.128   4.136   9.187  0.0292  0.1827  0.1060
 8201W        W12252   5.342   8.520   1.397  0.0431  0.2508  0.0631
 8202W        W12253   9.520   6.616  10.373 -0.3479  0.0739  0.1221
 8203W        W12254   0.964   9.769  10.461 -0.1416 -0.2316  0.1217
 8204W        W12255   2.068   4.027   2.605 -0.0706  0.0682 -0.0863
 8205W        W12256   5.595   5.196   2.232  0.1641 -0.1726 -0.0537
 8206W        W12257   3.455   0.494   4.219 -0.1432 -0.1825  0.0462
 8207W        W12258   2.749   1.473  11.509 -0.0793 -0.1992 -0.1115
 8208W        W12259   1.531   8.946   1.464 -0.0204 -0.0570  0.0287
 8209W        W12260   3.931   2.795   1.232 -0.1791 -0.0979  0.1479
 8210W        W12261   9.356   6.575   0.949 -0.3338  0.1164 -0.0052
 8211W        W12262   5.325   2.078   4.529  0.1204 -0.0314 -0.2990
 8212W        W12263   1.780   2.381   4.348  0.0617 -0.4947 -0.2745
 8213W        W12264   8.210   2.845   1.717  0.0525  0.2790 -0.4433
 8214W        W12265   5.954   0.796  12.899  0.2499 -0.0515  0.3346
 8215W        W12266   6.033   7.717   3.584 -0.0764 -0.2082  0.0252
 8216W        W12267   1.221   8.771   3.973  0.0423 -0.2875 -0.3624
 8217W        W12268   3.992   0.394   4.908 -0.0846  0.0693  0.0838
 8218W        W12269   1.650   3.767   0.329 -0.1779  0.0326  0.1207
 8219W        W12270   5.623   3.575  13.083  0.0631 -0.0874  0.0767
 8220W        W12271   8.241   7.962   9.283 -0.0528  0.0330  0.0189
 8221W        W12272   4.870   5.366   4.729 -0.0563  0.2384 -0.0821
 8222W        W12273   4.157   2.482  13.671  0.1420 -0.2180  0.1143
 8223W        W12274   5.273   1.988  13.875  0.0386 -0.1508  0.0576
 8224W        W12275   8.505   2.594  11.419 -0.0479 -0.0708 -0.0363
 8225W        W12276   0.676   5.659   0.115  0.1017  0.2382  0.4494
 8226W        W12277   6.937   4.549   9.531 -0.0961  0.2846  0.0289
 8227W        W12278   9.308   0.690   9.431 -0.1211  0.0998 -0.1129
 8228W        W12279   3.639   0.197  13.713  0.1410 -0.2722  0.0592
 8229W        W12280   9.383   8.540  12.128 -0.0555  0.0273 -0.0434
 8230W        W12281   7.832   1.630  10.189  0.0626 -0.1296  0.1033
 8231W        W12282   2.856   5.554   2.048  0.1094  0.1159  0.1081
 8232W        W12283   3.101   5.127   1.151 -0.2301  0.2482  0.1060
 8233W        W12284   3.602   9.851   2.900  0.1880  0.1042 -0.1462
 8234W        W12285   5.219   9.195  12.585  0.2898  0.1473  0.0069
 8235W        W12286   5.506   8.811   2.486 -0.2563 -0.1531  0.1630
 8236W        W12287   8.576   7.102   1.236 -0.2877  0.0136 -0.2346
 8237W        W12288   1.891   0.639   1.413 -0.1801 -0.2292 -0.3610
 8238W        W12289   8.223   6.024  12.189  0.0142 -0.2231 -0.1401
 8239W        W12290   8.960   3.626   9.626  0.2572  0.0145 -0.1323
 8240W        W12291   8.527   5.413   1.148 -0.1243 -0.1721 -0.1395
 8241W        W12292   0.356   3.815   0.100  0.0538  0.0417  0.1795
 8242W        W12293   8.520   3.732  13.876 -0.0321 -0.1859  0.3202
 8243W        W12294   3.561   5.555  13.342  0.1542  0.2610  0.3642
 8244W        W12295   2.754   0.597  13.451 -0.0411  0.2596  0.0663
 8245W        W12296   0.959   4.650   0.632  0.2057  0.1530 -0.1625
 8246W        W12297   9.692   6.827  13.686 -0.4787  0.3156 -0.1783
 8247W        W12298   2.284   2.526  10.636  0.1784 -0.1367  0.0730
 8248W        W12299   9.974   5.148   9.410 -0.1283  0.0636 -0.4437
 8249W        W12300   9.246   2.397   0.696  0.1589 -0.3319 -0.2390
 8250W        W12301   7.617   5.544   8.870 -0.0201 -0.2531  0.0283
 8251W        W12302   7.767   3.565  10.539 -0.5219  0.0498 -0.0020
 8252W        W12303   1.709   1.928   4.034 -0.2715 -0.1414 -0.0212
 8253W        W12304   4.053   2.942  11.890  0.0502  0.0815 -0.0185
 8254W        W12305   3.521   8.657   9.992  0.4165 -0.1531 -0.0024
 8255W        W12306   6.629   5.547   8.602 -0.2238 -0.0858  0.0999
 8256W        W12307   7.873   9.335  13.486 -0.0900 -0.1486  0.0106
 8257W        W12308   0.039   9.666  11.319  0.6184  0.1811  0.0496
 8258W        W12309   9.387   2.383  13.335  0.1388  0.3819 -0.1995
 8259W        W12310   4.485   7.658   0.655 -0.0139  0.1201  0.0770
 8260W        W12311   4.894   9.224   1.496 -0.0542  0.1410  0.0283
 8261W        W12312   6.503   3.372   2.790  0.1069  0.0003  0.0158
 8262W        W12313   7.028   6.099   2.168 -0.2669  0.0371  0.2374
 8263W        W12314   4.723   6.201   9.780 -0.1911 -0.2317  0.3891
 8264W        W12315   8.364   3.704   3.530 -0.0253 -0.0573  0.1254
 8265W        W12316   8.186   9.447   2.677 -0.1088 -0.1303  0.1581
 8266W        W12317   7.527   4.153   5.283 -0.1117  0.2579 -0.2002
 8267W        W12318   5.449   0.765  10.350  0.1683 -0.0513  0.0422
 8268W        W12319   1.400   7.311   1.604 -0.0338 -0.3359  0.0035
 8269W        W12320   8.720   3.485  12.440  0.0536  0.0808  0.1488
 8270W        W12321   7.729   7.698   1.845  0.2065  0.2864 -0.0107
 8271W        W12322   1.525   2.537  11.021  0.0254 -0.0380 -0.3090
 8272W        W12323   1.693   7.684  11.812 -0.1208 -0.0640  0.1144
 8273W        W12324   6.209   7.243  13.185  0.0372  0.4050  0.3184
 8274W        W12325   3.015   6.632  11.315  0.0888  0.0625 -0.1941
 8275W        W12326   1.468   1.873  11.813 -0.0101 -0.0368  0.0952
 8276W        W12327   7.157   6.058   2.763  0.4181 -0.3648 -0.0775
 8277W        W12328   3.165   3.953   9.710 -0.1400  0.0178 -0.1843
 8278W        W12329   1.595   9.958  12.126  0.1745 -0.1641  0.2649
 8279W        W12330   9.027   3.299   1.182 -0.0584 -0.2504  0.1401
 8280W        W12331   3.311   3.280  11.544  0.0244 -0.0989 -0.1393
 8281W        W12332   3.171   2.290   0.284 -0.1439 -0.1469 -0.3915
 8282W        W12333   2.122   1.720   3.371 -0.2714  0.3713 -0.0051
 8283W        W12334   2.517   6.319  10.449  0.0559  0.1059  0.2322
 8284W        W12335   1.603   3.401   4.129 -0.1032 -0.1588 -0.3524
 8285W        W12336   4.534   6.655   2.140 -0.0280 -0.0415 -0.3536
 8286W        W12337   7.733   0.347   5.467 -0.2225  0.2266  0.0742
 8287W        W12338   8.519   4.492   1.401 -0.2493  0.0497  0.0658
 8288W        W12339   2.213   4.028   3.436 -0.1819  0.0180 -0.2299
 8289W        W12340   4.523   3.711   3.433  0.3145  0.2547 -0.0510
 8290W        W12341   9.108   5.378  11.207  0.4874  0.0503 -0.1381
 8291W        W12342   9.327   3.400   2.899 -0.1448  0.2387 -0.1016
 8292W        W12343   3.115   3.180   2.413 -0.2255 -0.1004 -0.1529
 8293W        W12344   2.014   8.000   3.242  0.1588 -0.1107 -0.2722
 8294W        W12345   0.303   3.217   0.251 -0.0145 -0.1286 -0.0486
 8295W        W12346   7.503   3.816   1.388  0.1565 -0.2526  0.1880
 8296W        W12347   6.505   5.182   4.022 -0.2786 -0.1533  0.0490
 8297W        W12348   6.164   4.518  10.125 -0.1245 -0.0150  0.1702
 8298W        W12349   9.128   8.560  13.048  0.1967 -0.2589 -0.1572
 8299W        W12350   6.357   0.706   3.166  0.1455  0.1530 -0.1617
 8300W        W12351   1.985   6.626  13.437 -0.2120  0.3226 -0.0174
 8301W        W12352   9.938   8.899  13.926 -0.1020 -0.4332  0.1346
 8302W        W12353   6.033   5.829   1.825 -0.1870  0.1784  0.1366
 8303W        W12354   5.721   1.214   4.340 -0.0185 -0.0725  0.1127
 8304W        W12355   2.087   8.415  13.282  0.0057  0.0730 -0.1859
 8305W        W12356   2.231   3.736   3.037  0.0113  0.2242  0.1423
 8306W        W12357   6.741   6.204   3.914  0.1924  0.1158  0.0979
 8307W        W12358   6.850   4.738   3.663 -0.0631  0.0524  0.2096
 8308W        W12359   7.088   6.654  11.650 -0.0168 -0.1587 -0.0138
 8309W        W12360   1.824   3.815   9.877  0.0263 -0.1998  0.0346
 8310W        W12361   5.689   0.162  12.002  0.1381 -0.1108 -0.2891
 8311W        W12362   4.845   7.424  11.785  0.1712 -0.0369  0.3674
 8312W        W12363   7.932   5.987   8.905  0.1461  0.1698 -0.0264
 8313W        W12364  10.057   7.923  12.867  0.1026  0.0458  0.0078
 8314W        W12365   9.133   5.685   0.490 -0.1012  0.2300 -0.1424
 8315W        W12366   9.779   2.171  12.227  0.0552  0.0973  0.0386
 8316W        W12367   7.724   2.050   2.547  0.0716  0.0549 -0.1257
 8317W        W12368   9.668   1.732   2.795  0.0347 -0.1873 -0.1145
 8318W        W12369   4.052   2.960  13.945  0.0080  0.0714 -0.5263
 8319W        W12370   4.843   5.223   3.266 -0.1109 -0.2943  0.0593
 8320W        W12371   3.738   4.962   0.553  0.0226  0.1539 -0.2019
 8321W        W12372   6.773   5.057   0.308 -0.0078 -0.1304 -0.2505
 8322W        W12373   9.629   4.646  11.659  0.4519 -0.2063 -0.0953
 8323W        W12374   5.865   0.276   2.930  0.1850  0.2678 -0.2189
 8324W        W12375   0.867   7.312  13.368  0.1316 -0.1185  0.0215
 8325W        W12376   7.471   0.949   4.498 -0.0925  0.1183  0.0607
 8326W        W12377   0.424   9.812  12.616  0.1231  0.1488  0.2373
 8327W        W12378   2.752   3.545   0.202 -0.1521  0.1067  0.3237
 8328W        W12379   5.123   9.574   4.781 -0.0345  0.1387  0.3738
 8329W        W12380   1.261   6.249  11.707  0.0820 -0.0226  0.0082
 8330W        W12381   3.690   5.473  11.147 -0.0422  0.0737 -0.0262
 8331W        W12382   9.585   4.702   9.892 -0.0593  0.1624  0.2827
 8332W        W12383   5.864   9.043   4.845  0.3690 -0.0421  0.5279
 8333W        W12384   5.707   1.450  14.010  0.2029 -0.1713 -0.2540
 8334W        W12385   7.700   2.681   1.489  0.0502 -0.0679 -0.1412
 8335W        W12386   7.510   7.131   0.039  0.0680 -0.2676 -0.0534
 8336W        W12387   7.354   4.892  10.792  0.3341 -0.1246 -0.0237
 8337W        W12388   9.506   4.410   1.415  0.2906 -0.0975  0.1675
 8338W        W12389   6.767   4.834   1.304  0.2399 -0.2951 -0.2407
 8339W        W12390   1.327   1.255  11.083 -0.0840  0.1338  0.3406
 8340W        W12391   6.638   1.094   2.823 -0.0568 -0.4370  0.0001
 8341W        W12392   7.761   6.734   0.398  0.1253  0.0115 -0.1299
 8342W        W12393   2.858   5.082  11.300 -0.2792 -0.0086  0.0249
 8343W        W12394   0.193   8.043   2.522  0.1749  0.0170 -0.4069
 8344W        W12395   7.493   0.470   4.349 -0.1409  0.0330  0.2741
 8345W        W12396   1.124   6.336   4.915  0.1742  0.1655  0.0847
 8346W        W12397   6.677   1.760   2.206  0.3251 -0.2627 -0.2407
 8347W        W12398   6.820   3.233  12.018 -0.0262 -0.2550  0.2089
 8348W        W12399   3.566   2.945  13.164 -0.1881 -0.3810  0.0317
 8349W        W12400   3.791   3.425   0.737 -0.1558 -0.1573  0.1876
 8350W        W12401   1.712   3.483   1.856 -0.1681  0.2021 -0.3502
 8351W        W12402   3.790   4.444  13.422 -0.1469  0.0273  0.0307
 8352W        W12403   8.436   4.222  13.823 -0.0055  0.0600 -0.0058
 8353W        W12404   0.020   7.533   9.776  0.0630  0.1974  0.0133
 8354W        W12405   1.161   9.135   1.720  0.1646  0.0224  0.0089
 8355W        W12406   3.487   5.351  12.871  0.1823 -0.1185  0.1451
 8356W        W12407   1.281  10.058  13.532 -0.1658  0.1435  0.0919
 8357W        W12408   4.995   9.484   2.867  0.1902  0.0461  0.3846
 8358W        W12409   5.238   0.138  11.688  0.1639  0.1366 -0.0601
 8359W        W12410   0.681   1.781   1.628  0.0920  0.1082 -0.0514
 8360W        W12411   1.389   2.893   3.782  0.1654 -0.0910 -0.1867
 8361W        W12412   9.491   9.314   0.720  0.2277  0.1792  0.1566
 8362W        W12413   8.124   9.051  12.209 -0.0363 -0.0230  0.0260
 8363W        W12414   0.083   8.370   3.455 -0.2904  0.5204  0.1980
 8364W        W12415   2.329   4.240  11.611 -0.0202  0.1507  0.1816
 8365W        W12416  10.095   3.580   4.630  0.1883 -0.3160 -0.0818
 8366W        W12417   6.509   0.305  12.996  0.0643  0.1943  0.0200
 8367W        W12418   9.228   0.306  13.524  0.2823  0.0211 -0.2018
 8368W        W12419   9.685   2.935   1.871  0.0084  0.2269 -0.3087
 8369W        W12420   9.207   1.365  12.149 -0.2515  0.1417  0.0764
 8370W        W12421   3.575   5.509   0.480 -0.0141  0.0085 -0.1309
 8371W        W12422   5.053   4.916   0.747  0.0709  0.1567 -0.0664
 8372W        W12423   3.950   3.092  12.856 -0.0258 -0.0116  0.0016
 8373W        W12424   7.495   9.805  10.490 -0.0029 -0.2285 -0.1537
 8374W        W12425   8.170   6.176   0.547  0.3310  0.0843 -0.3776
 8375W        W12426   2.656   0.061  10.414  0.3892 -0.0713 -0.3873
 8376W        W12427   9.603   1.081  13.008 -0.3248  0.0678 -0.0800
 8377W        W12428   9.431   2.395  11.981 -0.1711 -0.2079 -0.1782
 8378W        W12429   8.490   8.158   2.292  0.3219  0.0186 -0.3993
 8379W        W12430   2.731   5.531   5.122 -0.2941 -0.1538 -0.2498
 8380W        W12431   6.186   2.852   0.273  0.2073  0.1872 -0.3506
 8381W        W12432   2.326   7.599   3.342 -0.1218 -0.0212  0.0430
 8382W        W12433   3.549   0.568   1.914 -0.1287 -0.1295  0.0571
 8383W        W12434   8.313   0.496  13.313  0.3760 -0.4097 -0.0330
 8384W        W12435   0.513   0.732   0.599  0.1720 -0.2518  0.1037
 8385W        W12436   7.773   5.151   3.605  0.1039 -0.2018  0.0686
 8386W        W12437   8.300   8.358   3.634 -0.0834  0.0670 -0.1071
 8387W        W12438   6.490   1.025  10.714  0.4386 -0.0934  0.0674
 8388W        W12439   1.618   3.348   0.528 -0.0301 -0.0029 -0.1484
 8389W        W12440   4.001   2.303   0.074 -0.0147 -0.1995 -0.0768
 8390W        W12441   8.120   7.848  11.507 -0.0555 -0.2058  0.0195
 8391W        W12442   5.184   9.227   2.356 -0.2820 -0.2990  0.0850
 8392W        W12443   2.300   4.657   4.810  0.0218 -0.1830  0.2333
 8393W        W12444   9.341   6.155   4.828 -0.2364 -0.1316  0.2426
 8394W        W12445   4.839   3.962  13.374  0.0937 -0.0947  0.0505
 8395W        W12446   9.117   5.280  12.713  0.1691 -0.3324  0.0199
 8396W        W12447   4.266   3.295  10.132 -0.2177  0.0440 -0.3991
 8397W        W12448   4.506   0.590   2.313 -0.0987 -0.0022 -0.2108
 8398W        W12449   1.329   2.576   4.534 -0.5939  0.0906 -0.0313
 8399W        W12450   0.615   0.224   2.299 -0.0174  0.2447  0.0306
 8400W        W12451   1.248   9.253   3.333  0.0002  0.0323  0.3976
 8401W        W12452   8.831   5.628  13.663 -0.5136  0.0379  0.0000
 8402W        W12453   1.391   8.805  12.696  0.3147  0.0367  0.1524
 8403W        W12454   4.798   1.271   9.782 -0.1213 -0.1561  0.0665
 8404W        W12455   8.347   6.425  10.104 -0.4655  0.1150  0.0699
 8405W        W12456   5.419   6.098   4.146 -0.0182 -0.0320 -0.0613
 8406W        W12457   6.512   5.740   1.027 -0.2687  0.3184 -0.0922
 8407W        W12458   9.981   1.452  13.731 -0.3029  0.0926  0.1325
 8408W        W12459   2.489   2.111   5.138  0.0795  0.1262  0.1650
 8409W        W12460   8.249   7.683   4.322 -0.1792 -0.0030  0.0251
 8410W        W12461   8.575  10.104  10.122  0.1643  0.1045  0.1068
 8411W        W12462   2.255   7.037  13.631  0.0559 -0.2091  0.0411
 8412W        W12463   2.842   5.552   3.076  0.2867 -0.1933 -0.0636
 8413W        W12464   3.430   5.643   0.030  0.0128 -0.1729  0.0783
 8414W        W12465   2.819   3.443  11.468 -0.3639  0.0419 -0.0416
 8415W        W12466   7.625   5.524   4.420 -0.0099 -0.0949  0.2296
 8416W        W12467   6.847   6.994  10.481 -0.2017 -0.2115  0.0826
 8417W        W12468   2.134   8.846   2.164 -0.0286 -0.1099 -0.1704
 8418W        W12469   8.743   1.065   3.538  0.1443 -0.2993  0.2237
 8419W        W12470   8.176   8.583  11.002  0.0293  0.4638  0.3055
 8420W        W12471   2.756   9.698   0.465 -0.0446  0.0653 -0.0697
 8421W        W12472   5.261   7.507   9.601 -0.1353 -0.1459 -0.3147
 8422W        W12473   2.554   6.027  12.211 -0.0068  0.1606  0.3988
 8423W        W12474   1.071   7.132  12.814 -0.1097 -0.0145 -0.0549
 8424W        W12475   8.111   7.254  12.675 -0.1684  0.0958 -0.1056
 8425W        W12476   0.600   2.638  10.869 -0.0113 -0.0325 -0.1895
 8426W        W12477   1.761   2.782  14.023 -0.1232 -0.0528  0.1460
 8427W        W12478   3.592   9.642   2.369 -0.2513 -0.5215 -0.2511
 8428W        W12479   2.117   2.301  12.651  0.1838  0.0597  0.0501
 8429W        W12480   4.585   9.015   2.860  0.2169  0.0552 -0.0960
 8430W        W12481   6.783   7.396   1.108 -0.3388 -0.0220  0.3180
 8431W        W12482   2.059   2.471   1.848 -0.1193  0.0096 -0.1660
 8432W        W12483   6.062   4.516   1.407 -0.1517 -0.0427 -0.1810
 8433W        W12484   4.339   4.135   3.675 -0.0891  0.1685  0.0170
 8434W        W12485  10.047   2.873   3.120  0.0685  0.2847  0.0749
 8435W        W12486   5.792   1.350   1.244 -0.1483  0.1176  0.1952
 8436W        W12487   6.784   6.389  11.157  0.0425 -0.0384  0.0227
 8437W        W12488   4.918   3.823   9.796 -0.2451  0.0263  0.0601
 8438W        W12489   2.489   5.827   4.652  0.0320  0.0345 -0.0953
 8439W        W12490   9.557   1.552   1.676  0.2970  0.0419 -0.0836
 8440W        W12491   2.659   6.925  11.902 -0.3832  0.0457 -0.1162
 8441W        W12492  10.062   0.470   0.874  0.3693  0.0516  0.4726
 8442W        W12493   1.185   3.783  10.675 -0.1093  0.0465  0.2645
 8443W        W12494   9.771   1.111   1.634 -0.1988 -0.2308 -0.0762
 8444W        W12495   8.184   5.853   1.239 -0.2573  0.1527  0.1769
 8445W        W12496   0.083   6.331   0.117  0.1264 -0.1301  0.0637
 8446W        W12497   8.736   2.475   8.779  0.1824  0.0117 -0.0068
 8447W        W12498   8.368   9.446  13.377  0.0267  0.0313 -0.2923
 8448ION    NA+12499   8.623   2.370   0.978  0.1001 -0.0876 -0.0566
 8449ION    NA+12500   9.256   2.726   3.769 -0.0846 -0.2367  0.0611
 8450ION    NA+12501   0.759   0.564  11.717 -0.0880 -0.0136  0.0966
 8451ION    NA+12502   0.424   3.307   3.724 -0.1194  0.2897 -0.4581
 8452ION    NA+12503   9.107   0.248   3.267  0.2545 -0.0354 -0.3809
 8453ION    NA+12504   4.404   5.517   2.269 -0.2650  0.2986  0.1213
 8454ION    NA+12505   5.115   0.692   5.176  0.1400 -0.2221 -0.1816
 8455ION    NA+12506   5.431   5.094   5.166 -0.1335  0.0957 -0.0416
 8456ION    NA+12507   6.175   4.987   5.159  0.0291 -0.0255 -0.1924
 8457ION    NA+12508   7.815   1.095  10.314 -0.0371 -0.3968 -0.0471
 8458ION    NA+12509   7.705   4.758  13.792  0.0835  0.2144 -0.2974
 8459ION    NA+12510   9.980   0.816   3.587  0.2620  0.0655  0.0580
 8460ION    NA+12511   3.092   7.007  10.330  0.1875 -0.0013  0.0531
 8461ION    NA+12512   2.549   7.070   1.520 -0.2508 -0.0923  0.4102
 8462ION    NA+12513   3.065   6.399   3.033 -0.1609 -0.1722  0.1215
 8463ION    NA+12514   5.817   5.590   2.406 -0.1880 -0.1410  0.0909
 8464ION    NA+12515   9.766   7.865  11.765 -0.0824 -0.1743 -0.2232
 8465ION    NA+12516   5.730   1.923   3.115 -0.0657  0.0299  0.0935
 8466ION    NA+12517   5.923   9.499   2.899 -0.1453  0.2514  0.0699
 8467ION    NA+12518  10.066   9.011   9.763 -0.1937  0.2616 -0.2174
 8468ION    NA+12519   3.842   4.552   5.282  0.0061  0.3006 -0.0645
 8469ION    NA+12520   5.071   3.754   8.981  0.1804  0.1859  0.2711
 8470ION    NA+12521   6.115   7.880   8.584  0.1581 -0.1949  0.1169
 8471ION    NA+12522   5.729   8.476   1.087  0.2604  0.1337 -0.0639
 8472ION    NA+12523   1.772   0.736  10.341  0.0262 -0.3657 -0.0092
 8473ION    NA+12524   2.620   3.080   0.198 -0.1020  0.0386  0.1165
 8474ION    NA+12525   9.943   4.524   1.642 -0.3425 -0.1653 -0.1044
 8475ION    NA+12526   2.522  10.083   3.687  0.2032 -0.1091 -0.3457
 8476ION    NA+12527   9.938   1.172   4.595  0.2058 -0.4152 -0.0041
 8477ION    NA+12528   7.351   6.354   1.880  0.0236 -0.1748  0.0984
 8478ION    NA+12529   2.898   8.186   3.783  0.1250 -0.0429  0.5003
 8479ION    NA+12530   7.372   2.898  10.082 -0.0149  0.1178  0.0560
 8480ION    NA+12531   4.342   9.562  12.473 -0.0700  0.1088  0.1417
 8481ION    NA+12532   0.365   1.215   2.583  0.1341 -0.1473  0.1003
 8482ION    NA+12533  10.083   9.003  12.113  0.1249 -0.4311  0.1604
 8483ION    NA+12534   4.666   6.919   5.120  0.0186 -0.0908  0.0004
 8484ION    NA+12535   5.688   4.554   1.704 -0.1595 -0.0830 -0.1397
 8485ION    NA+12536   2.528   4.688  13.934 -0.1405 -0.0122  0.1555
 8486ION    NA+12537   9.316   9.496  12.042 -0.0595  0.0117 -0.0783
 8487ION    NA+12538   7.844   3.911  12.571  0.0157  0.0103 -0.4382
 8488ION    NA+12539   6.951   0.947   0.759 -0.1403  0.3093 -0.2219
 8489ION    NA+12540   6.967   1.193   9.148  0.0295  0.1971  0.1884
 8490ION    NA+12541   5.104   2.003   9.003 -0.1605  0.0973 -0.1106
 8491ION    NA+12542   3.818   0.144   2.832 -0.1833  0.1405 -0.1222
 8492ION    NA+12543   5.451   6.407   8.808  0.2397  0.0688  0.1838
 8493ION    NA+12544   9.342   5.658  11.531 -0.0247 -0.0180  0.1669
 8494ION    NA+12545   9.851  10.116   1.534 -0.0521  0.2144 -0.1270
 8495ION    NA+12546   8.702   3.386   8.863  0.2552  0.1423 -0.0554
 8496ION    NA+12547   9.337   1.502  12.981  0.1914 -0.2908 -0.1340
 8497ION    NA+12548   3.727   2.278  12.288  0.0698 -0.0163  0.2569
 8498ION    NA+12549   3.168   4.201   1.530  0.0308 -0.0492 -0.3380
 8499ION    NA+12550   6.343   6.297  10.662 -0.0406 -0.0441 -0.0557
 8500ION    NA+12551   4.493   5.756  11.259  0.0638 -0.3091  0.0994
 8501ION    NA+12552   9.162   5.628  12.346 -0.0632 -0.1722 -0.3338
 8502ION    NA+12553   9.473   3.492   2.110  0.1883 -0.0292 -0.0683
 8503ION    NA+12554   4.042   7.204   1.390  0.0142 -0.0104  0.1321
 8504ION    NA+12555   1.891   4.268  10.898 -0.1473  0.0266  0.4686
 8505ION    NA+12556   1.241   9.432   0.687 -0.3314 -0.0360 -0.2821
 8506ION    NA+12557   4.601   7.072  12.869 -0.2660 -0.1502 -0.0211
 8507ION    NA+12558   2.654   7.686   2.836  0.3382 -0.2544  0.1094
 8508ION    NA+12559   7.190   2.077   1.238 -0.0981 -0.2783  0.0511
 8509ION    NA+12560   1.991   5.770  11.207 -0.1004 -0.2573 -0.0574
 8510ION    NA+12561   7.500   2.341  13.924  0.1230 -0.0924  0.1001
 8511ION    NA+12562   8.051   3.946   5.564  0.0090  0.3517 -0.1670
 8512ION    NA+12563   5.133   2.876   2.078 -0.0347 -0.2651  0.0980
 8513ION    NA+12564   6.924   0.586  13.746  0.1457 -0.1218  0.3409
 8514ION    NA+12565   3.101   7.176  12.781  0.3303 -0.1445  0.2431
 8515ION    NA+12566   9.061   9.978   4.951  0.1328  0.3069  0.1807
 8516ION    NA+12567   1.019   8.107   1.619 -0.1030 -0.0404  0.2406
 8517ION    NA+12568  10.097   1.303   9.731 -0.3161 -0.1574  0.2497
 8518ION    NA+12569   9.173   4.079  12.932  0.1504  0.1575 -0.0164
 8519ION    NA+12570   4.661   3.500   5.482  0.0034  0.0724 -0.2309
 8520ION    NA+12571   5.395   9.723  12.546 -0.0837  0.1095  0.0341
 8521ION    NA+12572   0.641   6.648   4.270  0.1428  0.3032 -0.1722
 8522ION    NA+12573   0.604   0.641  10.382  0.1526 -0.1823 -0.0387
 8523ION    NA+12574   8.260   2.144   0.244  0.0979 -0.1631  0.1092
 8524ION    NA+12575   5.692   7.222   2.864  0.0043 -0.1995 -0.0439
 8525ION    NA+12576   8.373   1.216   3.908 -0.0526  0.1079  0.1754
 8526ION    NA+12577   5.111   4.400  13.270  0.4191  0.4842  0.0067
 8527ION    NA+12578   5.675   3.435   2.004  0.3556  0.0232 -0.3037
 8528ION    NA+12579   8.390   0.919  12.435  0.1534 -0.0922  0.0673
 8529ION    NA+12580   2.712   4.140   3.406  0.1637  0.0227 -0.0201
 8530ION    NA+12581   0.840   1.565  10.091  0.2795  0.1413 -0.3786
 8531ION    NA+12582   7.153   6.423  13.664 -0.1380  0.0472 -0.0675
 8532ION    NA+12583   0.654   1.338   3.339  0.0118  0.1063 -0.2453
 8533ION    NA+12584   7.907   8.259  11.773 -0.4160 -0.0458 -0.3081
 8534ION    NA+12585   2.831   9.164  10.787  0.0722  0.0838  0.1469
 8535ION    NA+12586   3.144   5.032   1.897  0.1497  0.1240  0.0358
 8536ION    NA+12587   7.824   1.984  13.203 -0.2944 -0.1997 -0.0225
 8537ION    CL-12588   6.130   7.858   1.426  0.5178  0.0243  0.1283
 8538ION    CL-12589   8.935   6.382   4.356 -0.0220  0.1136 -0.0997
 8539ION    CL-12590   3.236   4.146  10.156 -0.0884  0.1295 -0.2591
 8540ION    CL-12591   6.395   2.895  11.862  0.0928  0.2343  0.0278
 8541ION    CL-12592   8.209   4.304  12.675  0.0700  0.0763 -0.4239
 8542ION    CL-12593   8.020   2.814   4.416  0.2148 -0.0652  0.0271
 8543ION    CL-12594   7.180  10.111  13.735 -0.1621 -0.0851 -0.3212
 8544ION    CL-12595   5.615   2.216   3.497  0.0893 -0.0884 -0.2283
 8545ION    CL-12596   0.253   9.304   3.152  0.0287 -0.3551  0.1133
 8546ION    CL-12597  10.028   0.293  13.119  0.1256 -0.2661 -0.3035
 8547ION    CL-12598   0.588   0.858  11.306  0.2398  0.0214  0.2348
 8548ION    CL-12599   6.478   7.261  10.653  0.1036  0.2843 -0.4275
 8549ION    CL-12600   0.774   1.064   3.733 -0.0242  0.0832 -0.1882
 8550ION    CL-12601   3.042   7.490   3.707  0.1484  0.2129 -0.1046
 8551ION    CL-12602   1.826   8.516  11.993  0.3664  0.1959  0.0211
 8552ION    CL-12603   7.441   3.560  12.702 -0.2771  0.1950 -0.0744
 8553ION    CL-12604   1.379   9.641   2.859 -0.0757 -0.0328 -0.0165
 8554ION    CL-12605   0.838   1.269   2.859  0.4126 -0.0523 -0.3014
 8555ION    CL-12606   3.442   7.394  13.021 -0.1017 -0.1455  0.2572
 8556ION    CL-12607   0.210   1.258   3.093  0.1503 -0.4342 -0.0105
 8557ION    CL-12608   3.562   2.571   4.046  0.0333  0.1612  0.1330
 8558ION    CL-12609   7.899   0.717   4.658  0.2512  0.0300  0.2655
 8559ION    CL-12610   3.349   4.500   1.971  0.2041 -0.0276 -0.0766
 8560ION    CL-12611   5.662   9.331  12.377 -0.0399 -0.1495  0.3025
 8561ION    CL-12612   9.026   3.754   1.998 -0.0829 -0.0523 -0.0734
 8562ION    CL-12613   6.682   6.472  10.343  0.0417  0.2221 -0.2526
 8563ION    CL-12614   4.153   8.261  10.531 -0.1847 -0.2183  0.1102
 8564ION    CL-12615   5.718   1.713   1.946  0.0483 -0.0246 -0.2234
 8565ION    CL-12616  10.087   7.789  11.284  0.1125  0.0997  0.2366
 8566ION    CL-12617   2.644   5.025   9.807 -0.0010 -0.1756 -0.0185
 8567ION    CL-12618   2.133   7.711   2.861  0.4068 -0.2029  0.1731
 8568ION    CL-12619   7.290   0.032   4.705  0.0820  0.1940 -0.1757
 8569ION    CL-12620   3.068   4.631  13.131  0.0908 -0.0819  0.3664
 8570ION    CL-12621   4.792   6.841   9.863  0.0270  0.3592 -0.0094
 8571ION    CL-12622   4.118   6.744   1.101  0.0344 -0.1032 -0.0376
 8572ION    CL-12623   8.197   6.955   4.361  0.0204  0.0051 -0.1832
 8573ION    CL-12624   3.048   6.276   2.503  0.1454  0.2538 -0.1438
 8574ION    CL-12625   3.141   8.802  10.667  0.1276  0.0236 -0.1462
 8575ION    CL-12626   6.099   4.456   2.022 -0.0194  0.2030  0.1634
 8576ION    CL-12627   6.616   0.539  12.213 -0.2279 -0.1141 -0.1286
 8577ION    CL-12628   0.104   1.039   3.926  0.1741 -0.2293 -0.2820
 8578ION    CL-12629   8.887   6.764   9.749  0.0175 -0.0023  0.0503
 8579ION    CL-12630   2.206   1.232   0.374 -0.0848  0.1962 -0.1102
 8580ION    CL-12631   4.587   6.075  10.303  0.0137 -0.1314 -0.0901
 8581ION    CL-12632   8.018   2.450  13.903  0.1290  0.4200  0.0597
 8582ION    CL-12633   1.069   8.616   1.591 -0.0056  0.1136 -0.1475
 8583ION    CL-12634   3.156   8.084   0.627 -0.0211  0.0602  0.0239
 8584ION    CL-12635   3.923   9.941   2.019 -0.0015 -0.1446 -0.2094
 8585ION    CL-12636   2.278   6.652   1.424  0.0861 -0.1434 -0.2221
 8586ION    CL-12637   7.279   5.278   2.003  0.1602  0.1649 -0.0622
 8587ION    CL-12638   2.090   8.978   1.386  0.3405 -0.1360  0.0129
 8588ION    CL-12639   0.129   3.956   9.564 -0.3569 -0.0611  0.1461
 8589ION    CL-12640   4.507   4.395   4.116  0.2538  0.2621  0.1792
 8590ION    CL-12641   8.382   0.901  10.027  0.0036 -0.1914  0.1595
 8591ION    CL-12642   1.951   6.060  10.660 -0.1951  0.2895  0.0690
 8592ION    CL-12643   3.320   5.504   1.838  0.5002 -0.1827  0.0090
 8593ION    CL-12644  10.103   8.876   3.942 -0.1672  0.3664  0.5548
 8594ION    CL-12645   7.451   8.675   4.105  0.1470  0.0422 -0.2842
 8595ION    CL-12646   6.447   9.321   2.853 -0.2875 -0.0010  0.4248
 8596ION    CL-12647   0.828   3.628   9.763  0.0650 -0.1101  0.0393
 8597ION    CL-12648   4.876   8.827   1.181 -0.1619  0.1664 -0.1325
 8598ION    CL-12649   7.750   2.023  13.685  0.0019  0.1051  0.4928
 8599ION    CL-12650   7.235   8.903   9.828 -0.1998 -0.1893  0.0946
 8600ION    CL-12651   4.360   5.875  11.911  0.4809 -0.2656  0.1289
 8601ION    CL-12652   0.401   6.710  10.128 -0.0014  0.0252  0.2395
 8602ION    CL-12653   9.582   9.058  12.021 -0.1673 -0.0466  0.0206
 8603ION    CL-12654   9.703   6.435  10.852 -0.4574 -0.1114  0.1418
 8604ION    CL-12655   5.584   5.813   3.112 -0.2689  0.0994  0.2574
 8605ION    CL-12656   7.388   0.791  10.237 -0.2057  0.1236  0.3227
 8606ION    CL-12657   4.076   0.652   2.048  0.0772 -0.1500 -0.0937
 8607ION    CL-12658   2.050   4.806  13.774 -0.1831  0.0353  0.0667
 8608ION    CL-12659   4.390   2.564   4.593  0.0873  0.2434 -0.0311
 8609ION    CL-12660   6.372   6.030   4.452  0.0947  0.1436  0.2326
 8610ION    CL-12661   0.971   6.065   4.011  0.1615 -0.0022 -0.0491
 8611ION    CL-12662   9.959   2.793   3.739 -0.2050  0.0997  0.1835
 8612ION    CL-12663   7.119   4.313  13.706  0.1330  0.1304 -0.2431
 8613ION    CL-12664   8.706   0.879   4.138 -0.1152  0.1001  0.1469
 8614ION    CL-12665   1.717   0.686  11.242 -0.2345 -0.1354  0.1800
 8615ION    CL-12666   3.568   6.875  12.151  0.2412  0.2126 -0.0927
 8616ION    CL-12667   2.484   4.323   0.201  0.1070  0.0458  0.0616
 8617ION    CL-12668   8.553   2.521   0.499 -0.3831  0.1391 -0.1128
 8618ION    CL-12669   7.152   0.441   0.777  0.0847 -0.1307 -0.1259
 8619ION    CL-12670   3.936   9.499  12.224  0.0173  0.1510  0.2102
 8620ION    CL-12671   1.613   7.445  11.274  0.1519  0.0841  0.2137
 8621ION    CL-12672   4.755   9.835  12.348 -0.0054  0.0808  0.1924
 8622ION    CL-12673   0.931   9.073   0.434  0.1468 -0.1796 -0.0834
 8623ION    CL-12674   2.990   3.032   0.527  0.0605  0.0740  0.0268
 8624ION    CL-12675   9.078   5.883  11.070 -0.2988 -0.1794  0.0210
 8625ION    CL-12676   5.391   2.671   1.699  0.1921 -0.1767  0.0189
  10.16121  10.16121  14.04863
