Protein in INSANE! Membrane UpperLeaflet>POPC=1.0 LowerLeaflet>POPC=1.0
10365
    1AU     AUC    1   0.908   1.017   6.323  0.0789  0.0381 -0.0146
    1AU     AUC    2   0.991   0.545   6.414  0.0227  0.0136 -0.0265
    1AU     AUC    3   0.773   0.574   6.637 -0.0316 -0.0210 -0.0085
    1AU     AUC    4   1.132   1.102   6.395 -0.0448  0.0537 -0.0875
    1AU     AUC    5   1.096   1.158   6.722  0.0340 -0.0283 -0.0146
    1AU     AUC    6   1.048   0.879   6.819 -0.0486 -0.0464 -0.0722
    1AU     AUC    7   0.852   0.753   6.463 -0.0525 -0.0337  0.0470
    1AU     AUC    8   0.895   1.021   6.317  0.0452  0.0346  0.0218
    1AU     AUC    9   0.578   0.734   6.537 -0.0369  0.0333 -0.0343
    1AU     AUC   10   0.945   0.991   6.571  0.0983  0.1406 -0.0103
    1AU     AUC   11   0.795   0.828   6.717 -0.0038  0.1453 -0.0303
    1AU     AUC   12   0.902   0.990   6.285  0.0664 -0.0020  0.0122
    1AU     AUC   13   1.094   0.844   6.372  0.0242 -0.0679 -0.0270
    1AU     AUC   14   1.031   0.468   6.512  0.0187 -0.0457 -0.0371
    1AU     AUC   15   1.109   0.357   6.556  0.0129  0.0206  0.0371
    1AU     AUC   16   0.780   0.553   6.629  0.0317  0.0194 -0.1089
    1AU     AUC   17   1.155   1.121   6.403 -0.0221 -0.0561 -0.1129
    1AU     AUC   18   1.169   1.194   6.479  0.1659  0.0787 -0.0131
    1AU     AUC   19   1.080   1.218   6.692  0.0053  0.0345 -0.0046
    1AU     AUC   20   1.035   0.892   6.832  0.0493 -0.0740 -0.0696
    1AU     AUC   21   0.823   0.784   6.444  0.0416 -0.0219 -0.0643
    1AU     AUC   22   0.834   0.768   6.454 -0.0104  0.0420 -0.0961
    1AU     AUC   23   0.898   1.239   6.463 -0.1664 -0.1217  0.0678
    1AU     AUC   24   0.570   0.761   6.535 -0.0939  0.0059 -0.0665
    1AU     AUC   25   0.536   0.444   6.575  0.0154 -0.0875  0.0233
    1AU     AUC   26   0.952   0.980   6.578  0.0758 -0.0290 -0.0273
    1AU     AUC   27   0.969   0.970   6.577  0.0305  0.0054  0.0130
    1AU     AUC   28   0.775   0.842   6.729  0.0170 -0.0561 -0.0519
    1AU     AUC   29   0.900   0.690   6.181  0.1023 -0.0948  0.0643
    1AU     AUC   30   1.100   0.807   6.368  0.0402 -0.0744 -0.0139
    1AU     AUC   31   1.108   0.828   6.382  0.0638  0.0461  0.0388
    1AU     AUC   32   0.768   0.563   6.653 -0.0270 -0.0934  0.0784
    1AU     AUC   33   0.648   0.972   6.409  0.1181 -0.0863  0.0504
    1AU     AUC   34   1.031   0.567   6.358  0.0330 -0.0277  0.0528
    1AU     AUC   35   1.022   0.550   6.394  0.0158 -0.0787 -0.0285
    1AU     AUC   36   0.972   1.000   6.588 -0.0330 -0.0015  0.0330
    1AU     AUC   37   1.108   1.135   6.742  0.0499 -0.0744 -0.0303
    1AU     AUC   38   0.974   0.961   6.072  0.0227  0.1204  0.0218
    1AU     AUC   39   1.109   0.846   6.388  0.0056  0.0358  0.0319
    1AU     AUC   40   1.010   0.692   6.610 -0.0263  0.0082  0.0819
    1AU     AUC   41   1.019   0.708   6.616  0.0232  0.0219  0.0228
    1AU     AUC   42   1.196   1.122   6.464 -0.0922  0.0460 -0.0006
    1AU     AUC   43   1.107   1.185   6.772 -0.0284 -0.0532  0.0300
    1AU     AUC   44   0.872   0.350   6.506  0.1612  0.0639  0.0043
    1AU     AUC   45   0.743   0.540   6.651 -0.0314 -0.0299 -0.0057
    1AU     AUC   46   1.200   1.044   6.217 -0.0761 -0.0499 -0.0850
    1AU     AUC   47   1.020   1.331   6.498 -0.0503 -0.0125 -0.0070
    1AU     AUC   48   0.777   0.839   6.744 -0.0241  0.0395 -0.0068
    1AU     AUC   49   0.763   0.833   6.711  0.0392 -0.0248  0.0112
    1AU     AUC   50   0.804   1.167   6.528  0.0056  0.0626  0.0402
    1AU     AUC   51   0.561   0.759   6.567  0.0213  0.0619 -0.0582
    1AU     AUC   52   1.056   0.881   6.814 -0.0170 -0.1436 -0.0099
    1AU     AUC   53   0.829   0.777   6.435 -0.0458  0.0406 -0.0091
    1AU     AUC   54   0.887   0.797   6.173 -0.0239  0.0236  0.0632
    1AU     AUC   55   0.872   0.664   6.201  0.0267 -0.0315 -0.0776
    1AU    AUSL   56   0.437   0.571   6.363 -0.0448 -0.0549  0.0463
    1AU    AUSL   57   0.644   0.722   6.945  0.0007  0.0269 -0.0306
    1AU     AUL   58   0.536   0.635   6.809  0.0234 -0.0389 -0.0244
    1AU       S   59   0.330   0.592   7.309 -0.0376  0.0987  0.3095
    1AU     LIG   60  -0.119   0.416   7.479  0.1962 -0.2024 -0.1570
    1AU     LIG   61  -0.473   0.320   7.445 -0.0671 -0.3095  0.0545
    1AU     LIG   62  -0.916   0.232   7.366  0.0858 -0.3306  0.0632
    1AU       S   63   0.017   0.349   6.324 -0.1563 -0.1525  0.0668
    1AU     LIG   64  -0.383   0.179   6.416 -0.2394 -0.0799  0.1266
    1AU     LIG   65  -0.720  -0.103   6.428 -0.3139  0.4846  0.1321
    1AU     LIG   66  -1.054  -0.132   6.298 -0.2193 -0.2475 -0.3076
    1AU    AUSL   67   1.150   0.527   6.766 -0.0615  0.0377 -0.0771
    1AU    AUSL   68   1.300   0.746   6.802 -0.0805 -0.0220 -0.0997
    1AU     AUL   69   1.161   0.492   6.801 -0.0273  0.0962  0.0584
    1AU       S   70   0.124   0.186   6.525 -0.5651 -0.2168  0.3674
    1AU     LIG   71   0.040  -0.176   6.696 -0.0944 -0.1970 -0.1009
    1AU     LIG   72   0.270  -0.305   7.011  0.2489 -0.1752  0.0021
    1AU     LIG   73   0.564  -0.380   7.391 -0.1108  0.3035  0.2834
    1AU       S   74   1.582   0.663   7.254 -0.1181  0.1544 -0.3773
    1AU     LIG   75   1.847   0.436   7.609 -0.0982  0.2642  0.1909
    1AU     LIG   76   2.182   0.344   7.896 -0.4073 -0.2238 -0.1487
    1AU     LIG   77   2.370   0.285   8.281 -0.1380  0.0208  0.0537
    1AU    AUSL   78   0.638   0.983   6.399  0.0832 -0.0113  0.0621
    1AU    AUSL   79   1.145   0.752   6.116 -0.0153  0.0520 -0.0484
    1AU     AUL   80   0.680   0.736   5.979 -0.0503 -0.0703 -0.0304
    1AU       S   81  -0.109   0.594   6.404 -0.0324 -0.1940 -0.0613
    1AU     LIG   82  -0.538   0.656   6.659 -0.1427  0.1788  0.1105
    1AU     LIG   83  -0.785   0.542   6.992 -0.0413 -0.1407 -0.1040
    1AU     LIG   84  -1.094   0.742   7.193 -0.2612 -0.1466 -0.0622
    1AU       S   85   0.317   0.701   5.686  0.0314 -0.4628 -0.3589
    1AU     LIG   86   0.095   0.853   5.452 -0.0855  0.0921 -0.1822
    1AU     LIG   87  -0.370   0.948   5.313  0.3189 -0.0940 -0.1104
    1AU     LIG   88  -0.533   1.265   5.058  0.5035  0.1399  0.3099
    1AU    AUSL   89   1.329   0.305   6.362  0.0180  0.0083 -0.1063
    1AU    AUSL   90   0.844   0.504   5.986 -0.0265 -0.0687  0.0569
    1AU     AUL   91   1.064   0.213   6.020 -0.0373 -0.0201  0.0176
    1AU       S   92   1.605   0.131   6.127  0.1888 -0.0762 -0.0765
    1AU     LIG   93   1.468  -0.269   5.890 -0.1088 -0.1806 -0.3713
    1AU     LIG   94   1.601  -0.631   5.679  0.0373 -0.0197  0.2389
    1AU     LIG   95   1.759  -1.058   5.594 -0.1897 -0.0871  0.3458
    1AU       S   96   0.562   0.013   5.948 -0.3619  0.1896  0.1377
    1AU     LIG   97   0.387  -0.459   6.032 -0.4363 -0.1341 -0.0899
    1AU     LIG   98   0.231  -0.823   6.213  0.2970 -0.0880 -0.0517
    1AU     LIG   99   0.176  -1.188   6.538 -0.2807  0.1754 -0.0729
    1AU    AUSL  100   1.264   0.575   6.282  0.0656 -0.0278  0.0421
    1AU    AUSL  101   0.926   0.618   6.858 -0.0525  0.0074  0.0335
    1AU     AUL  102   1.282   0.442   6.369  0.0507 -0.0230  0.0792
    1AU       S  103   1.528  -0.037   6.940 -0.1328 -0.3065  0.2342
    1AU     LIG  104   1.347  -0.099   7.361  0.0331 -0.1810  0.0071
    1AU     LIG  105   0.927   0.093   7.595  0.4724 -0.1901 -0.2832
    1AU     LIG  106   0.619  -0.051   7.823  0.1727 -0.1788  0.0681
    1AU       S  107   1.736   0.411   6.013 -0.2767  0.3016  0.1908
    1AU     LIG  108   2.110   0.072   6.119  0.0376 -0.0419 -0.4874
    1AU     LIG  109   2.491  -0.164   5.923  0.3010 -0.1035 -0.5481
    1AU     LIG  110   2.799  -0.547   5.816  0.0816  0.0154  0.0755
    1AU    AUSL  111   1.092   0.490   6.090  0.0752 -0.0656  0.0566
    1AU    AUSL  112   1.000   0.994   6.035  0.1025 -0.0936 -0.0387
    1AU     AUL  113   1.409   0.793   6.054  0.0308 -0.0536 -0.0569
    1AU       S  114   0.614   1.770   6.090  0.1618  0.4506 -0.2001
    1AU     LIG  115   0.446   2.243   6.328 -0.0065 -0.1148 -0.1529
    1AU     LIG  116   0.346   2.703   6.372  0.0210 -0.1107 -0.0623
    1AU     LIG  117   0.600   3.062   6.114  0.0489  0.3049  0.0443
    1AU       S  118   1.491   0.232   5.811 -0.1424 -0.1475 -0.0104
    1AU     LIG  119   1.607   0.244   5.373  0.2289 -0.1609 -0.2404
    1AU     LIG  120   1.914   0.549   5.261 -0.1815 -0.3562  0.1043
    1AU     LIG  121   2.067   0.865   5.493  0.0760 -0.3329 -0.0783
    1AU    AUSL  122   1.304   1.009   6.876 -0.0099  0.0517 -0.0009
    1AU    AUSL  123   0.849   0.908   7.016  0.0339  0.1206  0.0633
    1AU     AUL  124   1.119   0.897   7.176  0.0216 -0.0591  0.0728
    1AU       S  125   1.637   0.774   7.277  0.2328 -0.0769  0.0579
    1AU     LIG  126   2.073   0.735   7.236 -0.1594 -0.0563  0.1221
    1AU     LIG  127   2.391   0.690   7.558  0.0433 -0.0989  0.2734
    1AU     LIG  128   2.742   0.481   7.727 -0.0022  0.0080  0.1505
    1AU       S  129   0.704   1.081   7.479 -0.2849  0.8482  0.1700
    1AU     LIG  130   0.636   1.170   7.902 -0.1489 -0.0110 -0.2506
    1AU     LIG  131   0.295   1.002   8.218 -0.1418 -0.0742  0.1015
    1AU     LIG  132   0.099   1.023   8.669  0.0548  0.2001 -0.2227
    1AU    AUSL  133   0.704   0.551   6.384  0.0394  0.1368 -0.0238
    1AU    AUSL  134   1.368   1.181   6.664  0.0167  0.0256 -0.0305
    1AU     AUL  135   1.376   0.820   6.347 -0.0278  0.0778 -0.0574
    1AU       S  136   1.187   1.927   6.585 -0.3640  0.1212  0.0418
    1AU     LIG  137   1.321   2.360   6.750  0.0409  0.0347 -0.0813
    1AU     LIG  138   1.287   2.785   6.849  0.3282 -0.0873  0.4665
    1AU     LIG  139   0.871   2.992   6.993 -0.1598  0.1878 -0.4601
    1AU       S  140   1.464   0.380   7.219 -0.5037  0.1281  0.1302
    1AU     LIG  141   1.377   0.363   7.612 -0.3242  0.0996 -0.0107
    1AU     LIG  142   1.111   0.542   7.988 -0.2234  0.1610 -0.2755
    1AU     LIG  143   0.904   0.945   8.271 -0.6114  0.0356 -0.4044
    1AU    AUSL  144   0.730   1.228   6.269 -0.0699 -0.0099  0.0590
    1AU    AUSL  145   0.795   0.957   5.864 -0.0013 -0.1064  0.0509
    1AU     AUL  146   0.689   1.220   6.248  0.0383 -0.0136  0.0590
    1AU       S  147   0.482   1.732   6.262 -0.1611 -0.1879  0.3009
    1AU     LIG  148   0.149   1.919   6.081  0.1161 -0.1347  0.5113
    1AU     LIG  149  -0.233   1.946   6.159  0.1896  0.1712 -0.0566
    1AU     LIG  150  -0.610   2.199   6.071 -0.0907 -0.3267 -0.1695
    1AU       S  151   1.060   1.171   5.451  0.1715 -0.2315 -0.0937
    1AU     LIG  152   0.940   1.400   5.054  0.2376 -0.0579  0.1423
    1AU     LIG  153   0.739   1.622   4.657 -0.2263 -0.1065  0.1179
    1AU     LIG  154   0.560   2.105   4.498 -0.3444  0.2557  0.2013
    1AU    AUSL  155   0.843   1.103   6.803 -0.0864 -0.0611 -0.0723
    1AU    AUSL  156   1.404   1.072   6.417 -0.0800 -0.0219  0.0576
    1AU     AUL  157   0.835   1.117   6.795 -0.0315  0.1899 -0.0166
    1AU       S  158   1.873   1.108   6.132 -0.5339  0.1924 -0.1711
    1AU     LIG  159   2.261   1.230   6.062 -0.0165 -0.0478  0.1090
    1AU     LIG  160   2.420   1.164   5.681 -0.4398 -0.2259  0.2223
    1AU     LIG  161   2.433   1.098   5.224 -0.0236  0.1152  0.0886
    1AU       S  162   0.475   1.753   6.489 -0.0097  0.0562  0.1332
    1AU     LIG  163   0.097   1.895   6.591  0.2449 -0.0220 -0.0227
    1AU     LIG  164   0.015   2.364   6.684 -0.1486  0.0600 -0.1048
    1AU     LIG  165  -0.177   2.807   6.609  0.2295  0.2657  0.5266
    1AU    AUSL  166   1.151   0.677   7.001 -0.0394 -0.0335  0.0263
    1AU    AUSL  167   0.684   0.262   6.701 -0.0180  0.0678 -0.0122
    1AU     AUL  168   0.985   0.392   7.031 -0.0311  0.0208  0.0340
    1AU       S  169   0.438  -0.143   6.371  0.1127 -0.0834 -0.2354
    1AU     LIG  170   0.442  -0.474   6.594  0.0177 -0.0985  0.3446
    1AU     LIG  171   0.566  -0.702   6.935 -0.4441 -0.0800 -0.0343
    1AU     LIG  172   0.493  -1.118   6.936  0.1104  0.2170 -0.3591
    1AU       S  173   1.819   0.460   6.878 -0.0498 -0.3845 -0.5447
    1AU     LIG  174   2.000   0.236   7.182  0.1914 -0.2356  0.1960
    1AU     LIG  175   1.823  -0.174   7.432  0.1174 -0.0325  0.0921
    1AU     LIG  176   1.586  -0.512   7.355 -0.0693  0.4416  0.0384
    1AU    AUSL  177   1.374   0.409   6.633  0.0405 -0.0940  0.0151
    1AU    AUSL  178   0.908   0.105   6.624 -0.0293 -0.0216  0.0844
    1AU     AUL  179   1.121   0.217   6.861 -0.0289 -0.0649 -0.0468
    1AU       S  180   1.780   0.310   6.679  0.3688  0.1426  0.2799
    1AU     LIG  181   2.073  -0.032   6.653 -0.2549 -0.0644  0.0991
    1AU     LIG  182   2.246  -0.476   6.620  0.0443 -0.1623  0.1706
    1AU     LIG  183   1.992  -0.763   6.533  0.1599  0.1777  0.2612
    1AU       S  184   0.925  -0.290   6.583 -0.1443 -0.0332 -0.3872
    1AU     LIG  185   1.077  -0.657   6.779  0.3756 -0.0817  0.0648
    1AU     LIG  186   1.039  -1.109   6.803  0.0610 -0.2264  0.2713
    1AU     LIG  187   1.318  -1.426   6.839  0.1294  0.1894 -0.5507
    1AU    AUSL  188   1.267   0.642   6.547  0.0840 -0.0189 -0.0230
    1AU    AUSL  189   0.837   0.406   6.226 -0.0916  0.0293 -0.0951
    1AU     AUL  190   1.264   0.653   6.532  0.0255  0.0184 -0.0828
    1AU       S  191   0.208   0.511   5.863 -0.2049  0.1178  0.3026
    1AU     LIG  192   0.123   0.200   5.587 -0.4318 -0.0832  0.0627
    1AU     LIG  193  -0.179  -0.112   5.607 -0.0520  0.0653 -0.2189
    1AU     LIG  194  -0.067  -0.541   5.865  0.0105  0.2701 -0.0608
    1AU       S  195   1.842   0.400   6.486  0.2689 -0.3450 -0.7840
    1AU     LIG  196   2.305   0.381   6.446 -0.3947 -0.0210  0.0298
    1AU     LIG  197   2.702   0.516   6.393 -0.1820 -0.7983 -0.1674
    1AU     LIG  198   3.120   0.798   6.303  0.3201  0.0631  0.2237
    1AU    AUSL  199   1.265   1.287   6.916 -0.0214 -0.0798  0.0293
    1AU    AUSL  200   0.966   1.351   6.960  0.0355  0.0278 -0.0855
    1AU     AUL  201   1.294   1.133   7.142  0.0317  0.0573 -0.1016
    1AU       S  202   0.913   1.510   7.414  0.0380  0.1597  0.3087
    1AU     LIG  203   1.275   1.784   7.486 -0.1610  0.0898 -0.2982
    1AU     LIG  204   1.350   2.256   7.446  0.0276  0.0753 -0.1395
    1AU     LIG  205   1.590   2.565   7.192  0.4645 -0.4139 -0.1188
    1AU       S  206   1.668   1.529   7.099  0.0482  0.3764 -0.1714
    1AU     LIG  207   1.998   1.317   7.073 -0.0005 -0.4316 -0.1273
    1AU     LIG  208   2.288   1.080   6.922  0.0608  0.1060  0.3357
    1AU     LIG  209   2.725   1.024   6.757  0.3702  0.0193  0.1461
    1AU    AUSL  210   1.399   1.357   6.464  0.0761 -0.0547 -0.0117
    1AU    AUSL  211   1.247   0.939   6.600 -0.0214  0.0333  0.0188
    1AU     AUL  212   1.567   1.032   6.778  0.0162  0.0613  0.0218
    1AU       S  213   1.820   1.649   6.681 -0.1582  0.0514 -0.0631
    1AU     LIG  214   2.200   1.885   6.713 -0.1499 -0.1518  0.0626
    1AU     LIG  215   2.236   2.274   6.548  0.2066  0.1521 -0.0070
    1AU     LIG  216   2.255   2.432   6.130  0.1100 -0.0052  0.1150
    1AU       S  217   1.852   0.826   6.286 -0.3710  0.0734 -0.0275
    1AU     LIG  218   2.167   0.650   5.937  0.0950  0.1784 -0.0492
    1AU     LIG  219   2.486   0.336   5.989 -0.1789 -0.3883 -0.5800
    1AU     LIG  220   2.646   0.036   6.399  0.2550  0.1719  0.3898
    1AU    AUSL  221   1.365   1.455   6.720  0.0215  0.0080 -0.0865
    1AU    AUSL  222   1.338   1.245   6.212 -0.0363 -0.0450 -0.0176
    1AU     AUL  223   1.612   1.236   6.540 -0.0249  0.0334 -0.0016
    1AU       S  224   1.655   1.549   6.074  0.0021 -0.1386 -0.1327
    1AU     LIG  225   1.824   1.915   5.827  0.0820  0.1926 -0.4035
    1AU     LIG  226   1.818   2.307   5.764  0.0493  0.0595 -0.0920
    1AU     LIG  227   2.064   2.692   5.729  0.0024  0.2327 -0.0406
    1AU       S  228   1.569   1.770   6.923  0.1910 -0.1275  0.0235
    1AU     LIG  229   1.772   2.170   6.852 -0.1741 -0.0130  0.0698
    1AU     LIG  230   1.730   2.606   6.676  0.1335  0.0291 -0.0378
    1AU     LIG  231   1.800   2.989   6.904  0.0237  0.2817 -0.1237
    1AU    AUSL  232   0.806   0.315   6.477  0.0546  0.0228  0.1027
    1AU    AUSL  233   0.457   0.372   6.828 -0.0656 -0.0186 -0.0286
    1AU     AUL  234   0.830   0.177   6.936  0.0086  0.0771 -0.0053
    1AU       S  235   0.869  -0.261   6.268  0.0816 -0.1315  0.2939
    1AU     LIG  236   0.802  -0.683   6.282  0.0172 -0.2473 -0.0315
    1AU     LIG  237   0.689  -1.140   6.405  0.1382  0.1421  0.2847
    1AU     LIG  238   0.494  -1.499   6.177 -0.2396  0.1566 -0.3571
    1AU       S  239   0.212   0.307   7.113  0.0048  0.0511 -0.0977
    1AU     LIG  240  -0.179   0.301   6.894 -0.1205 -0.1657  0.2017
    1AU     LIG  241  -0.593   0.101   6.954  0.0286  0.2057  0.1880
    1AU     LIG  242  -0.925  -0.117   6.832  0.2117 -0.2298 -0.0156
    1AU    AUSL  243   1.130   0.287   6.575 -0.0762 -0.0054 -0.0110
    1AU    AUSL  244   0.921   0.355   6.738 -0.0499  0.0754  0.0260
    1AU     AUL  245   0.911   0.631   6.882  0.0099  0.0335 -0.0786
    1AU       S  246   1.122  -0.275   6.369  0.1279  0.1773 -0.0881
    1AU     LIG  247   1.379  -0.602   6.268  0.1098  0.2320  0.2401
    1AU     LIG  248   1.697  -0.942   6.145  0.0887 -0.2689  0.1290
    1AU     LIG  249   2.113  -1.027   6.120 -0.3968 -0.0014 -0.0583
    1AU       S  250   1.385  -0.195   6.802 -0.0809  0.2660  0.4800
    1AU     LIG  251   1.571  -0.602   6.729  0.1897  0.0611 -0.0458
    1AU     LIG  252   1.484  -0.981   6.641 -0.2745 -0.2817 -0.2858
    1AU     LIG  253   1.191  -1.067   6.282 -0.1727  0.0403 -0.3735
    1AU    AUSL  254   1.160   1.436   6.306 -0.0629 -0.0098 -0.1008
    1AU    AUSL  255   1.188   1.186   5.982  0.0461 -0.0291  0.0702
    1AU     AUL  256   0.977   1.436   6.030 -0.0113  0.0313 -0.0507
    1AU       S  257   1.320   1.380   5.657 -0.0325 -0.2826  0.4189
    1AU     LIG  258   0.989   1.730   5.577 -0.1737 -0.1091 -0.0764
    1AU     LIG  259   0.943   1.962   5.240  0.2402 -0.2416  0.0229
    1AU     LIG  260   0.898   2.239   4.897 -0.4750 -0.1174  0.4044
    1AU       S  261   1.445   1.772   6.081  0.3273  0.4157 -0.0915
    1AU     LIG  262   1.277   2.114   6.147  0.0328 -0.2506 -0.1466
    1AU     LIG  263   1.246   2.563   6.217  0.0428 -0.1828 -0.1877
    1AU     LIG  264   1.241   2.973   6.039 -0.4625 -0.0437 -0.2723
    1AU    AUSL  265   1.146   1.390   6.573 -0.0570  0.0655 -0.0110
    1AU    AUSL  266   0.894   1.439   6.441  0.0361 -0.0268  0.0441
    1AU     AUL  267   1.097   1.481   6.763 -0.0693  0.0106  0.0405
    1AU       S  268   0.925   1.912   6.450  0.2622 -0.3000  0.1075
    1AU     LIG  269   0.883   2.390   6.485 -0.2546 -0.1845  0.1244
    1AU     LIG  270   0.909   2.773   6.515  0.0750  0.1344  0.0103
    1AU     LIG  271   1.010   3.179   6.444 -0.0443  0.3370 -0.2752
    1AU       S  272   1.594   1.776   6.289  0.3093  0.1735  0.0434
    1AU     LIG  273   1.789   2.290   6.338  0.1260  0.1716 -0.1829
    1AU     LIG  274   1.708   2.645   6.090  0.0625  0.3225 -0.0279
    1AU     LIG  275   1.761   3.096   5.983 -0.1527  0.0616  0.0396
    1AU    AUSL  276   0.415   0.886   6.763 -0.0861  0.0075  0.0223
    1AU    AUSL  277   1.041   1.101   7.009 -0.0967  0.0360 -0.0952
    1AU     AUL  278   0.686   1.259   6.981 -0.0763  0.0583  0.0426
    1AU       S  279   0.876   1.291   7.461 -0.1917  0.0080  0.3573
    1AU     LIG  280   0.386   1.497   7.475  0.0208  0.2318  0.0684
    1AU     LIG  281   0.214   1.827   7.683 -0.2740  0.2459 -0.3338
    1AU     LIG  282   0.126   1.990   8.097 -0.2224  0.0549  0.0718
    1AU       S  283  -0.073   1.122   6.538 -0.3107 -0.0174 -0.3178
    1AU     LIG  284  -0.540   1.158   6.527  0.0824  0.4618 -0.0925
    1AU     LIG  285  -0.857   1.269   6.150 -0.1300 -0.3079 -0.1733
    1AU     LIG  286  -0.668   1.253   5.774  0.1339  0.2435  0.0649
    1AU    AUSL  287   0.609   0.761   6.258 -0.0211 -0.0059 -0.0468
    1AU    AUSL  288   0.695   0.973   6.122 -0.0085  0.0330  0.0741
    1AU     AUL  289   0.954   0.734   5.899 -0.0017 -0.0546 -0.0030
    1AU       S  290  -0.043   1.083   6.245  0.6034 -0.0201  0.4177
    1AU     LIG  291  -0.450   0.878   6.134  0.2035  0.0728 -0.0742
    1AU     LIG  292  -0.762   0.532   6.174  0.2368  0.0735  0.3867
    1AU     LIG  293  -0.959   0.338   6.541  0.2907 -0.3226  0.1777
    1AU       S  294   0.309   1.192   5.741 -0.0022 -0.2226 -0.3890
    1AU     LIG  295  -0.163   1.243   5.663 -0.1063 -0.0875  0.2223
    1AU     LIG  296  -0.435   1.520   5.445 -0.1983  0.0604  0.4643
    1AU     LIG  297  -0.936   1.499   5.302 -0.0191  0.2992 -0.0777
    1AU    AUSL  298   0.517   1.212   6.474  0.0752 -0.0833 -0.0301
    1AU    AUSL  299   0.393   0.964   6.512  0.0090 -0.0233 -0.0134
    1AU     AUL  300   0.365   0.828   6.356 -0.0044  0.0504  0.0752
    1AU       S  301   0.126   0.758   5.936 -0.1451 -0.2337  0.1148
    1AU     LIG  302  -0.280   0.480   5.924  0.2293 -0.1335  0.2211
    1AU     LIG  303  -0.483   0.323   5.564 -0.1397  0.0427 -0.0123
    1AU     LIG  304  -0.620   0.483   5.164  0.1946  0.0907 -0.0937
    1AU       S  305   0.056   1.422   6.408  0.0522 -0.0632 -0.1108
    1AU     LIG  306  -0.433   1.613   6.516 -0.0420 -0.1638 -0.4085
    1AU     LIG  307  -0.811   1.979   6.528  0.0546 -0.4204  0.2298
    1AU     LIG  308  -0.894   2.340   6.757  0.0114  0.0692  0.0687
    1AU    AUSL  309   0.612   0.990   6.920  0.0482 -0.0422  0.0753
    1AU    AUSL  310   0.711   0.446   6.919  0.0273  0.1032 -0.0291
    1AU     AUL  311   0.901   0.673   7.152  0.0065  0.0520  0.0228
    1AU       S  312   0.249   1.074   7.186 -0.0635 -0.0508  0.5403
    1AU     LIG  313  -0.066   1.065   7.423  0.0325  0.0660 -0.1089
    1AU     LIG  314  -0.240   0.868   7.719 -0.2210  0.1933  0.0205
    1AU     LIG  315  -0.506   0.716   7.898  0.2472  0.2451  0.0270
    1AU       S  316   0.475   0.310   7.330  0.1712  0.0317 -0.2879
    1AU     LIG  317   0.177   0.019   7.586  0.2793  0.1411 -0.0492
    1AU     LIG  318   0.133  -0.397   7.569  0.0762  0.1624  0.2348
    1AU     LIG  319   0.222  -0.750   7.316 -0.2147  0.1361  0.0804
    1AU    AUSL  320   0.780   1.196   6.525  0.0134  0.0293  0.0762
    1AU    AUSL  321   0.834   1.380   6.720 -0.0443  0.0282 -0.1233
    1AU     AUL  322   0.621   1.325   6.701  0.0547  0.0309  0.0210
    1AU       S  323   0.165   1.309   6.955 -0.0142 -0.3366 -0.0376
    1AU     LIG  324  -0.243   1.579   6.993 -0.3780  0.1240 -0.1097
    1AU     LIG  325  -0.491   2.031   6.968  0.0363  0.3026  0.0738
    1AU     LIG  326  -0.770   2.259   7.277 -0.0582 -0.2130 -0.1244
    1AU       S  327   0.842   1.907   6.700 -0.4225  0.1947 -0.3593
    1AU     LIG  328   0.624   2.224   6.876 -0.1511  0.0377 -0.1107
    1AU     LIG  329   0.477   2.644   6.875  0.0611 -0.1336 -0.1544
    1AU     LIG  330   0.343   3.087   6.764  0.0290 -0.1698  0.0437
    1AU    AUSL  331   0.324   0.676   6.609  0.0585 -0.0405 -0.0028
    1AU    AUSL  332   0.822   1.186   6.018 -0.0665 -0.0150  0.0512
    1AU     AUL  333   0.442   1.073   6.239 -0.0329  0.0721 -0.0032
    1AU       S  334   0.692   0.817   5.432 -0.2313  0.0006  0.2745
    1AU     LIG  335   0.485   1.249   5.201 -0.1958  0.0131  0.0691
    1AU     LIG  336   0.466   1.674   5.322 -0.0867  0.0368  0.0615
    1AU     LIG  337   0.533   1.897   4.983 -0.1825 -0.3785 -0.0634
    1AU       S  338   0.013   0.925   6.997 -0.2788  0.3684  0.4947
    1AU     LIG  339  -0.394   1.115   6.985 -0.3800 -0.1407 -0.3157
    1AU     LIG  340  -0.794   1.083   6.939  0.0872  0.2397 -0.1470
    1AU     LIG  341  -1.139   1.230   7.145 -0.1292 -0.0448  0.0202
    1AU    AUSL  342   1.009   1.232   6.208 -0.0078 -0.0668  0.0788
    1AU    AUSL  343   0.616   0.526   6.129 -0.0482  0.0431 -0.1108
    1AU     AUL  344   0.672   0.973   6.116  0.1222 -0.0115 -0.0325
    1AU       S  345   0.487   1.450   5.745 -0.1980 -0.0780  0.0639
    1AU     LIG  346   0.549   1.984   5.654 -0.2027 -0.0599  0.1722
    1AU     LIG  347   0.771   2.171   5.884 -0.4391  0.2396 -0.0653
    1AU     LIG  348   0.793   2.546   5.933 -0.3069  0.2611 -0.3529
    1AU       S  349   0.331   0.070   6.004  0.1547  0.1348  0.0202
    1AU     LIG  350  -0.048  -0.078   6.082 -0.1104  0.4811  0.2753
    1AU     LIG  351  -0.244  -0.454   6.359 -0.0004 -0.0862  0.3735
    1AU     LIG  352  -0.478  -0.761   6.224 -0.2803 -0.0573  0.0529
    1AU    AUSL  353   0.607   1.046   6.664 -0.1033 -0.0037  0.0728
    1AU    AUSL  354   1.488   0.827   6.593  0.0595 -0.0705  0.0468
    1AU     AUL  355   1.232   0.918   6.614 -0.1094 -0.0019 -0.1130
    1AU       S  356   0.205   1.409   5.983  0.1552 -0.0512  0.1062
    1AU     LIG  357   0.079   1.693   5.660  0.0905 -0.0439 -0.0754
    1AU     LIG  358   0.089   1.974   5.212  0.1721 -0.0387 -0.0688
    1AU     LIG  359   0.128   1.999   4.738  0.1984  0.0446 -0.1162
    1AU       S  360   1.942   0.894   6.502  0.2649  0.4481  0.0266
    1AU     LIG  361   2.359   0.867   6.408 -0.3700  0.3397 -0.1636
    1AU     LIG  362   2.748   1.139   6.270 -0.0105  0.0868  0.4723
    1AU     LIG  363   3.081   1.298   6.623  0.1857 -0.0514  0.3901
    1AU    AUSL  364   0.880   0.722   6.177  0.0655 -0.0736  0.0037
    1AU    AUSL  365   1.244   1.000   6.175 -0.0294  0.0577  0.0761
    1AU     AUL  366   1.185   0.886   5.873 -0.0890  0.0339  0.0556
    1AU       S  367   1.557   1.218   5.612  0.4005  0.0176 -0.0085
    1AU     LIG  368   1.914   1.371   5.710 -0.0361 -0.1697  0.0256
    1AU     LIG  369   2.213   1.686   5.803 -0.1396  0.1256 -0.0000
    1AU     LIG  370   2.187   1.922   6.175 -0.2109  0.2701 -0.4692
    1AU       S  371   0.790   0.535   5.495  0.1973 -0.3252  0.5090
    1AU     LIG  372   1.042   0.183   5.393  0.0265  0.0266 -0.0273
    1AU     LIG  373   1.278   0.038   4.976 -0.0192  0.0265  0.0647
    1AU     LIG  374   1.621  -0.059   4.926 -0.0503 -0.0410  0.2953
    1AU    AUSL  375   0.565   0.331   6.325 -0.0468  0.0115 -0.0496
    1AU    AUSL  376   1.070   0.297   6.283  0.0813 -0.0057 -0.0536
    1AU     AUL  377   1.023   0.220   6.319 -0.0282  0.0234  0.0912
    1AU       S  378   0.617   0.343   5.590  0.4805  0.0652 -0.0546
    1AU     LIG  379   0.580   0.011   5.415 -0.1065  0.2682  0.0847
    1AU     LIG  380   0.734  -0.399   5.582  0.2212  0.0323 -0.2069
    1AU     LIG  381   1.056  -0.630   5.864 -0.0515  0.0776 -0.3847
    1AU       S  382   1.538  -0.110   6.530  0.6687  0.1616 -0.6643
    1AU     LIG  383   1.819  -0.302   6.348 -0.1307  0.2226 -0.1545
    1AU     LIG  384   2.020  -0.478   6.079  0.0495 -0.1633 -0.2864
    1AU     LIG  385   1.954  -0.289   5.767  0.0563  0.0846 -0.1821
    2POPC   NC3  386   8.171   1.728   8.841  0.4433  0.0632 -0.2893
    2POPC   PO4  387   7.965   1.861   8.442 -0.1849  0.0287 -0.0713
    2POPC   GL1  388   7.987   1.912   8.048  0.1859  0.0158 -0.0571
    2POPC   GL2  389   8.289   2.087   8.037 -0.1474 -0.0364  0.2867
    2POPC   C1A  390   7.935   1.880   7.559 -0.1852 -0.2000  0.0799
    2POPC   D2A  391   8.044   1.919   7.124  0.3923  0.1148  0.1078
    2POPC   C3A  392   7.951   1.430   6.919  0.1440  0.0841  0.0408
    2POPC   C4A  393   7.783   1.241   6.684  0.1376 -0.1957  0.2803
    2POPC   C1B  394   8.499   2.179   7.628  0.2239 -0.0661 -0.1256
    2POPC   C2B  395   8.453   2.244   7.147 -0.2250  0.1175 -0.1668
    2POPC   C3B  396   8.293   2.182   6.711  0.1112  0.0132 -0.1811
    2POPC   C4B  397   8.173   2.052   6.327 -0.2834  0.1269  0.1116
    3POPC   NC3  398   0.609   1.817   9.327  0.0658 -0.0077 -0.2053
    3POPC   PO4  399   0.642   1.388   9.312  0.1009  0.0869 -0.0223
    3POPC   GL1  400   0.468   1.235   8.940 -0.1188  0.0909 -0.0384
    3POPC   GL2  401   0.424   1.580   8.898 -0.0956  0.1440 -0.0711
    3POPC   C1A  402   0.592   1.333   8.507  0.1273 -0.1039 -0.0416
    3POPC   D2A  403   0.959   1.501   8.255  0.0870  0.1089  0.0433
    3POPC   C3A  404   1.178   1.267   7.935  0.0729  0.0457  0.1986
    3POPC   C4A  405   1.363   0.966   7.719 -0.0896  0.1173  0.0533
    3POPC   C1B  406  -0.019   1.455   9.007 -0.1441 -0.1088 -0.3850
    3POPC   C2B  407  -0.302   1.299   8.773 -0.0010  0.0389 -0.1131
    3POPC   C3B  408  -0.420   1.535   8.486  0.3464 -0.1509  0.0946
    3POPC   C4B  409  -0.717   1.573   8.288  0.0404 -0.2682  0.0543
    4POPC   NC3  410   7.429   1.744   8.229  0.0078 -0.0362  0.0606
    4POPC   PO4  411   7.117   1.640   8.435 -0.2112  0.3726  0.0669
    4POPC   GL1  412   6.994   1.582   7.943  0.1652 -0.1980  0.1396
    4POPC   GL2  413   7.037   1.497   7.576  0.0961  0.0331 -0.0049
    4POPC   C1A  414   6.678   1.759   7.638  0.0150  0.1425  0.1997
    4POPC   D2A  415   6.943   2.075   7.403  0.1784  0.0960 -0.0336
    4POPC   C3A  416   7.153   1.891   7.147  0.1866  0.0403  0.0556
    4POPC   C4A  417   7.510   2.050   6.984 -0.1820 -0.1090  0.0831
    4POPC   C1B  418   6.906   1.469   7.175  0.0131 -0.0005 -0.1777
    4POPC   C2B  419   6.846   1.710   6.820  0.0782 -0.0794  0.0805
    4POPC   C3B  420   6.864   2.178   6.796  0.0090  0.1412 -0.2477
    4POPC   C4B  421   6.816   2.393   6.423 -0.0386  0.2607 -0.0480
    5POPC   NC3  422   9.068   0.266   9.486 -0.0204  0.2400  0.2588
    5POPC   PO4  423   9.428  -0.050   9.488 -0.0593 -0.1718  0.1911
    5POPC   GL1  424   9.452   0.114   9.118 -0.0923 -0.3251  0.0641
    5POPC   GL2  425   9.364  -0.119   8.919 -0.1182  0.1721  0.2237
    5POPC   C1A  426   9.499   0.418   8.810  0.2775  0.0583  0.0293
    5POPC   D2A  427   9.385   0.597   8.326 -0.1779  0.1290  0.1671
    5POPC   C3A  428   9.355   0.310   8.049  0.0175 -0.0916 -0.1708
    5POPC   C4A  429   9.402   0.037   7.759  0.1847  0.1357 -0.2853
    5POPC   C1B  430   9.564   0.006   8.430  0.1361 -0.1234  0.1716
    5POPC   C2B  431   9.838   0.356   8.364  0.3058  0.1522  0.0898
    5POPC   C3B  432   9.795   0.613   7.958  0.0506 -0.4581  0.2657
    5POPC   C4B  433  10.015   0.849   7.766  0.0396  0.1583 -0.0074
    6POPC   NC3  434   2.375   8.828   8.757  0.0182  0.0627  0.0002
    6POPC   PO4  435   2.537   8.436   8.458 -0.1847  0.5295 -0.2531
    6POPC   GL1  436   2.531   8.471   8.015  0.2843  0.0425  0.1997
    6POPC   GL2  437   2.588   8.149   7.862  0.1700 -0.2522  0.2991
    6POPC   C1A  438   2.303   8.520   7.637 -0.1166 -0.1121  0.0724
    6POPC   D2A  439   2.305   8.403   7.198 -0.2509  0.3250 -0.0064
    6POPC   C3A  440   2.270   8.125   6.969  0.0280  0.0561 -0.3594
    6POPC   C4A  441   2.323   7.805   6.742  0.0662 -0.0435  0.2573
    6POPC   C1B  442   2.499   7.931   7.436 -0.0920  0.1087  0.1633
    6POPC   C2B  443   2.626   7.652   7.106  0.1724  0.1116  0.0702
    6POPC   C3B  444   2.403   7.364   7.047  0.1859  0.4159 -0.1272
    6POPC   C4B  445   1.953   7.289   6.926  0.1459 -0.0007 -0.1974
    7POPC   NC3  446   8.623   5.530   8.209  0.0291 -0.1909  0.0963
    7POPC   PO4  447   8.538   5.411   7.874 -0.1974 -0.0156 -0.0199
    7POPC   GL1  448   8.280   5.543   7.471  0.1081 -0.0898  0.0402
    7POPC   GL2  449   8.559   5.712   7.229 -0.0538 -0.2026  0.0253
    7POPC   C1A  450   7.999   5.442   7.140  0.1345  0.1125  0.0540
    7POPC   D2A  451   7.822   5.310   6.731  0.0856  0.1762 -0.0151
    7POPC   C3A  452   7.718   5.426   6.411  0.0432 -0.0981  0.0172
    7POPC   C4A  453   7.922   5.520   6.031  0.0671  0.2525  0.1357
    7POPC   C1B  454   8.991   5.654   7.310  0.0393 -0.0803 -0.2717
    7POPC   C2B  455   9.295   5.933   7.167  0.0491  0.1747  0.1135
    7POPC   C3B  456   9.792   5.920   7.225 -0.3196  0.0336 -0.0915
    7POPC   C4B  457  10.219   5.691   7.411  0.1518 -0.1153  0.0433
    8POPC   NC3  458   5.631   1.793   8.636  0.1711 -0.0342  0.1018
    8POPC   PO4  459   5.268   1.914   8.459  0.0001  0.0091  0.0472
    8POPC   GL1  460   5.419   1.997   8.037  0.3273 -0.0796  0.0605
    8POPC   GL2  461   5.179   1.901   7.859 -0.1512  0.0229 -0.0047
    8POPC   C1A  462   5.773   2.194   7.858 -0.1560  0.1064 -0.2212
    8POPC   D2A  463   5.994   2.012   7.466 -0.0501 -0.1762 -0.1732
    8POPC   C3A  464   6.014   2.232   7.106 -0.1886 -0.2783  0.0406
    8POPC   C4A  465   5.981   2.471   6.739  0.0812 -0.0324 -0.2866
    8POPC   C1B  466   5.405   1.937   7.541 -0.1887 -0.2034  0.2181
    8POPC   C2B  467   5.619   1.900   7.166  0.1531 -0.2361 -0.0204
    8POPC   C3B  468   5.782   1.956   6.736  0.0623  0.0305 -0.0821
    8POPC   C4B  469   5.963   2.019   6.406  0.1366  0.2417 -0.1385
    9POPC   NC3  470   4.378   9.076   8.496  0.1180  0.0808  0.1395
    9POPC   PO4  471   4.143   9.405   8.492 -0.0214  0.0678 -0.0820
    9POPC   GL1  472   4.458   9.230   8.021  0.3390 -0.0237 -0.0183
    9POPC   GL2  473   4.612   8.921   8.110  0.0323  0.2054  0.2165
    9POPC   C1A  474   4.521   9.140   7.690 -0.1892 -0.0402  0.0652
    9POPC   D2A  475   4.537   9.114   7.275 -0.0393 -0.1061  0.2295
    9POPC   C3A  476   4.782   8.917   7.070 -0.1109  0.4138  0.2829
    9POPC   C4A  477   4.622   8.576   6.821  0.0698  0.3421  0.0559
    9POPC   C1B  478   4.788   8.748   7.850 -0.0054 -0.2652  0.0094
    9POPC   C2B  479   4.568   8.538   7.483 -0.2547 -0.0288 -0.1128
    9POPC   C3B  480   4.344   8.425   7.230  0.0848  0.0523  0.0949
    9POPC   C4B  481   4.210   8.308   6.788 -0.2376  0.2899 -0.1592
   10POPC   NC3  482   4.801   6.435   8.263 -0.3820  0.1861  0.0841
   10POPC   PO4  483   4.405   6.148   8.251 -0.1317  0.0680  0.3360
   10POPC   GL1  484   4.431   6.194   7.866  0.1471  0.0143 -0.0950
   10POPC   GL2  485   4.733   6.125   7.733 -0.1790  0.2156 -0.2128
   10POPC   C1A  486   4.258   6.524   7.642  0.1272 -0.1550 -0.2449
   10POPC   D2A  487   4.195   6.633   7.259 -0.0564 -0.1648  0.0916
   10POPC   C3A  488   4.351   6.270   6.987  0.1340 -0.1340 -0.0422
   10POPC   C4A  489   4.576   5.976   6.709  0.1482 -0.0466 -0.1634
   10POPC   C1B  490   4.651   6.318   7.391  0.1393 -0.1331 -0.2537
   10POPC   C2B  491   4.823   6.457   6.951 -0.1903 -0.1837  0.4058
   10POPC   C3B  492   5.030   6.762   6.766 -0.2266 -0.1778 -0.1005
   10POPC   C4B  493   5.388   6.791   6.522 -0.4619  0.0506 -0.1679
   11POPC   NC3  494   8.414   3.544   9.075  0.0234 -0.0526 -0.0539
   11POPC   PO4  495   8.521   3.473   8.708 -0.1218 -0.1579 -0.4889
   11POPC   GL1  496   8.525   3.251   8.318  0.0245 -0.3228 -0.2089
   11POPC   GL2  497   8.505   3.450   8.093  0.1906 -0.0118  0.1107
   11POPC   C1A  498   8.559   2.906   7.915  0.1073 -0.0902 -0.2461
   11POPC   D2A  499   8.602   2.712   7.494  0.1140  0.2116  0.1221
   11POPC   C3A  500   8.874   2.756   7.140  0.0104  0.1963  0.0174
   11POPC   C4A  501   8.984   2.893   6.776  0.0470  0.1886  0.2525
   11POPC   C1B  502   8.536   3.430   7.699  0.1899  0.1062  0.2481
   11POPC   C2B  503   8.449   3.275   7.220  0.2507  0.0882  0.3117
   11POPC   C3B  504   8.542   3.235   6.766  0.1003 -0.1464 -0.1595
   11POPC   C4B  505   8.589   2.851   6.429 -0.1392  0.0303  0.2145
   12POPC   NC3  506   3.951   5.473   8.519 -0.3053  0.2159 -0.0407
   12POPC   PO4  507   4.051   5.172   8.106 -0.1191  0.0697 -0.2808
   12POPC   GL1  508   3.975   5.215   7.649  0.0996  0.0380  0.0665
   12POPC   GL2  509   3.986   5.576   7.622 -0.1157  0.0133  0.2023
   12POPC   C1A  510   4.153   5.321   7.200 -0.0016 -0.2349  0.1237
   12POPC   D2A  511   3.993   5.301   6.753  0.3664 -0.0690 -0.0887
   12POPC   C3A  512   4.186   5.686   6.549  0.2870 -0.1183  0.0034
   12POPC   C4A  513   4.065   6.035   6.590  0.0015 -0.1025  0.1026
   12POPC   C1B  514   3.675   5.366   7.278 -0.4256  0.0645  0.1886
   12POPC   C2B  515   3.633   4.883   7.282 -0.1885  0.1337 -0.1736
   12POPC   C3B  516   3.654   4.435   7.229  0.3461  0.0889  0.1452
   12POPC   C4B  517   3.627   4.061   7.151 -0.4644 -0.0827  0.1748
   13POPC   NC3  518   3.498   6.321   8.149  0.0048 -0.2028 -0.0274
   13POPC   PO4  519   3.830   6.029   8.308  0.0615  0.1834  0.0774
   13POPC   GL1  520   3.929   6.078   7.803 -0.5646  0.3049 -0.2723
   13POPC   GL2  521   3.726   6.318   7.691 -0.1345  0.1142 -0.0806
   13POPC   C1A  522   4.080   6.134   7.346  0.1589 -0.3977  0.2100
   13POPC   D2A  523   4.061   5.851   7.053 -0.1089  0.0503  0.0320
   13POPC   C3A  524   3.725   5.715   6.836  0.1130 -0.1478  0.0419
   13POPC   C4A  525   3.388   5.917   6.871 -0.4540 -0.1901 -0.1103
   13POPC   C1B  526   3.706   6.561   7.334  0.1327  0.3970 -0.2180
   13POPC   C2B  527   3.761   6.853   6.938  0.2529  0.0952  0.0222
   13POPC   C3B  528   3.638   6.767   6.513  0.2999 -0.0871  0.0342
   13POPC   C4B  529   3.844   6.564   6.338  0.0871 -0.0404  0.3429
   14POPC   NC3  530   9.572   1.053   9.778  0.1042 -0.1417  0.0444
   14POPC   PO4  531   9.228   0.729   9.641 -0.1109  0.0515 -0.0067
   14POPC   GL1  532   9.524   0.669   9.328 -0.1117 -0.1063 -0.0952
   14POPC   GL2  533   9.200   0.749   9.119  0.0042  0.1755  0.0249
   14POPC   C1A  534   9.862   0.759   9.072  0.2017  0.5444 -0.0128
   14POPC   D2A  535  10.233   0.734   8.769  0.0570 -0.2374  0.0030
   14POPC   C3A  536  10.236   0.624   8.347 -0.4269 -0.1731 -0.1863
   14POPC   C4A  537  10.277   0.473   7.903 -0.0001 -0.0521  0.0255
   14POPC   C1B  538   9.165   0.823   8.697 -0.1156  0.7132  0.2413
   14POPC   C2B  539   9.180   1.106   8.283  0.1500  0.0298  0.2949
   14POPC   C3B  540   9.129   1.320   7.801  0.3447 -0.4555 -0.2206
   14POPC   C4B  541   8.889   1.332   7.472 -0.3734  0.1398 -0.1370
   15POPC   NC3  542   8.792   7.373   8.313  0.1526 -0.3868 -0.1561
   15POPC   PO4  543   8.622   7.649   8.050  0.1881  0.3382  0.0020
   15POPC   GL1  544   8.930   7.641   7.872  0.2692  0.1500 -0.3591
   15POPC   GL2  545   8.789   7.510   7.532  0.3613 -0.1459  0.0141
   15POPC   C1A  546   9.147   7.959   7.631  0.2301 -0.0162 -0.2084
   15POPC   D2A  547   9.327   8.322   7.340 -0.0536 -0.2371 -0.0212
   15POPC   C3A  548   9.411   8.653   7.034  0.1613 -0.0482  0.1609
   15POPC   C4A  549   9.657   8.987   6.801  0.1707  0.1593 -0.0430
   15POPC   C1B  550   8.888   7.577   7.120  0.3193 -0.1291  0.0263
   15POPC   C2B  551   8.822   7.456   6.594  0.0791  0.0960 -0.0505
   15POPC   C3B  552   8.463   7.418   6.338 -0.0621  0.3175  0.2467
   15POPC   C4B  553   8.415   7.378   5.905 -0.1252  0.0266 -0.0706
   16POPC   NC3  554   5.250   3.834   8.187 -0.2702 -0.0657  0.2742
   16POPC   PO4  555   5.027   4.185   8.016 -0.2883 -0.0665 -0.0278
   16POPC   GL1  556   5.004   3.962   7.648  0.1581  0.1858 -0.0160
   16POPC   GL2  557   4.996   3.638   7.719  0.0249 -0.3780 -0.0564
   16POPC   C1A  558   5.354   3.768   7.322  0.0371 -0.4009 -0.0418
   16POPC   D2A  559   5.515   3.627   6.917  0.0135  0.0127 -0.1460
   16POPC   C3A  560   5.264   3.621   6.502 -0.0265 -0.3447 -0.2232
   16POPC   C4A  561   5.151   3.616   6.185  0.0476  0.0087 -0.0275
   16POPC   C1B  562   5.342   3.298   7.630  0.0881  0.0752  0.0250
   16POPC   C2B  563   5.496   3.186   7.220  0.2488  0.1245  0.1135
   16POPC   C3B  564   5.565   2.790   6.973  0.0809 -0.2731 -0.2727
   16POPC   C4B  565   5.491   2.370   6.825  0.0096 -0.1187  0.1506
   17POPC   NC3  566   3.808   3.380   8.058 -0.0441 -0.0096 -0.1407
   17POPC   PO4  567   3.466   3.432   8.193  0.0662  0.1965  0.1251
   17POPC   GL1  568   3.343   3.182   7.774  0.1028  0.1780  0.2059
   17POPC   GL2  569   3.582   2.965   7.748 -0.0618 -0.1356 -0.1182
   17POPC   C1A  570   2.966   2.946   7.634  0.1366 -0.2999  0.0839
   17POPC   D2A  571   2.796   2.730   7.444 -0.2392 -0.0947 -0.5133
   17POPC   C3A  572   2.426   2.663   7.186  0.2931 -0.0999  0.0135
   17POPC   C4A  573   2.085   2.595   7.050 -0.3981 -0.1316 -0.1772
   17POPC   C1B  574   3.352   2.893   7.328 -0.1829 -0.1316 -0.1289
   17POPC   C2B  575   3.368   2.603   6.876 -0.0006  0.4405  0.0738
   17POPC   C3B  576   3.121   2.573   6.470 -0.2633  0.0251  0.1131
   17POPC   C4B  577   2.730   2.382   6.346  0.0977  0.0830  0.0489
   18POPC   NC3  578   4.066   2.476   8.167 -0.1651  0.0617  0.1701
   18POPC   PO4  579   4.477   2.391   8.464 -0.0010 -0.0257 -0.1893
   18POPC   GL1  580   4.489   2.162   8.082 -0.4015  0.0417  0.0622
   18POPC   GL2  581   4.337   2.213   7.841  0.0139  0.1698 -0.0949
   18POPC   C1A  582   4.718   1.978   7.639  0.3760  0.2001  0.2954
   18POPC   D2A  583   4.934   1.752   7.311  0.2050 -0.0048  0.1824
   18POPC   C3A  584   5.088   1.749   6.931 -0.0844 -0.1455  0.4448
   18POPC   C4A  585   5.172   1.963   6.566  0.0237 -0.1740 -0.1595
   18POPC   C1B  586   4.037   2.261   7.454 -0.1301  0.1590  0.1837
   18POPC   C2B  587   4.013   2.101   7.083 -0.0177  0.0759  0.2004
   18POPC   C3B  588   4.293   1.905   6.717  0.1878  0.1611 -0.2457
   18POPC   C4B  589   4.720   1.763   6.604  0.0334 -0.0901 -0.1510
   19POPC   NC3  590   7.731   0.176   9.257  0.0380 -0.0965  0.0845
   19POPC   PO4  591   7.966  -0.102   8.946  0.0313  0.1233 -0.3669
   19POPC   GL1  592   7.963   0.003   8.526  0.4724  0.0047  0.1038
   19POPC   GL2  593   7.649   0.126   8.341 -0.0164  0.0391 -0.1528
   19POPC   C1A  594   8.001   0.409   8.336 -0.0244 -0.0243  0.1516
   19POPC   D2A  595   7.859   0.480   7.999 -0.2210  0.0981 -0.1601
   19POPC   C3A  596   7.690   0.331   7.606 -0.0175  0.2415 -0.1221
   19POPC   C4A  597   7.844   0.247   7.169  0.0333  0.1281  0.1231
   19POPC   C1B  598   7.814  -0.028   8.002 -0.0881  0.1088 -0.3497
   19POPC   C2B  599   7.869  -0.126   7.633  0.0697 -0.0338 -0.0803
   19POPC   C3B  600   7.947  -0.478   7.441  0.1756 -0.1227  0.2303
   19POPC   C4B  601   8.253  -0.687   7.279  0.1224  0.2617  0.1583
   20POPC   NC3  602   4.113   3.567   8.559  0.2478  0.2432  0.3384
   20POPC   PO4  603   4.194   3.699   8.126  0.1155 -0.0598 -0.3092
   20POPC   GL1  604   4.194   3.697   7.744 -0.2043 -0.1355  0.0645
   20POPC   GL2  605   3.870   3.979   7.628  0.1524 -0.3333  0.0767
   20POPC   C1A  606   4.087   3.409   7.504 -0.1152  0.1015  0.2032
   20POPC   D2A  607   3.893   3.047   7.319  0.1439 -0.2566 -0.1702
   20POPC   C3A  608   3.737   2.946   6.934  0.1326 -0.0855  0.0340
   20POPC   C4A  609   3.419   2.943   6.538 -0.1801  0.1660 -0.2570
   20POPC   C1B  610   4.068   3.795   7.251  0.2494  0.1877 -0.0728
   20POPC   C2B  611   4.340   3.705   6.898 -0.2146 -0.0407  0.2068
   20POPC   C3B  612   4.427   3.968   6.659 -0.0531  0.2233  0.0302
   20POPC   C4B  613   4.255   4.239   6.392 -0.0609  0.2179  0.0893
   21POPC   NC3  614   6.540   5.552   8.603 -0.2697  0.1009  0.1936
   21POPC   PO4  615   6.088   5.483   8.384  0.0309  0.2101  0.1977
   21POPC   GL1  616   5.895   5.532   8.087 -0.0408 -0.3103 -0.1164
   21POPC   GL2  617   5.798   5.280   7.766  0.0193  0.0226 -0.1330
   21POPC   C1A  618   5.775   5.754   7.725 -0.6205 -0.0611 -0.0576
   21POPC   D2A  619   5.705   5.901   7.368  0.1133  0.0353  0.2962
   21POPC   C3A  620   5.307   5.857   7.153 -0.2828 -0.1766 -0.1284
   21POPC   C4A  621   4.900   6.009   7.171 -0.1754  0.0655  0.0462
   21POPC   C1B  622   5.607   5.424   7.263 -0.1068 -0.0427  0.1825
   21POPC   C2B  623   5.575   5.556   6.774  0.0297 -0.1230  0.3021
   21POPC   C3B  624   5.572   5.598   6.389 -0.1309 -0.4293 -0.4393
   21POPC   C4B  625   5.794   5.632   6.036 -0.1801  0.5962  0.0530
   22POPC   NC3  626   9.387   2.617   9.430  0.3407 -0.0664  0.2494
   22POPC   PO4  627   9.166   2.368   9.225 -0.0562 -0.1671 -0.0224
   22POPC   GL1  628   9.312   2.182   8.855  0.3050 -0.0446 -0.0118
   22POPC   GL2  629   9.282   2.438   8.586 -0.2035 -0.0733 -0.0877
   22POPC   C1A  630   9.556   1.868   8.655 -0.0603  0.0060 -0.0501
   22POPC   D2A  631   9.773   1.550   8.542 -0.2237  0.0911  0.1454
   22POPC   C3A  632   9.653   1.491   8.087 -0.0545 -0.0405  0.0696
   22POPC   C4A  633   9.777   1.347   7.824  0.3555  0.1534 -0.0911
   22POPC   C1B  634   9.295   2.114   8.367  0.1898  0.0193  0.2380
   22POPC   C2B  635   9.321   1.841   8.057  0.2839  0.0707 -0.0351
   22POPC   C3B  636   9.368   2.048   7.726  0.1682  0.0382 -0.1659
   22POPC   C4B  637   9.484   1.825   7.403  0.0735 -0.1751 -0.0073
   23POPC   NC3  638   6.563   1.932   8.972 -0.1301 -0.0163 -0.2389
   23POPC   PO4  639   6.637   1.575   8.679  0.1151  0.2273 -0.1812
   23POPC   GL1  640   6.614   1.575   8.293  0.1571  0.7168  0.1988
   23POPC   GL2  641   6.363   1.680   8.237  0.1494  0.0159  0.0345
   23POPC   C1A  642   6.599   1.265   7.813 -0.2248  0.0733 -0.2909
   23POPC   D2A  643   6.622   1.075   7.462  0.0573  0.0989 -0.4931
   23POPC   C3A  644   6.621   0.757   7.426 -0.0066  0.3168  0.1258
   23POPC   C4A  645   6.485   0.284   7.498 -0.0856 -0.0111 -0.0858
   23POPC   C1B  646   6.213   1.681   7.817  0.0554  0.1724 -0.0345
   23POPC   C2B  647   6.336   1.515   7.307  0.0005  0.0834  0.1202
   23POPC   C3B  648   6.422   1.339   6.917  0.3875  0.4169 -0.1577
   23POPC   C4B  649   6.392   0.910   6.747 -0.2474 -0.1612 -0.0061
   24POPC   NC3  650   2.175   1.353   9.467  0.2262 -0.0880  0.0400
   24POPC   PO4  651   2.541   1.582   9.153 -0.3325 -0.1164  0.0134
   24POPC   GL1  652   2.423   1.810   8.767 -0.0590  0.0282  0.2426
   24POPC   GL2  653   2.521   1.505   8.651  0.0332 -0.3403  0.0058
   24POPC   C1A  654   2.193   1.883   8.381  0.0301  0.3259  0.2264
   24POPC   D2A  655   1.799   1.819   8.090  0.0275  0.0055 -0.1742
   24POPC   C3A  656   1.684   1.830   7.735  0.2002 -0.0461  0.1639
   24POPC   C4A  657   1.837   2.039   7.317 -0.0505  0.0102 -0.2569
   24POPC   C1B  658   2.020   1.393   8.539 -0.2243 -0.4464 -0.0829
   24POPC   C2B  659   1.804   1.015   8.505 -0.1162 -0.0239 -0.0843
   24POPC   C3B  660   1.491   0.746   8.542  0.3287  0.0266  0.0894
   24POPC   C4B  661   1.106   0.570   8.532  0.1796 -0.0216 -0.0948
   25POPC   NC3  662   7.784   6.737   7.792  0.1191 -0.1660 -0.1235
   25POPC   PO4  663   7.924   6.387   7.952 -0.0315 -0.0982  0.2282
   25POPC   GL1  664   7.689   6.308   7.495  0.1004  0.1099  0.2995
   25POPC   GL2  665   7.865   6.132   7.184 -0.0582 -0.0773  0.3454
   25POPC   C1A  666   7.233   6.113   7.397 -0.0570 -0.0397  0.0461
   25POPC   D2A  667   6.787   6.141   7.514  0.0647 -0.1465 -0.1143
   25POPC   C3A  668   6.495   6.203   7.186 -0.0554  0.2507 -0.0026
   25POPC   C4A  669   6.344   6.614   7.040 -0.1345 -0.3652  0.1410
   25POPC   C1B  670   7.639   5.729   7.369 -0.1428  0.1344  0.0888
   25POPC   C2B  671   7.421   5.413   6.994  0.4792  0.0367 -0.3013
   25POPC   C3B  672   7.317   5.046   6.786 -0.2607 -0.0379 -0.1523
   25POPC   C4B  673   7.345   5.074   6.386 -0.2373 -0.1311 -0.1151
   26POPC   NC3  674   3.980   0.149   8.711 -0.3579 -0.1071  0.2043
   26POPC   PO4  675   3.899   0.567   8.502  0.0809 -0.1128  0.0445
   26POPC   GL1  676   4.232   0.629   8.235  0.2237 -0.1768  0.4348
   26POPC   GL2  677   4.508   0.929   8.245 -0.0898 -0.2371 -0.1211
   26POPC   C1A  678   4.189   0.641   7.805  0.3736  0.2517  0.0789
   26POPC   D2A  679   4.085   0.672   7.365  0.1230  0.0663 -0.0104
   26POPC   C3A  680   4.093   0.245   7.166  0.0725 -0.0654  0.1841
   26POPC   C4A  681   3.638   0.003   7.096 -0.1057  0.0448 -0.0567
   26POPC   C1B  682   4.640   0.871   7.849  0.0951 -0.0869  0.0029
   26POPC   C2B  683   4.652   0.982   7.454 -0.0301 -0.0298  0.0884
   26POPC   C3B  684   4.920   1.177   7.227 -0.1410 -0.0411  0.3283
   26POPC   C4B  685   5.185   1.079   6.931  0.1602  0.0021  0.2051
   27POPC   NC3  686   8.406   6.451   7.928  0.0105  0.2976  0.2822
   27POPC   PO4  687   8.526   5.954   7.939 -0.1800 -0.1903 -0.3170
   27POPC   GL1  688   8.545   6.139   7.571 -0.1793  0.2093 -0.1478
   27POPC   GL2  689   8.789   6.270   7.466 -0.2321  0.3269 -0.2866
   27POPC   C1A  690   8.396   6.160   7.167  0.0306  0.1019 -0.0533
   27POPC   D2A  691   8.303   5.970   6.800 -0.2872 -0.0806 -0.2367
   27POPC   C3A  692   8.556   6.238   6.568  0.1633 -0.1744  0.3336
   27POPC   C4A  693   8.605   6.509   6.154  0.0444  0.1922 -0.0444
   27POPC   C1B  694   8.870   6.282   7.097  0.1932  0.1506 -0.1031
   27POPC   C2B  695   8.768   5.841   6.832 -0.0851 -0.1806  0.0673
   27POPC   C3B  696   8.691   5.612   6.447 -0.2547 -0.3099 -0.0495
   27POPC   C4B  697   8.307   5.421   6.330  0.2654 -0.3041 -0.0713
   28POPC   NC3  698   2.606   2.377   8.720  0.1289  0.3017 -0.0431
   28POPC   PO4  699   2.539   2.822   8.791 -0.2769  0.0719  0.0765
   28POPC   GL1  700   2.351   2.824   8.394 -0.1095 -0.2167  0.1036
   28POPC   GL2  701   2.200   2.882   8.195  0.3233 -0.2412 -0.1185
   28POPC   C1A  702   2.682   2.746   8.006  0.2804 -0.2676  0.0833
   28POPC   D2A  703   2.957   2.325   7.877 -0.2388 -0.2581 -0.0449
   28POPC   C3A  704   3.271   2.350   7.538 -0.0247 -0.0087  0.2156
   28POPC   C4A  705   3.641   2.470   7.297  0.1968 -0.1300 -0.2029
   28POPC   C1B  706   1.826   2.912   7.884 -0.1481  0.0244  0.1458
   28POPC   C2B  707   1.611   3.201   7.684 -0.0805 -0.1484 -0.0385
   28POPC   C3B  708   1.644   3.385   7.221  0.1551  0.2003 -0.0177
   28POPC   C4B  709   1.517   3.713   6.978  0.0006 -0.1178  0.1794
   29POPC   NC3  710   8.597   6.572   8.670 -0.2264  0.5283  0.1200
   29POPC   PO4  711   8.690   6.672   8.265  0.1763  0.1176 -0.3676
   29POPC   GL1  712   8.806   6.724   7.776  0.0881  0.0063 -0.1365
   29POPC   GL2  713   8.559   6.810   7.508  0.3685 -0.2648 -0.2345
   29POPC   C1A  714   9.039   6.707   7.387  0.1984 -0.0907 -0.0767
   29POPC   D2A  715   9.123   6.786   6.905 -0.0373 -0.1203  0.0134
   29POPC   C3A  716   9.262   6.366   6.743  0.1911 -0.2495 -0.1353
   29POPC   C4A  717   9.510   6.217   6.354 -0.0216 -0.0118 -0.2746
   29POPC   C1B  718   8.356   6.793   7.143  0.1417  0.0919 -0.0007
   29POPC   C2B  719   8.205   6.605   6.748 -0.1280  0.2699  0.1885
   29POPC   C3B  720   7.864   6.364   6.703  0.2406  0.1893 -0.1024
   29POPC   C4B  721   7.581   6.108   6.426  0.4036  0.0207 -0.0872
   30POPC   NC3  722   0.003   7.631   8.730  0.2003 -0.1978  0.2448
   30POPC   PO4  723   0.210   7.396   8.483  0.1183  0.3177 -0.1756
   30POPC   GL1  724   0.118   7.546   8.084  0.0517  0.1294  0.0023
   30POPC   GL2  725   0.407   7.389   7.920  0.0105 -0.2659 -0.2967
   30POPC   C1A  726  -0.242   7.467   7.876  0.4309  0.0697 -0.1686
   30POPC   D2A  727  -0.374   7.518   7.409 -0.0491 -0.1782  0.0288
   30POPC   C3A  728  -0.284   7.815   7.124 -0.0635  0.2862 -0.3716
   30POPC   C4A  729  -0.080   8.227   6.875  0.0877  0.2795 -0.0204
   30POPC   C1B  730   0.145   7.400   7.526 -0.3333 -0.0111  0.0930
   30POPC   C2B  731   0.195   7.713   7.238  0.0747  0.0522 -0.0699
   30POPC   C3B  732   0.261   8.177   7.293 -0.0124 -0.1709  0.1697
   30POPC   C4B  733   0.271   8.477   7.469  0.2396  0.0796 -0.2516
   31POPC   NC3  734   3.135   0.069   8.437  0.2033  0.0608 -0.2678
   31POPC   PO4  735   3.080  -0.324   8.626 -0.1146 -0.0185  0.2211
   31POPC   GL1  736   3.266  -0.358   8.210  0.0744  0.0317 -0.1215
   31POPC   GL2  737   3.041  -0.165   7.951  0.0142  0.2369 -0.0243
   31POPC   C1A  738   3.377  -0.661   7.906 -0.1858 -0.0535 -0.2687
   31POPC   D2A  739   3.190  -0.586   7.441 -0.1412 -0.2397  0.2060
   31POPC   C3A  740   2.998  -0.669   7.037 -0.1814  0.4833 -0.0031
   31POPC   C4A  741   2.761  -0.828   6.656 -0.1781  0.0638 -0.1985
   31POPC   C1B  742   2.722  -0.216   7.735  0.1051 -0.2643  0.0423
   31POPC   C2B  743   2.715  -0.203   7.344  0.2024 -0.0752 -0.0054
   31POPC   C3B  744   2.658  -0.351   6.978 -0.2441 -0.1000  0.1082
   31POPC   C4B  745   2.889  -0.357   6.549  0.0101  0.0419 -0.0963
   32POPC   NC3  746   0.786   5.671   8.341 -0.0760  0.0157 -0.2860
   32POPC   PO4  747   0.753   5.185   8.393  0.0295  0.0779 -0.1063
   32POPC   GL1  748   0.757   4.940   7.953 -0.1371 -0.1903 -0.3128
   32POPC   GL2  749   0.641   4.775   8.028  0.3406  0.0454  0.5045
   32POPC   C1A  750   0.571   4.860   7.479 -0.1937 -0.1855 -0.0867
   32POPC   D2A  751   0.683   4.716   7.107 -0.5100  0.0856  0.0786
   32POPC   C3A  752   0.905   4.995   6.880  0.0661 -0.0009 -0.0203
   32POPC   C4A  753   1.324   5.093   6.772 -0.0891 -0.2364 -0.0920
   32POPC   C1B  754   0.692   4.419   7.778 -0.3842  0.2338 -0.1155
   32POPC   C2B  755   0.673   4.259   7.354  0.1029 -0.0115  0.0549
   32POPC   C3B  756   0.390   4.070   7.054  0.2160  0.4749  0.1113
   32POPC   C4B  757   0.051   4.081   6.866  0.0983  0.2976  0.1512
   33POPC   NC3  758   7.269   8.816   8.546  0.0772 -0.2135 -0.2365
   33POPC   PO4  759   7.086   8.481   8.306 -0.3884 -0.1318 -0.2301
   33POPC   GL1  760   7.193   8.633   7.935 -0.0640 -0.3150  0.1195
   33POPC   GL2  761   7.261   9.018   8.039 -0.1022 -0.1265  0.3962
   33POPC   C1A  762   7.071   8.645   7.497  0.0997  0.2893  0.1087
   33POPC   D2A  763   6.971   8.855   7.171 -0.1017  0.0479  0.0757
   33POPC   C3A  764   7.219   9.039   6.886  0.1381 -0.2285 -0.1684
   33POPC   C4A  765   7.105   9.371   6.575 -0.0541 -0.2243 -0.2666
   33POPC   C1B  766   7.488   9.155   7.665 -0.5199  0.2494  0.3244
   33POPC   C2B  767   7.583   8.935   7.290 -0.2612 -0.2450 -0.2221
   33POPC   C3B  768   7.746   8.961   6.972 -0.0698  0.2247 -0.0418
   33POPC   C4B  769   7.679   9.177   6.575 -0.0459 -0.0205 -0.0931
   34POPC   NC3  770   4.678   1.104   8.798  0.1299 -0.2273  0.1497
   34POPC   PO4  771   4.352   1.314   8.517 -0.0913 -0.1195  0.0698
   34POPC   GL1  772   4.295   1.369   8.089 -0.2240 -0.2451  0.1465
   34POPC   GL2  773   4.346   1.682   7.956 -0.0041 -0.1283 -0.0280
   34POPC   C1A  774   4.252   1.238   7.774 -0.2037  0.3289  0.3005
   34POPC   D2A  775   4.151   1.161   7.413 -0.0317  0.1347 -0.0753
   34POPC   C3A  776   4.377   1.055   7.016 -0.1789  0.1062 -0.2160
   34POPC   C4A  777   4.408   0.779   6.643 -0.0594  0.4255 -0.2968
   34POPC   C1B  778   3.994   1.643   7.613  0.2357 -0.0583 -0.1786
   34POPC   C2B  779   3.744   1.488   7.352  0.1161 -0.1288 -0.1469
   34POPC   C3B  780   3.433   1.347   7.008  0.0002 -0.1521  0.0568
   34POPC   C4B  781   3.649   1.325   6.555 -0.1262 -0.1850  0.1283
   35POPC   NC3  782   6.728   8.837   8.093 -0.0407 -0.0408 -0.1126
   35POPC   PO4  783   6.847   9.206   8.277 -0.2463  0.2511  0.4278
   35POPC   GL1  784   6.766   9.297   7.837  0.1011 -0.0830 -0.1426
   35POPC   GL2  785   6.903   9.118   7.684 -0.1271 -0.0230 -0.1008
   35POPC   C1A  786   6.736   9.498   7.399  0.2860 -0.0332  0.3225
   35POPC   D2A  787   7.018   9.489   7.111 -0.0378 -0.0602  0.2477
   35POPC   C3A  788   7.324   9.785   6.962 -0.2908 -0.1760  0.0005
   35POPC   C4A  789   7.695   9.749   6.689  0.2323 -0.0204  0.0958
   35POPC   C1B  790   6.574   9.031   7.509  0.0743  0.0573  0.1325
   35POPC   C2B  791   6.460   9.090   7.152 -0.2492  0.2830 -0.1873
   35POPC   C3B  792   6.480   9.325   6.892  0.0810  0.0259 -0.0348
   35POPC   C4B  793   6.627   9.561   6.620 -0.1580  0.0758  0.2561
   36POPC   NC3  794   3.137   3.905   8.123 -0.0197  0.3279  0.2708
   36POPC   PO4  795   3.726   3.862   8.175 -0.0278  0.2245  0.1242
   36POPC   GL1  796   3.509   3.757   7.830 -0.0231 -0.2305 -0.1179
   36POPC   GL2  797   3.183   3.641   7.745  0.2113 -0.0279  0.5048
   36POPC   C1A  798   3.584   3.598   7.475  0.2015  0.2779  0.0857
   36POPC   D2A  799   3.613   3.379   7.139  0.3776  0.0451 -0.1805
   36POPC   C3A  800   3.999   3.405   6.862  0.1102  0.0898  0.0564
   36POPC   C4A  801   4.160   3.572   6.431 -0.0037  0.0065  0.1633
   36POPC   C1B  802   3.168   3.337   7.378 -0.1600 -0.1780  0.2970
   36POPC   C2B  803   3.159   3.292   6.885  0.0014 -0.0691 -0.1227
   36POPC   C3B  804   2.888   3.021   6.615  0.0589  0.0222 -0.2529
   36POPC   C4B  805   2.694   2.898   6.272  0.0874  0.2952  0.1525
   37POPC   NC3  806   7.666   4.934   8.114  0.1375 -0.1623  0.2017
   37POPC   PO4  807   7.354   4.642   8.285 -0.1672 -0.1166  0.0121
   37POPC   GL1  808   7.166   4.902   7.890  0.0901  0.2101 -0.0833
   37POPC   GL2  809   6.755   4.761   7.749 -0.1256 -0.2735  0.2460
   37POPC   C1A  810   6.953   5.264   7.580  0.0573 -0.2384  0.1031
   37POPC   D2A  811   7.224   5.557   7.476  0.1767 -0.0987  0.0006
   37POPC   C3A  812   7.048   5.762   7.074  0.1439  0.0804  0.1398
   37POPC   C4A  813   6.901   6.149   6.808 -0.4754 -0.1261  0.1948
   37POPC   C1B  814   6.775   4.928   7.270 -0.2779 -0.1304  0.1073
   37POPC   C2B  815   6.918   5.209   7.020 -0.1332  0.0143  0.1178
   37POPC   C3B  816   6.935   5.403   6.480  0.0863 -0.0082 -0.0123
   37POPC   C4B  817   6.974   5.187   6.062  0.1944 -0.4423 -0.2367
   38POPC   NC3  818   5.891   5.049   8.207 -0.0230  0.0979  0.1961
   38POPC   PO4  819   6.463   5.028   8.367  0.2802  0.0674 -0.0458
   38POPC   GL1  820   6.378   5.136   7.964  0.2339 -0.2722 -0.1275
   38POPC   GL2  821   6.327   5.388   7.820 -0.1273  0.0478 -0.0421
   38POPC   C1A  822   6.270   5.010   7.553  0.0186 -0.0560 -0.0309
   38POPC   D2A  823   6.461   5.259   7.144 -0.0669 -0.1679 -0.3819
   38POPC   C3A  824   6.452   5.287   6.668  0.1666  0.0504 -0.1642
   38POPC   C4A  825   6.122   5.327   6.374  0.0358 -0.1047  0.1216
   38POPC   C1B  826   6.084   5.503   7.399 -0.0385 -0.2021 -0.0237
   38POPC   C2B  827   6.090   5.776   6.992 -0.3765  0.1519  0.2884
   38POPC   C3B  828   6.004   5.804   6.527  0.1289  0.4389 -0.2805
   38POPC   C4B  829   5.900   6.151   6.327 -0.0772  0.1557 -0.1971
   39POPC   NC3  830   0.517   6.982   8.630  0.0733 -0.0917 -0.3367
   39POPC   PO4  831   0.267   6.681   8.540  0.1742  0.2939  0.0356
   39POPC   GL1  832   0.295   6.916   8.145 -0.0182 -0.1250 -0.1733
   39POPC   GL2  833   0.043   7.025   7.922 -0.1188  0.1309 -0.2006
   39POPC   C1A  834   0.661   6.989   7.972  0.2214  0.1539 -0.1118
   39POPC   D2A  835   0.763   7.236   7.576  0.2357  0.0540 -0.0779
   39POPC   C3A  836   0.545   7.285   7.215  0.1659 -0.0865 -0.1859
   39POPC   C4A  837   0.472   7.523   6.880 -0.1644  0.2334 -0.3433
   39POPC   C1B  838   0.124   6.859   7.471  0.3853  0.0637  0.0402
   39POPC   C2B  839   0.185   6.976   7.078 -0.0977  0.2233 -0.1036
   39POPC   C3B  840   0.125   7.046   6.705 -0.0319  0.2001 -0.0219
   39POPC   C4B  841   0.228   7.006   6.295 -0.2087  0.5663  0.0881
   40POPC   NC3  842   5.863   8.994   8.286  0.1145 -0.0163 -0.1834
   40POPC   PO4  843   6.137   8.697   8.270  0.2709  0.1104 -0.0182
   40POPC   GL1  844   6.181   8.570   7.837 -0.0588  0.1124  0.2229
   40POPC   GL2  845   6.412   8.351   7.742 -0.0830 -0.1393 -0.0220
   40POPC   C1A  846   5.900   8.321   7.512 -0.0454 -0.2076  0.0926
   40POPC   D2A  847   5.901   8.060   7.209 -0.0687  0.0615 -0.0267
   40POPC   C3A  848   6.046   7.677   6.930 -0.1691  0.0632 -0.0087
   40POPC   C4A  849   6.181   7.450   6.568  0.0381  0.0814  0.3717
   40POPC   C1B  850   6.639   8.484   7.441 -0.3304  0.1702  0.4164
   40POPC   C2B  851   6.488   8.599   7.069 -0.0979  0.1286  0.1714
   40POPC   C3B  852   6.220   8.899   6.794 -0.0193  0.3206  0.1594
   40POPC   C4B  853   5.788   8.734   6.602 -0.0475  0.0952  0.0771
   41POPC   NC3  854   2.401   4.577   8.329 -0.1801 -0.3166 -0.2407
   41POPC   PO4  855   1.995   4.432   8.153 -0.3417 -0.0442 -0.1949
   41POPC   GL1  856   1.986   4.271   7.788  0.0609  0.0169 -0.1348
   41POPC   GL2  857   1.853   3.932   7.713 -0.2245 -0.0794 -0.0469
   41POPC   C1A  858   2.293   4.112   7.477 -0.1119  0.2204  0.1972
   41POPC   D2A  859   2.392   3.915   7.214  0.2637 -0.0665  0.0397
   41POPC   C3A  860   2.380   4.099   6.766  0.0656  0.0543 -0.2346
   41POPC   C4A  861   2.567   4.288   6.484 -0.0838 -0.1297  0.0651
   41POPC   C1B  862   1.910   3.778   7.333  0.3929  0.2656 -0.3635
   41POPC   C2B  863   2.175   3.441   7.053  0.2043 -0.0448  0.2330
   41POPC   C3B  864   2.308   3.098   6.935  0.1003 -0.1848 -0.2239
   41POPC   C4B  865   2.313   2.807   6.640  0.5143 -0.2060  0.0020
   42POPC   NC3  866   5.943   7.319   8.126  0.1176  0.0519 -0.0777
   42POPC   PO4  867   5.965   7.716   8.343  0.0458 -0.0315  0.1159
   42POPC   GL1  868   5.668   7.720   8.062  0.1376 -0.4575  0.1021
   42POPC   GL2  869   5.453   7.412   8.133  0.3752 -0.0269  0.0041
   42POPC   C1A  870   5.598   7.741   7.665 -0.1542 -0.0507 -0.0492
   42POPC   D2A  871   5.730   7.546   7.304  0.1460 -0.3934  0.2464
   42POPC   C3A  872   5.553   7.147   7.218  0.3975  0.0709  0.0948
   42POPC   C4A  873   5.188   6.946   7.209 -0.0873  0.2126  0.0456
   42POPC   C1B  874   5.223   7.268   7.660 -0.2308 -0.0398  0.0875
   42POPC   C2B  875   4.767   7.223   7.342  0.0860  0.0908 -0.2509
   42POPC   C3B  876   4.572   6.922   6.990 -0.0186 -0.1277  0.3033
   42POPC   C4B  877   4.694   7.045   6.559  0.1140  0.1851  0.1312
   43POPC   NC3  878   2.786   9.574   8.940  0.1779 -0.0241 -0.0331
   43POPC   PO4  879   2.550   9.293   8.711 -0.0247 -0.0968 -0.1850
   43POPC   GL1  880   2.469   9.065   8.258  0.3198  0.1391  0.0630
   43POPC   GL2  881   2.889   9.045   8.083 -0.1600 -0.1109 -0.0269
   43POPC   C1A  882   2.490   9.031   7.767 -0.0163  0.1788 -0.1642
   43POPC   D2A  883   2.585   8.941   7.367 -0.0686 -0.2116 -0.0267
   43POPC   C3A  884   2.368   8.905   7.028  0.0474  0.2164  0.3799
   43POPC   C4A  885   2.319   8.599   6.764 -0.1291  0.1645  0.1709
   43POPC   C1B  886   2.902   8.753   7.794  0.2147 -0.1418  0.0561
   43POPC   C2B  887   2.953   8.589   7.330 -0.0486 -0.0586  0.0511
   43POPC   C3B  888   2.820   8.352   7.049 -0.2014  0.0377  0.0022
   43POPC   C4B  889   2.698   8.285   6.650  0.1700  0.3667  0.0788
   44POPC   NC3  890   6.981   3.841   8.652 -0.0219  0.1897 -0.0110
   44POPC   PO4  891   6.638   4.002   8.396 -0.0158  0.3454 -0.0878
   44POPC   GL1  892   6.446   4.048   7.966 -0.0709  0.2063 -0.1161
   44POPC   GL2  893   6.376   3.707   7.860  0.0851 -0.1580  0.0948
   44POPC   C1A  894   6.383   4.064   7.449  0.1123  0.1714  0.0426
   44POPC   D2A  895   6.676   4.148   7.098 -0.1263  0.0810 -0.4552
   44POPC   C3A  896   6.826   4.496   6.935 -0.2175 -0.1637  0.1288
   44POPC   C4A  897   6.877   4.823   6.543  0.0195  0.0119 -0.3195
   44POPC   C1B  898   6.306   3.589   7.554 -0.2300 -0.1178  0.0245
   44POPC   C2B  899   6.460   3.658   7.122  0.3387  0.3262 -0.3547
   44POPC   C3B  900   6.599   3.705   6.737 -0.0523 -0.3641 -0.0188
   44POPC   C4B  901   6.817   3.797   6.290 -0.3876 -0.0232 -0.3664
   45POPC   NC3  902   6.598   2.500   8.320 -0.3371 -0.2661 -0.2786
   45POPC   PO4  903   6.328   2.883   8.502  0.3796 -0.1780 -0.1782
   45POPC   GL1  904   6.568   3.006   8.051  0.0077  0.0145  0.0532
   45POPC   GL2  905   6.242   3.116   8.021 -0.0660  0.1184  0.2898
   45POPC   C1A  906   6.512   2.784   7.627  0.2194  0.2566  0.1313
   45POPC   D2A  907   6.349   2.556   7.257 -0.1705 -0.3351  0.2874
   45POPC   C3A  908   6.492   2.508   6.835 -0.1896  0.0321 -0.2250
   45POPC   C4A  909   6.431   2.754   6.383  0.1369  0.0793 -0.0316
   45POPC   C1B  910   6.073   2.713   7.850 -0.2107  0.2196 -0.0604
   45POPC   C2B  911   5.834   2.588   7.450 -0.0302 -0.0606  0.2328
   45POPC   C3B  912   5.457   2.463   7.333  0.2098 -0.2970 -0.3170
   45POPC   C4B  913   5.087   2.806   7.160 -0.0741  0.1573 -0.1948
   46POPC   NC3  914   0.234   4.990   8.407  0.2249 -0.2334  0.3293
   46POPC   PO4  915   0.348   5.505   8.527  0.2057  0.4536  0.2079
   46POPC   GL1  916   0.382   5.357   8.061  0.4002  0.3645  0.0116
   46POPC   GL2  917   0.721   5.460   7.911  0.1715  0.1243 -0.0491
   46POPC   C1A  918   0.229   5.260   7.692 -0.1611 -0.1082 -0.4955
   46POPC   D2A  919   0.073   5.081   7.359 -0.0874 -0.1516  0.2805
   46POPC   C3A  920   0.177   4.890   6.977 -0.1121 -0.0995 -0.0871
   46POPC   C4A  921   0.313   4.540   6.741 -0.4017  0.1266  0.1031
   46POPC   C1B  922   0.807   5.290   7.430 -0.3187 -0.0582 -0.0936
   46POPC   C2B  923   1.090   4.922   7.335 -0.1953 -0.1862  0.0635
   46POPC   C3B  924   1.589   4.877   7.337 -0.0775  0.1456 -0.1295
   46POPC   C4B  925   1.916   5.176   7.533 -0.1152 -0.2238  0.0444
   47POPC   NC3  926   8.833   2.496   8.775 -0.1618  0.1325 -0.1344
   47POPC   PO4  927   8.963   2.813   8.409 -0.0104 -0.2837  0.2120
   47POPC   GL1  928   8.946   2.687   8.078 -0.3697  0.2074  0.0001
   47POPC   GL2  929   8.834   2.361   7.974  0.1479  0.0623  0.0311
   47POPC   C1A  930   9.098   2.678   7.668 -0.0966 -0.4443  0.1305
   47POPC   D2A  931   9.349   2.495   7.408  0.0738 -0.4566  0.0530
   47POPC   C3A  932   9.300   2.512   6.933 -0.0937  0.1450 -0.2766
   47POPC   C4A  933   9.207   2.359   6.523  0.3169 -0.1400  0.0777
   47POPC   C1B  934   8.869   1.959   7.842  0.2043  0.0711 -0.1197
   47POPC   C2B  935   8.992   1.765   7.411 -0.4383  0.1232  0.5587
   47POPC   C3B  936   8.944   1.603   7.006 -0.1200  0.0748 -0.0251
   47POPC   C4B  937   8.715   1.512   6.666 -0.0783  0.2493  0.0237
   48POPC   NC3  938   4.198   8.369   8.782  0.2022 -0.1226  0.0609
   48POPC   PO4  939   4.495   8.659   8.686 -0.0451  0.2391  0.0145
   48POPC   GL1  940   4.294   8.523   8.298  0.1028  0.0968 -0.1465
   48POPC   GL2  941   4.185   8.233   8.236  0.4703 -0.0418 -0.0162
   48POPC   C1A  942   4.224   8.683   7.812 -0.0176  0.1070  0.0332
   48POPC   D2A  943   4.092   8.921   7.498  0.1576 -0.2167 -0.0720
   48POPC   C3A  944   3.733   9.076   7.592  0.0451 -0.1228  0.1279
   48POPC   C4A  945   3.523   9.441   7.548 -0.7800 -0.4021  0.1646
   48POPC   C1B  946   4.333   8.094   7.836  0.1030  0.2296  0.1047
   48POPC   C2B  947   4.615   8.029   7.509  0.0891 -0.4665  0.0827
   48POPC   C3B  948   4.932   8.199   7.121 -0.0675  0.2465  0.2285
   48POPC   C4B  949   5.094   8.552   7.089  0.1434  0.1086  0.1936
   49POPC   NC3  950   9.030   8.377   8.762 -0.2082 -0.1000 -0.0462
   49POPC   PO4  951   9.307   8.154   8.643 -0.2296  0.0643  0.0987
   49POPC   GL1  952   9.462   8.313   8.320  0.2566 -0.2511  0.0997
   49POPC   GL2  953   9.233   8.259   8.029  0.0197  0.0285  0.1770
   49POPC   C1A  954   9.757   8.510   8.135 -0.0735  0.0815 -0.3527
   49POPC   D2A  955   9.902   8.790   7.841  0.0058 -0.1520  0.2236
   49POPC   C3A  956  10.047   9.200   8.017  0.1389  0.0113  0.0788
   49POPC   C4A  957   9.914   9.660   8.109  0.0563 -0.1763 -0.2285
   49POPC   C1B  958   9.391   8.630   7.888  0.3991 -0.2605 -0.1355
   49POPC   C2B  959   9.383   8.804   7.515 -0.1570  0.4107  0.1522
   49POPC   C3B  960   9.304   9.095   7.191 -0.0220 -0.0776  0.3127
   49POPC   C4B  961   9.194   9.284   6.785  0.0283  0.2385  0.0288
   50POPC   NC3  962   7.031   2.563   8.583  0.0334  0.4115  0.0820
   50POPC   PO4  963   6.830   2.912   8.446 -0.0861  0.1711 -0.3620
   50POPC   GL1  964   7.064   2.854   8.092 -0.1335 -0.2387  0.1705
   50POPC   GL2  965   7.289   2.575   8.034 -0.0808  0.0745 -0.2022
   50POPC   C1A  966   7.184   3.031   7.637 -0.2640  0.0842  0.2784
   50POPC   D2A  967   7.062   2.997   7.263  0.0955  0.3094 -0.2000
   50POPC   C3A  968   7.024   3.384   7.059 -0.1412 -0.1961 -0.0402
   50POPC   C4A  969   6.932   3.391   6.559 -0.1599 -0.1824 -0.1766
   50POPC   C1B  970   6.949   2.518   7.684 -0.3797 -0.0805 -0.1410
   50POPC   C2B  971   6.841   2.507   7.212  0.0007  0.0177  0.3670
   50POPC   C3B  972   6.908   2.778   6.841  0.3800 -0.2753 -0.1152
   50POPC   C4B  973   7.259   3.018   6.619 -0.1182  0.3243 -0.0867
   51POPC   NC3  974   8.861   5.092   8.125 -0.2695 -0.1832 -0.5831
   51POPC   PO4  975   9.315   5.043   8.214 -0.0330 -0.2515 -0.0588
   51POPC   GL1  976   9.251   4.970   7.742 -0.2827  0.0927 -0.1582
   51POPC   GL2  977   8.979   5.226   7.656  0.2843 -0.0161 -0.0154
   51POPC   C1A  978   9.320   4.699   7.474 -0.2347 -0.2658  0.1683
   51POPC   D2A  979   9.059   4.620   7.115  0.2606 -0.1382  0.0003
   51POPC   C3A  980   9.119   4.708   6.749 -0.3714  0.0100 -0.0323
   51POPC   C4A  981   8.794   4.545   6.521  0.1234  0.2861 -0.0375
   51POPC   C1B  982   9.247   5.214   7.304  0.0901 -0.3183 -0.0334
   51POPC   C2B  983   9.421   5.039   6.976  0.3041 -0.0131 -0.1402
   51POPC   C3B  984   9.590   5.046   6.580  0.1452  0.2374  0.0652
   51POPC   C4B  985   9.542   5.158   6.103  0.3454  0.0979 -0.1438
   52POPC   NC3  986   3.494   1.890   8.531 -0.2470  0.0696  0.0537
   52POPC   PO4  987   3.593   2.315   8.377 -0.4178  0.0846 -0.0297
   52POPC   GL1  988   3.425   2.001   8.010  0.0716 -0.4588 -0.1403
   52POPC   GL2  989   3.569   1.950   7.666  0.3567  0.0822 -0.1320
   52POPC   C1A  990   3.067   1.865   7.745 -0.1621  0.0284 -0.4684
   52POPC   D2A  991   3.112   1.677   7.333  0.4647 -0.0797 -0.0911
   52POPC   C3A  992   2.889   1.573   6.951  0.1190 -0.0154 -0.4408
   52POPC   C4A  993   2.582   1.459   6.621 -0.0276  0.1895  0.0199
   52POPC   C1B  994   3.468   1.993   7.146 -0.0148 -0.2699  0.2520
   52POPC   C2B  995   3.225   1.995   6.756  0.2452  0.2521  0.0960
   52POPC   C3B  996   3.078   1.779   6.515 -0.0746 -0.0061 -0.1159
   52POPC   C4B  997   3.138   1.454   6.145 -0.0343 -0.0159 -0.2818
   53POPC   NC3  998   7.252   0.356   8.168  0.4918  0.0888  0.1613
   53POPC   PO4  999   7.323   0.779   8.318  0.0024 -0.2870  0.4172
   53POPC   GL1 1000   7.369   0.814   7.841 -0.2393 -0.0436 -0.2547
   53POPC   GL2 1001   7.026   0.961   7.746 -0.1233  0.1358 -0.1420
   53POPC   C1A 1002   7.394   0.653   7.462 -0.2857 -0.3477  0.2150
   53POPC   D2A 1003   7.544   0.596   6.997 -0.0816  0.0928  0.2189
   53POPC   C3A 1004   7.904   0.611   6.771  0.0830 -0.1193  0.2185
   53POPC   C4A 1005   8.058   0.743   6.417 -0.0772 -0.0719 -0.2288
   53POPC   C1B 1006   7.124   1.023   7.340 -0.2242 -0.2494 -0.3378
   53POPC   C2B 1007   6.859   0.983   7.032 -0.3143 -0.0313 -0.1374
   53POPC   C3B 1008   6.884   1.157   6.627  0.2205  0.0546  0.0557
   53POPC   C4B 1009   6.715   1.433   6.377 -0.4978  0.0047 -0.1030
   54POPC   NC3 1010   1.678   9.506   9.042 -0.1925 -0.0908 -0.2527
   54POPC   PO4 1011   1.977   9.673   9.191  0.0410 -0.0192  0.0253
   54POPC   GL1 1012   1.993   9.815   8.750  0.0973  0.1600  0.1939
   54POPC   GL2 1013   2.172   9.543   8.513  0.0989 -0.3249  0.1131
   54POPC   C1A 1014   1.868   9.870   8.297 -0.0783  0.1734  0.2040
   54POPC   D2A 1015   1.694   9.683   7.908 -0.2481 -0.0771  0.2045
   54POPC   C3A 1016   1.635   9.192   7.880 -0.0403 -0.0233 -0.1838
   54POPC   C4A 1017   1.568   8.801   7.996  0.0211  0.0322  0.2267
   54POPC   C1B 1018   2.220   9.595   8.044  0.1046  0.0490 -0.0102
   54POPC   C2B 1019   2.295   9.725   7.531 -0.2484  0.2789 -0.2589
   54POPC   C3B 1020   2.473   9.982   7.219  0.0254  0.2029  0.1943
   54POPC   C4B 1021   2.379  10.225   6.913  0.3352 -0.1131  0.0089
   55POPC   NC3 1022   8.972   3.288   8.539 -0.2946 -0.0799  0.0869
   55POPC   PO4 1023   9.303   3.305   8.865  0.0121  0.4510  0.2556
   55POPC   GL1 1024   9.431   3.031   8.466  0.2503 -0.1934 -0.0818
   55POPC   GL2 1025   9.692   2.751   8.461 -0.2196  0.0781 -0.1904
   55POPC   C1A 1026   9.647   3.050   8.101 -0.1595  0.3292 -0.1112
   55POPC   D2A 1027   9.586   2.816   7.710  0.1391  0.0651  0.0540
   55POPC   C3A 1028   9.335   3.004   7.401 -0.1300 -0.1383 -0.2941
   55POPC   C4A 1029   8.974   3.093   7.569 -0.0118 -0.3010 -0.0766
   55POPC   C1B 1030   9.700   2.440   8.103 -0.0084 -0.0723 -0.2654
   55POPC   C2B 1031   9.818   2.352   7.589 -0.1047 -0.1787  0.1571
   55POPC   C3B 1032   9.804   2.165   7.162  0.0821  0.3208  0.0632
   55POPC   C4B 1033  10.025   1.855   7.008  0.0494 -0.2030  0.2576
   56POPC   NC3 1034   3.201   5.032   8.195  0.1316 -0.2356 -0.0745
   56POPC   PO4 1035   3.405   4.644   8.353 -0.2022 -0.1545  0.2042
   56POPC   GL1 1036   3.564   4.323   8.100 -0.1551 -0.2684  0.0389
   56POPC   GL2 1037   3.449   4.341   7.818 -0.0341 -0.4431  0.2438
   56POPC   C1A 1038   3.888   4.475   7.720  0.1273 -0.1299 -0.0081
   56POPC   D2A 1039   4.096   4.732   7.393  0.1943  0.1360  0.0463
   56POPC   C3A 1040   4.072   4.822   6.909  0.2905  0.1520  0.2769
   56POPC   C4A 1041   4.286   4.712   6.632 -0.1910  0.4931 -0.1799
   56POPC   C1B 1042   3.321   4.140   7.514  0.0222  0.1658  0.1421
   56POPC   C2B 1043   3.203   3.850   7.222  0.2062 -0.0964 -0.2827
   56POPC   C3B 1044   3.329   3.778   6.837 -0.4177  0.2515 -0.0249
   56POPC   C4B 1045   3.578   3.481   6.617 -0.1336  0.0368  0.0450
   57POPC   NC3 1046   5.088   9.167   8.797 -0.2065 -0.1186 -0.0021
   57POPC   PO4 1047   4.798   9.370   8.615 -0.2993 -0.1211  0.1400
   57POPC   GL1 1048   4.928   9.421   8.234 -0.2887  0.6465  0.0786
   57POPC   GL2 1049   4.907   9.704   8.141 -0.1901  0.0394 -0.2350
   57POPC   C1A 1050   4.972   9.237   7.875  0.2288 -0.0544  0.0702
   57POPC   D2A 1051   5.103   8.994   7.448 -0.0585 -0.0538  0.0393
   57POPC   C3A 1052   5.125   8.580   7.577  0.0601  0.1810 -0.1207
   57POPC   C4A 1053   4.972   8.262   7.784  0.2610  0.1397 -0.1589
   57POPC   C1B 1054   4.571   9.620   7.770 -0.1449 -0.0102 -0.0160
   57POPC   C2B 1055   4.221   9.853   7.636  0.2246 -0.0483  0.0638
   57POPC   C3B 1056   3.887   9.874   7.712 -0.1394 -0.0183  0.0255
   57POPC   C4B 1057   3.577   9.792   7.960 -0.1000 -0.2217  0.2767
   58POPC   NC3 1058   2.283   8.335   8.911  0.0188  0.0207  0.0296
   58POPC   PO4 1059   2.073   8.077   8.724 -0.1251  0.1672  0.0710
   58POPC   GL1 1060   2.051   7.970   8.461  0.1243  0.1139  0.4951
   58POPC   GL2 1061   2.201   7.986   8.229 -0.2642 -0.0328 -0.0786
   58POPC   C1A 1062   1.654   8.114   8.141  0.1888 -0.0709 -0.3475
   58POPC   D2A 1063   1.615   8.315   7.704  0.1201  0.2566  0.1994
   58POPC   C3A 1064   1.764   8.596   7.426 -0.0924  0.0184 -0.2799
   58POPC   C4A 1065   1.848   8.710   7.007 -0.1014  0.1182 -0.0193
   58POPC   C1B 1066   2.110   7.883   7.783  0.1993 -0.1919  0.2597
   58POPC   C2B 1067   1.997   8.068   7.459 -0.2815  0.1330 -0.2615
   58POPC   C3B 1068   1.752   8.232   7.146 -0.1148 -0.0810 -0.2476
   58POPC   C4B 1069   1.859   8.297   6.743 -0.1635 -0.1634 -0.0359
   59POPC   NC3 1070   3.386   2.988   8.361  0.2034  0.0689 -0.0520
   59POPC   PO4 1071   3.779   2.842   8.233 -0.1312  0.0771  0.4138
   59POPC   GL1 1072   4.082   2.953   7.858  0.0381 -0.1142 -0.1430
   59POPC   GL2 1073   4.070   2.766   7.690 -0.0728  0.3141 -0.0563
   59POPC   C1A 1074   4.420   3.022   7.544 -0.2472 -0.1633 -0.0563
   59POPC   D2A 1075   4.584   2.821   7.176 -0.4341 -0.1391 -0.4703
   59POPC   C3A 1076   4.496   2.523   6.932  0.1032 -0.0821  0.1115
   59POPC   C4A 1077   4.565   2.271   6.563  0.2704 -0.2305  0.1315
   59POPC   C1B 1078   4.125   2.662   7.222  0.0347  0.4477 -0.0665
   59POPC   C2B 1079   3.895   2.525   6.815 -0.1827 -0.1807  0.3033
   59POPC   C3B 1080   3.627   2.206   6.696 -0.0126 -0.1141 -0.0875
   59POPC   C4B 1081   3.758   1.820   6.774  0.0731  0.3665  0.1203
   60POPC   NC3 1082   5.100   4.809   8.211  0.0394  0.1398 -0.3071
   60POPC   PO4 1083   5.407   5.111   8.203  0.1559  0.1399  0.0120
   60POPC   GL1 1084   5.334   5.034   7.784  0.3859  0.0322  0.4550
   60POPC   GL2 1085   5.184   5.252   7.557 -0.0352  0.1324  0.0999
   60POPC   C1A 1086   5.379   4.729   7.404 -0.1017 -0.2458  0.1428
   60POPC   D2A 1087   5.380   4.249   7.220 -0.0407 -0.3235 -0.1082
   60POPC   C3A 1088   5.169   4.165   6.877 -0.0579  0.3367 -0.0076
   60POPC   C4A 1089   5.130   4.131   6.424 -0.3332  0.3891  0.2209
   60POPC   C1B 1090   5.110   5.284   7.137  0.1961 -0.1926  0.3701
   60POPC   C2B 1091   4.837   5.525   6.940  0.0086 -0.0483  0.0892
   60POPC   C3B 1092   4.486   5.622   7.014 -0.1454 -0.1602 -0.1789
   60POPC   C4B 1093   4.385   5.743   7.382  0.0189 -0.0061  0.3464
   61POPC   NC3 1094   7.994   8.380   8.636 -0.0702 -0.0060 -0.0235
   61POPC   PO4 1095   7.858   8.273   8.196 -0.0427  0.0726  0.1980
   61POPC   GL1 1096   7.839   8.233   7.775 -0.1738 -0.2251 -0.2624
   61POPC   GL2 1097   8.063   8.105   7.581 -0.0872  0.1013 -0.0114
   61POPC   C1A 1098   7.521   8.432   7.515 -0.0554  0.0323 -0.0644
   61POPC   D2A 1099   7.424   8.499   7.024 -0.0810 -0.1754  0.0268
   61POPC   C3A 1100   7.663   8.698   6.581  0.1063 -0.0916  0.1572
   61POPC   C4A 1101   7.871   8.821   6.210 -0.2020 -0.1145  0.0153
   61POPC   C1B 1102   7.785   8.116   7.272  0.2284 -0.3547  0.4506
   61POPC   C2B 1103   7.406   7.915   7.143  0.2084 -0.0088  0.0607
   61POPC   C3B 1104   7.066   7.782   6.947 -0.0469  0.6072  0.0050
   61POPC   C4B 1105   6.997   7.321   6.805  0.0493  0.1796  0.0803
   62POPC   NC3 1106   5.574   8.177   8.595 -0.3386  0.2723 -0.2761
   62POPC   PO4 1107   5.693   8.495   8.263 -0.0337 -0.1430 -0.1784
   62POPC   GL1 1108   5.591   8.709   7.808 -0.0648  0.0734  0.0449
   62POPC   GL2 1109   5.412   8.916   7.881 -0.0491  0.1859  0.0292
   62POPC   C1A 1110   5.545   8.715   7.362  0.1091  0.1738  0.2176
   62POPC   D2A 1111   5.467   8.944   6.903 -0.1239  0.1135 -0.0830
   62POPC   C3A 1112   5.224   8.733   6.553 -0.0915  0.2939 -0.0869
   62POPC   C4A 1113   5.109   8.809   6.113 -0.0136 -0.2872 -0.0356
   62POPC   C1B 1114   5.540   9.220   7.631 -0.0825 -0.0857 -0.0466
   62POPC   C2B 1115   5.507   9.499   7.286  0.1114 -0.0971  0.1455
   62POPC   C3B 1116   5.770   9.831   7.007 -0.0064  0.0691  0.2015
   62POPC   C4B 1117   5.778  10.120   6.611 -0.2709  0.4196 -0.3215
   63POPC   NC3 1118   6.367   1.149   8.834  0.2288 -0.1730 -0.0152
   63POPC   PO4 1119   6.062   1.216   8.514  0.0555  0.2161  0.2646
   63POPC   GL1 1120   6.193   1.269   8.059  0.3572  0.4294 -0.1921
   63POPC   GL2 1121   5.892   1.221   8.023 -0.1100 -0.1439 -0.2139
   63POPC   C1A 1122   6.157   1.132   7.645 -0.0677  0.0681  0.4120
   63POPC   D2A 1123   6.164   1.052   7.182 -0.1075 -0.2936  0.2639
   63POPC   C3A 1124   5.817   1.068   7.094 -0.2828 -0.2401  0.0886
   63POPC   C4A 1125   5.664   1.011   6.690 -0.4001  0.1076 -0.2051
   63POPC   C1B 1126   5.594   1.178   7.734 -0.0949  0.1004 -0.1548
   63POPC   C2B 1127   5.451   0.922   7.471 -0.0325  0.2699  0.2825
   63POPC   C3B 1128   5.521   0.646   7.055  0.1530  0.2876  0.0775
   63POPC   C4B 1129   5.318   0.284   6.737  0.0986 -0.2190 -0.2098
   64POPC   NC3 1130   9.466   4.350   8.739 -0.1785 -0.1787 -0.1197
   64POPC   PO4 1131   9.927   4.465   8.517  0.0943  0.2035 -0.1564
   64POPC   GL1 1132   9.928   4.472   8.123 -0.0100 -0.0240 -0.3566
   64POPC   GL2 1133   9.793   4.163   8.053 -0.2524 -0.2061 -0.1624
   64POPC   C1A 1134   9.696   4.456   7.652 -0.0012  0.1662  0.1546
   64POPC   D2A 1135   9.861   4.469   7.292  0.0851  0.1535  0.3852
   64POPC   C3A 1136   9.539   4.535   7.054 -0.1258  0.2109 -0.1642
   64POPC   C4A 1137   9.540   4.510   6.583  0.2232 -0.0437  0.0570
   64POPC   C1B 1138   9.982   4.089   7.624  0.0295  0.2610 -0.4666
   64POPC   C2B 1139   9.885   3.716   7.439  0.0406  0.0937  0.0194
   64POPC   C3B 1140   9.717   3.505   6.983  0.0673 -0.1806 -0.1111
   64POPC   C4B 1141   9.483   3.173   6.938 -0.3735  0.2917 -0.0485
   65POPC   NC3 1142   5.995   9.459   8.561 -0.0618  0.0301 -0.0364
   65POPC   PO4 1143   6.404   9.570   8.353 -0.1328  0.0591 -0.3990
   65POPC   GL1 1144   6.321   9.483   7.932  0.1141 -0.0445 -0.1716
   65POPC   GL2 1145   6.244   9.101   7.994 -0.1919 -0.0803  0.1648
   65POPC   C1A 1146   6.207   9.392   7.551  0.1291 -0.2003  0.0331
   65POPC   D2A 1147   5.919   9.178   7.180  0.1404  0.0475  0.0354
   65POPC   C3A 1148   6.037   9.453   6.739  0.1719 -0.1702 -0.2345
   65POPC   C4A 1149   5.774   9.639   6.494 -0.0661 -0.0587  0.1918
   65POPC   C1B 1150   6.015   8.963   7.675  0.0180 -0.1224  0.2009
   65POPC   C2B 1151   6.157   8.780   7.383  0.1297  0.0309 -0.0281
   65POPC   C3B 1152   5.926   8.587   7.069  0.2590 -0.1287 -0.2936
   65POPC   C4B 1153   5.517   8.398   6.944 -0.0420  0.0536  0.0155
   66POPC   NC3 1154   1.992   6.824   9.070  0.0986  0.1423  0.0877
   66POPC   PO4 1155   2.292   7.052   8.820  0.1309  0.3450  0.1931
   66POPC   GL1 1156   2.171   7.107   8.380 -0.1752  0.1533 -0.1263
   66POPC   GL2 1157   2.389   7.147   8.094 -0.1074  0.1800  0.0929
   66POPC   C1A 1158   1.996   7.375   8.025  0.2662  0.4671 -0.0990
   66POPC   D2A 1159   1.674   7.656   7.856  0.2755 -0.1588 -0.0755
   66POPC   C3A 1160   1.529   7.800   7.506  0.1179 -0.1749 -0.1776
   66POPC   C4A 1161   1.358   7.836   7.143 -0.1690 -0.1081  0.0541
   66POPC   C1B 1162   2.588   6.903   7.698 -0.1713  0.3327  0.0613
   66POPC   C2B 1163   2.823   6.495   7.502  0.1465  0.1247 -0.2083
   66POPC   C3B 1164   3.196   6.469   7.398 -0.0037 -0.3803  0.0177
   66POPC   C4B 1165   3.292   6.400   6.978 -0.1145  0.3032  0.0066
   67POPC   NC3 1166   8.076   5.566   8.026  0.1189  0.3088 -0.1606
   67POPC   PO4 1167   8.261   5.209   8.253 -0.0860  0.0340  0.0080
   67POPC   GL1 1168   8.391   4.920   7.801 -0.0917 -0.0769 -0.1945
   67POPC   GL2 1169   8.044   4.709   7.830 -0.1567 -0.1093 -0.2096
   67POPC   C1A 1170   8.719   4.800   7.495  0.0885 -0.1825  0.0266
   67POPC   D2A 1171   8.582   4.827   7.003  0.2255  0.1712  0.3720
   67POPC   C3A 1172   8.317   5.123   6.846 -0.0309  0.0614 -0.0042
   67POPC   C4A 1173   8.388   5.495   6.860  0.1292  0.0461  0.0228
   67POPC   C1B 1174   8.190   4.526   7.460 -0.0283  0.0232  0.0172
   67POPC   C2B 1175   8.302   4.445   7.131  0.0629 -0.2254  0.1096
   67POPC   C3B 1176   7.900   4.357   6.942 -0.0541 -0.3778  0.2553
   67POPC   C4B 1177   7.579   4.134   6.567  0.1592 -0.0268 -0.0621
   68POPC   NC3 1178   7.471   9.565   8.845  0.0436 -0.1128  0.2533
   68POPC   PO4 1179   7.326   9.290   8.454 -0.1349 -0.1180  0.1875
   68POPC   GL1 1180   7.736   9.209   8.152 -0.2238  0.0893 -0.2332
   68POPC   GL2 1181   8.113   9.270   8.270  0.0558 -0.0091 -0.1746
   68POPC   C1A 1182   7.970   9.001   7.896 -0.1737 -0.0142 -0.0363
   68POPC   D2A 1183   7.963   8.736   7.703 -0.0162  0.2299  0.4917
   68POPC   C3A 1184   7.942   8.595   7.228 -0.1983 -0.1511 -0.0915
   68POPC   C4A 1185   7.895   8.374   6.875 -0.1633 -0.1978  0.0414
   68POPC   C1B 1186   8.311   9.391   7.769  0.2084 -0.0013 -0.1592
   68POPC   C2B 1187   8.385   9.542   7.362  0.2413  0.0820  0.1159
   68POPC   C3B 1188   8.349   9.890   7.104  0.0711 -0.1205  0.0628
   68POPC   C4B 1189   8.360  10.254   6.809  0.0790  0.2256  0.0448
   69POPC   NC3 1190   4.679   2.810   8.656  0.1371  0.4165  0.3744
   69POPC   PO4 1191   4.764   3.178   8.443  0.1460 -0.2261  0.1522
   69POPC   GL1 1192   4.747   3.150   8.024  0.0095  0.1709  0.1479
   69POPC   GL2 1193   4.593   3.398   7.865 -0.1952  0.0443 -0.2763
   69POPC   C1A 1194   4.880   3.138   7.526 -0.2092  0.0882 -0.1815
   69POPC   D2A 1195   5.018   3.285   7.164  0.1338  0.1131  0.1927
   69POPC   C3A 1196   5.310   3.171   6.730  0.3329 -0.1965  0.0367
   69POPC   C4A 1197   5.420   2.845   6.436 -0.1743 -0.3481 -0.2135
   69POPC   C1B 1198   4.601   3.512   7.386  0.0181 -0.2433  0.0947
   69POPC   C2B 1199   4.547   3.266   7.039  0.2100  0.1373 -0.0361
   69POPC   C3B 1200   4.249   2.927   6.834 -0.0210  0.2337  0.3432
   69POPC   C4B 1201   4.033   2.864   6.468  0.2267 -0.0169  0.1077
   70POPC   NC3 1202   1.413   2.040   9.502 -0.0986 -0.1374 -0.0650
   70POPC   PO4 1203   1.802   1.703   9.453 -0.0943 -0.1935  0.2263
   70POPC   GL1 1204   1.606   1.793   8.981  0.2715 -0.0114 -0.0604
   70POPC   GL2 1205   1.813   1.851   8.706  0.0820  0.2489 -0.1706
   70POPC   C1A 1206   1.321   1.733   8.540  0.1118 -0.1736 -0.1027
   70POPC   D2A 1207   1.294   1.798   8.036 -0.1388 -0.0478 -0.2077
   70POPC   C3A 1208   1.329   2.200   7.972  0.0313 -0.1603 -0.3110
   70POPC   C4A 1209   1.502   2.639   7.686  0.1182  0.5176 -0.0194
   70POPC   C1B 1210   1.618   2.164   8.434  0.0042  0.5300  0.1360
   70POPC   C2B 1211   1.580   2.484   8.250 -0.2050  0.0734 -0.1360
   70POPC   C3B 1212   1.348   2.921   8.089 -0.2023  0.3773 -0.1946
   70POPC   C4B 1213   0.918   3.042   7.998  0.2842 -0.0586  0.0887
   71POPC   NC3 1214   0.107   3.849   8.430  0.2010  0.0585 -0.0221
   71POPC   PO4 1215   0.442   3.918   8.329  0.0212  0.0305 -0.0358
   71POPC   GL1 1216   0.617   4.008   7.977 -0.2008 -0.0267  0.0989
   71POPC   GL2 1217   1.093   4.032   7.928  0.0465  0.1307  0.0869
   71POPC   C1A 1218   0.726   3.827   7.626  0.1786  0.1473  0.0205
   71POPC   D2A 1219   0.737   3.776   7.212  0.2353  0.1727 -0.1609
   71POPC   C3A 1220   0.571   3.483   7.165  0.2293 -0.0540 -0.1496
   71POPC   C4A 1221   0.681   3.176   7.529  0.0162  0.1042 -0.4171
   71POPC   C1B 1222   1.307   3.887   7.467 -0.2733  0.1982 -0.3420
   71POPC   C2B 1223   1.167   4.069   7.065  0.0092 -0.1334  0.0815
   71POPC   C3B 1224   0.861   4.282   6.889  0.0283 -0.0934 -0.5720
   71POPC   C4B 1225   0.817   4.597   6.664  0.1775  0.0014 -0.0080
   72POPC   NC3 1226   0.652   5.846   8.830 -0.0079 -0.0276 -0.1316
   72POPC   PO4 1227   0.422   6.036   8.510  0.0620  0.2114 -0.0051
   72POPC   GL1 1228   0.350   5.834   8.155 -0.2142  0.2651 -0.3784
   72POPC   GL2 1229   0.692   5.969   7.942 -0.1924  0.3489  0.0690
   72POPC   C1A 1230   0.137   5.751   7.777 -0.2275 -0.1674 -0.0209
   72POPC   D2A 1231  -0.263   5.618   7.548  0.0989  0.1307  0.0929
   72POPC   C3A 1232  -0.032   5.461   7.139  0.0283 -0.0006  0.0487
   72POPC   C4A 1233   0.165   5.463   6.684  0.0974 -0.1182 -0.1511
   72POPC   C1B 1234   0.825   6.089   7.498  0.2757 -0.3192  0.0218
   72POPC   C2B 1235   1.051   6.387   7.352  0.3412 -0.1734 -0.0699
   72POPC   C3B 1236   1.122   6.340   6.865  0.1697  0.1266  0.1000
   72POPC   C4B 1237   1.163   6.728   6.738  0.2352 -0.0267 -0.0295
   73POPC   NC3 1238   9.578   5.826   8.553  0.0508  0.1695  0.0427
   73POPC   PO4 1239   9.163   5.941   8.402  0.0273 -0.4182  0.0147
   73POPC   GL1 1240   9.462   6.033   7.992 -0.2867 -0.0835 -0.0939
   73POPC   GL2 1241   9.293   6.130   7.679  0.1144 -0.2480  0.1252
   73POPC   C1A 1242   9.794   6.223   7.695 -0.4256  0.0402  0.1197
   73POPC   D2A 1243  10.043   6.409   7.414 -0.0363 -0.2107  0.0754
   73POPC   C3A 1244  10.222   6.198   7.110  0.1864  0.0360  0.0105
   73POPC   C4A 1245  10.385   6.257   6.637  0.0686 -0.0873 -0.0001
   73POPC   C1B 1246   9.480   6.420   7.263  0.2791 -0.3210 -0.0688
   73POPC   C2B 1247   9.715   6.346   6.945 -0.0389  0.0687  0.0464
   73POPC   C3B 1248   9.934   6.578   6.704  0.0268  0.0545 -0.0296
   73POPC   C4B 1249  10.014   6.439   6.362  0.0671 -0.0144  0.3071
   74POPC   NC3 1250   7.265   3.064   8.606  0.1096 -0.3859  0.0319
   74POPC   PO4 1251   7.131   3.320   8.326  0.3279  0.1242 -0.0923
   74POPC   GL1 1252   7.037   3.434   7.921 -0.1233 -0.2830 -0.2400
   74POPC   GL2 1253   6.954   3.782   8.000 -0.0077  0.1034  0.3710
   74POPC   C1A 1254   6.743   3.366   7.489  0.3314 -0.0241 -0.3288
   74POPC   D2A 1255   6.530   3.193   7.282 -0.3945  0.0877 -0.0274
   74POPC   C3A 1256   6.537   3.159   6.848 -0.0475  0.1811  0.2160
   74POPC   C4A 1257   6.482   3.274   6.368  0.2734  0.0356 -0.3589
   74POPC   C1B 1258   6.825   3.866   7.513  0.0150 -0.1089  0.0249
   74POPC   C2B 1259   7.082   3.886   7.086  0.1463  0.0521  0.1290
   74POPC   C3B 1260   7.077   3.988   6.682  0.0113  0.1515 -0.1579
   74POPC   C4B 1261   7.102   4.366   6.499 -0.1465 -0.2359  0.4108
   75POPC   NC3 1262   3.300   2.588   8.674  0.0029  0.1351 -0.2405
   75POPC   PO4 1263   3.057   2.201   8.656 -0.1977 -0.0014 -0.0071
   75POPC   GL1 1264   2.915   2.062   8.334  0.0659  0.0855 -0.1192
   75POPC   GL2 1265   3.078   1.770   8.318 -0.0488  0.0772  0.1206
   75POPC   C1A 1266   2.665   1.885   8.098  0.1950  0.0441 -0.1238
   75POPC   D2A 1267   2.289   1.869   7.870  0.0865  0.1180 -0.2259
   75POPC   C3A 1268   2.101   1.649   7.554  0.3586  0.0506 -0.0542
   75POPC   C4A 1269   1.697   1.338   7.582  0.2451 -0.1360 -0.0211
   75POPC   C1B 1270   2.893   1.454   7.981 -0.4035 -0.1665 -0.0181
   75POPC   C2B 1271   2.661   1.576   7.583  0.0204 -0.2565  0.3857
   75POPC   C3B 1272   2.762   2.083   7.415  0.1673 -0.0777 -0.1044
   75POPC   C4B 1273   3.023   2.329   7.084  0.1583 -0.0376 -0.1805
   76POPC   NC3 1274   9.300   8.910   9.039  0.2274  0.1122  0.3278
   76POPC   PO4 1275   9.006   9.279   9.066  0.1053 -0.3285 -0.0082
   76POPC   GL1 1276   8.847   9.489   8.804  0.2204  0.0194  0.0676
   76POPC   GL2 1277   8.681   9.502   8.477  0.2695 -0.2732 -0.0645
   76POPC   C1A 1278   9.064   9.919   8.692 -0.1377  0.4229 -0.3541
   76POPC   D2A 1279   8.736  10.222   8.663  0.0632  0.0191  0.1209
   76POPC   C3A 1280   8.697  10.643   8.690 -0.0897 -0.0314  0.1651
   76POPC   C4A 1281   8.849  10.951   8.791 -0.2903  0.0554 -0.0834
   76POPC   C1B 1282   8.372   9.696   8.237  0.0177 -0.1880 -0.0419
   76POPC   C2B 1283   8.236   9.824   7.900  0.1115  0.0409 -0.3381
   76POPC   C3B 1284   8.266  10.073   7.605  0.5279 -0.0245 -0.0219
   76POPC   C4B 1285   8.354  10.610   7.579 -0.0290  0.0646  0.2536
   77POPC   NC3 1286   6.961   6.226   8.019 -0.0129  0.2360 -0.0744
   77POPC   PO4 1287   6.694   6.143   8.342 -0.0443 -0.0282 -0.2134
   77POPC   GL1 1288   6.516   5.887   7.995 -0.1359  0.0738  0.1755
   77POPC   GL2 1289   6.723   5.689   7.803  0.0897 -0.0486  0.0085
   77POPC   C1A 1290   6.236   5.984   7.747  0.4764 -0.2729  0.1510
   77POPC   D2A 1291   6.112   6.331   7.505 -0.0334  0.1472 -0.0834
   77POPC   C3A 1292   6.000   6.250   7.103 -0.1384  0.1307 -0.0542
   77POPC   C4A 1293   5.683   6.022   6.838 -0.0414 -0.0122 -0.1519
   77POPC   C1B 1294   6.683   5.671   7.381  0.0650 -0.1413  0.2005
   77POPC   C2B 1295   6.576   5.727   6.851  0.0717 -0.0500  0.0591
   77POPC   C3B 1296   6.461   5.812   6.442  0.0710 -0.2416  0.1064
   77POPC   C4B 1297   6.530   5.458   6.157  0.2646 -0.0375  0.1176
   78POPC   NC3 1298   5.360   4.290   8.377 -0.2229 -0.1386  0.2351
   78POPC   PO4 1299   5.537   4.647   8.075 -0.2495 -0.0512  0.1150
   78POPC   GL1 1300   5.774   4.816   7.658  0.1027  0.0065  0.2003
   78POPC   GL2 1301   5.927   4.600   7.524  0.2636  0.2277 -0.4491
   78POPC   C1A 1302   5.947   4.943   7.197  0.2269  0.1262  0.0892
   78POPC   D2A 1303   5.534   4.909   6.933 -0.2868  0.3530 -0.1567
   78POPC   C3A 1304   5.516   4.509   6.663  0.2347 -0.0315 -0.1699
   78POPC   C4A 1305   5.633   4.126   6.660 -0.0283  0.2273  0.0085
   78POPC   C1B 1306   5.836   4.475   7.121  0.0513  0.0650  0.1573
   78POPC   C2B 1307   5.966   4.486   6.757 -0.0890 -0.0659 -0.4428
   78POPC   C3B 1308   6.325   4.424   6.537 -0.0687  0.0495 -0.1378
   78POPC   C4B 1309   6.628   4.176   6.553 -0.0295 -0.1653 -0.0721
   79POPC   NC3 1310   7.863   7.270   8.453 -0.1761 -0.1448 -0.2194
   79POPC   PO4 1311   8.207   7.395   8.127  0.1468 -0.2481  0.2095
   79POPC   GL1 1312   8.276   7.626   7.701 -0.1484  0.4035  0.4630
   79POPC   GL2 1313   8.014   7.587   7.455  0.1816 -0.1567 -0.4319
   79POPC   C1A 1314   8.397   7.880   7.223  0.4397 -0.0341 -0.0904
   79POPC   D2A 1315   8.252   8.088   6.728 -0.2190 -0.1991 -0.1670
   79POPC   C3A 1316   8.633   8.283   6.541  0.2461  0.0055 -0.0580
   79POPC   C4A 1317   8.926   8.401   6.272 -0.2177 -0.3478  0.2990
   79POPC   C1B 1318   7.874   7.680   7.030  0.0876 -0.3207 -0.0574
   79POPC   C2B 1319   7.652   7.986   6.722  0.3237 -0.0360 -0.1331
   79POPC   C3B 1320   7.352   8.280   6.531  0.0552 -0.1500  0.0391
   79POPC   C4B 1321   7.001   8.493   6.385 -0.0929 -0.0977 -0.4959
   80POPC   NC3 1322   7.432   1.142   8.657  0.4475 -0.0979  0.1684
   80POPC   PO4 1323   7.793   1.388   8.566  0.1675 -0.0260 -0.0082
   80POPC   GL1 1324   7.984   1.358   8.194  0.1555 -0.2584  0.1762
   80POPC   GL2 1325   7.931   1.012   8.035  0.2301  0.2622 -0.1077
   80POPC   C1A 1326   8.081   1.461   7.753 -0.1211 -0.2967  0.1295
   80POPC   D2A 1327   8.034   1.306   7.419  0.2599 -0.3509  0.1052
   80POPC   C3A 1328   7.626   1.130   7.241  0.0237  0.2513  0.1750
   80POPC   C4A 1329   7.319   0.997   6.832 -0.0915 -0.1903 -0.2507
   80POPC   C1B 1330   7.886   0.824   7.545  0.1977 -0.0175  0.3148
   80POPC   C2B 1331   8.119   0.939   7.124  0.0040 -0.3159  0.1392
   80POPC   C3B 1332   8.329   1.101   6.712 -0.0612  0.0873 -0.2090
   80POPC   C4B 1333   8.700   0.877   6.518  0.0948 -0.2902  0.1616
   81POPC   NC3 1334   3.563   7.667   8.689 -0.0416 -0.1204  0.3705
   81POPC   PO4 1335   3.594   8.090   8.775 -0.2511 -0.0772  0.0018
   81POPC   GL1 1336   3.749   8.098   8.417 -0.0180  0.1294  0.1548
   81POPC   GL2 1337   3.372   8.215   8.262 -0.0362  0.1161  0.2603
   81POPC   C1A 1338   3.756   8.084   7.955 -0.1440 -0.1839  0.1532
   81POPC   D2A 1339   3.565   7.870   7.612  0.4988 -0.0917 -0.1963
   81POPC   C3A 1340   3.214   7.865   7.598 -0.0199 -0.1022 -0.2086
   81POPC   C4A 1341   2.939   8.159   7.547  0.0500  0.0011 -0.3674
   81POPC   C1B 1342   3.329   8.332   7.809  0.0169 -0.0682 -0.2888
   81POPC   C2B 1343   3.355   8.314   7.273 -0.0917  0.0941  0.5772
   81POPC   C3B 1344   3.298   8.564   7.002 -0.2396 -0.2463 -0.0067
   81POPC   C4B 1345   3.266   8.950   6.573  0.0289  0.0648 -0.0466
   82POPC   NC3 1346   7.710   3.090   8.398  0.0758 -0.0178  0.1036
   82POPC   PO4 1347   7.618   2.642   8.419 -0.1045  0.1678 -0.2702
   82POPC   GL1 1348   7.742   2.717   8.031 -0.3674 -0.2051 -0.1273
   82POPC   GL2 1349   8.063   2.640   7.839 -0.1593 -0.0812 -0.0485
   82POPC   C1A 1350   7.638   2.789   7.600 -0.1903  0.1599  0.1351
   82POPC   D2A 1351   7.673   3.149   7.342  0.0352  0.0047  0.1803
   82POPC   C3A 1352   7.728   2.930   6.867  0.2550 -0.0746  0.0226
   82POPC   C4A 1353   7.929   2.781   6.600  0.0600 -0.0558  0.2829
   82POPC   C1B 1354   8.056   2.402   7.564 -0.0147 -0.0553 -0.1711
   82POPC   C2B 1355   7.936   2.365   7.131 -0.0796 -0.0896  0.1071
   82POPC   C3B 1356   7.791   2.324   6.694 -0.1458  0.0806 -0.2134
   82POPC   C4B 1357   7.723   1.810   6.537 -0.0878 -0.2925  0.0648
   83POPC   NC3 1358   2.415   6.206   8.386 -0.2345 -0.1440  0.1769
   83POPC   PO4 1359   2.049   6.047   8.511  0.4600  0.1840  0.2152
   83POPC   GL1 1360   1.860   6.034   8.099  0.0162 -0.2805 -0.0780
   83POPC   GL2 1361   2.173   6.036   7.993  0.2536  0.1951  0.0580
   83POPC   C1A 1362   1.727   5.736   7.722  0.1746 -0.2215  0.0401
   83POPC   D2A 1363   1.697   5.697   7.274 -0.2450  0.0690  0.3519
   83POPC   C3A 1364   1.703   5.291   7.064  0.0767 -0.1022 -0.0421
   83POPC   C4A 1365   1.933   5.108   6.673 -0.2069  0.1922 -0.2311
   83POPC   C1B 1366   2.257   5.882   7.520 -0.1978 -0.0651  0.0617
   83POPC   C2B 1367   2.191   6.092   7.069 -0.0962  0.0348 -0.0651
   83POPC   C3B 1368   2.478   6.218   6.775  0.0528  0.1939  0.0019
   83POPC   C4B 1369   2.939   6.284   6.528 -0.0017 -0.1320  0.2521
   84POPC   NC3 1370   5.834   3.059   8.325 -0.0205 -0.1036 -0.3020
   84POPC   PO4 1371   5.698   3.492   8.370 -0.1587 -0.2419 -0.1172
   84POPC   GL1 1372   5.747   3.454   7.922  0.3822 -0.0493 -0.0264
   84POPC   GL2 1373   5.544   3.722   7.808 -0.1544 -0.1583 -0.1835
   84POPC   C1A 1374   5.763   3.147   7.689  0.0688 -0.0539  0.2619
   84POPC   D2A 1375   6.068   3.054   7.480  0.0948  0.4515  0.0018
   84POPC   C3A 1376   6.060   2.941   7.023  0.0068  0.2966 -0.0194
   84POPC   C4A 1377   5.945   2.976   6.571 -0.0345  0.1398 -0.0895
   84POPC   C1B 1378   5.781   3.571   7.425 -0.0999 -0.0060  0.0881
   84POPC   C2B 1379   6.013   3.394   7.091 -0.1506 -0.0262  0.3563
   84POPC   C3B 1380   6.136   3.402   6.669 -0.2631 -0.0371  0.0370
   84POPC   C4B 1381   6.211   3.733   6.367  0.0506 -0.0288 -0.1841
   85POPC   NC3 1382   6.092   0.319   8.324  0.0385 -0.0499 -0.2275
   85POPC   PO4 1383   5.612   0.284   8.328 -0.0956 -0.0139 -0.2090
   85POPC   GL1 1384   5.469   0.038   8.087  0.0028  0.1664 -0.1350
   85POPC   GL2 1385   5.701  -0.275   8.089  0.0110 -0.1478  0.1565
   85POPC   C1A 1386   5.217  -0.043   7.697  0.0563  0.1697  0.0881
   85POPC   D2A 1387   4.854  -0.195   7.332 -0.1696  0.1657  0.0660
   85POPC   C3A 1388   4.848  -0.260   6.854 -0.0524  0.4257 -0.0275
   85POPC   C4A 1389   4.942  -0.518   6.506  0.3893 -0.2219  0.1941
   85POPC   C1B 1390   5.787  -0.067   7.724  0.0019 -0.1137 -0.0682
   85POPC   C2B 1391   5.994   0.130   7.479  0.1671 -0.0922 -0.0368
   85POPC   C3B 1392   6.281   0.041   7.119 -0.0103  0.0657  0.0547
   85POPC   C4B 1393   6.233   0.208   6.708 -0.0659  0.0886  0.0598
   86POPC   NC3 1394   5.045   5.590   8.322 -0.0688  0.0755  0.0982
   86POPC   PO4 1395   4.909   5.280   8.074 -0.1185  0.1471 -0.1528
   86POPC   GL1 1396   4.772   4.892   7.823  0.2018  0.1308 -0.0944
   86POPC   GL2 1397   4.978   4.615   7.784  0.1155 -0.2070  0.4895
   86POPC   C1A 1398   4.796   4.822   7.340 -0.1029 -0.3751 -0.0965
   86POPC   D2A 1399   4.538   4.948   7.098 -0.1377 -0.0220  0.0267
   86POPC   C3A 1400   4.515   5.166   6.710  0.3679 -0.1682 -0.1993
   86POPC   C4A 1401   4.627   5.463   6.453  0.0712 -0.1554  0.0517
   86POPC   C1B 1402   4.942   4.371   7.325 -0.3339  0.0072 -0.1437
   86POPC   C2B 1403   4.980   4.588   6.951  0.0798  0.0264 -0.0387
   86POPC   C3B 1404   5.012   4.913   6.743  0.1259  0.0333  0.2134
   86POPC   C4B 1405   5.103   5.342   6.591 -0.1221  0.3073  0.0572
   87POPC   NC3 1406   4.774   7.280   8.809 -0.0190 -0.0352 -0.1604
   87POPC   PO4 1407   4.810   6.834   8.569 -0.1591 -0.2407  0.0839
   87POPC   GL1 1408   4.696   6.902   8.131 -0.0227 -0.2148 -0.0587
   87POPC   GL2 1409   4.416   6.794   8.025  0.0039 -0.2703 -0.2161
   87POPC   C1A 1410   4.770   7.164   7.813 -0.1215 -0.5044  0.0426
   87POPC   D2A 1411   4.539   7.576   7.660  0.0731  0.0593 -0.0379
   87POPC   C3A 1412   4.395   7.595   7.243  0.0190 -0.0584  0.0836
   87POPC   C4A 1413   4.586   7.479   6.870  0.0537  0.1644 -0.0165
   87POPC   C1B 1414   4.323   7.087   7.565 -0.2868  0.0325  0.2358
   87POPC   C2B 1415   4.130   7.125   7.215 -0.0575  0.0805 -0.0161
   87POPC   C3B 1416   4.139   7.169   6.822 -0.1377  0.1438  0.0394
   87POPC   C4B 1417   4.258   7.360   6.456  0.0273 -0.3505 -0.2738
   88POPC   NC3 1418   7.903   3.647   8.883 -0.0709  0.0413  0.1601
   88POPC   PO4 1419   7.889   3.918   8.470 -0.0225  0.0548 -0.1971
   88POPC   GL1 1420   7.965   3.917   8.035 -0.3056 -0.0987 -0.1670
   88POPC   GL2 1421   8.224   3.804   7.904 -0.1328  0.0036  0.1009
   88POPC   C1A 1422   7.955   4.117   7.633  0.3168  0.0564 -0.1462
   88POPC   D2A 1423   8.079   4.034   7.255  0.1242 -0.0996  0.2190
   88POPC   C3A 1424   8.080   3.893   6.783  0.1144 -0.7146 -0.1595
   88POPC   C4A 1425   7.897   3.684   6.410 -0.3445  0.3713  0.0988
   88POPC   C1B 1426   8.047   3.590   7.492  0.0336 -0.1280  0.2415
   88POPC   C2B 1427   7.945   3.475   7.040  0.0326  0.2396  0.1725
   88POPC   C3B 1428   8.061   3.302   6.716 -0.2366 -0.0573  0.0647
   88POPC   C4B 1429   8.179   3.154   6.399 -0.4852  0.1229  0.1874
   89POPC   NC3 1430   9.492   6.737   8.340  0.2104 -0.1498  0.3445
   89POPC   PO4 1431   9.270   6.564   7.990  0.1046 -0.3129 -0.4840
   89POPC   GL1 1432   9.333   6.918   7.690 -0.1870 -0.2971 -0.1618
   89POPC   GL2 1433   9.134   7.122   7.709 -0.0903 -0.0703  0.0229
   89POPC   C1A 1434   9.435   7.080   7.223  0.1115 -0.2773 -0.2858
   89POPC   D2A 1435   9.262   7.383   6.874  0.0361  0.0230  0.2350
   89POPC   C3A 1436   9.682   7.613   6.756  0.1244 -0.1512  0.1705
   89POPC   C4A 1437   9.904   7.760   6.507 -0.0576  0.0116 -0.1896
   89POPC   C1B 1438   8.850   7.130   7.243  0.3101 -0.1044 -0.1043
   89POPC   C2B 1439   8.720   7.080   6.891  0.2176 -0.1578  0.1690
   89POPC   C3B 1440   8.659   6.907   6.428  0.3677 -0.0879 -0.0178
   89POPC   C4B 1441   8.800   7.064   6.080 -0.1101 -0.0274 -0.0931
   90POPC   NC3 1442   0.411   9.308   9.511  0.1707  0.0584  0.1820
   90POPC   PO4 1443   0.352   9.751   9.688  0.1344  0.2200 -0.3564
   90POPC   GL1 1444   0.268   9.728   9.249  0.2169  0.0654 -0.0727
   90POPC   GL2 1445   0.345   9.888   8.911  0.1910 -0.0571  0.0772
   90POPC   C1A 1446   0.187   9.489   8.743 -0.2013 -0.1193 -0.0672
   90POPC   D2A 1447   0.078   9.151   8.499 -0.3484 -0.1441 -0.0060
   90POPC   C3A 1448  -0.114   9.258   8.067  0.1281  0.0237 -0.0847
   90POPC   C4A 1449  -0.373   9.246   7.750 -0.0170 -0.0174  0.3446
   90POPC   C1B 1450   0.689   9.928   8.593  0.0070 -0.2365  0.0121
   90POPC   C2B 1451   0.891   9.781   8.213 -0.0641  0.0061 -0.3784
   90POPC   C3B 1452   1.363   9.860   8.237  0.1485  0.3351 -0.1834
   90POPC   C4B 1453   1.637  10.223   8.046  0.1685 -0.3110 -0.5844
   91POPC   NC3 1454   0.857   2.695   8.986 -0.0749  0.3498 -0.0165
   91POPC   PO4 1455   0.670   2.257   9.067 -0.2448 -0.2567 -0.0697
   91POPC   GL1 1456   0.884   2.195   8.604  0.1271 -0.4295  0.0465
   91POPC   GL2 1457   1.176   2.504   8.630 -0.2625  0.3101  0.0597
   91POPC   C1A 1458   0.911   2.029   8.201  0.4354 -0.0564 -0.0143
   91POPC   D2A 1459   0.920   1.968   7.721  0.0687 -0.0022 -0.1962
   91POPC   C3A 1460   0.711   1.667   7.858 -0.0364 -0.2293 -0.1530
   91POPC   C4A 1461   0.478   1.630   8.080 -0.1667  0.1436 -0.0135
   91POPC   C1B 1462   1.046   2.570   8.229  0.1337  0.2864 -0.0389
   91POPC   C2B 1463   0.958   2.584   7.737  0.0530 -0.1789 -0.1391
   91POPC   C3B 1464   1.055   2.856   7.544 -0.2415  0.0106  0.1004
   91POPC   C4B 1465   1.418   2.978   7.321  0.0129  0.2338 -0.0820
   92POPC   NC3 1466   2.396   5.665   8.530  0.2103 -0.0861  0.0211
   92POPC   PO4 1467   2.633   5.269   8.372  0.2222 -0.0335  0.2404
   92POPC   GL1 1468   2.519   5.194   7.882  0.1163 -0.3866  0.0845
   92POPC   GL2 1469   2.842   5.146   7.795  0.6556 -0.0902 -0.1981
   92POPC   C1A 1470   2.395   5.418   7.497  0.0929 -0.0492  0.1537
   92POPC   D2A 1471   2.153   5.534   7.153 -0.2290  0.1504  0.0145
   92POPC   C3A 1472   2.356   5.423   6.810 -0.1046 -0.0676  0.2165
   92POPC   C4A 1473   2.791   5.399   6.628 -0.1193  0.3625 -0.0791
   92POPC   C1B 1474   3.014   5.572   7.622 -0.0236  0.0857 -0.3838
   92POPC   C2B 1475   3.242   5.590   7.204 -0.0113 -0.2382  0.1932
   92POPC   C3B 1476   3.269   5.416   6.851  0.1568  0.1438 -0.0643
   92POPC   C4B 1477   3.459   5.547   6.436 -0.1358  0.1355  0.1677
   93POPC   NC3 1478   4.991   2.733   8.259 -0.0055 -0.0787  0.0951
   93POPC   PO4 1479   5.000   2.257   8.203  0.4446  0.0070  0.0197
   93POPC   GL1 1480   5.035   2.379   7.778 -0.2984 -0.1233 -0.2531
   93POPC   GL2 1481   4.877   2.655   7.634  0.0062  0.0931 -0.0486
   93POPC   C1A 1482   4.987   2.300   7.315 -0.2467 -0.1247  0.3181
   93POPC   D2A 1483   4.982   2.355   6.857  0.2363 -0.1304  0.0495
   93POPC   C3A 1484   4.904   2.790   6.735  0.0303  0.1654  0.0866
   93POPC   C4A 1485   5.016   3.115   6.363  0.3128  0.0906  0.2648
   93POPC   C1B 1486   4.552   2.389   7.431 -0.1732 -0.1281 -0.1736
   93POPC   C2B 1487   4.596   2.051   7.121 -0.0464 -0.2144  0.1276
   93POPC   C3B 1488   4.641   1.518   7.011  0.1460  0.3908 -0.0030
   93POPC   C4B 1489   4.514   1.290   6.584  0.1850 -0.1242 -0.0631
   94POPC   NC3 1490   3.967   1.023   8.295 -0.0056  0.0171 -0.0904
   94POPC   PO4 1491   3.850   1.509   8.302 -0.1699  0.2919  0.0904
   94POPC   GL1 1492   3.519   1.519   7.985  0.1683  0.2954  0.0306
   94POPC   GL2 1493   3.464   1.148   8.121 -0.0641  0.2610  0.1833
   94POPC   C1A 1494   3.319   1.367   7.661  0.0302 -0.1736  0.0991
   94POPC   D2A 1495   3.044   1.135   7.332  0.2175  0.1063 -0.1105
   94POPC   C3A 1496   3.275   0.889   7.003 -0.2997  0.1560 -0.0687
   94POPC   C4A 1497   3.509   0.845   6.603 -0.0639  0.1409 -0.0001
   94POPC   C1B 1498   3.705   1.107   7.692 -0.2716  0.1977  0.0216
   94POPC   C2B 1499   3.619   0.966   7.313 -0.0283  0.2152 -0.1191
   94POPC   C3B 1500   3.849   0.981   6.934  0.0284 -0.1731  0.0237
   94POPC   C4B 1501   3.912   0.590   6.826 -0.0239 -0.3454  0.1854
   95POPC   NC3 1502   6.882   4.801   8.380  0.0083 -0.0638  0.0639
   95POPC   PO4 1503   6.973   4.377   8.085  0.0499 -0.1463 -0.1070
   95POPC   GL1 1504   7.330   4.231   7.821 -0.2194  0.0541 -0.0214
   95POPC   GL2 1505   7.447   4.517   7.797  0.1231 -0.0407  0.1075
   95POPC   C1A 1506   7.392   4.068   7.569  0.2144  0.1792 -0.1460
   95POPC   D2A 1507   7.497   4.164   7.176 -0.0416 -0.0589  0.0826
   95POPC   C3A 1508   7.455   4.572   6.854 -0.0121  0.1235  0.0119
   95POPC   C4A 1509   7.583   4.645   6.409  0.0077  0.2732  0.0882
   95POPC   C1B 1510   7.684   4.595   7.403  0.1582  0.1052 -0.0951
   95POPC   C2B 1511   7.790   4.913   7.028  0.0318  0.0434  0.0310
   95POPC   C3B 1512   8.124   4.700   6.699  0.1356 -0.0271  0.1451
   95POPC   C4B 1513   8.346   4.366   6.645  0.2408  0.1372 -0.0156
   96POPC   NC3 1514   0.800   3.464   8.542 -0.0242  0.0256  0.0042
   96POPC   PO4 1515   0.670   3.188   8.906 -0.1708  0.0199  0.4970
   96POPC   GL1 1516   0.588   2.850   8.612  0.0013  0.1740 -0.0174
   96POPC   GL2 1517   0.413   2.620   8.719 -0.1718  0.1910 -0.0431
   96POPC   C1A 1518   0.426   2.872   8.223 -0.0805  0.1417  0.0011
   96POPC   D2A 1519   0.421   2.811   7.707 -0.0854 -0.0164 -0.1600
   96POPC   C3A 1520   0.636   2.663   7.350 -0.0776 -0.0947 -0.0443
   96POPC   C4A 1521   0.996   2.537   7.129 -0.1414  0.0780  0.1554
   96POPC   C1B 1522   0.464   2.384   8.316  0.3118  0.3616 -0.0400
   96POPC   C2B 1523   0.549   2.312   7.845  0.1215 -0.0651  0.1735
   96POPC   C3B 1524   0.544   2.149   7.454 -0.1349  0.1432 -0.2654
   96POPC   C4B 1525   0.914   1.998   7.214 -0.2467 -0.1177  0.2495
   97POPC   NC3 1526   6.062   6.952   8.515  0.5511  0.1607  0.0302
   97POPC   PO4 1527   5.681   6.902   8.274  0.0000  0.0853  0.0572
   97POPC   GL1 1528   5.539   6.857   7.825 -0.0883  0.0498 -0.2932
   97POPC   GL2 1529   5.208   6.742   7.754  0.0286  0.1801  0.1011
   97POPC   C1A 1530   5.680   6.670   7.334 -0.1649  0.0910 -0.3248
   97POPC   D2A 1531   5.683   6.700   6.920  0.0157 -0.0578 -0.1336
   97POPC   C3A 1532   5.979   6.495   6.679  0.0062 -0.1561 -0.0778
   97POPC   C4A 1533   6.306   6.138   6.708  0.0198 -0.2886 -0.2741
   97POPC   C1B 1534   5.082   6.511   7.362 -0.1093  0.0576  0.0461
   97POPC   C2B 1535   5.306   6.368   6.966 -0.1385 -0.0693 -0.1070
   97POPC   C3B 1536   5.494   6.354   6.572  0.1218 -0.0358  0.0276
   97POPC   C4B 1537   5.446   6.033   6.242  0.1242  0.1089 -0.2058
   98POPC   NC3 1538   6.752   6.634   8.397 -0.1083  0.3217 -0.3630
   98POPC   PO4 1539   7.171   6.606   8.295  0.1765 -0.4426  0.2836
   98POPC   GL1 1540   6.950   6.676   7.923  0.1577  0.1376 -0.1319
   98POPC   GL2 1541   7.188   6.669   7.644 -0.0073 -0.0288 -0.0295
   98POPC   C1A 1542   6.675   6.661   7.549 -0.1104  0.5432  0.3333
   98POPC   D2A 1543   6.848   6.529   7.185 -0.1001  0.1120  0.1062
   98POPC   C3A 1544   6.982   6.875   7.026  0.0615 -0.1173 -0.0305
   98POPC   C4A 1545   7.401   7.125   6.940 -0.1102  0.3493 -0.4456
   98POPC   C1B 1546   7.452   6.758   7.259  0.0873  0.1854 -0.1294
   98POPC   C2B 1547   7.469   6.595   6.904  0.1289 -0.0999 -0.0507
   98POPC   C3B 1548   7.447   6.192   6.894 -0.1677 -0.0316  0.0324
   98POPC   C4B 1549   7.719   5.784   6.851  0.0419 -0.1062  0.2858
   99POPC   NC3 1550   3.829   0.148   9.186 -0.0522 -0.1485 -0.1660
   99POPC   PO4 1551   3.571   0.437   8.868 -0.1403  0.2842 -0.0434
   99POPC   GL1 1552   3.268   0.531   8.473 -0.1376  0.2605 -0.1525
   99POPC   GL2 1553   3.486   0.664   8.261 -0.2046 -0.1012  0.1398
   99POPC   C1A 1554   3.184   0.435   7.943 -0.0839 -0.2328 -0.1803
   99POPC   D2A 1555   3.251   0.152   7.573  0.1090 -0.1781 -0.0572
   99POPC   C3A 1556   2.997   0.152   7.268 -0.2151 -0.0548 -0.0308
   99POPC   C4A 1557   3.176  -0.180   6.937 -0.0341  0.0828 -0.1390
   99POPC   C1B 1558   3.662   0.591   7.843 -0.0676 -0.2503  0.2057
   99POPC   C2B 1559   3.619   0.450   7.321  0.0577  0.0516  0.2486
   99POPC   C3B 1560   3.308   0.380   6.978 -0.0232 -0.0923 -0.1127
   99POPC   C4B 1561   3.221   0.308   6.552  0.0356  0.2820  0.1451
  100POPC   NC3 1562   2.148   3.172   8.741 -0.1499  0.1194 -0.1155
  100POPC   PO4 1563   1.988   3.429   8.444  0.1989 -0.0826  0.0289
  100POPC   GL1 1564   2.177   3.377   8.048  0.0206  0.1155  0.0874
  100POPC   GL2 1565   2.042   3.435   7.752  0.1044 -0.3001 -0.0547
  100POPC   C1A 1566   2.391   3.030   7.715  0.0448  0.1536 -0.0840
  100POPC   D2A 1567   2.606   3.202   7.369 -0.0708 -0.2141  0.0625
  100POPC   C3A 1568   2.841   3.001   7.086 -0.0439  0.2632  0.2312
  100POPC   C4A 1569   2.730   2.614   6.845 -0.2122 -0.1087  0.0147
  100POPC   C1B 1570   2.458   3.607   7.740 -0.1141 -0.1792  0.1834
  100POPC   C2B 1571   2.778   3.609   7.464 -0.1087 -0.2887 -0.0376
  100POPC   C3B 1572   2.772   3.590   7.107  0.0314  0.0380  0.0736
  100POPC   C4B 1573   2.580   3.566   6.770 -0.1311 -0.0962 -0.1660
  101POPC   NC3 1574   0.526   8.048   9.058 -0.3892  0.0693 -0.2379
  101POPC   PO4 1575   0.244   8.076   8.788  0.1703  0.1800 -0.3047
  101POPC   GL1 1576   0.548   8.198   8.533  0.0043  0.0292 -0.0860
  101POPC   GL2 1577   0.523   8.463   8.382  0.1456 -0.0367  0.0367
  101POPC   C1A 1578   0.908   8.112   8.347 -0.3122  0.2230 -0.1481
  101POPC   D2A 1579   1.196   7.807   8.245  0.0352 -0.2851 -0.2242
  101POPC   C3A 1580   1.224   8.015   7.815 -0.0083  0.2523  0.0358
  101POPC   C4A 1581   1.262   8.263   7.353 -0.0676  0.0430 -0.1283
  101POPC   C1B 1582   0.595   8.371   7.941 -0.0180  0.2602  0.2224
  101POPC   C2B 1583   0.785   8.191   7.558  0.3482 -0.3345 -0.1705
  101POPC   C3B 1584   0.822   8.185   7.096 -0.1403  0.3124  0.0850
  101POPC   C4B 1585   0.534   8.039   6.802  0.0998  0.3031  0.2176
  102POPC   NC3 1586   7.388   4.069   8.333 -0.0128  0.1280 -0.0032
  102POPC   PO4 1587   7.469   3.679   8.573  0.1469 -0.2477 -0.2382
  102POPC   GL1 1588   7.620   3.581   8.213 -0.2056  0.1045 -0.0225
  102POPC   GL2 1589   7.469   3.711   7.984 -0.0060  0.2341  0.0322
  102POPC   C1A 1590   7.871   3.345   7.867  0.1855  0.1060  0.3912
  102POPC   D2A 1591   8.156   3.064   7.614  0.0024 -0.1261  0.2463
  102POPC   C3A 1592   8.117   2.823   7.218  0.0577  0.0465  0.0252
  102POPC   C4A 1593   8.388   2.718   6.877 -0.4059 -0.1488 -0.0985
  102POPC   C1B 1594   7.403   3.518   7.603  0.3256  0.0327  0.0072
  102POPC   C2B 1595   7.493   3.606   7.150  0.2228 -0.3524 -0.1940
  102POPC   C3B 1596   7.516   3.649   6.752  0.1051 -0.4546 -0.0948
  102POPC   C4B 1597   7.279   3.673   6.352  0.0061 -0.2831 -0.0440
  103POPC   NC3 1598   5.479   0.738   8.618 -0.0309  0.2326 -0.2589
  103POPC   PO4 1599   5.845   0.756   8.391 -0.0633 -0.1228  0.1503
  103POPC   GL1 1600   5.969   0.692   7.985  0.0437 -0.0708  0.2371
  103POPC   GL2 1601   5.812   0.418   7.903  0.0818 -0.0736 -0.2104
  103POPC   C1A 1602   5.983   0.636   7.507 -0.0851  0.1179 -0.1934
  103POPC   D2A 1603   6.110   0.561   7.228 -0.3145 -0.0991 -0.4775
  103POPC   C3A 1604   6.516   0.527   6.994  0.1156 -0.1292  0.1567
  103POPC   C4A 1605   6.767   0.207   6.972  0.1606  0.3913  0.0659
  103POPC   C1B 1606   5.525   0.460   7.627  0.1689  0.0642  0.3306
  103POPC   C2B 1607   5.262   0.224   7.291 -0.1071 -0.3326 -0.3489
  103POPC   C3B 1608   4.894   0.203   7.042 -0.3736  0.2921  0.2050
  103POPC   C4B 1609   4.464  -0.057   7.071 -0.0351  0.4227 -0.1964
  104POPC   NC3 1610   7.805   5.878   8.721  0.0137  0.1831 -0.1103
  104POPC   PO4 1611   7.770   5.454   8.411 -0.2189 -0.2925 -0.0217
  104POPC   GL1 1612   7.590   5.402   7.929 -0.2129 -0.4494  0.0481
  104POPC   GL2 1613   7.786   5.382   7.734  0.2145  0.1044  0.2920
  104POPC   C1A 1614   7.437   5.110   7.474  0.0250 -0.4049 -0.0512
  104POPC   D2A 1615   7.269   4.840   7.276  0.1584 -0.1231  0.0406
  104POPC   C3A 1616   7.149   4.507   7.323  0.2251 -0.0500  0.1824
  104POPC   C4A 1617   6.736   4.384   7.502 -0.0828  0.1911  0.3136
  104POPC   C1B 1618   7.971   5.061   7.545 -0.1259 -0.3149  0.1980
  104POPC   C2B 1619   8.302   5.086   7.316 -0.0058  0.0844  0.2855
  104POPC   C3B 1620   8.705   5.252   7.187 -0.0384 -0.0211 -0.2565
  104POPC   C4B 1621   8.960   5.247   6.899  0.0139  0.2404  0.0028
  105POPC   NC3 1622   8.361   3.838   8.350  0.2434 -0.2154  0.1985
  105POPC   PO4 1623   8.989   3.773   8.340 -0.0540 -0.0135  0.1661
  105POPC   GL1 1624   9.306   3.756   8.110  0.0817 -0.0562  0.1093
  105POPC   GL2 1625   9.486   3.510   8.240  0.1918 -0.3060 -0.0290
  105POPC   C1A 1626   9.611   3.810   7.810 -0.0098 -0.3607  0.0451
  105POPC   D2A 1627   9.513   4.055   7.352  0.4325 -0.1509  0.0818
  105POPC   C3A 1628   9.170   4.150   7.263 -0.1509  0.0785 -0.2596
  105POPC   C4A 1629   8.735   4.164   7.053  0.0096 -0.1712  0.0860
  105POPC   C1B 1630   9.411   3.341   7.759  0.1349  0.1350  0.0605
  105POPC   C2B 1631   9.351   3.550   7.308  0.2481  0.1174 -0.1180
  105POPC   C3B 1632   9.233   3.731   6.996  0.0746 -0.3306 -0.1502
  105POPC   C4B 1633   9.136   4.190   6.759 -0.2914  0.0788 -0.1224
  106POPC   NC3 1634   8.570   9.010   9.064  0.1846 -0.0077  0.1591
  106POPC   PO4 1635   8.813   8.842   8.786 -0.0492 -0.1525 -0.1215
  106POPC   GL1 1636   8.842   9.060   8.397 -0.0400 -0.0779 -0.1715
  106POPC   GL2 1637   9.172   9.237   8.498 -0.0975  0.0891  0.0962
  106POPC   C1A 1638   8.777   9.241   8.008 -0.0992  0.2107  0.0803
  106POPC   D2A 1639   8.821   9.572   7.701  0.2859  0.2641 -0.0510
  106POPC   C3A 1640   9.056   9.536   7.370 -0.1778  0.0391 -0.2647
  106POPC   C4A 1641   9.447   9.583   7.201 -0.0704 -0.0833  0.0088
  106POPC   C1B 1642   9.084   9.541   8.235  0.0333 -0.4123  0.2266
  106POPC   C2B 1643   8.860   9.914   8.170  0.0686 -0.1530 -0.0984
  106POPC   C3B 1644   8.834  10.398   8.235 -0.0132  0.1286  0.1561
  106POPC   C4B 1645   8.730  10.730   7.971  0.0037  0.1495  0.0765
  107POPC   NC3 1646   6.188   4.143   8.692 -0.0464  0.4753 -0.0523
  107POPC   PO4 1647   5.766   4.310   8.613  0.1854 -0.3563  0.0027
  107POPC   GL1 1648   6.065   4.320   8.224 -0.0925  0.0195 -0.1003
  107POPC   GL2 1649   6.091   4.593   8.098 -0.0298  0.0891 -0.3844
  107POPC   C1A 1650   5.948   4.144   7.813 -0.2950 -0.1174 -0.1538
  107POPC   D2A 1651   5.766   4.047   7.456 -0.0067  0.2300  0.0055
  107POPC   C3A 1652   5.986   3.920   7.185 -0.2661 -0.0173  0.1822
  107POPC   C4A 1653   6.144   3.965   6.843  0.1373 -0.2241 -0.2763
  107POPC   C1B 1654   6.316   4.521   7.781  0.2453 -0.0149 -0.0031
  107POPC   C2B 1655   6.333   4.596   7.253 -0.0604  0.3631 -0.1291
  107POPC   C3B 1656   6.322   4.807   6.800 -0.0513  0.0098 -0.0116
  107POPC   C4B 1657   6.469   4.965   6.346  0.1006  0.1321 -0.0261
  108POPC   NC3 1658   8.624   7.116   7.969  0.0176 -0.3065 -0.0884
  108POPC   PO4 1659   8.205   6.924   7.946 -0.2715  0.0545  0.2058
  108POPC   GL1 1660   8.191   7.126   7.608  0.2654  0.2710 -0.1102
  108POPC   GL2 1661   7.945   7.018   7.362  0.0745  0.2542  0.0309
  108POPC   C1A 1662   8.344   7.332   7.232 -0.0789  0.0091 -0.3985
  108POPC   D2A 1663   8.454   7.563   6.853  0.0049  0.0208  0.2624
  108POPC   C3A 1664   8.032   7.675   6.584 -0.0610  0.0037  0.0950
  108POPC   C4A 1665   7.513   7.522   6.664 -0.0296  0.2026  0.3818
  108POPC   C1B 1666   8.000   7.108   6.955 -0.3502  0.0460 -0.3188
  108POPC   C2B 1667   8.027   7.178   6.520  0.0330  0.0863  0.0877
  108POPC   C3B 1668   8.258   6.978   6.196  0.0492  0.0144 -0.3397
  108POPC   C4B 1669   8.132   6.475   6.271 -0.0601 -0.1859  0.0293
  109POPC   NC3 1670   3.164   0.753   8.985  0.0273 -0.2867  0.3824
  109POPC   PO4 1671   2.899   0.410   8.807  0.0163 -0.4858  0.1456
  109POPC   GL1 1672   2.773   0.548   8.261  0.0941  0.1528  0.2218
  109POPC   GL2 1673   2.995   0.850   8.138  0.0843 -0.1560 -0.0638
  109POPC   C1A 1674   2.505   0.763   8.035 -0.1869  0.0874  0.1902
  109POPC   D2A 1675   2.504   1.200   7.821 -0.0237  0.0993 -0.2757
  109POPC   C3A 1676   2.457   1.175   7.366  0.1162 -0.0909 -0.0687
  109POPC   C4A 1677   2.398   1.645   7.166 -0.0517 -0.0714 -0.1764
  109POPC   C1B 1678   3.212   0.891   7.772 -0.1006 -0.3011  0.0751
  109POPC   C2B 1679   3.131   0.666   7.405  0.2293  0.3062  0.2892
  109POPC   C3B 1680   2.866   0.632   7.109 -0.2972  0.2793  0.2859
  109POPC   C4B 1681   2.777   0.243   6.793 -0.1019 -0.2044 -0.0869
  110POPC   NC3 1682   2.028   8.689   9.497  0.0160 -0.2376  0.2149
  110POPC   PO4 1683   1.948   8.769   9.032  0.0564 -0.1030  0.0903
  110POPC   GL1 1684   1.943   8.535   8.536  0.0627  0.2304  0.4007
  110POPC   GL2 1685   1.732   8.482   8.473  0.0065  0.1736  0.1812
  110POPC   C1A 1686   1.963   8.462   8.031 -0.2829  0.0709  0.1586
  110POPC   D2A 1687   2.007   8.919   7.775 -0.3952  0.1227 -0.0819
  110POPC   C3A 1688   2.037   9.022   7.418 -0.0287 -0.1403 -0.0674
  110POPC   C4A 1689   2.078   9.267   7.118 -0.0472 -0.3656  0.2639
  110POPC   C1B 1690   1.292   8.431   8.268  0.0150  0.0808 -0.1957
  110POPC   C2B 1691   1.106   8.510   7.969  0.3132 -0.0973 -0.0657
  110POPC   C3B 1692   1.298   8.791   7.563  0.1895 -0.0709  0.0405
  110POPC   C4B 1693   1.382   8.690   7.121  0.0349  0.1875 -0.0250
  111POPC   NC3 1694   4.387   4.468   8.471  0.0773 -0.0423  0.0608
  111POPC   PO4 1695   4.613   4.476   8.127 -0.0315  0.1072 -0.1533
  111POPC   GL1 1696   4.553   4.333   7.644 -0.2355  0.2176 -0.3213
  111POPC   GL2 1697   4.490   4.017   7.516 -0.1603  0.0921 -0.0357
  111POPC   C1A 1698   4.396   4.397   7.203 -0.1591 -0.0429 -0.2062
  111POPC   D2A 1699   4.154   4.196   6.967  0.0155 -0.1630 -0.0472
  111POPC   C3A 1700   3.835   4.410   6.795 -0.1992  0.0468 -0.1653
  111POPC   C4A 1701   3.450   4.187   6.589 -0.4044 -0.1585 -0.0858
  111POPC   C1B 1702   4.711   3.941   7.188 -0.2061 -0.1866  0.0969
  111POPC   C2B 1703   4.865   3.747   6.871 -0.0454  0.2462  0.1946
  111POPC   C3B 1704   4.760   3.615   6.585  0.0937  0.0754 -0.1561
  111POPC   C4B 1705   4.527   3.252   6.536 -0.0258  0.0379 -0.0392
  112POPC   NC3 1706   4.776   1.755   8.290 -0.1818  0.0311  0.0969
  112POPC   PO4 1707   4.912   1.458   8.564 -0.2081 -0.1211 -0.2610
  112POPC   GL1 1708   4.828   1.310   8.097 -0.3042 -0.0775 -0.3815
  112POPC   GL2 1709   5.113   1.101   7.902 -0.0007 -0.0123 -0.0276
  112POPC   C1A 1710   4.699   1.437   7.709 -0.2237 -0.1421 -0.2485
  112POPC   D2A 1711   4.465   1.534   7.470  0.1531 -0.2802 -0.0979
  112POPC   C3A 1712   4.149   1.620   7.138  0.1788 -0.2860 -0.3020
  112POPC   C4A 1713   4.078   1.432   6.764  0.2151  0.0256  0.2552
  112POPC   C1B 1714   5.170   1.453   7.621  0.0425 -0.0465  0.1676
  112POPC   C2B 1715   5.408   1.453   7.271 -0.2150 -0.1535 -0.3193
  112POPC   C3B 1716   5.519   1.463   6.865  0.0154  0.1325 -0.0855
  112POPC   C4B 1717   5.666   1.528   6.458 -0.0491 -0.2724 -0.1296
  113POPC   NC3 1718   2.154   7.528   8.658 -0.0435  0.1409  0.2153
  113POPC   PO4 1719   2.506   7.499   8.447  0.0429 -0.0644  0.2677
  113POPC   GL1 1720   2.577   7.613   7.983 -0.0992  0.0919  0.0877
  113POPC   GL2 1721   2.885   7.756   7.890  0.2152 -0.1207  0.1061
  113POPC   C1A 1722   2.350   7.475   7.634 -0.1087  0.0693 -0.1539
  113POPC   D2A 1723   1.955   7.531   7.428  0.0999  0.0413 -0.3114
  113POPC   C3A 1724   1.864   7.759   7.037  0.0117 -0.1266 -0.1737
  113POPC   C4A 1725   1.644   7.801   6.706 -0.0233 -0.0178  0.0475
  113POPC   C1B 1726   2.816   7.537   7.542 -0.1187  0.3211  0.0248
  113POPC   C2B 1727   2.830   7.202   7.251  0.2503 -0.0397 -0.3561
  113POPC   C3B 1728   2.819   7.105   6.845  0.3458  0.0356 -0.2213
  113POPC   C4B 1729   3.141   6.870   6.569  0.0587  0.1904  0.1500
  114POPC   NC3 1730   1.587   4.318   8.452  0.1921 -0.0342  0.0059
  114POPC   PO4 1731   1.211   4.402   8.323 -0.2172  0.0187  0.0753
  114POPC   GL1 1732   1.234   4.509   7.882  0.2069 -0.1401 -0.0342
  114POPC   GL2 1733   1.477   4.288   7.794 -0.0613 -0.0607 -0.0503
  114POPC   C1A 1734   1.173   4.465   7.437  0.0224 -0.2223  0.2503
  114POPC   D2A 1735   1.260   4.632   6.983 -0.1691 -0.1907  0.1109
  114POPC   C3A 1736   1.813   4.667   6.931  0.1886 -0.0390 -0.0056
  114POPC   C4A 1737   2.172   5.026   7.119  0.0511  0.0030  0.0320
  114POPC   C1B 1738   1.635   4.322   7.318  0.0066  0.0655  0.2348
  114POPC   C2B 1739   1.948   4.201   7.031 -0.0206  0.2005 -0.0721
  114POPC   C3B 1740   1.922   3.796   6.709  0.2676  0.1958 -0.0262
  114POPC   C4B 1741   1.961   3.349   6.608 -0.1242 -0.1189 -0.2391
  115POPC   NC3 1742   1.346   0.107   9.952  0.1947 -0.3000  0.1124
  115POPC   PO4 1743   1.161   0.475   9.721 -0.1308 -0.1559 -0.0786
  115POPC   GL1 1744   1.175   0.339   9.216  0.2815  0.2091 -0.1111
  115POPC   GL2 1745   0.951   0.521   9.003  0.0231  0.0904 -0.1703
  115POPC   C1A 1746   1.223   0.170   8.805  0.2398 -0.2056  0.0776
  115POPC   D2A 1747   1.416  -0.164   8.597 -0.2900 -0.2570  0.3078
  115POPC   C3A 1748   1.705  -0.308   8.370 -0.3685  0.1029 -0.0796
  115POPC   C4A 1749   1.946  -0.641   8.294 -0.2264  0.2450  0.0018
  115POPC   C1B 1750   0.997   0.985   8.818 -0.0731  0.1325  0.3914
  115POPC   C2B 1751   1.296   1.219   8.508 -0.0666  0.2756  0.1719
  115POPC   C3B 1752   1.612   1.342   8.211 -0.2920  0.1630  0.1134
  115POPC   C4B 1753   2.089   1.406   8.023 -0.0660  0.0951  0.2684
  116POPC   NC3 1754   1.530   6.275   8.492  0.1471 -0.1445  0.0421
  116POPC   PO4 1755   1.473   6.554   8.765 -0.1147  0.1085 -0.3389
  116POPC   GL1 1756   1.391   6.716   8.389 -0.1299  0.2855 -0.1017
  116POPC   GL2 1757   1.688   6.945   8.207 -0.0162 -0.0191  0.0977
  116POPC   C1A 1758   1.294   6.685   7.970 -0.0838 -0.0650 -0.0795
  116POPC   D2A 1759   1.121   6.970   7.758 -0.0802 -0.0179  0.0464
  116POPC   C3A 1760   1.102   7.058   7.311  0.3851  0.0383 -0.0412
  116POPC   C4A 1761   1.002   7.298   6.956  0.0354  0.1376  0.1476
  116POPC   C1B 1762   1.641   7.109   7.835  0.0771  0.1934 -0.1025
  116POPC   C2B 1763   1.580   7.262   7.377  0.1436 -0.1513 -0.1216
  116POPC   C3B 1764   1.460   7.384   7.053 -0.3130  0.0901 -0.1873
  116POPC   C4B 1765   1.578   7.289   6.616  0.5548  0.1745 -0.0736
  117POPC   NC3 1766   8.292   9.314   8.732 -0.3080  0.2810 -0.1072
  117POPC   PO4 1767   8.280   8.824   8.536  0.0344 -0.1425 -0.0071
  117POPC   GL1 1768   8.403   8.743   8.099 -0.2917  0.0253  0.0385
  117POPC   GL2 1769   8.334   8.451   7.980 -0.0902  0.0923  0.1660
  117POPC   C1A 1770   8.436   8.913   7.798 -0.1646 -0.1402 -0.1301
  117POPC   D2A 1771   8.696   9.104   7.482  0.1159 -0.2915  0.2189
  117POPC   C3A 1772   8.652   9.029   7.047 -0.0118 -0.0359  0.3138
  117POPC   C4A 1773   8.755   9.026   6.589 -0.0231 -0.2585 -0.0349
  117POPC   C1B 1774   8.424   8.525   7.465  0.1255 -0.2800  0.0888
  117POPC   C2B 1775   8.434   8.505   6.978  0.0962  0.1689 -0.0960
  117POPC   C3B 1776   8.140   8.846   6.674  0.0797  0.4083 -0.1575
  117POPC   C4B 1777   8.347   9.137   6.342 -0.0606 -0.1656 -0.2063
  118POPC   NC3 1778   3.955   6.730   8.660  0.1187 -0.2720 -0.1035
  118POPC   PO4 1779   3.635   6.819   8.349  0.0390  0.2295 -0.1301
  118POPC   GL1 1780   3.620   6.792   7.885  0.3776 -0.0036 -0.0152
  118POPC   GL2 1781   3.898   6.922   7.721 -0.1159  0.1528  0.0350
  118POPC   C1A 1782   3.394   6.924   7.508 -0.2768 -0.0522  0.1080
  118POPC   D2A 1783   3.282   6.971   7.030  0.0265  0.0741  0.1930
  118POPC   C3A 1784   3.180   7.422   6.841 -0.0311 -0.2658  0.3588
  118POPC   C4A 1785   2.926   7.717   6.656 -0.2171 -0.0074  0.1140
  118POPC   C1B 1786   3.742   7.279   7.454  0.2581 -0.0837 -0.2088
  118POPC   C2B 1787   3.686   7.476   7.029  0.2994  0.1028 -0.3716
  118POPC   C3B 1788   3.539   7.800   6.832 -0.2518  0.0788  0.0211
  118POPC   C4B 1789   3.707   8.239   6.881 -0.0810 -0.0231 -0.1766
  119POPC   NC3 1790   4.478   0.078   8.432 -0.1683  0.0632 -0.1728
  119POPC   PO4 1791   4.680   0.505   8.484 -0.1740 -0.2535  0.1031
  119POPC   GL1 1792   4.843   0.485   8.112 -0.0209  0.4855 -0.2309
  119POPC   GL2 1793   4.573   0.394   7.955  0.1446  0.2024  0.0380
  119POPC   C1A 1794   5.070   0.583   7.681 -0.0258 -0.1873  0.1848
  119POPC   D2A 1795   5.052   0.668   7.242  0.0993  0.2261  0.0690
  119POPC   C3A 1796   4.884   0.666   6.824 -0.1276  0.2199 -0.1524
  119POPC   C4A 1797   4.861   0.929   6.575  0.1218 -0.3219  0.0591
  119POPC   C1B 1798   4.629   0.466   7.463  0.1235  0.0643 -0.3328
  119POPC   C2B 1799   4.484   0.478   7.069 -0.1724  0.1363  0.0437
  119POPC   C3B 1800   4.390   0.245   6.664 -0.4992  0.0761 -0.0105
  119POPC   C4B 1801   4.682  -0.049   6.456  0.3173  0.1735  0.1989
  120POPC   NC3 1802   8.515   4.754   8.583  0.0239 -0.3746  0.0802
  120POPC   PO4 1803   8.571   4.709   8.293  0.0565  0.2013  0.0417
  120POPC   GL1 1804   8.782   4.519   7.997 -0.0801  0.3960 -0.4248
  120POPC   GL2 1805   9.122   4.562   8.001 -0.1218  0.1822 -0.1694
  120POPC   C1A 1806   8.726   4.290   7.538  0.1826  0.0587 -0.1677
  120POPC   D2A 1807   8.513   3.979   7.495  0.1024 -0.0719  0.0425
  120POPC   C3A 1808   8.488   3.732   7.111 -0.0904  0.0304  0.2329
  120POPC   C4A 1809   8.733   3.749   6.827 -0.4314 -0.3435 -0.0714
  120POPC   C1B 1810   9.232   4.204   7.801  0.1586 -0.1716 -0.1306
  120POPC   C2B 1811   9.106   3.861   7.671  0.0502  0.2368  0.0856
  120POPC   C3B 1812   8.874   3.614   7.395 -0.0702  0.1774  0.1837
  120POPC   C4B 1813   8.954   3.239   7.111 -0.0165 -0.1568  0.0280
  121POPC   NC3 1814   2.157   2.217   8.940  0.1409  0.0762  0.2150
  121POPC   PO4 1815   2.113   2.602   8.792  0.1910  0.0335  0.1294
  121POPC   GL1 1816   2.114   2.340   8.486  0.0948  0.2724  0.1823
  121POPC   GL2 1817   2.472   2.360   8.194 -0.2009 -0.0279  0.1951
  121POPC   C1A 1818   2.007   2.360   8.091 -0.1890  0.1110  0.1717
  121POPC   D2A 1819   1.879   2.314   7.774 -0.0904  0.0868 -0.0962
  121POPC   C3A 1820   2.041   2.589   7.519 -0.0608  0.0005 -0.3018
  121POPC   C4A 1821   2.043   3.040   7.326  0.0861 -0.2456 -0.0298
  121POPC   C1B 1822   2.490   2.359   7.805  0.3821  0.1537 -0.0460
  121POPC   C2B 1823   2.302   2.196   7.487  0.3095 -0.0205 -0.1488
  121POPC   C3B 1824   2.323   2.195   7.109  0.0108  0.0643 -0.0422
  121POPC   C4B 1825   2.670   2.010   6.851 -0.2438  0.1187  0.0482
  122POPC   NC3 1826   1.134   5.130   8.799 -0.4259 -0.3295 -0.4577
  122POPC   PO4 1827   1.212   5.393   8.500 -0.0330  0.1202  0.1264
  122POPC   GL1 1828   1.271   5.608   8.055  0.1548  0.1574  0.3541
  122POPC   GL2 1829   1.147   5.259   7.853  0.0083  0.1463  0.0285
  122POPC   C1A 1830   1.168   5.743   7.685 -0.1038 -0.0887 -0.2014
  122POPC   D2A 1831   1.246   5.958   7.284 -0.1968 -0.2361  0.2105
  122POPC   C3A 1832   0.929   5.892   6.998  0.0906  0.0087 -0.1550
  122POPC   C4A 1833   0.640   5.679   6.676 -0.4125 -0.0559  0.0857
  122POPC   C1B 1834   1.407   5.329   7.531 -0.2730 -0.2366  0.0616
  122POPC   C2B 1835   1.216   5.399   7.164  0.1392  0.0028  0.2096
  122POPC   C3B 1836   1.329   5.597   6.891 -0.1557 -0.2052  0.1729
  122POPC   C4B 1837   1.308   5.850   6.531 -0.0096  0.0083  0.0514
  123POPC   NC3 1838   3.365   8.857   8.514  0.5276 -0.0939  0.3398
  123POPC   PO4 1839   3.597   9.202   8.667 -0.1194 -0.0928  0.2668
  123POPC   GL1 1840   3.828   8.980   8.349  0.1290  0.1280 -0.0344
  123POPC   GL2 1841   3.792   9.243   8.124  0.2337  0.0569  0.2490
  123POPC   C1A 1842   3.824   8.589   8.040  0.0045 -0.0212  0.0925
  123POPC   D2A 1843   3.763   8.453   7.568  0.0382 -0.2947 -0.0336
  123POPC   C3A 1844   3.886   8.591   7.173 -0.1463  0.0827 -0.1836
  123POPC   C4A 1845   3.720   8.693   6.722  0.0134 -0.2763  0.1773
  123POPC   C1B 1846   4.009   9.402   7.792 -0.4312  0.1380 -0.1905
  123POPC   C2B 1847   4.131   9.397   7.390 -0.2664  0.0879 -0.0362
  123POPC   C3B 1848   3.917   9.207   7.128 -0.1192 -0.0331 -0.1227
  123POPC   C4B 1849   3.514   9.165   6.986 -0.0912  0.0974  0.1577
  124POPC   NC3 1850   2.951   4.363   8.287  0.2312 -0.0335 -0.0742
  124POPC   PO4 1851   2.776   4.792   8.119 -0.1028 -0.0390  0.0414
  124POPC   GL1 1852   2.974   4.568   7.763  0.0116  0.2016 -0.0889
  124POPC   GL2 1853   2.950   4.202   7.804  0.0510 -0.0284  0.1186
  124POPC   C1A 1854   3.261   4.598   7.425 -0.3408  0.2670 -0.0147
  124POPC   D2A 1855   3.224   4.369   7.009 -0.0946 -0.3414 -0.1429
  124POPC   C3A 1856   2.980   4.486   6.632 -0.0211  0.4351  0.2784
  124POPC   C4A 1857   2.801   4.814   6.644  0.0888  0.1855  0.0223
  124POPC   C1B 1858   2.800   4.166   7.419 -0.2110  0.0895 -0.1493
  124POPC   C2B 1859   2.846   4.035   7.004  0.4038  0.2330 -0.0104
  124POPC   C3B 1860   2.898   3.899   6.559 -0.1178  0.0771 -0.3074
  124POPC   C4B 1861   2.743   3.858   6.219  0.3256  0.2090 -0.2771
  125POPC   NC3 1862   7.596   2.177   8.075 -0.1678 -0.2315 -0.0120
  125POPC   PO4 1863   7.143   2.173   8.281 -0.1276 -0.1719 -0.1180
  125POPC   GL1 1864   7.180   2.025   7.838 -0.0447 -0.1805 -0.0770
  125POPC   GL2 1865   7.439   1.700   7.744 -0.1222 -0.3431 -0.2125
  125POPC   C1A 1866   7.428   2.150   7.481  0.1074  0.1603  0.2403
  125POPC   D2A 1867   7.357   2.554   7.254 -0.1049  0.0597 -0.0404
  125POPC   C3A 1868   7.307   2.518   6.796 -0.0263 -0.1042  0.0790
  125POPC   C4A 1869   7.490   2.600   6.371  0.1914  0.2176 -0.0701
  125POPC   C1B 1870   7.570   1.651   7.264 -0.1331 -0.0243 -0.3077
  125POPC   C2B 1871   7.364   1.526   6.940  0.1580  0.2440 -0.1732
  125POPC   C3B 1872   7.280   1.467   6.613  0.0343 -0.0787 -0.0272
  125POPC   C4B 1873   7.369   1.467   6.156  0.0617 -0.3048  0.0254
  126POPC   NC3 1874   0.947   3.988   8.392  0.0697  0.1381  0.0091
  126POPC   PO4 1875   1.212   3.780   8.455 -0.2753  0.0171 -0.1578
  126POPC   GL1 1876   1.051   3.499   8.088  0.0037  0.1441  0.0510
  126POPC   GL2 1877   0.636   3.472   8.124 -0.1466  0.1675  0.2612
  126POPC   C1A 1878   1.072   3.427   7.649  0.0250  0.0813  0.2791
  126POPC   D2A 1879   1.109   3.418   7.148  0.0426  0.3298  0.2916
  126POPC   C3A 1880   1.447   3.275   6.794  0.2678 -0.4252 -0.2380
  126POPC   C4A 1881   1.574   3.088   6.438 -0.1898 -0.1596  0.2911
  126POPC   C1B 1882   0.253   3.403   7.894  0.0808 -0.3089 -0.0383
  126POPC   C2B 1883   0.142   3.199   7.537 -0.1696 -0.1239 -0.1102
  126POPC   C3B 1884   0.189   2.959   7.231  0.2261 -0.0865 -0.3480
  126POPC   C4B 1885   0.080   2.652   7.171  0.2036 -0.1040 -0.0752
  127POPC   NC3 1886   6.721   7.684   7.968  0.3643  0.0858 -0.0318
  127POPC   PO4 1887   6.444   7.393   8.193 -0.0182 -0.0956 -0.0250
  127POPC   GL1 1888   6.259   7.500   7.815 -0.0753 -0.0038 -0.0180
  127POPC   GL2 1889   6.219   7.852   7.649 -0.2100  0.1888 -0.1068
  127POPC   C1A 1890   6.219   7.442   7.381 -0.3976  0.1948  0.0938
  127POPC   D2A 1891   6.189   7.166   7.037  0.0460  0.4946 -0.1674
  127POPC   C3A 1892   5.913   7.042   6.662 -0.3337  0.1503  0.1785
  127POPC   C4A 1893   5.800   7.214   6.333 -0.0642 -0.3113 -0.2233
  127POPC   C1B 1894   6.369   8.078   7.242  0.1070  0.0103 -0.1228
  127POPC   C2B 1895   6.322   8.179   6.818 -0.1578  0.1344 -0.0822
  127POPC   C3B 1896   6.459   8.522   6.511 -0.0354  0.0494  0.0711
  127POPC   C4B 1897   6.542   8.671   6.103 -0.1974  0.1420  0.0058
  128POPC   NC3 1898   5.364   2.130   8.950  0.1613  0.0167  0.0336
  128POPC   PO4 1899   5.692   2.280   8.641  0.0861 -0.1871 -0.3388
  128POPC   GL1 1900   5.912   1.971   8.247 -0.2322 -0.1395  0.1522
  128POPC   GL2 1901   5.809   1.666   8.218 -0.0828  0.1288 -0.0849
  128POPC   C1A 1902   6.259   2.138   7.982 -0.0965  0.1127  0.0729
  128POPC   D2A 1903   6.397   2.273   7.653 -0.2532 -0.1889 -0.5123
  128POPC   C3A 1904   6.453   2.056   7.291 -0.1746  0.0426  0.2662
  128POPC   C4A 1905   6.272   1.887   6.871 -0.0641 -0.2380  0.0565
  128POPC   C1B 1906   5.704   1.639   7.837 -0.0215  0.2995  0.1215
  128POPC   C2B 1907   5.864   1.507   7.451 -0.0639 -0.0883 -0.1928
  128POPC   C3B 1908   5.961   1.539   7.004 -0.0565  0.2852 -0.0831
  128POPC   C4B 1909   6.155   1.547   6.525  0.1312 -0.2483 -0.0622
  129POPC   NC3 1910   5.725   6.035   8.532 -0.1013 -0.2047  0.1039
  129POPC   PO4 1911   5.748   6.460   8.444 -0.0125 -0.0550  0.0915
  129POPC   GL1 1912   5.828   6.466   8.069  0.0501  0.1992 -0.1962
  129POPC   GL2 1913   6.036   6.693   7.849  0.1550 -0.3124 -0.2850
  129POPC   C1A 1914   5.621   6.360   7.743 -0.1402  0.1661  0.2033
  129POPC   D2A 1915   5.216   6.161   7.628  0.0134  0.0190 -0.2844
  129POPC   C3A 1916   4.996   5.733   7.598 -0.1090  0.1764 -0.1450
  129POPC   C4A 1917   4.717   5.366   7.450 -0.1315 -0.0209 -0.0019
  129POPC   C1B 1918   6.205   6.984   7.523 -0.1246 -0.1233 -0.1755
  129POPC   C2B 1919   6.607   7.105   7.266 -0.0459 -0.0547 -0.2473
  129POPC   C3B 1920   7.093   7.126   7.432  0.3267 -0.0313  0.0648
  129POPC   C4B 1921   7.523   7.372   7.348  0.0158  0.0928 -0.0581
  130POPC   NC3 1922   7.854   7.774   7.933  0.2177 -0.0609  0.0262
  130POPC   PO4 1923   7.500   7.512   8.142  0.0439  0.1935 -0.0141
  130POPC   GL1 1924   7.324   7.652   7.798 -0.0587  0.2428 -0.0749
  130POPC   GL2 1925   7.532   7.874   7.585  0.0480 -0.3068  0.0378
  130POPC   C1A 1926   7.018   7.682   7.460  0.0687 -0.0325  0.0326
  130POPC   D2A 1927   6.647   7.611   7.283 -0.0781 -0.1153  0.1942
  130POPC   C3A 1928   6.572   7.629   6.912  0.2032  0.1915  0.0462
  130POPC   C4A 1929   6.469   7.830   6.472  0.1365  0.0002 -0.2855
  130POPC   C1B 1930   7.196   8.125   7.558  0.0903  0.1049  0.0582
  130POPC   C2B 1931   6.885   8.165   7.235  0.0114 -0.0045 -0.1847
  130POPC   C3B 1932   6.923   8.403   6.848  0.2524  0.0596 -0.0992
  130POPC   C4B 1933   6.725   8.850   6.716 -0.2210  0.0469  0.2828
  131POPC   NC3 1934   1.071   6.855   8.772  0.4627  0.1652 -0.0794
  131POPC   PO4 1935   1.389   7.115   8.650 -0.0225  0.0754 -0.2073
  131POPC   GL1 1936   1.317   7.297   8.268 -0.0357  0.0233 -0.1665
  131POPC   GL2 1937   1.086   7.083   8.213  0.0602  0.1866 -0.2284
  131POPC   C1A 1938   1.227   7.461   7.748  0.1800 -0.1687 -0.2458
  131POPC   D2A 1939   0.966   7.750   7.512  0.1801  0.2689  0.0756
  131POPC   C3A 1940   0.868   7.726   7.155 -0.1555 -0.0222 -0.0550
  131POPC   C4A 1941   1.088   7.741   6.727 -0.4567  0.1196 -0.0751
  131POPC   C1B 1942   0.876   7.394   8.136  0.3457 -0.0976  0.0178
  131POPC   C2B 1943   0.741   7.795   7.984 -0.2729  0.0242  0.0481
  131POPC   C3B 1944   0.364   7.931   7.797  0.0212 -0.1315 -0.0778
  131POPC   C4B 1945  -0.007   7.864   7.671 -0.2231 -0.1033  0.1859
  132POPC   NC3 1946   2.759   7.080   8.614  0.1227  0.1685  0.3838
  132POPC   PO4 1947   2.483   6.747   8.409  0.0908 -0.4518  0.3169
  132POPC   GL1 1948   2.110   6.632   8.155 -0.0381 -0.0715 -0.2172
  132POPC   GL2 1949   1.856   6.481   8.229 -0.1183 -0.2258  0.3534
  132POPC   C1A 1950   2.048   6.886   7.822 -0.0941  0.0177 -0.0341
  132POPC   D2A 1951   2.177   7.043   7.370  0.0601  0.0391 -0.1019
  132POPC   C3A 1952   2.526   6.761   7.194  0.2436  0.2825 -0.0668
  132POPC   C4A 1953   2.873   6.647   7.002 -0.1499 -0.4763 -0.0070
  132POPC   C1B 1954   1.808   6.431   7.775 -0.1497 -0.0902 -0.0885
  132POPC   C2B 1955   1.814   6.157   7.448  0.1489  0.2192  0.2192
  132POPC   C3B 1956   1.681   6.113   6.933 -0.0185  0.1351 -0.0871
  132POPC   C4B 1957   1.781   5.705   6.737  0.2712 -0.0466 -0.1975
  133POPC   NC3 1958   2.928   5.749   8.527 -0.0794 -0.1293  0.2023
  133POPC   PO4 1959   3.401   5.585   8.441 -0.0202  0.0571  0.0937
  133POPC   GL1 1960   3.542   5.710   8.046 -0.0388  0.3802 -0.2654
  133POPC   GL2 1961   3.573   5.434   7.968 -0.2037 -0.1001 -0.2157
  133POPC   C1A 1962   3.529   5.801   7.581 -0.0336  0.1550 -0.1453
  133POPC   D2A 1963   3.581   6.065   7.294 -0.0751  0.2152  0.1998
  133POPC   C3A 1964   3.813   6.271   6.911  0.2448 -0.3045  0.0340
  133POPC   C4A 1965   4.108   6.620   6.737  0.0251  0.2480  0.0075
  133POPC   C1B 1966   3.393   5.217   7.640 -0.0309 -0.1676  0.0307
  133POPC   C2B 1967   3.161   5.087   7.375  0.1893  0.1478  0.4074
  133POPC   C3B 1968   3.252   4.926   6.988  0.0977 -0.3965 -0.2513
  133POPC   C4B 1969   3.540   4.832   6.712  0.0424  0.2282 -0.2492
  134POPC   NC3 1970   1.024   8.714   9.231 -0.0995 -0.0397 -0.0932
  134POPC   PO4 1971   0.909   9.170   9.336  0.0151 -0.0073  0.0051
  134POPC   GL1 1972   0.656   9.278   8.997  0.3261 -0.2258 -0.2178
  134POPC   GL2 1973   0.379   9.075   8.908  0.4708  0.0060  0.0948
  134POPC   C1A 1974   0.836   9.385   8.523 -0.1083  0.2354 -0.2770
  134POPC   D2A 1975   1.223   9.321   8.129  0.0931  0.2038 -0.1414
  134POPC   C3A 1976   1.003   9.196   7.797  0.0050  0.0774  0.3604
  134POPC   C4A 1977   0.980   9.156   7.278  0.1538  0.0752 -0.1294
  134POPC   C1B 1978   0.637   8.884   8.501 -0.0750 -0.0999 -0.1184
  134POPC   C2B 1979   0.734   8.796   8.099 -0.2131  0.3107 -0.1755
  134POPC   C3B 1980   0.812   8.760   7.671 -0.2794 -0.2490  0.3014
  134POPC   C4B 1981   0.858   8.634   7.292  0.0886 -0.1050 -0.1144
  135POPC   NC3 1982   8.241   0.863   9.389 -0.1514  0.2191 -0.1725
  135POPC   PO4 1983   8.254   1.301   9.196  0.0992 -0.1146 -0.3047
  135POPC   GL1 1984   8.219   1.283   8.725  0.2055 -0.0099 -0.2034
  135POPC   GL2 1985   8.475   1.387   8.506  0.1406 -0.0833 -0.3738
  135POPC   C1A 1986   8.321   0.910   8.352 -0.1351 -0.2376  0.1952
  135POPC   D2A 1987   8.398   0.599   8.054  0.0774  0.0021 -0.1252
  135POPC   C3A 1988   8.738   0.586   7.754  0.4777  0.0592  0.0543
  135POPC   C4A 1989   9.048   0.796   7.418  0.0986 -0.0619 -0.0631
  135POPC   C1B 1990   8.489   1.535   8.111 -0.2382 -0.3125  0.1193
  135POPC   C2B 1991   8.526   1.654   7.737  0.1794 -0.0782 -0.4592
  135POPC   C3B 1992   8.483   1.730   7.253  0.0073 -0.1208  0.2336
  135POPC   C4B 1993   8.308   1.719   6.781  0.3193  0.1263  0.0630
  136POPC   NC3 1994   4.103   7.043   8.361 -0.0938  0.0112  0.2226
  136POPC   PO4 1995   3.799   7.229   8.656  0.0325  0.1076  0.3901
  136POPC   GL1 1996   3.723   7.333   8.287  0.0923  0.2683 -0.3278
  136POPC   GL2 1997   3.456   7.266   8.094  0.0448  0.6165  0.1235
  136POPC   C1A 1998   3.802   7.533   7.916  0.2452 -0.1564  0.0073
  136POPC   D2A 1999   4.074   7.729   7.614  0.0300 -0.1474 -0.0681
  136POPC   C3A 2000   3.942   7.940   7.184  0.2143  0.1276 -0.0415
  136POPC   C4A 2001   4.066   7.716   6.849 -0.1641 -0.0652  0.3600
  136POPC   C1B 2002   3.304   7.394   7.774  0.0864  0.0371  0.0664
  136POPC   C2B 2003   3.251   7.431   7.321 -0.1174  0.0560 -0.0985
  136POPC   C3B 2004   3.122   7.851   7.121  0.6354  0.1615 -0.4664
  136POPC   C4B 2005   3.139   8.157   6.763 -0.0578  0.1872  0.1284
  137POPC   NC3 2006   1.613   5.757   8.649 -0.3278 -0.0780  0.0381
  137POPC   PO4 2007   1.126   5.973   8.584 -0.1117  0.0548 -0.1563
  137POPC   GL1 2008   1.010   6.209   8.353  0.0369 -0.0391 -0.0247
  137POPC   GL2 2009   1.232   6.163   8.100  0.3278  0.3972 -0.2335
  137POPC   C1A 2010   0.897   6.428   7.903  0.0279  0.3785  0.2579
  137POPC   D2A 2011   0.699   6.720   7.549 -0.0023  0.1296  0.0154
  137POPC   C3A 2012   0.714   6.698   7.100 -0.1295  0.2154  0.1049
  137POPC   C4A 2013   0.619   6.989   6.750 -0.0705  0.1900 -0.1379
  137POPC   C1B 2014   1.330   6.281   7.734 -0.4371 -0.3073  0.3370
  137POPC   C2B 2015   1.406   6.661   7.504  0.0599 -0.2857  0.0391
  137POPC   C3B 2016   1.552   6.815   7.082 -0.0647 -0.1438  0.0737
  137POPC   C4B 2017   1.717   6.792   6.653  0.0119  0.1264 -0.0676
  138POPC   NC3 2018   4.870   7.895   9.311 -0.1322  0.5215 -0.4304
  138POPC   PO4 2019   4.911   7.797   8.801  0.0972  0.1629  0.0424
  138POPC   GL1 2020   4.950   7.897   8.315  0.2317 -0.1031  0.2763
  138POPC   GL2 2021   5.252   8.006   8.234  0.1196 -0.1795  0.1048
  138POPC   C1A 2022   5.105   7.729   7.906 -0.2076 -0.2292 -0.0941
  138POPC   D2A 2023   5.072   7.821   7.512  0.3444 -0.1092 -0.0294
  138POPC   C3A 2024   5.086   7.530   7.190 -0.2646 -0.2675  0.3430
  138POPC   C4A 2025   5.068   7.257   6.844  0.1446  0.3918 -0.0809
  138POPC   C1B 2026   5.475   8.196   7.778 -0.1064 -0.1112 -0.5177
  138POPC   C2B 2027   5.413   8.183   7.419 -0.1339  0.1441  0.2043
  138POPC   C3B 2028   5.344   7.971   7.066 -0.1864 -0.0634 -0.1551
  138POPC   C4B 2029   5.190   7.962   6.655  0.1479  0.1255  0.2855
  139POPC   NC3 2030   8.499   8.301   8.518  0.3111 -0.1132  0.2036
  139POPC   PO4 2031   8.851   8.022   8.365 -0.1986 -0.0774  0.0304
  139POPC   GL1 2032   8.777   8.169   7.970 -0.2015  0.1792  0.0090
  139POPC   GL2 2033   8.560   8.066   7.723 -0.0797 -0.0245  0.0385
  139POPC   C1A 2034   8.885   8.568   7.732  0.0725 -0.0273  0.2232
  139POPC   D2A 2035   8.953   8.714   7.307 -0.1930 -0.0625  0.1408
  139POPC   C3A 2036   8.953   8.624   6.871  0.1350  0.0536 -0.2133
  139POPC   C4A 2037   9.354   8.595   6.556 -0.0875  0.1221 -0.0749
  139POPC   C1B 2038   8.791   8.176   7.281 -0.3128  0.2925 -0.0487
  139POPC   C2B 2039   8.868   8.019   6.907 -0.0733 -0.0892 -0.1259
  139POPC   C3B 2040   9.120   8.023   6.581  0.2382  0.1153  0.0711
  139POPC   C4B 2041   9.198   7.621   6.349  0.3344  0.2371 -0.0456
  140POPC   NC3 2042   6.525   0.934   8.385 -0.2425  0.1168  0.0600
  140POPC   PO4 2043   6.759   0.600   8.122  0.0482  0.0436  0.1764
  140POPC   GL1 2044   6.894   0.412   7.741  0.1829  0.0572 -0.0578
  140POPC   GL2 2045   7.147   0.245   7.654  0.0180  0.1412 -0.1876
  140POPC   C1A 2046   6.998   0.488   7.258 -0.2094 -0.0808 -0.2649
  140POPC   D2A 2047   7.050   0.608   6.800 -0.3558  0.0075  0.0590
  140POPC   C3A 2048   7.400   0.537   6.518  0.0170 -0.0345 -0.1561
  140POPC   C4A 2049   7.494   0.644   6.104  0.2999  0.0345  0.1318
  140POPC   C1B 2050   7.301  -0.134   7.462 -0.2397 -0.1262  0.2234
  140POPC   C2B 2051   7.616  -0.275   7.179  0.0654  0.0542  0.0003
  140POPC   C3B 2052   7.986  -0.254   6.994 -0.2114 -0.1772  0.0704
  140POPC   C4B 2053   8.335  -0.342   6.839 -0.2179  0.0533  0.1076
  141POPC   NC3 2054   2.064   3.884   8.191 -0.0957 -0.1799 -0.1068
  141POPC   PO4 2055   2.491   4.088   8.188 -0.1143  0.2623  0.1599
  141POPC   GL1 2056   2.515   4.425   7.881  0.0687 -0.2231  0.0074
  141POPC   GL2 2057   2.287   4.713   7.909  0.1802  0.1616 -0.0142
  141POPC   C1A 2058   2.604   4.731   7.486  0.0005  0.3097  0.2043
  141POPC   D2A 2059   2.851   4.637   7.146 -0.0014  0.4458  0.1377
  141POPC   C3A 2060   2.683   5.068   7.079 -0.1290  0.0388 -0.0607
  141POPC   C4A 2061   2.735   5.510   7.113  0.3767 -0.2461 -0.0776
  141POPC   C1B 2062   2.129   4.576   7.457  0.0882 -0.1242  0.1882
  141POPC   C2B 2063   2.354   4.513   7.116  0.1295 -0.0301 -0.0396
  141POPC   C3B 2064   2.264   4.704   6.700 -0.1044  0.0582 -0.0326
  141POPC   C4B 2065   2.393   5.041   6.476  0.1579  0.0573  0.1570
  142POPC   NC3 2066   3.033   6.693   8.407 -0.0055 -0.1441 -0.0842
  142POPC   PO4 2067   2.926   6.265   8.244 -0.0021  0.0002 -0.0308
  142POPC   GL1 2068   2.596   6.217   7.898  0.1267 -0.0216 -0.1800
  142POPC   GL2 2069   2.726   6.015   7.656  0.4088  0.0266 -0.1428
  142POPC   C1A 2070   2.250   6.432   7.582  0.0582  0.0112  0.1296
  142POPC   D2A 2071   2.037   6.575   7.161  0.0549  0.2122  0.0706
  142POPC   C3A 2072   2.175   6.820   6.795 -0.0498  0.1567  0.1372
  142POPC   C4A 2073   2.038   6.951   6.284 -0.0577 -0.0607 -0.0217
  142POPC   C1B 2074   2.785   6.014   7.175  0.7362 -0.0963  0.1436
  142POPC   C2B 2075   2.895   5.841   6.750 -0.1055 -0.0713 -0.1964
  142POPC   C3B 2076   3.029   5.761   6.369 -0.1919  0.0254  0.1017
  142POPC   C4B 2077   3.229   5.546   6.009 -0.1301  0.1525  0.1853
  143POPC   NC3 2078   1.757   0.531   9.831 -0.1592 -0.2116  0.0373
  143POPC   PO4 2079   1.625   0.890   9.593  0.1332  0.1290 -0.3041
  143POPC   GL1 2080   1.847   0.983   9.271  0.2507  0.2616  0.0560
  143POPC   GL2 2081   1.691   1.258   8.945 -0.0756  0.0367 -0.0812
  143POPC   C1A 2082   1.814   0.742   8.931 -0.0437  0.1757 -0.0557
  143POPC   D2A 2083   2.071   0.590   8.584 -0.1460 -0.1289  0.1408
  143POPC   C3A 2084   2.082   0.765   8.203 -0.1442  0.1790 -0.0179
  143POPC   C4A 2085   1.894   0.888   7.779 -0.0228  0.0111  0.2019
  143POPC   C1B 2086   1.208   1.506   8.993  0.2722  0.0351  0.1722
  143POPC   C2B 2087   0.859   1.714   8.741 -0.2494  0.3505  0.4402
  143POPC   C3B 2088   0.396   1.909   8.525 -0.1402 -0.1874 -0.0702
  143POPC   C4B 2089   0.050   2.298   8.573  0.0495 -0.3253  0.0644
  144POPC   NC3 2090   3.394   8.061   3.997  0.1552 -0.1449 -0.0871
  144POPC   PO4 2091   3.212   8.337   4.360 -0.0723 -0.3319  0.0200
  144POPC   GL1 2092   2.987   8.672   4.478 -0.0204 -0.0729 -0.1290
  144POPC   GL2 2093   2.777   8.535   4.672 -0.0467 -0.5767  0.1261
  144POPC   C1A 2094   2.777   9.111   4.656 -0.1660 -0.1155 -0.1458
  144POPC   D2A 2095   2.466   9.442   4.771  0.1903 -0.0047 -0.1405
  144POPC   C3A 2096   2.614   9.614   5.053 -0.2703  0.1709 -0.4536
  144POPC   C4A 2097   2.859   9.410   5.366  0.2791  0.0363 -0.0232
  144POPC   C1B 2098   2.915   8.607   5.037  0.0263  0.0054  0.0712
  144POPC   C2B 2099   2.931   8.311   5.256 -0.0325 -0.0699 -0.1068
  144POPC   C3B 2100   2.611   8.137   5.526  0.1377  0.3415 -0.1429
  144POPC   C4B 2101   2.305   7.908   5.625  0.1709  0.0692  0.1978
  145POPC   NC3 2102   7.238   9.225   4.091  0.0124  0.3777  0.0897
  145POPC   PO4 2103   7.415   9.591   4.370  0.2637 -0.1590  0.0367
  145POPC   GL1 2104   7.315   9.622   4.810  0.0047 -0.3254 -0.1410
  145POPC   GL2 2105   7.230   9.457   5.017 -0.0703  0.0515  0.0157
  145POPC   C1A 2106   7.235  10.007   5.131  0.0843 -0.1143 -0.0801
  145POPC   D2A 2107   7.484  10.129   5.554 -0.1552  0.0377 -0.0638
  145POPC   C3A 2108   7.817   9.934   5.839 -0.1182  0.1095 -0.3004
  145POPC   C4A 2109   7.829  10.015   6.313 -0.0249  0.1265 -0.2475
  145POPC   C1B 2110   7.383   9.430   5.321  0.1107 -0.3094 -0.0811
  145POPC   C2B 2111   7.436   9.674   5.720  0.1046  0.0565 -0.0764
  145POPC   C3B 2112   7.093   9.812   5.783 -0.1467 -0.3757 -0.2302
  145POPC   C4B 2113   6.864   9.620   6.174 -0.0381  0.2618 -0.2324
  146POPC   NC3 2114   2.660   5.360   4.487 -0.0955  0.1189  0.1685
  146POPC   PO4 2115   2.384   5.619   4.417 -0.1280 -0.0812 -0.1159
  146POPC   GL1 2116   2.642   5.838   4.674 -0.1329  0.3000 -0.0734
  146POPC   GL2 2117   2.493   6.033   4.855 -0.2142  0.2246  0.3995
  146POPC   C1A 2118   2.938   5.958   5.157  0.2447 -0.1716  0.1995
  146POPC   D2A 2119   2.783   5.968   5.502  0.0671  0.4178 -0.1879
  146POPC   C3A 2120   2.782   5.749   5.866  0.0896  0.3100  0.1558
  146POPC   C4A 2121   2.707   5.443   6.138  0.0962  0.1909  0.0845
  146POPC   C1B 2122   2.645   6.342   5.181  0.1245  0.0211 -0.1881
  146POPC   C2B 2123   2.713   6.491   5.616 -0.1822 -0.2390  0.1800
  146POPC   C3B 2124   2.517   6.679   5.980  0.0071  0.3030  0.1842
  146POPC   C4B 2125   2.625   6.749   6.446  0.2884  0.2268 -0.0950
  147POPC   NC3 2126   2.538   8.172   4.468  0.1221 -0.3481  0.2473
  147POPC   PO4 2127   2.841   7.921   4.530 -0.1390  0.0778 -0.0473
  147POPC   GL1 2128   2.664   8.065   4.934 -0.2421 -0.0002  0.1821
  147POPC   GL2 2129   2.424   7.839   5.093  0.2062  0.0417  0.0290
  147POPC   C1A 2130   2.416   8.412   5.129 -0.0880  0.2001  0.0553
  147POPC   D2A 2131   2.203   8.493   5.533 -0.1572  0.2923  0.0094
  147POPC   C3A 2132   2.433   8.319   5.960 -0.0238  0.4321  0.4363
  147POPC   C4A 2133   2.629   8.597   6.257  0.3047  0.1079 -0.0077
  147POPC   C1B 2134   2.081   8.072   5.248 -0.1055  0.1263 -0.2922
  147POPC   C2B 2135   1.908   8.185   5.770 -0.0143  0.1849 -0.1752
  147POPC   C3B 2136   1.801   8.259   6.112 -0.2679  0.1270  0.1976
  147POPC   C4B 2137   1.500   8.294   6.405  0.1373 -0.0286 -0.1095
  148POPC   NC3 2138   8.595   8.097   3.726 -0.1368 -0.0241 -0.0940
  148POPC   PO4 2139   8.522   8.486   4.043  0.0885  0.2778  0.1100
  148POPC   GL1 2140   8.671   8.794   4.447 -0.0700  0.1683  0.2388
  148POPC   GL2 2141   8.514   9.113   4.579  0.1577  0.1425  0.0010
  148POPC   C1A 2142   9.009   8.819   4.804  0.3663  0.2015 -0.2393
  148POPC   D2A 2143   9.220   8.782   5.212  0.0922 -0.1177  0.0733
  148POPC   C3A 2144   9.157   8.965   5.630  0.2607  0.0016  0.1328
  148POPC   C4A 2145   9.107   9.293   5.952 -0.0964  0.0953  0.2713
  148POPC   C1B 2146   8.511   8.802   4.891 -0.1646  0.2055  0.0624
  148POPC   C2B 2147   8.631   8.613   5.225 -0.0377 -0.2966  0.2855
  148POPC   C3B 2148   8.710   8.626   5.604  0.2886  0.0331  0.2525
  148POPC   C4B 2149   8.760   8.863   6.002 -0.3482  0.1394 -0.3981
  149POPC   NC3 2150   6.395   9.321   4.365  0.3406 -0.3071  0.1680
  149POPC   PO4 2151   6.079   9.108   4.549 -0.1795 -0.0625 -0.1867
  149POPC   GL1 2152   6.098   9.311   4.993  0.2988 -0.1781  0.1794
  149POPC   GL2 2153   5.797   9.548   4.966 -0.1687 -0.2377  0.1076
  149POPC   C1A 2154   6.322   9.310   5.437  0.2195 -0.1326 -0.0762
  149POPC   D2A 2155   6.337   8.906   5.685 -0.0167 -0.1933 -0.0732
  149POPC   C3A 2156   6.071   8.603   6.072  0.1661 -0.1811  0.0642
  149POPC   C4A 2157   6.037   8.281   6.281 -0.0722  0.3835  0.2127
  149POPC   C1B 2158   5.757   9.794   5.283  0.1721  0.1986  0.0512
  149POPC   C2B 2159   5.362  10.086   5.569  0.0081  0.0133  0.0205
  149POPC   C3B 2160   5.182  10.358   5.993  0.3737 -0.1245  0.3321
  149POPC   C4B 2161   5.346  10.328   6.334  0.0956  0.0358  0.1630
  150POPC   NC3 2162   8.039   3.592   4.563  0.2227 -0.0652  0.0988
  150POPC   PO4 2163   8.224   3.252   4.475  0.0064 -0.2415  0.0444
  150POPC   GL1 2164   8.250   3.306   4.925 -0.2501 -0.0252  0.2300
  150POPC   GL2 2165   8.431   3.066   5.101 -0.1262 -0.3094 -0.0172
  150POPC   C1A 2166   8.263   3.464   5.341 -0.3204 -0.2910 -0.4301
  150POPC   D2A 2167   8.100   3.717   5.595 -0.1927 -0.0705  0.0644
  150POPC   C3A 2168   8.229   3.811   6.086 -0.1103 -0.0915  0.2796
  150POPC   C4A 2169   8.416   3.603   6.423 -0.0513 -0.1520 -0.0298
  150POPC   C1B 2170   8.379   2.779   5.436  0.0642 -0.2248  0.0448
  150POPC   C2B 2171   8.323   2.386   5.526 -0.0868  0.3815 -0.1357
  150POPC   C3B 2172   8.376   2.182   5.894 -0.0656 -0.3538 -0.1848
  150POPC   C4B 2173   8.610   2.250   6.182  0.0267 -0.2540 -0.2023
  151POPC   NC3 2174   2.583   7.158   4.532  0.2378  0.0041  0.1396
  151POPC   PO4 2175   2.815   7.434   4.440  0.1105  0.0021  0.0914
  151POPC   GL1 2176   2.806   7.572   4.840 -0.0307 -0.1605 -0.0261
  151POPC   GL2 2177   2.666   7.390   5.034 -0.0126  0.1181 -0.0605
  151POPC   C1A 2178   2.991   7.818   5.194 -0.0224 -0.1985 -0.1871
  151POPC   D2A 2179   3.071   7.889   5.683  0.0074 -0.0990  0.1112
  151POPC   C3A 2180   2.655   7.868   5.960  0.0986 -0.1439  0.1420
  151POPC   C4A 2181   2.548   7.782   6.352  0.3296  0.0270  0.0381
  151POPC   C1B 2182   2.719   7.466   5.465 -0.3222  0.3456  0.2799
  151POPC   C2B 2183   2.903   7.437   5.862  0.0042  0.3211  0.1357
  151POPC   C3B 2184   2.996   7.639   6.180  0.2535  0.0344 -0.2121
  151POPC   C4B 2185   2.990   8.103   6.287 -0.2167  0.0479 -0.1345
  152POPC   NC3 2186   9.506   1.222   3.823 -0.2628  0.0405 -0.0148
  152POPC   PO4 2187   9.631   0.793   3.714  0.0861 -0.0004 -0.1918
  152POPC   GL1 2188   9.991   0.947   3.953  0.1782 -0.3416  0.0584
  152POPC   GL2 2189  10.220   0.908   3.725  0.1223  0.1215 -0.2296
  152POPC   C1A 2190  10.331   0.676   4.139  0.0231 -0.4205  0.3113
  152POPC   D2A 2191  10.563   0.690   4.491 -0.0391  0.0229  0.0074
  152POPC   C3A 2192  10.844   0.419   4.434 -0.0848 -0.1485  0.1534
  152POPC   C4A 2193  11.092   0.470   4.853 -0.1608 -0.3296 -0.0884
  152POPC   C1B 2194  10.441   1.221   3.930  0.0093  0.0503 -0.0669
  152POPC   C2B 2195  10.691   1.264   4.342  0.3389 -0.1382  0.0183
  152POPC   C3B 2196  10.973   1.434   4.655 -0.1850 -0.1012 -0.0748
  152POPC   C4B 2197  11.190   1.413   5.062  0.1761 -0.0859  0.1073
  153POPC   NC3 2198   2.839   5.724   4.172 -0.3365  0.0632  0.0390
  153POPC   PO4 2199   3.099   5.610   4.526  0.0092  0.1672  0.0278
  153POPC   GL1 2200   3.075   5.555   4.948 -0.0757  0.0573 -0.2364
  153POPC   GL2 2201   2.721   5.527   5.040 -0.3594  0.0814 -0.0999
  153POPC   C1A 2202   3.138   5.629   5.398  0.0998 -0.1646 -0.0340
  153POPC   D2A 2203   3.281   5.978   5.580  0.0264  0.1019 -0.1322
  153POPC   C3A 2204   3.463   6.089   5.977  0.0723 -0.1707  0.0584
  153POPC   C4A 2205   3.582   6.091   6.443  0.2716  0.2348  0.1691
  153POPC   C1B 2206   2.472   5.562   5.489  0.2720  0.1360  0.1430
  153POPC   C2B 2207   2.033   5.489   5.678 -0.1534  0.1115 -0.0161
  153POPC   C3B 2208   1.612   5.350   5.759  0.1074  0.1257 -0.1453
  153POPC   C4B 2209   1.126   5.396   5.902 -0.0216 -0.1085 -0.2111
  154POPC   NC3 2210   6.976   2.730   4.537 -0.1627 -0.1163 -0.1824
  154POPC   PO4 2211   7.359   2.663   4.361 -0.0371 -0.0951  0.1962
  154POPC   GL1 2212   7.465   2.598   4.768  0.0098 -0.0969 -0.0150
  154POPC   GL2 2213   7.534   2.841   5.008 -0.2016 -0.0005  0.0129
  154POPC   C1A 2214   7.406   2.438   5.251  0.1708 -0.0672  0.0905
  154POPC   D2A 2215   7.552   2.418   5.762 -0.0401  0.1648 -0.0319
  154POPC   C3A 2216   7.941   2.463   5.974 -0.0867 -0.1139  0.2403
  154POPC   C4A 2217   8.313   2.712   5.990 -0.2256 -0.1932  0.2357
  154POPC   C1B 2218   7.365   3.193   5.224  0.1581  0.1950 -0.0074
  154POPC   C2B 2219   7.679   3.370   5.559  0.1572  0.3290 -0.0104
  154POPC   C3B 2220   7.943   3.397   5.932 -0.1198  0.3148 -0.1016
  154POPC   C4B 2221   8.400   3.365   5.828 -0.0916 -0.1161 -0.1209
  155POPC   NC3 2222   3.474   4.760   4.564  0.0705 -0.1340  0.1214
  155POPC   PO4 2223   3.715   4.458   4.672 -0.0210 -0.3150 -0.0130
  155POPC   GL1 2224   3.990   4.414   5.046  0.1217 -0.1381  0.2933
  155POPC   GL2 2225   4.170   4.683   5.078 -0.0088  0.1399  0.0899
  155POPC   C1A 2226   4.067   4.352   5.447 -0.2001  0.1087  0.0081
  155POPC   D2A 2227   4.501   4.307   5.734  0.0441  0.2150 -0.0332
  155POPC   C3A 2228   4.477   4.579   6.117  0.2368 -0.0808  0.0197
  155POPC   C4A 2229   4.769   4.905   6.252  0.1904 -0.2413 -0.1131
  155POPC   C1B 2230   4.294   5.103   5.153  0.2356 -0.1070  0.1593
  155POPC   C2B 2231   4.486   5.386   5.478 -0.1001  0.0906  0.1990
  155POPC   C3B 2232   4.652   5.247   5.831  0.1594 -0.0566  0.1539
  155POPC   C4B 2233   5.044   5.273   6.019 -0.2046  0.3526  0.0760
  156POPC   NC3 2234   7.460   4.023   4.390  0.2015  0.0405  0.4594
  156POPC   PO4 2235   7.493   3.569   4.489  0.0293 -0.0615  0.2476
  156POPC   GL1 2236   7.430   3.782   4.797 -0.0021 -0.1237  0.0554
  156POPC   GL2 2237   7.244   4.081   4.826  0.0992  0.0447  0.1108
  156POPC   C1A 2238   7.496   3.698   5.240 -0.2135 -0.0154  0.0343
  156POPC   D2A 2239   7.363   3.676   5.699  0.0789 -0.2617 -0.0632
  156POPC   C3A 2240   7.626   3.791   5.991  0.1932 -0.0395 -0.1213
  156POPC   C4A 2241   7.613   4.149   6.097 -0.0061 -0.0589  0.2022
  156POPC   C1B 2242   7.563   4.228   5.077 -0.4128 -0.1189 -0.2199
  156POPC   C2B 2243   7.844   4.539   5.195 -0.0077 -0.2415  0.1315
  156POPC   C3B 2244   8.062   4.767   5.509  0.2167  0.0480 -0.1357
  156POPC   C4B 2245   8.197   4.944   5.812 -0.0379  0.0674 -0.0672
  157POPC   NC3 2246   0.925   3.574   4.001 -0.2857  0.1191  0.3167
  157POPC   PO4 2247   0.551   3.555   4.124  0.1833 -0.3753 -0.2202
  157POPC   GL1 2248   0.888   3.296   4.423  0.1966  0.2737  0.0147
  157POPC   GL2 2249   0.907   2.999   4.421 -0.3237  0.0854 -0.1764
  157POPC   C1A 2250   0.999   3.235   4.859 -0.0913  0.0728  0.0851
  157POPC   D2A 2251   0.872   3.351   5.118  0.1516 -0.1988 -0.1709
  157POPC   C3A 2252   0.915   3.396   5.470  0.5128 -0.0065 -0.0070
  157POPC   C4A 2253   0.831   2.967   5.651 -0.0280  0.1423 -0.3213
  157POPC   C1B 2254   0.989   2.639   4.586  0.0204 -0.1668  0.0468
  157POPC   C2B 2255   1.274   2.583   4.862  0.1004 -0.2352 -0.1403
  157POPC   C3B 2256   1.485   2.456   5.189 -0.1044  0.3315  0.0382
  157POPC   C4B 2257   1.575   2.650   5.559 -0.2754 -0.0237  0.0912
  158POPC   NC3 2258   9.235   1.611   4.134  0.4039 -0.1912 -0.3107
  158POPC   PO4 2259   9.108   1.929   4.397  0.1891  0.0098 -0.0050
  158POPC   GL1 2260   8.815   1.710   4.701  0.2883 -0.0169 -0.1813
  158POPC   GL2 2261   8.394   1.711   4.787  0.1747 -0.1508  0.2148
  158POPC   C1A 2262   8.677   1.263   4.801 -0.2311  0.0134  0.1036
  158POPC   D2A 2263   8.732   0.841   5.028 -0.0302 -0.0214  0.1693
  158POPC   C3A 2264   8.757   0.828   5.403 -0.0159  0.0769 -0.0127
  158POPC   C4A 2265   8.833   0.829   5.800 -0.1429  0.0517 -0.1288
  158POPC   C1B 2266   8.246   1.501   5.019 -0.1496  0.0655 -0.1378
  158POPC   C2B 2267   8.119   1.513   5.423 -0.4853  0.0639 -0.0041
  158POPC   C3B 2268   8.348   1.699   5.799 -0.0430  0.2493 -0.0331
  158POPC   C4B 2269   8.648   1.745   6.179 -0.2177 -0.0749  0.1276
  159POPC   NC3 2270   3.367   1.546   3.484  0.1419 -0.4953 -0.0183
  159POPC   PO4 2271   3.252   1.497   3.962  0.1896  0.0720  0.0449
  159POPC   GL1 2272   3.286   1.530   4.460  0.0612 -0.1939  0.1267
  159POPC   GL2 2273   3.488   1.511   4.679  0.1567 -0.1772  0.1621
  159POPC   C1A 2274   2.914   1.374   4.644 -0.0862  0.0879 -0.0671
  159POPC   D2A 2275   2.751   1.047   4.884 -0.0912 -0.1558  0.0661
  159POPC   C3A 2276   2.613   0.953   4.550 -0.0915  0.2054  0.1125
  159POPC   C4A 2277   2.309   0.677   4.385  0.1030 -0.1924  0.1540
  159POPC   C1B 2278   3.697   1.590   5.023 -0.1353  0.2426  0.0719
  159POPC   C2B 2279   3.955   1.601   5.430  0.3363 -0.0090  0.1127
  159POPC   C3B 2280   4.119   1.783   5.834 -0.0301  0.0940 -0.1103
  159POPC   C4B 2281   4.403   1.913   6.218 -0.0719 -0.3393  0.0472
  160POPC   NC3 2282   3.708   8.322   4.264  0.0015 -0.2908 -0.3043
  160POPC   PO4 2283   4.102   8.163   4.489  0.1728 -0.1986  0.5547
  160POPC   GL1 2284   4.150   8.366   4.814  0.2419 -0.0653  0.2318
  160POPC   GL2 2285   4.415   8.416   4.836  0.1850  0.2763  0.1648
  160POPC   C1A 2286   3.876   8.596   5.145  0.0088 -0.0217 -0.1995
  160POPC   D2A 2287   3.587   8.831   5.396  0.0601 -0.1707  0.0799
  160POPC   C3A 2288   3.708   8.691   5.810  0.3108  0.2401  0.1929
  160POPC   C4A 2289   3.830   8.553   6.250  0.3125  0.0804  0.1031
  160POPC   C1B 2290   4.597   8.214   5.168 -0.3393 -0.0714 -0.0824
  160POPC   C2B 2291   4.668   8.301   5.639 -0.0746 -0.1611 -0.1302
  160POPC   C3B 2292   4.674   8.551   6.076 -0.0362 -0.0796 -0.0813
  160POPC   C4B 2293   4.401   8.645   6.390  0.1135 -0.0518 -0.0725
  161POPC   NC3 2294   7.702   7.962   3.641  0.0375 -0.0850 -0.0362
  161POPC   PO4 2295   7.705   7.546   3.961  0.2617 -0.1383 -0.0095
  161POPC   GL1 2296   7.574   7.439   4.388  0.1223 -0.2216  0.0098
  161POPC   GL2 2297   7.821   7.199   4.497  0.0269 -0.1511  0.0910
  161POPC   C1A 2298   7.511   7.379   4.806 -0.2166  0.2549  0.1137
  161POPC   D2A 2299   7.608   7.699   5.021 -0.2113  0.0867  0.0048
  161POPC   C3A 2300   7.993   7.840   5.363 -0.0790 -0.0184 -0.0629
  161POPC   C4A 2301   8.310   7.713   5.515 -0.1950  0.0432 -0.1349
  161POPC   C1B 2302   8.013   7.484   4.753 -0.3667  0.0081  0.0375
  161POPC   C2B 2303   8.376   7.444   4.992  0.4136 -0.1903 -0.2555
  161POPC   C3B 2304   8.532   7.222   5.437 -0.1757 -0.0822 -0.2825
  161POPC   C4B 2305   8.523   6.886   5.743 -0.1049  0.0376  0.0237
  162POPC   NC3 2306   7.998   4.772   4.523  0.1326  0.2739 -0.2669
  162POPC   PO4 2307   8.016   5.220   4.344 -0.2388 -0.0700 -0.0907
  162POPC   GL1 2308   7.730   5.186   4.676  0.0114  0.2661 -0.2612
  162POPC   GL2 2309   7.407   5.152   4.694 -0.2660 -0.2033 -0.2700
  162POPC   C1A 2310   7.730   5.466   5.057 -0.1865  0.2194  0.0609
  162POPC   D2A 2311   8.098   5.713   5.245 -0.1684 -0.0305  0.0972
  162POPC   C3A 2312   8.185   6.115   5.148 -0.2050  0.0569  0.2012
  162POPC   C4A 2313   8.128   6.367   4.852  0.0894 -0.4848 -0.0805
  162POPC   C1B 2314   7.241   5.294   5.003  0.2550 -0.1106  0.0423
  162POPC   C2B 2315   7.205   5.150   5.356  0.0326  0.0098  0.2648
  162POPC   C3B 2316   7.159   4.896   5.724 -0.2236 -0.0909  0.0882
  162POPC   C4B 2317   7.180   4.560   6.003 -0.2395 -0.3571  0.1343
  163POPC   NC3 2318   6.673   7.608   4.376 -0.0090  0.1973 -0.1326
  163POPC   PO4 2319   6.673   7.581   4.837  0.0464 -0.0538 -0.2096
  163POPC   GL1 2320   6.896   7.236   4.925 -0.1120  0.2058  0.1512
  163POPC   GL2 2321   6.606   7.144   5.138 -0.3243  0.1799  0.1414
  163POPC   C1A 2322   7.201   7.042   5.197 -0.1438 -0.2128  0.0448
  163POPC   D2A 2323   7.173   7.004   5.609  0.0965  0.0794  0.2702
  163POPC   C3A 2324   7.520   7.114   5.863 -0.0857 -0.0788  0.2084
  163POPC   C4A 2325   7.602   7.104   6.331  0.1064 -0.3139 -0.0542
  163POPC   C1B 2326   6.798   7.352   5.490  0.0312  0.0469 -0.3750
  163POPC   C2B 2327   7.121   7.433   5.855 -0.0334  0.2418  0.2727
  163POPC   C3B 2328   7.438   7.582   6.131  0.0151 -0.0388  0.0284
  163POPC   C4B 2329   7.754   7.905   6.212  0.1595 -0.0301  0.1369
  164POPC   NC3 2330   5.839   3.993   3.848 -0.0749  0.0863  0.2262
  164POPC   PO4 2331   5.714   3.714   4.262  0.0490 -0.0148 -0.0857
  164POPC   GL1 2332   5.577   3.646   4.697 -0.2031  0.3703  0.3585
  164POPC   GL2 2333   5.714   3.961   4.741  0.3838  0.1433  0.0224
  164POPC   C1A 2334   5.548   3.465   5.139 -0.0907 -0.1914  0.2204
  164POPC   D2A 2335   5.490   3.199   5.455  0.0514 -0.4198  0.1124
  164POPC   C3A 2336   5.442   3.248   5.932 -0.1190 -0.1881 -0.2769
  164POPC   C4A 2337   5.590   3.345   6.340 -0.2238  0.1282 -0.2210
  164POPC   C1B 2338   5.828   3.913   5.108 -0.4265  0.3346 -0.1973
  164POPC   C2B 2339   5.949   3.707   5.458  0.0773 -0.2726  0.0145
  164POPC   C3B 2340   6.066   3.906   5.863  0.3237 -0.0394  0.0738
  164POPC   C4B 2341   5.965   4.171   6.284 -0.0069  0.1640  0.0823
  165POPC   NC3 2342   1.635   4.448   4.491 -0.3152  0.0664  0.1647
  165POPC   PO4 2343   1.740   4.902   4.382 -0.0464  0.1988  0.0895
  165POPC   GL1 2344   1.732   4.881   4.808 -0.2104 -0.0584  0.2067
  165POPC   GL2 2345   1.544   4.566   4.970 -0.2447  0.3027  0.1735
  165POPC   C1A 2346   1.885   4.961   5.259  0.2581 -0.0597 -0.1450
  165POPC   D2A 2347   1.946   4.962   5.690  0.2526  0.0073  0.3832
  165POPC   C3A 2348   1.614   4.964   6.063  0.1944 -0.5150 -0.0055
  165POPC   C4A 2349   1.151   4.792   6.322  0.1600  0.0134  0.0420
  165POPC   C1B 2350   1.674   4.588   5.406 -0.0778  0.1889 -0.1556
  165POPC   C2B 2351   1.650   4.499   5.935 -0.1416 -0.1600  0.0361
  165POPC   C3B 2352   1.649   4.574   6.368 -0.0976  0.0212  0.1344
  165POPC   C4B 2353   1.965   4.360   6.540  0.3135  0.1524  0.0457
  166POPC   NC3 2354   1.048   8.711   3.879  0.1741 -0.0515 -0.0019
  166POPC   PO4 2355   0.805   8.378   4.104 -0.1638 -0.0330  0.0124
  166POPC   GL1 2356   0.804   8.312   4.558 -0.0516 -0.1442 -0.1138
  166POPC   GL2 2357   1.074   8.054   4.818 -0.2545 -0.2344  0.5100
  166POPC   C1A 2358   0.813   8.554   4.844  0.2033 -0.0934  0.2574
  166POPC   D2A 2359   0.748   8.816   5.214  0.1037 -0.1959 -0.1629
  166POPC   C3A 2360   0.484   9.175   5.164  0.3642 -0.0023 -0.2245
  166POPC   C4A 2361   0.233   9.348   5.506 -0.4110 -0.2941 -0.0229
  166POPC   C1B 2362   0.794   8.138   5.110  0.2609 -0.2370  0.0073
  166POPC   C2B 2363   0.826   8.344   5.529  0.0464 -0.0423  0.0063
  166POPC   C3B 2364   0.929   8.198   5.929 -0.2191 -0.4310 -0.0753
  166POPC   C4B 2365   0.958   8.129   6.430  0.0831  0.3240  0.1804
  167POPC   NC3 2366   2.552   6.497   3.873  0.0830  0.0203  0.2101
  167POPC   PO4 2367   2.801   6.739   4.302 -0.2827  0.4025  0.0714
  167POPC   GL1 2368   2.898   6.559   4.744  0.2146 -0.0659  0.2755
  167POPC   GL2 2369   2.963   6.296   4.838  0.2712 -0.0822  0.1414
  167POPC   C1A 2370   2.904   6.782   5.195 -0.1688  0.0592  0.0311
  167POPC   D2A 2371   2.857   7.014   5.609 -0.4745  0.1118 -0.2627
  167POPC   C3A 2372   2.976   6.843   6.058  0.0429 -0.2090 -0.1669
  167POPC   C4A 2373   3.314   6.548   6.226  0.2157  0.1438 -0.1823
  167POPC   C1B 2374   3.232   6.369   5.268 -0.0286 -0.3839 -0.0440
  167POPC   C2B 2375   3.196   6.422   5.681 -0.2292  0.2898  0.2293
  167POPC   C3B 2376   2.951   6.193   6.034 -0.1295 -0.0247  0.0470
  167POPC   C4B 2377   2.540   6.266   6.250  0.1332 -0.2778  0.4845
  168POPC   NC3 2378   7.536   9.134   4.684  0.1597 -0.0250  0.4327
  168POPC   PO4 2379   7.182   8.886   4.557 -0.0562  0.3346  0.3298
  168POPC   GL1 2380   7.084   9.027   4.969  0.2688 -0.2525  0.1530
  168POPC   GL2 2381   7.305   8.934   5.089 -0.0731 -0.3634 -0.1556
  168POPC   C1A 2382   6.837   9.016   5.342  0.0979  0.1318  0.1862
  168POPC   D2A 2383   6.870   8.818   5.717 -0.1610 -0.0989  0.1337
  168POPC   C3A 2384   7.223   8.580   5.968 -0.2456 -0.0605 -0.0039
  168POPC   C4A 2385   7.519   8.306   6.048 -0.0790 -0.0992 -0.2051
  168POPC   C1B 2386   7.340   8.941   5.493 -0.2019  0.3809  0.1043
  168POPC   C2B 2387   7.516   9.065   5.939 -0.2061  0.2505  0.2477
  168POPC   C3B 2388   7.451   9.439   6.219  0.0994  0.0359 -0.1742
  168POPC   C4B 2389   7.322   9.809   6.349 -0.2701 -0.1538  0.0628
  169POPC   NC3 2390   2.770   2.079   3.343 -0.2250  0.0800  0.1205
  169POPC   PO4 2391   2.581   1.957   3.697 -0.0396 -0.0726  0.1363
  169POPC   GL1 2392   2.629   1.891   4.144 -0.0059 -0.1061 -0.4710
  169POPC   GL2 2393   2.689   2.178   4.406  0.0222  0.0669 -0.4947
  169POPC   C1A 2394   2.540   1.727   4.582  0.0868 -0.1679  0.1983
  169POPC   D2A 2395   2.413   1.589   4.899 -0.0090 -0.2057 -0.3062
  169POPC   C3A 2396   1.970   1.353   5.070  0.0084  0.1154  0.1729
  169POPC   C4A 2397   1.669   0.972   5.167 -0.1173  0.0395 -0.2072
  169POPC   C1B 2398   2.751   2.320   4.783 -0.0357  0.1120 -0.1112
  169POPC   C2B 2399   2.853   2.301   5.130 -0.0826  0.4451 -0.1158
  169POPC   C3B 2400   2.849   2.319   5.502 -0.0458 -0.2339  0.0690
  169POPC   C4B 2401   2.658   2.076   5.880 -0.2499 -0.1764 -0.3962
  170POPC   NC3 2402   9.145   5.448   4.168  0.0465 -0.1104  0.0472
  170POPC   PO4 2403   8.941   5.262   4.425 -0.2651  0.1431  0.1848
  170POPC   GL1 2404   8.847   5.515   4.830  0.0553  0.2335  0.2648
  170POPC   GL2 2405   8.690   5.703   4.897 -0.1716  0.0725  0.0487
  170POPC   C1A 2406   8.835   5.333   5.258  0.1288 -0.0448 -0.3355
  170POPC   D2A 2407   8.795   5.402   5.709 -0.0518  0.1085 -0.1991
  170POPC   C3A 2408   8.662   5.148   5.994  0.2581 -0.0732  0.1695
  170POPC   C4A 2409   8.695   5.042   6.429 -0.1221 -0.1385 -0.0231
  170POPC   C1B 2410   8.605   5.745   5.408  0.0020  0.1764 -0.0415
  170POPC   C2B 2411   8.842   5.907   5.713  0.2200 -0.3061  0.1220
  170POPC   C3B 2412   8.940   6.105   6.104 -0.1029  0.0403  0.1917
  170POPC   C4B 2413   9.090   5.982   6.484  0.2045  0.0570  0.2062
  171POPC   NC3 2414   1.638   6.243   4.420 -0.3870  0.0331  0.0227
  171POPC   PO4 2415   2.089   6.039   4.511  0.1618  0.0560 -0.2575
  171POPC   GL1 2416   2.046   5.900   4.974  0.0428 -0.1841  0.3084
  171POPC   GL2 2417   1.948   5.708   5.249 -0.6300  0.1830  0.4912
  171POPC   C1A 2418   2.291   6.007   5.346  0.1374  0.3666 -0.0898
  171POPC   D2A 2419   2.347   6.129   5.787  0.1051  0.2750 -0.0950
  171POPC   C3A 2420   2.234   5.835   6.000 -0.0998  0.0223 -0.1277
  171POPC   C4A 2421   2.385   5.736   6.416 -0.1318 -0.2120  0.1621
  171POPC   C1B 2422   1.822   5.981   5.635 -0.1115 -0.2013  0.0585
  171POPC   C2B 2423   1.854   6.242   5.887  0.0696  0.2892  0.0269
  171POPC   C3B 2424   2.037   6.390   6.150  0.0685 -0.1314  0.3889
  171POPC   C4B 2425   2.025   6.328   6.601 -0.2434 -0.1288  0.1877
  172POPC   NC3 2426   7.364   3.133   4.159 -0.1059  0.0503  0.2248
  172POPC   PO4 2427   6.954   3.140   4.274  0.1704 -0.2423 -0.1261
  172POPC   GL1 2428   6.635   3.105   4.598 -0.0446  0.3081 -0.0971
  172POPC   GL2 2429   6.908   3.120   4.977 -0.0732  0.2657  0.0618
  172POPC   C1A 2430   6.372   3.188   4.900  0.0370  0.3456 -0.1826
  172POPC   D2A 2431   6.579   3.119   5.354 -0.0204 -0.2118 -0.0840
  172POPC   C3A 2432   6.397   3.469   5.598 -0.0904 -0.0245 -0.0937
  172POPC   C4A 2433   6.456   3.634   5.955  0.1538  0.2321  0.0539
  172POPC   C1B 2434   7.065   2.774   5.247  0.3655 -0.0525  0.1186
  172POPC   C2B 2435   7.075   2.531   5.575  0.2266 -0.1386  0.2707
  172POPC   C3B 2436   7.132   2.564   6.020 -0.0294 -0.0920 -0.0301
  172POPC   C4B 2437   6.955   2.917   6.266  0.4395 -0.0682 -0.1160
  173POPC   NC3 2438   4.116   5.822   4.360  0.1449  0.0332 -0.0896
  173POPC   PO4 2439   3.964   5.353   4.522  0.0540 -0.1611  0.0537
  173POPC   GL1 2440   3.869   5.305   5.097  0.0638  0.1138 -0.1571
  173POPC   GL2 2441   3.603   5.442   5.199 -0.3334 -0.1929 -0.6280
  173POPC   C1A 2442   3.984   5.245   5.552 -0.0712 -0.2097 -0.0774
  173POPC   D2A 2443   4.191   5.517   5.867  0.0429 -0.2499  0.1951
  173POPC   C3A 2444   3.910   5.825   6.114 -0.3100  0.1383 -0.0288
  173POPC   C4A 2445   4.083   6.233   6.083  0.2672  0.0711 -0.1400
  173POPC   C1B 2446   3.388   5.237   5.549 -0.1026  0.1151 -0.1424
  173POPC   C2B 2447   3.225   4.782   5.612  0.0595 -0.0616  0.3049
  173POPC   C3B 2448   3.068   4.387   5.700 -0.2525  0.0500  0.2937
  173POPC   C4B 2449   2.941   3.916   5.770 -0.0096  0.3311  0.0301
  174POPC   NC3 2450   3.487   5.335   4.684 -0.0462 -0.2156 -0.0020
  174POPC   PO4 2451   3.114   5.104   4.618  0.0327 -0.1318 -0.2742
  174POPC   GL1 2452   3.240   5.015   4.959 -0.1372 -0.0328 -0.0898
  174POPC   GL2 2453   3.462   4.929   5.024  0.2848  0.0588  0.2458
  174POPC   C1A 2454   2.968   5.111   5.361  0.0774  0.0282 -0.0863
  174POPC   D2A 2455   2.847   5.302   5.672 -0.0572 -0.2107 -0.3157
  174POPC   C3A 2456   2.991   5.097   5.890  0.1641 -0.1568  0.2672
  174POPC   C4A 2457   2.898   4.771   6.076 -0.0352  0.0294 -0.3094
  174POPC   C1B 2458   3.716   4.846   5.354 -0.0323 -0.2606  0.3623
  174POPC   C2B 2459   3.646   4.869   5.838  0.0325 -0.0001  0.1448
  174POPC   C3B 2460   3.456   4.770   6.222  0.0827 -0.1961  0.1515
  174POPC   C4B 2461   3.150   5.083   6.470  0.1311  0.1256  0.1224
  175POPC   NC3 2462   0.026   6.310   4.427  0.0301  0.2908  0.4173
  175POPC   PO4 2463   0.224   5.880   4.420 -0.1287  0.1627 -0.0295
  175POPC   GL1 2464   0.083   5.982   4.840  0.2310  0.0471 -0.0248
  175POPC   GL2 2465  -0.158   6.228   4.856  0.0300 -0.0188 -0.2326
  175POPC   C1A 2466   0.074   6.282   5.270  0.1205 -0.0820 -0.1076
  175POPC   D2A 2467   0.096   6.437   5.705 -0.0667 -0.0474  0.1458
  175POPC   C3A 2468  -0.079   6.588   6.047 -0.5014 -0.0913 -0.1243
  175POPC   C4A 2469  -0.229   6.750   6.422 -0.2704 -0.0318 -0.2173
  175POPC   C1B 2470  -0.399   6.353   5.192  0.0550  0.2222  0.1556
  175POPC   C2B 2471  -0.394   6.244   5.637 -0.0180 -0.1408  0.1293
  175POPC   C3B 2472  -0.213   5.963   5.941  0.1316  0.0496  0.1118
  175POPC   C4B 2473  -0.094   5.630   6.286 -0.0098  0.3785  0.0256
  176POPC   NC3 2474   1.651   9.506   3.723  0.0246  0.1457 -0.0130
  176POPC   PO4 2475   1.353   9.938   3.555  0.1622  0.2256  0.3251
  176POPC   GL1 2476   1.414  10.018   3.990  0.2251  0.0436  0.3376
  176POPC   GL2 2477   1.453   9.747   4.288  0.3290 -0.2134 -0.0845
  176POPC   C1A 2478   1.713  10.137   4.364  0.3427  0.0574  0.2981
  176POPC   D2A 2479   1.820  10.394   4.607 -0.1321  0.2479 -0.0484
  176POPC   C3A 2480   1.700  10.809   4.592  0.0374  0.1164  0.0579
  176POPC   C4A 2481   1.836  11.206   4.597  0.3642 -0.2881 -0.2992
  176POPC   C1B 2482   1.518   9.317   4.528  0.1578 -0.4278  0.0334
  176POPC   C2B 2483   1.433   8.952   4.824 -0.2501 -0.0289  0.0942
  176POPC   C3B 2484   1.528   8.940   5.229 -0.1167  0.2042 -0.0812
  176POPC   C4B 2485   1.237   8.694   5.432  0.2481 -0.3037  0.1385
  177POPC   NC3 2486   0.129   3.668   4.622  0.4107  0.2901 -0.1606
  177POPC   PO4 2487  -0.109   4.001   4.628 -0.2028  0.0190  0.0154
  177POPC   GL1 2488  -0.309   4.156   5.053  0.0922  0.2736  0.1676
  177POPC   GL2 2489  -0.644   3.958   5.126  0.1986 -0.3653  0.1843
  177POPC   C1A 2490  -0.120   4.170   5.532 -0.0416  0.1215  0.1525
  177POPC   D2A 2491   0.195   4.065   5.900 -0.0127  0.0017  0.0792
  177POPC   C3A 2492   0.094   3.813   6.352 -0.0640  0.0938 -0.2355
  177POPC   C4A 2493   0.416   3.548   6.688 -0.0576 -0.1090  0.1466
  177POPC   C1B 2494  -0.600   4.288   5.491  0.2165  0.0276 -0.0658
  177POPC   C2B 2495  -0.522   4.211   5.859 -0.1291  0.2183 -0.1057
  177POPC   C3B 2496  -0.617   4.137   6.197 -0.0409 -0.4843  0.2036
  177POPC   C4B 2497  -0.866   3.822   6.253 -0.1650  0.3241  0.1319
  178POPC   NC3 2498   9.288   5.098   4.803  0.0878  0.0997 -0.0603
  178POPC   PO4 2499   9.756   4.990   4.940  0.4472  0.1561 -0.0905
  178POPC   GL1 2500   9.959   5.137   5.320  0.1247 -0.1095 -0.3334
  178POPC   GL2 2501  10.012   5.516   5.408 -0.1205  0.0487  0.1404
  178POPC   C1A 2502   9.914   4.993   5.772 -0.0769 -0.2742 -0.1206
  178POPC   D2A 2503   9.900   4.828   6.193 -0.3919  0.2183  0.0177
  178POPC   C3A 2504  10.133   5.057   6.627 -0.1438  0.1223  0.3380
  178POPC   C4A 2505  10.250   5.319   7.018 -0.0868 -0.0988 -0.0563
  178POPC   C1B 2506   9.839   5.552   5.820 -0.0252  0.2620  0.0425
  178POPC   C2B 2507   9.991   5.305   6.237  0.1028 -0.0287  0.0948
  178POPC   C3B 2508  10.458   5.157   6.251  0.1239 -0.0089  0.2227
  178POPC   C4B 2509  10.751   5.440   6.475  0.4943  0.2247 -0.1228
  179POPC   NC3 2510   2.238   2.771   4.009 -0.1046 -0.0506 -0.0225
  179POPC   PO4 2511   2.375   3.208   4.130  0.0367 -0.1704  0.2326
  179POPC   GL1 2512   2.691   3.219   4.471 -0.0464 -0.4371  0.0452
  179POPC   GL2 2513   2.458   2.955   4.583 -0.1110 -0.2288  0.0446
  179POPC   C1A 2514   2.717   3.268   4.840  0.0271 -0.2512  0.2313
  179POPC   D2A 2515   2.658   3.096   5.250 -0.0836  0.2016 -0.3066
  179POPC   C3A 2516   2.257   3.076   5.438 -0.0385 -0.0803 -0.1291
  179POPC   C4A 2517   1.764   3.093   5.430  0.0541  0.0503  0.0641
  179POPC   C1B 2518   2.499   2.707   4.959 -0.0506 -0.0125  0.3575
  179POPC   C2B 2519   2.385   2.608   5.349  0.0081  0.0315  0.0577
  179POPC   C3B 2520   2.587   2.637   5.777 -0.2284 -0.0265  0.2870
  179POPC   C4B 2521   3.003   2.647   5.900  0.1777  0.0615 -0.3527
  180POPC   NC3 2522   9.441   8.585   3.774 -0.3822  0.1820 -0.2989
  180POPC   PO4 2523   9.705   8.512   4.088 -0.1463 -0.0181  0.2756
  180POPC   GL1 2524   9.890   8.830   4.341 -0.0874 -0.1835  0.0119
  180POPC   GL2 2525   9.660   9.040   4.433  0.0549  0.0424 -0.3410
  180POPC   C1A 2526  10.059   8.836   4.748  0.1408 -0.1417  0.0082
  180POPC   D2A 2527   9.996   8.616   5.060  0.0321 -0.1680 -0.1256
  180POPC   C3A 2528   9.942   8.159   4.993  0.0073 -0.2224 -0.0644
  180POPC   C4A 2529  10.139   7.762   5.090 -0.1249  0.0805 -0.0667
  180POPC   C1B 2530   9.500   9.080   4.858  0.4359 -0.1403 -0.2193
  180POPC   C2B 2531   9.672   8.982   5.275  0.3006 -0.0174  0.0121
  180POPC   C3B 2532  10.082   8.877   5.576  0.0710 -0.0964 -0.4480
  180POPC   C4B 2533  10.387   8.688   5.838 -0.1426 -0.1583 -0.0717
  181POPC   NC3 2534   2.466   0.863   3.219  0.0130  0.2924  0.0178
  181POPC   PO4 2535   2.108   0.864   3.466 -0.2034 -0.0698 -0.0043
  181POPC   GL1 2536   2.099   0.983   3.864  0.0782  0.2006 -0.3264
  181POPC   GL2 2537   1.871   0.784   3.991  0.1530  0.2024 -0.1008
  181POPC   C1A 2538   2.184   1.202   4.295 -0.0691 -0.3496 -0.0951
  181POPC   D2A 2539   2.202   1.074   4.755  0.1238  0.0738 -0.0682
  181POPC   C3A 2540   2.346   0.667   4.994 -0.0430 -0.0302  0.1869
  181POPC   C4A 2541   2.610   0.302   4.727 -0.1270 -0.4871 -0.0881
  181POPC   C1B 2542   1.388   0.836   4.242  0.1323  0.0943  0.3067
  181POPC   C2B 2543   1.181   0.946   4.691 -0.2771 -0.0001 -0.0612
  181POPC   C3B 2544   1.113   0.814   5.072 -0.1040 -0.2747 -0.0909
  181POPC   C4B 2545   1.315   0.597   5.381  0.6034  0.0687 -0.1948
  182POPC   NC3 2546   3.488   9.288   4.011  0.0812  0.4237 -0.2435
  182POPC   PO4 2547   3.490   8.804   4.115  0.0288 -0.0434  0.1368
  182POPC   GL1 2548   3.537   8.808   4.531 -0.0056  0.0464 -0.1347
  182POPC   GL2 2549   3.572   8.502   4.722  0.2650  0.0863 -0.0292
  182POPC   C1A 2550   3.249   8.917   4.865  0.0183 -0.0259 -0.0537
  182POPC   D2A 2551   3.098   8.965   5.360 -0.1571  0.0318  0.0394
  182POPC   C3A 2552   3.191   8.817   5.734  0.1065 -0.0632 -0.2384
  182POPC   C4A 2553   3.166   8.725   6.123  0.2589 -0.0315  0.1437
  182POPC   C1B 2554   3.406   8.415   5.104 -0.0790 -0.0292  0.0732
  182POPC   C2B 2555   3.345   8.281   5.502 -0.2173 -0.0478 -0.2003
  182POPC   C3B 2556   3.368   8.271   5.894  0.1670  0.0630 -0.0215
  182POPC   C4B 2557   3.398   8.385   6.392  0.4005 -0.1858 -0.1632
  183POPC   NC3 2558   2.844   0.182   4.086 -0.0741  0.2801 -0.4672
  183POPC   PO4 2559   3.192  -0.038   4.090  0.1304  0.0601 -0.2662
  183POPC   GL1 2560   3.169   0.012   4.443  0.2250 -0.1315  0.0450
  183POPC   GL2 2561   2.974  -0.128   4.768 -0.3816  0.0424 -0.0143
  183POPC   C1A 2562   3.398   0.035   4.871 -0.1090 -0.3368  0.1447
  183POPC   D2A 2563   3.651   0.185   5.310  0.3451 -0.3443 -0.1094
  183POPC   C3A 2564   3.407   0.118   5.688  0.3842  0.0972 -0.0374
  183POPC   C4A 2565   2.914  -0.016   5.757 -0.0889  0.0807  0.2944
  183POPC   C1B 2566   3.118   0.146   5.237  0.0608 -0.3863 -0.2199
  183POPC   C2B 2567   3.047   0.472   5.695  0.2183 -0.0530  0.2597
  183POPC   C3B 2568   3.014   0.341   6.060  0.0682  0.0068 -0.1002
  183POPC   C4B 2569   3.124  -0.016   6.198 -0.0628  0.1936 -0.0156
  184POPC   NC3 2570   5.591   1.356   4.456 -0.0582  0.0460  0.1107
  184POPC   PO4 2571   5.233   1.219   4.221 -0.1044 -0.0490 -0.3473
  184POPC   GL1 2572   5.024   1.163   4.618  0.0424 -0.0462 -0.1360
  184POPC   GL2 2573   5.305   1.332   4.914 -0.3489  0.0834  0.0065
  184POPC   C1A 2574   4.800   1.075   4.979 -0.3446  0.0944 -0.1930
  184POPC   D2A 2575   4.788   0.958   5.304  0.0283  0.1152  0.0931
  184POPC   C3A 2576   4.687   1.189   5.573 -0.1000  0.1773  0.1234
  184POPC   C4A 2577   4.552   1.646   5.699 -0.0099 -0.2535 -0.2542
  184POPC   C1B 2578   5.103   1.360   5.319  0.1462  0.1668  0.2057
  184POPC   C2B 2579   5.083   1.596   5.706 -0.1181  0.0194 -0.1241
  184POPC   C3B 2580   5.210   1.607   6.160  0.2068  0.2501  0.1276
  184POPC   C4B 2581   5.044   1.379   6.571  0.1906  0.1492  0.2052
  185POPC   NC3 2582   5.477   2.107   3.735 -0.1649  0.0585  0.0396
  185POPC   PO4 2583   5.478   2.212   4.152  0.2022 -0.2564  0.0287
  185POPC   GL1 2584   5.444   2.363   4.596  0.0823  0.1489 -0.0169
  185POPC   GL2 2585   5.698   2.508   4.816 -0.0866 -0.0709  0.1194
  185POPC   C1A 2586   5.240   2.473   5.009  0.0595 -0.0376  0.0607
  185POPC   D2A 2587   5.222   2.306   5.353 -0.0984  0.0449  0.3180
  185POPC   C3A 2588   4.921   2.227   5.708 -0.1426 -0.1942 -0.1776
  185POPC   C4A 2589   4.836   1.963   6.114 -0.1679  0.0784  0.2679
  185POPC   C1B 2590   5.849   2.249   5.029  0.1053 -0.1069 -0.0210
  185POPC   C2B 2591   5.867   2.246   5.488  0.1975  0.0106  0.3169
  185POPC   C3B 2592   6.142   2.319   5.708 -0.7060  0.1281 -0.1514
  185POPC   C4B 2593   6.050   2.478   6.036 -0.1100 -0.2918  0.0598
  186POPC   NC3 2594   6.975   0.204   4.520  0.1408 -0.1020 -0.0791
  186POPC   PO4 2595   6.522   0.138   4.427  0.1198  0.3157  0.2169
  186POPC   GL1 2596   6.242   0.152   4.806 -0.1628  0.5897 -0.0980
  186POPC   GL2 2597   6.193   0.464   4.909 -0.0273 -0.2330 -0.2778
  186POPC   C1A 2598   6.350   0.189   5.346 -0.3010 -0.0530  0.0316
  186POPC   D2A 2599   6.515  -0.010   5.736  0.0081  0.0719  0.0640
  186POPC   C3A 2600   6.598  -0.429   5.907  0.0261 -0.2793  0.2812
  186POPC   C4A 2601   6.555  -0.572   6.345  0.0287 -0.2712  0.1872
  186POPC   C1B 2602   6.005   0.565   5.229  0.0291  0.0548  0.1662
  186POPC   C2B 2603   5.850   0.594   5.682  0.2512  0.0321 -0.1960
  186POPC   C3B 2604   5.649   0.913   5.856  0.1334  0.0324 -0.0166
  186POPC   C4B 2605   5.374   1.122   6.242 -0.1311  0.3492 -0.1711
  187POPC   NC3 2606   6.535   1.855   4.417  0.1821 -0.2778  0.1754
  187POPC   PO4 2607   6.572   1.501   4.309 -0.1745  0.0305  0.0958
  187POPC   GL1 2608   6.520   1.526   4.794  0.2228 -0.0139  0.0949
  187POPC   GL2 2609   6.333   1.841   4.870 -0.2040 -0.0976  0.0405
  187POPC   C1A 2610   6.249   1.327   5.196  0.0779 -0.2192  0.0065
  187POPC   D2A 2611   6.041   1.026   5.499 -0.3614  0.2843  0.1274
  187POPC   C3A 2612   6.137   1.059   5.881  0.1157 -0.2422  0.1235
  187POPC   C4A 2613   6.049   1.077   6.308 -0.0773 -0.1570 -0.4435
  187POPC   C1B 2614   6.306   2.270   5.067 -0.0585 -0.0297  0.0273
  187POPC   C2B 2615   6.141   2.633   5.294  0.0406  0.1646  0.0648
  187POPC   C3B 2616   6.247   2.826   5.734 -0.1976 -0.1904  0.2992
  187POPC   C4B 2617   6.549   3.015   5.880 -0.1030  0.0110 -0.2546
  188POPC   NC3 2618   9.412   2.404   4.397 -0.3277 -0.3230 -0.1791
  188POPC   PO4 2619   9.139   2.792   4.358  0.0657  0.3727  0.1598
  188POPC   GL1 2620   8.974   2.740   4.828  0.0071  0.1166  0.2272
  188POPC   GL2 2621   8.699   2.683   4.827 -0.3054 -0.0266 -0.0504
  188POPC   C1A 2622   8.940   2.872   5.337 -0.0563 -0.0435 -0.0472
  188POPC   D2A 2623   9.181   2.554   5.516  0.1429  0.3347 -0.1732
  188POPC   C3A 2624   9.318   2.571   5.904 -0.0515  0.0053  0.0868
  188POPC   C4A 2625   9.590   2.457   6.227  0.0829 -0.2486  0.1837
  188POPC   C1B 2626   8.773   2.419   5.238 -0.3008 -0.0765 -0.1013
  188POPC   C2B 2627   8.762   2.489   5.791  0.0629  0.0154  0.2355
  188POPC   C3B 2628   8.900   2.605   6.164 -0.1383  0.1066 -0.2305
  188POPC   C4B 2629   9.139   2.867   6.297  0.0872  0.2271  0.1968
  189POPC   NC3 2630   4.168   4.610   4.541  0.0029  0.1945  0.0064
  189POPC   PO4 2631   4.610   4.580   4.523  0.1286 -0.1270  0.0489
  189POPC   GL1 2632   4.598   4.427   4.900  0.0071  0.0492 -0.1200
  189POPC   GL2 2633   4.833   4.229   4.873 -0.2534 -0.1720  0.0030
  189POPC   C1A 2634   4.540   4.451   5.271  0.1778  0.0453 -0.1807
  189POPC   D2A 2635   4.185   4.811   5.523 -0.0668  0.0040 -0.0817
  189POPC   C3A 2636   4.206   5.036   5.929 -0.0104  0.1590 -0.0380
  189POPC   C4A 2637   4.288   5.045   6.294  0.1326  0.0544  0.0162
  189POPC   C1B 2638   4.823   4.043   5.226 -0.0426  0.1267 -0.1118
  189POPC   C2B 2639   4.854   3.893   5.687 -0.3075 -0.1374 -0.1999
  189POPC   C3B 2640   5.180   4.060   5.970 -0.1374 -0.0945 -0.1748
  189POPC   C4B 2641   5.536   4.275   6.135  0.1692 -0.3653  0.0361
  190POPC   NC3 2642   6.222   6.923   4.220  0.3300 -0.0528  0.3665
  190POPC   PO4 2643   6.414   6.710   4.559 -0.2609 -0.0319  0.0634
  190POPC   GL1 2644   6.341   6.608   5.045 -0.0731  0.0905  0.1186
  190POPC   GL2 2645   6.074   6.820   4.949  0.1785 -0.0921 -0.2031
  190POPC   C1A 2646   6.237   6.940   5.392 -0.3265  0.3053 -0.2071
  190POPC   D2A 2647   6.045   6.966   5.820  0.4295 -0.0046  0.0957
  190POPC   C3A 2648   6.268   6.985   6.204  0.1334  0.1568 -0.0084
  190POPC   C4A 2649   6.492   7.112   6.547 -0.0947 -0.0315 -0.1490
  190POPC   C1B 2650   5.866   6.617   5.369 -0.1606 -0.0037 -0.1626
  190POPC   C2B 2651   5.677   6.654   5.702 -0.1187 -0.0723 -0.1884
  190POPC   C3B 2652   5.541   6.941   5.915  0.1756 -0.3254  0.3513
  190POPC   C4B 2653   5.210   7.154   6.204 -0.2483 -0.1676  0.2722
  191POPC   NC3 2654   6.970   6.618   4.396  0.0868  0.0005  0.1323
  191POPC   PO4 2655   7.331   6.479   4.650 -0.2435 -0.1305  0.3081
  191POPC   GL1 2656   7.169   6.620   4.949 -0.0342 -0.1111 -0.2254
  191POPC   GL2 2657   6.886   6.735   4.928 -0.0229  0.2671 -0.1093
  191POPC   C1A 2658   7.292   6.530   5.385 -0.0774 -0.1706  0.0074
  191POPC   D2A 2659   7.462   6.594   5.746 -0.0956  0.0294 -0.0830
  191POPC   C3A 2660   7.152   6.897   6.058  0.0998 -0.2368 -0.1648
  191POPC   C4A 2661   7.116   6.967   6.461  0.0054 -0.0067 -0.1186
  191POPC   C1B 2662   6.813   6.747   5.380  0.0262 -0.2421  0.1855
  191POPC   C2B 2663   6.947   6.556   5.744  0.0798 -0.2208  0.3584
  191POPC   C3B 2664   6.766   6.712   6.199 -0.0584  0.2147 -0.4987
  191POPC   C4B 2665   6.740   6.641   6.639 -0.1819 -0.1949  0.0217
  192POPC   NC3 2666   3.563   6.910   4.095  0.0602 -0.0435 -0.0093
  192POPC   PO4 2667   3.876   6.813   4.437 -0.0509 -0.1829  0.1160
  192POPC   GL1 2668   3.849   6.973   4.837  0.0618 -0.0653 -0.1163
  192POPC   GL2 2669   4.005   7.260   4.960  0.1589  0.1253  0.0369
  192POPC   C1A 2670   3.550   7.112   5.252  0.1131 -0.2104  0.0410
  192POPC   D2A 2671   3.317   6.956   5.493 -0.0260 -0.1079  0.3415
  192POPC   C3A 2672   3.392   6.965   5.857  0.3547 -0.3009 -0.0136
  192POPC   C4A 2673   3.320   7.228   6.173  0.2215  0.2937 -0.1297
  192POPC   C1B 2674   3.989   7.522   5.377  0.2949  0.0128 -0.1656
  192POPC   C2B 2675   3.990   7.726   5.753  0.0378  0.2757 -0.1510
  192POPC   C3B 2676   3.893   7.691   6.249 -0.2432  0.0224 -0.3289
  192POPC   C4B 2677   3.748   7.962   6.435 -0.0196  0.0187  0.3354
  193POPC   NC3 2678   8.212   8.775   4.297  0.0738  0.2525  0.2711
  193POPC   PO4 2679   8.015   9.074   4.584  0.0118  0.2124  0.0246
  193POPC   GL1 2680   8.171   9.263   4.955 -0.0275 -0.0284  0.0154
  193POPC   GL2 2681   7.950   9.367   5.193  0.3244 -0.2036 -0.1685
  193POPC   C1A 2682   8.477   9.516   5.197  0.1004 -0.3447 -0.0004
  193POPC   D2A 2683   8.561   9.972   5.283 -0.0701 -0.0109  0.0293
  193POPC   C3A 2684   8.668   9.970   5.715  0.0119  0.1592 -0.1000
  193POPC   C4A 2685   9.006   9.769   5.991 -0.1891  0.2060 -0.0945
  193POPC   C1B 2686   7.935   9.214   5.570 -0.2211  0.1476 -0.2135
  193POPC   C2B 2687   7.906   9.352   6.031  0.0947 -0.4215 -0.5171
  193POPC   C3B 2688   8.074   9.571   6.311  0.1318 -0.0992 -0.0058
  193POPC   C4B 2689   8.330   9.753   6.596 -0.1216 -0.3536 -0.1910
  194POPC   NC3 2690   6.177   3.001   3.579 -0.0146  0.0995  0.2052
  194POPC   PO4 2691   6.133   2.748   3.961  0.1373 -0.1282  0.3152
  194POPC   GL1 2692   6.246   2.845   4.396 -0.1709 -0.1953  0.2413
  194POPC   GL2 2693   6.042   3.182   4.397 -0.3019 -0.0848 -0.2605
  194POPC   C1A 2694   6.216   2.687   4.796 -0.1221  0.1207  0.1551
  194POPC   D2A 2695   6.616   2.740   4.946  0.3252  0.1555 -0.1827
  194POPC   C3A 2696   6.608   2.646   5.487  0.1596  0.0360 -0.2864
  194POPC   C4A 2697   6.641   2.426   5.904  0.1780  0.1339  0.1321
  194POPC   C1B 2698   5.695   3.080   4.740  0.1653  0.1217 -0.2897
  194POPC   C2B 2699   5.703   2.883   5.159  0.1679  0.1242  0.0959
  194POPC   C3B 2700   5.763   2.802   5.647  0.0410  0.1240 -0.0873
  194POPC   C4B 2701   5.805   2.921   6.103 -0.1160  0.3253 -0.3808
  195POPC   NC3 2702   4.497   8.490   4.378 -0.2300  0.2743  0.1034
  195POPC   PO4 2703   4.862   8.788   4.852  0.4022 -0.0031 -0.0109
  195POPC   GL1 2704   4.599   8.918   5.213 -0.1931 -0.1145 -0.2388
  195POPC   GL2 2705   4.486   9.182   5.403 -0.1988  0.2220  0.1775
  195POPC   C1A 2706   4.312   8.643   5.351  0.2201 -0.2586  0.0250
  195POPC   D2A 2707   4.179   8.573   5.726  0.1015  0.4235  0.1182
  195POPC   C3A 2708   4.105   8.915   6.060 -0.0214  0.1059 -0.0752
  195POPC   C4A 2709   3.970   9.091   6.512 -0.1535 -0.2772 -0.0839
  195POPC   C1B 2710   4.582   8.919   5.772 -0.1534 -0.1184  0.0472
  195POPC   C2B 2711   4.570   9.105   6.179 -0.1147 -0.1455  0.0024
  195POPC   C3B 2712   4.510   9.053   6.682  0.1448  0.1447 -0.3189
  195POPC   C4B 2713   4.239   8.883   6.910 -0.0791 -0.0114  0.0833
  196POPC   NC3 2714   4.788   5.365   4.818 -0.1276 -0.0582  0.0602
  196POPC   PO4 2715   4.678   5.852   4.694 -0.3554  0.1962  0.0088
  196POPC   GL1 2716   4.799   5.843   5.106  0.1186  0.0066 -0.2009
  196POPC   GL2 2717   4.529   6.036   5.246  0.0548 -0.2679 -0.3639
  196POPC   C1A 2718   5.134   6.027   5.362  0.1159 -0.2121 -0.1225
  196POPC   D2A 2719   5.303   6.337   5.653  0.2645 -0.0058  0.0066
  196POPC   C3A 2720   5.048   6.271   6.001 -0.0743 -0.4198  0.0688
  196POPC   C4A 2721   5.005   6.290   6.473 -0.0330 -0.1370  0.2708
  196POPC   C1B 2722   4.116   5.833   5.293  0.2192  0.0266  0.1665
  196POPC   C2B 2723   3.766   5.674   5.592 -0.0502  0.2713 -0.0329
  196POPC   C3B 2724   3.663   5.352   6.012  0.3552 -0.0281  0.0963
  196POPC   C4B 2725   3.780   5.093   6.331  0.2570 -0.3452  0.1594
  197POPC   NC3 2726   9.245   4.008   4.319  0.1616 -0.1741 -0.0177
  197POPC   PO4 2727   9.201   4.408   4.667 -0.0560  0.2222  0.0438
  197POPC   GL1 2728   8.878   4.501   4.989 -0.3448  0.0443  0.0509
  197POPC   GL2 2729   8.957   4.890   5.149 -0.0478  0.1633 -0.1367
  197POPC   C1A 2730   8.626   4.275   5.334  0.0947 -0.0994  0.0895
  197POPC   D2A 2731   8.212   4.254   5.494 -0.1690  0.2001  0.2245
  197POPC   C3A 2732   8.065   4.379   5.861 -0.1525  0.2324 -0.0448
  197POPC   C4A 2733   8.007   4.268   6.292 -0.2894 -0.3088  0.2397
  197POPC   C1B 2734   9.061   4.825   5.596  0.0915 -0.1151  0.3623
  197POPC   C2B 2735   9.108   5.113   5.948 -0.0738  0.2403 -0.0011
  197POPC   C3B 2736   9.190   5.296   6.432 -0.2408 -0.0119  0.1615
  197POPC   C4B 2737   9.385   5.596   6.759 -0.0600 -0.0876 -0.1540
  198POPC   NC3 2738   5.840   6.062   4.581  0.0145 -0.0554 -0.1313
  198POPC   PO4 2739   6.005   5.752   4.588 -0.1277  0.0383  0.1929
  198POPC   GL1 2740   6.133   5.882   4.957 -0.0705  0.2219  0.3553
  198POPC   GL2 2741   6.014   6.206   5.060  0.0254 -0.2198  0.1182
  198POPC   C1A 2742   6.223   5.693   5.251 -0.1110 -0.2367 -0.0602
  198POPC   D2A 2743   6.522   5.916   5.538 -0.4985 -0.1871 -0.0475
  198POPC   C3A 2744   6.631   6.112   5.950 -0.0418 -0.1794 -0.0584
  198POPC   C4A 2745   6.744   6.230   6.362 -0.1388  0.0888  0.0630
  198POPC   C1B 2746   6.166   6.195   5.490  0.0902 -0.4259  0.0538
  198POPC   C2B 2747   6.363   6.500   5.646 -0.0703  0.1150 -0.0585
  198POPC   C3B 2748   6.538   6.882   5.797 -0.2669  0.0046 -0.0665
  198POPC   C4B 2749   6.750   7.155   6.056 -0.1372 -0.0003  0.0851
  199POPC   NC3 2750   7.746   5.519   3.942  0.2586  0.0891  0.1609
  199POPC   PO4 2751   7.532   5.595   4.372  0.2619 -0.1333  0.0801
  199POPC   GL1 2752   7.502   5.712   4.768  0.0209  0.0846 -0.0630
  199POPC   GL2 2753   7.212   5.767   4.812  0.4449 -0.2276  0.1061
  199POPC   C1A 2754   7.682   5.971   5.045 -0.1150 -0.2369 -0.0826
  199POPC   D2A 2755   7.725   6.297   5.436  0.0822 -0.3047 -0.0445
  199POPC   C3A 2756   7.717   6.172   5.953  0.1359  0.1624  0.0214
  199POPC   C4A 2757   8.042   5.962   6.372 -0.1347  0.2204  0.0863
  199POPC   C1B 2758   7.333   5.713   5.271 -0.2396  0.2363  0.0604
  199POPC   C2B 2759   7.723   5.801   5.577 -0.1426  0.0709 -0.1422
  199POPC   C3B 2760   8.178   6.022   5.657 -0.0249  0.0894 -0.0404
  199POPC   C4B 2761   8.495   6.304   5.713  0.1268 -0.0457  0.0645
  200POPC   NC3 2762   7.684   0.504   4.036 -0.3650  0.0218  0.1611
  200POPC   PO4 2763   7.179   0.427   4.125 -0.1002  0.2301 -0.2499
  200POPC   GL1 2764   7.378   0.552   4.590 -0.2209 -0.1284  0.2730
  200POPC   GL2 2765   7.610   0.329   4.794 -0.2953  0.0585  0.0363
  200POPC   C1A 2766   7.222   0.756   4.923 -0.0279 -0.0541  0.1400
  200POPC   D2A 2767   6.911   0.964   5.119 -0.0780 -0.0199 -0.2326
  200POPC   C3A 2768   6.765   1.233   5.124 -0.0622  0.0626 -0.2141
  200POPC   C4A 2769   6.997   1.512   5.333 -0.7043 -0.1596 -0.1084
  200POPC   C1B 2770   7.755   0.199   5.119 -0.1821 -0.1258 -0.2438
  200POPC   C2B 2771   8.086   0.131   5.448  0.1688 -0.2278  0.1702
  200POPC   C3B 2772   8.230  -0.117   5.777 -0.3066  0.0643 -0.2214
  200POPC   C4B 2773   8.592  -0.356   5.882  0.0824  0.4387 -0.0640
  201POPC   NC3 2774   7.581   7.978   4.624  0.3788  0.1418  0.0728
  201POPC   PO4 2775   7.312   8.294   4.477  0.1538 -0.1550 -0.3132
  201POPC   GL1 2776   7.166   8.459   4.822 -0.1423  0.0517 -0.0664
  201POPC   GL2 2777   7.274   8.113   4.961  0.2458  0.1737 -0.0968
  201POPC   C1A 2778   7.139   8.460   5.257  0.2384  0.0321  0.0359
  201POPC   D2A 2779   7.103   8.324   5.590 -0.2066  0.1651 -0.3881
  201POPC   C3A 2780   6.775   8.259   5.742  0.2156 -0.1668 -0.2539
  201POPC   C4A 2781   6.595   8.181   6.146  0.2862 -0.1074  0.1120
  201POPC   C1B 2782   7.234   7.893   5.336 -0.3226  0.0754 -0.3633
  201POPC   C2B 2783   7.028   7.828   5.617  0.4636 -0.0340 -0.0338
  201POPC   C3B 2784   7.155   7.996   6.057 -0.0714 -0.0851  0.1719
  201POPC   C4B 2785   6.964   7.956   6.535  0.1813  0.2657  0.1584
  202POPC   NC3 2786   4.404   1.757   4.135  0.0421 -0.0269  0.3176
  202POPC   PO4 2787   4.124   1.613   4.525 -0.0513 -0.3200 -0.1581
  202POPC   GL1 2788   4.331   1.444   4.941 -0.0117  0.0377 -0.0200
  202POPC   GL2 2789   4.116   1.230   5.151 -0.1106  0.2021 -0.1654
  202POPC   C1A 2790   4.583   1.535   5.246 -0.4225 -0.0775 -0.2600
  202POPC   D2A 2791   4.902   1.866   5.302  0.0948  0.1151  0.0075
  202POPC   C3A 2792   4.970   2.039   5.004 -0.0752  0.0119 -0.1037
  202POPC   C4A 2793   4.951   2.279   4.625  0.0577  0.3073 -0.1842
  202POPC   C1B 2794   4.245   1.248   5.677  0.1987  0.0227  0.1806
  202POPC   C2B 2795   4.279   1.313   6.130  0.0146 -0.0196 -0.1373
  202POPC   C3B 2796   4.014   1.630   6.319  0.0604  0.1254  0.1213
  202POPC   C4B 2797   3.548   1.751   6.339 -0.0049 -0.4993  0.2798
  203POPC   NC3 2798   0.638   3.076   4.002 -0.0090  0.0817  0.0185
  203POPC   PO4 2799   0.217   2.849   4.091  0.0421  0.0898 -0.1534
  203POPC   GL1 2800   0.114   2.682   4.551  0.1094  0.0820 -0.0526
  203POPC   GL2 2801  -0.149   2.752   4.838  0.0502  0.0924 -0.0116
  203POPC   C1A 2802   0.339   2.429   4.813  0.3695  0.0294 -0.1532
  203POPC   D2A 2803   0.535   2.344   5.285  0.1792 -0.2364 -0.1660
  203POPC   C3A 2804   0.991   2.456   5.379  0.1666 -0.0768  0.0102
  203POPC   C4A 2805   1.276   2.282   5.669 -0.0546  0.2400  0.2091
  203POPC   C1B 2806  -0.312   2.926   5.201  0.0417 -0.2559  0.2131
  203POPC   C2B 2807  -0.035   2.792   5.687  0.0541  0.0295  0.5497
  203POPC   C3B 2808  -0.012   2.878   6.034  0.2508  0.2032 -0.3215
  203POPC   C4B 2809  -0.104   3.220   6.349  0.2852 -0.5954 -0.0023
  204POPC   NC3 2810   0.579   6.039   4.085 -0.2879 -0.0547 -0.0900
  204POPC   PO4 2811   0.901   5.905   4.413 -0.2174 -0.1102  0.1538
  204POPC   GL1 2812   0.882   5.913   4.934  0.1256 -0.1186  0.5059
  204POPC   GL2 2813   0.527   5.854   5.067 -0.2988 -0.1686 -0.2055
  204POPC   C1A 2814   0.928   6.155   5.331  0.0706 -0.0137 -0.0308
  204POPC   D2A 2815   0.995   6.361   5.780 -0.0076  0.0969 -0.0731
  204POPC   C3A 2816   1.387   6.354   6.010  0.1350 -0.2362  0.0576
  204POPC   C4A 2817   1.535   6.280   6.441 -0.0109 -0.1322 -0.0706
  204POPC   C1B 2818   0.531   6.333   5.099  0.0802  0.2066 -0.1054
  204POPC   C2B 2819   0.634   6.532   5.508 -0.0484  0.0408  0.0423
  204POPC   C3B 2820   0.528   6.659   5.961  0.4952  0.2949 -0.3071
  204POPC   C4B 2821   0.881   6.609   6.328 -0.1105  0.4690  0.0747
  205POPC   NC3 2822   1.845   7.564   4.473 -0.2104 -0.2399 -0.0248
  205POPC   PO4 2823   1.960   7.206   4.506 -0.1733 -0.0769  0.1962
  205POPC   GL1 2824   2.152   6.979   4.867 -0.4300 -0.0753  0.1594
  205POPC   GL2 2825   2.457   6.759   4.921  0.0693  0.0527  0.0709
  205POPC   C1A 2826   2.016   6.983   5.214 -0.2682  0.0932 -0.0490
  205POPC   D2A 2827   1.804   6.930   5.597 -0.1218  0.2241 -0.0459
  205POPC   C3A 2828   1.595   6.756   5.916  0.0796  0.2873 -0.0116
  205POPC   C4A 2829   1.350   6.892   6.319  0.1906  0.3479 -0.0182
  205POPC   C1B 2830   2.483   7.019   5.293 -0.2550  0.1440  0.0768
  205POPC   C2B 2831   2.315   7.009   5.685 -0.0110  0.1646 -0.0707
  205POPC   C3B 2832   2.511   7.121   6.160 -0.0185  0.0129  0.0565
  205POPC   C4B 2833   2.754   7.279   6.421 -0.1202  0.0073 -0.1777
  206POPC   NC3 2834   2.415   2.295   4.030 -0.0849 -0.2863  0.1383
  206POPC   PO4 2835   2.000   2.325   3.852 -0.0159 -0.4328  0.3529
  206POPC   GL1 2836   2.005   2.438   4.317  0.4559 -0.2148  0.0932
  206POPC   GL2 2837   2.299   2.452   4.472 -0.1815  0.0235  0.0252
  206POPC   C1A 2838   1.935   2.690   4.754 -0.0350 -0.1430 -0.0933
  206POPC   D2A 2839   1.917   2.708   5.091  0.0377  0.0603  0.0101
  206POPC   C3A 2840   1.967   2.357   5.319  0.1462 -0.3121 -0.1330
  206POPC   C4A 2841   2.278   2.214   5.611 -0.2941  0.2694 -0.2723
  206POPC   C1B 2842   2.256   2.273   4.780  0.2807  0.0677  0.0363
  206POPC   C2B 2843   2.359   2.190   5.075 -0.1548 -0.0264  0.0198
  206POPC   C3B 2844   2.569   1.796   5.398 -0.3352  0.2060  0.3842
  206POPC   C4B 2845   2.704   1.561   5.870  0.2808  0.1200 -0.0031
  207POPC   NC3 2846   6.860   1.031   4.323 -0.0785  0.5026 -0.0012
  207POPC   PO4 2847   6.694   0.641   4.482 -0.1749  0.2085  0.2547
  207POPC   GL1 2848   6.752   0.448   4.895  0.1320 -0.2815 -0.0122
  207POPC   GL2 2849   6.728   0.179   4.996  0.0821  0.1086 -0.1232
  207POPC   C1A 2850   6.827   0.486   5.362 -0.1163  0.2560  0.0046
  207POPC   D2A 2851   6.964   0.692   5.709  0.2497 -0.1289 -0.1666
  207POPC   C3A 2852   6.961   0.612   6.123  0.2557 -0.1838 -0.0521
  207POPC   C4A 2853   6.688   0.388   6.489 -0.0126 -0.2639 -0.0254
  207POPC   C1B 2854   6.871  -0.035   5.383 -0.1226 -0.1399  0.1667
  207POPC   C2B 2855   7.040  -0.366   5.702  0.1362 -0.1439  0.1419
  207POPC   C3B 2856   7.067  -0.566   6.110  0.0842  0.7133  0.0374
  207POPC   C4B 2857   7.273  -0.765   6.395  0.2016  0.2725  0.1534
  208POPC   NC3 2858   7.323   6.038   4.342  0.1367  0.0994 -0.0883
  208POPC   PO4 2859   6.892   6.196   4.565  0.2256  0.3058  0.2947
  208POPC   GL1 2860   6.845   6.227   4.982 -0.1625  0.1794  0.0053
  208POPC   GL2 2861   6.702   6.052   5.054 -0.0874  0.1893 -0.0989
  208POPC   C1A 2862   6.935   6.140   5.467 -0.0513  0.1749  0.1647
  208POPC   D2A 2863   7.265   6.103   5.701  0.1315 -0.0480 -0.1879
  208POPC   C3A 2864   7.197   6.290   6.080 -0.1703  0.0778  0.1754
  208POPC   C4A 2865   7.242   6.476   6.476  0.1632 -0.1739  0.0521
  208POPC   C1B 2866   6.836   5.680   5.156  0.0871 -0.1911  0.1161
  208POPC   C2B 2867   6.907   5.568   5.568 -0.1410  0.2400 -0.2503
  208POPC   C3B 2868   6.957   5.705   5.908  0.2670 -0.0805 -0.2308
  208POPC   C4B 2869   7.057   5.837   6.372  0.0374 -0.0010 -0.0867
  209POPC   NC3 2870   7.145   4.797   4.488 -0.1144 -0.1241 -0.0419
  209POPC   PO4 2871   7.501   4.539   4.318  0.0703  0.0990  0.4945
  209POPC   GL1 2872   7.595   4.731   4.800 -0.4599  0.0708  0.0446
  209POPC   GL2 2873   7.313   4.633   4.965 -0.1423  0.1441 -0.1065
  209POPC   C1A 2874   7.596   4.960   5.182  0.1037 -0.0655  0.0698
  209POPC   D2A 2875   7.626   5.291   5.564 -0.0066  0.1569  0.3044
  209POPC   C3A 2876   7.418   5.384   5.938 -0.0355  0.0426 -0.0922
  209POPC   C4A 2877   7.453   5.764   6.065 -0.0130 -0.2215 -0.0645
  209POPC   C1B 2878   7.284   4.557   5.374 -0.3502 -0.0706  0.0663
  209POPC   C2B 2879   7.600   4.584   5.619 -0.5362  0.0564  0.1483
  209POPC   C3B 2880   7.681   4.853   5.949 -0.2572  0.4013  0.0382
  209POPC   C4B 2881   8.008   5.015   6.299 -0.1622 -0.0725 -0.3114
  210POPC   NC3 2882   6.320   0.865   4.117  0.0382 -0.0783 -0.2846
  210POPC   PO4 2883   6.002   0.948   4.432  0.0008  0.3147  0.2711
  210POPC   GL1 2884   6.025   0.972   4.835  0.0216 -0.2217 -0.0965
  210POPC   GL2 2885   5.827   1.086   5.086  0.1125 -0.2390  0.1673
  210POPC   C1A 2886   6.382   0.888   5.178  0.1412 -0.0247  0.2365
  210POPC   D2A 2887   6.459   0.715   5.647 -0.0780 -0.1909  0.1466
  210POPC   C3A 2888   6.265   0.478   5.791 -0.2665  0.1158 -0.0443
  210POPC   C4A 2889   5.995   0.093   5.815  0.2532  0.0456  0.1083
  210POPC   C1B 2890   5.657   1.357   5.356  0.0313 -0.1779  0.0892
  210POPC   C2B 2891   5.577   1.399   5.777 -0.1261  0.1007  0.2454
  210POPC   C3B 2892   5.674   1.759   5.979 -0.5097 -0.3284 -0.0273
  210POPC   C4B 2893   5.549   2.141   6.176  0.1953  0.0291 -0.0858
  211POPC   NC3 2894   3.426   2.270   3.913 -0.1534 -0.0053 -0.1284
  211POPC   PO4 2895   3.214   1.982   3.676 -0.0423 -0.1556 -0.0432
  211POPC   GL1 2896   3.138   1.939   4.179  0.0125 -0.2692  0.0249
  211POPC   GL2 2897   3.259   2.195   4.383 -0.0660  0.3671 -0.0687
  211POPC   C1A 2898   2.986   1.845   4.595 -0.2714 -0.3497  0.1852
  211POPC   D2A 2899   2.899   1.822   4.995  0.0711 -0.0322 -0.0462
  211POPC   C3A 2900   2.987   1.550   5.113  0.2751  0.3985  0.0368
  211POPC   C4A 2901   3.363   1.460   5.438  0.1789  0.1351 -0.0022
  211POPC   C1B 2902   3.246   2.462   4.817  0.2036  0.0392  0.1727
  211POPC   C2B 2903   3.386   2.480   5.233 -0.1729 -0.0457  0.1386
  211POPC   C3B 2904   3.332   2.370   5.689 -0.0157 -0.1551  0.0560
  211POPC   C4B 2905   3.239   2.170   6.176  0.0411 -0.1589 -0.2704
  212POPC   NC3 2906   9.539   3.073   4.389 -0.2504  0.2167  0.0304
  212POPC   PO4 2907   9.264   3.200   4.647 -0.2485  0.0641 -0.3674
  212POPC   GL1 2908   9.037   3.286   5.049 -0.2543 -0.1513 -0.1610
  212POPC   GL2 2909   8.766   3.498   5.002  0.2882  0.0385 -0.1251
  212POPC   C1A 2910   9.268   3.396   5.327 -0.1054 -0.0574 -0.1128
  212POPC   D2A 2911   9.225   3.753   5.585  0.1657  0.2075 -0.1047
  212POPC   C3A 2912   9.434   3.695   6.014  0.1000 -0.0095  0.1533
  212POPC   C4A 2913   9.316   3.768   6.454 -0.1086 -0.2852 -0.3356
  212POPC   C1B 2914   8.739   3.295   5.417 -0.2257  0.0230  0.2130
  212POPC   C2B 2915   8.907   3.443   5.863 -0.1095  0.2593 -0.0648
  212POPC   C3B 2916   8.847   3.235   6.255 -0.1272 -0.1771 -0.1137
  212POPC   C4B 2917   9.133   3.366   6.604  0.2901  0.0624 -0.0263
  213POPC   NC3 2918   6.651   3.541   4.227  0.2991 -0.1312 -0.1182
  213POPC   PO4 2919   7.012   3.710   4.338  0.0421 -0.4542  0.0326
  213POPC   GL1 2920   7.039   3.480   4.617 -0.0444 -0.1230  0.3565
  213POPC   GL2 2921   6.711   3.563   4.786 -0.1733 -0.1163  0.2480
  213POPC   C1A 2922   7.094   3.577   5.044 -0.6581  0.1433 -0.0498
  213POPC   D2A 2923   6.960   3.449   5.445  0.0605 -0.1720  0.3256
  213POPC   C3A 2924   6.848   3.810   5.700  0.2388 -0.2022  0.0762
  213POPC   C4A 2925   7.140   4.011   6.024 -0.4427  0.2796  0.2600
  213POPC   C1B 2926   6.505   3.603   5.159  0.3197 -0.1499 -0.2752
  213POPC   C2B 2927   6.341   3.991   5.482  0.2429 -0.0523  0.2527
  213POPC   C3B 2928   6.475   4.125   5.925 -0.0386  0.5688  0.2126
  213POPC   C4B 2929   6.684   4.465   6.156 -0.0102  0.0494 -0.0852
  214POPC   NC3 2930   4.042   3.230   4.198  0.0273  0.0177  0.2026
  214POPC   PO4 2931   4.436   3.005   4.287 -0.0467  0.1450  0.0229
  214POPC   GL1 2932   4.176   3.155   4.670 -0.0095 -0.3336 -0.1918
  214POPC   GL2 2933   4.389   3.209   4.941 -0.2914  0.1941  0.1496
  214POPC   C1A 2934   3.881   3.226   4.938  0.4147 -0.5931  0.0345
  214POPC   D2A 2935   4.051   3.255   5.320 -0.0735  0.2286 -0.2283
  214POPC   C3A 2936   4.037   3.087   5.716  0.0956  0.1678 -0.1583
  214POPC   C4A 2937   4.302   3.034   6.014 -0.0009  0.1253 -0.1157
  214POPC   C1B 2938   4.281   2.814   5.064 -0.0867  0.0503 -0.4236
  214POPC   C2B 2939   4.165   2.689   5.443 -0.1931  0.0458 -0.0693
  214POPC   C3B 2940   4.005   2.597   5.979 -0.0562  0.0150  0.0665
  214POPC   C4B 2941   3.672   2.563   6.196 -0.0203  0.1213 -0.0882
  215POPC   NC3 2942   4.173   0.949   3.770 -0.0252  0.0858  0.0624
  215POPC   PO4 2943   4.345   0.745   4.286 -0.1247  0.0372  0.2514
  215POPC   GL1 2944   4.332   0.565   4.737  0.0418  0.1773 -0.3186
  215POPC   GL2 2945   4.441   0.281   4.743  0.0235 -0.0887  0.0347
  215POPC   C1A 2946   4.487   0.655   5.064 -0.0719 -0.1971  0.1157
  215POPC   D2A 2947   4.330   0.869   5.315  0.3941  0.2546  0.0756
  215POPC   C3A 2948   4.421   0.744   5.734  0.1402 -0.1262  0.0795
  215POPC   C4A 2949   4.534   0.832   6.153 -0.1112  0.0249  0.0567
  215POPC   C1B 2950   4.539   0.104   5.310  0.0022 -0.2122 -0.0007
  215POPC   C2B 2951   4.400   0.178   5.744  0.2186  0.0348  0.2062
  215POPC   C3B 2952   4.477   0.244   6.124 -0.0507  0.2988 -0.0314
  215POPC   C4B 2953   4.859   0.442   6.383  0.2909  0.4844  0.0284
  216POPC   NC3 2954   1.225   4.952   4.812 -0.0321 -0.1984 -0.0418
  216POPC   PO4 2955   1.005   4.497   4.781 -0.1717 -0.0990  0.3876
  216POPC   GL1 2956   1.127   4.291   5.128  0.1346  0.0135  0.0203
  216POPC   GL2 2957   1.143   4.555   5.281  0.2047  0.0082 -0.2518
  216POPC   C1A 2958   0.957   3.935   5.349  0.0737  0.1782  0.0066
  216POPC   D2A 2959   0.967   3.783   5.750  0.0366  0.0233 -0.1516
  216POPC   C3A 2960   0.689   3.714   6.120 -0.1317  0.0094 -0.1746
  216POPC   C4A 2961   0.721   3.998   6.512 -0.0036  0.3104 -0.0145
  216POPC   C1B 2962   1.290   4.263   5.602  0.2710 -0.3688 -0.1024
  216POPC   C2B 2963   1.318   4.018   6.035  0.1450  0.0136  0.0641
  216POPC   C3B 2964   1.135   3.741   6.264  0.0013 -0.3426  0.3073
  216POPC   C4B 2965   1.038   3.647   6.702  0.3384 -0.0653 -0.1957
  217POPC   NC3 2966   4.648   3.410   4.603 -0.0306 -0.1032  0.4995
  217POPC   PO4 2967   4.764   3.791   4.626 -0.0618  0.1037 -0.2824
  217POPC   GL1 2968   4.515   3.812   5.037 -0.2168  0.0872  0.2417
  217POPC   GL2 2969   4.144   3.767   4.973  0.0548 -0.0725  0.0820
  217POPC   C1A 2970   4.387   3.911   5.424  0.2445  0.1175 -0.1831
  217POPC   D2A 2971   4.277   3.898   5.937 -0.1870  0.0535  0.1080
  217POPC   C3A 2972   4.039   3.538   5.965  0.2074  0.0620 -0.0036
  217POPC   C4A 2973   3.821   3.201   6.161 -0.0791  0.0341 -0.1494
  217POPC   C1B 2974   3.874   3.799   5.323 -0.2387 -0.0000 -0.1364
  217POPC   C2B 2975   3.832   3.915   5.736  0.3119 -0.1285  0.0165
  217POPC   C3B 2976   3.867   3.901   6.204  0.0507 -0.2345 -0.0039
  217POPC   C4B 2977   3.921   3.873   6.704  0.0732  0.2330  0.1188
  218POPC   NC3 2978   4.932   7.607   4.766  0.1946  0.0681 -0.1534
  218POPC   PO4 2979   5.001   7.301   4.436 -0.3178  0.2469 -0.0761
  218POPC   GL1 2980   4.896   7.105   4.847  0.2579  0.1639 -0.0810
  218POPC   GL2 2981   5.080   6.800   4.904  0.0092  0.3566  0.1252
  218POPC   C1A 2982   4.862   7.054   5.258 -0.2663  0.2317 -0.2166
  218POPC   D2A 2983   4.582   6.836   5.541 -0.4297 -0.0081 -0.1222
  218POPC   C3A 2984   4.654   6.981   5.981 -0.1219 -0.1466 -0.2457
  218POPC   C4A 2985   4.921   6.756   6.188 -0.2422 -0.0530  0.2987
  218POPC   C1B 2986   5.017   6.528   5.266  0.0181  0.1197 -0.0496
  218POPC   C2B 2987   4.775   6.344   5.607 -0.2367 -0.1144 -0.2798
  218POPC   C3B 2988   4.591   6.452   6.075 -0.2149  0.0040  0.0091
  218POPC   C4B 2989   4.437   6.404   6.459 -0.1509 -0.2778  0.0291
  219POPC   NC3 2990   8.412   4.609   4.332  0.0303 -0.0788  0.1087
  219POPC   PO4 2991   8.339   4.154   4.535 -0.0996 -0.2366 -0.0943
  219POPC   GL1 2992   8.182   4.016   4.866  0.1899 -0.2564  0.0035
  219POPC   GL2 2993   8.394   3.975   5.052 -0.0059  0.2659 -0.0019
  219POPC   C1A 2994   7.919   3.930   5.165 -0.2302 -0.0881 -0.1310
  219POPC   D2A 2995   7.754   4.093   5.540 -0.2610  0.0442  0.3042
  219POPC   C3A 2996   7.344   4.153   5.575  0.0633 -0.0111  0.4213
  219POPC   C4A 2997   7.080   4.003   5.304  0.1704  0.0804 -0.0861
  219POPC   C1B 2998   8.712   3.811   5.441  0.2814 -0.0302  0.0161
  219POPC   C2B 2999   8.708   4.022   5.776 -0.1535 -0.0375  0.0537
  219POPC   C3B 3000   8.519   4.292   6.125  0.0226 -0.0773  0.1170
  219POPC   C4B 3001   8.387   4.711   6.227 -0.1723  0.0194 -0.2727
  220POPC   NC3 3002   8.661   2.773   4.279  0.2211 -0.0602  0.1011
  220POPC   PO4 3003   8.286   2.733   4.494  0.0577  0.0424  0.3227
  220POPC   GL1 3004   8.039   2.842   4.812  0.0050 -0.0979  0.0711
  220POPC   GL2 3005   8.095   2.645   4.982  0.0990 -0.2666 -0.4048
  220POPC   C1A 3006   7.922   3.081   5.250 -0.3387  0.3992  0.1675
  220POPC   D2A 3007   7.954   2.895   5.642 -0.0402  0.1170 -0.2782
  220POPC   C3A 3008   7.792   2.942   6.075  0.1193 -0.3931  0.1277
  220POPC   C4A 3009   7.678   3.141   6.459  0.0221 -0.1708  0.0741
  220POPC   C1B 3010   7.852   2.558   5.314 -0.2357  0.0713 -0.0709
  220POPC   C2B 3011   7.460   2.863   5.641 -0.0341  0.1448  0.1412
  220POPC   C3B 3012   7.354   3.230   5.975 -0.0645  0.0820 -0.0207
  220POPC   C4B 3013   7.002   3.410   6.006  0.0941  0.0339 -0.1888
  221POPC   NC3 3014   5.831   8.656   4.554 -0.2158  0.0588  0.1592
  221POPC   PO4 3015   5.736   8.945   4.895 -0.1114 -0.0012 -0.0196
  221POPC   GL1 3016   5.830   9.019   5.281 -0.0824 -0.0034 -0.2333
  221POPC   GL2 3017   5.990   8.724   5.459 -0.0129 -0.0407 -0.2833
  221POPC   C1A 3018   5.900   9.144   5.697 -0.1681 -0.0614  0.1383
  221POPC   D2A 3019   6.061   9.170   6.093 -0.2050 -0.1313 -0.0108
  221POPC   C3A 3020   6.177   9.515   6.269  0.2965 -0.3263  0.1151
  221POPC   C4A 3021   6.363   9.862   6.170 -0.1436  0.0443  0.0595
  221POPC   C1B 3022   5.727   8.378   5.792 -0.1651  0.1358  0.1916
  221POPC   C2B 3023   5.618   8.054   6.046 -0.1005 -0.1333 -0.1801
  221POPC   C3B 3024   5.687   7.796   6.399 -0.1525  0.4432 -0.1883
  221POPC   C4B 3025   5.515   7.573   6.746  0.1720  0.2144  0.1269
  222POPC   NC3 3026   9.111   9.121   3.165 -0.0576  0.1136  0.0522
  222POPC   PO4 3027   9.370   9.086   3.609 -0.0495  0.1087  0.0707
  222POPC   GL1 3028   9.367   9.279   4.102  0.2306  0.0122 -0.0525
  222POPC   GL2 3029   9.180   9.146   4.425 -0.1995  0.0517 -0.2606
  222POPC   C1A 3030   9.404   9.608   4.492  0.0467 -0.1556 -0.0911
  222POPC   D2A 3031   9.335   9.795   4.853  0.1950  0.5175  0.0655
  222POPC   C3A 3032   9.106   9.632   5.169  0.0946 -0.2004  0.0835
  222POPC   C4A 3033   8.845   9.517   5.524 -0.4428  0.3229 -0.0859
  222POPC   C1B 3034   8.933   9.438   4.743 -0.1413  0.1965 -0.2110
  222POPC   C2B 3035   8.874   9.140   5.177  0.0844  0.1273 -0.3136
  222POPC   C3B 3036   8.583   9.060   5.466  0.1359 -0.1259  0.2642
  222POPC   C4B 3037   8.269   8.974   5.833 -0.0609 -0.1583  0.1250
  223POPC   NC3 3038   7.639   8.676   4.508 -0.2568  0.0473  0.4468
  223POPC   PO4 3039   7.826   8.414   4.206  0.0705  0.0107 -0.4167
  223POPC   GL1 3040   8.035   8.383   4.659  0.2656 -0.0654 -0.0008
  223POPC   GL2 3041   8.315   8.365   4.586  0.1870 -0.0417  0.1597
  223POPC   C1A 3042   8.152   8.494   5.107 -0.0626 -0.0290  0.0745
  223POPC   D2A 3043   8.206   8.499   5.561 -0.3338 -0.0279 -0.2411
  223POPC   C3A 3044   7.998   8.201   5.729  0.2039  0.0759  0.1195
  223POPC   C4A 3045   8.193   7.836   5.985  0.2376  0.2255  0.1786
  223POPC   C1B 3046   8.733   8.399   4.765 -0.1845  0.1758  0.1383
  223POPC   C2B 3047   9.023   8.260   5.029 -0.0372  0.1178 -0.2420
  223POPC   C3B 3048   9.139   8.303   5.468 -0.0477 -0.0634 -0.1497
  223POPC   C4B 3049   9.163   8.522   5.831  0.1844 -0.1803 -0.0895
  224POPC   NC3 3050   7.793   7.058   4.008  0.1290 -0.3430  0.0401
  224POPC   PO4 3051   8.182   6.873   4.099 -0.0997 -0.0367  0.0824
  224POPC   GL1 3052   8.130   6.773   4.482  0.0055  0.2253 -0.1547
  224POPC   GL2 3053   7.811   6.719   4.603 -0.0619 -0.2062 -0.5224
  224POPC   C1A 3054   8.128   7.028   4.950 -0.1923 -0.1609  0.1280
  224POPC   D2A 3055   7.951   7.235   5.195  0.0031  0.1380  0.2848
  224POPC   C3A 3056   8.071   7.244   5.634  0.1431  0.0328 -0.0633
  224POPC   C4A 3057   7.919   7.409   6.078  0.3514 -0.1906  0.0492
  224POPC   C1B 3058   7.761   6.679   5.082 -0.0895 -0.0647  0.0525
  224POPC   C2B 3059   7.627   6.921   5.416 -0.0821 -0.1479 -0.1867
  224POPC   C3B 3060   7.478   7.464   5.476 -0.2859  0.1026 -0.1814
  224POPC   C4B 3061   7.540   7.851   5.710 -0.3117 -0.3522  0.3266
  225POPC   NC3 3062   7.812   2.471   4.241 -0.2021  0.1023 -0.0456
  225POPC   PO4 3063   8.112   2.315   4.568 -0.0611 -0.2088  0.1155
  225POPC   GL1 3064   8.296   2.203   4.917 -0.3416  0.1102  0.0729
  225POPC   GL2 3065   8.661   2.159   4.841  0.1628  0.3600 -0.0591
  225POPC   C1A 3066   8.477   1.904   5.235 -0.0024 -0.3665 -0.2364
  225POPC   D2A 3067   8.773   1.969   5.634  0.0471  0.0732 -0.0313
  225POPC   C3A 3068   9.066   1.733   5.900  0.1020 -0.2023  0.1967
  225POPC   C4A 3069   9.370   1.475   6.098  0.0801 -0.3715 -0.0522
  225POPC   C1B 3070   9.000   1.937   5.161  0.0838 -0.1229 -0.2418
  225POPC   C2B 3071   9.297   2.050   5.529  0.0647  0.3630 -0.0056
  225POPC   C3B 3072   9.712   2.178   5.626  0.1469  0.1467 -0.1991
  225POPC   C4B 3073  10.001   2.419   5.886 -0.1638 -0.0441 -0.1649
  226POPC   NC3 3074   5.498   6.338   4.306 -0.1322  0.0620 -0.0122
  226POPC   PO4 3075   5.374   6.208   4.604 -0.1586 -0.2385 -0.1601
  226POPC   GL1 3076   5.411   6.340   5.053 -0.0659  0.1247  0.0823
  226POPC   GL2 3077   5.562   6.603   4.979 -0.0297  0.2003 -0.3304
  226POPC   C1A 3078   5.652   6.167   5.327  0.1768  0.1432 -0.0834
  226POPC   D2A 3079   5.728   6.152   5.849 -0.0828  0.2307  0.1011
  226POPC   C3A 3080   5.997   6.391   5.914  0.0556 -0.1200  0.1587
  226POPC   C4A 3081   6.316   6.490   6.228 -0.0166  0.0450  0.0856
  226POPC   C1B 3082   5.340   6.856   5.361 -0.2645  0.2103 -0.0240
  226POPC   C2B 3083   5.124   6.785   5.751  0.2284 -0.3316 -0.0150
  226POPC   C3B 3084   5.395   6.570   6.101  0.1619 -0.3335 -0.0635
  226POPC   C4B 3085   5.839   6.676   6.243  0.5802 -0.0077 -0.0022
  227POPC   NC3 3086   5.409   6.892   4.568  0.1594  0.0752  0.0898
  227POPC   PO4 3087   5.853   7.081   4.570  0.0109  0.2991  0.0134
  227POPC   GL1 3088   5.665   7.173   4.982 -0.0809 -0.0538 -0.1963
  227POPC   GL2 3089   5.363   7.224   5.004  0.1441 -0.2968  0.1608
  227POPC   C1A 3090   5.747   7.128   5.408 -0.2509 -0.1978  0.1233
  227POPC   D2A 3091   5.793   7.432   5.765  0.0261 -0.6255 -0.0164
  227POPC   C3A 3092   5.489   7.434   5.965 -0.3637  0.1678  0.0771
  227POPC   C4A 3093   5.252   7.612   6.165 -0.3473 -0.3806  0.1806
  227POPC   C1B 3094   5.355   7.407   5.423 -0.1831  0.0017  0.1891
  227POPC   C2B 3095   5.081   7.283   5.741  0.0855  0.0981 -0.0810
  227POPC   C3B 3096   4.779   7.481   6.017 -0.0699  0.3138 -0.0426
  227POPC   C4B 3097   4.813   7.491   6.416 -0.3082 -0.0061 -0.1724
  228POPC   NC3 3098   1.102   5.281   4.233  0.0768 -0.0911  0.0469
  228POPC   PO4 3099   0.751   5.089   4.475 -0.3147 -0.2167 -0.0499
  228POPC   GL1 3100   0.765   5.122   4.926 -0.0621  0.0449  0.1711
  228POPC   GL2 3101   0.721   5.355   5.077 -0.1896  0.2434  0.3609
  228POPC   C1A 3102   0.740   4.990   5.381 -0.1047 -0.1005 -0.0193
  228POPC   D2A 3103   0.607   5.270   5.731 -0.3219 -0.1112 -0.3113
  228POPC   C3A 3104   0.631   5.674   5.905  0.2037  0.1448 -0.1713
  228POPC   C4A 3105   0.949   6.103   6.165 -0.2039  0.1825 -0.0991
  228POPC   C1B 3106   0.884   5.647   5.416 -0.1116  0.0970 -0.1195
  228POPC   C2B 3107   1.197   5.891   5.782 -0.0149 -0.1168 -0.0814
  228POPC   C3B 3108   1.565   5.864   6.068  0.1268  0.1281  0.1983
  228POPC   C4B 3109   1.881   5.955   6.338  0.0125 -0.2785 -0.1162
  229POPC   NC3 3110   1.883   6.663   4.638 -0.1100 -0.2533 -0.2616
  229POPC   PO4 3111   1.418   6.643   4.598 -0.0591 -0.0696  0.1902
  229POPC   GL1 3112   1.163   6.571   4.971 -0.0264 -0.0512  0.0853
  229POPC   GL2 3113   1.164   6.996   4.990  0.1145  0.1497  0.2009
  229POPC   C1A 3114   1.092   6.804   5.421  0.0533  0.2120  0.0381
  229POPC   D2A 3115   1.065   6.812   5.890  0.2618 -0.2326 -0.0066
  229POPC   C3A 3116   0.712   7.031   6.174 -0.1223  0.0847 -0.0932
  229POPC   C4A 3117   0.622   7.435   6.444 -0.1078  0.2620 -0.0327
  229POPC   C1B 3118   0.982   7.302   5.192 -0.1197  0.3806  0.0320
  229POPC   C2B 3119   0.753   7.577   5.498 -0.2854 -0.0198 -0.0233
  229POPC   C3B 3120   0.550   7.913   5.620 -0.1971  0.1278 -0.0332
  229POPC   C4B 3121   0.328   8.341   5.672 -0.0085  0.0159  0.0195
  230POPC   NC3 3122   9.440   0.438   3.473 -0.1925  0.1705  0.0806
  230POPC   PO4 3123   9.099   0.552   3.834 -0.2521 -0.1654  0.1771
  230POPC   GL1 3124   9.208   0.550   4.233 -0.1180 -0.0708  0.5483
  230POPC   GL2 3125   9.439   0.846   4.190  0.0449  0.1755 -0.0382
  230POPC   C1A 3126   9.508   0.410   4.433 -0.0056  0.1129  0.1665
  230POPC   D2A 3127   9.608   0.529   4.900 -0.1436 -0.0218 -0.0308
  230POPC   C3A 3128   9.817   1.007   4.970  0.1827  0.0331 -0.3269
  230POPC   C4A 3129   9.705   1.433   5.183 -0.2245 -0.2858 -0.1438
  230POPC   C1B 3130   9.883   0.808   4.413  0.1408  0.0294  0.0877
  230POPC   C2B 3131  10.077   0.481   4.511  0.3923  0.0466 -0.2473
  230POPC   C3B 3132  10.333   0.193   4.452 -0.1747 -0.3317 -0.0321
  230POPC   C4B 3133  10.719  -0.099   4.463  0.2856 -0.1110 -0.2001
  231POPC   NC3 3134   2.174   4.670   4.618 -0.0476 -0.1359 -0.0317
  231POPC   PO4 3135   2.458   4.792   4.485  0.2913 -0.1515 -0.1966
  231POPC   GL1 3136   2.511   4.858   4.959 -0.1273 -0.0832  0.2110
  231POPC   GL2 3137   2.682   5.043   4.994 -0.4632 -0.1101  0.1648
  231POPC   C1A 3138   2.318   4.597   5.292  0.0329  0.1593  0.1404
  231POPC   D2A 3139   2.086   4.371   5.596  0.2986  0.2303 -0.1716
  231POPC   C3A 3140   2.118   4.306   6.040  0.2236  0.0950  0.2980
  231POPC   C4A 3141   2.218   3.935   6.289  0.0360  0.1029 -0.2685
  231POPC   C1B 3142   2.380   5.147   5.341 -0.3177  0.0366  0.0236
  231POPC   C2B 3143   2.375   5.199   5.812 -0.0599 -0.0544 -0.3203
  231POPC   C3B 3144   2.036   5.376   6.205  0.0586 -0.0916  0.1305
  231POPC   C4B 3145   1.707   5.362   6.319 -0.1717 -0.1139 -0.1955
  232POPC   NC3 3146   8.779   7.487   3.976  0.3249 -0.1109 -0.1201
  232POPC   PO4 3147   8.436   7.796   4.140  0.2612 -0.0830  0.1147
  232POPC   GL1 3148   8.428   7.762   4.572  0.0336  0.1376  0.3134
  232POPC   GL2 3149   8.616   7.931   4.818 -0.0182 -0.1118 -0.0683
  232POPC   C1A 3150   8.126   7.930   4.887  0.0296  0.3235  0.0141
  232POPC   D2A 3151   7.792   8.153   5.043  0.2159 -0.1913 -0.1913
  232POPC   C3A 3152   7.641   8.384   5.461 -0.1761 -0.1689  0.0361
  232POPC   C4A 3153   7.789   8.695   5.691  0.2564 -0.3413 -0.1694
  232POPC   C1B 3154   8.533   8.122   5.231  0.1319 -0.1674  0.0798
  232POPC   C2B 3155   8.563   8.190   5.674 -0.0245  0.2606 -0.1573
  232POPC   C3B 3156   8.446   8.424   6.031 -0.2494 -0.2009 -0.1516
  232POPC   C4B 3157   8.174   8.377   6.307 -0.2039  0.0211  0.0553
  233POPC   NC3 3158   9.349   6.915   3.513  0.2010  0.0189  0.0851
  233POPC   PO4 3159   9.149   6.730   3.956  0.0116 -0.0572 -0.3667
  233POPC   GL1 3160   9.014   6.681   4.445 -0.1206 -0.2099  0.3081
  233POPC   GL2 3161   9.119   6.389   4.612 -0.3117 -0.0099 -0.0429
  233POPC   C1A 3162   9.104   6.882   4.803  0.2673 -0.1856 -0.3814
  233POPC   D2A 3163   8.896   7.021   5.160  0.1871  0.1270 -0.3242
  233POPC   C3A 3164   9.014   7.139   5.574  0.0254  0.1033 -0.5393
  233POPC   C4A 3165   9.103   7.458   5.891  0.1453  0.1230 -0.1353
  233POPC   C1B 3166   9.112   5.966   4.805 -0.0769  0.0579 -0.1124
  233POPC   C2B 3167   9.105   5.785   5.303 -0.1292  0.1143  0.3502
  233POPC   C3B 3168   9.208   5.569   5.648 -0.0334 -0.1704  0.0403
  233POPC   C4B 3169   9.078   5.621   6.077  0.1169  0.1040  0.0358
  234POPC   NC3 3170   4.467   2.808   3.830 -0.0280 -0.1024 -0.3496
  234POPC   PO4 3171   4.052   2.717   4.164 -0.1955  0.2792 -0.0015
  234POPC   GL1 3172   4.272   2.606   4.566  0.0413 -0.2588  0.2858
  234POPC   GL2 3173   3.918   2.568   4.861 -0.0447 -0.0725 -0.2626
  234POPC   C1A 3174   4.530   2.415   4.965  0.0351  0.1111 -0.0209
  234POPC   D2A 3175   4.706   2.507   5.327 -0.0941  0.2504  0.1609
  234POPC   C3A 3176   4.681   2.989   5.571 -0.2561 -0.1104  0.2026
  234POPC   C4A 3177   5.000   3.341   5.610 -0.0002  0.1973  0.2744
  234POPC   C1B 3178   3.857   2.335   5.276 -0.4489  0.1071  0.3231
  234POPC   C2B 3179   3.714   2.057   5.613 -0.0135 -0.0161  0.2517
  234POPC   C3B 3180   3.720   2.087   6.037 -0.0831  0.0438  0.2225
  234POPC   C4B 3181   3.989   2.166   6.347 -0.1738 -0.0858 -0.2508
  235POPC   NC3 3182   5.417   3.289   4.233 -0.1092 -0.1281  0.0868
  235POPC   PO4 3183   5.208   3.367   4.540 -0.2198 -0.1683 -0.0221
  235POPC   GL1 3184   5.146   3.275   4.936 -0.1160  0.0118 -0.0358
  235POPC   GL2 3185   4.934   3.538   5.012  0.0389 -0.2615 -0.0533
  235POPC   C1A 3186   4.987   3.039   5.144 -0.1423 -0.3055  0.0420
  235POPC   D2A 3187   5.207   2.778   5.472 -0.1614 -0.3207 -0.0591
  235POPC   C3A 3188   5.001   2.665   5.922  0.1496  0.1284  0.1969
  235POPC   C4A 3189   4.971   2.516   6.337 -0.3797  0.2347 -0.0729
  235POPC   C1B 3190   4.639   3.457   5.339  0.4343 -0.2573 -0.2055
  235POPC   C2B 3191   4.483   3.436   5.761  0.0485 -0.1627 -0.1860
  235POPC   C3B 3192   4.575   3.545   6.107  0.0967 -0.0401  0.0896
  235POPC   C4B 3193   4.695   3.950   6.246 -0.3659 -0.0576  0.4560
  236POPC   NC3 3194   3.929   9.137   4.333  0.0488  0.0805 -0.1508
  236POPC   PO4 3195   4.063   8.659   4.367 -0.2362  0.1298  0.0981
  236POPC   GL1 3196   3.966   8.832   4.775 -0.0405 -0.1299  0.1184
  236POPC   GL2 3197   4.084   9.037   5.092  0.2596  0.1570 -0.0214
  236POPC   C1A 3198   3.642   9.216   4.994 -0.0597 -0.0492  0.1077
  236POPC   D2A 3199   3.475   9.444   5.322  0.1471 -0.1786 -0.0079
  236POPC   C3A 3200   3.314   9.296   5.847  0.1404 -0.0272  0.3601
  236POPC   C4A 3201   3.549   9.067   6.212  0.3319  0.0370  0.1875
  236POPC   C1B 3202   3.996   9.142   5.560  0.0626 -0.0027  0.1317
  236POPC   C2B 3203   4.247   9.339   5.862 -0.0130  0.0418 -0.1033
  236POPC   C3B 3204   4.170   9.471   6.333  0.3462  0.2155  0.1971
  236POPC   C4B 3205   4.109   9.469   6.761  0.1904  0.1376 -0.2044
  237POPC   NC3 3206   1.908   5.600   4.572  0.2269  0.0727  0.1221
  237POPC   PO4 3207   1.551   5.334   4.659 -0.2807  0.0386 -0.1715
  237POPC   GL1 3208   1.488   5.395   5.066  0.2855  0.0091  0.0448
  237POPC   GL2 3209   1.186   5.209   5.247 -0.1599 -0.1166 -0.1134
  237POPC   C1A 3210   1.433   5.823   5.390 -0.1500  0.0260  0.2447
  237POPC   D2A 3211   1.416   6.331   5.481  0.1187 -0.1251 -0.0685
  237POPC   C3A 3212   1.788   6.447   5.385  0.2974  0.3318 -0.2303
  237POPC   C4A 3213   2.209   6.501   5.563  0.0235 -0.0609  0.2534
  237POPC   C1B 3214   1.314   4.949   5.631 -0.0329 -0.2629 -0.2111
  237POPC   C2B 3215   1.124   4.696   5.836  0.0964 -0.1026 -0.0258
  237POPC   C3B 3216   0.688   4.723   5.920 -0.1488 -0.0166  0.3936
  237POPC   C4B 3217   0.345   4.537   5.716 -0.0940  0.1780  0.1149
  238POPC   NC3 3218   4.718   9.424   4.510  0.4186  0.0325 -0.1115
  238POPC   PO4 3219   4.976   9.627   4.801 -0.0334  0.1596  0.0617
  238POPC   GL1 3220   5.261   9.730   5.130 -0.0577  0.0603 -0.0247
  238POPC   GL2 3221   4.994   9.752   5.424  0.1767 -0.2611 -0.0197
  238POPC   C1A 3222   5.358   9.427   5.493 -0.1532 -0.0461 -0.2305
  238POPC   D2A 3223   5.543   9.516   5.961 -0.0173 -0.0440 -0.0590
  238POPC   C3A 3224   5.674   9.990   6.121  0.3666 -0.1033  0.0353
  238POPC   C4A 3225   5.999  10.218   6.171 -0.0391 -0.2573 -0.5002
  238POPC   C1B 3226   4.806   9.507   5.670  0.1369 -0.2322 -0.0731
  238POPC   C2B 3227   5.059   9.304   6.015 -0.3721  0.0160  0.1531
  238POPC   C3B 3228   5.393   9.297   6.389  0.1790 -0.0687 -0.1910
  238POPC   C4B 3229   5.315   9.441   6.712  0.3914 -0.0932 -0.0251
  239POPC   NC3 3230   5.405   4.875   4.589  0.0804  0.2519  0.2787
  239POPC   PO4 3231   5.626   4.462   4.523 -0.3158 -0.0448 -0.1069
  239POPC   GL1 3232   5.467   4.377   4.882  0.2939 -0.0177  0.1401
  239POPC   GL2 3233   5.698   4.364   4.985 -0.0843  0.1261 -0.2380
  239POPC   C1A 3234   5.317   3.995   5.134  0.1688 -0.4088  0.2059
  239POPC   D2A 3235   5.293   3.690   5.550  0.0316 -0.0155  0.3577
  239POPC   C3A 3236   5.563   3.732   5.759 -0.0949 -0.1025  0.1490
  239POPC   C4A 3237   5.677   3.793   6.156 -0.0569  0.0078  0.0362
  239POPC   C1B 3238   5.576   4.715   5.261  0.0185  0.0783 -0.0148
  239POPC   C2B 3239   5.359   4.805   5.539  0.0118 -0.2834 -0.2853
  239POPC   C3B 3240   5.402   4.744   5.861 -0.0581 -0.0425  0.0920
  239POPC   C4B 3241   5.253   4.737   6.339  0.1505 -0.2911 -0.0913
  240POPC   NC3 3242   5.649   7.847   4.264  0.0330 -0.1320  0.1394
  240POPC   PO4 3243   5.218   7.887   4.525 -0.0731 -0.1862 -0.0372
  240POPC   GL1 3244   5.417   7.704   4.944  0.1767  0.2431  0.2592
  240POPC   GL2 3245   5.586   8.037   5.126 -0.0420 -0.2552  0.1709
  240POPC   C1A 3246   5.809   7.623   5.233 -0.3886 -0.0224 -0.2234
  240POPC   D2A 3247   6.224   7.395   5.297  0.2417 -0.1938 -0.4030
  240POPC   C3A 3248   6.297   7.334   5.756 -0.0522 -0.0351 -0.0400
  240POPC   C4A 3249   6.116   7.578   6.102  0.1494 -0.0016  0.1838
  240POPC   C1B 3250   5.168   8.000   5.361 -0.1277 -0.3901 -0.2619
  240POPC   C2B 3251   5.022   7.888   5.748 -0.3988  0.0754 -0.0183
  240POPC   C3B 3252   4.803   7.947   6.156  0.1072  0.1043 -0.0219
  240POPC   C4B 3253   4.776   8.230   6.448 -0.2186  0.1554 -0.0791
  241POPC   NC3 3254   2.293   7.825   4.293  0.0406 -0.1718 -0.4232
  241POPC   PO4 3255   2.288   7.525   4.720 -0.4570 -0.0146 -0.0392
  241POPC   GL1 3256   2.039   7.447   5.018  0.0661 -0.1142  0.0668
  241POPC   GL2 3257   1.753   7.299   4.926 -0.0423 -0.0372 -0.2794
  241POPC   C1A 3258   2.172   7.426   5.421  0.0986  0.1147 -0.2338
  241POPC   D2A 3259   2.388   7.506   5.812 -0.0621  0.2843  0.0462
  241POPC   C3A 3260   2.100   7.874   6.121 -0.3916  0.2382  0.2008
  241POPC   C4A 3261   2.292   8.198   6.405 -0.1556  0.3274 -0.1292
  241POPC   C1B 3262   1.526   7.250   5.307  0.1164 -0.1805  0.0135
  241POPC   C2B 3263   1.373   7.235   5.645 -0.2294 -0.1813  0.1281
  241POPC   C3B 3264   1.481   7.244   6.039  0.1008  0.4946 -0.4286
  241POPC   C4B 3265   1.103   7.364   6.364 -0.5043  0.1435  0.2011
  242POPC   NC3 3266   4.512   0.231   4.260  0.2066 -0.2933  0.1736
  242POPC   PO4 3267   4.250  -0.152   4.509  0.0620  0.1079 -0.0031
  242POPC   GL1 3268   3.987  -0.137   4.808  0.0928  0.1579  0.1267
  242POPC   GL2 3269   3.856   0.082   4.821  0.1656  0.4783  0.1802
  242POPC   C1A 3270   4.053  -0.100   5.230  0.1359 -0.0401  0.0344
  242POPC   D2A 3271   3.939   0.038   5.670 -0.1312  0.2889 -0.2069
  242POPC   C3A 3272   3.723  -0.131   6.118 -0.0221 -0.1861  0.2947
  242POPC   C4A 3273   3.496  -0.212   6.549  0.0956 -0.0832  0.2496
  242POPC   C1B 3274   4.052   0.385   5.127  0.0516 -0.2586  0.0080
  242POPC   C2B 3275   4.013   0.560   5.556 -0.1139  0.2869 -0.0065
  242POPC   C3B 3276   3.997   0.463   5.962 -0.2081  0.0201  0.0739
  242POPC   C4B 3277   4.032   0.438   6.353 -0.2123  0.1322  0.1365
  243POPC   NC3 3278   8.537   6.550   4.286  0.0087 -0.0056  0.2859
  243POPC   PO4 3279   8.467   6.109   4.398 -0.0570 -0.2093 -0.2156
  243POPC   GL1 3280   8.638   6.314   4.802 -0.1521 -0.0097  0.0790
  243POPC   GL2 3281   8.602   6.678   4.781  0.0333 -0.0070  0.0158
  243POPC   C1A 3282   8.763   6.229   5.272  0.0793  0.0936 -0.1003
  243POPC   D2A 3283   8.993   6.604   5.540 -0.0374 -0.0807  0.1025
  243POPC   C3A 3284   9.100   6.638   5.929  0.1054  0.1348 -0.1795
  243POPC   C4A 3285   9.057   6.549   6.341  0.4778  0.0904  0.1485
  243POPC   C1B 3286   8.480   6.692   5.221 -0.2500  0.0960 -0.2580
  243POPC   C2B 3287   8.143   6.711   5.444  0.3905 -0.1516  0.0348
  243POPC   C3B 3288   7.963   6.705   5.819 -0.0950 -0.0953 -0.0908
  243POPC   C4B 3289   7.638   6.625   6.199  0.2956 -0.0502 -0.1584
  244POPC   NC3 3290   8.432   5.596   4.397  0.0088  0.1164 -0.0138
  244POPC   PO4 3291   8.449   5.173   4.626 -0.0546 -0.0691  0.0892
  244POPC   GL1 3292   8.405   5.013   4.970  0.2916  0.1287  0.2133
  244POPC   GL2 3293   8.062   5.027   5.007 -0.0963  0.1510 -0.2783
  244POPC   C1A 3294   8.513   4.827   5.320  0.3889  0.0922  0.1742
  244POPC   D2A 3295   8.556   4.567   5.759  0.3161  0.0159 -0.0259
  244POPC   C3A 3296   8.934   4.591   6.003 -0.1116  0.0719  0.2213
  244POPC   C4A 3297   9.186   4.715   6.226 -0.2162  0.2224 -0.0380
  244POPC   C1B 3298   8.251   5.249   5.399  0.0543  0.2447  0.2596
  244POPC   C2B 3299   8.282   5.438   5.744 -0.0107 -0.0351  0.1813
  244POPC   C3B 3300   8.431   5.725   5.987  0.2871 -0.0927 -0.2023
  244POPC   C4B 3301   8.497   5.964   6.165 -0.0280 -0.0416 -0.3066
  245POPC   NC3 3302   1.278   8.213   4.238  0.3069 -0.0467 -0.3231
  245POPC   PO4 3303   1.466   8.617   4.155  0.1973  0.0772  0.0297
  245POPC   GL1 3304   1.152   8.713   4.531  0.0642 -0.2532  0.1603
  245POPC   GL2 3305   0.819   8.776   4.372  0.1419 -0.2049 -0.0406
  245POPC   C1A 3306   1.280   8.502   4.933  0.1960 -0.0808 -0.1530
  245POPC   D2A 3307   1.492   8.232   5.178  0.2642 -0.1435  0.0665
  245POPC   C3A 3308   1.377   8.257   5.498  0.1133  0.1086  0.1717
  245POPC   C4A 3309   1.371   8.443   5.864  0.1256  0.1123  0.1027
  245POPC   C1B 3310   0.894   9.035   4.762  0.1000 -0.3002  0.1205
  245POPC   C2B 3311   0.951   9.281   5.110  0.1189 -0.3814 -0.1816
  245POPC   C3B 3312   1.308   9.335   5.422 -0.2665 -0.3565  0.2055
  245POPC   C4B 3313   1.688   9.429   5.366  0.0521  0.0296  0.1149
  246POPC   NC3 3314   1.078   9.541   3.410 -0.2443 -0.1449 -0.0221
  246POPC   PO4 3315   0.894   9.192   3.291  0.1726  0.0912  0.1734
  246POPC   GL1 3316   0.857   9.215   3.742  0.1239 -0.2061 -0.2830
  246POPC   GL2 3317   0.732   9.526   3.774  0.0879  0.0103  0.2287
  246POPC   C1A 3318   0.756   9.249   4.222 -0.0525  0.2039  0.1413
  246POPC   D2A 3319   0.503   9.367   4.546  0.1824 -0.1806  0.2029
  246POPC   C3A 3320   0.593   9.615   4.963  0.3248  0.3166 -0.0524
  246POPC   C4A 3321   0.864  10.012   4.882  0.0513 -0.0147 -0.2136
  246POPC   C1B 3322   0.386   9.493   4.080  0.1000  0.0157 -0.2385
  246POPC   C2B 3323   0.150   9.768   4.286 -0.1420 -0.0047  0.1598
  246POPC   C3B 3324   0.160   9.741   4.658 -0.0709  0.2885 -0.3971
  246POPC   C4B 3325   0.134   9.567   5.099 -0.1683  0.0368  0.2364
  247POPC   NC3 3326   1.677   3.515   4.167  0.2332 -0.0618 -0.0628
  247POPC   PO4 3327   1.286   3.706   4.327 -0.0977 -0.1095  0.0098
  247POPC   GL1 3328   1.411   3.511   4.637 -0.1637 -0.0600  0.0478
  247POPC   GL2 3329   1.430   3.107   4.564  0.1462 -0.0385  0.0813
  247POPC   C1A 3330   1.417   3.369   5.075 -0.1105  0.0621  0.0110
  247POPC   D2A 3331   1.255   2.984   5.315  0.2817 -0.0743  0.0640
  247POPC   C3A 3332   0.865   2.853   5.099  0.3447 -0.2673 -0.2045
  247POPC   C4A 3333   0.572   2.969   4.807  0.1020 -0.1477  0.0250
  247POPC   C1B 3334   1.846   3.147   4.727  0.1494  0.0146  0.2091
  247POPC   C2B 3335   2.166   3.156   4.998 -0.0108  0.1708  0.0545
  247POPC   C3B 3336   2.383   3.479   5.109  0.0249 -0.4748 -0.0679
  247POPC   C4B 3337   2.649   3.689   5.447  0.1902 -0.1981  0.1621
  248POPC   NC3 3338   0.993   7.835   4.267 -0.4758 -0.1142 -0.1500
  248POPC   PO4 3339   1.396   7.808   4.514  0.0145 -0.1047  0.0100
  248POPC   GL1 3340   1.399   7.590   4.828  0.3563  0.0210  0.1979
  248POPC   GL2 3341   1.649   7.825   4.969  0.1660 -0.1196 -0.4301
  248POPC   C1A 3342   1.206   7.816   5.196  0.0578 -0.1377 -0.1462
  248POPC   D2A 3343   1.159   7.815   5.628 -0.0490  0.0210 -0.0555
  248POPC   C3A 3344   1.359   7.935   6.039  0.1445 -0.1055 -0.0326
  248POPC   C4A 3345   1.380   7.800   6.290 -0.1691 -0.0346 -0.0204
  248POPC   C1B 3346   1.719   7.678   5.329 -0.0814 -0.1299  0.0841
  248POPC   C2B 3347   1.719   7.608   5.806  0.0338  0.1945  0.2123
  248POPC   C3B 3348   1.852   7.485   6.290 -0.0006  0.2318 -0.3660
  248POPC   C4B 3349   2.181   7.401   6.467  0.3531 -0.0417 -0.0880
  249POPC   NC3 3350   8.227   0.359   3.785  0.0873 -0.3297  0.2962
  249POPC   PO4 3351   8.243   0.706   4.032  0.0612  0.1196  0.2885
  249POPC   GL1 3352   8.439   0.827   4.327  0.0576 -0.1972  0.2458
  249POPC   GL2 3353   8.492   0.645   4.599  0.2593  0.0445 -0.2697
  249POPC   C1A 3354   8.869   0.966   4.399 -0.3259  0.0894 -0.1338
  249POPC   D2A 3355   9.082   1.350   4.582  0.3705 -0.1294  0.1053
  249POPC   C3A 3356   9.428   1.541   4.777 -0.4434 -0.0642  0.3236
  249POPC   C4A 3357   9.900   1.488   4.697  0.0348  0.2244 -0.0162
  249POPC   C1B 3358   8.284   0.924   4.776 -0.0386  0.0520  0.5899
  249POPC   C2B 3359   8.331   1.096   5.259  0.2532 -0.0495 -0.0170
  249POPC   C3B 3360   8.403   1.154   5.677 -0.1028 -0.4706 -0.1545
  249POPC   C4B 3361   8.331   1.075   6.096  0.0157  0.0827  0.0146
  250POPC   NC3 3362   7.740   1.411   4.262  0.0593  0.0310 -0.1385
  250POPC   PO4 3363   7.528   1.701   4.384  0.2145  0.2650 -0.0359
  250POPC   GL1 3364   7.329   1.603   4.902 -0.3068  0.1971  0.0335
  250POPC   GL2 3365   7.326   1.862   4.973 -0.1381 -0.0151 -0.0174
  250POPC   C1A 3366   7.301   1.261   5.066 -0.1133  0.2538 -0.2348
  250POPC   D2A 3367   7.327   0.971   5.446 -0.2486  0.1629  0.1798
  250POPC   C3A 3368   7.248   1.112   5.812 -0.1924  0.2003 -0.0751
  250POPC   C4A 3369   7.159   1.022   6.284 -0.0634  0.0630  0.2767
  250POPC   C1B 3370   7.302   1.971   5.395  0.1037 -0.1363 -0.0869
  250POPC   C2B 3371   7.084   2.105   5.784  0.1143 -0.1058 -0.0954
  250POPC   C3B 3372   6.974   1.979   6.207  0.1855 -0.0442  0.0332
  250POPC   C4B 3373   7.220   1.952   6.551  0.0484 -0.0164 -0.3317
  251POPC   NC3 3374   1.051   3.945   4.662  0.2546 -0.0572  0.1914
  251POPC   PO4 3375   0.601   3.749   4.660 -0.0422  0.0237  0.2249
  251POPC   GL1 3376   0.400   3.659   5.031 -0.0339 -0.1988  0.2159
  251POPC   GL2 3377   0.159   3.929   5.054 -0.0837  0.0580  0.2741
  251POPC   C1A 3378   0.439   3.242   5.258 -0.2392 -0.0564 -0.1709
  251POPC   D2A 3379   0.361   2.904   5.309 -0.1740  0.0484 -0.2636
  251POPC   C3A 3380   0.005   2.544   5.245  0.1395  0.1169 -0.0478
  251POPC   C4A 3381  -0.286   2.340   5.138  0.2623  0.2233 -0.0767
  251POPC   C1B 3382   0.025   3.687   5.384 -0.1243 -0.0743 -0.0478
  251POPC   C2B 3383  -0.074   3.279   5.674 -0.1445 -0.3705 -0.1835
  251POPC   C3B 3384  -0.422   3.088   5.753  0.3384  0.1625  0.4237
  251POPC   C4B 3385  -0.971   2.992   5.807  0.1264  0.3024  0.1951
  252POPC   NC3 3386   3.249   4.262   4.385  0.0746 -0.0796  0.0690
  252POPC   PO4 3387   3.074   3.928   4.282  0.1610  0.3606  0.2995
  252POPC   GL1 3388   3.398   3.871   4.618 -0.2143 -0.0064 -0.3671
  252POPC   GL2 3389   3.405   3.559   4.860 -0.1662 -0.1037  0.0615
  252POPC   C1A 3390   3.431   3.967   5.146 -0.2469  0.2011  0.4610
  252POPC   D2A 3391   3.331   3.879   5.512 -0.1121  0.2132  0.1314
  252POPC   C3A 3392   3.373   4.054   5.924 -0.0120  0.0014 -0.2733
  252POPC   C4A 3393   3.596   4.320   6.139 -0.2113  0.0275  0.2901
  252POPC   C1B 3394   3.530   3.476   5.241  0.1721 -0.0845 -0.0457
  252POPC   C2B 3395   3.596   3.336   5.636  0.0223  0.0812  0.3610
  252POPC   C3B 3396   3.432   3.490   5.990  0.0117 -0.0051 -0.1873
  252POPC   C4B 3397   3.281   3.711   6.282 -0.1666 -0.1489  0.0107
  253POPC   NC3 3398   9.678   1.735   3.442 -0.1200  0.0420 -0.4000
  253POPC   PO4 3399   9.747   1.632   3.848 -0.0118 -0.1950  0.2182
  253POPC   GL1 3400   9.811   1.409   4.184  0.0183  0.1370  0.0082
  253POPC   GL2 3401   9.626   1.243   4.415  0.1072  0.2270  0.0024
  253POPC   C1A 3402  10.141   1.186   4.365 -0.3740  0.0464 -0.1933
  253POPC   D2A 3403  10.298   1.133   4.762  0.2120 -0.3743  0.1740
  253POPC   C3A 3404  10.347   0.754   4.950  0.2494  0.2679  0.1465
  253POPC   C4A 3405  10.033   0.381   5.198  0.0807 -0.1849 -0.0669
  253POPC   C1B 3406   9.430   1.012   4.649 -0.2092  0.1449  0.1866
  253POPC   C2B 3407   9.154   0.802   4.767 -0.1327 -0.1840 -0.1770
  253POPC   C3B 3408   8.936   0.379   4.626 -0.1540 -0.1442  0.0949
  253POPC   C4B 3409   8.570   0.211   4.795 -0.0695 -0.3197  0.0951
  254POPC   NC3 3410   2.643   4.924   4.054  0.3311  0.1117  0.0536
  254POPC   PO4 3411   2.962   4.721   4.307 -0.0613  0.0382 -0.0264
  254POPC   GL1 3412   2.996   4.612   4.776  0.2639  0.1063  0.0986
  254POPC   GL2 3413   3.257   4.366   4.943  0.1644 -0.2174  0.1579
  254POPC   C1A 3414   2.868   4.609   5.251  0.2812 -0.0562 -0.0498
  254POPC   D2A 3415   2.647   4.813   5.656  0.1471 -0.1154  0.1673
  254POPC   C3A 3416   2.344   4.674   5.805 -0.1051 -0.1522 -0.2110
  254POPC   C4A 3417   2.115   4.819   6.122  0.2082 -0.4110 -0.3356
  254POPC   C1B 3418   3.479   4.435   5.308 -0.1839  0.0881  0.0020
  254POPC   C2B 3419   3.633   4.415   5.670  0.2479 -0.1655 -0.3146
  254POPC   C3B 3420   4.007   4.463   5.902  0.2934  0.1599 -0.0074
  254POPC   C4B 3421   3.970   4.645   6.229  0.2872  0.3442  0.1581
  255POPC   NC3 3422   0.817   4.566   4.350  0.1587 -0.1057 -0.0509
  255POPC   PO4 3423   0.476   4.745   4.709 -0.0578 -0.2370  0.0124
  255POPC   GL1 3424   0.566   4.617   5.077 -0.0233  0.4598  0.0242
  255POPC   GL2 3425   0.339   4.678   5.275 -0.1007  0.3554 -0.3047
  255POPC   C1A 3426   0.740   4.451   5.470 -0.2687  0.2907 -0.0158
  255POPC   D2A 3427   0.715   4.210   5.814 -0.1199  0.0289 -0.1481
  255POPC   C3A 3428   0.721   4.311   6.140 -0.1026 -0.1074  0.0023
  255POPC   C4A 3429   1.155   4.287   6.430  0.0309  0.2821  0.1252
  255POPC   C1B 3430   0.351   4.207   5.390  0.2143  0.1642  0.1591
  255POPC   C2B 3431   0.509   3.767   5.528 -0.2220 -0.0375  0.0411
  255POPC   C3B 3432   0.426   3.396   5.703  0.1834  0.0799  0.3579
  255POPC   C4B 3433   0.250   3.441   6.054 -0.0634  0.2223 -0.2075
  256POPC   NC3 3434   7.070   1.911   4.528  0.0952 -0.1711  0.0565
  256POPC   PO4 3435   7.074   2.285   4.693 -0.0033 -0.2123 -0.0068
  256POPC   GL1 3436   6.943   2.349   5.065  0.1626 -0.2058 -0.0892
  256POPC   GL2 3437   6.812   1.939   4.972  0.0046 -0.4578  0.2283
  256POPC   C1A 3438   6.763   2.138   5.393 -0.1569 -0.5453 -0.1425
  256POPC   D2A 3439   6.569   1.914   5.693  0.0538  0.2542  0.2337
  256POPC   C3A 3440   6.436   2.031   6.068  0.2159 -0.0932  0.0584
  256POPC   C4A 3441   6.562   1.952   6.455  0.0847  0.2205 -0.2200
  256POPC   C1B 3442   6.565   1.693   5.274  0.1889  0.1651  0.0483
  256POPC   C2B 3443   6.512   1.343   5.599 -0.2443  0.0585  0.2755
  256POPC   C3B 3444   6.646   1.032   6.014 -0.2708  0.0193 -0.0355
  256POPC   C4B 3445   6.472   0.781   6.223  0.4055 -0.2069  0.2951
  257POPC   NC3 3446   3.040   0.983   3.785 -0.1328 -0.1285 -0.0387
  257POPC   PO4 3447   3.347   0.984   4.115 -0.2781  0.2150 -0.1230
  257POPC   GL1 3448   3.438   1.018   4.615 -0.2624  0.4077  0.2043
  257POPC   GL2 3449   3.143   0.897   4.576 -0.1725 -0.1320  0.0603
  257POPC   C1A 3450   3.267   1.022   5.020 -0.3753  0.3582 -0.1104
  257POPC   D2A 3451   2.994   0.997   5.358  0.2840 -0.4477 -0.1251
  257POPC   C3A 3452   3.219   1.022   5.843 -0.0331 -0.2451 -0.4037
  257POPC   C4A 3453   3.570   1.090   6.093 -0.0728 -0.1639  0.0910
  257POPC   C1B 3454   3.033   0.550   4.899  0.1827  0.0634  0.0198
  257POPC   C2B 3455   2.700   0.459   5.231  0.2081  0.0916 -0.2159
  257POPC   C3B 3456   2.515   0.699   5.497 -0.1382 -0.0926 -0.0265
  257POPC   C4B 3457   2.721   0.773   5.893  0.0015  0.1036 -0.1012
  258POPC   NC3 3458   5.313   8.710   4.672 -0.0122 -0.0542 -0.0427
  258POPC   PO4 3459   5.332   8.331   4.710 -0.1670  0.2912 -0.1612
  258POPC   GL1 3460   5.210   8.492   5.152  0.0745 -0.1095  0.1075
  258POPC   GL2 3461   5.394   8.457   5.374 -0.0499 -0.0119  0.0080
  258POPC   C1A 3462   4.958   8.674   5.477 -0.0323  0.0564  0.2044
  258POPC   D2A 3463   5.057   9.026   5.637  0.0851  0.0540  0.2558
  258POPC   C3A 3464   5.455   8.995   5.845  0.2541 -0.1054 -0.2709
  258POPC   C4A 3465   5.611   8.835   6.171  0.1325  0.0072 -0.1094
  258POPC   C1B 3466   5.185   8.355   5.810 -0.1058 -0.0382 -0.0396
  258POPC   C2B 3467   5.258   8.357   6.214  0.1824 -0.1281 -0.0395
  258POPC   C3B 3468   5.501   8.304   6.468 -0.0492 -0.0101 -0.1200
  258POPC   C4B 3469   5.870   8.184   6.707 -0.1597  0.1442  0.0699
  259POPC   NC3 3470   8.948   7.952   4.217  0.1409  0.4471  0.1728
  259POPC   PO4 3471   9.253   7.607   4.126  0.0585 -0.5085  0.0517
  259POPC   GL1 3472   9.330   7.634   4.496  0.0650  0.0683  0.2740
  259POPC   GL2 3473   9.087   7.848   4.787 -0.1924  0.1229 -0.0225
  259POPC   C1A 3474   9.262   7.327   4.916 -0.1812 -0.2503  0.0609
  259POPC   D2A 3475   9.362   7.331   5.328  0.0330 -0.0179 -0.0631
  259POPC   C3A 3476   9.273   7.762   5.515  0.0335  0.0801  0.1283
  259POPC   C4A 3477   9.180   8.017   5.883 -0.2992  0.2453 -0.1846
  259POPC   C1B 3478   8.908   7.679   5.161 -0.1783  0.0345 -0.1791
  259POPC   C2B 3479   8.814   7.610   5.540 -0.1277  0.0320  0.3627
  259POPC   C3B 3480   8.764   7.770   6.027  0.0110 -0.0967  0.1793
  259POPC   C4B 3481   8.565   7.876   6.257  0.0957 -0.1717  0.0228
  260POPC   NC3 3482   3.288   7.650   4.581  0.5291 -0.2518 -0.0494
  260POPC   PO4 3483   3.664   7.328   4.472  0.2125 -0.2826 -0.0615
  260POPC   GL1 3484   3.384   7.117   4.640  0.1275 -0.2575 -0.1899
  260POPC   GL2 3485   3.025   7.023   4.799 -0.1053  0.0967  0.1901
  260POPC   C1A 3486   3.425   6.751   4.978 -0.0548  0.2058  0.1473
  260POPC   D2A 3487   3.725   6.630   5.266  0.1389  0.1266 -0.2640
  260POPC   C3A 3488   4.179   6.861   5.263 -0.0424 -0.2046  0.0178
  260POPC   C4A 3489   4.515   6.743   5.038  0.0357  0.2453  0.1051
  260POPC   C1B 3490   3.112   7.311   5.157  0.2652  0.0339 -0.0659
  260POPC   C2B 3491   3.205   7.457   5.476 -0.3464  0.0932  0.3413
  260POPC   C3B 3492   3.620   7.349   5.722 -0.1917  0.1491 -0.0216
  260POPC   C4B 3493   3.872   7.030   5.633 -0.4275  0.1049  0.1971
  261POPC   NC3 3494   2.435   3.904   4.641 -0.1846  0.1313  0.1926
  261POPC   PO4 3495   2.045   4.216   4.591 -0.0512  0.1305  0.2006
  261POPC   GL1 3496   2.051   4.104   4.940  0.3258  0.1474  0.1098
  261POPC   GL2 3497   1.892   4.247   5.103  0.0291 -0.1580 -0.0234
  261POPC   C1A 3498   2.223   3.934   5.311 -0.1211  0.0626 -0.0732
  261POPC   D2A 3499   2.240   3.866   5.704 -0.2336  0.1360  0.1321
  261POPC   C3A 3500   2.403   3.626   5.897  0.0076  0.0231  0.0117
  261POPC   C4A 3501   2.420   3.459   6.311  0.3478 -0.0321  0.2737
  261POPC   C1B 3502   1.774   4.059   5.421  0.1456  0.2975  0.2835
  261POPC   C2B 3503   1.768   4.010   5.859  0.5262 -0.2616  0.0054
  261POPC   C3B 3504   1.749   4.001   6.209  0.3052 -0.3498 -0.0806
  261POPC   C4B 3505   1.521   4.258   6.727  0.0643  0.2234  0.1656
  262POPC   NC3 3506   0.470   7.353   3.798  0.0273  0.0447 -0.0918
  262POPC   PO4 3507   0.460   7.313   4.321 -0.0019 -0.1064  0.1282
  262POPC   GL1 3508   0.495   7.122   4.682 -0.1673  0.0201  0.0706
  262POPC   GL2 3509   0.516   7.267   4.922 -0.0750  0.0748 -0.0577
  262POPC   C1A 3510   0.692   6.871   5.120  0.2266  0.0503 -0.2746
  262POPC   D2A 3511   0.698   7.100   5.633  0.0978 -0.0395 -0.1668
  262POPC   C3A 3512   0.977   7.349   5.925  0.1201 -0.1106  0.0386
  262POPC   C4A 3513   0.894   7.704   6.030  0.2559  0.0239  0.0318
  262POPC   C1B 3514   0.391   7.263   5.238 -0.1466 -0.5392 -0.2123
  262POPC   C2B 3515   0.166   7.313   5.463  0.2329  0.0225  0.2461
  262POPC   C3B 3516  -0.096   7.501   5.745 -0.0948 -0.0872 -0.2621
  262POPC   C4B 3517  -0.088   7.426   6.212  0.0197  0.0525 -0.0729
  263POPC   NC3 3518   4.534   7.412   4.342 -0.1410 -0.1500  0.1998
  263POPC   PO4 3519   4.508   7.411   4.754 -0.0753 -0.1831  0.0984
  263POPC   GL1 3520   4.522   7.421   5.238 -0.2423 -0.0237  0.0429
  263POPC   GL2 3521   4.795   7.605   5.293 -0.1396  0.0123 -0.0756
  263POPC   C1A 3522   4.403   7.315   5.595  0.2259 -0.4104  0.0286
  263POPC   D2A 3523   4.252   7.276   5.930  0.2066 -0.0493  0.1845
  263POPC   C3A 3524   3.817   7.128   6.194  0.1812 -0.1264  0.0162
  263POPC   C4A 3525   3.629   7.312   6.544  0.1539 -0.1614 -0.2037
  263POPC   C1B 3526   4.525   7.801   5.679  0.1020 -0.2026  0.1510
  263POPC   C2B 3527   4.363   7.706   6.093  0.1551  0.4504  0.1120
  263POPC   C3B 3528   4.419   7.884   6.475 -0.1604 -0.0111  0.0957
  263POPC   C4B 3529   4.528   7.937   6.842  0.0366  0.0086 -0.1586
  264POPC   NC3 3530   8.211   1.206   4.069  0.0026  0.1055 -0.4663
  264POPC   PO4 3531   7.842   1.017   3.953 -0.0426  0.0117 -0.2770
  264POPC   GL1 3532   7.902   0.901   4.446 -0.1202  0.2409 -0.2195
  264POPC   GL2 3533   7.924   0.604   4.459 -0.2075  0.0294 -0.1107
  264POPC   C1A 3534   7.738   0.899   4.861  0.1637  0.2799 -0.3388
  264POPC   D2A 3535   7.774   1.121   5.262 -0.1704 -0.0422 -0.4308
  264POPC   C3A 3536   7.831   1.187   5.722 -0.0946 -0.2860  0.0556
  264POPC   C4A 3537   7.701   1.116   6.189 -0.0451 -0.0896 -0.0815
  264POPC   C1B 3538   8.094   0.480   4.913 -0.6028  0.1063 -0.3093
  264POPC   C2B 3539   8.081   0.647   5.315  0.1858  0.1738 -0.1241
  264POPC   C3B 3540   8.227   0.592   5.692 -0.0361  0.0042  0.0935
  264POPC   C4B 3541   8.297   0.437   6.112 -0.0594 -0.0857  0.1151
  265POPC   NC3 3542   6.605   4.346   3.873 -0.2144 -0.2017  0.2750
  265POPC   PO4 3543   6.340   4.009   4.001  0.0846  0.1580 -0.4565
  265POPC   GL1 3544   6.102   3.942   4.393  0.3430 -0.0300  0.0413
  265POPC   GL2 3545   6.279   3.577   4.515  0.0521  0.1071 -0.2766
  265POPC   C1A 3546   6.236   3.929   4.868 -0.1908  0.0362 -0.1611
  265POPC   D2A 3547   6.618   4.107   5.061 -0.0944  0.1285  0.4007
  265POPC   C3A 3548   6.724   4.402   5.262 -0.1263  0.0190  0.2919
  265POPC   C4A 3549   6.843   4.349   5.626 -0.0156 -0.0159  0.0525
  265POPC   C1B 3550   6.017   3.474   4.835  0.2472  0.3405 -0.1389
  265POPC   C2B 3551   6.048   3.227   5.346  0.2227 -0.1310 -0.1715
  265POPC   C3B 3552   5.896   3.222   5.713 -0.0143 -0.2323  0.2866
  265POPC   C4B 3553   6.034   3.381   6.091 -0.2023  0.0455  0.4437
  266POPC   NC3 3554   1.893   8.556   3.870 -0.0710 -0.1071 -0.3322
  266POPC   PO4 3555   2.120   8.357   4.313 -0.1454 -0.0021  0.3100
  266POPC   GL1 3556   2.279   8.502   4.681 -0.0202  0.0308  0.1919
  266POPC   GL2 3557   2.355   8.782   4.550 -0.3953  0.1038 -0.2109
  266POPC   C1A 3558   1.962   8.742   5.081 -0.0331  0.2418  0.4733
  266POPC   D2A 3559   2.033   9.003   5.467 -0.3268 -0.0715 -0.3496
  266POPC   C3A 3560   2.282   8.948   5.746 -0.0831  0.2889  0.1305
  266POPC   C4A 3561   2.454   9.070   6.193 -0.0233 -0.1078 -0.2650
  266POPC   C1B 3562   2.407   8.987   4.942 -0.0731  0.3623  0.2438
  266POPC   C2B 3563   2.604   8.883   5.332 -0.0952  0.2260  0.0118
  266POPC   C3B 3564   2.686   8.636   5.599 -0.3610  0.1122 -0.2498
  266POPC   C4B 3565   2.893   8.317   5.881  0.1517  0.3472  0.1983
  267POPC   NC3 3566   6.128   5.388   4.222  0.0795 -0.4661  0.3192
  267POPC   PO4 3567   6.492   5.084   4.364  0.0662  0.2541 -0.1504
  267POPC   GL1 3568   6.283   4.921   4.668 -0.3447 -0.0650 -0.0477
  267POPC   GL2 3569   5.975   4.797   4.664 -0.3128 -0.0824 -0.1333
  267POPC   C1A 3570   6.462   4.724   4.975 -0.3130  0.0882 -0.0864
  267POPC   D2A 3571   6.234   4.574   5.332  0.0567  0.2030  0.0306
  267POPC   C3A 3572   5.927   4.858   5.638 -0.2684  0.0955  0.1778
  267POPC   C4A 3573   6.024   5.080   5.973  0.0091 -0.0474 -0.1092
  267POPC   C1B 3574   5.927   5.033   5.099  0.3020  0.1770 -0.0480
  267POPC   C2B 3575   5.843   5.412   5.368  0.0430 -0.1962 -0.1484
  267POPC   C3B 3576   5.568   5.713   5.477 -0.1470 -0.3344  0.1403
  267POPC   C4B 3577   5.355   5.770   5.841  0.1566  0.3426 -0.1478
  268POPC   NC3 3578   0.227   8.104   3.907 -0.0296 -0.1342  0.0802
  268POPC   PO4 3579  -0.318   8.109   3.945  0.2949 -0.2399 -0.0557
  268POPC   GL1 3580  -0.210   8.170   4.366 -0.0526  0.0273 -0.0654
  268POPC   GL2 3581  -0.390   8.561   4.467 -0.0485 -0.1211 -0.0625
  268POPC   C1A 3582  -0.090   7.980   4.743  0.0661 -0.0791  0.0612
  268POPC   D2A 3583  -0.171   7.960   5.091  0.2249  0.0196 -0.0249
  268POPC   C3A 3584  -0.024   8.025   5.558 -0.1347 -0.0520  0.2772
  268POPC   C4A 3585   0.076   7.972   5.968  0.0238  0.2068 -0.3430
  268POPC   C1B 3586  -0.185   8.499   4.883  0.1596 -0.0347  0.0241
  268POPC   C2B 3587  -0.077   8.426   5.272 -0.3066  0.2003 -0.1471
  268POPC   C3B 3588  -0.101   8.634   5.611 -0.0708  0.0899 -0.1812
  268POPC   C4B 3589  -0.074   8.488   6.068  0.4721  0.1793  0.1676
  269POPC   NC3 3590   2.566   3.961   4.131 -0.0253  0.1735 -0.0037
  269POPC   PO4 3591   2.733   3.583   4.207 -0.0153 -0.1389  0.1461
  269POPC   GL1 3592   2.940   3.648   4.645 -0.1777 -0.1474 -0.1021
  269POPC   GL2 3593   2.924   3.920   4.780  0.0937  0.0893  0.1869
  269POPC   C1A 3594   3.001   3.545   5.145 -0.1318  0.0497 -0.2240
  269POPC   D2A 3595   3.096   3.377   5.486  0.2167 -0.1285 -0.0053
  269POPC   C3A 3596   2.656   3.199   5.775  0.4227  0.0138 -0.4551
  269POPC   C4A 3597   2.274   3.145   5.956 -0.0484 -0.4374  0.1737
  269POPC   C1B 3598   2.917   4.110   5.276 -0.1237 -0.0141 -0.3685
  269POPC   C2B 3599   2.570   4.268   5.524  0.3258 -0.1651  0.0737
  269POPC   C3B 3600   2.582   4.322   5.950  0.1016  0.2344 -0.0034
  269POPC   C4B 3601   3.055   4.295   6.189 -0.4319  0.1886  0.0937
  270POPC   NC3 3602   2.373   8.859   3.957 -0.1842  0.0518  0.1249
  270POPC   PO4 3603   2.095   9.292   3.847 -0.4349 -0.2027  0.0151
  270POPC   GL1 3604   1.924   9.401   4.215  0.2456 -0.1076  0.1020
  270POPC   GL2 3605   2.161   9.149   4.306 -0.1583  0.1514  0.0921
  270POPC   C1A 3606   1.954   9.704   4.579  0.2926 -0.1469  0.1013
  270POPC   D2A 3607   2.060   9.933   4.797 -0.0538  0.2262 -0.3509
  270POPC   C3A 3608   2.069   9.729   5.166  0.0464  0.4005 -0.1564
  270POPC   C4A 3609   2.048   9.898   5.667 -0.2364 -0.0820  0.1328
  270POPC   C1B 3610   1.983   9.192   4.730 -0.0218 -0.1642  0.1261
  270POPC   C2B 3611   1.965   9.238   5.018 -0.0220 -0.1572 -0.0236
  270POPC   C3B 3612   2.310   9.376   5.358  0.3955 -0.0990 -0.1329
  270POPC   C4B 3613   2.539   9.802   5.492  0.1458  0.0648  0.0105
  271POPC   NC3 3614   5.968   2.356   4.305 -0.2155 -0.1663 -0.1937
  271POPC   PO4 3615   6.043   2.000   4.456 -0.0207  0.3747  0.1977
  271POPC   GL1 3616   5.707   1.860   4.642  0.2652 -0.0193  0.2081
  271POPC   GL2 3617   5.818   1.543   4.876  0.1111 -0.5418 -0.2302
  271POPC   C1A 3618   5.467   1.956   4.963 -0.0562  0.0813  0.0259
  271POPC   D2A 3619   5.416   1.772   5.340 -0.0201 -0.2469 -0.0899
  271POPC   C3A 3620   5.413   2.030   5.678  0.1023  0.2401  0.0067
  271POPC   C4A 3621   5.483   2.438   5.790  0.1346 -0.0806 -0.1196
  271POPC   C1B 3622   5.967   1.793   5.193  0.1055  0.0599  0.3104
  271POPC   C2B 3623   6.065   1.653   5.671 -0.4828 -0.0270  0.2682
  271POPC   C3B 3624   6.317   1.507   6.028  0.4451  0.0361  0.1645
  271POPC   C4B 3625   6.882   1.482   5.873 -0.1074 -0.0308 -0.0846
  272POPC   NC3 3626   4.127   0.430   3.975 -0.2066 -0.3252  0.0022
  272POPC   PO4 3627   3.986   0.312   4.354  0.0750  0.2686  0.0398
  272POPC   GL1 3628   3.839   0.680   4.687 -0.0176  0.1747 -0.0660
  272POPC   GL2 3629   3.485   0.548   4.826 -0.1900  0.1482  0.2370
  272POPC   C1A 3630   3.752   0.943   5.122  0.1695  0.1545 -0.0356
  272POPC   D2A 3631   3.682   1.037   5.575 -0.0534 -0.4375  0.0101
  272POPC   C3A 3632   3.971   0.932   5.966  0.1497 -0.1311  0.0548
  272POPC   C4A 3633   4.038   1.056   6.443 -0.3216 -0.1116 -0.2008
  272POPC   C1B 3634   3.399   0.617   5.309  0.4697  0.2925  0.1091
  272POPC   C2B 3635   3.510   0.639   5.845 -0.1295  0.4706 -0.0988
  272POPC   C3B 3636   3.542   0.442   6.204  0.1561 -0.0701 -0.1001
  272POPC   C4B 3637   3.804   0.148   6.606  0.0276 -0.0190 -0.0788
  273POPC   NC3 3638   5.487   9.665   4.606  0.1570  0.0712  0.0162
  273POPC   PO4 3639   5.271  10.021   4.647 -0.0382 -0.0143 -0.0202
  273POPC   GL1 3640   5.186  10.285   4.917  0.1850  0.0793 -0.1411
  273POPC   GL2 3641   5.537  10.258   5.076  0.3945 -0.1217  0.1133
  273POPC   C1A 3642   4.954  10.148   5.209 -0.1863  0.0497 -0.0169
  273POPC   D2A 3643   4.843  10.216   5.641  0.2470  0.2524 -0.0565
  273POPC   C3A 3644   5.022   9.891   5.950  0.2092  0.2061 -0.1327
  273POPC   C4A 3645   5.203   9.778   6.271 -0.0805  0.0279  0.1616
  273POPC   C1B 3646   5.294  10.584   5.360  0.0368  0.2326 -0.3022
  273POPC   C2B 3647   5.158  10.780   5.772  0.3701  0.0759  0.0407
  273POPC   C3B 3648   4.864  10.891   6.046  0.0464 -0.1123  0.4303
  273POPC   C4B 3649   4.714  11.196   6.159  0.2281 -0.0746  0.1550
  274POPC   NC3 3650   1.612   4.122   3.719  0.1594  0.2660 -0.1680
  274POPC   PO4 3651   1.667   4.057   4.159 -0.0268  0.0820  0.0533
  274POPC   GL1 3652   1.668   3.905   4.564  0.2353 -0.1623  0.2908
  274POPC   GL2 3653   1.517   4.044   4.831  0.1822  0.1588  0.1742
  274POPC   C1A 3654   1.826   3.675   4.897  0.1141 -0.1754  0.3139
  274POPC   D2A 3655   1.923   3.550   5.258 -0.0136  0.1656  0.0617
  274POPC   C3A 3656   1.959   3.461   5.678 -0.2024 -0.1532  0.1490
  274POPC   C4A 3657   1.897   3.574   6.117 -0.1239  0.4940  0.0330
  274POPC   C1B 3658   1.415   3.871   5.147 -0.0715 -0.2186  0.0809
  274POPC   C2B 3659   1.491   3.635   5.513 -0.2259  0.1729  0.1586
  274POPC   C3B 3660   1.477   3.539   5.914  0.1670 -0.3451  0.4693
  274POPC   C4B 3661   1.541   3.626   6.470 -0.2192  0.0940 -0.0160
  275POPC   NC3 3662   0.218   5.290   4.455  0.0334  0.0832 -0.2040
  275POPC   PO4 3663  -0.194   5.470   4.580  0.1778  0.0001 -0.1901
  275POPC   GL1 3664  -0.251   5.574   5.012  0.3316 -0.2770  0.0504
  275POPC   GL2 3665  -0.161   5.331   5.288  0.2986  0.1629  0.3866
  275POPC   C1A 3666  -0.075   5.813   5.456  0.1145  0.0843  0.0465
  275POPC   D2A 3667   0.343   6.039   5.588 -0.1994  0.2049  0.0402
  275POPC   C3A 3668   0.425   6.039   6.116 -0.0988 -0.0533 -0.0719
  275POPC   C4A 3669   0.265   6.023   6.652 -0.1978  0.0008 -0.0196
  275POPC   C1B 3670  -0.190   5.140   5.597  0.0570 -0.0941 -0.0057
  275POPC   C2B 3671  -0.196   4.703   5.816 -0.1602 -0.1093  0.1121
  275POPC   C3B 3672  -0.127   4.443   6.081 -0.1040  0.6028  0.2116
  275POPC   C4B 3673   0.199   4.327   6.311 -0.1488  0.0784  0.4398
  276POPC   NC3 3674   5.149   5.804   4.750  0.0761 -0.1493 -0.1910
  276POPC   PO4 3675   5.333   5.330   4.773 -0.3165  0.1702 -0.0718
  276POPC   GL1 3676   5.243   5.434   5.149 -0.1831 -0.1273 -0.0612
  276POPC   GL2 3677   5.439   5.200   5.277  0.2474 -0.0350  0.0580
  276POPC   C1A 3678   5.047   5.494   5.519  0.3138  0.0922  0.0293
  276POPC   D2A 3679   4.780   5.788   5.803  0.2463  0.1176  0.0707
  276POPC   C3A 3680   4.953   5.744   6.194 -0.3140 -0.0709 -0.1791
  276POPC   C4A 3681   5.192   5.829   6.670 -0.2004  0.2177  0.1826
  276POPC   C1B 3682   5.435   5.263   5.738 -0.2582 -0.1452  0.1387
  276POPC   C2B 3683   5.515   5.175   6.175  0.3433 -0.1208  0.0807
  276POPC   C3B 3684   5.716   5.143   6.583  0.0395  0.1934  0.5182
  276POPC   C4B 3685   6.014   5.337   6.856  0.1270 -0.1589  0.1160
  277POPC   NC3 3686   6.881   5.618   4.488 -0.0425  0.1035  0.1393
  277POPC   PO4 3687   7.026   5.224   4.364 -0.1049 -0.1607 -0.0531
  277POPC   GL1 3688   6.809   5.123   4.778 -0.0771  0.0519 -0.0037
  277POPC   GL2 3689   6.877   4.891   4.930 -0.0970 -0.2315  0.2339
  277POPC   C1A 3690   6.549   5.245   5.084  0.1649 -0.3088 -0.2380
  277POPC   D2A 3691   6.293   5.145   5.445 -0.3247 -0.1928  0.0927
  277POPC   C3A 3692   6.193   5.517   5.740 -0.2239 -0.2527  0.1531
  277POPC   C4A 3693   6.211   5.898   5.994  0.0802 -0.1300 -0.3187
  277POPC   C1B 3694   6.748   4.850   5.358  0.0813 -0.0888 -0.0708
  277POPC   C2B 3695   6.523   4.775   5.764  0.1888  0.1807  0.0738
  277POPC   C3B 3696   6.218   4.584   6.072 -0.1162 -0.1193 -0.2303
  277POPC   C4B 3697   5.765   4.730   6.267  0.1370  0.2699 -0.0261
  278POPC   NC3 3698   6.268   8.840   4.981 -0.0766  0.2144 -0.2445
  278POPC   PO4 3699   6.263   8.529   4.671 -0.2417 -0.5157  0.1882
  278POPC   GL1 3700   6.600   8.423   4.927 -0.1315  0.0538  0.2568
  278POPC   GL2 3701   6.732   8.696   5.038  0.3801 -0.1285  0.2390
  278POPC   C1A 3702   6.647   8.100   5.262  0.1919 -0.0551  0.0556
  278POPC   D2A 3703   6.488   7.763   5.520  0.0879  0.1185 -0.2882
  278POPC   C3A 3704   6.635   7.657   5.922  0.2381  0.1079 -0.0922
  278POPC   C4A 3705   6.912   7.516   6.343 -0.2464  0.3044  0.1857
  278POPC   C1B 3706   6.556   8.529   5.436  0.2931  0.0965 -0.1185
  278POPC   C2B 3707   6.293   8.285   5.720 -0.1974  0.2017 -0.1918
  278POPC   C3B 3708   5.998   7.887   5.712 -0.1331  0.1668  0.1898
  278POPC   C4B 3709   5.550   7.803   5.634 -0.1603 -0.0986  0.1719
  279POPC   NC3 3710   9.613   7.186   4.367  0.2654 -0.3214 -0.0818
  279POPC   PO4 3711   9.529   6.789   4.294  0.0503  0.3474  0.2238
  279POPC   GL1 3712   9.546   6.744   4.666  0.1088 -0.4936 -0.0257
  279POPC   GL2 3713   9.577   6.991   4.809 -0.1512  0.0712 -0.2305
  279POPC   C1A 3714   9.878   6.676   4.920 -0.1078  0.0571 -0.3630
  279POPC   D2A 3715   9.893   6.763   5.373  0.1703 -0.3820 -0.0874
  279POPC   C3A 3716   9.852   6.955   5.824 -0.2601  0.2921  0.1053
  279POPC   C4A 3717  10.119   7.395   5.992  0.0052 -0.0403  0.2298
  279POPC   C1B 3718   9.414   6.871   5.228  0.1965 -0.1839  0.0297
  279POPC   C2B 3719   9.463   6.772   5.625  0.3196 -0.1417  0.0088
  279POPC   C3B 3720   9.371   7.015   5.972 -0.1620 -0.0109 -0.1584
  279POPC   C4B 3721   9.182   7.146   6.423 -0.1281  0.0868 -0.0757
  280POPC   NC3 3722   4.135   6.322   4.326 -0.0455 -0.2274 -0.0287
  280POPC   PO4 3723   3.758   6.104   4.531 -0.1522  0.0065  0.1818
  280POPC   GL1 3724   3.775   6.209   5.022  0.1663 -0.1484  0.1538
  280POPC   GL2 3725   3.597   5.988   5.183  0.0432  0.0073  0.0420
  280POPC   C1A 3726   4.154   6.395   5.235  0.2306 -0.0433 -0.0087
  280POPC   D2A 3727   4.305   6.434   5.564  0.1303  0.0156 -0.1681
  280POPC   C3A 3728   4.403   6.062   5.782 -0.0042 -0.3109  0.2682
  280POPC   C4A 3729   4.451   5.918   6.204 -0.1230 -0.1407 -0.1997
  280POPC   C1B 3730   3.715   6.189   5.533  0.2728 -0.1534 -0.2567
  280POPC   C2B 3731   3.735   6.508   5.845 -0.0396  0.0734  0.1225
  280POPC   C3B 3732   4.063   6.767   5.961  0.0767 -0.0390  0.0989
  280POPC   C4B 3733   4.254   6.864   6.318 -0.0630 -0.0552  0.0012
  281POPC   NC3 3734   1.272   2.434   3.308  0.0459  0.1552 -0.1139
  281POPC   PO4 3735   1.162   2.773   3.640  0.0819  0.0711  0.0585
  281POPC   GL1 3736   1.227   2.556   4.098  0.0314  0.0765  0.3139
  281POPC   GL2 3737   1.411   2.766   4.195 -0.0804 -0.1029 -0.1404
  281POPC   C1A 3738   1.239   2.214   4.339 -0.0016 -0.2076 -0.1005
  281POPC   D2A 3739   1.209   1.934   4.638  0.1800  0.0031  0.0399
  281POPC   C3A 3740   1.365   1.924   5.033 -0.1642  0.1242 -0.1783
  281POPC   C4A 3741   1.521   1.938   5.418 -0.0526 -0.3022  0.2857
  281POPC   C1B 3742   1.561   2.564   4.480 -0.1780  0.0581  0.1553
  281POPC   C2B 3743   1.641   2.157   4.699 -0.0240  0.1766 -0.0315
  281POPC   C3B 3744   1.913   1.936   4.941 -0.2512  0.1214 -0.0800
  281POPC   C4B 3745   2.056   1.805   5.349 -0.4236  0.0192  0.2072
  282POPC   NC3 3746   3.808   2.373   4.383  0.0359 -0.1524 -0.0924
  282POPC   PO4 3747   4.133   2.160   4.352 -0.2245 -0.0099  0.0754
  282POPC   GL1 3748   3.906   2.063   4.774  0.1736 -0.0602 -0.2117
  282POPC   GL2 3749   4.079   1.955   4.947 -0.0877  0.0543  0.2655
  282POPC   C1A 3750   3.455   2.003   4.902 -0.0838 -0.0129  0.1335
  282POPC   D2A 3751   3.246   2.024   5.360  0.0170 -0.1174  0.0388
  282POPC   C3A 3752   3.334   1.789   5.826 -0.4775  0.0885 -0.0995
  282POPC   C4A 3753   3.645   1.516   5.802 -0.2838 -0.1963  0.2226
  282POPC   C1B 3754   4.246   2.008   5.295 -0.3696 -0.1765  0.3179
  282POPC   C2B 3755   4.299   2.217   5.677 -0.0378  0.2333  0.2113
  282POPC   C3B 3756   4.554   2.440   6.031  0.0609 -0.1481 -0.0808
  282POPC   C4B 3757   4.491   2.708   6.350  0.0185  0.3249 -0.0562
  283POPC   NC3 3758   4.086   7.646   4.587  0.1490 -0.2348 -0.0651
  283POPC   PO4 3759   3.698   7.819   4.299  0.2351  0.0755 -0.2153
  283POPC   GL1 3760   3.737   7.974   4.731 -0.0103 -0.2681 -0.3029
  283POPC   GL2 3761   3.702   7.629   4.878 -0.3672 -0.3606 -0.1036
  283POPC   C1A 3762   3.886   8.087   5.193 -0.0389  0.0444  0.1037
  283POPC   D2A 3763   4.203   8.195   5.466  0.0694 -0.2940  0.0399
  283POPC   C3A 3764   3.959   8.180   5.875 -0.0097 -0.2821 -0.0868
  283POPC   C4A 3765   4.200   8.248   6.218  0.0169  0.2642  0.0405
  283POPC   C1B 3766   3.489   7.736   5.139 -0.2077 -0.1111 -0.1947
  283POPC   C2B 3767   3.538   7.817   5.524  0.1578 -0.0375  0.0604
  283POPC   C3B 3768   3.451   7.793   6.037  0.0775 -0.3872  0.1013
  283POPC   C4B 3769   3.362   7.690   6.425 -0.0909 -0.0906 -0.2596
  284POPC   NC3 3770   3.075   3.133   4.196  0.2593  0.1626 -0.3123
  284POPC   PO4 3771   2.724   2.697   4.235 -0.2982  0.0626  0.1042
  284POPC   GL1 3772   2.982   2.788   4.621  0.1183 -0.0250 -0.1544
  284POPC   GL2 3773   3.235   3.084   4.677  0.0037  0.0124  0.1391
  284POPC   C1A 3774   2.991   2.769   5.097  0.2040 -0.2334  0.2004
  284POPC   D2A 3775   3.240   2.877   5.497  0.0758  0.3554 -0.0726
  284POPC   C3A 3776   3.113   3.086   5.883  0.2673 -0.1438  0.0597
  284POPC   C4A 3777   2.962   3.368   6.177  0.0853  0.0246 -0.0776
  284POPC   C1B 3778   3.440   2.975   4.996  0.1550 -0.0268 -0.1960
  284POPC   C2B 3779   3.684   2.838   5.292 -0.3975 -0.1486  0.4250
  284POPC   C3B 3780   3.698   2.672   5.613  0.2774 -0.2375 -0.0309
  284POPC   C4B 3781   3.583   2.892   5.854 -0.0501 -0.0086  0.0630
  285POPC   NC3 3782   8.523   1.961   4.367  0.0270  0.0423  0.3083
  285POPC   PO4 3783   8.002   1.803   4.470 -0.1425 -0.1378 -0.2945
  285POPC   GL1 3784   7.826   1.850   4.865 -0.2409 -0.0858  0.3906
  285POPC   GL2 3785   7.807   2.162   4.994 -0.2348  0.0542  0.1716
  285POPC   C1A 3786   7.666   1.629   5.245  0.2326 -0.4694 -0.0103
  285POPC   D2A 3787   7.545   1.591   5.659  0.0273  0.2601  0.1716
  285POPC   C3A 3788   7.443   1.922   5.951 -0.0957 -0.3257  0.1740
  285POPC   C4A 3789   7.658   2.147   6.188 -0.3661  0.1545 -0.1080
  285POPC   C1B 3790   7.961   2.053   5.365 -0.1947  0.1344 -0.1131
  285POPC   C2B 3791   7.939   1.997   5.801  0.1382 -0.2348 -0.0934
  285POPC   C3B 3792   7.859   1.616   6.105 -0.0703  0.2239 -0.0105
  285POPC   C4B 3793   8.085   1.514   6.335 -0.1520  0.0308 -0.4074
  286POPC   NC3 3794   4.564   5.046   4.057 -0.2380  0.2362 -0.1855
  286POPC   PO4 3795   4.927   4.976   4.451 -0.1435 -0.3160 -0.0592
  286POPC   GL1 3796   5.038   4.943   4.895  0.0925  0.3482 -0.2058
  286POPC   GL2 3797   4.690   4.888   5.019 -0.0620 -0.0226  0.0803
  286POPC   C1A 3798   5.020   4.550   5.223  0.1037 -0.2851  0.0963
  286POPC   D2A 3799   5.050   4.328   5.582 -0.2851 -0.3799  0.1681
  286POPC   C3A 3800   5.525   4.210   5.544  0.1765  0.0745 -0.0274
  286POPC   C4A 3801   5.884   4.334   5.665  0.1483 -0.3328  0.2505
  286POPC   C1B 3802   4.861   5.000   5.387  0.3468 -0.0723  0.0740
  286POPC   C2B 3803   4.939   4.784   5.767  0.0396 -0.2922  0.0590
  286POPC   C3B 3804   4.916   4.499   6.032  0.2548  0.1735 -0.3281
  286POPC   C4B 3805   4.786   4.459   6.504 -0.0847  0.0248 -0.2970
  287W        W 3806   5.236   7.928  10.932 -0.0743 -0.0915  0.2375
  288W        W 3807   8.696   3.163   0.033  0.1712 -0.3968 -0.0461
  289W        W 3808   5.581   0.456  10.741  0.2156 -0.0040 -0.1963
  290W        W 3809   1.749   7.434   9.875 -0.2892 -0.1909 -0.0705
  291W        W 3810   8.011   0.405   9.662 -0.1118 -0.2736 -0.2243
  292W        W 3811   3.683   7.816   0.763 -0.0806  0.0547 -0.2513
  293W        W 3812   6.020   2.925   0.777  0.4539  0.0847  0.0991
  294W        W 3813   8.916   3.197  10.897 -0.0234  0.3454  0.0514
  295W        W 3814   8.987   5.777   7.875 -0.0318  0.1542  0.0429
  296W        W 3815   4.028   2.897   0.767 -0.1613 -0.1989 -0.1714
  297W        W 3816   4.438   7.626   2.796  0.1486  0.0780  0.1628
  298W        W 3817   3.651   4.980   0.847 -0.1940  0.2174  0.2872
  299W        W 3818   1.818   0.874   2.729 -0.0801 -0.3268 -0.2197
  300W        W 3819   4.159   4.999   2.497 -0.1449 -0.2374  0.1507
  301W        W 3820   8.913   8.902  11.190  0.5079 -0.0143  0.0265
  302W        W 3821   7.696   6.108   3.394  0.1629  0.1874  0.3689
  303W        W 3822   4.663   4.610  10.390 -0.3833  0.1203  0.0508
  304W        W 3823   6.735   5.305  11.753 -0.0242 -0.1140  0.1616
  305W        W 3824   8.892   5.043   1.842  0.2564 -0.2550  0.0711
  306W        W 3825   4.451   4.220   3.170 -0.2123  0.0078 -0.0173
  307W        W 3826   1.101   4.481  12.270  0.1628 -0.0374 -0.4177
  308W        W 3827   8.528   5.282   1.544  0.0300 -0.1052 -0.1269
  309W        W 3828   5.997   6.875   2.064  0.0609 -0.2172 -0.2504
  310W        W 3829   3.055   7.060   3.684 -0.3084  0.1552 -0.0733
  311W        W 3830   3.013   2.515   2.920  0.1432  0.4468  0.0242
  312W        W 3831   1.839   0.905  10.117  0.3705 -0.0633  0.3235
  313W        W 3832   2.483   4.382   0.352 -0.1025 -0.0872 -0.0156
  314W        W 3833   9.623   7.189   9.608  0.5081  0.2738 -0.0269
  315W        W 3834   9.346   5.905   9.728 -0.1344 -0.3039  0.0211
  316W        W 3835   7.324   0.536  11.651  0.3594 -0.0304 -0.2566
  317W        W 3836   5.526   6.429   1.205  0.3234  0.1640 -0.0537
  318W        W 3837   0.205   8.356   9.374 -0.1355  0.2061  0.1801
  319W        W 3838   0.592   3.197   9.749 -0.0480 -0.1260  0.2545
  320W        W 3839   7.875   6.278   0.439  0.1139 -0.4010  0.4864
  321W        W 3840   3.878   5.923  11.768 -0.1141 -0.2992  0.1258
  322W        W 3841   6.405   7.306   1.093  0.0242 -0.0975  0.3331
  323W        W 3842   9.372   9.601   0.426 -0.0009 -0.3590  0.2641
  324W        W 3843   6.145   5.571   0.337  0.0841  0.1055  0.5371
  325W        W 3844   8.921   4.262   8.912 -0.0574  0.1458 -0.2789
  326W        W 3845   9.525   0.337   0.075 -0.0430 -0.0243 -0.0356
  327W        W 3846   8.684   7.007   4.179 -0.1930 -0.1133  0.2139
  328W        W 3847   5.609   2.295   0.600 -0.0642 -0.0278  0.1024
  329W        W 3848   4.089   7.196   1.450  0.0601 -0.0992 -0.0786
  330W        W 3849   5.687   4.537   3.854  0.0696  0.1434  0.1931
  331W        W 3850   8.054   5.164   9.687  0.1210  0.2893  0.0236
  332W        W 3851   1.382   7.551   2.164  0.0607  0.3708  0.1150
  333W        W 3852   5.027   6.607  10.423  0.0475  0.0147 -0.0833
  334W        W 3853   5.934   2.788   8.815 -0.0593  0.3425 -0.0122
  335W        W 3854   6.789   4.965   2.264 -0.1018  0.0438 -0.1897
  336W        W 3855   3.232   2.961   1.108 -0.0799  0.3020 -0.2770
  337W        W 3856   7.924   3.457   2.687  0.1807  0.2388 -0.2913
  338W        W 3857   5.396   8.536   3.690 -0.0856  0.1453 -0.0560
  339W        W 3858   0.161   6.118   8.942 -0.2155 -0.1750  0.1244
  340W        W 3859   2.028   3.092  12.490 -0.0794 -0.0548 -0.3269
  341W        W 3860   8.137   1.687   1.805 -0.1723 -0.0048  0.3877
  342W        W 3861   2.153   2.357  10.774  0.1979  0.2687 -0.0289
  343W        W 3862   4.177   3.999   0.526  0.1010  0.1155  0.2231
  344W        W 3863   7.630   6.769   8.294 -0.1719  0.0924  0.0597
  345W        W 3864   9.165   7.398   2.842  0.0189  0.0377  0.1065
  346W        W 3865   4.520   3.135   0.802 -0.2427  0.2337 -0.2415
  347W        W 3866   2.158   0.792   2.200  0.0165  0.0964 -0.2483
  348W        W 3867   5.548   2.640   8.369 -0.1036  0.0337  0.2999
  349W        W 3868   1.711   7.403   3.492  0.4395  0.2724  0.0568
  350W        W 3869   2.186   3.341  10.336 -0.5261  0.0163 -0.2907
  351W        W 3870   1.477   4.189  12.449  0.1692 -0.0920 -0.0569
  352W        W 3871   3.159   2.278   1.754  0.0969 -0.0073  0.0965
  353W        W 3872   4.303   5.066   9.790 -0.5134  0.0314  0.4178
  354W        W 3873   1.162   1.694  12.158  0.0153  0.2364 -0.0246
  355W        W 3874   3.193   3.087  11.511 -0.1172  0.1975  0.0971
  356W        W 3875   5.102   0.865   3.689 -0.0059  0.0419 -0.1441
  357W        W 3876   2.284   9.170  11.722  0.1208  0.1258  0.1126
  358W        W 3877   0.722   7.848   3.770  0.2718 -0.1172 -0.3186
  359W        W 3878   1.045   7.704  10.496  0.0969 -0.5253  0.1424
  360W        W 3879   5.271   5.879  11.548 -0.2562  0.2749  0.0490
  361W        W 3880   3.619   5.070  12.032  0.1136 -0.2298 -0.0073
  362W        W 3881   9.354   4.322  12.105 -0.1137 -0.1446 -0.2274
  363W        W 3882   6.033   3.438  10.169  0.2246  0.2343 -0.0756
  364W        W 3883   1.385   7.495   0.085  0.3624 -0.0341 -0.1697
  365W        W 3884   5.989   3.015   9.870 -0.0799 -0.0972 -0.2022
  366W        W 3885   5.846   8.692   3.940  0.0003  0.0016  0.0229
  367W        W 3886   6.352   3.012  12.340 -0.0296  0.0283  0.1670
  368W        W 3887   4.309   9.341   2.774 -0.2647  0.0442 -0.0665
  369W        W 3888   7.266   9.079   3.247 -0.1209  0.3122 -0.1450
  370W        W 3889   2.419   3.435   0.442 -0.2354 -0.0995 -0.1038
  371W        W 3890   2.651   8.733   3.193  0.2920  0.0984 -0.2728
  372W        W 3891   1.809   0.099  10.135 -0.1147  0.0642  0.1953
  373W        W 3892   5.624   6.329   8.943 -0.1766  0.2482 -0.0227
  374W        W 3893   4.934   5.186   0.194  0.0875 -0.2944  0.0922
  375W        W 3894   0.413   8.790   3.141  0.1173  0.2655  0.2006
  376W        W 3895   6.848   3.720   9.169  0.0053  0.0092 -0.1026
  377W        W 3896   6.396   5.462   4.670 -0.1108  0.2690  0.0846
  378W        W 3897   9.162   4.675   9.097  0.2913 -0.2542  0.3143
  379W        W 3898   2.973   8.388   1.893 -0.0743 -0.1143  0.3822
  380W        W 3899   4.424   2.603   0.842  0.1578  0.0558  0.0492
  381W        W 3900   5.778   0.129   3.624  0.2580  0.0474 -0.1913
  382W        W 3901   8.281   8.748   9.874  0.0931 -0.1334 -0.0635
  383W        W 3902   8.492   7.963  11.358 -0.0504  0.0050  0.0796
  384W        W 3903   5.537   2.664   9.080  0.1600 -0.1426  0.2097
  385W        W 3904   5.951   9.124   0.797 -0.1055 -0.0671 -0.2043
  386W        W 3905   3.122   3.964  10.824  0.0709  0.1273  0.0465
  387W        W 3906   6.069   2.475   0.573  0.1634  0.0730  0.1693
  388W        W 3907   8.909   4.632   3.652 -0.1936 -0.2292 -0.0689
  389W        W 3908   0.939   2.637  11.477  0.0191 -0.0111  0.4665
  390W        W 3909   9.266   7.158  10.604  0.0753 -0.1430  0.1739
  391W        W 3910   4.598   4.582   1.637  0.0343  0.2239  0.2520
  392W        W 3911   3.350   2.136   2.474  0.2630 -0.0491 -0.1479
  393W        W 3912   7.064   2.293   2.684 -0.2367 -0.1755 -0.2929
  394W        W 3913   0.036   1.974  11.130 -0.0795  0.3290 -0.4683
  395W        W 3914   1.307   4.972   0.745  0.1928 -0.1012  0.0953
  396W        W 3915   7.194   5.356   1.003 -0.0377 -0.1013  0.2634
  397W        W 3916   0.122   6.771   9.989  0.0398  0.4017  0.2457
  398W        W 3917   4.283   8.045  12.340  0.2811  0.2504 -0.0965
  399W        W 3918   9.625   0.204   0.855  0.0809 -0.0350  0.1715
  400W        W 3919   7.900   0.915  11.648 -0.1807  0.2462  0.0345
  401W        W 3920   2.129   4.049   9.977 -0.2469 -0.1914  0.2507
  402W        W 3921   6.127   8.050  12.473 -0.1450  0.1293  0.0128
  403W        W 3922   0.120   0.129  10.872  0.0893 -0.6374 -0.1747
  404W        W 3923   8.655   5.323  10.244  0.4049 -0.1978  0.3242
  405W        W 3924   6.125   6.174  12.066  0.0767 -0.0040  0.0859
  406W        W 3925   8.561   9.318  11.352  0.0910  0.0645  0.0925
  407W        W 3926   5.598   8.940  10.168  0.0016 -0.0731 -0.2571
  408W        W 3927   6.564   3.498  11.093  0.0790  0.1679  0.0160
  409W        W 3928   8.339   9.297   1.766  0.1532 -0.1627 -0.2639
  410W        W 3929   4.598   8.713  10.218 -0.0842  0.0115 -0.3415
  411W        W 3930   7.652   3.824   1.846  0.0122 -0.0970 -0.1842
  412W        W 3931   6.611   6.320   0.426 -0.1286 -0.1376  0.3315
  413W        W 3932   7.139   6.761  11.192 -0.1115  0.1365 -0.5013
  414W        W 3933   0.156   2.116   1.380  0.3257 -0.2210  0.1888
  415W        W 3934   4.621   7.890   4.500 -0.2981 -0.0681  0.1941
  416W        W 3935   0.637   5.750   2.247  0.2058 -0.0239  0.1587
  417W        W 3936   5.931   9.633   0.854 -0.1974  0.1389  0.0156
  418W        W 3937   5.942   7.484  12.555 -0.1044  0.3821  0.1138
  419W        W 3938   3.683   4.875   2.280 -0.0958 -0.0606 -0.1200
  420W        W 3939   1.570   5.249  10.299  0.1573 -0.2708 -0.0249
  421W        W 3940   1.535   5.028  11.306  0.1075  0.2275 -0.1370
  422W        W 3941   3.140   3.249   1.594  0.1906 -0.1129 -0.3166
  423W        W 3942   8.572   2.425   0.423 -0.0863  0.1230  0.2488
  424W        W 3943   8.172   3.265   3.042 -0.0976 -0.0974  0.2767
  425W        W 3944   6.650   7.023   9.125  0.1620 -0.0691 -0.2278
  426W        W 3945   8.895   7.120   3.653  0.1349 -0.1036 -0.0905
  427W        W 3946   8.344   4.286   8.054  0.1260  0.1849  0.1907
  428W        W 3947   7.649   6.203  11.532  0.0512  0.1371  0.0351
  429W        W 3948   3.366   7.781   8.067 -0.2039  0.0278 -0.0297
  430W        W 3949   2.648   1.812   9.693  0.3074  0.1051 -0.0927
  431W        W 3950   7.867   2.555  12.003  0.1731 -0.0386 -0.0326
  432W        W 3951   6.268   8.184   3.601  0.0339 -0.0252 -0.1671
  433W        W 3952   9.374   4.529  10.772 -0.0181  0.0969  0.0381
  434W        W 3953   3.180   4.126   0.624 -0.1445 -0.0335 -0.2292
  435W        W 3954   5.813   4.968   4.097 -0.0457  0.2177  0.0916
  436W        W 3955   1.863   8.766   4.445 -0.4138  0.1427 -0.1112
  437W        W 3956   3.160   6.305   0.965  0.2798 -0.2319 -0.2244
  438W        W 3957   5.662   8.887   9.514 -0.1229  0.3055 -0.1715
  439W        W 3958   0.898   2.883   9.943 -0.1591  0.1998 -0.0845
  440W        W 3959   5.581   9.317   9.233  0.2520  0.2384  0.1424
  441W        W 3960   6.383   9.546   1.983 -0.1980 -0.0669  0.4169
  442W        W 3961   7.769   6.776   0.276 -0.1807 -0.0039 -0.1811
  443W        W 3962   3.050   6.638  12.432  0.0988  0.3180  0.2677
  444W        W 3963   1.203   1.658   4.127 -0.1342  0.1087 -0.0084
  445W        W 3964   4.975   4.277  11.198 -0.0890  0.1317 -0.0003
  446W        W 3965   8.621   6.703   3.770  0.0640 -0.0945  0.0719
  447W        W 3966   2.263   8.052  10.368 -0.0934  0.0482 -0.0671
  448W        W 3967   9.361   0.033   2.366 -0.0481 -0.0840  0.2746
  449W        W 3968   4.002   7.608   3.130  0.1995 -0.1959 -0.2581
  450W        W 3969   0.306   1.516   3.046  0.1186  0.3366  0.1816
  451W        W 3970   8.020   6.518   3.347 -0.2303  0.0881 -0.2784
  452W        W 3971   4.534   4.573   3.518  0.0670 -0.3830 -0.2832
  453W        W 3972   2.801   7.446  10.864  0.1230 -0.1444  0.1256
  454W        W 3973   1.120   1.649   9.471 -0.2771  0.2476  0.1038
  455W        W 3974   3.026   6.152   0.084 -0.1702 -0.0015 -0.0344
  456W        W 3975   0.902   7.919   1.714 -0.2875 -0.0209  0.1250
  457W        W 3976   8.261   5.335  11.274  0.1111  0.0545 -0.1106
  458W        W 3977   6.530   0.712   2.995  0.0067  0.0690 -0.2544
  459W        W 3978   5.147   3.745   3.313  0.0513 -0.0369  0.1210
  460W        W 3979   3.693   6.629   9.181  0.0054 -0.1505 -0.0120
  461W        W 3980   1.771   3.104  10.953 -0.2452  0.0003  0.1211
  462W        W 3981   1.832   4.324   1.203  0.1286  0.0900 -0.0423
  463W        W 3982   3.239   7.590   1.148  0.1416 -0.0122 -0.0837
  464W        W 3983   7.075   5.658   1.522 -0.2808  0.0350 -0.0929
  465W        W 3984   7.821   8.565   2.897 -0.4597  0.1924 -0.2156
  466W        W 3985   5.045   5.413   2.464  0.0168 -0.0339 -0.0359
  467W        W 3986   2.315   2.250   1.068 -0.2354  0.2525  0.1238
  468W        W 3987   7.603   8.205   9.571 -0.3984  0.0517 -0.0063
  469W        W 3988   5.815   4.293   1.538 -0.2919 -0.0119 -0.1385
  470W        W 3989   5.255   1.498   8.181 -0.0753 -0.2699  0.3432
  471W        W 3990   0.752   6.735   9.521  0.0192 -0.1244 -0.0659
  472W        W 3991   9.133   8.236   3.402 -0.1131  0.0153 -0.1027
  473W        W 3992   7.443   1.547  10.080 -0.4100 -0.1556  0.0888
  474W        W 3993   3.845   5.262  11.233  0.0420  0.1409 -0.5200
  475W        W 3994   4.104   5.737  12.151 -0.0830  0.0533  0.3424
  476W        W 3995   8.723   5.111  11.208 -0.0875 -0.2666  0.1156
  477W        W 3996   6.475   4.694   2.782 -0.3816  0.1064  0.0774
  478W        W 3997   3.376   5.837  11.689  0.3188  0.0535  0.1787
  479W        W 3998   8.953   3.692  11.740 -0.4819 -0.0606 -0.0098
  480W        W 3999   0.732   4.698   2.509 -0.0971  0.0038 -0.2263
  481W        W 4000   6.298   8.548  10.635 -0.0039  0.1726 -0.0458
  482W        W 4001   0.228   8.123  11.383 -0.1471  0.0582 -0.1556
  483W        W 4002   0.793   2.326   0.658  0.0963  0.0539 -0.1245
  484W        W 4003   3.930   4.974  12.425 -0.1054 -0.1899  0.0628
  485W        W 4004   6.310   5.150  10.083  0.1819  0.0366 -0.3671
  486W        W 4005   4.045   3.429   0.973 -0.0453  0.1054  0.2428
  487W        W 4006   7.656   6.046   9.383  0.0049 -0.0802 -0.0703
  488W        W 4007   6.419   0.151   1.095 -0.1399  0.5147  0.0154
  489W        W 4008   5.801   1.950   2.388  0.3776  0.0614  0.3717
  490W        W 4009   3.821   3.611   0.518  0.2733  0.1201  0.2297
  491W        W 4010   2.721   2.503   1.888 -0.0890 -0.0959 -0.0640
  492W        W 4011   6.423   3.019   8.961 -0.0208  0.1109  0.2906
  493W        W 4012   5.600   4.523   1.016  0.0329  0.2573  0.2914
  494W        W 4013   6.696   0.650  10.836 -0.1680  0.1597 -0.1294
  495W        W 4014   8.961   6.514   0.396  0.0656  0.2553  0.0583
  496W        W 4015   6.601   6.046  11.068  0.1349 -0.1455  0.0318
  497W        W 4016   6.700   8.247   1.760 -0.1345  0.0429  0.1451
  498W        W 4017   9.368   7.082  11.615  0.0525  0.0593 -0.3886
  499W        W 4018   3.200   2.674  11.801 -0.1168  0.0312  0.0562
  500W        W 4019   1.983   5.192  11.507 -0.3278  0.0532  0.1571
  501W        W 4020   0.842   3.608   1.623 -0.0452 -0.4565 -0.1495
  502W        W 4021   8.091   7.035  11.730  0.1200  0.0221 -0.0154
  503W        W 4022   4.517   6.871   2.675 -0.2859 -0.2087  0.0539
  504W        W 4023   2.365   6.518   8.829  0.2574  0.0774  0.0370
  505W        W 4024   7.428   1.078   4.505  0.0693 -0.2431 -0.3299
  506W        W 4025   7.484   3.708   3.988  0.3754 -0.2838 -0.2488
  507W        W 4026   1.044   3.662   2.078  0.4612  0.0682  0.2870
  508W        W 4027   7.181   0.563   2.399  0.3150  0.0271  0.0029
  509W        W 4028   0.195   5.574   9.940  0.0226 -0.2269  0.3528
  510W        W 4029   2.404   7.732  10.889 -0.2015 -0.3189 -0.0781
  511W        W 4030   4.879   2.044   2.962  0.2156  0.0697 -0.0966
  512W        W 4031   7.232   0.003  11.603  0.0809  0.1080  0.0340
  513W        W 4032   5.212   6.090   2.842  0.3968 -0.2112  0.0920
  514W        W 4033   4.368   9.404   9.416  0.1683 -0.0734  0.3688
  515W        W 4034   7.906   0.995   2.993  0.1794  0.2290  0.4464
  516W        W 4035   5.942   2.720  11.990 -0.2422  0.0200  0.3694
  517W        W 4036   2.336   6.063  12.555 -0.1642 -0.0416  0.1991
  518W        W 4037   3.170   4.187   2.433  0.2298  0.1896 -0.0820
  519W        W 4038   7.814   7.010   1.430  0.1353  0.0146 -0.0244
  520W        W 4039   9.132   7.229   9.509  0.1748  0.0125  0.1972
  521W        W 4040   7.809   5.072  11.197  0.0107  0.0113 -0.1970
  522W        W 4041   2.460   4.312  10.297 -0.2737  0.1423  0.0603
  523W        W 4042   9.301   3.055  10.605 -0.0703 -0.1196 -0.1629
  524W        W 4043   5.613   7.142   1.785 -0.2253 -0.1850 -0.2692
  525W        W 4044   6.447   2.194   9.415  0.2162 -0.2617  0.0112
  526W        W 4045   8.104   8.298   3.383  0.2929  0.2399 -0.0467
  527W        W 4046   7.586   6.439   3.035 -0.0187  0.0796 -0.3106
  528W        W 4047   5.615   2.064  10.773  0.0766 -0.2481 -0.1537
  529W        W 4048   1.482   6.253   1.932  0.0007 -0.0502 -0.0987
  530W        W 4049   4.636   2.164   9.581 -0.3134  0.1589  0.0043
  531W        W 4050   0.527   9.343   1.912  0.0795  0.5836 -0.0052
  532W        W 4051   0.691   5.037   0.754 -0.1606  0.1333  0.1290
  533W        W 4052   1.174   7.868  11.056  0.0717  0.1146 -0.0622
  534W        W 4053   7.906   7.569   9.939 -0.0469  0.0710  0.0015
  535W        W 4054   9.666   7.337   2.867  0.0782 -0.0574  0.2191
  536W        W 4055   8.258   6.583   1.488 -0.1496 -0.0505  0.3225
  537W        W 4056   2.567   1.138   3.658 -0.0091 -0.0397 -0.2209
  538W        W 4057   3.866   4.040  11.946 -0.0232  0.2973  0.4789
  539W        W 4058   0.862   2.093  11.294 -0.1374 -0.4768  0.0529
  540W        W 4059   5.195   7.158   9.383  0.3560 -0.0375  0.1071
  541W        W 4060   6.834   5.241   8.104  0.0586 -0.1302 -0.4152
  542W        W 4061   9.448   8.304  11.355  0.2489 -0.0501  0.2229
  543W        W 4062   6.070   4.402   2.656 -0.0465 -0.4482  0.4573
  544W        W 4063   1.819   3.895   0.307  0.2089 -0.0638  0.1664
  545W        W 4064   9.434   6.525   2.145 -0.4749  0.2636 -0.1076
  546W        W 4065   0.290   7.015  11.752  0.4112 -0.2512  0.0265
  547W        W 4066   0.314   7.673   1.168  0.0876  0.2565 -0.3801
  548W        W 4067   3.540   3.518   1.778  0.4578  0.1896 -0.0290
  549W        W 4068   0.608   4.030  11.678 -0.0663 -0.1978  0.0938
  550W        W 4069   0.863   7.196   0.004 -0.2100 -0.2938  0.0491
  551W        W 4070   1.796   1.282   9.820 -0.2506  0.0039 -0.0133
  552W        W 4071   5.092   3.606   9.207 -0.0467  0.1829 -0.0350
  553W        W 4072   4.212   5.942   8.668 -0.1142 -0.0032 -0.1767
  554W        W 4073   5.018   6.489   4.364 -0.4510  0.2013 -0.2130
  555W        W 4074   8.375   3.961  11.100 -0.2628  0.0055  0.2554
  556W        W 4075   7.322   2.346  12.507 -0.1800  0.2690 -0.0045
  557W        W 4076   2.909   9.429   3.669 -0.0445  0.1257  0.0300
  558W        W 4077   4.928   3.157   4.100 -0.4107  0.4170 -0.2843
  559W        W 4078   8.862   8.214   0.302  0.0116 -0.1303 -0.0487
  560W        W 4079   5.282   9.008   1.637 -0.0026  0.0817 -0.2560
  561W        W 4080   0.069   3.760   9.990  0.1506  0.0969  0.0905
  562W        W 4081   2.854   6.410  10.241 -0.1551  0.4411 -0.2902
  563W        W 4082   3.328   2.397  10.092 -0.2283  0.1725  0.3084
  564W        W 4083   4.668   2.858   1.515  0.1968 -0.0817  0.3078
  565W        W 4084   2.260   4.376   0.873 -0.1942  0.0531  0.3202
  566W        W 4085   9.494   5.339   9.702 -0.0598 -0.3496  0.0334
  567W        W 4086   4.313   5.312  11.449 -0.0214 -0.0304  0.1148
  568W        W 4087   7.168   2.134   0.730 -0.1024 -0.0511 -0.3462
  569W        W 4088   3.154   4.935  11.676 -0.0043 -0.2631 -0.3885
  570W        W 4089   9.291   3.059   9.668 -0.4236  0.0185  0.3536
  571W        W 4090   0.602   5.307  12.558  0.3422 -0.1792 -0.1421
  572W        W 4091   3.123   7.535   0.096  0.2639  0.0088  0.2442
  573W        W 4092   7.634   4.678  12.042  0.0285 -0.2298  0.0695
  574W        W 4093   6.683   8.041  12.401 -0.0641  0.0196 -0.1077
  575W        W 4094   8.341   0.272  10.903 -0.0718  0.0724 -0.1910
  576W        W 4095   8.902   0.533  10.902 -0.1001  0.0267  0.1162
  577W        W 4096   7.776   3.566   3.215  0.3919  0.1625 -0.1244
  578W        W 4097   8.100   3.127  10.752 -0.0401 -0.1548  0.0466
  579W        W 4098   6.842   7.459   1.365  0.3526 -0.0049 -0.0508
  580W        W 4099   0.659   0.851   9.250  0.3511 -0.0065  0.1868
  581W        W 4100   4.818   7.245   2.872 -0.0877  0.1626  0.0542
  582W        W 4101   1.067   9.114   2.456  0.2842 -0.1529  0.0272
  583W        W 4102   8.589   4.786   1.489  0.0146  0.2551  0.1664
  584W        W 4103   8.947   4.408   1.571  0.1313  0.1035  0.0443
  585W        W 4104   3.648   7.438   3.977 -0.0485  0.1524  0.2229
  586W        W 4105   0.422   9.284   2.948 -0.0597 -0.1555 -0.1507
  587W        W 4106   7.349   7.965   1.726 -0.0648  0.0278 -0.0401
  588W        W 4107   8.182   8.966   2.962  0.0122  0.6083 -0.0758
  589W        W 4108   5.716   6.265  10.513 -0.2756 -0.1339  0.0425
  590W        W 4109   2.550   7.286  11.317 -0.1886 -0.0685  0.0094
  591W        W 4110   0.598   4.780   8.683 -0.1987 -0.2717  0.1985
  592W        W 4111   1.479   9.136   0.703 -0.1146 -0.1769 -0.0295
  593W        W 4112   8.558   4.306   3.458  0.0212  0.4827 -0.0015
  594W        W 4113   1.332   2.219  11.282 -0.1484 -0.1091  0.3343
  595W        W 4114   0.633   5.287  11.972  0.2397 -0.1303 -0.1249
  596W        W 4115   7.079   5.237   9.779  0.1167  0.0254 -0.1163
  597W        W 4116   6.707   4.959  12.087  0.0499 -0.0255  0.0708
  598W        W 4117   1.725   5.927   2.209 -0.0383  0.2204  0.0521
  599W        W 4118   6.946   2.393  11.707 -0.2289 -0.2353  0.2739
  600W        W 4119   0.524   1.883  11.535 -0.2396 -0.2577  0.0073
  601W        W 4120   2.562   3.386   2.044  0.1184  0.0545  0.0713
  602W        W 4121   3.094   3.600   2.069  0.0632 -0.1554 -0.0299
  603W        W 4122   7.711   6.015   2.174 -0.0082 -0.3233  0.2092
  604W        W 4123   4.019   4.921  11.796  0.0069  0.1045  0.1381
  605W        W 4124   6.089   6.576   9.775 -0.1304  0.2732 -0.0301
  606W        W 4125   9.259   7.117  12.115  0.1926  0.2099 -0.1354
  607W        W 4126   8.030   1.782   0.822  0.1511 -0.1237 -0.1147
  608W        W 4127   9.647   4.826   3.041  0.0213 -0.1828  0.1386
  609W        W 4128   8.372   4.006   8.794  0.0559 -0.0728 -0.2129
  610W        W 4129   7.627   8.292   0.472 -0.0228 -0.0761  0.0648
  611W        W 4130   9.294   4.770   1.750  0.1056  0.2613  0.1164
  612W        W 4131   9.007   4.856  12.384  0.2404  0.1987  0.1157
  613W        W 4132   2.347   5.171   9.176  0.0153  0.2962 -0.3563
  614W        W 4133   8.061   2.438  12.430 -0.1617 -0.0778  0.1794
  615W        W 4134   9.234   3.685   3.852  0.2534  0.2184 -0.3072
  616W        W 4135   4.523   2.407  10.048  0.2502  0.2484  0.1101
  617W        W 4136   5.220   0.885  11.346 -0.0097 -0.0440  0.0858
  618W        W 4137   7.458   2.143   3.023 -0.1019 -0.1982 -0.2838
  619W        W 4138   3.156   0.417   2.686  0.1494 -0.0204 -0.2459
  620W        W 4139   8.997   2.351   3.962  0.0413 -0.0683 -0.1728
  621W        W 4140   6.226   3.079   3.048 -0.1036 -0.0535 -0.1330
  622W        W 4141   0.139   8.319  10.339 -0.0036  0.3229  0.0503
  623W        W 4142   9.008   5.622   1.715  0.0726  0.0305 -0.1023
  624W        W 4143   1.857   6.111   0.107  0.1175 -0.1842  0.2200
  625W        W 4144   4.121   1.031  10.061  0.3956  0.0578 -0.1868
  626W        W 4145   0.089   1.778   2.373  0.1920  0.1347 -0.2947
  627W        W 4146   7.073   6.932   3.576 -0.1452 -0.3394  0.1824
  628W        W 4147   2.247   5.710   9.317  0.1866 -0.1545  0.4915
  629W        W 4148   9.249   6.360  10.707  0.2144  0.1509 -0.0332
  630W        W 4149   6.311   0.676   8.732  0.0336  0.4587  0.0408
  631W        W 4150   0.588   1.601  11.085  0.2356  0.2560 -0.0085
  632W        W 4151   5.203   1.752   4.020  0.0961 -0.0300 -0.0623
  633W        W 4152   4.707   0.810   0.971 -0.2898  0.0243  0.0852
  634W        W 4153   0.423   9.121  11.375  0.0170  0.4389 -0.1823
  635W        W 4154   9.317   4.863   0.824  0.0663  0.2004  0.4352
  636W        W 4155   2.053   9.245   8.896  0.1178 -0.0524 -0.2013
  637W        W 4156   8.452   2.557  12.080  0.0764 -0.0762  0.1818
  638W        W 4157   7.264   1.767   3.847  0.3049  0.1669 -0.1283
  639W        W 4158   5.345   3.203   9.148  0.2437  0.0678 -0.0661
  640W        W 4159   2.402   6.056  10.909 -0.0439 -0.1814 -0.0127
  641W        W 4160   5.090   8.903  12.014 -0.0257  0.0945  0.2199
  642W        W 4161   6.040   2.573   2.970  0.0615  0.3570 -0.1323
  643W        W 4162   4.501   7.553   8.309 -0.1593  0.0269 -0.0370
  644W        W 4163   0.814   1.176  11.515 -0.3578 -0.0223 -0.1952
  645W        W 4164   0.565   8.523   8.861 -0.2481 -0.2529 -0.0387
  646W        W 4165   9.675   8.829   9.419  0.0130  0.3553  0.4370
  647W        W 4166   5.596   4.674  10.387  0.0650  0.3202  0.1838
  648W        W 4167   7.722   4.144  12.220 -0.4101  0.0876 -0.0596
  649W        W 4168   6.814   5.663   9.701 -0.0332  0.1598  0.1668
  650W        W 4169   1.543   8.365  10.128 -0.2116  0.1723 -0.0902
  651W        W 4170   6.280   0.905  10.887  0.2929 -0.0874 -0.1764
  652W        W 4171   7.411   7.777   9.696 -0.1380  0.2479  0.1927
  653W        W 4172   4.578   4.855  12.065 -0.0101  0.2191  0.0441
  654W        W 4173   1.856   1.650  11.739  0.0953  0.1786  0.1159
  655W        W 4174   2.756   4.726   1.188  0.0146  0.2987 -0.0190
  656W        W 4175   2.348   4.251  10.766 -0.1152  0.1097  0.2188
  657W        W 4176   2.301   7.736   3.673  0.4274  0.0943  0.3942
  658W        W 4177   6.798   4.953  10.854  0.2913  0.0839 -0.1586
  659W        W 4178   1.140   0.756   3.199  0.1021 -0.0046 -0.0571
  660W        W 4179   2.975   1.452  12.483 -0.2167 -0.1528 -0.0888
  661W        W 4180   0.847   5.588  11.567  0.0254  0.1141 -0.0485
  662W        W 4181   3.664   1.456   1.541 -0.0204 -0.0080  0.2401
  663W        W 4182   2.813   2.971   2.904 -0.0720  0.1062 -0.1108
  664W        W 4183   5.882   8.363   1.401 -0.0838 -0.0863  0.1115
  665W        W 4184   7.484   7.634   8.735  0.1715  0.2775 -0.3637
  666W        W 4185   8.131   2.222   0.566  0.1830 -0.3584  0.0309
  667W        W 4186   3.632   3.167   3.382  0.0216 -0.0773 -0.1129
  668W        W 4187   8.202   0.107  11.877  0.2183 -0.1486  0.1752
  669W        W 4188   6.633   2.461   1.518  0.1415  0.2234 -0.3198
  670W        W 4189   9.400   6.506   3.213 -0.2415  0.0631  0.4487
  671W        W 4190   8.167   6.022   8.291 -0.0347 -0.0576 -0.1706
  672W        W 4191   7.757   4.307   0.109 -0.1507  0.1902 -0.2859
  673W        W 4192   1.234   6.478   0.472  0.3018  0.1225  0.0459
  674W        W 4193   3.101   3.435   8.598 -0.0548 -0.1092  0.2917
  675W        W 4194   1.772   2.231   9.836 -0.0620 -0.3659 -0.0560
  676W        W 4195   5.233   5.186  10.411  0.2187  0.2850 -0.1979
  677W        W 4196   4.984   1.989   9.975 -0.1573 -0.2191 -0.2067
  678W        W 4197   0.098   6.758   1.337  0.1918 -0.2975  0.0031
  679W        W 4198   0.977   7.389   1.888  0.0921 -0.2883 -0.0747
  680W        W 4199   0.934   2.461  10.918  0.0038  0.4682  0.3993
  681W        W 4200   4.188   0.765  12.278 -0.0763  0.1067  0.1558
  682W        W 4201   0.894   5.838  11.162 -0.5234 -0.0900 -0.1573
  683W        W 4202   4.175   3.892   0.998 -0.0595  0.2009 -0.1409
  684W        W 4203   4.227   5.102   3.690  0.0556  0.1607 -0.0953
  685W        W 4204   6.183   0.626   0.734 -0.0907  0.1040  0.2929
  686W        W 4205   5.305   2.964  10.959  0.1674 -0.1044 -0.1244
  687W        W 4206   8.721   4.893   9.003 -0.0596 -0.0435 -0.0209
  688W        W 4207   3.301   7.003   9.515  0.0164 -0.3951  0.0481
  689W        W 4208   7.486   6.851   2.610 -0.0936 -0.2778  0.4246
  690W        W 4209   4.445   0.887   2.768 -0.1477 -0.2054 -0.1126
  691W        W 4210   6.276   8.830   3.718  0.0074  0.2821  0.0284
  692W        W 4211   7.287   7.794   1.240  0.2302 -0.2202  0.2196
  693W        W 4212   9.502   1.931   1.832  0.3048 -0.0210 -0.1245
  694W        W 4213   6.245   1.430   0.445  0.4005  0.1952  0.0717
  695W        W 4214   5.566   7.979   1.453 -0.1629  0.2199  0.0609
  696W        W 4215   8.402   1.266   9.704 -0.3899 -0.0953  0.1239
  697W        W 4216   5.867   0.613  11.718 -0.2229 -0.1868  0.0131
  698W        W 4217   2.275   8.626   3.502 -0.0171  0.1897  0.0439
  699W        W 4218   3.333   3.521   4.311 -0.0563 -0.2986  0.1711
  700W        W 4219   7.888   0.231   2.944  0.3507 -0.0007  0.2251
  701W        W 4220   2.619   7.460   8.900 -0.2987 -0.2849 -0.4555
  702W        W 4221   9.616   4.746  11.199 -0.0887 -0.0296 -0.4520
  703W        W 4222   0.672   1.883  12.294  0.0684 -0.0438 -0.0173
  704W        W 4223   4.158   6.406  11.650  0.1419 -0.0565  0.1224
  705W        W 4224   4.227   3.494   3.556  0.0595 -0.0623  0.0270
  706W        W 4225   6.809   6.144   3.652 -0.0530 -0.1200 -0.0637
  707W        W 4226   8.577   0.468   2.943  0.0575 -0.0040  0.2307
  708W        W 4227   8.678   0.417   0.495 -0.0275 -0.0633 -0.0094
  709W        W 4228   7.000   9.583  11.186 -0.0289 -0.2188 -0.2547
  710W        W 4229   1.012   9.149   1.949  0.2907 -0.2447  0.0919
  711W        W 4230   1.775   2.301   0.454 -0.0452 -0.0496  0.1006
  712W        W 4231   7.375   4.714   0.699 -0.0069 -0.2491 -0.2069
  713W        W 4232   7.777   9.588  11.567 -0.1427 -0.2170 -0.0389
  714W        W 4233   2.655   5.056   9.595 -0.0486  0.1255 -0.2254
  715W        W 4234   7.133   6.324   2.903  0.0838 -0.2360  0.0766
  716W        W 4235   8.417   7.660   9.233  0.2639  0.2613  0.1376
  717W        W 4236   8.739   1.188  10.584  0.0971 -0.3942 -0.2318
  718W        W 4237   8.644   3.955   9.241 -0.0949  0.0618  0.0092
  719W        W 4238   5.497   9.119   3.843 -0.0177 -0.0958 -0.0210
  720W        W 4239   5.870   7.919   9.508 -0.0200  0.0084  0.1916
  721W        W 4240   6.320   5.507  11.569 -0.1368  0.0331  0.2325
  722W        W 4241   4.420   8.477   1.057  0.0576  0.2584  0.1620
  723W        W 4242   3.738   0.638   2.079 -0.1857  0.3529  0.4055
  724W        W 4243   7.800   8.514   1.838  0.0680  0.0232  0.0504
  725W        W 4244   5.694   7.146   4.052  0.0189  0.1916 -0.1830
  726W        W 4245   3.627   9.300   1.779 -0.1191  0.0023 -0.0885
  727W        W 4246   8.127   5.534   4.797  0.2849 -0.2086 -0.3859
  728W        W 4247   1.019   7.997   0.755 -0.1767 -0.0982 -0.0239
  729W        W 4248   7.055   5.982   0.586 -0.0616  0.3581  0.2159
  730W        W 4249   0.665   7.508  10.796 -0.0241  0.0311  0.2408
  731W        W 4250   8.148   9.273   0.517  0.0634 -0.2067 -0.0093
  732W        W 4251   3.146   0.798   9.608 -0.0427  0.0390 -0.2125
  733W        W 4252   3.710   8.179   2.519  0.2803 -0.2944 -0.1489
  734W        W 4253   6.836   4.898   0.090  0.0937  0.0663  0.3375
  735W        W 4254   0.186   0.185   0.412  0.0425  0.0875  0.0488
  736W        W 4255   2.766   9.015  10.486 -0.0548  0.3300 -0.0979
  737W        W 4256   8.306   2.055  12.285 -0.3061 -0.2045 -0.2281
  738W        W 4257   5.618   4.268   2.794  0.0570  0.0807  0.2055
  739W        W 4258   8.702   0.695   9.574 -0.1957 -0.0065 -0.1126
  740W        W 4259   4.154   7.811   4.092 -0.1792 -0.2284  0.1035
  741W        W 4260   2.308   1.496  11.586  0.2401  0.2937 -0.2338
  742W        W 4261   5.926   4.885   2.531  0.0763 -0.0779  0.1091
  743W        W 4262   2.104   8.260   2.463 -0.1616  0.2199 -0.1863
  744W        W 4263   7.507   0.711   3.144  0.4030  0.1253  0.1134
  745W        W 4264   4.635   9.059  12.272  0.0477  0.0347  0.0416
  746W        W 4265   3.113   7.986   2.563  0.0551 -0.1111 -0.1033
  747W        W 4266   0.346   2.640   0.701 -0.0468  0.1467 -0.1677
  748W        W 4267   1.250   1.687   1.270  0.1070  0.3661 -0.5565
  749W        W 4268   4.631   5.404   1.911  0.0221  0.1868 -0.1209
  750W        W 4269   8.190   4.146   0.857 -0.0350  0.0103  0.2679
  751W        W 4270   1.589   3.062   3.791 -0.2272  0.0403 -0.1225
  752W        W 4271   8.028   7.476  12.218 -0.0902 -0.0618 -0.0314
  753W        W 4272   7.559   1.073   2.631  0.1134  0.2805  0.0386
  754W        W 4273   2.130   5.653   3.797  0.2690  0.0623 -0.0465
  755W        W 4274   0.357   0.766  11.474  0.4145 -0.2154  0.0749
  756W        W 4275   9.540   6.033   2.258  0.3580 -0.1774  0.1276
  757W        W 4276   3.833   2.726   3.151 -0.2213 -0.1434 -0.2946
  758W        W 4277   9.272   3.292  11.844 -0.0868  0.4705 -0.0645
  759W        W 4278   4.143   2.704  11.798 -0.1823  0.0317 -0.0070
  760W        W 4279   7.908   5.001   9.186 -0.2388  0.0011  0.0075
  761W        W 4280   6.685   1.683   2.728 -0.5277  0.0099  0.2581
  762W        W 4281   4.687   5.747   2.282  0.2871 -0.1834 -0.1894
  763W        W 4282   1.977   6.136  11.824  0.1372  0.0272  0.0418
  764W        W 4283   2.712   1.136   9.617 -0.3750  0.3752 -0.0175
  765W        W 4284   6.273   1.734   4.008  0.0821 -0.0754  0.2412
  766W        W 4285   6.228   7.120   1.649 -0.2071 -0.0786  0.1360
  767W        W 4286   7.275   2.498   0.414 -0.2474 -0.2793 -0.2990
  768W        W 4287   1.173   0.731   2.281  0.0166  0.0891  0.2532
  769W        W 4288   3.483   8.109   3.064 -0.2097  0.3064 -0.1969
  770W        W 4289   6.110   1.477   4.504  0.3637 -0.0810 -0.1412
  771W        W 4290   9.113   5.280   2.233 -0.2435 -0.0215 -0.0510
  772W        W 4291   7.679   5.002   2.006  0.0416  0.1488  0.0703
  773W        W 4292   8.319   3.139   9.794 -0.0222  0.0247 -0.3525
  774W        W 4293   8.511   2.618   1.237  0.1221 -0.1194  0.0922
  775W        W 4294   0.434   7.510   8.956  0.1818 -0.2664  0.3014
  776W        W 4295   7.557   0.511   0.360 -0.2805  0.2120 -0.1091
  777W        W 4296   4.782   7.948   1.860  0.4300 -0.3056  0.3017
  778W        W 4297   5.263   4.316   9.721 -0.0091 -0.0340  0.0247
  779W        W 4298   8.014   1.613   9.870  0.1789 -0.0436 -0.1237
  780W        W 4299   6.021   2.591  10.624  0.2027 -0.0658 -0.3906
  781W        W 4300   8.989   5.139  11.849  0.0664  0.1971 -0.3497
  782W        W 4301   9.624   3.586   9.154  0.0902 -0.2653 -0.1970
  783W        W 4302   4.845   5.739   2.772  0.0099  0.2138  0.1248
  784W        W 4303   7.603   9.258   3.681  0.3209 -0.2135 -0.1817
  785W        W 4304   4.714   6.721   7.589  0.2087  0.0556  0.4555
  786W        W 4305   8.139   8.867  11.458  0.0180 -0.2364 -0.2244
  787W        W 4306   0.618   4.111   3.204  0.2318  0.0703  0.2121
  788W        W 4307   2.463   1.545  12.427  0.0564 -0.3293  0.3049
  789W        W 4308   6.426   0.791   7.832 -0.0014  0.1950 -0.2884
  790W        W 4309   7.611   5.618   1.266  0.0162 -0.2260  0.2735
  791W        W 4310   2.902   9.557   2.754 -0.1469 -0.8140  0.5152
  792W        W 4311   2.024   6.897   0.533 -0.1515  0.1493  0.2912
  793W        W 4312   7.642   1.679   9.520 -0.3076 -0.2436  0.1761
  794W        W 4313   1.124   7.072  12.056  0.1907  0.0251 -0.1658
  795W        W 4314   8.887   0.549   0.933  0.0581  0.0913  0.0532
  796W        W 4315   4.922   3.406   3.044  0.3352  0.1902 -0.2425
  797W        W 4316   7.969   8.879  12.063  0.1881 -0.0808 -0.0571
  798W        W 4317   1.290   7.494  10.109  0.0152  0.0298 -0.2495
  799W        W 4318   1.733   6.743  11.003  0.0208  0.4174  0.0049
  800W        W 4319   5.574   0.957   9.689 -0.0623 -0.3614  0.0794
  801W        W 4320   5.950   5.779  10.185  0.1669 -0.1207  0.1060
  802W        W 4321   7.919   5.884  11.888  0.1105  0.0473  0.1407
  803W        W 4322   7.536   5.851   0.649  0.0331  0.1178  0.2176
  804W        W 4323   1.238   1.216   2.475  0.0178 -0.3267 -0.1515
  805W        W 4324   0.715   1.009   3.242  0.1174  0.1637  0.0304
  806W        W 4325   1.969   3.587   9.750 -0.0459  0.0092  0.0080
  807W        W 4326   4.522   7.680   9.586 -0.4100  0.1447 -0.1097
  808W        W 4327   5.939   5.850   0.736  0.1346 -0.2150  0.2925
  809W        W 4328   7.353   8.823  10.710  0.3132 -0.0659 -0.0949
  810W        W 4329   6.899   8.956   9.657  0.0020  0.2616 -0.3452
  811W        W 4330   9.231   5.652   8.826 -0.0802 -0.2589  0.1763
  812W        W 4331   8.820   7.116   3.164  0.2221  0.1837 -0.0572
  813W        W 4332   5.591   4.978  11.348  0.0340 -0.2487 -0.1339
  814W        W 4333   5.833   6.036  11.615 -0.1311  0.1954 -0.1136
  815W        W 4334   8.303   7.962   8.136  0.1218  0.0064  0.2521
  816W        W 4335   0.492   2.266   1.031  0.0367 -0.2149 -0.0018
  817W        W 4336   7.955   4.798   0.876 -0.3151  0.1270 -0.1926
  818W        W 4337   2.744   5.562   9.410 -0.0242 -0.0696  0.1702
  819W        W 4338   0.913   4.774   1.108  0.2536  0.0948  0.0376
  820W        W 4339   3.364   2.150  11.806 -0.0318 -0.0333  0.0736
  821W        W 4340   4.980   6.114   9.666  0.0642  0.0793 -0.0812
  822W        W 4341   9.514   1.571   2.905  0.1693 -0.0962 -0.1135
  823W        W 4342   6.307   1.835   2.285  0.1179  0.1365 -0.0728
  824W        W 4343   9.111   7.679   8.672 -0.3628  0.1009 -0.0653
  825W        W 4344   7.793   2.448   1.544 -0.2293 -0.1159  0.1026
  826W        W 4345   6.205   7.907   8.955  0.2673 -0.1357  0.2920
  827W        W 4346   5.073   9.147   0.394 -0.0312 -0.0970  0.1469
  828W        W 4347   0.552   9.016   2.387  0.2041  0.0238  0.1348
  829W        W 4348   5.736   2.310   1.946 -0.0425 -0.4241 -0.0380
  830W        W 4349   2.508   5.583   1.195 -0.1875  0.1687 -0.0067
  831W        W 4350   2.369   5.982  12.074 -0.0714 -0.1565  0.0234
  832W        W 4351   8.914   1.828   8.889  0.0535 -0.5217  0.1771
  833W        W 4352   5.380   3.002   8.681 -0.3009  0.3174 -0.0416
  834W        W 4353   7.516   9.342   9.346  0.1518  0.2230 -0.1432
  835W        W 4354   5.080   0.790   0.371 -0.0660 -0.0273  0.1260
  836W        W 4355   3.573   5.440   2.952  0.2434  0.1260  0.1941
  837W        W 4356   4.136   3.719   0.100 -0.0172 -0.1810 -0.5252
  838W        W 4357   5.687   6.458  10.052 -0.0223 -0.2112 -0.0778
  839W        W 4358   8.238   5.153   3.235  0.1928  0.1049 -0.1948
  840W        W 4359   8.824   0.806   0.114 -0.2327  0.1162  0.0232
  841W        W 4360   0.244   9.307  10.967 -0.0772 -0.2573 -0.0671
  842W        W 4361   5.893   2.055   9.649 -0.1216  0.1872 -0.0669
  843W        W 4362   9.005   8.524   1.588 -0.0576  0.2161  0.1367
  844W        W 4363   3.632   9.408   9.992  0.2154  0.1286  0.1448
  845W        W 4364   8.470   3.446   2.612  0.1333  0.2413  0.0362
  846W        W 4365   9.576   4.016   0.249  0.1532 -0.2742 -0.1305
  847W        W 4366   0.626   3.837   0.956 -0.1387 -0.1023 -0.2545
  848W        W 4367   6.721   2.338  10.262  0.3253  0.0896 -0.3716
  849W        W 4368   4.295   0.407  10.112  0.0800  0.0729 -0.2615
  850W        W 4369   6.602   2.538   8.824 -0.1210  0.4708 -0.2816
  851W        W 4370   6.484   2.055   8.496  0.1446  0.1769 -0.4606
  852W        W 4371   1.813   7.971   1.434  0.0376 -0.2302  0.0310
  853W        W 4372   7.696   5.913   8.096  0.3159 -0.0914  0.0215
  854W        W 4373   6.470   1.261   1.569 -0.1189  0.2536 -0.1332
  855W        W 4374   4.585   6.867  11.688 -0.3396 -0.2158  0.0762
  856W        W 4375   9.592   3.563  10.448  0.0749 -0.0818 -0.0411
  857W        W 4376   7.129   2.420   9.966  0.1210  0.1354  0.0809
  858W        W 4377   7.129   1.247   2.003  0.3282  0.1358  0.0160
  859W        W 4378   4.188   0.851   1.097 -0.1652 -0.1611  0.2290
  860W        W 4379   0.046   4.794  10.300  0.0975 -0.1795 -0.2821
  861W        W 4380   5.958   1.562   1.472 -0.1136 -0.2012 -0.2583
  862W        W 4381   3.834   6.674  11.421 -0.0727 -0.2127  0.0581
  863W        W 4382   6.614   2.717   4.117 -0.3748 -0.2164 -0.1518
  864W        W 4383   0.758   6.435   3.310  0.0290  0.0125 -0.0770
  865W        W 4384   0.809   0.774   9.824  0.1472 -0.1991 -0.3168
  866W        W 4385   5.267   4.086   1.876 -0.1289 -0.2036 -0.0712
  867W        W 4386   2.496   1.869   0.501  0.0209  0.3929 -0.1019
  868W        W 4387   0.392   3.774  10.392 -0.1458 -0.1340  0.1016
  869W        W 4388   3.337   3.675   3.343 -0.0382  0.0302  0.0964
  870W        W 4389   2.631   1.624   2.514 -0.1584 -0.0566  0.0786
  871W        W 4390   3.899   1.410   0.831  0.2568 -0.1224 -0.2134
  872W        W 4391   9.214   8.678   2.805 -0.0210 -0.1407  0.4497
  873W        W 4392   2.571   7.509   1.550  0.0503 -0.0805 -0.0092
  874W        W 4393   6.374   4.771   0.959 -0.1401  0.3321 -0.1450
  875W        W 4394   0.745   7.047   0.555 -0.1520 -0.1270  0.1015
  876W        W 4395   3.219   4.022  11.318 -0.2264  0.1887 -0.2982
  877W        W 4396   6.841   3.748   3.405 -0.1200 -0.1357  0.1607
  878W        W 4397   2.338   8.766  10.730  0.0014 -0.0107  0.1466
  879W        W 4398   7.134   1.518   8.940  0.2182 -0.1199  0.0945
  880W        W 4399   8.363   8.507  12.239 -0.0024  0.1023  0.2414
  881W        W 4400   6.979   2.908   9.038  0.1036  0.0820 -0.0345
  882W        W 4401   8.127   8.127   3.912  0.0671  0.1682  0.1633
  883W        W 4402   1.712   7.843   3.376 -0.3106 -0.0912 -0.2848
  884W        W 4403   3.467   1.899  11.247 -0.0381 -0.0560 -0.0705
  885W        W 4404   4.338   3.716   3.075 -0.0283 -0.0043 -0.1834
  886W        W 4405   4.071   6.718  11.993 -0.0705 -0.0735 -0.1224
  887W        W 4406   7.561   9.466   3.109 -0.1309  0.1538 -0.4406
  888W        W 4407   5.107   3.723  12.504  0.5546 -0.0063  0.1276
  889W        W 4408   3.851   0.158  10.287 -0.0695  0.0420 -0.0868
  890W        W 4409   2.005   1.962  10.299 -0.1018  0.0948 -0.0515
  891W        W 4410   8.320   8.447   2.961  0.1028  0.0042 -0.1362
  892W        W 4411   0.548   0.475   0.135 -0.1199 -0.0693  0.4451
  893W        W 4412   9.476   4.919   9.425 -0.0570  0.0943  0.3253
  894W        W 4413   4.170   1.324   1.322 -0.0395 -0.0284  0.2744
  895W        W 4414   7.322   3.802   3.530 -0.0136 -0.0180 -0.5251
  896W        W 4415   1.679   8.814   3.065  0.1663  0.1766  0.0872
  897W        W 4416   1.281   9.550   9.471  0.1880 -0.2276 -0.1767
  898W        W 4417   8.827   9.598   2.566  0.0442 -0.1070 -0.2602
  899W        W 4418   5.741   4.816  10.935  0.3197  0.0662  0.0101
  900W        W 4419   4.263   5.040   0.237  0.0979  0.0351  0.0748
  901W        W 4420   0.889   9.418  12.106 -0.1680  0.0297  0.0209
  902W        W 4421   4.897   8.618   0.514 -0.1444 -0.0781 -0.1706
  903W        W 4422   4.700   2.975  11.209  0.2116  0.3853 -0.2839
  904W        W 4423   3.608   3.213   9.462 -0.1852  0.3448  0.3268
  905W        W 4424   2.242   1.940   9.390 -0.0826 -0.1577  0.1240
  906W        W 4425   0.577   0.996   0.315 -0.0485 -0.2549 -0.1207
  907W        W 4426   6.319   3.658  11.507  0.0259  0.0343  0.2133
  908W        W 4427   2.449   2.510   9.242  0.1214  0.2508 -0.0855
  909W        W 4428   1.963   7.836   9.577 -0.1035 -0.0047  0.0715
  910W        W 4429   3.190   5.999   7.856 -0.1561  0.1866  0.0830
  911W        W 4430   6.527   5.760  10.540  0.3879 -0.3341 -0.0349
  912W        W 4431   4.138   5.374   1.661 -0.0613 -0.0154  0.1753
  913W        W 4432   8.152   4.895   1.326  0.0693 -0.4153 -0.2461
  914W        W 4433   3.951   9.631  11.825 -0.0862 -0.1428  0.0877
  915W        W 4434   4.325   2.188   1.144 -0.1198 -0.1433 -0.1715
  916W        W 4435   3.499   4.685  12.458  0.3366  0.1380  0.0888
  917W        W 4436   1.500   7.910   9.849  0.0810  0.3059  0.1813
  918W        W 4437   6.438   0.786  11.377 -0.1766  0.2026 -0.1707
  919W        W 4438   0.601   8.722   0.404 -0.0106  0.4773 -0.1671
  920W        W 4439   4.572   8.127   4.001 -0.2099 -0.0906  0.0128
  921W        W 4440   7.850   7.387   2.883 -0.2023 -0.0094  0.1797
  922W        W 4441   5.914   7.756  12.053 -0.0257 -0.0847  0.2205
  923W        W 4442   9.489   7.852  11.519  0.2948 -0.0090 -0.2979
  924W        W 4443   8.063   3.614  11.359  0.1092 -0.1852 -0.1007
  925W        W 4444   3.601   0.024   8.451  0.0226  0.1308  0.0974
  926W        W 4445   5.336   2.145   9.437  0.1331 -0.1191  0.4031
  927W        W 4446   6.038   8.953  12.514  0.0440  0.2440  0.0323
  928W        W 4447   0.294   3.066   1.944 -0.3495 -0.0675 -0.0088
  929W        W 4448   9.459   7.792   2.097  0.5153  0.0256  0.2977
  930W        W 4449   5.506   8.725   9.062  0.0239 -0.0622  0.1158
  931W        W 4450   9.139   5.098   8.696  0.1796  0.1726 -0.1718
  932W        W 4451   5.750   9.270  10.556 -0.1031  0.0197  0.2658
  933W        W 4452   0.057   2.546   9.064  0.0571 -0.0874  0.0467
  934W        W 4453   5.980   4.431  10.736  0.2443  0.0091  0.0313
  935W        W 4454   6.800   1.643   1.216 -0.0776 -0.1077  0.2981
  936W        W 4455   9.402   4.908  11.930 -0.0523  0.0573  0.1357
  937W        W 4456   0.265   2.859   9.737  0.0803  0.0804 -0.2940
  938W        W 4457   0.729   4.175  10.366  0.2512  0.3727 -0.3346
  939W        W 4458   6.608   9.026   9.092  0.3964  0.0247 -0.0954
  940W        W 4459   3.593   1.108  10.193 -0.1862 -0.3542  0.0450
  941W        W 4460   4.231   6.462   9.957 -0.1724 -0.2199 -0.1105
  942W        W 4461   2.573   1.044   1.166 -0.1606 -0.4190  0.1103
  943W        W 4462   5.997   1.392   2.284 -0.1975 -0.2445 -0.0042
  944W        W 4463   0.263   0.188   3.106 -0.1375  0.1090 -0.0421
  945W        W 4464   3.190   6.136   2.638  0.1593  0.0551  0.2880
  946W        W 4465   2.802   4.140   9.853 -0.3101  0.0545  0.0646
  947W        W 4466   6.817   2.588  11.225  0.0330  0.0377  0.1641
  948W        W 4467   0.357   6.002  10.373 -0.0330  0.2026  0.0320
  949W        W 4468   7.238   2.650   9.517  0.0405  0.0923 -0.0588
  950W        W 4469   6.074   5.621   2.547  0.1540  0.1587  0.1833
  951W        W 4470   5.290   6.088  12.501 -0.0147  0.1706  0.2863
  952W        W 4471   5.286   5.516   2.988  0.0811  0.0960  0.1378
  953W        W 4472   8.488   8.875  10.866 -0.0666 -0.4092 -0.1048
  954W        W 4473   1.911   1.706   3.190  0.0572  0.2654 -0.0306
  955W        W 4474   2.546   0.473  10.519 -0.1911 -0.0383 -0.0191
  956W        W 4475   1.757   6.565   2.331 -0.5615 -0.1052 -0.1430
  957W        W 4476   8.876   2.054   9.500  0.2125 -0.0610  0.1738
  958W        W 4477   2.964   7.006   9.131 -0.1050  0.0680 -0.0046
  959W        W 4478   7.879   8.369  11.233  0.2686 -0.1385 -0.3826
  960W        W 4479   7.422   3.972   1.463  0.3398 -0.3163  0.1749
  961W        W 4480   7.512   0.408  12.475 -0.2253 -0.2047  0.2488
  962W        W 4481   7.514   5.682   0.091 -0.3034 -0.1432 -0.0324
  963W        W 4482   6.257   4.003   9.241 -0.0559 -0.0353  0.2936
  964W        W 4483   9.036   3.617   4.662 -0.2614  0.0084  0.0627
  965W        W 4484   8.977   8.797   3.504  0.0239 -0.0853 -0.0910
  966W        W 4485   2.654   2.807   0.546 -0.3921  0.2447  0.3992
  967W        W 4486   6.934   5.762  10.264  0.2406 -0.0336 -0.2122
  968W        W 4487   9.237   9.462  12.559 -0.0037  0.0860 -0.0561
  969W        W 4488   8.278   2.054  10.565 -0.1731 -0.1146 -0.4698
  970W        W 4489   8.662   5.018   2.346 -0.0973 -0.2432  0.2473
  971W        W 4490   2.011   6.728   1.422 -0.4356  0.0115  0.0283
  972W        W 4491   1.786   1.260  11.468 -0.1709 -0.1662 -0.0714
  973W        W 4492   7.213   3.959   3.071  0.1267  0.3218  0.0929
  974W        W 4493   7.935   5.811   0.327 -0.2864 -0.2579  0.1391
  975W        W 4494   1.466   4.959   9.256 -0.1358  0.1381  0.2824
  976W        W 4495   0.560   8.672  12.487  0.1763  0.1329 -0.1283
  977W        W 4496   3.491   8.675  10.391 -0.1711  0.1309  0.0059
  978W        W 4497   6.841   0.091   8.994 -0.2155 -0.0880  0.0548
  979W        W 4498   0.309   2.636   3.135  0.1107  0.0042 -0.2790
  980W        W 4499   7.740   0.300  10.096 -0.0532 -0.0069 -0.4321
  981W        W 4500   2.715   9.669   3.222  0.2980 -0.1158 -0.0765
  982W        W 4501   4.491   8.359   3.541  0.0633 -0.0182  0.1403
  983W        W 4502   3.865   1.381   8.772 -0.0420 -0.2607 -0.0966
  984W        W 4503   5.967   6.705   3.407  0.3537 -0.3093 -0.0092
  985W        W 4504   0.564   6.202   4.635  0.1042  0.0202  0.1160
  986W        W 4505   9.016   8.470   3.973 -0.0563  0.1269 -0.1253
  987W        W 4506   3.467   6.712  10.579 -0.4147  0.1279 -0.0868
  988W        W 4507   1.575   7.772  10.477 -0.2702 -0.0335 -0.2153
  989W        W 4508   3.268   3.567   2.572  0.1262 -0.0103  0.2517
  990W        W 4509   2.367   3.885   9.581  0.2247 -0.4723  0.2087
  991W        W 4510   1.891   8.064  10.736  0.5156  0.0307 -0.0489
  992W        W 4511   0.544   5.652   9.275 -0.3027 -0.0215 -0.0326
  993W        W 4512   9.609   5.186   1.132 -0.2074  0.0616 -0.0764
  994W        W 4513   4.144   0.949   8.726 -0.0572  0.4258  0.0738
  995W        W 4514   4.831   6.509   1.970 -0.1464  0.0779  0.3085
  996W        W 4515   3.260   9.131  11.680 -0.3329 -0.2088  0.0826
  997W        W 4516   5.187   8.180   1.883 -0.0950  0.0570 -0.4133
  998W        W 4517   5.008   5.266  12.226  0.1418  0.1470 -0.0154
  999W        W 4518   0.163   6.106  11.760 -0.2681 -0.2321  0.2281
 1000W        W 4519   6.011   9.307   9.519 -0.2126 -0.1276 -0.0950
 1001W        W 4520   7.820   9.236   8.664  0.1906  0.2017  0.1925
 1002W        W 4521   6.600   6.504  11.957 -0.1736 -0.1949  0.1337
 1003W        W 4522   1.616   9.164   2.497  0.0864  0.2093 -0.0488
 1004W        W 4523   8.206   3.894   2.751 -0.3623  0.0953 -0.1301
 1005W        W 4524   6.465   8.944  10.097  0.2020 -0.0279  0.0244
 1006W        W 4525   5.341   3.167   8.131 -0.1075  0.1106 -0.0152
 1007W        W 4526   3.910   2.347   0.766 -0.0341  0.0777  0.3018
 1008W        W 4527   2.021   1.796   0.167 -0.0255  0.1632  0.4430
 1009W        W 4528   5.593   3.866   2.184  0.2071  0.0967 -0.0977
 1010W        W 4529   7.907   2.004   0.067  0.1366 -0.1439 -0.1331
 1011W        W 4530   1.533   6.210   2.656  0.2035  0.1019 -0.1124
 1012W        W 4531   3.130   7.345   9.853  0.0959 -0.2428 -0.1372
 1013W        W 4532   9.319   7.684   9.605 -0.2175 -0.0642 -0.2085
 1014W        W 4533   8.999   3.349   8.039  0.0910  0.0871  0.1954
 1015W        W 4534   9.588   7.528   0.199 -0.1435 -0.0318 -0.1659
 1016W        W 4535   1.904   5.344   9.356 -0.0918 -0.1329 -0.0843
 1017W        W 4536   4.475   4.176  10.765 -0.2811 -0.2144  0.1052
 1018W        W 4537   7.536   1.006  10.841  0.2760 -0.0547  0.0989
 1019W        W 4538   2.488   4.852   0.764  0.1059 -0.1563 -0.2270
 1020W        W 4539   8.457   7.702  12.229 -0.5149 -0.3798  0.1673
 1021W        W 4540   3.750   4.524   8.768  0.2301  0.2341 -0.4349
 1022W        W 4541   1.769   2.896   2.508 -0.0678  0.0957 -0.1387
 1023W        W 4542   4.094   9.132   3.152 -0.1881 -0.0720 -0.4400
 1024W        W 4543   3.045   9.457  10.713  0.1352  0.4314 -0.0808
 1025W        W 4544   7.271   7.370   2.833 -0.0046  0.3645 -0.1319
 1026W        W 4545   0.770   3.661  10.114  0.2843  0.0029  0.0301
 1027W        W 4546   0.407   2.178   2.257  0.0188 -0.1484  0.0055
 1028W        W 4547   4.090   4.988   4.229  0.1135  0.0686  0.0728
 1029W        W 4548   1.589   6.610   0.185 -0.3178 -0.2649  0.1740
 1030W        W 4549   3.113   8.081   0.813  0.1556 -0.0669  0.2061
 1031W        W 4550   3.853   3.450  10.795  0.0336  0.1232 -0.0664
 1032W        W 4551   7.572   0.295   2.128 -0.1732 -0.0602 -0.2340
 1033W        W 4552   1.181   1.720   2.747 -0.3104  0.2042 -0.0443
 1034W        W 4553   0.872   6.426   4.305  0.2217  0.2606 -0.2772
 1035W        W 4554   8.201   6.735  10.461  0.0065 -0.2174 -0.2533
 1036W        W 4555   3.897   4.081   8.598  0.0047  0.3875  0.3639
 1037W        W 4556   9.239   7.369   1.906 -0.3169  0.4024  0.1627
 1038W        W 4557   4.360   8.599   9.173 -0.3567 -0.2421 -0.1111
 1039W        W 4558   1.138   1.207   3.443  0.0061 -0.1784  0.2212
 1040W        W 4559   7.594   1.668  12.471  0.2435  0.5848  0.0596
 1041W        W 4560   3.840   0.720  10.903  0.1915 -0.1967  0.0648
 1042W        W 4561   0.623   3.909   3.710  0.0090 -0.2685  0.5686
 1043W        W 4562   6.406   4.548  11.495  0.2518 -0.2946  0.3049
 1044W        W 4563   1.526   1.623  11.293  0.1831  0.2550 -0.0220
 1045W        W 4564   6.037   8.699   2.868  0.3425 -0.0948 -0.1277
 1046W        W 4565   3.817   1.798   1.185  0.1772  0.1900 -0.1116
 1047W        W 4566   6.416   6.088   2.308 -0.3061  0.0855 -0.0060
 1048W        W 4567   0.316   8.294   3.062 -0.2479  0.0392 -0.1085
 1049W        W 4568   2.244   4.835  11.738 -0.1615  0.0064  0.2422
 1050W        W 4569   5.836   6.780  12.514  0.1066 -0.1823  0.1156
 1051W        W 4570   3.432   4.425   3.718 -0.1730  0.0933  0.0637
 1052W        W 4571   8.489   5.666  12.071  0.2105  0.2594 -0.1462
 1053W        W 4572   2.322   5.884   2.041 -0.1750  0.4719  0.2475
 1054W        W 4573   4.344   6.682   1.160 -0.3613  0.0665  0.1598
 1055W        W 4574   4.418   2.040   3.125 -0.0977  0.0879  0.0003
 1056W        W 4575   7.550   2.060   2.359 -0.0555 -0.1440 -0.1926
 1057W        W 4576   3.090   5.979   3.357  0.1663  0.0634 -0.0376
 1058W        W 4577   3.547   8.330   0.785  0.1473 -0.1448  0.1807
 1059W        W 4578   0.336   4.083   0.598 -0.3168  0.5081 -0.2197
 1060W        W 4579   8.294   5.658   8.612 -0.2046  0.2261 -0.3067
 1061W        W 4580   7.231   4.274   3.470  0.0117 -0.1796 -0.1302
 1062W        W 4581   9.086   7.814   3.117  0.2246 -0.0675  0.0710
 1063W        W 4582   0.542   4.371   1.025  0.0528  0.1853  0.1267
 1064W        W 4583   0.748   4.510   3.497 -0.1349  0.0663  0.0790
 1065W        W 4584   3.355   8.330   2.201  0.0820  0.0226  0.1696
 1066W        W 4585   9.569   5.713  11.389 -0.0518  0.0307  0.0809
 1067W        W 4586   4.785   6.988  11.191  0.1479  0.1089  0.1551
 1068W        W 4587   5.485   0.372  11.262  0.1384 -0.1835  0.1291
 1069W        W 4588   6.437   0.082   3.638 -0.2632 -0.3314 -0.1209
 1070W        W 4589   2.148   5.074  12.218 -0.1467 -0.1740  0.1122
 1071W        W 4590   4.911   9.380   9.823 -0.0757  0.1925 -0.0708
 1072W        W 4591   1.819   7.213  10.814 -0.0299  0.2540  0.0749
 1073W        W 4592   8.835   4.391   4.319  0.2353 -0.1410 -0.1882
 1074W        W 4593   2.496   7.872  11.379  0.1552  0.1398 -0.0605
 1075W        W 4594   5.269   5.046   3.179  0.0186 -0.1344  0.0202
 1076W        W 4595   6.625   4.352   1.150 -0.0065  0.1086  0.0765
 1077W        W 4596   3.720   1.417   4.297  0.1943  0.1520  0.1574
 1078W        W 4597   0.701   2.842  12.488  0.1510  0.1302  0.0220
 1079W        W 4598   5.033   4.783  12.227  0.3976  0.0662  0.2965
 1080W        W 4599   5.065   2.365  12.235 -0.2069  0.1547 -0.1238
 1081W        W 4600   2.076   8.018   2.966  0.1516  0.3293  0.1069
 1082W        W 4601   4.548   4.066   9.748 -0.1299 -0.0723 -0.1754
 1083W        W 4602   3.796   5.936   3.907  0.1074  0.1996 -0.0082
 1084W        W 4603   0.620   9.608   3.314  0.2815 -0.2204  0.2815
 1085W        W 4604   6.601   3.196   0.199  0.1096 -0.1041  0.1448
 1086W        W 4605   8.621   0.239  12.094  0.0287 -0.0165  0.3359
 1087W        W 4606   6.812   1.099   0.937 -0.1368 -0.0477  0.2711
 1088W        W 4607   3.099   7.535   3.507 -0.2550  0.0155  0.1307
 1089W        W 4608   3.917   4.942   4.794  0.2754 -0.2397  0.2819
 1090W        W 4609   4.224   6.403   8.996 -0.1916  0.1326 -0.0167
 1091W        W 4610   7.363   6.077   3.774 -0.0291  0.1000  0.1970
 1092W        W 4611   2.429   1.565   1.654 -0.0956 -0.0957 -0.1261
 1093W        W 4612   7.949   1.517   3.235 -0.1796 -0.0544  0.3622
 1094W        W 4613   8.741   6.511  11.217 -0.0867 -0.1535 -0.0412
 1095W        W 4614   5.426   6.483  12.243  0.0952  0.0494 -0.0005
 1096W        W 4615   0.734   0.371  11.411  0.0160 -0.1412 -0.0836
 1097W        W 4616   3.962   2.270   9.186 -0.0111  0.4047 -0.0504
 1098W        W 4617   0.416   6.847   0.177  0.4838  0.0073 -0.1384
 1099W        W 4618   1.339   8.146   3.257 -0.2801 -0.0505 -0.1816
 1100W        W 4619   3.521   9.191   2.205  0.1877  0.3662 -0.0858
 1101W        W 4620   2.532   0.171  11.430  0.0782 -0.0323  0.1109
 1102W        W 4621   7.682   6.711  11.844  0.1962 -0.1332  0.2759
 1103W        W 4622   8.908   7.854   2.600  0.1068 -0.0883  0.0178
 1104W        W 4623   5.275   7.145   8.780  0.0124 -0.0506  0.1011
 1105W        W 4624   6.418   9.275  12.280  0.2486  0.1693 -0.2413
 1106W        W 4625   4.482   4.646   2.764 -0.2104  0.0361 -0.2680
 1107W        W 4626   2.675   0.390   2.879  0.0067 -0.4202  0.0413
 1108W        W 4627   3.340   0.735  12.161  0.2014  0.2231 -0.3143
 1109W        W 4628   9.123   2.476  10.226  0.1477 -0.0900  0.2005
 1110W        W 4629   3.305   8.289   9.170  0.2090  0.2879  0.0077
 1111W        W 4630   8.938   6.640   3.402 -0.1971  0.1287 -0.0416
 1112W        W 4631   8.816   7.069  10.372 -0.2760 -0.2077 -0.0117
 1113W        W 4632   8.474   0.995   2.205  0.0866  0.0524 -0.2367
 1114W        W 4633   4.976   3.252  12.134  0.2180  0.2030  0.0435
 1115W        W 4634   6.491   9.094   2.100  0.3127  0.0347 -0.0034
 1116W        W 4635   1.267   2.104   0.259  0.2587  0.1345 -0.0251
 1117W        W 4636   6.478   6.638  10.055 -0.2716  0.0977  0.0971
 1118W        W 4637   4.616   6.059   4.238 -0.1826  0.0688 -0.0758
 1119W        W 4638   0.959   4.618   0.612  0.0408  0.1441 -0.0778
 1120W        W 4639   3.944   9.004  11.075  0.1716 -0.0793 -0.1411
 1121W        W 4640   8.062   4.081   1.901  0.0330  0.3232 -0.0004
 1122W        W 4641   6.167   4.378   3.641 -0.0426 -0.0283 -0.0429
 1123W        W 4642   5.657   5.932   1.100  0.1041  0.1038  0.0431
 1124W        W 4643   3.772   6.491   2.811 -0.1560  0.1689 -0.1679
 1125W        W 4644   1.981   5.556   0.758 -0.1614  0.2438  0.0104
 1126W        W 4645   7.404   4.804  11.218  0.1463  0.0844 -0.0905
 1127W        W 4646   0.139   4.858  11.660 -0.2190 -0.0350  0.3340
 1128W        W 4647   7.814   0.839   8.495  0.0714 -0.2171 -0.2971
 1129W        W 4648   7.942   0.783   0.605  0.0431 -0.0129 -0.0290
 1130W        W 4649   3.191   7.616   4.076  0.0732  0.0301  0.4445
 1131W        W 4650   4.295   1.154   3.222  0.0871 -0.0542  0.1628
 1132W        W 4651   6.522   3.591   9.628 -0.1986  0.1235  0.0886
 1133W        W 4652   0.191   0.221  11.361 -0.0743  0.0361  0.2011
 1134W        W 4653   0.455   3.244  12.056 -0.1999 -0.1060 -0.1146
 1135W        W 4654   4.228   4.531   0.446 -0.0547  0.1165 -0.0481
 1136W        W 4655   5.351   9.166   8.346 -0.0267 -0.0421 -0.2468
 1137W        W 4656   8.777   0.055  11.064 -0.0892 -0.2225 -0.1327
 1138W        W 4657   9.586   2.634   0.387  0.1966  0.0147  0.0146
 1139W        W 4658   8.982   8.604  11.626  0.0958  0.0519 -0.4887
 1140W        W 4659   6.980   4.481   2.983 -0.3367  0.1125 -0.0985
 1141W        W 4660   1.892   6.828   1.903 -0.5998  0.2039 -0.0675
 1142W        W 4661   4.931   1.892   1.766  0.0801  0.0070 -0.1092
 1143W        W 4662   3.462   6.212   0.362  0.2590 -0.0218 -0.2541
 1144W        W 4663   6.316   1.739   0.993  0.1975  0.4096  0.0170
 1145W        W 4664   0.529   2.333   1.592  0.0780  0.0408 -0.5669
 1146W        W 4665   1.240   2.630   0.507  0.0177 -0.0881 -0.4681
 1147W        W 4666   0.634   6.411  10.544 -0.1751 -0.1925 -0.1419
 1148W        W 4667   7.775   4.812  12.490 -0.2913 -0.1396  0.2265
 1149W        W 4668   1.936   0.824  11.599 -0.1960  0.3856 -0.0794
 1150W        W 4669   7.507   9.047   8.951  0.3501  0.1618 -0.0131
 1151W        W 4670   3.895   1.820   8.943 -0.1529  0.2219 -0.4583
 1152W        W 4671   3.823   0.649  10.386 -0.0980  0.0105  0.0213
 1153W        W 4672   8.807   0.905   0.600 -0.1143 -0.0690  0.1082
 1154W        W 4673   7.175   1.283   3.708 -0.0371  0.0716  0.0565
 1155W        W 4674   7.588   3.426   0.212 -0.0174 -0.0579 -0.0200
 1156W        W 4675   9.072   1.220   0.115  0.1567 -0.1452  0.2797
 1157W        W 4676   9.323   3.453   9.997 -0.1812  0.3885 -0.0740
 1158W        W 4677   8.266   3.887  10.338  0.0041  0.2734  0.0244
 1159W        W 4678   7.787   3.905   2.341  0.2069 -0.0959  0.0490
 1160W        W 4679   5.437   4.801   2.710  0.2677 -0.0317 -0.1179
 1161W        W 4680   6.249   3.111  10.482  0.0338  0.1033 -0.1725
 1162W        W 4681   9.260   1.774  11.911 -0.0806 -0.1391 -0.1554
 1163W        W 4682   8.880   8.740  12.167 -0.0343 -0.2660 -0.0772
 1164W        W 4683   4.760   6.066  10.126  0.1111  0.1345  0.0786
 1165W        W 4684   9.354   0.809  11.400  0.0303 -0.0880 -0.1242
 1166W        W 4685   6.314   0.113   9.706  0.3088  0.3424  0.0817
 1167W        W 4686   1.118   4.887   8.328 -0.0764 -0.0156  0.0635
 1168W        W 4687   6.889   1.089   8.698  0.2836  0.0044 -0.4716
 1169W        W 4688   0.328   8.959   1.663  0.2232 -0.2074  0.2373
 1170W        W 4689   8.463   4.388   9.071  0.0139 -0.1036 -0.1053
 1171W        W 4690   3.699   8.370  11.747 -0.2111  0.1266  0.1518
 1172W        W 4691   0.652   7.697   4.622  0.1773  0.0132 -0.0107
 1173W        W 4692   5.804   3.050   9.334  0.2736 -0.0993 -0.1641
 1174W        W 4693   3.452   2.234  10.799 -0.1087  0.1599 -0.0138
 1175W        W 4694   9.681   6.370   1.746 -0.0752  0.2520  0.1540
 1176W        W 4695   7.809   7.887   1.451  0.0418  0.1780 -0.1901
 1177W        W 4696   2.678   5.656  10.787 -0.1932  0.0134 -0.0999
 1178W        W 4697   1.533   1.180  12.515  0.3237  0.1237 -0.2158
 1179W        W 4698   5.809   3.383   2.970  0.3713  0.0752 -0.0159
 1180W        W 4699   1.731   9.588   9.672  0.0887  0.2936  0.0430
 1181W        W 4700   8.027   6.368   4.236  0.3120 -0.3525 -0.3766
 1182W        W 4701   3.526   2.785   9.168 -0.0338 -0.0120 -0.3290
 1183W        W 4702   2.815   2.297   0.456 -0.0241  0.4192 -0.1592
 1184W        W 4703   8.305   2.721   0.745  0.0739 -0.0151 -0.2434
 1185W        W 4704   1.221   1.379   0.439  0.4061 -0.1487  0.0546
 1186W        W 4705   4.597   3.710   4.113  0.3608 -0.2784 -0.0546
 1187W        W 4706   1.399   2.918   8.949 -0.0468 -0.2224 -0.1157
 1188W        W 4707   1.029   4.595   1.528  0.0394  0.0665 -0.0199
 1189W        W 4708   2.263   6.878   4.223 -0.0780 -0.0470 -0.0810
 1190W        W 4709   8.708   4.660  11.418 -0.2062 -0.1925  0.0018
 1191W        W 4710   8.911   8.273   2.920  0.1267  0.0895  0.4205
 1192W        W 4711   0.245   2.381   9.535  0.2664  0.2508 -0.0103
 1193W        W 4712   5.923   7.313   0.498 -0.0483 -0.3109 -0.0341
 1194W        W 4713   0.264   5.998  12.248 -0.3096  0.0436  0.2085
 1195W        W 4714   6.769   1.361   0.101 -0.2094  0.1316  0.2269
 1196W        W 4715   0.734   3.984   1.902  0.1813  0.3159 -0.2775
 1197W        W 4716   8.178   6.446   7.503  0.1596 -0.1574  0.0941
 1198W        W 4717   9.354   6.627  12.226 -0.1338 -0.1579  0.0968
 1199W        W 4718   0.631   7.957   9.532 -0.1357 -0.0991  0.3019
 1200W        W 4719   8.652   7.529   2.919  0.0490  0.1050  0.0175
 1201W        W 4720   3.597   3.174   0.769 -0.0623  0.0048 -0.2043
 1202W        W 4721   7.819   8.881   4.989  0.0949  0.1625 -0.1120
 1203W        W 4722   6.461   8.063   3.054  0.3362  0.4257  0.1597
 1204W        W 4723   7.776   3.819  10.293  0.1118 -0.3934  0.0249
 1205W        W 4724   6.358   6.219   4.660 -0.1601  0.2240  0.0522
 1206W        W 4725   8.029   9.290   2.617  0.1947 -0.0501  0.2581
 1207W        W 4726   0.340   6.230   2.220 -0.2107  0.1172  0.0490
 1208W        W 4727   0.176   4.594   9.661  0.3171 -0.1455 -0.0014
 1209W        W 4728   0.118   4.045   8.999  0.0982 -0.0099 -0.1036
 1210W        W 4729   7.393   6.435   9.225 -0.3060 -0.1364  0.2084
 1211W        W 4730   7.101   3.909  11.145  0.0976  0.2887  0.1887
 1212W        W 4731   4.916   1.397  11.144  0.0359  0.0427 -0.0918
 1213W        W 4732   6.441   5.234  10.534  0.0499  0.1352 -0.0489
 1214W        W 4733   2.090   1.242   3.127 -0.1191 -0.0423 -0.0611
 1215W        W 4734   0.203   0.724   9.697  0.3425 -0.0739  0.1552
 1216W        W 4735   3.102   0.349   9.257  0.2476  0.1640 -0.1768
 1217W        W 4736   6.597   6.761   3.031 -0.2853  0.1811 -0.0459
 1218W        W 4737   2.297   0.482  12.455 -0.3199 -0.2064  0.0167
 1219W        W 4738   3.413   1.471   1.116  0.1096 -0.0102 -0.0374
 1220W        W 4739   0.667   3.239   0.219 -0.2349 -0.0720  0.0831
 1221W        W 4740   1.312   8.901   8.418 -0.0414 -0.1524  0.2350
 1222W        W 4741   2.402   7.053   1.791 -0.2616 -0.0714 -0.0413
 1223W        W 4742   6.809   7.952   3.452 -0.0643  0.0226  0.1901
 1224W        W 4743   5.139   1.676   9.607 -0.2003 -0.0112  0.5261
 1225W        W 4744   9.148   0.123  12.135  0.2073 -0.0632  0.3571
 1226W        W 4745   9.287   2.330  11.219  0.0279 -0.0056  0.1613
 1227W        W 4746   7.903   6.808   8.689  0.3159 -0.2414 -0.0774
 1228W        W 4747   1.281   3.957  10.943 -0.1100  0.1743  0.1328
 1229W        W 4748   4.242   1.121  10.947  0.1004 -0.0018 -0.2505
 1230W        W 4749   7.820   7.833   8.437  0.0648 -0.1185 -0.2218
 1231W        W 4750   4.883   2.878   1.990  0.4243 -0.1523 -0.1425
 1232W        W 4751   3.646   5.728   0.533  0.2601 -0.0285 -0.0375
 1233W        W 4752   1.765   9.532  12.525 -0.3264 -0.0086  0.2079
 1234W        W 4753   7.256   1.346  11.235  0.1263  0.3553  0.0140
 1235W        W 4754   3.155   1.979   1.315  0.0572 -0.0388  0.3965
 1236W        W 4755   2.920   5.380  10.438 -0.1081 -0.1664 -0.3509
 1237W        W 4756   1.777   2.353   9.374 -0.0464 -0.1640 -0.0813
 1238W        W 4757   1.045   4.670   3.881 -0.0884  0.2909  0.1017
 1239W        W 4758   9.224   7.611  10.792 -0.0601 -0.1784  0.1016
 1240W        W 4759   7.659   5.474   2.193  0.3465  0.0596  0.1408
 1241W        W 4760   6.549   7.466   9.612  0.1447  0.0714  0.0325
 1242W        W 4761   4.213   9.536   0.924  0.1246  0.0563  0.0892
 1243W        W 4762   6.534   5.011  11.265  0.2447  0.2670  0.0169
 1244W        W 4763   1.363   2.190   1.312 -0.3143 -0.2811 -0.2021
 1245W        W 4764   8.058   3.319   3.605 -0.0890  0.1042  0.1293
 1246W        W 4765   3.842   4.239   3.863  0.0558  0.0571 -0.0986
 1247W        W 4766   0.440   2.520  11.190  0.0693  0.0948 -0.0797
 1248W        W 4767   9.446   0.141  10.378  0.0845  0.1087  0.1681
 1249W        W 4768   1.295   6.777   1.876  0.0343 -0.2787  0.0985
 1250W        W 4769   4.342   2.699   3.233  0.0465 -0.0907 -0.3658
 1251W        W 4770   1.850   5.489   1.914 -0.4934  0.1688 -0.1045
 1252W        W 4771   6.921   8.227   2.894  0.2055 -0.2054 -0.0002
 1253W        W 4772   1.637   2.358   8.885 -0.1139  0.3726 -0.0035
 1254W        W 4773   3.158   7.342  11.361 -0.2453  0.2564  0.0414
 1255W        W 4774   0.434   3.423   2.807 -0.0831 -0.1732  0.1847
 1256W        W 4775   9.469   0.504  10.965  0.1192  0.3477 -0.1305
 1257W        W 4776   0.274   7.949   0.590  0.1908 -0.1502 -0.1389
 1258W        W 4777   0.663   2.828   3.371 -0.0952 -0.2066  0.0104
 1259W        W 4778   7.199   1.037  12.204  0.0418  0.0928  0.0604
 1260W        W 4779   9.561   7.709   3.221  0.1050 -0.1119  0.2358
 1261W        W 4780   3.760   3.214  11.667  0.2485  0.0091 -0.2146
 1262W        W 4781   5.811   2.196   0.076  0.0886  0.3749 -0.0246
 1263W        W 4782   7.736   1.594   0.436  0.0594 -0.0752  0.3117
 1264W        W 4783   2.921   1.150   2.300 -0.0975 -0.0497  0.0489
 1265W        W 4784   4.653   0.972   3.542 -0.4399  0.2049 -0.1754
 1266W        W 4785   2.530   0.643   9.724 -0.0481  0.1058  0.2932
 1267W        W 4786   3.648   0.249   3.026  0.1671  0.0487  0.1897
 1268W        W 4787   8.789   7.119   2.668 -0.2747  0.0382  0.2279
 1269W        W 4788   8.510   7.061   1.024  0.3047  0.1692  0.0408
 1270W        W 4789   9.207   8.045   1.610  0.2249 -0.1481 -0.0349
 1271W        W 4790   1.533   0.949  12.002  0.1258 -0.1195 -0.1734
 1272W        W 4791   1.087   7.487  12.247  0.0390 -0.0779 -0.1463
 1273W        W 4792   2.751   4.230  11.061 -0.1634 -0.1545 -0.0139
 1274W        W 4793   4.896   9.518   2.552 -0.0800  0.0545  0.1501
 1275W        W 4794   0.769   8.400  10.005 -0.0254  0.3353 -0.1054
 1276W        W 4795   9.240   8.631   9.610  0.0551 -0.4102 -0.0530
 1277W        W 4796   5.632   3.879   1.148 -0.1715  0.2838  0.0577
 1278W        W 4797   8.137   5.196   8.754  0.0997  0.0960  0.0625
 1279W        W 4798   4.562   7.571  10.521  0.0144 -0.0450 -0.1622
 1280W        W 4799   6.704   3.525   0.594 -0.0617 -0.2592  0.0119
 1281W        W 4800   3.259   9.087  10.284  0.1324  0.0365 -0.0398
 1282W        W 4801   7.324   0.117  10.788 -0.2903  0.0085 -0.0193
 1283W        W 4802   0.614   8.423  10.504  0.0036  0.0733 -0.1226
 1284W        W 4803   3.260   7.540  11.775 -0.1676  0.1282  0.0866
 1285W        W 4804   4.529   2.978  12.002  0.0649 -0.2203  0.0491
 1286W        W 4805   9.631   4.038  12.348  0.0443  0.0411  0.1851
 1287W        W 4806   5.355   0.778  11.959 -0.0732  0.1514 -0.2461
 1288W        W 4807   8.878   1.039   1.075 -0.2008 -0.2175  0.1561
 1289W        W 4808   2.249   7.369   4.082 -0.1000  0.0945 -0.0292
 1290W        W 4809   4.351   7.842   5.004  0.0063  0.1750  0.1777
 1291W        W 4810   8.522   2.042   9.121 -0.2768 -0.0324  0.0446
 1292W        W 4811   5.476   0.817   1.751 -0.0715  0.0096  0.2951
 1293W        W 4812   8.257   6.597  11.174 -0.0551 -0.1795 -0.0089
 1294W        W 4813   9.318   6.187  11.622  0.0618  0.2793 -0.1286
 1295W        W 4814   6.904   5.281   2.650  0.1371  0.0777 -0.2001
 1296W        W 4815   0.673   2.700   1.888 -0.2232 -0.1692 -0.3283
 1297W        W 4816   7.645   4.353   9.922 -0.1334  0.0286  0.0952
 1298W        W 4817   2.504   6.931  12.382 -0.2976 -0.1200 -0.0524
 1299W        W 4818   4.245   5.185   3.093  0.3835  0.0990  0.0191
 1300W        W 4819   5.885   7.625   4.722 -0.3144  0.0715  0.1097
 1301W        W 4820   0.192   5.918   2.658 -0.3356  0.1955  0.1069
 1302W        W 4821   1.402   7.583   4.057  0.3955  0.1235  0.0090
 1303W        W 4822   5.120   3.608   2.477 -0.1373 -0.0967  0.1388
 1304W        W 4823   3.509   6.098  10.943  0.1979 -0.2720  0.0770
 1305W        W 4824   7.572   8.535   8.799 -0.1290  0.2613 -0.0674
 1306W        W 4825   8.213   6.565   2.845 -0.1109  0.0790  0.1604
 1307W        W 4826   5.416   9.249   9.778 -0.1316  0.3896  0.1595
 1308W        W 4827   4.784   6.885   4.438 -0.0145 -0.2376  0.0909
 1309W        W 4828   6.773   5.058   0.976 -0.2930 -0.1901  0.1329
 1310W        W 4829   4.801   6.480  10.960  0.1141 -0.3235  0.1132
 1311W        W 4830   6.572   5.338   0.304 -0.2971 -0.1633 -0.0257
 1312W        W 4831   8.768   3.462   1.267 -0.2428  0.0548  0.1164
 1313W        W 4832   9.099   6.833  10.969  0.2754  0.0583 -0.3069
 1314W        W 4833   6.331   3.868   0.265 -0.0240 -0.0456  0.1965
 1315W        W 4834   8.272   2.270   3.497 -0.1624  0.1486 -0.1651
 1316W        W 4835   0.619   8.761   1.998 -0.0023  0.1083  0.3465
 1317W        W 4836   8.745   3.007   8.889  0.0069  0.4206 -0.0317
 1318W        W 4837   0.479   8.605   1.364 -0.1952 -0.1119 -0.0914
 1319W        W 4838   5.126   5.655   8.872  0.3488  0.0166  0.1390
 1320W        W 4839   8.958   2.922   3.341  0.3801 -0.0437  0.2296
 1321W        W 4840   3.814   2.265   0.241  0.3242  0.0216  0.1075
 1322W        W 4841   7.090   7.205  10.842 -0.2177  0.0914 -0.0085
 1323W        W 4842   2.847   1.904  12.284  0.0051 -0.4343 -0.1337
 1324W        W 4843   2.848   8.015  11.052  0.0534  0.1816 -0.0559
 1325W        W 4844   4.981   6.534  12.476 -0.0561 -0.0949  0.0410
 1326W        W 4845   4.479   8.181   1.475 -0.2670  0.1545  0.1004
 1327W        W 4846   0.404   7.433   9.495 -0.0632 -0.0749  0.3306
 1328W        W 4847   4.249   1.660   2.186  0.2319 -0.2434 -0.1178
 1329W        W 4848   6.489   3.261  11.867 -0.2150  0.0080  0.1551
 1330W        W 4849   4.720   0.529  11.358  0.0016  0.2783 -0.4295
 1331W        W 4850   0.732   5.184   2.365  0.2292  0.0071 -0.0745
 1332W        W 4851   0.406   5.063   2.824  0.3550  0.0805 -0.0044
 1333W        W 4852   6.282   1.946  12.364  0.2376 -0.3597  0.0950
 1334W        W 4853   0.853   6.423   3.831 -0.1899 -0.0189  0.3590
 1335W        W 4854   0.021   2.101  10.657 -0.0115 -0.3775 -0.0974
 1336W        W 4855   4.052   6.840   3.355  0.0074  0.0686 -0.0488
 1337W        W 4856   3.737   4.039   9.702 -0.0689  0.1478 -0.0941
 1338W        W 4857   0.002   5.058   2.528  0.1603 -0.0979  0.1821
 1339W        W 4858   6.326   0.951  12.472  0.2107  0.0611 -0.1439
 1340W        W 4859   5.025   3.366  11.114 -0.2223  0.0180  0.1788
 1341W        W 4860   7.403   5.749   9.807 -0.3136  0.1543  0.1853
 1342W        W 4861   1.261   3.448   3.149 -0.1342  0.4560 -0.2218
 1343W        W 4862   3.346   6.611  11.086 -0.0691 -0.3140 -0.0213
 1344W        W 4863   4.796   8.797  10.730 -0.0021  0.3174  0.1055
 1345W        W 4864   7.000   9.237  11.553 -0.2467  0.0291 -0.0194
 1346W        W 4865   2.965   7.650   8.449  0.1264  0.1430  0.3207
 1347W        W 4866   6.533   6.925   3.526  0.2935  0.2037  0.0785
 1348W        W 4867   2.638   4.640   2.239 -0.1621  0.1436 -0.2041
 1349W        W 4868   9.484   3.554  12.515  0.1948  0.0833  0.2144
 1350W        W 4869   4.942   0.612   2.653  0.0660  0.4157 -0.2211
 1351W        W 4870   1.754   7.932   2.316 -0.1780 -0.1906  0.0315
 1352W        W 4871   6.499   0.042  12.067 -0.0067 -0.1421 -0.5042
 1353W        W 4872   2.967   1.715   3.126 -0.4179 -0.0526  0.0612
 1354W        W 4873   3.995   5.425   3.998  0.2550 -0.1442 -0.3105
 1355W        W 4874   6.968   8.298   1.285 -0.0227  0.1661  0.0565
 1356W        W 4875   4.243   0.766   2.199 -0.1254 -0.1312 -0.0177
 1357W        W 4876   1.887   9.560   2.305 -0.0250  0.1306 -0.1188
 1358W        W 4877   8.323   6.331   3.782  0.3480  0.3430 -0.0473
 1359W        W 4878   8.038   0.814   2.364  0.2576 -0.1465 -0.1935
 1360W        W 4879   7.404   6.105   1.476 -0.3842  0.1642 -0.0198
 1361W        W 4880   1.024   5.334   1.039 -0.0101  0.2069 -0.3052
 1362W        W 4881   6.191   2.247   8.844 -0.0450  0.4304 -0.0947
 1363W        W 4882   9.577   3.209  12.201  0.0315  0.1497 -0.0562
 1364W        W 4883   5.410   3.612   3.861 -0.0660 -0.0547  0.2907
 1365W        W 4884   8.143   2.899   8.312 -0.0302 -0.0279 -0.0819
 1366W        W 4885   2.783   4.123   2.935  0.0487  0.0322 -0.4145
 1367W        W 4886   6.926   4.446   4.747  0.0464  0.3916  0.2043
 1368W        W 4887   9.297   2.046  10.368  0.0568 -0.3125 -0.2395
 1369W        W 4888   4.064   6.862   2.557  0.4658 -0.1674 -0.4074
 1370W        W 4889   2.093   0.599   3.004 -0.1694 -0.1361  0.2556
 1371W        W 4890   6.362   6.034  11.570  0.2530 -0.0390 -0.2546
 1372W        W 4891   8.113   2.116  11.835 -0.0905  0.1006 -0.0431
 1373W        W 4892   0.472   7.080   1.714 -0.1599  0.0142 -0.0181
 1374W        W 4893   6.712   3.880  10.668 -0.1888  0.3086  0.4989
 1375W        W 4894   5.901   6.576   2.915  0.0507  0.1261 -0.0482
 1376W        W 4895   5.208   2.969   3.173 -0.3893  0.2522  0.5470
 1377W        W 4896   6.573   8.429   8.326 -0.0667 -0.0253  0.1600
 1378W        W 4897   2.011   5.590   1.337 -0.0848  0.2387  0.1695
 1379W        W 4898   7.062   3.256   0.935  0.1048  0.1215  0.2487
 1380W        W 4899   3.352   0.689  10.915 -0.0299  0.0381  0.1238
 1381W        W 4900   0.926   3.307   2.681 -0.0983 -0.1407 -0.3959
 1382W        W 4901   1.327   8.007  11.497  0.1836 -0.3816 -0.1512
 1383W        W 4902   3.779   7.893   3.784 -0.1841  0.0051  0.2301
 1384W        W 4903   5.444   5.060  12.274  0.2986 -0.1715 -0.0050
 1385W        W 4904   3.961   8.615  11.376 -0.0566 -0.2554  0.2877
 1386W        W 4905   4.433   0.606   9.638  0.0227 -0.1826 -0.3065
 1387W        W 4906   3.240   7.908  12.334  0.2452  0.2234 -0.3326
 1388W        W 4907   7.773   6.041   9.881  0.0690 -0.0892  0.0038
 1389W        W 4908   7.352   7.008  11.589  0.2608 -0.1846  0.1185
 1390W        W 4909   5.835   2.943   2.775  0.0088  0.1081  0.0133
 1391W        W 4910   7.443   6.790   9.704  0.1859 -0.1256  0.0872
 1392W        W 4911   4.510   1.142  12.054  0.1980 -0.1074  0.0539
 1393W        W 4912   3.607   5.816   8.897 -0.1550  0.3909  0.0824
 1394W        W 4913   1.390   8.269  10.564 -0.1846  0.4530 -0.0206
 1395W        W 4914   2.059   1.725  11.233 -0.1270  0.1168  0.1351
 1396W        W 4915   9.483   2.088   0.247  0.3050 -0.1162  0.2090
 1397W        W 4916   4.891   3.116   2.608  0.1266  0.1600 -0.0422
 1398W        W 4917   6.996   5.738   2.395  0.0761  0.0984 -0.0666
 1399W        W 4918   2.972   1.133   8.631  0.0165 -0.0666 -0.0049
 1400W        W 4919   9.015   4.661   8.574 -0.0651  0.0833  0.2830
 1401W        W 4920   7.858   6.810   9.216  0.1528 -0.1681  0.1282
 1402W        W 4921   7.065   0.695   1.155 -0.0970 -0.0888 -0.2276
 1403W        W 4922   2.063   6.056   2.511  0.1317 -0.0627  0.3003
 1404W        W 4923   8.569   3.991   9.840 -0.0062 -0.2161  0.2502
 1405W        W 4924   8.303   2.193   2.456  0.1776 -0.1785  0.3686
 1406W        W 4925   0.034   8.566   8.784  0.4397  0.0045 -0.0373
 1407W        W 4926   6.501   2.730   3.186  0.0968  0.2107 -0.2177
 1408W        W 4927   6.111   4.379   1.146  0.2282 -0.0743  0.0045
 1409W        W 4928   0.118   0.413   1.886 -0.2869 -0.2242  0.3258
 1410W        W 4929   4.071   7.585  11.445 -0.1478  0.4163 -0.0062
 1411W        W 4930   9.082   8.975   0.042  0.1843  0.0085  0.1392
 1412W        W 4931   9.607   2.250   3.402 -0.0646 -0.2031  0.0096
 1413W        W 4932   8.129   0.637   2.844 -0.3238  0.1837  0.0620
 1414W        W 4933   6.155   6.483   2.361 -0.1723 -0.0605 -0.0004
 1415W        W 4934   0.974   5.769   3.859 -0.0198  0.5745  0.1995
 1416W        W 4935   6.979   5.772  12.147 -0.1159 -0.1424 -0.0926
 1417W        W 4936   1.874   7.676  11.954 -0.2311  0.3346 -0.2760
 1418W        W 4937   7.358   1.115   9.227 -0.2968 -0.0910  0.1749
 1419W        W 4938   1.075   7.976  10.097  0.0204 -0.3388 -0.1752
 1420W        W 4939   5.315   9.051  11.416 -0.1610 -0.0169 -0.0426
 1421W        W 4940   9.144   7.154   4.250 -0.2640 -0.3446 -0.1013
 1422W        W 4941   9.173   0.057   9.948 -0.0840  0.0495 -0.0589
 1423W        W 4942   1.879   8.727   2.540 -0.0502 -0.2216 -0.0954
 1424W        W 4943   1.621   2.597  12.288 -0.3118  0.0441 -0.1366
 1425W        W 4944   3.606   7.420   9.542  0.3603  0.1295  0.1232
 1426W        W 4945   4.929   8.898   8.446  0.1245 -0.0214  0.0183
 1427W        W 4946   3.948   3.429   9.032  0.3362 -0.2979  0.1037
 1428W        W 4947   4.816   0.128   3.449 -0.0140 -0.4883  0.0809
 1429W        W 4948   8.516   8.200   9.325  0.0724 -0.2665  0.1986
 1430W        W 4949   6.927   1.010   1.621 -0.1926 -0.0261 -0.0339
 1431W        W 4950   3.826   3.150   8.641  0.2124  0.3382  0.1330
 1432W        W 4951   7.888   9.657   3.502 -0.3985  0.0821 -0.1873
 1433W        W 4952   2.552   8.166   0.890  0.1790 -0.1438  0.0767
 1434W        W 4953   9.118   6.647  11.744  0.0693 -0.0944  0.0567
 1435W        W 4954   2.910   6.950   2.596  0.0640 -0.2664  0.1837
 1436W        W 4955   3.138   1.612   2.545  0.1555 -0.2526 -0.4169
 1437W        W 4956   2.604   5.974   2.481  0.0747 -0.2014 -0.0843
 1438W        W 4957   7.797   0.990   8.997  0.2663 -0.0566  0.1318
 1439W        W 4958   1.463   6.298  12.283  0.0632 -0.1188 -0.5639
 1440W        W 4959   5.158   2.260  10.768  0.0303 -0.0630  0.0810
 1441W        W 4960   4.444   5.500   4.298 -0.0142 -0.1243 -0.0776
 1442W        W 4961   6.505   4.525   8.496 -0.0151 -0.1265 -0.1238
 1443W        W 4962   4.388   9.242  11.021 -0.0224 -0.3824 -0.1538
 1444W        W 4963   8.204   6.428   2.246 -0.0848 -0.0001 -0.2031
 1445W        W 4964   1.969   5.213   3.582  0.1239  0.0232  0.1105
 1446W        W 4965   2.349   1.050   2.711  0.3188 -0.1028 -0.1105
 1447W        W 4966   3.028   1.198   0.983  0.3034 -0.0895 -0.1025
 1448W        W 4967   6.489   1.292  11.600  0.1688 -0.1164  0.0316
 1449W        W 4968   1.441   1.670   3.665 -0.0945 -0.1879  0.0766
 1450W        W 4969   8.596   9.448   0.703 -0.0615 -0.2379  0.1298
 1451W        W 4970   3.563   9.503  11.422  0.0744 -0.3105 -0.0690
 1452W        W 4971   0.928   9.209  10.231 -0.0015  0.0681 -0.0042
 1453W        W 4972   4.289   4.426  11.916 -0.0624  0.0768 -0.1266
 1454W        W 4973   6.971   5.413  10.630  0.2933 -0.1460 -0.2482
 1455W        W 4974   7.072   5.713  11.081 -0.1569 -0.3357 -0.1695
 1456W        W 4975   3.686   8.509   0.321  0.1219  0.2569  0.3352
 1457W        W 4976   8.721   8.672   0.071  0.0526 -0.2897 -0.0060
 1458W        W 4977   0.769   0.565   2.856 -0.1854 -0.0454  0.3185
 1459W        W 4978   6.316   8.803   4.218  0.1815  0.0183  0.2707
 1460W        W 4979   4.272   7.657  11.956  0.2892  0.1609 -0.2427
 1461W        W 4980   1.892   8.912   3.560 -0.0222 -0.2252  0.2810
 1462W        W 4981   8.727   5.603   3.916  0.0525  0.0049  0.2717
 1463W        W 4982   5.928   3.572   9.596  0.3533  0.0731 -0.0183
 1464W        W 4983   6.912   2.240   9.560  0.0243 -0.0732  0.0095
 1465W        W 4984   3.893   5.439  11.713 -0.2160  0.0504 -0.2561
 1466W        W 4985   6.650   9.579  11.552  0.3465 -0.5167 -0.1246
 1467W        W 4986   9.378   3.368   1.038  0.2036 -0.0267 -0.0432
 1468W        W 4987   4.999   0.781   1.411  0.0933 -0.1866  0.2161
 1469W        W 4988   5.553   4.441   0.370 -0.1896  0.0773 -0.0108
 1470W        W 4989   7.021   5.984  10.684  0.1786  0.2536 -0.1275
 1471W        W 4990   7.964   4.259   9.022  0.2923 -0.0968  0.1918
 1472W        W 4991   1.426   7.440   9.434  0.0316 -0.0673 -0.1099
 1473W        W 4992   9.079   3.902   1.506  0.2390 -0.0243  0.1148
 1474W        W 4993   9.083   6.733   1.863 -0.1893 -0.1252  0.0338
 1475W        W 4994   2.834   9.474  11.765 -0.0740  0.0792  0.1828
 1476W        W 4995   5.500   4.556   1.819 -0.0201  0.0730 -0.1063
 1477W        W 4996   2.829   5.094   2.063 -0.0905  0.0022 -0.0637
 1478W        W 4997   6.777   1.548  10.787 -0.1658 -0.0460 -0.1313
 1479W        W 4998   0.260   2.478   3.714  0.1233  0.0246  0.2480
 1480W        W 4999   0.990   9.366   0.231 -0.0062 -0.0262 -0.0118
 1481W        W 5000   9.088   5.217   9.948  0.0056 -0.2294 -0.1253
 1482W        W 5001   5.235   0.696   0.843 -0.3696  0.0625  0.1002
 1483W        W 5002   3.305   1.188   2.996 -0.0268  0.0783  0.0421
 1484W        W 5003   6.816   3.330   8.774  0.0837 -0.1999  0.1428
 1485W        W 5004   2.593   9.404   0.141  0.2795 -0.0021 -0.1295
 1486W        W 5005   5.387   3.118  11.485 -0.0133  0.0716 -0.3249
 1487W        W 5006   1.241   4.260   4.255  0.1029  0.2372 -0.2703
 1488W        W 5007   1.286   5.947  11.587 -0.1150 -0.0265  0.4134
 1489W        W 5008   1.636   8.265  12.234 -0.0262  0.0255  0.1087
 1490W        W 5009   8.659   8.904   1.637  0.2870 -0.0565  0.0870
 1491W        W 5010   8.119   0.361   0.452 -0.0053  0.0875  0.1942
 1492W        W 5011   0.746   6.702   2.506 -0.1839  0.1110 -0.1098
 1493W        W 5012   6.741   7.963   0.452  0.0743 -0.1792 -0.0538
 1494W        W 5013   9.402   1.312  12.313 -0.0018  0.0313 -0.1901
 1495W        W 5014   2.222   6.820   9.717  0.1625 -0.2680  0.2613
 1496W        W 5015   8.144   8.621   3.763  0.1508  0.0478 -0.2273
 1497W        W 5016   4.811   1.992   8.728  0.2080  0.0199 -0.2557
 1498W        W 5017   1.016   8.473   8.727 -0.1808  0.0136 -0.0221
 1499W        W 5018   1.512   6.564   2.957 -0.1166  0.0213 -0.1370
 1500W        W 5019   6.658   4.052  11.367  0.0971  0.1200  0.0053
 1501W        W 5020   2.646   7.966   8.715 -0.2131 -0.2376 -0.1081
 1502W        W 5021   8.357   7.874   2.573 -0.0724  0.1606  0.1061
 1503W        W 5022   8.226   2.247   4.034  0.0897  0.2636 -0.1321
 1504W        W 5023   6.433   5.836   4.318  0.1073 -0.0336 -0.2226
 1505W        W 5024   5.814   7.876  10.947  0.0218 -0.0025  0.0104
 1506W        W 5025   0.009   3.762   1.812  0.0571 -0.1897  0.2641
 1507W        W 5026   7.611   8.666   9.289  0.0700  0.0811  0.1981
 1508W        W 5027   6.215   2.645   9.668 -0.1595  0.1276 -0.1454
 1509W        W 5028   8.506   1.306   0.834 -0.2725  0.1422  0.2545
 1510W        W 5029   2.734   8.383   0.464  0.1551 -0.0062  0.3316
 1511W        W 5030   5.272   5.283   9.761  0.1158 -0.3803 -0.0541
 1512W        W 5031   2.274   4.172   1.331 -0.0524 -0.2012 -0.1966
 1513W        W 5032   7.987   8.609   0.769  0.0305  0.1262  0.0917
 1514W        W 5033   4.292   7.377   8.728  0.0389 -0.1280 -0.0484
 1515W        W 5034   8.986   7.865   2.057 -0.0572 -0.4153  0.2218
 1516W        W 5035   7.227   3.904   9.375 -0.2780 -0.1302 -0.0818
 1517W        W 5036   5.343   2.879   1.140  0.1030  0.3564 -0.4215
 1518W        W 5037   1.788   8.705   0.358 -0.0788  0.1530  0.0544
 1519W        W 5038   3.609   1.743   0.667 -0.3235  0.1291  0.1900
 1520W        W 5039   4.213   7.334   7.971 -0.1616 -0.2202  0.3574
 1521W        W 5040   4.424   9.177   1.211  0.0798 -0.0196  0.0422
 1522W        W 5041   8.835   8.939   9.472 -0.0202 -0.1926 -0.2112
 1523W        W 5042   4.708   1.759   2.278 -0.0102  0.2272 -0.2362
 1524W        W 5043   0.759   0.234   9.984  0.1224  0.3620 -0.0605
 1525W        W 5044   6.420   2.164   2.762  0.0169 -0.0589 -0.0582
 1526W        W 5045   7.296   2.730  11.444 -0.1959 -0.2043 -0.1116
 1527W        W 5046   7.366   6.030   8.865 -0.2005 -0.1594  0.2911
 1528W        W 5047   0.570   0.121  10.584  0.0873  0.2431 -0.0713
 1529W        W 5048   3.652   0.189   1.802  0.2135  0.1274 -0.0215
 1530W        W 5049   5.964   1.308   4.073  0.4019  0.0283  0.2712
 1531W        W 5050   9.421   6.579   9.802 -0.1914  0.0369  0.2165
 1532W        W 5051   5.311   4.838  10.028 -0.0511 -0.1128 -0.1771
 1533W        W 5052   3.828   5.359   2.519  0.1173 -0.0370 -0.0655
 1534W        W 5053   3.434   5.342  11.615  0.0512  0.0762 -0.1728
 1535W        W 5054   4.716   5.296   2.951  0.1721 -0.1623  0.1029
 1536W        W 5055   0.578   5.510   4.141  0.2099 -0.0492  0.3540
 1537W        W 5056   8.831   6.433  10.359  0.1578 -0.1232 -0.3116
 1538W        W 5057   3.100   2.740   3.836  0.1070  0.0904 -0.0584
 1539W        W 5058   1.392   7.341  11.728 -0.1273 -0.0389  0.0207
 1540W        W 5059   9.191   6.272   0.024 -0.0234  0.5711 -0.1383
 1541W        W 5060   4.050   5.967   3.437 -0.0470 -0.3340 -0.0580
 1542W        W 5061   2.893   3.440  10.734 -0.1467 -0.0656 -0.1079
 1543W        W 5062   0.026   9.192  11.784  0.0548  0.1169 -0.0818
 1544W        W 5063   5.799   5.294   4.576  0.0930  0.0790 -0.0612
 1545W        W 5064   4.258   1.740   0.959 -0.1499  0.0917 -0.1875
 1546W        W 5065   4.629   2.836  10.324  0.1155 -0.0755  0.0144
 1547W        W 5066   7.264   8.742  10.098  0.0119 -0.2419 -0.2073
 1548W        W 5067   5.808   3.143   3.911 -0.0379 -0.2828  0.0722
 1549W        W 5068   4.193   5.641  11.054  0.1492 -0.0604 -0.4519
 1550W        W 5069   7.946   4.847   4.007  0.0690 -0.2707 -0.3251
 1551W        W 5070   9.121   2.944  12.419  0.3323 -0.2032  0.1420
 1552W        W 5071   2.270   8.129  11.778  0.0585 -0.0193  0.2045
 1553W        W 5072   3.396   4.151  11.769  0.1681  0.4343 -0.0269
 1554W        W 5073   8.670   7.436  11.340  0.0741 -0.2052 -0.0278
 1555W        W 5074   1.880   6.026  10.959 -0.0166  0.2768 -0.1565
 1556W        W 5075   3.991   5.238   1.162  0.2207 -0.0222  0.2047
 1557W        W 5076   5.200   8.474   2.551 -0.1710 -0.1342 -0.2729
 1558W        W 5077   7.483   4.402   3.058 -0.1181  0.1877 -0.1775
 1559W        W 5078   2.838   7.782  10.078 -0.3605 -0.0685  0.1898
 1560W        W 5079   1.413   9.624   2.657  0.0181  0.1349 -0.3914
 1561W        W 5080   6.840   8.178   7.906  0.1341 -0.2818 -0.0244
 1562W        W 5081   1.681   8.515  11.451 -0.2175  0.0131 -0.1460
 1563W        W 5082   8.772   2.098  12.069 -0.0607  0.0125 -0.2003
 1564W        W 5083   0.998   7.338   4.573  0.0355 -0.1250 -0.0312
 1565W        W 5084   6.137   7.973   1.727  0.1337 -0.0138  0.1760
 1566W        W 5085   7.770   2.973   2.648  0.0987 -0.4986 -0.2707
 1567W        W 5086   5.120   2.674   1.596 -0.0561 -0.0659 -0.0082
 1568W        W 5087   7.137   7.143   2.388  0.0107 -0.0718 -0.0858
 1569W        W 5088   5.700   1.499   9.668 -0.0293  0.0731  0.0451
 1570W        W 5089   2.265   7.798   9.134 -0.1986  0.1788  0.1177
 1571W        W 5090   2.965   6.556   1.736  0.1867  0.0586  0.1286
 1572W        W 5091   9.220   3.904   2.911  0.2215  0.0425 -0.3187
 1573W        W 5092   5.965   8.380  11.540  0.1596  0.0500  0.2603
 1574W        W 5093   2.277   4.318  11.779  0.1104  0.0068 -0.3630
 1575W        W 5094   6.356   1.353  10.138  0.0608  0.0625 -0.2447
 1576W        W 5095   7.360   2.218   4.114 -0.0672 -0.1022  0.2325
 1577W        W 5096   0.584   2.841   1.158  0.1653  0.1403 -0.1898
 1578W        W 5097   0.759   7.726  12.565 -0.2488  0.0626  0.0660
 1579W        W 5098   0.897   9.633   1.039 -0.0555  0.1557 -0.1113
 1580W        W 5099   9.656   0.530  11.675  0.3623 -0.0146  0.0255
 1581W        W 5100   3.664   2.770   2.401  0.0352 -0.0246 -0.0122
 1582W        W 5101   6.590   2.590   0.609 -0.1003  0.5136  0.0037
 1583W        W 5102   6.533   9.368   0.906 -0.0343 -0.2042  0.1509
 1584W        W 5103   8.149   8.806   1.614  0.0467  0.1768 -0.2431
 1585W        W 5104   5.323   7.655   1.768 -0.1328  0.1937  0.0373
 1586W        W 5105   2.929   0.258   3.615 -0.1537 -0.0950  0.0012
 1587W        W 5106   5.106   4.731   0.563 -0.0578 -0.0175 -0.0073
 1588W        W 5107   1.652   7.272  10.335  0.1750 -0.2241  0.0106
 1589W        W 5108   4.825   3.997   2.913  0.0691  0.0471 -0.1417
 1590W        W 5109   4.089   0.349  10.672 -0.1046  0.1589 -0.3520
 1591W        W 5110   2.873   4.582   0.541  0.0639  0.0377  0.0275
 1592W        W 5111   1.302   4.326   9.639  0.1483 -0.2017 -0.1008
 1593W        W 5112   2.354   1.061   9.096  0.0537 -0.1599  0.0486
 1594W        W 5113   1.089   5.168   1.495 -0.0256 -0.1414 -0.1789
 1595W        W 5114   2.703   8.750   2.064  0.2552 -0.2350  0.2336
 1596W        W 5115   7.690   4.827   2.534  0.0782  0.1163  0.0465
 1597W        W 5116   9.201   1.833   2.221 -0.2083 -0.0400 -0.1445
 1598W        W 5117   9.425   3.653   4.964 -0.1962  0.0869  0.0253
 1599W        W 5118   5.763   0.016  11.001 -0.2577 -0.2678  0.1417
 1600W        W 5119   2.393   9.393   0.637 -0.1162 -0.0114  0.0479
 1601W        W 5120   6.593   7.415  11.713  0.0628  0.1159  0.1874
 1602W        W 5121   1.560   5.688   9.988 -0.2165 -0.1686 -0.1873
 1603W        W 5122   3.165   0.700   2.224 -0.3296  0.0369  0.0563
 1604W        W 5123   6.404   9.524   2.871 -0.0240 -0.1349  0.0678
 1605W        W 5124   1.346   9.213   3.023 -0.1701 -0.3443  0.2159
 1606W        W 5125   4.389   5.890   0.074 -0.4218 -0.0037  0.1188
 1607W        W 5126   9.261   2.995   2.941 -0.1721 -0.3306 -0.2602
 1608W        W 5127   1.385   7.123   3.207  0.0055  0.0859  0.0343
 1609W        W 5128   6.434   7.878  11.099  0.2041 -0.1551  0.3456
 1610W        W 5129   5.012   3.241   1.669  0.1398  0.0050 -0.0187
 1611W        W 5130   1.797   5.951   9.208  0.3029 -0.0574  0.0926
 1612W        W 5131   7.241   5.823   7.942  0.0116  0.1793  0.1116
 1613W        W 5132   5.137   2.854  10.421 -0.0162  0.1747  0.0101
 1614W        W 5133   4.067   5.461   0.021 -0.1373  0.0506  0.3379
 1615W        W 5134   0.947   0.270   2.385 -0.0094 -0.1984  0.1093
 1616W        W 5135   0.607   3.678   2.364  0.0933 -0.2631  0.1398
 1617W        W 5136   0.229   5.237   3.266  0.0235  0.0356 -0.1571
 1618W        W 5137   4.108   0.366   2.484  0.2979 -0.1570  0.0928
 1619W        W 5138   2.696   4.994   0.364  0.3795 -0.1705 -0.1658
 1620W        W 5139   6.323   0.784   1.674 -0.1463 -0.1823 -0.0275
 1621W        W 5140   9.000   8.907  10.604  0.0928 -0.1313  0.5436
 1622W        W 5141   3.517   5.879   3.251  0.0672  0.2534 -0.2574
 1623W        W 5142   0.032   3.217   4.918 -0.2074 -0.2955  0.1666
 1624W        W 5143   1.767   5.996   1.604 -0.1071 -0.1152  0.0736
 1625W        W 5144   3.735   0.143   9.791 -0.0221  0.1126 -0.0016
 1626W        W 5145   6.339   4.834   3.893 -0.1666  0.2302  0.0948
 1627W        W 5146   6.691   3.986   2.945 -0.0991 -0.1347 -0.1983
 1628W        W 5147   6.312   1.162   0.982  0.1245 -0.1908 -0.0032
 1629W        W 5148   3.400   8.663   9.586  0.2620 -0.1904  0.4882
 1630W        W 5149   8.344   2.702   8.767 -0.0059  0.0353 -0.2065
 1631W        W 5150   8.536   5.783   1.644  0.2246  0.0333 -0.0799
 1632W        W 5151   7.790   2.768  11.588  0.0629 -0.1090  0.1617
 1633W        W 5152   5.406   7.906   9.250  0.2364  0.1216  0.0019
 1634W        W 5153   3.331   5.970   4.741  0.1054  0.1745  0.1058
 1635W        W 5154   8.941   4.361   2.939 -0.2215 -0.0207  0.0358
 1636W        W 5155   0.051   4.299  11.080  0.3764 -0.0249  0.0199
 1637W        W 5156   8.000   1.247   0.106 -0.3144 -0.0102 -0.3280
 1638W        W 5157   4.229   4.509   8.942  0.1290  0.0379 -0.1114
 1639W        W 5158   0.071   1.194   3.356  0.2056  0.0584 -0.1778
 1640W        W 5159   8.557   0.505   1.335 -0.3861 -0.3047  0.1330
 1641W        W 5160   6.277   3.355   0.594  0.2192 -0.1714 -0.0834
 1642W        W 5161   9.438   3.222   2.485  0.1617 -0.0466  0.1329
 1643W        W 5162   5.847   2.442  10.006  0.1430  0.0676  0.0373
 1644W        W 5163   4.444   0.850   9.149 -0.1367 -0.0538 -0.1001
 1645W        W 5164   3.299   6.916  12.116 -0.0201 -0.1900  0.1065
 1646W        W 5165   4.321   0.639  11.142 -0.0447  0.0177 -0.0272
 1647W        W 5166   2.026   6.657  10.144 -0.0399 -0.2416  0.1136
 1648W        W 5167   3.643   9.588   4.401  0.1334  0.6348 -0.0089
 1649W        W 5168   2.520   7.755   9.674  0.2408 -0.2327  0.2593
 1650W        W 5169   1.015   1.853   0.593 -0.0194  0.1887  0.2552
 1651W        W 5170   5.422   5.089   0.980 -0.1569 -0.1047  0.0834
 1652W        W 5171   5.955   2.164   3.884  0.1339 -0.2163  0.0541
 1653W        W 5172   5.484   1.302   3.814  0.1709  0.1222 -0.0087
 1654W        W 5173   4.999   0.639  12.449  0.0644 -0.1057  0.1675
 1655W        W 5174   6.460   8.653   0.705 -0.2247  0.1780  0.2300
 1656W        W 5175   8.402   6.661  12.059 -0.0543 -0.3038  0.1448
 1657W        W 5176   6.902   0.284  11.830 -0.1707  0.1009  0.0061
 1658W        W 5177   6.430   0.290   1.762  0.0227  0.3076 -0.2333
 1659W        W 5178   8.010   7.368  11.287 -0.0104  0.1887  0.0759
 1660W        W 5179   0.691   1.088  10.300  0.1275 -0.0224 -0.0766
 1661W        W 5180   1.714   6.510   9.754 -0.2202 -0.4891  0.1863
 1662W        W 5181   4.293   7.185   3.052 -0.0657  0.1485 -0.1135
 1663W        W 5182   8.374   0.004   2.754  0.0736 -0.2047  0.4182
 1664W        W 5183   8.117   2.854   9.312  0.3648 -0.1560  0.1496
 1665W        W 5184   7.680   0.561   2.652 -0.1418 -0.0037  0.0699
 1666W        W 5185   9.353   8.407  10.492  0.0589 -0.0884 -0.0019
 1667W        W 5186   1.669   2.583   3.645 -0.0600  0.3137  0.0712
 1668W        W 5187   7.960   7.915   9.406 -0.0578  0.1490 -0.0988
 1669W        W 5188   2.051   1.543   9.013 -0.1352 -0.1954 -0.0899
 1670W        W 5189   8.891   8.689   0.591 -0.0149 -0.0238 -0.0163
 1671W        W 5190   1.871   4.404   0.116 -0.1143 -0.5490 -0.0914
 1672W        W 5191   0.943   0.754  11.215 -0.1157 -0.1734 -0.2127
 1673W        W 5192   0.469   4.673   0.494  0.0164 -0.0770  0.0889
 1674W        W 5193   7.290   4.671  10.076 -0.3124  0.3198  0.2910
 1675W        W 5194   6.833   9.408  10.184  0.0242  0.0038 -0.1879
 1676W        W 5195   5.694   8.779  10.767 -0.0468  0.0607 -0.0158
 1677W        W 5196   3.607   1.085  11.712  0.2281 -0.0756 -0.1930
 1678W        W 5197   9.111   8.767   1.958  0.0772 -0.1222 -0.2298
 1679W        W 5198   5.486   1.981  12.186  0.0574 -0.2470 -0.3987
 1680W        W 5199   4.726   0.877   2.221  0.0389  0.0536 -0.1644
 1681W        W 5200   3.725   5.309   2.015 -0.0160  0.0151 -0.3916
 1682W        W 5201   0.103   0.638   1.210  0.2447  0.4426  0.0303
 1683W        W 5202   4.772   0.698   4.602 -0.0923  0.0164  0.1783
 1684W        W 5203   5.332   3.209   0.341  0.0783  0.0494 -0.3336
 1685W        W 5204   2.986   8.715  12.294 -0.4357 -0.1963  0.0572
 1686W        W 5205   7.435   3.420   2.056  0.0087  0.1864 -0.1544
 1687W        W 5206   9.043   3.477   0.114  0.3295 -0.2980  0.0818
 1688W        W 5207   0.461   5.990  10.902  0.1298  0.0191  0.1052
 1689W        W 5208   6.896   5.929   4.108  0.2137 -0.0175  0.0026
 1690W        W 5209   3.091   4.901  10.505  0.2668 -0.1262  0.1066
 1691W        W 5210   6.468   1.456   9.216  0.0520 -0.1456 -0.1691
 1692W        W 5211   4.441   8.972   0.741 -0.3694  0.1194 -0.0200
 1693W        W 5212   3.018   0.720   1.249  0.1392 -0.0306 -0.1100
 1694W        W 5213   3.742   3.437   3.833 -0.0306  0.1226  0.2122
 1695W        W 5214   2.740   2.786  11.349  0.0560 -0.1524  0.2836
 1696W        W 5215   0.540   2.028  10.919  0.1234 -0.2436 -0.1962
 1697W        W 5216   4.469   6.040   9.677 -0.1214 -0.2899 -0.1981
 1698W        W 5217   3.740   4.381   2.193 -0.2248  0.0692 -0.3110
 1699W        W 5218   7.526   5.061   3.702 -0.1119 -0.0393  0.1711
 1700W        W 5219   5.342   9.467  10.737 -0.3315  0.1805 -0.4678
 1701W        W 5220   4.428   5.231   0.883 -0.0270  0.2108 -0.1242
 1702W        W 5221   4.746   2.293   1.398 -0.0491  0.1897 -0.2155
 1703W        W 5222   7.825   6.456   2.554  0.0826 -0.2453  0.1692
 1704W        W 5223   1.067   8.364  11.934 -0.5066 -0.1522 -0.1997
 1705W        W 5224   3.318   6.326   3.121 -0.0185 -0.1142  0.0613
 1706W        W 5225   2.521   3.803  10.977 -0.0491  0.0949  0.0382
 1707W        W 5226   1.919   0.247  11.484 -0.2210 -0.2275  0.0708
 1708W        W 5227   1.593   4.658  12.263 -0.0062 -0.1641  0.1514
 1709W        W 5228   2.268   8.189   9.869 -0.2600 -0.1033 -0.4737
 1710W        W 5229   0.273   6.512   9.539 -0.1153 -0.1164 -0.1973
 1711W        W 5230   8.229   9.424   1.017 -0.3115 -0.0389  0.2350
 1712W        W 5231   8.130   0.530  11.256 -0.1166 -0.2649 -0.0827
 1713W        W 5232   2.507   1.772  10.228  0.2510 -0.2365  0.3290
 1714W        W 5233   8.320   4.536   4.856 -0.2242 -0.3921  0.1541
 1715W        W 5234   3.597   6.230   2.379 -0.0365 -0.0254  0.2251
 1716W        W 5235   2.598   1.378   2.924 -0.0818 -0.1866 -0.1501
 1717W        W 5236   1.304   4.353  11.804  0.2843 -0.0262 -0.0137
 1718W        W 5237   0.356   4.511  10.648 -0.1207  0.0093  0.0351
 1719W        W 5238   8.606   3.575  10.134  0.1931 -0.1736  0.2465
 1720W        W 5239   5.239   7.975   3.931 -0.0654 -0.0291 -0.0292
 1721W        W 5240   7.884   1.873   3.543 -0.2276  0.0062  0.1232
 1722W        W 5241   1.818   3.711  10.256  0.3039  0.2666 -0.0036
 1723W        W 5242   3.027   7.676   1.564  0.1820 -0.2498  0.2009
 1724W        W 5243   5.437   9.458  10.249  0.0279  0.0778 -0.2041
 1725W        W 5244   5.916   1.120  11.297 -0.1027 -0.1485 -0.0802
 1726W        W 5245   3.800   0.419   0.366  0.2060 -0.3474  0.2378
 1727W        W 5246   5.892   3.756   8.797 -0.0597 -0.1570 -0.1063
 1728W        W 5247   6.159   6.298  10.195  0.0704 -0.1312 -0.0038
 1729W        W 5248   5.719   2.093  10.284 -0.1582  0.1179 -0.2471
 1730W        W 5249   5.508   0.465   9.548 -0.0486  0.0501  0.3778
 1731W        W 5250   0.060   9.471  10.498 -0.2669 -0.0915 -0.4705
 1732W        W 5251   8.696   1.016   9.190 -0.0079  0.1774 -0.0591
 1733W        W 5252   4.289   1.945   2.615 -0.2309  0.4075  0.2016
 1734W        W 5253   8.525   0.952   2.850 -0.3655  0.2185  0.0638
 1735W        W 5254   7.814   2.611   2.252  0.0523 -0.0292 -0.2155
 1736W        W 5255   0.747   7.873   1.226  0.2448  0.1213  0.0569
 1737W        W 5256   0.740   1.639   3.202 -0.0174  0.2460  0.0017
 1738W        W 5257   3.537   4.129   3.284  0.2263 -0.0804 -0.5340
 1739W        W 5258   6.783   7.093   4.474  0.0513  0.1372 -0.1648
 1740W        W 5259   5.524   5.911  12.017  0.0924 -0.1371 -0.1079
 1741W        W 5260   6.514   7.571   1.700 -0.0799 -0.2456 -0.0667
 1742W        W 5261   5.824   7.150  10.567 -0.0928  0.0099 -0.0053
 1743W        W 5262   8.096   2.709  11.004 -0.2127  0.2632 -0.2008
 1744W        W 5263   5.450   4.299   7.716  0.2654  0.0263 -0.1327
 1745W        W 5264   6.967   1.996   8.741 -0.1500  0.1077 -0.3385
 1746W        W 5265   2.450   8.920   0.140  0.0076  0.1283 -0.0120
 1747W        W 5266   4.096   2.682   2.176  0.0187 -0.0858  0.0967
 1748W        W 5267   4.716   9.370   0.110  0.1330 -0.2804  0.4058
 1749W        W 5268   7.878   1.276   2.106 -0.0471  0.2640  0.1956
 1750W        W 5269   9.258   3.685   2.484 -0.1176  0.3556  0.0719
 1751W        W 5270   4.249   2.268   0.006 -0.0477  0.1085 -0.1705
 1752W        W 5271   1.201   2.532   9.740 -0.2152  0.4082 -0.4219
 1753W        W 5272   0.693   1.997   0.232  0.1666  0.4432  0.3237
 1754W        W 5273   2.973   4.356  10.283 -0.0520 -0.0078 -0.0398
 1755W        W 5274   9.166   1.463   1.197  0.0217  0.2002  0.0411
 1756W        W 5275   6.237   7.316   2.387 -0.2164  0.1272 -0.0008
 1757W        W 5276   4.549   1.597   2.884 -0.0786  0.0205  0.2859
 1758W        W 5277   9.189   4.776   3.125  0.2619 -0.1315 -0.1177
 1759W        W 5278   6.947   9.313   9.323  0.3610  0.0025  0.0414
 1760W        W 5279   5.752   7.658   8.957 -0.0891 -0.0536 -0.0614
 1761W        W 5280   1.698   3.644  12.484  0.4007 -0.5604  0.0436
 1762W        W 5281   5.033   2.444   8.684 -0.1285  0.0919  0.0416
 1763W        W 5282   5.616   7.382  11.716  0.0010 -0.0664 -0.2342
 1764W        W 5283   7.166   6.023  12.513 -0.1993  0.2814  0.2881
 1765W        W 5284   2.069   3.717   2.097  0.2818 -0.2032 -0.0593
 1766W        W 5285   4.230   3.176  10.523 -0.0248 -0.3895 -0.1139
 1767W        W 5286   3.038   1.525   9.918 -0.3033  0.0962 -0.1201
 1768W        W 5287   5.015   2.122   3.426  0.1055  0.3679 -0.1953
 1769W        W 5288   6.877   9.495   1.858 -0.1292  0.0934  0.0911
 1770W        W 5289   4.440   7.879   9.032  0.2603  0.0070 -0.1559
 1771W        W 5290   6.376   7.950   4.544  0.2787  0.0859  0.1936
 1772W        W 5291   6.965   1.409  11.757 -0.0834 -0.2865  0.1770
 1773W        W 5292   0.195   6.054   0.714 -0.3767 -0.1773  0.2448
 1774W        W 5293   2.448   3.012   3.254  0.1067  0.2812  0.0063
 1775W        W 5294   3.446   3.569  11.580  0.1794 -0.2280  0.0260
 1776W        W 5295   9.308   7.002   3.047  0.2502  0.0585 -0.2255
 1777W        W 5296   3.613   4.865  11.488  0.0734 -0.1903 -0.1694
 1778W        W 5297   8.218   4.773   2.428  0.2301 -0.0838 -0.3033
 1779W        W 5298   5.998   2.961   1.704  0.0466 -0.3615 -0.0298
 1780W        W 5299   4.358   6.589   8.469  0.0816  0.0797  0.3890
 1781W        W 5300   8.624   1.956   3.862  0.0817 -0.0541  0.0499
 1782W        W 5301   3.962   3.499  11.322 -0.2071 -0.2126 -0.0518
 1783W        W 5302   1.429   6.087   9.625  0.0493 -0.3633 -0.0097
 1784W        W 5303   8.889   9.575   0.325  0.0556  0.2436 -0.0723
 1785W        W 5304   0.458   2.397   2.712 -0.1455  0.0851 -0.0130
 1786W        W 5305   4.805   2.598  10.767 -0.3678  0.0049 -0.0913
 1787W        W 5306   0.551   8.311   3.579 -0.3727  0.1310  0.0010
 1788W        W 5307   7.039   4.469  10.914 -0.0993  0.0384 -0.3297
 1789W        W 5308   5.198   1.097  10.857 -0.2846  0.1319 -0.3600
 1790W        W 5309   9.623   2.508  10.382 -0.2602  0.1950  0.4189
 1791W        W 5310   8.265   4.426  11.476  0.0614  0.0811  0.0131
 1792W        W 5311   2.807   5.963   2.954  0.2750  0.3571 -0.3321
 1793W        W 5312   2.850   5.101   2.582  0.5253  0.0310 -0.3566
 1794W        W 5313   9.071   9.211  12.139 -0.3277 -0.3951 -0.3143
 1795W        W 5314   0.161   5.134  12.115  0.3930  0.5760 -0.1460
 1796W        W 5315   0.089   9.517   2.135 -0.0968  0.2810  0.1603
 1797W        W 5316   1.433   5.584   1.335 -0.0468 -0.1652  0.0917
 1798W        W 5317   8.323   7.075   1.595  0.1767  0.0793 -0.0406
 1799W        W 5318   1.148   0.182   3.028 -0.0193 -0.1481 -0.2345
 1800W        W 5319   2.982   8.524  10.373 -0.3708 -0.1953 -0.1386
 1801W        W 5320   1.631   8.450   1.296 -0.0033 -0.0543  0.0387
 1802W        W 5321   3.852   8.285   3.426 -0.2731 -0.1629  0.2697
 1803W        W 5322   5.877   5.244  12.487 -0.0927 -0.0654 -0.0082
 1804W        W 5323   9.641   6.547  11.705 -0.3242  0.0443  0.1462
 1805W        W 5324   6.006   6.942  10.091 -0.2843 -0.0239  0.3154
 1806W        W 5325   7.265   5.130   2.249  0.0297 -0.0908 -0.1499
 1807W        W 5326   9.208   6.440   2.575 -0.0978 -0.0605  0.0884
 1808W        W 5327   7.090   0.254   1.932 -0.2463 -0.2143 -0.1507
 1809W        W 5328   6.363   5.657  12.453 -0.2648 -0.0376 -0.0775
 1810W        W 5329   4.352   2.192  11.681  0.1322 -0.0141  0.0115
 1811W        W 5330   4.179   8.660   3.384  0.0527  0.2305 -0.1329
 1812W        W 5331   2.766   1.558   1.250  0.2142  0.1337 -0.0267
 1813W        W 5332   0.929   1.115   2.057  0.2498 -0.0560 -0.1182
 1814W        W 5333   5.205   0.360   9.183  0.0923 -0.0772  0.1779
 1815W        W 5334   7.303   8.123   8.040 -0.1356  0.1809  0.0099
 1816W        W 5335   5.119   7.437   2.182 -0.1392 -0.1754  0.4696
 1817W        W 5336   6.482   6.436   7.977 -0.3173  0.2914  0.0646
 1818W        W 5337   7.618   0.717  12.006 -0.0512 -0.1348  0.1069
 1819W        W 5338   2.660   1.847  11.314  0.2140 -0.2907  0.0685
 1820W        W 5339   5.912   7.172   1.196 -0.1140  0.0600 -0.2667
 1821W        W 5340   4.362   9.599   2.323  0.0352  0.3267 -0.1934
 1822W        W 5341   9.054   6.011   1.348  0.2697  0.0890  0.0979
 1823W        W 5342   5.411   2.890  11.987  0.0357  0.3579 -0.0185
 1824W        W 5343   0.394   7.164  11.005 -0.0223  0.0282 -0.1955
 1825W        W 5344   3.967   8.090  11.399  0.0151  0.0314 -0.3727
 1826W        W 5345   4.284   3.812   1.563  0.0042  0.1651 -0.1015
 1827W        W 5346   1.117   0.773   3.682 -0.2173  0.0345  0.3379
 1828W        W 5347   1.612   3.911  11.354 -0.1347  0.0088 -0.0733
 1829W        W 5348   1.423   6.035   3.664 -0.1038 -0.2635  0.2496
 1830W        W 5349   0.134   8.880   0.087 -0.1506  0.2240  0.2084
 1831W        W 5350   5.480   1.311   1.769  0.2069 -0.2145 -0.1007
 1832W        W 5351   3.609   4.512   9.634 -0.1024 -0.2495  0.0303
 1833W        W 5352   8.704   8.363  11.968 -0.0279  0.1782  0.2840
 1834W        W 5353   6.849   2.353   1.959  0.2856  0.4337 -0.1304
 1835W        W 5354   6.580   6.765   0.693  0.1585 -0.2105  0.2057
 1836W        W 5355   9.634   8.184   3.431 -0.0278 -0.2490  0.0583
 1837W        W 5356   5.004   2.986   9.976  0.0739  0.0275  0.0321
 1838W        W 5357   3.429   0.679   9.994  0.1958  0.0512 -0.3302
 1839W        W 5358   2.657   5.496   2.255 -0.0644 -0.0295 -0.0240
 1840W        W 5359   9.250   2.420  10.745 -0.3098  0.1499  0.3447
 1841W        W 5360   3.720   4.494   0.784 -0.0349  0.0159 -0.1395
 1842W        W 5361   1.841   6.385   3.304  0.3657 -0.2066  0.0952
 1843W        W 5362   4.280   6.426   3.050  0.0728  0.1963 -0.2925
 1844W        W 5363   6.781   0.204  10.028  0.1268 -0.1728  0.1013
 1845W        W 5364   4.376   2.024   9.111  0.1904  0.2191 -0.0514
 1846W        W 5365   4.648   1.090   1.409 -0.0615  0.3528  0.2884
 1847W        W 5366   4.441   7.798   2.267 -0.0669  0.2093 -0.0882
 1848W        W 5367   5.916   4.766   2.974  0.2224  0.0253 -0.0115
 1849W        W 5368   0.568   4.548   2.977  0.0492  0.4519  0.0378
 1850W        W 5369   3.993   9.336   8.985  0.1086  0.0226 -0.0651
 1851W        W 5370   6.305   1.719   9.676 -0.0287 -0.0287 -0.1137
 1852W        W 5371   2.328   8.147   3.385 -0.0793  0.1672  0.0897
 1853W        W 5372   4.732   8.336   8.196  0.0002  0.0733 -0.0099
 1854W        W 5373   8.228   3.611  10.754  0.0563 -0.4628  0.0610
 1855W        W 5374   4.046   3.087  12.066 -0.0774 -0.4245 -0.0581
 1856W        W 5375   3.911   4.844  10.100 -0.1756 -0.0127  0.2200
 1857W        W 5376   1.630   6.468   3.822 -0.0850 -0.0315  0.3296
 1858W        W 5377   2.450   8.538  10.284 -0.2916  0.0527  0.1436
 1859W        W 5378   1.108   5.820   0.926  0.0681  0.0200 -0.0343
 1860W        W 5379   4.280   0.806  10.524 -0.2089  0.0086 -0.1827
 1861W        W 5380   1.834   2.606  11.073  0.1219 -0.3364  0.5775
 1862W        W 5381   4.359   6.563  11.222  0.0981 -0.2721 -0.1409
 1863W        W 5382   3.565   5.650   9.865  0.0606 -0.1048  0.3274
 1864W        W 5383   2.853   9.072  11.039 -0.1581 -0.0122  0.0501
 1865W        W 5384   1.488   2.036  12.033  0.0728 -0.0090 -0.2486
 1866W        W 5385   4.762   5.136  11.215 -0.2335 -0.1410  0.2808
 1867W        W 5386   3.221   9.553   1.791 -0.0945 -0.1228  0.1094
 1868W        W 5387   4.615   8.945   9.414  0.2814 -0.1410 -0.1044
 1869W        W 5388   4.853   6.949  10.087  0.4752 -0.3142 -0.1171
 1870W        W 5389   8.394   7.605   0.812  0.3323 -0.1541  0.2397
 1871W        W 5390   7.080   3.448   3.851 -0.0506  0.2475 -0.0695
 1872W        W 5391   1.381   0.398   1.819 -0.0280 -0.0065  0.1728
 1873W        W 5392   8.816   7.136  11.822  0.0670 -0.0139 -0.0334
 1874W        W 5393   6.245   7.862   2.199  0.3584 -0.1692 -0.2514
 1875W        W 5394   5.406   4.142   4.186 -0.4052  0.0982  0.0550
 1876W        W 5395   7.209   1.227   1.192 -0.1506 -0.0035 -0.4969
 1877W        W 5396   1.289   3.694   2.665 -0.0773  0.1874  0.1732
 1878W        W 5397   0.836   2.925  11.972  0.3705 -0.0472  0.2378
 1879W        W 5398   4.427   2.405   2.807 -0.0405  0.1532 -0.3727
 1880W        W 5399   4.493   5.459   0.445  0.3503  0.1533 -0.1128
 1881W        W 5400   5.432   3.915  11.294 -0.2649 -0.1093  0.3907
 1882W        W 5401   6.051   1.031   3.621 -0.1672  0.0921  0.2633
 1883W        W 5402   0.339   4.869   0.009 -0.2926 -0.4617  0.1603
 1884W        W 5403   9.279   6.285   3.681  0.2323 -0.0293  0.4252
 1885W        W 5404   0.099   4.715   1.811 -0.0997  0.0001  0.2294
 1886W        W 5405   1.598   7.322  12.237  0.1008 -0.0894 -0.1940
 1887W        W 5406   6.816   1.895   4.010 -0.0081  0.0282  0.0184
 1888W        W 5407   5.415   8.706   0.122  0.1874 -0.1390 -0.1364
 1889W        W 5408   4.576   5.524   8.907 -0.0914  0.2894 -0.2463
 1890W        W 5409   4.807   3.876   2.210 -0.1374 -0.3075  0.1846
 1891W        W 5410   4.815   3.631   8.273 -0.0326  0.1674 -0.1016
 1892W        W 5411   2.670   7.275  10.040 -0.1336  0.1359  0.0635
 1893W        W 5412   4.901   4.084   8.452 -0.1994  0.1557 -0.2431
 1894W        W 5413   9.214   2.314   0.932 -0.0204  0.0870 -0.1015
 1895W        W 5414   8.539   2.883  10.855 -0.0123 -0.2480  0.0949
 1896W        W 5415   1.547   4.666   2.512 -0.1073  0.4262 -0.0646
 1897W        W 5416   5.211   0.461  10.397 -0.1274 -0.1186 -0.2261
 1898W        W 5417   1.603   7.514   1.332 -0.1168  0.1318  0.1538
 1899W        W 5418   2.178   6.075   0.876  0.0740 -0.1171  0.1776
 1900W        W 5419   3.906   1.196   2.333 -0.0356 -0.1705 -0.0955
 1901W        W 5420   3.732   1.876   4.336 -0.3451  0.3101  0.1121
 1902W        W 5421   7.905   2.176   9.696  0.1019 -0.1022 -0.4914
 1903W        W 5422   8.197   4.361   8.544 -0.1118 -0.0034  0.2755
 1904W        W 5423   8.207   2.693   0.268 -0.0450 -0.2343  0.0990
 1905W        W 5424   3.765   4.985   2.846 -0.0827  0.0410  0.0927
 1906W        W 5425   8.614   2.226   0.910 -0.2686  0.0414  0.1076
 1907W        W 5426   0.736   1.925   2.022  0.0773 -0.1475 -0.1144
 1908W        W 5427   4.024   2.915   9.115  0.0849  0.0637 -0.0954
 1909W        W 5428   8.210   9.640  12.326 -0.1500  0.2979 -0.0580
 1910W        W 5429   9.003   2.142   1.829 -0.0906  0.0791 -0.2226
 1911W        W 5430   8.769   1.483   3.604  0.0954  0.3219 -0.0300
 1912W        W 5431   5.104   7.985  12.295  0.0023 -0.0744 -0.1252
 1913W        W 5432   7.628   2.769  12.360 -0.3940  0.0872  0.0155
 1914W        W 5433   7.947   6.293  10.258 -0.0270 -0.2018 -0.0897
 1915W        W 5434   6.298   4.526  12.533  0.0945 -0.0370 -0.0128
 1916W        W 5435   2.967   6.670  10.642  0.2176 -0.2949  0.3762
 1917W        W 5436   4.904   1.655   0.127  0.1911  0.2718  0.0579
 1918W        W 5437   2.401   7.220   2.972  0.2048 -0.2845 -0.0051
 1919W        W 5438   4.325   0.613  11.652  0.3220  0.0642 -0.2225
 1920W        W 5439   9.021   5.303   0.817 -0.0243  0.0284 -0.2212
 1921W        W 5440   7.336   5.848  11.609 -0.1580  0.0305  0.2130
 1922W        W 5441   7.497   0.469  10.520 -0.0277 -0.1226 -0.0072
 1923W        W 5442   2.962   9.547  11.219 -0.3391 -0.0636 -0.1738
 1924W        W 5443   9.003   0.578  12.292 -0.1127  0.3156  0.0686
 1925W        W 5444   2.435   6.248   2.918  0.0967 -0.1010 -0.1707
 1926W        W 5445   5.018   7.425  12.261  0.2189  0.1464  0.1153
 1927W        W 5446   6.974   2.904   2.995  0.0950 -0.0047  0.2185
 1928W        W 5447   7.460   3.126   7.985  0.1012 -0.0642 -0.2079
 1929W        W 5448   1.652   1.548  12.160  0.1228  0.0423 -0.0250
 1930W        W 5449   8.661   3.807   3.667 -0.1789  0.1340  0.0502
 1931W        W 5450   3.224   8.116   3.532 -0.0773 -0.0607 -0.3317
 1932W        W 5451   6.968   7.213  11.350 -0.0121  0.5041  0.1612
 1933W        W 5452   6.992   2.915   0.492  0.3114  0.0373  0.1972
 1934W        W 5453   5.242   1.746  11.638  0.2580  0.0002 -0.0700
 1935W        W 5454   4.058   7.216   4.185 -0.0299 -0.2052  0.0841
 1936W        W 5455   1.413   5.568   3.255 -0.0769  0.2412  0.2542
 1937W        W 5456   0.069   9.381   0.164  0.0794  0.0158 -0.2807
 1938W        W 5457   3.351   4.433   1.958  0.3828  0.2871 -0.0297
 1939W        W 5458   5.203   7.150  11.397  0.0176  0.1973 -0.4120
 1940W        W 5459   7.030   6.777   8.846 -0.0127 -0.1837 -0.1904
 1941W        W 5460   8.585   6.548   9.615 -0.1766  0.0631 -0.1182
 1942W        W 5461   1.180   9.507  10.865 -0.1353  0.2850  0.1816
 1943W        W 5462   7.505   6.078   2.630  0.0837  0.0067 -0.0370
 1944W        W 5463   2.210   5.175   0.419 -0.3148 -0.2082 -0.1179
 1945W        W 5464   4.877   3.559  10.562  0.0147  0.0794 -0.5774
 1946W        W 5465   2.040   7.976   4.723 -0.2320 -0.0172  0.1247
 1947W        W 5466   4.279   4.435   2.317  0.1240 -0.1254 -0.2418
 1948W        W 5467   2.441   6.457  10.622  0.3276 -0.1397  0.1081
 1949W        W 5468   2.354   2.110   1.592  0.3326  0.1679 -0.2367
 1950W        W 5469   1.554   6.866  12.007  0.0781  0.1292 -0.4224
 1951W        W 5470   2.884   4.796   8.630 -0.2766  0.0489  0.0411
 1952W        W 5471   5.691   1.803   0.545  0.4069 -0.1577 -0.0125
 1953W        W 5472   3.890   1.216   4.686  0.0433 -0.2076 -0.0315
 1954W        W 5473   5.742   6.143   2.591 -0.0976 -0.2082  0.4073
 1955W        W 5474   6.089   8.195   8.619 -0.1119 -0.1342 -0.1371
 1956W        W 5475   3.172   0.289   9.777 -0.0899  0.2055  0.0163
 1957W        W 5476   4.391   8.714   2.234 -0.2040 -0.1534 -0.1674
 1958W        W 5477   0.696   5.411   9.660  0.0957  0.0285 -0.1842
 1959W        W 5478   5.408   3.928   8.717  0.0695  0.3072 -0.1884
 1960W        W 5479   8.657   2.331  10.150 -0.0229  0.0906  0.0175
 1961W        W 5480   1.245   6.974   0.431  0.3591  0.3265  0.2004
 1962W        W 5481   6.596   9.556   1.420 -0.1369  0.0279  0.1065
 1963W        W 5482   4.950   5.193   0.759 -0.1497  0.0247  0.1852
 1964W        W 5483   4.694   7.768  11.728  0.0230 -0.0252 -0.0070
 1965W        W 5484   7.485   5.231  12.563 -0.0386 -0.1296 -0.0281
 1966W        W 5485   5.681   3.392   2.505  0.1753 -0.1975  0.1510
 1967W        W 5486   8.772   8.751   2.998  0.2368  0.0427 -0.0922
 1968W        W 5487   0.236   7.824   0.093  0.1089 -0.1822  0.0550
 1969W        W 5488   0.652   5.586   3.409  0.2447  0.1161 -0.2338
 1970W        W 5489   2.887   8.305   9.492 -0.0878 -0.0634  0.1665
 1971W        W 5490   9.122   3.014   1.189 -0.0338  0.0077 -0.0549
 1972W        W 5491   7.677   1.719   2.806  0.3156  0.2453  0.3371
 1973W        W 5492   4.263   2.627  11.284  0.0927  0.0208 -0.2519
 1974W        W 5493   5.951   5.267   9.254 -0.3715  0.0013 -0.2302
 1975W        W 5494   0.222   7.649   2.426  0.1080  0.2485  0.1099
 1976W        W 5495   2.320   3.545  12.510  0.2707 -0.3180  0.2649
 1977W        W 5496   2.367   6.030   4.087  0.2886 -0.1489  0.0849
 1978W        W 5497   7.869   4.754  10.395  0.0599  0.0265 -0.3311
 1979W        W 5498   7.077   2.387   9.049 -0.2820 -0.0486  0.2153
 1980W        W 5499   7.299   0.338   0.719 -0.0240 -0.2063 -0.2555
 1981W        W 5500   2.866   7.805  11.885  0.1076 -0.0275 -0.1795
 1982W        W 5501   6.949   8.578   0.863  0.1734 -0.0229 -0.1740
 1983W        W 5502   9.595   6.491   0.927  0.2498 -0.2336 -0.0181
 1984W        W 5503   6.318   2.853   1.188 -0.3779  0.3004  0.0942
 1985W        W 5504   1.890   7.955  10.112  0.1134  0.1075  0.2240
 1986W        W 5505   4.899   2.577   9.561 -0.1076 -0.0969 -0.0718
 1987W        W 5506   7.822   4.332   0.604  0.0797 -0.0714  0.0661
 1988W        W 5507   1.859   3.049   4.253  0.0350  0.2674  0.1597
 1989W        W 5508   4.718   8.814   3.453 -0.0234  0.2515  0.1993
 1990W        W 5509   7.990   5.257   1.632 -0.0454  0.1137 -0.1054
 1991W        W 5510   2.748   8.087  10.507 -0.0691 -0.0675  0.2142
 1992W        W 5511   3.820   5.706   4.845 -0.0774 -0.0584  0.0691
 1993W        W 5512   3.645   2.466   7.857  0.0832 -0.0106 -0.1703
 1994W        W 5513   7.057   8.736  11.769 -0.2314  0.0082  0.2622
 1995W        W 5514   5.993   9.590   4.471  0.0387  0.2707 -0.0933
 1996W        W 5515   1.297   7.751   3.599 -0.0815  0.0185  0.3606
 1997W        W 5516   1.454   4.495  11.294  0.1951  0.0077 -0.1454
 1998W        W 5517   3.339   2.125   0.315 -0.1431 -0.0385  0.0447
 1999W        W 5518   3.075   8.803   9.944 -0.1582  0.3615  0.0910
 2000W        W 5519   6.413   6.430   3.394  0.2115  0.1120  0.1962
 2001W        W 5520   1.367   2.881  10.161  0.1121  0.1265 -0.0352
 2002W        W 5521   2.367   6.476   4.487 -0.0860 -0.0762  0.1202
 2003W        W 5522   3.037   5.538   8.106 -0.0554  0.1333  0.2333
 2004W        W 5523   8.857   3.329   3.710 -0.1118 -0.1956 -0.1111
 2005W        W 5524   7.016   0.854  11.314  0.3185  0.5106  0.2141
 2006W        W 5525   5.492   8.316  10.732 -0.0395  0.3917  0.2418
 2007W        W 5526   7.108   7.845   8.957 -0.2608  0.0237 -0.0438
 2008W        W 5527   4.568   8.848   0.175  0.0312  0.0434  0.4865
 2009W        W 5528   3.491   1.476   9.679 -0.1201  0.1203  0.0199
 2010W        W 5529   3.010   8.604  11.345  0.0577  0.1270  0.2074
 2011W        W 5530   7.258   1.782   1.154 -0.1849 -0.0605  0.1908
 2012W        W 5531   5.249   2.023   0.768  0.4703 -0.3747 -0.0014
 2013W        W 5532   7.430   5.035   2.906 -0.4143  0.1860 -0.1551
 2014W        W 5533   2.797   1.945   1.620  0.2200 -0.1296  0.0823
 2015W        W 5534   7.323   7.371   0.241  0.1263  0.3183 -0.0167
 2016W        W 5535   9.134   5.391  10.469 -0.0588 -0.1890  0.0205
 2017W        W 5536   3.056   2.994   8.821 -0.3926 -0.2436  0.2019
 2018W        W 5537   4.617   5.105   1.546  0.2099  0.3419  0.0650
 2019W        W 5538   4.667   6.452   9.355 -0.2539 -0.2469  0.2636
 2020W        W 5539   9.298   3.507  10.885 -0.0421 -0.1643  0.1662
 2021W        W 5540   9.310   8.705   8.525  0.1056 -0.3322 -0.1978
 2022W        W 5541   5.769   8.194   0.804  0.1967  0.1221 -0.2503
 2023W        W 5542   5.473   6.618   3.603  0.1567  0.1133  0.0503
 2024W        W 5543   4.086   8.950   9.361  0.3748 -0.1857  0.2074
 2025W        W 5544   9.164   1.930  10.879 -0.1513  0.2328  0.1408
 2026W        W 5545   8.356   6.289   0.365 -0.0653  0.2025  0.0407
 2027W        W 5546   6.538   5.490   9.093  0.0779 -0.4075  0.1471
 2028W        W 5547   8.700   7.655  11.813 -0.0882 -0.1232 -0.0672
 2029W        W 5548   6.456   4.101   2.522 -0.0034 -0.1472 -0.2923
 2030W        W 5549   0.116   9.620   2.634 -0.1900  0.2298 -0.0748
 2031W        W 5550   9.507   2.406   1.616  0.2072 -0.0033  0.1412
 2032W        W 5551   2.361   6.322   0.446  0.0528 -0.0985  0.4014
 2033W        W 5552   2.325   3.325  10.852  0.3204 -0.1207  0.3739
 2034W        W 5553   5.209   3.463   8.624  0.0717  0.1605 -0.0933
 2035W        W 5554   7.778   6.560   1.176 -0.0515  0.3256  0.1192
 2036W        W 5555   0.543   4.906   9.481  0.1751  0.2636  0.3555
 2037W        W 5556   6.515   4.404  11.029  0.1454 -0.0189  0.1810
 2038W        W 5557   6.595   0.633   2.531  0.5295  0.0806 -0.4060
 2039W        W 5558   9.374   1.070   0.452 -0.3508 -0.3079 -0.1802
 2040W        W 5559   7.267   5.113   8.392 -0.0164  0.1161  0.1759
 2041W        W 5560   9.353   6.191   8.853  0.0209 -0.0179  0.0325
 2042W        W 5561   5.348   8.224  10.201  0.2970  0.2013 -0.2930
 2043W        W 5562   0.162   8.001   8.250  0.1215  0.1658 -0.1017
 2044W        W 5563   9.481   6.201   0.474  0.1496 -0.2734 -0.2049
 2045W        W 5564   3.482   5.423   0.927  0.0643  0.1461 -0.1489
 2046W        W 5565   5.328   8.078   0.952  0.1918 -0.2417 -0.0503
 2047W        W 5566   0.343   3.219   4.439 -0.2740  0.0854 -0.0248
 2048W        W 5567   6.121   4.976  11.572 -0.0394 -0.1976 -0.0111
 2049W        W 5568   8.549   9.158   2.687  0.2481  0.0068  0.0761
 2050W        W 5569   6.330   3.666   1.698  0.3417  0.0991 -0.0517
 2051W        W 5570   6.700   2.332   3.705  0.0018  0.1888  0.0612
 2052W        W 5571   4.076   8.793   1.232 -0.0575 -0.0717 -0.1027
 2053W        W 5572   1.329   4.257   0.582  0.3525 -0.0130  0.3393
 2054W        W 5573   4.534   8.015   3.146 -0.1962 -0.0034  0.0478
 2055W        W 5574   5.766   8.265   9.082 -0.0625  0.4430  0.1648
 2056W        W 5575   0.090   5.094  10.677 -0.0427  0.2059  0.2227
 2057W        W 5576   7.005   1.808  11.225  0.3902  0.1040 -0.0132
 2058W        W 5577   0.051   9.380   0.680  0.1522 -0.0886  0.0211
 2059W        W 5578   1.227   7.949  12.468  0.1599 -0.2639 -0.1195
 2060W        W 5579   6.170   3.327   8.558 -0.0396 -0.0322  0.0150
 2061W        W 5580   4.882   1.541   0.935 -0.0775  0.1806 -0.1495
 2062W        W 5581   6.523   7.883   1.336  0.1913  0.0923 -0.1774
 2063W        W 5582   8.556   6.152   2.707 -0.1079 -0.2959  0.3349
 2064W        W 5583   2.134   6.182   3.640  0.0847  0.0443  0.0722
 2065W        W 5584   5.322   6.742   9.207 -0.0730  0.0429  0.1825
 2066W        W 5585   1.726   3.351   3.379 -0.0967  0.1611 -0.1304
 2067W        W 5586   2.843   8.742   2.707 -0.1916  0.2178 -0.3443
 2068W        W 5587   4.879   8.498   1.730  0.1329  0.1485 -0.2596
 2069W        W 5588   5.531   5.551   8.468 -0.1316 -0.2074 -0.1458
 2070W        W 5589   2.325   3.921   0.556  0.1636 -0.0563 -0.1972
 2071W        W 5590   6.847   9.383  12.032  0.0783 -0.1200 -0.4358
 2072W        W 5591   0.264   3.684  11.800  0.1354  0.0272  0.1129
 2073W        W 5592   0.534   0.167   2.095  0.1212 -0.3201  0.0916
 2074W        W 5593   0.123   3.765  10.904  0.1839 -0.0993  0.1313
 2075W        W 5594   6.603   1.087   3.441  0.3601  0.0816 -0.2120
 2076W        W 5595   4.357   7.281  10.869 -0.1677  0.1042  0.0203
 2077W        W 5596   7.340   9.193  12.042  0.0116  0.2416 -0.0469
 2078W        W 5597   4.133   1.636   1.708  0.1238 -0.2257  0.0643
 2079W        W 5598   5.084   0.615   3.209  0.2997  0.0611 -0.1154
 2080W        W 5599   1.331   4.871  10.000  0.1718  0.2112 -0.0876
 2081W        W 5600   8.968   5.605   3.467 -0.0452  0.0214 -0.3359
 2082W        W 5601   1.498   7.249   1.764 -0.2931 -0.0525  0.1093
 2083W        W 5602   4.249   6.090   1.286 -0.3040  0.4235  0.2235
 2084W        W 5603   7.446   7.706   2.128 -0.2732  0.4062  0.1203
 2085W        W 5604   7.995   7.952   4.392 -0.3020  0.2941  0.2045
 2086W        W 5605   2.993   8.633   8.275  0.0407  0.1312  0.2590
 2087W        W 5606   7.983   0.557   1.427 -0.1157  0.1823 -0.0824
 2088W        W 5607   8.511   5.199  12.247 -0.0700 -0.2098  0.0150
 2089W        W 5608   8.891   2.687  10.594  0.3211 -0.3069 -0.2652
 2090W        W 5609   0.740   7.104   9.091  0.4066  0.3092 -0.0404
 2091W        W 5610   1.601   1.804   0.660  0.3306  0.0712  0.2737
 2092W        W 5611   1.988   2.748  11.568  0.1804  0.0337  0.0435
 2093W        W 5612   3.913   6.308  10.402  0.0945  0.1978 -0.2170
 2094W        W 5613   4.486   7.668   1.448 -0.1829  0.1782 -0.0655
 2095W        W 5614   5.267   1.893  10.391 -0.0292 -0.0836  0.1340
 2096W        W 5615   0.257   2.998   3.606  0.0614  0.1442 -0.3188
 2097W        W 5616   4.390   5.840   1.703 -0.1845  0.3508  0.2763
 2098W        W 5617   9.195   1.469   1.704  0.2827 -0.1562 -0.2473
 2099W        W 5618   4.797   1.871  11.400  0.0543 -0.0532  0.1552
 2100W        W 5619   5.836   7.764   0.425 -0.2372 -0.2524  0.5440
 2101W        W 5620   8.911   6.012  11.457 -0.1163  0.0966  0.1245
 2102W        W 5621   2.402   0.349   3.341  0.0460 -0.1517 -0.1488
 2103W        W 5622   9.252   4.174   1.135 -0.2631  0.0796 -0.0972
 2104W        W 5623   6.460   5.920   0.632  0.0969  0.1576 -0.4038
 2105W        W 5624   3.858   9.109  11.642  0.2620 -0.0568  0.1915
 2106W        W 5625   0.496   6.374   8.189 -0.2444 -0.0139 -0.1737
 2107W        W 5626   3.434   9.084  11.166  0.1624 -0.1218 -0.1807
 2108W        W 5627   4.551   0.486   1.358 -0.0423 -0.2173 -0.3112
 2109W        W 5628   8.475   9.520   9.135  0.1544  0.1170 -0.1219
 2110W        W 5629   5.125   4.352   0.152 -0.0870 -0.0989 -0.1208
 2111W        W 5630   0.478   1.243   9.801  0.3157 -0.1846 -0.0030
 2112W        W 5631   5.042   2.765   9.061  0.1414 -0.3119  0.1468
 2113W        W 5632   2.343   1.792   1.170  0.2886  0.1370 -0.2800
 2114W        W 5633   9.312   6.682   8.930  0.0424  0.2702  0.0928
 2115W        W 5634   8.454   4.382  10.219  0.1615  0.2638  0.3442
 2116W        W 5635   6.152   3.772   8.288 -0.1487  0.1087 -0.3082
 2117W        W 5636   4.135   1.008   9.528 -0.1526  0.0132  0.1238
 2118W        W 5637   3.145   7.782  10.728  0.2472 -0.2442 -0.0341
 2119W        W 5638   5.286   0.200   0.581  0.1525  0.0901  0.2360
 2120W        W 5639   0.247   2.063   3.978  0.1912 -0.2528 -0.0761
 2121W        W 5640   5.669   0.848   4.028  0.1656 -0.0245  0.0163
 2122W        W 5641   2.645   4.700  12.124 -0.0031 -0.2058  0.2348
 2123W        W 5642   5.394   7.622   0.052  0.2502  0.4632 -0.0232
 2124W        W 5643   5.808   4.980  10.076 -0.0195 -0.3709 -0.1382
 2125W        W 5644   6.422   1.190   2.595 -0.0052 -0.1464  0.2959
 2126W        W 5645   0.890   7.355   8.709  0.1665 -0.0259  0.1377
 2127W        W 5646   4.163   6.380   2.577 -0.0097 -0.0110  0.1009
 2128W        W 5647   8.698   1.981   8.401 -0.0018 -0.0461  0.0360
 2129W        W 5648   3.495   2.582   1.507 -0.0400 -0.0157  0.0404
 2130W        W 5649   7.458   6.558   8.724  0.1992  0.1103 -0.3902
 2131W        W 5650   1.018   9.638  11.583 -0.3750  0.2543  0.0952
 2132W        W 5651   6.629   8.924   1.217 -0.0661  0.1909  0.1570
 2133W        W 5652   4.921   3.210   9.510 -0.3455  0.0042 -0.1558
 2134W        W 5653   3.545   5.154   9.879  0.0018 -0.0901 -0.1048
 2135W        W 5654   2.877   6.638   1.264  0.0359 -0.3085  0.4513
 2136W        W 5655   9.218   5.823   3.835  0.2042  0.2174  0.0680
 2137W        W 5656   7.627   1.701   1.926 -0.1252 -0.1836 -0.0009
 2138W        W 5657   1.728   5.868   1.013  0.0679  0.1304  0.0236
 2139W        W 5658   4.077   7.432   3.636 -0.1581 -0.0650  0.1388
 2140W        W 5659   3.647   8.412  10.015  0.1870  0.3574  0.1753
 2141W        W 5660   6.722   1.197   2.988 -0.0069 -0.1735  0.0509
 2142W        W 5661   2.378   8.723   2.537 -0.0884  0.1760 -0.0153
 2143W        W 5662   8.718   7.922  10.882 -0.2934 -0.2494 -0.6187
 2144W        W 5663   3.635   8.888   1.442 -0.0889  0.2293  0.0350
 2145W        W 5664   4.655   5.919   0.612 -0.0498  0.1135 -0.0734
 2146W        W 5665   4.597   1.149   9.552 -0.0875  0.2649 -0.2439
 2147W        W 5666   2.544   6.818  10.985  0.1304  0.0664  0.2165
 2148W        W 5667   6.219   6.772  10.494 -0.1293  0.2084 -0.0321
 2149W        W 5668   6.055   1.139   9.675 -0.3258 -0.3264 -0.1413
 2150W        W 5669   0.359   3.384   9.266 -0.3381  0.4055 -0.0426
 2151W        W 5670   4.157   4.169  12.322  0.0049 -0.0858 -0.2113
 2152W        W 5671   9.442   3.690   9.593  0.1617 -0.0388 -0.2870
 2153W        W 5672   0.233   0.166  10.205  0.1488  0.1015 -0.3005
 2154W        W 5673   1.751   8.012   4.218 -0.1223  0.0906 -0.1373
 2155W        W 5674   4.629   0.326   2.242  0.0374 -0.1298  0.0833
 2156W        W 5675   7.176   8.753   1.256  0.3953  0.0443 -0.2066
 2157W        W 5676   8.006   0.423  12.187 -0.0397  0.0478  0.0191
 2158W        W 5677   1.492   8.378   2.275  0.0410 -0.1132 -0.0056
 2159W        W 5678   7.707   6.274   8.430  0.0782  0.1617 -0.0150
 2160W        W 5679   3.341   1.758  10.734 -0.2008 -0.1396 -0.0392
 2161W        W 5680   6.750   5.882   1.927 -0.2885 -0.0215  0.1701
 2162W        W 5681   7.239   2.903   3.511 -0.0640 -0.0185 -0.1112
 2163W        W 5682   1.548   0.498  11.769  0.1864 -0.0289  0.4455
 2164W        W 5683   2.640   3.245  10.220 -0.0603  0.2768 -0.1403
 2165W        W 5684   4.665   7.749  12.355 -0.0176 -0.2796  0.2440
 2166W        W 5685   2.458   3.744  11.496 -0.0457  0.0498 -0.1820
 2167W        W 5686   6.462   3.087  11.387  0.0135 -0.0478  0.1611
 2168W        W 5687   2.966   5.428  11.531 -0.1659 -0.1063  0.1419
 2169W        W 5688   6.540   6.081   9.243 -0.1029 -0.4488 -0.1007
 2170W        W 5689   1.377   5.158   0.287  0.0188  0.1317 -0.0060
 2171W        W 5690   6.632   8.173   0.917 -0.1955 -0.0590 -0.0168
 2172W        W 5691   0.913   3.157  10.377 -0.0883  0.0792  0.0115
 2173W        W 5692   5.895   1.472   0.868 -0.3616 -0.0580 -0.0670
 2174W        W 5693   6.283   6.485   8.420  0.2255 -0.0151  0.0139
 2175W        W 5694   6.685   7.156   7.798 -0.1796  0.0701  0.0377
 2176W        W 5695   4.407   3.978   8.472 -0.0324 -0.1247 -0.0011
 2177W        W 5696   7.855   6.893   2.992  0.2306  0.1735  0.2121
 2178W        W 5697   9.645   5.557   4.112 -0.1746 -0.2404 -0.1057
 2179W        W 5698   1.156   1.927   3.305 -0.0458  0.1146  0.2559
 2180W        W 5699   3.173   0.222   1.394 -0.1514  0.3231 -0.1847
 2181W        W 5700   5.178   8.133   9.669 -0.2843 -0.0725  0.2377
 2182W        W 5701   2.653   2.972   3.776 -0.0740  0.1906 -0.1416
 2183W        W 5702   8.670   0.454  11.367  0.1042  0.2209 -0.0773
 2184W        W 5703   8.263   0.723   9.923  0.1538  0.1320 -0.1846
 2185W        W 5704   4.126   4.778   0.879 -0.0375 -0.1729 -0.0374
 2186W        W 5705   2.169   5.688  10.696  0.3001 -0.1904 -0.0466
 2187W        W 5706   6.373   5.212   1.241  0.0897 -0.2126  0.1832
 2188W        W 5707   3.054   4.358  12.050  0.0045  0.2661 -0.0897
 2189W        W 5708   7.321   5.419  10.232 -0.0736  0.1107  0.0996
 2190W        W 5709   1.433   7.169   4.371 -0.3424 -0.3735 -0.3588
 2191W        W 5710   5.550   5.702   4.404 -0.0261  0.0668 -0.0024
 2192W        W 5711   3.169   6.535   7.895  0.0907 -0.0066  0.1974
 2193W        W 5712   0.086   3.367   1.523  0.0533  0.2425  0.2887
 2194W        W 5713   0.487   2.329  11.663  0.1192 -0.0501  0.0223
 2195W        W 5714   7.941   3.086   0.717  0.0802 -0.2741 -0.0542
 2196W        W 5715   7.187   6.992  10.346  0.0993  0.0500 -0.0200
 2197W        W 5716   6.598   8.123   8.790  0.0619 -0.0759 -0.0478
 2198W        W 5717   2.006   7.418   9.274 -0.5590 -0.0305 -0.3285
 2199W        W 5718   6.215   5.987   9.748  0.1824  0.0810  0.1423
 2200W        W 5719   3.543   0.857   0.268 -0.0665  0.1814  0.0956
 2201W        W 5720   8.669   7.534   1.837  0.0676 -0.0829  0.1779
 2202W        W 5721   2.557   2.335   2.422  0.2662  0.0538  0.2362
 2203W        W 5722   0.617   7.365   1.333  0.4038 -0.2303  0.3079
 2204W        W 5723   0.120   7.849   9.348 -0.0086  0.2713  0.1431
 2205W        W 5724   0.610   7.698   8.451 -0.1775  0.3827 -0.0737
 2206W        W 5725   8.356   0.817   0.333  0.2365 -0.1800  0.0765
 2207W        W 5726   4.519   5.259  12.404 -0.2428  0.0000 -0.1530
 2208W        W 5727   9.031   0.227   0.023 -0.0939  0.2384 -0.1244
 2209W        W 5728   3.152   7.467   9.048 -0.1190 -0.2649 -0.1616
 2210W        W 5729   9.002   7.804   3.683 -0.1264 -0.0410  0.3630
 2211W        W 5730   3.272   9.537   0.916  0.4800 -0.1449  0.0508
 2212W        W 5731   0.172   8.765  11.098  0.1572 -0.0336  0.2232
 2213W        W 5732   4.944   0.213   0.983  0.0512 -0.1104  0.4076
 2214W        W 5733   8.747   0.871  10.103  0.0681  0.1103  0.0788
 2215W        W 5734   3.605   5.567  12.075 -0.0833 -0.2780  0.1341
 2216W        W 5735   7.565   3.487   0.846 -0.0541 -0.1569 -0.1582
 2217W        W 5736   3.319   6.167   1.818  0.4974 -0.2495 -0.0877
 2218W        W 5737   5.388   8.505   0.591 -0.0299 -0.0705  0.0740
 2219W        W 5738   5.434   4.258  10.172  0.0465 -0.0674  0.0932
 2220W        W 5739   6.174   8.820   2.372  0.0549  0.1600 -0.0405
 2221W        W 5740   2.492   0.586   0.488  0.1783 -0.0711 -0.2323
 2222W        W 5741   8.030   6.050   1.395  0.2144  0.3525  0.0983
 2223W        W 5742   4.842   3.486   0.704 -0.0626  0.2491 -0.0646
 2224W        W 5743   3.972   9.314   1.421 -0.1821  0.1835 -0.0481
 2225W        W 5744   5.966   7.459  11.241 -0.2599  0.1952 -0.0004
 2226W        W 5745   0.980   8.573   2.274 -0.3900 -0.0496  0.1506
 2227W        W 5746   0.020   1.092  10.706 -0.0229 -0.0256  0.1541
 2228W        W 5747   7.305   9.512   7.992 -0.0202 -0.1370 -0.3501
 2229W        W 5748   3.889   7.987  10.141 -0.2750  0.1891 -0.1471
 2230W        W 5749   4.791   2.020  12.435 -0.0648  0.3539 -0.2695
 2231W        W 5750   9.087   6.504   9.382 -0.1694  0.0352  0.0087
 2232W        W 5751   0.365   2.821  11.714  0.1617 -0.0176 -0.2107
 2233W        W 5752   2.105   2.012   0.711  0.0968  0.4409 -0.2346
 2234W        W 5753   9.268   1.015  10.960 -0.1275  0.0832  0.0823
 2235W        W 5754   5.872   9.638   9.072 -0.3399 -0.1641 -0.1886
 2236W        W 5755   5.469   7.430   4.499 -0.0978  0.0619 -0.2328
 2237W        W 5756   3.859   1.858   0.001  0.1181  0.3020  0.1823
 2238W        W 5757   2.009   6.554   2.821 -0.1789  0.0963  0.0454
 2239W        W 5758   5.462   4.521  11.952  0.0772  0.1471 -0.1573
 2240W        W 5759   8.954   5.709  10.039  0.0420  0.0305 -0.0712
 2241W        W 5760   8.192   2.736   1.700 -0.0803 -0.1955  0.2086
 2242W        W 5761   8.964   2.573  12.110  0.0723  0.2729  0.2560
 2243W        W 5762   5.092   6.185   9.058 -0.1413 -0.3038 -0.3285
 2244W        W 5763   6.852   6.061   1.428  0.0068  0.0212 -0.0283
 2245W        W 5764   2.903   0.882   2.708 -0.3142  0.2153  0.2294
 2246W        W 5765   4.370   2.280   0.509  0.2474  0.0633  0.1288
 2247W        W 5766   0.910   8.504   0.673 -0.0908 -0.2377 -0.0120
 2248W        W 5767   0.515   5.518   1.645 -0.0837  0.2097  0.1542
 2249W        W 5768   2.488   3.766   1.111  0.0316  0.3374  0.2265
 2250W        W 5769   7.402   8.046   8.528  0.0448  0.0664 -0.1986
 2251W        W 5770   0.786   3.360   3.167 -0.0231  0.0670  0.1596
 2252W        W 5771   3.046   4.711   9.524  0.0628 -0.0759  0.0853
 2253W        W 5772   6.843   5.253   1.392  0.1369 -0.2605 -0.2558
 2254W        W 5773   4.333   6.913   9.915  0.0158 -0.1088  0.1628
 2255W        W 5774   9.185   4.440  11.221  0.0991  0.1047  0.2209
 2256W        W 5775   4.871   8.874   1.311 -0.0720  0.0079 -0.2696
 2257W        W 5776   5.300   4.159   3.661 -0.2521 -0.0618  0.2877
 2258W        W 5777   5.321   2.138   2.648  0.1101  0.0215  0.1683
 2259W        W 5778   6.457   3.633   1.069 -0.1579 -0.0225  0.0707
 2260W        W 5779   8.179   1.369  11.501 -0.1062 -0.0998  0.0410
 2261W        W 5780   6.546   7.147   8.644 -0.0151 -0.0512  0.1543
 2262W        W 5781   2.810   5.184   1.092 -0.1222  0.2007 -0.0457
 2263W        W 5782   2.404   4.618  11.127  0.0441  0.0458 -0.1545
 2264W        W 5783   4.350   3.542   0.584  0.0597 -0.1080 -0.0007
 2265W        W 5784   4.053   8.899   1.794  0.2790 -0.4563  0.1086
 2266W        W 5785   0.542   8.825   3.907 -0.1577  0.1803  0.0203
 2267W        W 5786   7.492   9.459  11.116  0.0985 -0.1881  0.2961
 2268W        W 5787   4.854   6.278   4.894  0.0640 -0.2675  0.2240
 2269W        W 5788   6.378   7.999   8.154 -0.0603  0.3553 -0.0673
 2270W        W 5789   2.907   5.979   9.009  0.0966 -0.0699  0.0299
 2271W        W 5790   4.460   3.274  12.415  0.0888 -0.0040 -0.3626
 2272W        W 5791   5.142   4.072  11.646 -0.0450  0.1365 -0.3220
 2273W        W 5792   7.297   2.262   3.615 -0.0770 -0.1581  0.2491
 2274W        W 5793   7.477   5.701  12.152  0.2887 -0.1209  0.0587
 2275W        W 5794   7.489   2.079  10.034 -0.1160 -0.1511  0.0570
 2276W        W 5795   4.187   0.327  12.554  0.0540  0.1012  0.2217
 2277W        W 5796   5.484   0.475   1.227  0.1142  0.2400 -0.0535
 2278W        W 5797   9.448   7.226   3.880  0.0558  0.0188 -0.1394
 2279W        W 5798   8.190   1.679   3.957 -0.0902  0.1289  0.1120
 2280W        W 5799   1.891   9.344   2.822  0.0012 -0.2982 -0.0642
 2281W        W 5800   1.021   1.679   0.084  0.0255 -0.1445 -0.0298
 2282W        W 5801   5.006   7.545   1.373  0.1673  0.0787 -0.2415
 2283W        W 5802   3.319   6.617   2.642 -0.1017  0.1545 -0.1990
 2284W        W 5803   2.255   8.837   0.599  0.5590 -0.2390 -0.0189
 2285W        W 5804   8.011   2.859   3.489  0.0610  0.3561  0.2316
 2286W        W 5805   7.336   0.241   2.858  0.1061  0.2945  0.1051
 2287W        W 5806   0.911   4.060   2.407 -0.0969 -0.1650  0.2252
 2288W        W 5807   7.085   7.293   8.921  0.2271  0.2091 -0.1467
 2289W        W 5808   8.200   7.442   2.516 -0.1194  0.1637  0.0982
 2290W        W 5809   7.988   7.519   8.935 -0.0239  0.3732  0.0724
 2291W        W 5810   3.549   3.145  11.144  0.1520 -0.1623 -0.0934
 2292W        W 5811   7.994   0.672   0.098  0.1930 -0.0249 -0.2644
 2293W        W 5812   0.968   5.206  10.328 -0.1700  0.0119  0.2436
 2294W        W 5813   8.970   3.787   9.793 -0.0120 -0.1863  0.2298
 2295W        W 5814   3.842   3.410  12.473 -0.2112 -0.0270 -0.0560
 2296W        W 5815   4.774   0.465  10.201  0.0214  0.3102  0.2372
 2297W        W 5816   5.030   8.324   8.583  0.2739 -0.1161  0.4416
 2298W        W 5817   7.958   2.334   2.732 -0.2609 -0.3968 -0.0908
 2299W        W 5818   3.058   5.159   4.149  0.1752 -0.1466  0.3290
 2300W        W 5819   5.257   6.002   8.562 -0.0597 -0.2287 -0.1928
 2301W        W 5820   2.258   6.644   0.898  0.1961  0.0912  0.3310
 2302W        W 5821   7.762   1.535   9.063 -0.0324  0.1750  0.1208
 2303W        W 5822   7.878   2.648   8.921 -0.3498  0.1898  0.0288
 2304W        W 5823   6.108   2.421   8.408  0.0758  0.0663 -0.2415
 2305W        W 5824   7.910   8.116  10.561  0.2229 -0.1508 -0.0230
 2306W        W 5825   0.451   7.267   2.222 -0.0135  0.0734 -0.3599
 2307W        W 5826   5.549   3.498   0.024  0.1670  0.0955  0.1341
 2308W        W 5827   3.323   0.650   1.658  0.1501  0.0124 -0.0171
 2309W        W 5828   7.473   6.167  12.089 -0.2644  0.1198  0.1112
 2310W        W 5829   6.528   7.209  10.588  0.1376  0.2994  0.1352
 2311W        W 5830   0.383   3.326  10.143  0.1900  0.0372  0.0461
 2312W        W 5831   3.156   5.529   9.071 -0.0777 -0.0240 -0.2244
 2313W        W 5832   6.684   8.500   0.272 -0.5674  0.2186  0.1472
 2314W        W 5833   4.508   3.026   2.865  0.1660 -0.1623  0.0537
 2315W        W 5834   6.099   9.098   8.908 -0.2616  0.0621  0.0795
 2316W        W 5835   3.210   4.571   1.422  0.2389  0.0401 -0.3085
 2317W        W 5836   4.475   1.237   4.523  0.1926  0.0201  0.2293
 2318W        W 5837   1.715   2.909   8.564  0.0022  0.0746 -0.1202
 2319W        W 5838   8.186   5.130  10.174  0.1094  0.0547 -0.0531
 2320W        W 5839   3.094   1.747  11.576  0.1123  0.0384  0.0672
 2321W        W 5840   8.206   2.774   3.956  0.5438 -0.0138 -0.1700
 2322W        W 5841   4.766   5.081  10.659  0.0204  0.0556  0.0960
 2323W        W 5842   6.910   6.264   8.837 -0.2362 -0.0565 -0.1586
 2324W        W 5843   1.828   2.049   1.980 -0.0612  0.1100  0.1150
 2325W        W 5844   1.043   3.619   0.993 -0.1661 -0.0050 -0.0650
 2326W        W 5845   1.361   9.302   9.974  0.1066 -0.2725  0.1186
 2327W        W 5846   5.273   7.008   2.695  0.1752  0.1764  0.0460
 2328W        W 5847   1.924   2.697   1.213  0.2073  0.2016 -0.3441
 2329W        W 5848   2.348   7.249  10.826  0.2146 -0.1900 -0.2906
 2330W        W 5849   3.709   1.031  12.410  0.0474  0.1667  0.1343
 2331W        W 5850   6.638   6.493   2.045  0.1343  0.2352 -0.3282
 2332W        W 5851   7.537   0.831   1.300  0.0322 -0.0668  0.1069
 2333W        W 5852   0.537   3.265   0.772 -0.1190 -0.0840  0.1050
 2334W        W 5853   6.988   9.132   2.205 -0.0088 -0.4449 -0.2546
 2335W        W 5854   4.556   3.479  11.941  0.0356 -0.2754 -0.3272
 2336W        W 5855   4.301   5.143   9.193 -0.5128 -0.1454  0.2489
 2337W        W 5856   4.222   1.457   9.855 -0.1410  0.0478  0.2199
 2338W        W 5857   6.890   9.275   4.507  0.0236  0.1904 -0.2849
 2339W        W 5858   8.209   8.472  11.725 -0.0130  0.1610 -0.1931
 2340W        W 5859   9.637   9.291   1.678  0.1339  0.2409  0.1163
 2341W        W 5860   9.482   8.183   9.592  0.2152 -0.1160  0.2524
 2342W        W 5861   4.301   3.163  11.546 -0.1887 -0.0346  0.2573
 2343W        W 5862   9.056   3.430  10.390  0.1754  0.1216 -0.0312
 2344W        W 5863   7.456   1.687   3.385 -0.3202  0.0227 -0.0186
 2345W        W 5864   6.155   8.019  10.607  0.0797  0.3582  0.1534
 2346W        W 5865   8.093   1.317   2.637  0.0962 -0.0873 -0.2253
 2347W        W 5866   6.833   7.345  12.191  0.3448 -0.2351 -0.0646
 2348W        W 5867   9.540   2.897   3.374 -0.0162 -0.4520 -0.0687
 2349W        W 5868   5.285   4.210   3.164  0.0795  0.1092  0.0940
 2350W        W 5869   8.534   1.302  11.058  0.2266 -0.1739 -0.0931
 2351W        W 5870   3.388   2.899   3.070 -0.0692 -0.2259 -0.1023
 2352W        W 5871   2.716   9.146   2.388  0.1858  0.3308  0.0158
 2353W        W 5872   5.506   0.769   9.136  0.1608  0.1469  0.0350
 2354W        W 5873   7.334   9.447   1.978 -0.0248 -0.1906 -0.0275
 2355W        W 5874   9.539   5.887  10.220 -0.0673 -0.0334 -0.1623
 2356W        W 5875   1.383   7.765   1.763 -0.0911  0.0916 -0.0203
 2357W        W 5876   8.748   7.541   0.496  0.2343 -0.0459 -0.0297
 2358W        W 5877   8.767   1.337  10.094 -0.1908  0.2105  0.2123
 2359W        W 5878   9.325   2.949   0.740  0.0603 -0.0917  0.0702
 2360W        W 5879   7.092   4.790   2.625 -0.4654 -0.0763  0.4786
 2361W        W 5880   3.844   2.288  11.778  0.0621  0.1329  0.2283
 2362W        W 5881   3.352   3.775   0.234 -0.1204 -0.4621 -0.0273
 2363W        W 5882   7.095   5.488   0.258  0.0164  0.0682 -0.0515
 2364W        W 5883   7.510   6.246  10.660  0.2076  0.2123  0.2357
 2365W        W 5884   0.990   0.712   0.212  0.0819  0.2546 -0.0993
 2366W        W 5885   5.530   0.820   0.443 -0.2443  0.0301  0.2235
 2367W        W 5886   4.704   5.741   1.084  0.3629 -0.1842  0.0024
 2368W        W 5887   3.374   2.653   4.286 -0.1083  0.0442  0.2950
 2369W        W 5888   5.984   1.048   1.881 -0.1286 -0.4040 -0.0115
 2370W        W 5889   6.974   3.127  11.169 -0.2266 -0.2447 -0.2038
 2371W        W 5890   3.407   6.948   0.123  0.2258  0.1316 -0.2059
 2372W        W 5891   4.860   0.778  11.874 -0.0204  0.0124 -0.1267
 2373W        W 5892   8.168   8.321   9.718  0.1531  0.0868 -0.1736
 2374W        W 5893   5.317   8.793   4.135 -0.0660  0.0027 -0.0949
 2375W        W 5894   9.632   7.163  10.195  0.3237  0.0720 -0.1959
 2376W        W 5895   0.966   4.057  12.091  0.1471 -0.0117 -0.3419
 2377W        W 5896   5.836   2.530   1.029  0.3152 -0.0869  0.1122
 2378W        W 5897   3.182   4.000   9.450 -0.0640 -0.2542 -0.2585
 2379W        W 5898   2.091   2.961   0.486  0.1488 -0.0025  0.1283
 2380W        W 5899   9.327   7.276   0.629 -0.1060  0.0283 -0.0620
 2381W        W 5900   0.961   2.042   1.593 -0.1800 -0.1549 -0.4000
 2382W        W 5901   5.412   9.403   2.606  0.1747 -0.0114 -0.1467
 2383W        W 5902   5.175   5.671   2.022  0.0117 -0.2011  0.1470
 2384W        W 5903   4.673   4.732   2.214  0.0609  0.0879 -0.0414
 2385W        W 5904   9.581   9.649  12.326 -0.3112  0.3256 -0.0625
 2386W        W 5905   1.088   2.939   9.401  0.2428  0.0877 -0.1054
 2387W        W 5906   1.709   2.100  12.448 -0.0552 -0.2323  0.0481
 2388W        W 5907   4.948   4.724   9.171 -0.3531  0.0093 -0.0975
 2389W        W 5908   2.814   5.045   3.117 -0.1577  0.4221 -0.0644
 2390W        W 5909   1.822   9.325  12.010 -0.2104 -0.0171  0.1366
 2391W        W 5910   2.375   6.034  10.399  0.2162  0.1790  0.2967
 2392W        W 5911   5.810   2.221   9.165 -0.0930 -0.0283  0.0765
 2393W        W 5912   0.865   8.972   1.402 -0.2001  0.2514 -0.1415
 2394W        W 5913   0.733   4.503   0.045  0.2371  0.3885 -0.0731
 2395W        W 5914   7.353   3.833   0.009  0.1255  0.0391  0.1411
 2396W        W 5915   0.373   7.076   2.690  0.2013  0.0937 -0.0901
 2397W        W 5916   2.482   0.386   0.999  0.4428 -0.2045 -0.0022
 2398W        W 5917   9.045   0.279   3.190  0.0401  0.0572 -0.1263
 2399W        W 5918   5.590   8.067  12.343 -0.0174 -0.0521  0.0260
 2400W        W 5919   2.042   3.534   1.315  0.1784  0.1769  0.0559
 2401W        W 5920   7.991   4.151  11.790 -0.0088  0.0982  0.2050
 2402W        W 5921   4.236   2.516   1.691 -0.3441  0.0369 -0.1087
 2403W        W 5922   2.531   9.344  11.340  0.0104  0.1139 -0.4942
 2404W        W 5923   0.133   8.891   0.709  0.0979 -0.0413  0.3613
 2405W        W 5924   2.712   3.665   8.164  0.1553 -0.1488 -0.2871
 2406W        W 5925   5.209   6.029   0.807 -0.3293 -0.0566  0.1245
 2407W        W 5926   3.488   7.697   9.977  0.0182 -0.0492 -0.0517
 2408W        W 5927   0.357   8.523   9.837 -0.0931 -0.1424 -0.1316
 2409W        W 5928   6.841   0.208   2.713  0.1223 -0.0248  0.1811
 2410W        W 5929   5.970   3.813   2.776  0.0624 -0.3245 -0.2205
 2411W        W 5930   3.751   1.556  11.025 -0.0509 -0.0446 -0.0656
 2412W        W 5931   2.317   5.651   2.737 -0.1907  0.2098 -0.0387
 2413W        W 5932   3.312   3.620   0.733 -0.0444 -0.0899  0.0773
 2414W        W 5933   4.571   2.912   9.228  0.1844  0.2185  0.1277
 2415W        W 5934   3.412   1.656   9.101 -0.1459 -0.0093 -0.1589
 2416W        W 5935   9.319   1.406   3.368  0.4366  0.2048  0.1334
 2417W        W 5936   1.474   0.091  10.553 -0.1678  0.0922 -0.1891
 2418W        W 5937   4.380   1.243   2.399 -0.1434  0.0566  0.0311
 2419W        W 5938   8.392   4.794  12.510 -0.0649 -0.1079  0.0451
 2420W        W 5939   7.692   3.065   3.176 -0.2125 -0.0775  0.0025
 2421W        W 5940   1.303   2.612   2.265  0.1008 -0.1564  0.0870
 2422W        W 5941   4.187   1.630  11.799 -0.0753  0.5073 -0.0999
 2423W        W 5942   3.513   7.444  12.320 -0.0003 -0.4783 -0.4795
 2424W        W 5943   9.571   5.290  10.221  0.0579 -0.0480 -0.0260
 2425W        W 5944   3.317   3.561  11.038 -0.0422  0.0421 -0.0306
 2426W        W 5945   3.394   6.646   4.491  0.1359  0.1834 -0.2831
 2427W        W 5946   3.736   7.529  11.851 -0.2631 -0.1666  0.0508
 2428W        W 5947   7.654   0.775   9.883  0.1088  0.0530 -0.1559
 2429W        W 5948   8.659   3.429   3.237  0.0802 -0.0859 -0.3986
 2430W        W 5949   3.700   6.970   0.543  0.0877  0.3563 -0.0483
 2431W        W 5950   3.131   5.438  12.108  0.1523 -0.0155  0.2620
 2432W        W 5951   1.084   1.485  10.420 -0.1208 -0.3796  0.1485
 2433W        W 5952   1.757   5.144   0.629 -0.0230  0.0145  0.0857
 2434W        W 5953   3.720   9.263   0.941 -0.1524 -0.3083  0.0826
 2435W        W 5954   9.315   9.668  10.827  0.1394  0.3252 -0.1639
 2436W        W 5955   8.777   2.924   0.440 -0.0786  0.1785 -0.1875
 2437W        W 5956   3.956   5.356   9.608  0.3923 -0.1229 -0.1429
 2438W        W 5957   8.137   1.223   3.582 -0.0017  0.0880 -0.0525
 2439W        W 5958   1.876   9.364   1.373  0.3172 -0.4369 -0.1753
 2440W        W 5959   7.053   3.423   0.200 -0.4495  0.2279  0.1922
 2441W        W 5960   6.222   5.279  11.967 -0.1908  0.1285 -0.0026
 2442W        W 5961   6.361   5.249   2.785 -0.2329  0.0788 -0.0680
 2443W        W 5962   9.242   7.782   0.607  0.1446  0.0728  0.1275
 2444W        W 5963   0.057   7.289   3.484  0.1851  0.1195 -0.0574
 2445W        W 5964   3.361   3.906   3.758 -0.1338 -0.0195 -0.1498
 2446W        W 5965   2.843   3.300   2.545  0.1735  0.1911 -0.1262
 2447W        W 5966   2.217   7.408   2.122 -0.1541 -0.0072 -0.0988
 2448W        W 5967   3.573   7.192   9.087  0.0289  0.0571 -0.0020
 2449W        W 5968   7.680   8.451   3.631  0.1198  0.2367  0.1970
 2450W        W 5969   2.900   5.206   3.621  0.0936  0.0442  0.1467
 2451W        W 5970   6.051   8.416   9.631 -0.0444 -0.3983  0.1755
 2452W        W 5971   6.318   0.218  11.149  0.1754 -0.3108 -0.1023
 2453W        W 5972   2.785   6.914   9.707 -0.1107 -0.1066 -0.1226
 2454W        W 5973   7.197   6.502  11.676  0.2732  0.0609 -0.1963
 2455W        W 5974   0.166   4.052   9.570 -0.2794 -0.2188 -0.0891
 2456W        W 5975   8.697   8.467   9.724 -0.0099  0.2763  0.0401
 2457W        W 5976   7.897   3.977   1.296 -0.0353  0.0490 -0.0092
 2458W        W 5977   1.035   7.014   9.954  0.0406  0.0718  0.6028
 2459W        W 5978   8.560   5.118   1.060  0.1490  0.1069  0.0077
 2460W        W 5979   3.777   6.411   3.336  0.0016 -0.0421  0.0643
 2461W        W 5980   7.253   2.919   0.066  0.1147  0.2685  0.0584
 2462W        W 5981   8.379   1.133  11.912 -0.2297 -0.0604 -0.0095
 2463W        W 5982   6.117   6.118  10.708 -0.2971 -0.3135 -0.2891
 2464W        W 5983   6.062   8.935  10.385 -0.0544 -0.3163 -0.1188
 2465W        W 5984   4.667   1.449   3.363 -0.0638 -0.0416  0.1409
 2466W        W 5985   4.919   1.913   9.215  0.1303  0.3649 -0.0726
 2467W        W 5986   7.053   3.716   1.146  0.2084 -0.2186 -0.0563
 2468W        W 5987   9.363   1.238   9.279  0.0658  0.2842 -0.1904
 2469W        W 5988   9.592   7.044   0.962 -0.0993 -0.2067 -0.1895
 2470W        W 5989   2.994   2.997   2.091 -0.1251 -0.1225  0.0444
 2471W        W 5990   3.818   3.616   3.079 -0.2021 -0.2361  0.0300
 2472W        W 5991   7.392   9.048   9.757  0.3369  0.0721 -0.0923
 2473W        W 5992   2.209   2.757  12.099 -0.2465  0.0439  0.1846
 2474W        W 5993   4.775   4.164   4.308 -0.0276  0.2891 -0.1858
 2475W        W 5994   4.112   2.783   2.667  0.0475 -0.3651  0.0732
 2476W        W 5995   0.772   2.833   0.505 -0.0406  0.0813  0.0499
 2477W        W 5996   0.646   8.801   0.954 -0.1875  0.0359 -0.0877
 2478W        W 5997   2.769   0.830   0.779  0.0690 -0.3437 -0.0144
 2479W        W 5998   4.710   5.887   8.560 -0.2098 -0.1856 -0.1714
 2480W        W 5999   8.799   2.123  11.205  0.1286  0.3273  0.1654
 2481W        W 6000   3.263   5.539   1.500 -0.0854  0.2291 -0.1629
 2482W        W 6001   3.804   5.831  10.229 -0.0957  0.1680 -0.1861
 2483W        W 6002   8.870   6.795  12.153  0.1435  0.1822 -0.0744
 2484W        W 6003   1.025   3.618  11.256  0.0339  0.0421 -0.1968
 2485W        W 6004   6.495   5.553  11.021  0.1310 -0.0688  0.3674
 2486W        W 6005   2.050   3.286  11.419 -0.1156  0.1065  0.0162
 2487W        W 6006   0.624   4.164   8.770  0.1923  0.1484 -0.0193
 2488W        W 6007   6.429   9.361   3.849  0.1688 -0.0729 -0.0465
 2489W        W 6008   5.044   5.022  11.730 -0.1168  0.1148  0.1384
 2490W        W 6009   1.220   8.757   0.987  0.2634  0.1011 -0.1026
 2491W        W 6010   8.174   8.020  10.987 -0.1915 -0.0423  0.0563
 2492W        W 6011   4.686   8.195   0.103  0.0677 -0.1605  0.1904
 2493W        W 6012   7.263   3.970  10.678 -0.1903 -0.1877 -0.2867
 2494W        W 6013   0.068   5.678   1.336  0.0468 -0.1351  0.2627
 2495W        W 6014   8.730   4.512   2.458  0.2233  0.0113  0.0823
 2496W        W 6015   7.646   3.656  11.056 -0.0752 -0.1479 -0.0809
 2497W        W 6016   1.028   1.191   0.029 -0.1729 -0.3516 -0.0519
 2498W        W 6017   6.456   2.392  10.789  0.1083  0.1652  0.2056
 2499W        W 6018   4.713   1.487  11.747 -0.4589 -0.1004 -0.2417
 2500W        W 6019   1.737   5.338   4.168 -0.2741  0.0774  0.2617
 2501W        W 6020   2.631   6.173   3.451 -0.2853  0.2956 -0.1764
 2502W        W 6021   5.936   9.401   0.392  0.1821  0.1859 -0.0098
 2503W        W 6022   0.494   6.484  11.853 -0.1103  0.0400 -0.1165
 2504W        W 6023   2.521   4.467   4.009 -0.1610 -0.0944  0.0461
 2505W        W 6024   2.008   6.391   4.115 -0.4279 -0.0864 -0.1317
 2506W        W 6025   5.021   7.155   1.018 -0.0704  0.1026  0.2367
 2507W        W 6026   3.856   3.543   9.768  0.0549 -0.3275 -0.0230
 2508W        W 6027   5.918   5.708   8.831 -0.1527 -0.3273  0.1231
 2509W        W 6028   9.095   8.724  10.174  0.0352 -0.0554  0.2128
 2510W        W 6029   8.104   9.615   9.496  0.2032 -0.0198  0.0226
 2511W        W 6030   5.743   1.238   2.704 -0.1975  0.0526 -0.2825
 2512W        W 6031   8.002   8.670  12.556  0.2644  0.0566 -0.0676
 2513W        W 6032   4.074   3.761   3.989  0.0274 -0.3063  0.1755
 2514W        W 6033   4.526   3.424   9.225 -0.0076  0.3362  0.1621
 2515W        W 6034   2.089   1.158   1.766 -0.2352  0.0829 -0.3042
 2516W        W 6035   2.779   2.345   1.359  0.2785 -0.1303 -0.2562
 2517W        W 6036   7.868   8.037   2.739  0.0291 -0.0457  0.2371
 2518W        W 6037   2.498   6.944   9.285  0.0365 -0.0579  0.1589
 2519W        W 6038   0.266   3.995   2.856 -0.1942  0.2123 -0.0923
 2520W        W 6039   1.391   9.271  10.480  0.1817 -0.0729 -0.1389
 2521W        W 6040   0.721   7.915  12.117  0.2185 -0.1929  0.1198
 2522W        W 6041   4.799   5.629   3.318  0.1593 -0.3473  0.4037
 2523W        W 6042   4.015   7.475  10.507 -0.1306 -0.1753 -0.2796
 2524W        W 6043   6.496   2.206  11.389 -0.1926  0.0512 -0.2912
 2525W        W 6044   1.824   4.235   0.669 -0.2244  0.1188 -0.0817
 2526W        W 6045   7.223   2.038  12.060 -0.1572 -0.0114  0.1834
 2527W        W 6046   9.282   4.528   4.068  0.0332 -0.3827  0.3504
 2528W        W 6047   6.260   4.851  10.879 -0.0330  0.1141 -0.2918
 2529W        W 6048   4.939   5.288   9.114  0.0995 -0.2046 -0.0506
 2530W        W 6049   4.688   2.836   4.757  0.2649 -0.0531  0.2553
 2531W        W 6050   8.001   4.386   4.220  0.3620 -0.2368 -0.0071
 2532W        W 6051   4.468   5.278   7.824  0.3040 -0.0545  0.0349
 2533W        W 6052   6.967   7.879  12.000  0.0025 -0.1063  0.1683
 2534W        W 6053   3.969   9.667   2.755  0.0624  0.3077 -0.0218
 2535W        W 6054   0.349   9.530  12.212 -0.1895  0.1378 -0.3385
 2536W        W 6055   7.945   6.711   9.951 -0.0069  0.0220 -0.0686
 2537W        W 6056   6.038   4.264   0.229 -0.0386  0.1526 -0.0811
 2538W        W 6057   3.993   7.074   1.948 -0.2846 -0.1251  0.0245
 2539W        W 6058   6.390   0.360  11.702 -0.2285  0.1228  0.0646
 2540W        W 6059   4.198   6.058   4.808  0.3193  0.3086 -0.0702
 2541W        W 6060   7.206   7.747   3.782  0.0538  0.1386  0.1080
 2542W        W 6061   5.469   0.753   2.771  0.0149  0.0059 -0.0008
 2543W        W 6062   4.121   1.310  12.431  0.0852  0.0882  0.0506
 2544W        W 6063   7.286   5.549   9.330 -0.1790 -0.1514  0.0441
 2545W        W 6064   4.675   3.893   9.246  0.0546  0.1087  0.0407
 2546W        W 6065   0.356   4.829   4.205  0.1025  0.1641  0.0634
 2547W        W 6066   3.332   5.710  10.283 -0.2031  0.1069  0.1407
 2548W        W 6067   4.706   8.641   2.618  0.2471 -0.2095 -0.1164
 2549W        W 6068   8.025   4.713   9.905 -0.1353 -0.0545 -0.1665
 2550W        W 6069   4.521   7.489   3.854  0.1926  0.0566  0.0037
 2551W        W 6070   0.704   3.126   1.675  0.0638  0.0660  0.2360
 2552W        W 6071   6.722   5.811   0.252 -0.0372  0.3072 -0.1467
 2553W        W 6072   7.742   9.133   0.768 -0.3281 -0.1476  0.0856
 2554W        W 6073   2.613   0.952   0.078 -0.0405 -0.4252 -0.1599
 2555W        W 6074   4.561   0.271   2.703 -0.3510 -0.2047 -0.0702
 2556W        W 6075   6.718   3.546  12.440  0.1870  0.0489 -0.1014
 2557W        W 6076   6.725   5.699   1.143  0.2294  0.0947  0.2373
 2558W        W 6077   4.832   7.288  11.824  0.0476  0.0064 -0.0409
 2559W        W 6078   6.586   1.172   9.667 -0.0319  0.1830  0.3915
 2560W        W 6079   9.086   0.063   0.764 -0.0946 -0.0973 -0.1349
 2561W        W 6080   1.695   3.308   0.295 -0.1332 -0.0326  0.1645
 2562W        W 6081   3.841   0.810   4.218  0.0262 -0.2710  0.0071
 2563W        W 6082   1.354   3.801   1.555 -0.0710 -0.1646  0.0115
 2564W        W 6083   1.470   4.010  10.511 -0.0824 -0.2299  0.4571
 2565W        W 6084   7.416   2.582  10.340  0.1035  0.0287 -0.1049
 2566W        W 6085   7.870   3.380   4.078 -0.2652 -0.0100 -0.0825
 2567W        W 6086   5.685   5.284   2.800 -0.1938 -0.0353 -0.1317
 2568W        W 6087   6.860   4.408   2.405 -0.2694  0.1812  0.2086
 2569W        W 6088   2.382   2.474  11.683 -0.3653 -0.2620 -0.0457
 2570W        W 6089   6.847   6.559   1.514  0.0220 -0.1620 -0.2037
 2571W        W 6090   0.161   5.609   8.962  0.3140 -0.1124  0.0364
 2572W        W 6091   8.139   7.400   4.170  0.3308  0.0797  0.1229
 2573W        W 6092   9.204   8.230   2.444  0.1886 -0.0098 -0.3461
 2574W        W 6093   4.274   2.531   8.915 -0.0678  0.1181  0.0842
 2575W        W 6094   6.152   9.525  10.746 -0.1504  0.3881 -0.0296
 2576W        W 6095   5.229   8.660  11.088 -0.2569  0.1096  0.0950
 2577W        W 6096   1.257   2.311   2.703 -0.0700  0.1285 -0.1549
 2578W        W 6097   3.887   9.011   0.390 -0.1545  0.0128 -0.2902
 2579W        W 6098   7.478   8.244   1.316  0.1511 -0.1076 -0.3252
 2580W        W 6099   7.530   1.556   2.374  0.0597 -0.0377  0.2221
 2581W        W 6100   9.165   5.912  10.552  0.0456 -0.2629 -0.0246
 2582W        W 6101   6.231   1.800  11.416  0.0145 -0.4883  0.1240
 2583W        W 6102   5.993   3.878  12.485  0.0872  0.3203  0.0541
 2584W        W 6103   1.345   2.257  10.734 -0.1502  0.2821  0.1944
 2585W        W 6104   2.642   2.660  12.542 -0.1580 -0.0343  0.0347
 2586W        W 6105   7.539   5.329   0.491  0.0196  0.0766 -0.1254
 2587W        W 6106   6.537   9.201  10.563  0.2817 -0.0704 -0.0063
 2588W        W 6107   6.028   0.199   0.419  0.2052 -0.0885 -0.1189
 2589W        W 6108   9.536   6.744  11.293 -0.0397  0.0774  0.0587
 2590W        W 6109   0.319   0.388   3.674  0.2216  0.1219 -0.4032
 2591W        W 6110   7.251   1.604   1.626 -0.0192 -0.0931  0.3427
 2592W        W 6111   0.081   1.749   0.511  0.3515 -0.1503  0.1396
 2593W        W 6112   9.066   9.293   1.022  0.2377  0.0802 -0.2311
 2594W        W 6113   0.603   8.513  11.970 -0.0169 -0.1471  0.2828
 2595W        W 6114   7.903   9.648   4.096 -0.1160  0.4446  0.0604
 2596W        W 6115   1.945   3.963   1.589  0.3248  0.1468  0.0376
 2597W        W 6116   4.609   6.496   0.427  0.2434 -0.0474 -0.0537
 2598W        W 6117   6.354   6.086   8.749  0.1485 -0.1709 -0.0352
 2599W        W 6118   8.360   9.584   2.259 -0.2520  0.0961  0.1024
 2600W        W 6119   9.337   4.430  10.293 -0.2332 -0.1456 -0.1151
 2601W        W 6120   3.477   0.705   3.014  0.2863  0.3857  0.4774
 2602W        W 6121   2.773   3.359   3.386  0.0295 -0.0887 -0.3350
 2603W        W 6122   0.812   1.556  11.842  0.1941 -0.0669  0.1086
 2604W        W 6123   7.702   3.337   4.889  0.1939  0.0583  0.1344
 2605W        W 6124   7.834   6.300   8.961 -0.1438 -0.4172 -0.0393
 2606W        W 6125   2.626   6.441  12.580  0.3006 -0.1314 -0.0381
 2607W        W 6126   6.611   0.376   3.991  0.1161 -0.1298 -0.2978
 2608W        W 6127   3.580   6.771  10.019 -0.0344  0.2881 -0.2163
 2609W        W 6128   0.548   6.111   9.811  0.3489 -0.2005  0.1386
 2610W        W 6129   8.564   6.691   1.892  0.2276  0.0647  0.1767
 2611W        W 6130   9.401   4.246   1.690 -0.4311  0.0940 -0.2259
 2612W        W 6131   3.153   5.790  10.769 -0.2182 -0.1692  0.0086
 2613W        W 6132   7.574   3.016   1.051  0.0695  0.1618  0.1098
 2614W        W 6133   8.012   2.865   1.227  0.0967  0.4066  0.1055
 2615W        W 6134   4.031   7.866   8.734 -0.1281 -0.2206  0.0859
 2616W        W 6135   5.246   6.571   2.354 -0.4304  0.0259  0.2614
 2617W        W 6136   8.339   0.839  10.710 -0.0632 -0.0024 -0.2497
 2618W        W 6137   2.471   8.704   9.228 -0.0207  0.3252  0.2663
 2619W        W 6138   5.201   1.502  10.651 -0.0709 -0.1820 -0.0577
 2620W        W 6139   6.493   8.524   2.805 -0.1141  0.0925  0.0880
 2621W        W 6140   6.665   7.276   2.687  0.1694  0.3051  0.2898
 2622W        W 6141   3.708   8.928   9.821 -0.0055  0.0891 -0.0850
 2623W        W 6142   6.560   5.452   2.291  0.2253  0.1807  0.1215
 2624W        W 6143   0.799   0.721  11.784 -0.0765  0.1282  0.1499
 2625W        W 6144   6.308   6.093   0.086  0.2200  0.1649  0.2709
 2626W        W 6145   0.053   4.276  10.029 -0.0280  0.0122  0.2010
 2627W        W 6146   1.658   3.104   2.031  0.0767  0.0155  0.2821
 2628W        W 6147   0.996   7.484   0.427  0.0741 -0.2701 -0.0492
 2629W        W 6148   1.488   9.095   9.257 -0.0848 -0.2788  0.1159
 2630W        W 6149   4.661   4.297   8.959  0.1709 -0.3429  0.1282
 2631W        W 6150   5.151   6.409   1.590 -0.3822  0.2092 -0.1219
 2632W        W 6151   6.671   9.382   3.288 -0.0008 -0.3314  0.1988
 2633W        W 6152   3.770   1.290   0.253  0.3926  0.2976  0.2801
 2634W        W 6153   6.140   4.442   9.444  0.2969 -0.0615 -0.0389
 2635W        W 6154   0.391   3.034  11.191 -0.0230  0.2464  0.0001
 2636W        W 6155   3.569   6.521   0.769  0.0381 -0.0577  0.1953
 2637W        W 6156   6.568   1.779   0.229  0.1598  0.0184 -0.0460
 2638W        W 6157   4.291   2.786  12.447 -0.0988  0.1067 -0.0593
 2639W        W 6158   7.711   8.816   0.394 -0.1384  0.1150  0.1323
 2640W        W 6159   1.920   4.504  10.903  0.0349 -0.2058 -0.1564
 2641W        W 6160   1.502   4.652   1.969 -0.0847 -0.0243  0.0985
 2642W        W 6161   4.479   4.784   9.431 -0.0193  0.0189  0.2319
 2643W        W 6162   6.036   5.729  11.227 -0.0146  0.0140  0.0312
 2644W        W 6163   1.673   0.976  10.659  0.3706 -0.1561  0.2816
 2645W        W 6164   1.815   1.432   0.480  0.0302 -0.3011  0.0384
 2646W        W 6165   0.424   3.555   1.893 -0.2838  0.2152 -0.2220
 2647W        W 6166   4.877   4.005   3.861 -0.0270 -0.0913 -0.0784
 2648W        W 6167   7.327   9.520   0.906  0.1963 -0.3963  0.1497
 2649W        W 6168   6.232   6.578   1.776  0.0722 -0.1725 -0.2142
 2650W        W 6169   5.211   1.598   0.494  0.1846  0.2199  0.1223
 2651W        W 6170   8.752   0.044  11.628 -0.3296 -0.0251 -0.0441
 2652W        W 6171   7.989   7.111   0.900 -0.1477 -0.1002 -0.2024
 2653W        W 6172   7.478   0.331   1.308 -0.1663  0.0821 -0.2334
 2654W        W 6173   6.562   1.059  10.538 -0.0887  0.2171 -0.0807
 2655W        W 6174   9.041   3.758   0.991  0.0157 -0.1294  0.0733
 2656W        W 6175   8.732   3.033   2.471 -0.0880 -0.1481 -0.0849
 2657W        W 6176   0.244   8.549   2.316  0.3647 -0.1886 -0.2384
 2658W        W 6177   4.145   4.449   1.849  0.0639  0.1134  0.0110
 2659W        W 6178   7.795   2.930   4.376 -0.0973 -0.2543 -0.0326
 2660W        W 6179   1.516   0.719   0.130 -0.1521 -0.0756 -0.0545
 2661W        W 6180   0.487   6.584   1.638  0.2549 -0.1170 -0.0978
 2662W        W 6181   1.517   4.047   2.897  0.0953  0.1178 -0.1110
 2663W        W 6182   4.743   4.343   0.565  0.1753 -0.1495  0.0447
 2664W        W 6183   2.844   1.700  10.788  0.2749  0.1328  0.1930
 2665W        W 6184   2.204   4.105  11.212 -0.3345 -0.1439 -0.0098
 2666W        W 6185   7.894   3.514  12.325  0.2090  0.2409  0.0138
 2667W        W 6186   4.933   9.306   5.141 -0.0835  0.0267 -0.0678
 2668W        W 6187   7.017   1.677   0.391 -0.2900 -0.1550  0.2268
 2669W        W 6188   2.510   2.679  10.620 -0.2444 -0.1219 -0.1161
 2670W        W 6189   3.681   1.957   9.485 -0.1944 -0.2108  0.1258
 2671W        W 6190   2.848   0.676  12.312  0.0612  0.1737  0.1527
 2672W        W 6191   0.129   5.165   1.614  0.3674 -0.2102 -0.0256
 2673W        W 6192   3.226   8.120   4.812  0.1179 -0.2175 -0.0042
 2674W        W 6193   8.310   0.821   8.879 -0.1115 -0.1265 -0.2832
 2675W        W 6194   8.572   0.088   9.616 -0.1145 -0.0806  0.0651
 2676W        W 6195   4.585   4.963   8.299  0.1173  0.0464 -0.4199
 2677W        W 6196   4.943   8.612   3.891 -0.0950 -0.0228 -0.0667
 2678W        W 6197   4.914   4.487   2.931  0.2114 -0.0871  0.1911
 2679W        W 6198   4.957   1.388   3.756  0.0259  0.0940  0.4150
 2680W        W 6199   8.654   7.124   9.901  0.0783  0.0794 -0.2773
 2681W        W 6200   1.600   4.640   0.449 -0.3104  0.1875  0.0964
 2682W        W 6201   1.179   5.900   0.398  0.2062  0.1578 -0.0931
 2683W        W 6202   9.298   0.898  11.921  0.2763  0.2098 -0.2191
 2684W        W 6203   4.727   3.818  10.131  0.0531 -0.3153 -0.0122
 2685W        W 6204   1.254   0.915  11.564 -0.0896 -0.0143 -0.1973
 2686W        W 6205   1.099   6.065  12.019 -0.2360 -0.0124  0.0432
 2687W        W 6206   3.500   7.926   1.770 -0.2463  0.0866 -0.2054
 2688W        W 6207   3.595   9.214  12.467  0.0440 -0.2708 -0.1100
 2689W        W 6208   1.338   2.245   0.805  0.1502  0.1583  0.1591
 2690W        W 6209   0.566   5.749   0.225 -0.1846  0.3175 -0.1707
 2691W        W 6210   0.224   8.047   9.795  0.1708  0.1002 -0.2043
 2692W        W 6211   6.025   1.312   9.226 -0.0485  0.0941 -0.1467
 2693W        W 6212   4.646   6.210   2.620 -0.4629  0.0744  0.0737
 2694W        W 6213   2.822   6.472   2.515 -0.0114 -0.0011 -0.2034
 2695W        W 6214   6.410   9.544   9.329  0.1287  0.1665 -0.0114
 2696W        W 6215   0.487   5.093  10.334 -0.0148 -0.1212  0.1122
 2697W        W 6216   2.194   9.663   1.742  0.2662 -0.0748  0.3408
 2698W        W 6217   5.987   7.915  10.106 -0.1164  0.1925 -0.3454
 2699W        W 6218   3.406   4.674   0.471  0.0115  0.2656  0.0579
 2700W        W 6219   5.314   2.174   1.679  0.0644  0.0107  0.0810
 2701W        W 6220   4.210   9.320   0.107  0.1716  0.2983  0.1419
 2702W        W 6221   6.192   4.300   2.086 -0.1173  0.1789  0.0017
 2703W        W 6222   5.791   6.813   0.468 -0.1600 -0.1644  0.0930
 2704W        W 6223   0.492   2.027   9.797  0.1547 -0.0504  0.0282
 2705W        W 6224   4.969   0.470   9.712  0.0939  0.0829  0.5142
 2706W        W 6225   7.339   1.542  10.698  0.1982  0.3952  0.1040
 2707W        W 6226   3.077   3.961  12.363  0.0690  0.0048 -0.0947
 2708W        W 6227   6.529   2.172   3.242  0.3526 -0.3158  0.1083
 2709W        W 6228   4.919   9.499  12.106 -0.1755  0.0242  0.2185
 2710W        W 6229   0.812   4.117   0.537 -0.0133  0.2379  0.2152
 2711W        W 6230   3.365   4.930  10.891 -0.2380  0.0607 -0.0678
 2712W        W 6231   1.495   2.450   1.831 -0.0295  0.0869  0.1072
 2713W        W 6232   7.683   7.539   1.006  0.1428 -0.0957  0.0940
 2714W        W 6233   3.232   4.592   0.945  0.5336 -0.0346  0.1529
 2715W        W 6234   6.173   3.952   0.789 -0.1543  0.2906  0.0089
 2716W        W 6235   3.418   4.625  11.920 -0.2048 -0.1622 -0.0358
 2717W        W 6236   0.058   3.323   9.698  0.0885 -0.1400  0.2963
 2718W        W 6237   0.513   6.171   9.310  0.0966  0.1460  0.0775
 2719W        W 6238   5.969   2.056   1.477 -0.1135 -0.2687 -0.2051
 2720W        W 6239   2.198   0.872   0.750 -0.0797  0.0022 -0.1648
 2721W        W 6240   4.967   5.686   1.536  0.2798  0.0544 -0.1137
 2722W        W 6241   0.843   6.875   1.995 -0.0680 -0.1437  0.1801
 2723W        W 6242   9.513   2.560  12.441  0.0586  0.0444 -0.1273
 2724W        W 6243   5.661   8.035   1.952  0.1244  0.0200  0.3010
 2725W        W 6244   8.023   3.558   1.082 -0.2023 -0.1811 -0.0541
 2726W        W 6245   3.660   9.019  10.657  0.4160 -0.3388 -0.1239
 2727W        W 6246   3.786   2.653   8.729  0.0061  0.2352  0.1020
 2728W        W 6247   9.486   6.138   2.860 -0.1343  0.3049 -0.0358
 2729W        W 6248   8.387   6.852   3.333  0.0780  0.2650 -0.1186
 2730W        W 6249   8.624   9.234  10.420 -0.0038 -0.2384 -0.1618
 2731W        W 6250   4.708   4.267   2.495 -0.1172 -0.1068  0.1032
 2732W        W 6251   4.533   9.258   1.696 -0.0271 -0.1340  0.1819
 2733W        W 6252   0.739   4.828  12.234  0.1070  0.0129 -0.1842
 2734W        W 6253   2.229   9.576  10.008 -0.0334  0.0643  0.2644
 2735W        W 6254   5.923   7.095  12.146  0.1576  0.2503  0.2987
 2736W        W 6255   8.899   7.567   9.983  0.0102  0.2525  0.1394
 2737W        W 6256   5.995   1.740  10.586 -0.0253  0.0324  0.1033
 2738W        W 6257   2.456   7.023  11.895  0.3600 -0.1996  0.0725
 2739W        W 6258   4.596   4.146   1.354  0.1093 -0.0415 -0.2250
 2740W        W 6259   3.577   4.113   8.967 -0.0866 -0.0001 -0.1752
 2741W        W 6260   8.972   8.039  11.651 -0.1318 -0.1907 -0.1292
 2742W        W 6261   0.622   0.424   9.478 -0.1951 -0.1479 -0.3616
 2743W        W 6262   0.299   1.949  11.964 -0.0488 -0.2725  0.0024
 2744W        W 6263   4.635   5.703  12.165  0.3486 -0.3639 -0.2551
 2745W        W 6264   3.211   8.635   3.377  0.0009  0.0971 -0.1106
 2746W        W 6265   9.177   0.682  10.511  0.0769 -0.2323 -0.0592
 2747W        W 6266   7.488   3.158  11.114 -0.0556  0.3022 -0.1909
 2748W        W 6267   6.165   8.915  12.020 -0.0179 -0.0895 -0.0510
 2749W        W 6268   8.805   6.235   3.967  0.1563  0.0562 -0.0609
 2750W        W 6269   5.275   0.147   9.974  0.2011 -0.2068 -0.2124
 2751W        W 6270   8.164   4.937  11.553  0.1509 -0.2992  0.2304
 2752W        W 6271   7.787   0.531  10.889  0.0638  0.0255 -0.1276
 2753W        W 6272   7.433   2.001  10.587 -0.0749  0.0116  0.2265
 2754W        W 6273   5.530   2.386  11.856 -0.1804 -0.0882 -0.4010
 2755W        W 6274   8.214   9.186   4.086  0.0568  0.0151 -0.2003
 2756W        W 6275   3.696   1.287   3.739 -0.3698 -0.1299 -0.0757
 2757W        W 6276   4.832   2.087   4.186  0.0899  0.0637  0.3370
 2758W        W 6277   8.768   3.727  11.259 -0.0822  0.1414 -0.0446
 2759W        W 6278   7.675   4.984   8.690 -0.3574 -0.0788  0.0744
 2760W        W 6279   3.576   5.264   0.400 -0.1053  0.5438  0.0729
 2761W        W 6280   1.074   4.172   3.756  0.1403  0.2420  0.0442
 2762W        W 6281   2.034   4.545   2.292  0.0128  0.0269 -0.0621
 2763W        W 6282   7.590   8.006   0.923 -0.0447 -0.2211  0.1625
 2764W        W 6283   5.579   8.972   0.481  0.0637  0.1679 -0.3256
 2765W        W 6284   3.903   0.242  11.130  0.1014  0.2226 -0.0979
 2766W        W 6285   5.055   7.039   1.766  0.2701 -0.1899  0.2634
 2767W        W 6286   1.241   9.177  11.813 -0.1700 -0.0353  0.1117
 2768W        W 6287   5.229   1.179   0.728  0.1573  0.2523 -0.1098
 2769W        W 6288   9.638   1.810   4.355  0.2093  0.1412 -0.1387
 2770W        W 6289   0.259   0.556   2.791  0.1264 -0.2702  0.1326
 2771W        W 6290   3.356   0.191   2.209 -0.0949 -0.0095 -0.1367
 2772W        W 6291   4.495   6.001  11.077 -0.2351 -0.1727 -0.0818
 2773W        W 6292   4.528   6.654  10.375  0.2003  0.1237 -0.1627
 2774W        W 6293   1.860   2.804  10.097 -0.2048  0.2423  0.2034
 2775W        W 6294   0.293   5.204   0.395 -0.0401  0.1159  0.2219
 2776W        W 6295   3.395   9.298   1.364 -0.1454  0.0817 -0.1658
 2777W        W 6296   3.458   6.510   1.317  0.3704 -0.0419  0.1512
 2778W        W 6297   3.037   7.467  10.391 -0.0888 -0.2061 -0.4662
 2779W        W 6298   5.378   3.367   1.280  0.0285 -0.1674  0.1465
 2780W        W 6299   3.524   9.522  10.929  0.0197 -0.3592  0.0055
 2781W        W 6300   2.036   8.773  11.617 -0.1279  0.1035 -0.1834
 2782W        W 6301   4.962   2.761  11.893  0.1844  0.2783  0.4739
 2783W        W 6302   1.022   5.209   9.342 -0.1404  0.1441  0.0949
 2784W        W 6303   2.580   5.753   8.110 -0.2118 -0.1521  0.1903
 2785W        W 6304   9.472   5.983   1.577 -0.2446 -0.0375 -0.4113
 2786W        W 6305   5.231   1.165   8.791 -0.1405 -0.1361  0.2289
 2787W        W 6306   3.064   0.340   0.893  0.0394  0.0072 -0.0945
 2788W        W 6307   4.840   7.172   3.974 -0.1141  0.1223 -0.0182
 2789W        W 6308   9.246   9.366  10.421  0.0191 -0.1055 -0.0977
 2790W        W 6309   6.570   0.247   0.593 -0.0813  0.0997  0.1937
 2791W        W 6310   5.295   8.692   2.150 -0.2544 -0.1862  0.1373
 2792W        W 6311   4.329   6.944   4.685 -0.1249 -0.3299 -0.0344
 2793W        W 6312   0.603   2.956   2.847 -0.1081 -0.0964 -0.1663
 2794W        W 6313   4.438   9.378   4.998 -0.3391  0.1144 -0.4018
 2795W        W 6314   9.188   5.715   2.926 -0.0076 -0.3044 -0.2779
 2796W        W 6315   4.093   8.735  11.907 -0.1599 -0.3773 -0.0214
 2797W        W 6316   8.802   6.695   1.371 -0.0570 -0.0594  0.0257
 2798W        W 6317   1.203   8.722   3.182  0.0626  0.2020 -0.1190
 2799W        W 6318   3.561   3.022   3.991 -0.2158 -0.0173  0.2415
 2800W        W 6319   2.537   3.102  12.252  0.1580 -0.0172 -0.0981
 2801W        W 6320   2.215   9.632  11.840 -0.3710  0.2634  0.1113
 2802W        W 6321   6.280   4.007   9.764  0.1162 -0.3918 -0.0635
 2803W        W 6322   8.695   9.351   4.122  0.1116  0.2327  0.1432
 2804W        W 6323   5.136   6.104  10.444 -0.3539 -0.0623  0.0070
 2805W        W 6324   4.633   6.870   3.245  0.1050 -0.0790 -0.2684
 2806W        W 6325   0.262   7.742   2.914  0.0171 -0.0538 -0.4000
 2807W        W 6326   3.020   1.595   9.398  0.2587  0.1958 -0.0775
 2808W        W 6327   1.189   2.910   2.892  0.0457 -0.5160  0.0386
 2809W        W 6328   5.997   0.900   0.354  0.0098  0.1288  0.3079
 2810W        W 6329   4.419   5.834  11.611  0.3517  0.0692  0.3362
 2811W        W 6330   6.302   8.306   9.201 -0.0612  0.2854 -0.1260
 2812W        W 6331   3.270   1.200   9.277  0.2283  0.3022 -0.2777
 2813W        W 6332   4.477   9.635  12.368  0.0841  0.1385 -0.0661
 2814W        W 6333   0.939   7.290   4.071 -0.0162  0.0263 -0.0558
 2815W        W 6334   7.019   7.405   9.469  0.2318 -0.3332  0.1322
 2816W        W 6335   3.092   2.655   9.656 -0.1937 -0.4750 -0.1067
 2817W        W 6336   4.440   2.454  12.099 -0.1373  0.0074 -0.0384
 2818W        W 6337   7.529   2.476   1.169  0.0501  0.0980  0.2567
 2819W        W 6338   7.321   4.377  12.460 -0.0645  0.0820  0.0965
 2820W        W 6339   9.526   9.166  12.353 -0.3284  0.1534 -0.0073
 2821W        W 6340   0.316   4.447  11.515 -0.1618 -0.2889 -0.0750
 2822W        W 6341   1.142   5.658  10.335  0.0497 -0.1412 -0.0459
 2823W        W 6342   4.136   3.279   9.462  0.2799  0.0309  0.0148
 2824W        W 6343   5.966   5.704  12.001  0.0274  0.2676 -0.2852
 2825W        W 6344   3.979   9.220  12.093 -0.0711 -0.0279 -0.0997
 2826W        W 6345   6.166   8.745   1.049 -0.4412  0.1691  0.3621
 2827W        W 6346   2.907   5.031   9.086  0.0779  0.1910  0.0665
 2828W        W 6347   7.915   2.132  10.959 -0.5856 -0.0394  0.1178
 2829W        W 6348   3.067   6.911  10.201  0.1349  0.0541  0.2245
 2830W        W 6349   5.102   2.668  11.427 -0.1512  0.0744  0.1964
 2831W        W 6350   7.482   3.944   0.941 -0.2857 -0.0247 -0.1501
 2832W        W 6351   2.160   0.276   9.647 -0.0195 -0.1317  0.5197
 2833W        W 6352   9.022   6.870   0.032  0.0257  0.2590 -0.2788
 2834W        W 6353   6.996   1.459   3.263  0.0727 -0.1738 -0.1880
 2835W        W 6354   5.361   8.981   5.240 -0.2531 -0.0119  0.0428
 2836W        W 6355   2.053   3.977  12.197  0.3936 -0.1806  0.0391
 2837W        W 6356   6.147   9.313   1.206 -0.0933 -0.2292  0.1187
 2838W        W 6357   0.592   6.254  11.345  0.1431  0.0664 -0.0843
 2839W        W 6358   2.238   0.503   3.784 -0.3158  0.0198  0.0224
 2840W        W 6359   2.945   7.134   8.119  0.4812  0.0149 -0.0834
 2841W        W 6360   0.389   4.949  11.063  0.2820  0.0894  0.0115
 2842W        W 6361   6.042   8.377   2.032  0.0886  0.1525  0.3305
 2843W        W 6362   7.467   6.995   1.917  0.1876 -0.0586  0.0205
 2844W        W 6363   4.221   7.920  10.485 -0.1857  0.1067  0.2938
 2845W        W 6364   5.283   4.757   4.076 -0.3022 -0.0566  0.0226
 2846W        W 6365   8.243   0.353   9.225  0.1345 -0.2219  0.0254
 2847W        W 6366   7.834   6.581   3.820  0.1712  0.2363  0.1719
 2848W        W 6367   5.908   0.896   8.860 -0.4104  0.3414 -0.1859
 2849W        W 6368   0.871   0.470   1.932 -0.0671  0.0659  0.0174
 2850W        W 6369   3.595   4.476  11.226 -0.0484  0.0356 -0.2978
 2851W        W 6370   6.808   8.779  11.351 -0.0559  0.2352  0.1967
 2852W        W 6371   3.192   7.120  10.823  0.0704  0.1474  0.0001
 2853W        W 6372   4.495   4.082   0.164  0.1143 -0.0997 -0.0887
 2854W        W 6373   1.135   7.521   1.424 -0.1256  0.0675 -0.1630
 2855W        W 6374   7.923   6.415   9.502 -0.0492  0.1391  0.0597
 2856W        W 6375   7.889   9.582  10.415 -0.2114  0.3894  0.3766
 2857W        W 6376   5.731   1.821   1.871 -0.0973  0.0696  0.1136
 2858W        W 6377   1.081   1.171   2.942  0.0712  0.0925  0.0481
 2859W        W 6378   5.502   2.767   0.679  0.0995 -0.2323  0.0802
 2860W        W 6379   6.024   6.137   3.300  0.2386  0.3621  0.1528
 2861W        W 6380   9.631   2.857  11.416  0.0167 -0.0760  0.1546
 2862W        W 6381   0.944   6.411  10.969 -0.0307 -0.1075 -0.1433
 2863W        W 6382   8.448   7.199  12.142 -0.1605  0.3432 -0.1677
 2864W        W 6383   1.033   6.391   2.864  0.2127 -0.1865 -0.0450
 2865W        W 6384   3.883   4.298   9.291 -0.2106 -0.1594  0.1638
 2866W        W 6385   2.199   6.982   2.517  0.0966  0.4237 -0.0178
 2867W        W 6386   2.583   4.318   8.814 -0.0663 -0.2066 -0.3012
 2868W        W 6387   2.337   1.968  11.806 -0.3943  0.3656  0.2041
 2869W        W 6388   5.422   2.036   3.156 -0.2089 -0.0337 -0.2618
 2870W        W 6389   8.467   3.327  11.048 -0.2130  0.0894 -0.3636
 2871W        W 6390   5.020   7.786  11.371  0.1163  0.1507 -0.3084
 2872W        W 6391   8.283   3.798   2.244  0.2877 -0.0139 -0.0032
 2873W        W 6392   1.851   8.244   9.201  0.1469  0.2230 -0.2553
 2874W        W 6393   8.729   7.968   8.847  0.1415 -0.1094 -0.3838
 2875W        W 6394   7.183   8.610   0.401  0.0618 -0.1216  0.2076
 2876W        W 6395   2.609   2.744   9.660  0.0221 -0.0891  0.1677
 2877W        W 6396   9.204   7.111   9.974  0.1668  0.3275 -0.1873
 2878W        W 6397   2.436   8.344  11.319  0.2228 -0.0576  0.1241
 2879W        W 6398   8.973   8.943   4.012  0.2506  0.0136  0.0109
 2880W        W 6399   5.477   9.371   3.455  0.0483 -0.2248  0.2431
 2881W        W 6400   0.754   8.736   3.469  0.1400 -0.2471  0.0914
 2882W        W 6401   4.097   4.394   9.754 -0.2768  0.0373 -0.1124
 2883W        W 6402   0.627   9.322  10.557  0.0556  0.1688 -0.1690
 2884W        W 6403   7.842   9.506   2.106 -0.1366 -0.1536 -0.1518
 2885W        W 6404   3.159   7.877  11.400  0.2319 -0.0581  0.0923
 2886W        W 6405   4.161   7.767  11.031 -0.1139 -0.1141  0.0063
 2887W        W 6406   5.023   3.699  12.010 -0.0139  0.0778  0.1149
 2888W        W 6407   1.951   3.549   0.641 -0.2808 -0.0467  0.1485
 2889W        W 6408   3.166   6.073   9.942 -0.0781  0.1145 -0.0108
 2890W        W 6409   9.430   3.141   0.152 -0.2272  0.1163 -0.1535
 2891W        W 6410   9.293   3.986  10.630  0.0517 -0.0648  0.0763
 2892W        W 6411   6.535   1.785  10.333  0.1534 -0.0787  0.2006
 2893W        W 6412   6.876   8.891  10.387 -0.1719 -0.1820  0.1086
 2894W        W 6413   8.081   5.857   0.875 -0.0238  0.2624  0.0648
 2895W        W 6414   0.539   9.287   0.962 -0.2443  0.0072  0.4529
 2896W        W 6415   5.711   8.259   0.294  0.2224  0.0816 -0.0796
 2897W        W 6416   3.116   7.155   4.215  0.1625 -0.2046 -0.1000
 2898W        W 6417   6.492   1.210   2.069 -0.1441 -0.1896 -0.0161
 2899W        W 6418   7.012   0.809  10.483 -0.0812 -0.3712 -0.1901
 2900W        W 6419   2.830   1.178   9.122 -0.0454  0.0028 -0.4510
 2901W        W 6420   7.270   4.628   2.214  0.0188 -0.0559 -0.3601
 2902W        W 6421   8.440   4.796  10.481 -0.3932 -0.1319 -0.0521
 2903W        W 6422   2.697   5.667   3.573  0.0980 -0.4887  0.1511
 2904W        W 6423   5.045   5.032   2.126 -0.4837 -0.3693  0.0764
 2905W        W 6424   7.957   4.100  11.274 -0.5548 -0.0026 -0.2294
 2906W        W 6425   2.187   2.435   1.949 -0.1032  0.0016 -0.0954
 2907W        W 6426   7.287   7.549  12.317 -0.0850 -0.0984 -0.0057
 2908W        W 6427   6.971   6.847   2.781  0.1568 -0.3013  0.0873
 2909W        W 6428   4.009   3.006   3.653 -0.2767 -0.0743 -0.0009
 2910W        W 6429   9.025   4.043   3.354  0.1415  0.1941  0.2273
 2911W        W 6430   4.485   8.418   0.534 -0.0416 -0.1534 -0.1302
 2912W        W 6431   7.242   1.563  12.105  0.1740  0.3241 -0.1232
 2913W        W 6432   2.689   6.021   0.950 -0.1177 -0.2437 -0.0603
 2914W        W 6433   3.882   2.103   2.905 -0.2522 -0.1285  0.1771
 2915W        W 6434   4.679   7.384   2.418 -0.1218  0.1913 -0.0737
 2916W        W 6435   1.455   8.633   8.909  0.0228 -0.0477  0.0697
 2917W        W 6436   0.607   7.332  11.480 -0.2244  0.0033 -0.1454
 2918W        W 6437   2.136   1.813   9.839 -0.1325 -0.4488 -0.0552
 2919W        W 6438   7.187   7.056   1.513 -0.0312 -0.1822 -0.2941
 2920W        W 6439   1.064   3.072   8.591  0.1022  0.0358 -0.1466
 2921W        W 6440   0.847   6.371   2.075 -0.0555 -0.2411  0.2241
 2922W        W 6441   5.703   7.313   8.575 -0.1109  0.0720  0.0205
 2923W        W 6442   6.957   3.751   9.802  0.1570  0.1006 -0.1535
 2924W        W 6443   0.841   8.376   3.062 -0.1288  0.2927 -0.0369
 2925W        W 6444   4.567   1.005  11.542 -0.1818 -0.0829 -0.2411
 2926W        W 6445   9.677   6.272   8.407 -0.2479  0.0221  0.2833
 2927W        W 6446   7.682   4.604   3.555 -0.1187 -0.2913  0.3214
 2928W        W 6447   3.830   1.870   9.978 -0.0018 -0.2130  0.3189
 2929W        W 6448   8.045   4.126   9.766 -0.2830 -0.0019  0.0478
 2930W        W 6449   1.673   6.985   2.724  0.0269  0.1041  0.0528
 2931W        W 6450   7.855   2.877  10.196  0.0613  0.0467  0.1566
 2932W        W 6451   0.409   1.394  11.503  0.1958  0.2480  0.3107
 2933W        W 6452   6.950   6.484  10.775 -0.1571  0.0064  0.0452
 2934W        W 6453   2.936   0.930  11.340 -0.4101  0.0985 -0.3540
 2935W        W 6454   8.674   1.344   2.597 -0.1478  0.4047 -0.1148
 2936W        W 6455   7.841   6.027   3.864 -0.0712  0.1103  0.0130
 2937W        W 6456   1.108   3.336   9.739  0.1321 -0.1625 -0.0549
 2938W        W 6457   8.406   0.404  12.561  0.3823 -0.2319 -0.0757
 2939W        W 6458   9.097   4.746   2.248  0.2252  0.0447  0.3284
 2940W        W 6459   8.229   7.659   1.749  0.2166 -0.3004  0.0134
 2941W        W 6460   9.063   2.235  12.484  0.2118  0.1465 -0.0361
 2942W        W 6461   6.216   1.491  11.066  0.1404 -0.0043  0.0099
 2943W        W 6462   6.566   5.792   2.669 -0.1482  0.0682  0.1877
 2944W        W 6463   8.987   1.443  11.108  0.3896 -0.0018 -0.0982
 2945W        W 6464   2.885   0.259   2.331  0.1202  0.1263  0.1718
 2946W        W 6465   1.606   0.550   1.380 -0.1648 -0.1509  0.0160
 2947W        W 6466   8.359   5.909  11.670  0.1401  0.2574  0.3657
 2948W        W 6467   7.174   8.546   9.596  0.1638  0.1498 -0.3857
 2949W        W 6468   3.643   0.481   2.552 -0.0550  0.0517 -0.1765
 2950W        W 6469   7.546   8.427  10.912  0.1828 -0.2291 -0.0051
 2951W        W 6470   1.049   5.375   0.544 -0.2153 -0.3151  0.0415
 2952W        W 6471   0.469   2.856  10.360  0.2281 -0.3711 -0.1994
 2953W        W 6472   1.869   6.066  10.116  0.1928  0.1602  0.3263
 2954W        W 6473   4.003   7.920   1.569 -0.0669  0.1071 -0.1644
 2955W        W 6474   6.092   7.390  11.776 -0.0382  0.1955  0.0314
 2956W        W 6475   9.355   5.796   0.043  0.1521 -0.4519  0.1239
 2957W        W 6476   9.075   0.488   1.615 -0.3039 -0.0395 -0.0908
 2958W        W 6477   0.256   5.838   1.911 -0.2268  0.0550 -0.2327
 2959W        W 6478   8.836   7.280  10.878 -0.0099  0.0441 -0.0514
 2960W        W 6479   0.090   1.725   1.084 -0.0927 -0.2297  0.0747
 2961W        W 6480   7.899   0.677   1.890 -0.1989 -0.1845  0.0329
 2962W        W 6481   8.537   3.684   4.605 -0.0026  0.0547  0.0057
 2963W        W 6482   7.268   7.673   0.671 -0.1139  0.2025  0.1394
 2964W        W 6483   1.230   6.894  11.463 -0.0404 -0.0548  0.1403
 2965W        W 6484   4.012   8.420   1.561  0.0230 -0.4181  0.1104
 2966W        W 6485   5.559   7.711   3.060  0.1426 -0.0305 -0.1166
 2967W        W 6486   4.262   1.277   9.111  0.0295 -0.0047  0.1213
 2968W        W 6487   3.528   8.373   1.609  0.0095 -0.0117  0.1235
 2969W        W 6488   3.543   1.956   1.637  0.0415 -0.0048 -0.0347
 2970W        W 6489   4.291   5.175  10.939  0.0651  0.1009  0.0073
 2971W        W 6490   0.383   6.590  10.918 -0.1449 -0.3451 -0.1508
 2972W        W 6491   3.146   8.771   2.283  0.0860 -0.0038 -0.1317
 2973W        W 6492   9.170   0.454  11.751 -0.0317 -0.0763  0.1844
 2974W        W 6493   9.679   1.529   1.521  0.1573  0.1671 -0.2476
 2975W        W 6494   4.135   1.240   4.169 -0.0064 -0.0139  0.1105
 2976W        W 6495   7.419   5.932  10.264  0.0893 -0.0541 -0.0536
 2977W        W 6496   6.189   4.739   1.497 -0.1576  0.1362  0.3050
 2978W        W 6497   5.546   4.634   3.314  0.0549 -0.1520 -0.0416
 2979W        W 6498   2.734   8.405   3.589  0.2714  0.0160  0.0065
 2980W        W 6499   2.050   1.821  12.261 -0.0701 -0.3521 -0.0673
 2981W        W 6500   2.462   3.545   3.717  0.1868 -0.0125  0.1550
 2982W        W 6501   5.454   6.818  10.284 -0.1213  0.1782 -0.3862
 2983W        W 6502   1.862   4.963   0.114  0.0178  0.3227  0.0415
 2984W        W 6503   8.384   7.548  10.944  0.1656 -0.0370 -0.0326
 2985W        W 6504   6.259   0.641   2.154  0.1763 -0.1804  0.1782
 2986W        W 6505   7.087   4.757   9.541  0.0369  0.1509 -0.2695
 2987W        W 6506   0.883   0.324   3.802  0.3347  0.0813 -0.1461
 2988W        W 6507   8.881   3.954  12.102  0.4253  0.1011  0.1124
 2989W        W 6508   2.918   1.726   8.827 -0.2289 -0.0353  0.4165
 2990W        W 6509   7.709   9.199   4.239 -0.0910 -0.2447 -0.3273
 2991W        W 6510   1.264   0.534  10.783 -0.2271  0.2380 -0.1031
 2992W        W 6511   3.889   4.302   0.115  0.2621 -0.3251 -0.2217
 2993W        W 6512   0.889   1.255  10.804  0.1129  0.0871 -0.1625
 2994W        W 6513   3.582   5.602   9.351 -0.1088  0.0566 -0.1319
 2995W        W 6514   4.212   3.007   1.227  0.1739  0.1733  0.0429
 2996W        W 6515   1.243   6.568   3.468  0.0594 -0.0575  0.0037
 2997W        W 6516   6.879   8.414  12.155 -0.0232 -0.3146  0.0078
 2998W        W 6517   4.519   4.136   1.901  0.0413  0.2515 -0.0563
 2999W        W 6518   1.322   0.268   0.992  0.0980  0.0495 -0.1261
 3000W        W 6519   4.179   9.676   3.272  0.1658  0.0383  0.2272
 3001W        W 6520   1.433   3.359   9.391 -0.4076  0.4512  0.1430
 3002W        W 6521   1.993   4.256  10.424  0.3156  0.0436  0.2257
 3003W        W 6522   9.485   5.589   1.958  0.1247 -0.1109 -0.3300
 3004W        W 6523   1.451   8.622   3.596 -0.1906 -0.0258  0.2741
 3005W        W 6524   0.427   6.711   4.440  0.2805 -0.2128 -0.1846
 3006W        W 6525   5.253   6.906   4.084 -0.3119  0.1668 -0.0459
 3007W        W 6526   8.902   3.780   8.810  0.1389  0.0356 -0.3584
 3008W        W 6527   8.125   2.361   9.252 -0.4922  0.1538 -0.1679
 3009W        W 6528   2.182   5.069   8.214 -0.0146  0.1519 -0.2372
 3010W        W 6529   3.946   6.432   1.195 -0.1225  0.4126  0.1548
 3011W        W 6530   1.508   5.817   4.906 -0.1106 -0.2085 -0.0354
 3012W        W 6531   5.506   1.532   2.297 -0.3044 -0.1055 -0.0888
 3013W        W 6532   6.668   7.983   2.577  0.1426  0.1438  0.2117
 3014W        W 6533   9.468   0.861   3.148  0.3543  0.1978  0.0607
 3015W        W 6534   0.006   7.338  10.767  0.1972 -0.2017  0.0228
 3016W        W 6535   6.089   8.236  12.012  0.0138  0.0496  0.1694
 3017W        W 6536   0.522   3.420   3.605 -0.1575 -0.0485  0.1175
 3018W        W 6537   5.449   9.564  12.278  0.1185 -0.1492 -0.3219
 3019W        W 6538   1.706   7.410   0.397 -0.2044 -0.2932  0.0870
 3020W        W 6539   8.685   1.527   1.400 -0.1414 -0.2388  0.2515
 3021W        W 6540   3.231   2.003   9.826  0.0064 -0.1237  0.0769
 3022W        W 6541   2.340   3.020   9.178  0.1151 -0.1266 -0.2298
 3023W        W 6542   3.541   7.493  10.964  0.2267 -0.0244  0.1721
 3024W        W 6543   3.167   3.316   3.028 -0.0143  0.1821 -0.1077
 3025W        W 6544   7.944   1.830  11.398  0.2208  0.0965  0.0646
 3026W        W 6545   1.955   5.014   2.095 -0.0014 -0.0481 -0.1374
 3027W        W 6546   5.794   2.175   2.837 -0.0799  0.2515 -0.1229
 3028W        W 6547   2.242   0.571   9.095  0.1632  0.0678  0.1583
 3029W        W 6548   7.865   4.016  10.759 -0.0778  0.2291 -0.0380
 3030W        W 6549   6.011   8.536   3.359 -0.0489 -0.4030  0.0922
 3031W        W 6550   7.047   6.807   2.050 -0.0377 -0.3122  0.0969
 3032W        W 6551   2.934   2.292  12.556 -0.2875  0.0607  0.1342
 3033W        W 6552   1.457   7.918   9.330  0.1448 -0.1569  0.3011
 3034W        W 6553   3.552   0.938   8.658 -0.2157  0.0641  0.0867
 3035W        W 6554   6.950   0.569   8.639  0.1005 -0.2413  0.2235
 3036W        W 6555   2.414   1.236   2.229  0.2380 -0.1932 -0.1092
 3037W        W 6556   7.498   8.159  12.413  0.0153 -0.2221  0.1738
 3038W        W 6557   9.310   8.842  11.891  0.1602  0.0639 -0.0261
 3039W        W 6558   8.485   6.823  11.559  0.4033 -0.1739 -0.1179
 3040W        W 6559   4.764   3.097  10.711 -0.0208  0.1264  0.1304
 3041W        W 6560   5.107   9.052   9.401  0.3150  0.0030  0.2726
 3042W        W 6561   7.828   0.213   1.765 -0.2680 -0.1583  0.2245
 3043W        W 6562   1.662   5.955   0.548  0.1719  0.1794  0.2896
 3044W        W 6563   2.880   2.769  10.076  0.1172  0.1750 -0.2874
 3045W        W 6564   5.399   2.657   1.993  0.0699  0.2108 -0.3797
 3046W        W 6565   3.791   6.957   9.557  0.0027  0.0065  0.1096
 3047W        W 6566   1.625   6.773  10.426  0.1146 -0.3724 -0.2656
 3048W        W 6567   0.691   1.477   0.426  0.0370  0.0441 -0.2513
 3049W        W 6568   7.504   9.544  12.437 -0.1518  0.1351  0.1962
 3050W        W 6569   3.593   2.125   3.432 -0.3012  0.1538 -0.2413
 3051W        W 6570   7.017   2.684   2.425 -0.0028 -0.0353 -0.0504
 3052W        W 6571   9.525   4.829   8.762  0.4372  0.2923  0.0418
 3053W        W 6572   8.852   2.679   0.869  0.1077 -0.1818 -0.0578
 3054W        W 6573   7.731   5.486   9.133  0.3054 -0.0995 -0.1654
 3055W        W 6574   4.551   2.880   9.776 -0.0688 -0.2665  0.2859
 3056W        W 6575   9.346   0.749   0.911  0.3279 -0.0966 -0.4472
 3057W        W 6576   2.977   6.870  11.244  0.2450 -0.0134 -0.0988
 3058W        W 6577   3.998   2.188   8.659 -0.2374 -0.1674  0.1565
 3059W        W 6578   5.115   6.247  11.265 -0.2547 -0.1337  0.1796
 3060W        W 6579   6.280   0.197   8.914 -0.0384  0.0434 -0.0214
 3061W        W 6580   0.387   1.399   0.853  0.2126 -0.0086 -0.0177
 3062W        W 6581   1.278   7.401  10.846 -0.1924  0.0021  0.1425
 3063W        W 6582   9.085   6.482   8.528 -0.0862 -0.1962  0.3686
 3064W        W 6583   3.242   7.016   2.225 -0.2173  0.0423  0.1575
 3065W        W 6584   4.142   7.346   9.625 -0.1128 -0.2742  0.0388
 3066W        W 6585   4.335   5.552   3.407  0.3133 -0.1769  0.0579
 3067W        W 6586   3.345   4.869   8.854 -0.1000 -0.1167 -0.0328
 3068W        W 6587   7.095   4.983   1.743 -0.1986 -0.0026 -0.5214
 3069W        W 6588   0.207   6.519   0.545 -0.1728  0.2157  0.1544
 3070W        W 6589   2.605   0.268  11.892  0.0557 -0.0930 -0.3656
 3071W        W 6590   6.771   0.966   9.191 -0.1329 -0.0067 -0.1546
 3072W        W 6591   8.000   2.344   8.339  0.0158 -0.1022  0.0255
 3073W        W 6592   3.234   0.851  10.477  0.2846  0.1703 -0.1467
 3074W        W 6593   2.486   9.197   9.197 -0.3987  0.1106  0.0912
 3075W        W 6594   5.806   3.426  10.601  0.0805  0.3433 -0.2379
 3076W        W 6595   1.972   3.883   2.555  0.1465 -0.1810 -0.0268
 3077W        W 6596   6.929   1.106   2.436 -0.0559 -0.3077 -0.1047
 3078W        W 6597   5.594   5.930   9.178  0.1200  0.1116 -0.0352
 3079W        W 6598   1.323   7.483   8.942 -0.1464  0.2149 -0.0680
 3080W        W 6599   2.954   3.424   1.123 -0.0279  0.1342  0.1513
 3081W        W 6600   0.906   2.454   0.160 -0.2025  0.0605  0.1055
 3082W        W 6601   5.423   7.005   2.238  0.1719 -0.1968  0.2795
 3083W        W 6602   0.972   6.352   9.750  0.3730  0.0394  0.0592
 3084W        W 6603   6.211   2.839   0.271  0.1057 -0.0790  0.1094
 3085W        W 6604   6.873   5.249   8.791  0.1721  0.4782 -0.3379
 3086W        W 6605   5.291   5.003   8.982 -0.0489 -0.0269 -0.0257
 3087W        W 6606   6.990   6.710   9.961  0.1190  0.2772  0.1212
 3088W        W 6607   1.329   0.628   2.764 -0.2286  0.2025  0.2189
 3089W        W 6608   8.439   8.530   1.337  0.0192 -0.0104 -0.0439
 3090W        W 6609   1.685   6.798   4.194 -0.1320 -0.0368  0.1326
 3091W        W 6610   5.301   7.666   3.516 -0.0868  0.2483  0.0445
 3092W        W 6611   8.967   5.847   9.198  0.1790  0.0300  0.1099
 3093W        W 6612   6.677   8.215  10.793 -0.2003  0.0209 -0.1867
 3094W        W 6613   1.031   8.962   8.827 -0.0236  0.2372  0.1820
 3095W        W 6614   2.427   9.597   2.422 -0.1997 -0.0180 -0.1326
 3096W        W 6615   5.797   3.855  10.849 -0.0731 -0.0563 -0.0656
 3097W        W 6616   0.656   1.490   2.437 -0.0396  0.1792 -0.0398
 3098W        W 6617   4.136   5.006   8.599 -0.0984  0.2148 -0.0957
 3099W        W 6618   4.594   5.176   2.378  0.0338 -0.1656  0.0994
 3100W        W 6619   3.498   5.741   2.394 -0.1314  0.3253 -0.1056
 3101W        W 6620   9.457   8.173   0.358  0.0073  0.3842 -0.0211
 3102W        W 6621   3.414   3.180  10.666 -0.1908 -0.0295  0.1099
 3103W        W 6622   1.797   1.002   1.018 -0.0882  0.1899  0.3196
 3104W        W 6623   2.526   6.760  11.481  0.0216 -0.3136  0.1866
 3105W        W 6624   3.332   4.802   4.001 -0.1911 -0.0019 -0.0127
 3106W        W 6625   7.445   2.084   1.671  0.0526 -0.4533  0.2636
 3107W        W 6626   1.818   0.177  12.089  0.1967  0.2523  0.0321
 3108W        W 6627   4.933   8.138   0.599  0.2097 -0.2995  0.0115
 3109W        W 6628   0.255   0.642  10.608 -0.1106  0.4451  0.0291
 3110W        W 6629   5.552   0.339  12.294  0.0224  0.2450  0.1176
 3111W        W 6630   3.282   5.681   0.122 -0.0920  0.1709  0.0736
 3112W        W 6631   9.091   2.694   1.954 -0.0778  0.0477  0.2694
 3113W        W 6632   8.676   2.012   0.154 -0.3150 -0.1547 -0.2034
 3114W        W 6633   1.205   1.840  11.596  0.1982  0.0874 -0.3316
 3115W        W 6634   7.465   8.015  10.674  0.1054  0.1685  0.2118
 3116W        W 6635   1.086   5.550   2.543  0.0651 -0.1548 -0.2225
 3117W        W 6636   0.952   6.653   0.084 -0.4325 -0.2795 -0.0687
 3118W        W 6637   7.535   5.480  11.307 -0.0850  0.1525 -0.0736
 3119W        W 6638   3.663   8.880   3.356  0.2653  0.0725  0.1674
 3120W        W 6639   5.741   2.897   3.267  0.0574  0.1404 -0.2092
 3121W        W 6640   5.910   5.853   4.078  0.4482 -0.0917 -0.1377
 3122W        W 6641   5.214   4.087   2.544 -0.0808 -0.5036  0.1209
 3123W        W 6642   3.737   0.282  11.565 -0.0172  0.2087 -0.1097
 3124W        W 6643   4.064   6.533   4.759 -0.1812 -0.0619  0.2001
 3125W        W 6644   3.667   2.756  11.967 -0.0156  0.4115  0.1859
 3126W        W 6645   4.765   7.434   1.807 -0.0947 -0.1031 -0.0307
 3127W        W 6646   3.043   4.101   3.381 -0.0794 -0.1016  0.2816
 3128W        W 6647   4.621   2.621  11.567 -0.0435  0.2112 -0.0428
 3129W        W 6648   0.324   3.577   0.361  0.1637 -0.0601  0.1460
 3130W        W 6649   6.852   1.868   3.526 -0.3485 -0.1831  0.3295
 3131W        W 6650   2.130   6.960  11.200 -0.0830  0.3927 -0.2155
 3132W        W 6651   3.206   2.037   9.292 -0.1270  0.3529  0.0399
 3133W        W 6652   1.904   4.475   1.690  0.1299  0.3644  0.2627
 3134W        W 6653   7.225   0.586  10.080  0.0043 -0.0124 -0.1039
 3135W        W 6654   8.415   7.685  10.106  0.3295 -0.0438 -0.3068
 3136W        W 6655   6.534   7.212  10.038 -0.2032  0.0409 -0.0215
 3137W        W 6656   6.667   2.633   2.744 -0.3630 -0.0852 -0.1652
 3138W        W 6657   1.089   5.295   3.643  0.2872 -0.0828  0.1644
 3139W        W 6658   5.164   9.620   0.183 -0.1096  0.2431  0.2616
 3140W        W 6659   9.082   7.832   0.105 -0.1188 -0.0372 -0.2634
 3141W        W 6660   2.879   6.139   1.436  0.0729  0.2036 -0.0383
 3142W        W 6661   1.096   4.958   2.588 -0.0721 -0.2783 -0.2103
 3143W        W 6662   6.203   5.681   1.999 -0.2654  0.2580  0.1776
 3144W        W 6663   4.842   9.428   9.155 -0.0354  0.0445  0.0503
 3145W        W 6664   8.819   4.913   2.792 -0.0781  0.2816 -0.0695
 3146W        W 6665   3.385   0.241  11.201 -0.2377  0.4132  0.1234
 3147W        W 6666   1.131   1.977   9.062 -0.1763 -0.1435 -0.0675
 3148W        W 6667   8.172   1.326   4.521 -0.2402 -0.2214 -0.2910
 3149W        W 6668   6.828   1.568   2.237 -0.0393  0.0804 -0.0196
 3150W        W 6669   1.472   4.467  10.796  0.2714  0.0258  0.3175
 3151W        W 6670   8.497   5.150   4.115 -0.0194  0.0147  0.0344
 3152W        W 6671   1.991   3.617  11.043  0.0320 -0.0403  0.0891
 3153W        W 6672   6.848   8.059   4.590  0.2919 -0.3057  0.1250
 3154W        W 6673   9.093   2.985  10.121 -0.3120  0.0307  0.3128
 3155W        W 6674   0.872   8.447   1.674  0.1059 -0.1894  0.0503
 3156W        W 6675   4.214   7.602   1.049 -0.2730 -0.2708  0.1198
 3157W        W 6676   5.952   2.141  12.086  0.1159 -0.0297 -0.3152
 3158W        W 6677   0.454   0.566   0.625 -0.2082  0.1666 -0.1849
 3159W        W 6678   3.448   3.658  10.523  0.1246  0.1157 -0.6169
 3160W        W 6679   3.110   3.006  12.429  0.0841 -0.5008  0.0412
 3161W        W 6680   2.541   3.305   0.911  0.1996 -0.1391 -0.0551
 3162W        W 6681   2.392   1.913  10.825 -0.3165 -0.3627 -0.0386
 3163W        W 6682   1.954   4.876   2.737 -0.0567  0.0326 -0.0905
 3164W        W 6683   2.217   5.784   0.334 -0.0918  0.1677  0.0793
 3165W        W 6684   3.102   3.777  11.899  0.2262  0.2153  0.0321
 3166W        W 6685   8.119   3.901   9.339  0.3128 -0.1473  0.0371
 3167W        W 6686   4.060   7.830   9.692  0.2684 -0.0283  0.0008
 3168W        W 6687   5.085   4.637   3.550  0.1338  0.0088 -0.0817
 3169W        W 6688   8.556   2.616   2.724 -0.1100  0.1061  0.0669
 3170W        W 6689   3.597   2.759   0.389 -0.4222  0.3163 -0.1046
 3171W        W 6690   3.290   5.026   2.954  0.1494  0.0419 -0.0464
 3172W        W 6691   8.638   6.639   0.796  0.4717  0.2323 -0.0735
 3173W        W 6692   6.002   6.265   9.369  0.1913  0.1352 -0.0938
 3174W        W 6693   8.978   4.839  10.234  0.1644  0.0587  0.1314
 3175W        W 6694   3.809   4.451  11.666 -0.1444 -0.1264  0.3013
 3176W        W 6695   5.096   3.759   1.053  0.0725  0.3843 -0.0195
 3177W        W 6696   3.351   3.148  12.011  0.1274  0.1347  0.2345
 3178W        W 6697   2.550   6.807   0.400 -0.0711  0.0959 -0.0773
 3179W        W 6698   7.487   8.121  10.078  0.0847 -0.0010 -0.0879
 3180W        W 6699   1.687   1.705   2.337 -0.1831  0.1759 -0.1573
 3181W        W 6700   3.548   0.571   9.357  0.1187  0.3248  0.2626
 3182W        W 6701   4.549   7.489   3.378  0.0641  0.4457  0.1422
 3183W        W 6702   6.260   9.348  10.004  0.1411  0.1066  0.1931
 3184W        W 6703   9.684   2.084   2.875  0.0608 -0.0162  0.1814
 3185W        W 6704   7.152   2.418  10.817  0.1371  0.1980 -0.0700
 3186W        W 6705   1.399   9.177   1.628  0.1647  0.0556 -0.0775
 3187W        W 6706   0.134   7.739   4.288  0.0332 -0.1007  0.2998
 3188W        W 6707   6.830   8.472   3.792  0.2178  0.1432  0.3332
 3189W        W 6708   3.565   1.597  11.631  0.0390  0.0087 -0.2265
 3190W        W 6709   9.305   1.280  11.554  0.0041  0.0743  0.3972
 3191W        W 6710   7.043   5.136   0.585  0.0213  0.0456 -0.3838
 3192W        W 6711   6.408   2.251   4.054  0.1214  0.0121 -0.0970
 3193W        W 6712   4.636   0.152   1.772  0.1034  0.4090  0.0201
 3194W        W 6713   3.714   5.083   3.324  0.0986 -0.0954 -0.3977
 3195W        W 6714   9.169   6.028   1.932 -0.0258 -0.2055  0.1208
 3196W        W 6715   5.672   1.548  10.307  0.2865  0.0466  0.0391
 3197W        W 6716   0.645   3.943  10.887 -0.2035  0.0675  0.0715
 3198W        W 6717   7.287   3.104  11.817 -0.0893  0.0343 -0.2561
 3199W        W 6718   6.224   6.912   2.691  0.0882 -0.1149 -0.0780
 3200W        W 6719   1.358   8.770   2.687 -0.2335 -0.0435 -0.0634
 3201W        W 6720   0.522   1.664   4.188 -0.0378  0.1195 -0.0593
 3202W        W 6721   7.320   9.255  10.197  0.1165  0.1709  0.1822
 3203W        W 6722   5.647   9.544   4.062 -0.1352  0.0272 -0.0099
 3204W        W 6723   3.464   9.276   3.166 -0.0373 -0.4357  0.0872
 3205W        W 6724   2.930   8.845   0.201  0.1852 -0.1576  0.0818
 3206W        W 6725   0.327   6.454   2.686  0.2577  0.4566 -0.2131
 3207W        W 6726   9.115   5.471   8.321 -0.0412 -0.0846 -0.1004
 3208W        W 6727   3.314   1.156   1.954 -0.2070  0.1845 -0.0848
 3209W        W 6728   3.286   6.085   4.265 -0.1265 -0.4124 -0.1046
 3210W        W 6729   5.088   8.995   2.650  0.0777 -0.1202  0.0534
 3211W        W 6730   5.151   2.749   0.205  0.1441 -0.1389  0.1095
 3212W        W 6731   5.770   0.391   2.948 -0.5496 -0.2633 -0.1787
 3213W        W 6732   3.782   4.831   3.753 -0.2115  0.0578  0.1180
 3214W        W 6733   7.392   2.691   3.054  0.0658  0.3858  0.1693
 3215W        W 6734   9.514   4.954   3.546 -0.3047  0.2225  0.4420
 3216W        W 6735   8.540   9.163   3.260 -0.1103  0.0685  0.2689
 3217W        W 6736   5.459   5.897   3.923  0.2793 -0.1881  0.0551
 3218W        W 6737   1.676   5.256  12.318 -0.0705 -0.0354 -0.2500
 3219W        W 6738   7.093   4.804  11.749  0.0505  0.0786  0.2740
 3220W        W 6739   2.864   2.052   2.141 -0.2047 -0.1322 -0.0443
 3221W        W 6740   4.277   1.978  12.188 -0.0404 -0.0763 -0.0421
 3222W        W 6741   5.300   8.604   9.853  0.0324  0.0787  0.1851
 3223W        W 6742   0.559   8.012   4.269  0.1755 -0.0033  0.0621
 3224W        W 6743   1.979   7.005  12.099  0.0407 -0.2165  0.2480
 3225W        W 6744   0.524   1.881   3.597 -0.2107 -0.0084 -0.0105
 3226W        W 6745   1.615   6.697   0.892 -0.3543  0.3045 -0.0699
 3227W        W 6746   6.268   9.009   0.381  0.1348  0.0240  0.0333
 3228W        W 6747   7.670   9.051   1.830 -0.1330  0.0666 -0.1634
 3229W        W 6748   7.897   4.352   2.704 -0.1246  0.1117 -0.0959
 3230W        W 6749   7.545   1.790  11.080  0.3060 -0.0137 -0.1714
 3231W        W 6750   7.617   9.629   2.594  0.1823  0.1406 -0.2667
 3232W        W 6751   0.502   3.929   9.256  0.1319  0.2352 -0.2030
 3233W        W 6752   1.083   7.718   9.626  0.2344 -0.2423  0.2674
 3234W        W 6753   5.360   5.752   9.642 -0.0254  0.0457  0.4364
 3235W        W 6754   2.372   7.996   1.431  0.0287  0.0069 -0.3114
 3236W        W 6755   1.758   5.443  10.968  0.0220 -0.3419  0.2654
 3237W        W 6756   7.132   8.167   0.721 -0.0256  0.0485 -0.1043
 3238W        W 6757   1.054   5.143  11.592  0.0377  0.0375 -0.2261
 3239W        W 6758   4.405   6.158  12.008 -0.0743  0.3435 -0.0072
 3240W        W 6759   8.982   7.730   1.020 -0.1147  0.2119  0.0741
 3241W        W 6760   8.382   2.291  10.993  0.2638  0.1441 -0.1181
 3242W        W 6761   7.437   0.826   0.810 -0.5496 -0.0655 -0.2102
 3243W        W 6762   9.488   0.462  12.169  0.0919 -0.1466 -0.0948
 3244W        W 6763   8.988   1.174   3.937 -0.1234  0.1104 -0.0725
 3245W        W 6764   3.292   2.566  12.336 -0.0352 -0.2420 -0.0546
 3246W        W 6765   6.426   5.641  10.109 -0.0366  0.0278  0.0374
 3247W        W 6766   1.536   4.134   2.388 -0.1014  0.0383  0.1711
 3248W        W 6767   2.434   9.329  10.799  0.0224 -0.0596 -0.1089
 3249W        W 6768   5.613   2.520  12.355 -0.1395  0.0952  0.2822
 3250W        W 6769   6.606   0.130  12.573  0.1214  0.1154  0.0923
 3251W        W 6770   1.179   5.097  12.401 -0.2340  0.1067  0.0388
 3252W        W 6771   7.213   4.490   1.591 -0.0369 -0.2815  0.1679
 3253W        W 6772   8.972   1.162   9.686 -0.1282 -0.3154 -0.1104
 3254W        W 6773   3.531   8.804   1.937 -0.1652 -0.2063 -0.0249
 3255W        W 6774   6.982   4.322   8.610  0.2988  0.4479  0.1920
 3256W        W 6775   0.745   6.043   0.627  0.2627 -0.1044  0.2885
 3257W        W 6776   6.552   0.508   9.130  0.0709 -0.1998  0.2229
 3258W        W 6777   8.743   3.537   2.218 -0.1129  0.1162 -0.2863
 3259W        W 6778   4.893   7.709   4.145  0.0786 -0.0008  0.0507
 3260W        W 6779   4.426   9.448  11.941 -0.1823 -0.0795 -0.2459
 3261W        W 6780   8.906   4.441  10.534  0.1249  0.1710  0.2455
 3262W        W 6781   5.746   5.381   3.855  0.0358 -0.1442 -0.3399
 3263W        W 6782   2.254   0.007   2.960  0.0144  0.3137  0.2061
 3264W        W 6783   8.841   1.687   3.160 -0.3373 -0.2893 -0.0026
 3265W        W 6784   5.048   6.070   2.384 -0.1674 -0.0502  0.2299
 3266W        W 6785   8.725   1.546   9.261 -0.1407  0.3827  0.0018
 3267W        W 6786   7.534   3.884  11.542 -0.3569  0.0158 -0.1402
 3268W        W 6787   2.910   0.749  11.790 -0.0774 -0.2236  0.2734
 3269W        W 6788   7.866   3.175   1.728  0.2360  0.2495  0.0107
 3270W        W 6789   5.282   8.146   2.898 -0.1071  0.1436 -0.2501
 3271W        W 6790   3.380   2.875  10.326 -0.0336 -0.3696  0.3640
 3272W        W 6791   9.668   9.243   9.187 -0.0420 -0.3281  0.0598
 3273W        W 6792   7.016   7.955  10.338 -0.0466 -0.1214  0.1937
 3274W        W 6793   7.963   8.280   1.260  0.1629 -0.1135 -0.3119
 3275W        W 6794   1.324   5.472  11.308  0.2726  0.1322 -0.0496
 3276W        W 6795   9.451   5.275   9.085  0.0730 -0.2412 -0.0125
 3277W        W 6796   7.591   8.974  12.497  0.1805  0.0158  0.0624
 3278W        W 6797   1.838   5.839   3.438 -0.1711  0.1294 -0.0878
 3279W        W 6798   1.716   3.763   8.669 -0.0920 -0.0958 -0.1871
 3280W        W 6799   4.764   8.824  11.316 -0.1258 -0.0555 -0.1029
 3281W        W 6800   4.588   1.571  12.316 -0.0343  0.0293  0.0988
 3282W        W 6801   5.737   4.564   9.846 -0.0369  0.3635  0.1802
 3283W        W 6802   6.617   6.322   4.107 -0.2228 -0.1170  0.2644
 3284W        W 6803   2.370   5.918   1.517 -0.1698 -0.3402  0.0096
 3285W        W 6804   2.123   8.959   3.124  0.0060 -0.1898 -0.0152
 3286W        W 6805   8.961   4.371   9.990  0.0497  0.1084  0.1084
 3287W        W 6806   3.858   2.375   9.970  0.0445  0.1509  0.1186
 3288W        W 6807   9.283   1.790   0.756  0.1611  0.1502  0.1883
 3289W        W 6808   3.178   6.559   4.035  0.0942  0.1669 -0.2007
 3290W        W 6809   6.519   2.494   2.268  0.0157 -0.2046 -0.0256
 3291W        W 6810   3.783   1.733   2.381  0.0765 -0.0649  0.2497
 3292W        W 6811   1.527   5.401   9.012  0.1877 -0.0455  0.2562
 3293W        W 6812   1.819   2.824   9.112  0.0812 -0.0343 -0.0307
 3294W        W 6813   1.115   9.192  11.306 -0.3219 -0.1139 -0.1241
 3295W        W 6814   2.457   3.813  12.031  0.1679 -0.0499 -0.0995
 3296W        W 6815   6.615   3.467   3.710 -0.3090 -0.2670  0.1697
 3297W        W 6816   9.132   2.424   3.468  0.1763 -0.0250 -0.3608
 3298W        W 6817   6.954   6.062  11.750 -0.0849  0.2298  0.1596
 3299W        W 6818   1.532   0.525  10.241  0.3512 -0.4933 -0.2594
 3300W        W 6819   0.366   4.214   2.307 -0.2103 -0.1214  0.0223
 3301W        W 6820   4.877   4.612   8.605  0.2514 -0.0117 -0.0022
 3302W        W 6821   1.889   0.159   4.021  0.0578  0.0112 -0.0298
 3303W        W 6822   3.122   1.284  11.638  0.0504  0.0601 -0.1786
 3304W        W 6823   0.489   4.372   3.986  0.0922  0.1945 -0.1754
 3305W        W 6824   4.199   8.311   2.479  0.0349  0.0102  0.0235
 3306W        W 6825   1.482   3.861   9.776  0.1199  0.1747  0.0624
 3307W        W 6826   4.939   4.270  10.090  0.1719  0.3531  0.3643
 3308W        W 6827   7.561   3.635  11.967  0.0841  0.0042 -0.1422
 3309W        W 6828   1.208   4.811  11.921 -0.2227  0.2750  0.2122
 3310W        W 6829   9.471   1.541   0.183 -0.4436  0.0174 -0.0689
 3311W        W 6830   5.444   9.552  11.295 -0.1511  0.1029  0.0865
 3312W        W 6831   0.119   7.133   0.434 -0.0261  0.0386 -0.3170
 3313W        W 6832   4.332   6.832   4.204  0.1255 -0.1071  0.2726
 3314W        W 6833   9.352   1.922   1.301 -0.1149 -0.0179 -0.3750
 3315W        W 6834   6.050   8.744   9.260 -0.0345 -0.1708  0.1547
 3316W        W 6835   3.248   0.084  11.657  0.1713  0.1996 -0.0561
 3317W        W 6836   7.411   0.649   1.736 -0.1001 -0.0686  0.0207
 3318W        W 6837   0.068   8.769  10.604  0.1177 -0.0355 -0.1695
 3319W        W 6838   0.866   2.009  10.453  0.2558 -0.0711 -0.4321
 3320W        W 6839   0.504   9.572  11.668 -0.1263 -0.0060 -0.2347
 3321W        W 6840   3.578   2.645   3.650 -0.2102  0.2835  0.1550
 3322W        W 6841   0.831   0.485   0.996 -0.0359  0.2081  0.0992
 3323W        W 6842   3.136   1.069  10.027  0.2093  0.0947  0.2395
 3324W        W 6843   4.672   5.235   9.535 -0.0514 -0.2061 -0.2988
 3325W        W 6844   6.985   8.220   9.927  0.2167  0.0060 -0.2255
 3326W        W 6845   5.924   8.150   7.993  0.0551  0.2868 -0.0088
 3327W        W 6846   3.112   8.510   3.876  0.3312 -0.2289  0.0280
 3328W        W 6847   9.582   0.660  10.112 -0.0111 -0.2099 -0.1275
 3329W        W 6848   8.492   0.515   2.451 -0.0729 -0.0202  0.3039
 3330W        W 6849   8.044   3.443   8.390 -0.4769  0.0561  0.4971
 3331W        W 6850   2.293   1.510   3.927 -0.1838  0.0332 -0.0403
 3332W        W 6851   1.724   6.782  11.513  0.3558  0.0427 -0.1722
 3333W        W 6852   8.084   4.605   1.878  0.2667  0.1637  0.2258
 3334W        W 6853   8.952   0.934   2.515 -0.0674  0.0545  0.1507
 3335W        W 6854   4.349   3.187   8.802 -0.0920 -0.3187  0.1538
 3336W        W 6855   7.682   1.217  12.033 -0.0136  0.2155  0.1657
 3337W        W 6856   6.435   5.606   1.557  0.0349 -0.0393  0.2264
 3338W        W 6857   0.910   4.432   9.945 -0.1238 -0.1788  0.2984
 3339W        W 6858   4.611   8.141   2.661 -0.0020  0.0083  0.2760
 3340W        W 6859   8.671   7.972   0.705  0.2602 -0.1215 -0.1667
 3341W        W 6860   5.906   3.736   0.412  0.0861 -0.3084 -0.0314
 3342W        W 6861   8.632   4.779   3.254  0.0045 -0.1760 -0.1552
 3343W        W 6862   0.705   7.877  11.237 -0.0722  0.1639 -0.2750
 3344W        W 6863   6.675   7.578   9.080  0.1345 -0.2264  0.1870
 3345W        W 6864   7.337   0.927   4.007 -0.2688  0.0975  0.1802
 3346W        W 6865   3.820   9.222   2.726  0.1983  0.0304  0.1045
 3347W        W 6866   4.270   7.785   0.219 -0.0478 -0.0652 -0.1505
 3348W        W 6867   2.936   9.363   0.624  0.0824 -0.2604 -0.3000
 3349W        W 6868   1.365   7.858  11.968  0.0433  0.0581 -0.0604
 3350W        W 6869   4.960   0.597   1.894 -0.1032  0.0034  0.1414
 3351W        W 6870   5.752   8.053   3.789  0.3649  0.1880 -0.3617
 3352W        W 6871   4.047   8.593   0.679 -0.1202 -0.0418  0.2150
 3353W        W 6872   1.500   3.511   1.185 -0.0857 -0.0122 -0.0286
 3354W        W 6873   2.087   6.838  10.640 -0.1226 -0.0354 -0.2382
 3355W        W 6874   0.271   1.714   0.030  0.6535  0.0275 -0.0521
 3356W        W 6875   0.469   6.130   3.587 -0.0595 -0.0029 -0.1095
 3357W        W 6876   4.946   6.750   3.661  0.0142 -0.2155 -0.2054
 3358W        W 6877   8.425   8.535   8.958  0.1381 -0.0618  0.2025
 3359W        W 6878   1.406   6.245   0.930  0.2334 -0.0411 -0.2208
 3360W        W 6879   0.220   8.136  11.859 -0.1843  0.0843 -0.2817
 3361W        W 6880   1.793   0.234   2.723 -0.2546  0.0453 -0.1768
 3362W        W 6881   7.882   6.564  10.798  0.4201 -0.0883 -0.1853
 3363W        W 6882   0.972   8.554  10.811  0.2459 -0.2048 -0.2052
 3364W        W 6883   8.618   8.601  10.298  0.2730 -0.0502 -0.1864
 3365W        W 6884   9.488   9.457   1.076 -0.0481  0.0415 -0.0085
 3366W        W 6885   3.705   3.561  12.017  0.0933  0.0536 -0.0177
 3367W        W 6886   3.695   3.821   0.933 -0.3369  0.2777  0.0174
 3368W        W 6887   4.992   1.155  12.182  0.0510 -0.0319  0.1812
 3369W        W 6888   9.495   3.922   3.383 -0.0880  0.1481 -0.0759
 3370W        W 6889   8.481   4.038   0.425 -0.1810  0.3612  0.1095
 3371W        W 6890   1.267   4.442  10.312  0.1554  0.0235 -0.0115
 3372W        W 6891   4.525   7.660   0.624 -0.2498  0.0597  0.0814
 3373W        W 6892   9.536   8.061  12.411  0.0886  0.1055  0.0241
 3374W        W 6893   5.218   8.956   3.383 -0.1338 -0.0229 -0.2096
 3375W        W 6894   0.214   4.229   3.552 -0.0755 -0.0964 -0.1215
 3376W        W 6895   8.222   8.748   2.504 -0.1360 -0.0928  0.0095
 3377W        W 6896   0.624   6.876  12.283 -0.1252  0.2938  0.0939
 3378W        W 6897   1.271   7.381   2.699  0.2188 -0.0270  0.1047
 3379W        W 6898   9.658   7.778  11.068 -0.1839  0.0751  0.0952
 3380W        W 6899   6.135   0.064   4.050 -0.0987  0.1443 -0.1595
 3381W        W 6900   8.784   4.374  12.347  0.0167 -0.0944  0.1009
 3382W        W 6901   3.728   7.631   1.259  0.0208 -0.0766  0.2596
 3383W        W 6902   7.367   4.255   2.550  0.4497 -0.0309 -0.1163
 3384W        W 6903   2.135   5.537   7.906  0.1470 -0.1953  0.2245
 3385W        W 6904   9.082   8.308  12.440  0.0604 -0.0689  0.3961
 3386W        W 6905   0.577   7.602   1.752 -0.1018 -0.2088  0.2020
 3387W        W 6906   1.263   8.704   1.489  0.4168  0.2045  0.0249
 3388W        W 6907   4.610   4.622  10.906 -0.0306 -0.2317  0.1766
 3389W        W 6908   8.550   8.991   2.203 -0.1132 -0.0291  0.3939
 3390W        W 6909   6.575   6.947   2.320 -0.2212 -0.3504  0.0882
 3391W        W 6910   1.915   2.771   1.742  0.1531  0.3161 -0.0595
 3392W        W 6911   4.451   5.935   3.067  0.2012 -0.0158  0.2347
 3393W        W 6912   6.608   3.792  11.945  0.1621 -0.4962 -0.2323
 3394W        W 6913   7.185   1.907   9.232 -0.2154 -0.0551  0.1915
 3395W        W 6914   8.426   5.221   2.710  0.0048 -0.0968  0.1369
 3396W        W 6915   4.516   8.012   8.547  0.1493  0.0126  0.0214
 3397W        W 6916   6.851   2.251   1.124  0.0704  0.0673  0.2182
 3398W        W 6917   4.730   3.356   2.122 -0.1486 -0.1847  0.0959
 3399W        W 6918   8.203   5.872  10.946 -0.1534  0.0810 -0.2262
 3400W        W 6919   9.400   8.257  11.881 -0.1638  0.2380 -0.0740
 3401W        W 6920   1.807   2.699   0.765 -0.2023  0.0923  0.0784
 3402W        W 6921   4.130   6.608   0.748  0.1570 -0.1142 -0.0501
 3403W        W 6922   7.738   4.483  11.525 -0.1586 -0.1039 -0.1866
 3404W        W 6923   8.064   0.917  12.238  0.1284 -0.1738  0.1632
 3405W        W 6924   7.046   3.504  12.033 -0.0091 -0.2907 -0.0045
 3406W        W 6925   8.814   6.136   9.730  0.1535  0.0413  0.0032
 3407W        W 6926   5.660   7.281  10.101 -0.1383 -0.2068 -0.2091
 3408W        W 6927   8.217   1.430   1.236  0.1862  0.0951 -0.2058
 3409W        W 6928   8.360   9.485  10.878  0.0672  0.0459  0.1350
 3410W        W 6929   9.661   2.164   0.864 -0.0722 -0.2731  0.3659
 3411W        W 6930   4.255   4.212   4.143 -0.1204 -0.0917  0.2842
 3412W        W 6931   6.236   4.947   0.419 -0.0069 -0.0074 -0.0910
 3413W        W 6932   1.881   2.304   1.552 -0.3157 -0.0781  0.2743
 3414W        W 6933   1.954   1.803   1.559 -0.3035 -0.0319 -0.3242
 3415W        W 6934   6.107   3.898   1.302  0.1885 -0.0197 -0.1751
 3416W        W 6935   9.618   3.408   3.440  0.0690 -0.2753 -0.2013
 3417W        W 6936   0.037   7.548   0.697 -0.1542 -0.0941  0.0980
 3418W        W 6937   7.175   4.919  10.488 -0.3331  0.1886 -0.2088
 3419W        W 6938   8.759   5.652   1.178  0.1010  0.0545  0.2128
 3420W        W 6939   0.121   9.006   2.067 -0.1858 -0.0700  0.0817
 3421W        W 6940   7.245   6.111   8.411 -0.2632 -0.0301  0.4227
 3422W        W 6941   2.044   2.967   3.557 -0.2487 -0.0402  0.1430
 3423W        W 6942   1.660   4.703   9.614 -0.0587 -0.0107  0.0472
 3424W        W 6943   7.623   7.108  12.513 -0.4705 -0.0868 -0.0776
 3425W        W 6944   5.042   0.874   9.331 -0.1127  0.2114  0.0749
 3426W        W 6945   9.293   3.930  10.113 -0.2830  0.0574  0.1148
 3427W        W 6946   6.126   2.636  11.224  0.1462 -0.1053 -0.2363
 3428W        W 6947   5.763   3.251   8.832  0.0828 -0.3316 -0.4553
 3429W        W 6948   4.569   9.477  11.390  0.1227 -0.3196 -0.0152
 3430W        W 6949   8.931   8.504   9.253  0.1526 -0.0414  0.2398
 3431W        W 6950   4.988   4.095  10.595  0.1335  0.1576 -0.0583
 3432W        W 6951   7.299   8.662   2.150  0.0927 -0.1394 -0.2204
 3433W        W 6952   6.487   2.897   1.702  0.1605 -0.2522  0.1336
 3434W        W 6953   0.853   4.980   0.194 -0.1632  0.1405 -0.1520
 3435W        W 6954   3.617   3.868  10.141  0.1018 -0.0765  0.1367
 3436W        W 6955   2.112   4.957   3.971 -0.0269  0.1300  0.1200
 3437W        W 6956   9.508   8.003  10.087  0.1621  0.3009 -0.1835
 3438W        W 6957   5.057   4.883   9.592  0.0602  0.1360  0.0887
 3439W        W 6958   8.368   1.527   2.242 -0.0918 -0.3393  0.3277
 3440W        W 6959   4.636   3.777   3.463  0.0461  0.4034  0.2942
 3441W        W 6960   8.108   8.944   1.168 -0.0543 -0.0896  0.1367
 3442W        W 6961   1.278   0.880  10.005 -0.1722  0.0215 -0.0263
 3443W        W 6962   6.127   9.021  10.912 -0.3746  0.2334 -0.1879
 3444W        W 6963   1.247   3.605   0.128 -0.1630  0.2654  0.4620
 3445W        W 6964   3.965   4.663   8.312 -0.4450 -0.0359  0.2613
 3446W        W 6965   9.274   8.613  10.950 -0.0823 -0.1586  0.0529
 3447W        W 6966   3.531   5.332   8.843  0.0868  0.1632 -0.1187
 3448W        W 6967   0.726   8.904   9.736  0.2005 -0.0550 -0.3553
 3449W        W 6968   5.886   1.641  12.224 -0.0622  0.1870 -0.2558
 3450W        W 6969   3.716   4.815   1.807  0.1295 -0.0175  0.2156
 3451W        W 6970   8.547   1.026   3.762 -0.1723  0.0893  0.1232
 3452W        W 6971   0.888   7.458   3.490 -0.0894  0.1857 -0.0190
 3453W        W 6972   8.593   5.355  11.639 -0.1341  0.1023 -0.1420
 3454W        W 6973   4.411   9.012   4.651 -0.0219 -0.2774 -0.1355
 3455W        W 6974   9.069   7.557   1.477  0.1887 -0.0212 -0.2607
 3456W        W 6975   9.657   7.360  11.910  0.2431 -0.0293  0.4362
 3457W        W 6976   5.918   4.785  12.228 -0.1788 -0.4034  0.2927
 3458W        W 6977   5.441   7.418   1.178  0.2991 -0.0208 -0.2641
 3459W        W 6978   4.884   2.716   1.135  0.1558  0.0892 -0.2784
 3460W        W 6979   4.015   8.119   9.271 -0.1651 -0.1277  0.2725
 3461W        W 6980   5.819   0.521   0.108 -0.3766 -0.0146 -0.1001
 3462W        W 6981   0.556   9.196   0.435  0.0825  0.0145 -0.2114
 3463W        W 6982   7.332   3.073   4.646 -0.1498  0.0069  0.1475
 3464W        W 6983   6.820   4.827   4.094 -0.1605  0.0137 -0.3053
 3465W        W 6984   4.835   5.093   3.404  0.1369  0.0881 -0.0042
 3466W        W 6985   2.523   3.687  10.105  0.1903 -0.1142  0.0464
 3467W        W 6986   8.085   7.780   3.114  0.2255  0.1328  0.1171
 3468W        W 6987   1.096   6.587  10.499  0.4556 -0.2825  0.0329
 3469W        W 6988   2.860   8.000   0.142 -0.0267  0.3324  0.1368
 3470W        W 6989   1.778   2.939  11.979 -0.0312  0.0031 -0.4872
 3471W        W 6990   0.203   1.424  12.126  0.3237 -0.1803 -0.0204
 3472W        W 6991   3.318   6.779  11.625 -0.3010 -0.3495 -0.0210
 3473W        W 6992   6.537   9.072  11.684 -0.0714  0.0891  0.2112
 3474W        W 6993   4.550   6.491   4.551  0.0374 -0.0456  0.2093
 3475W        W 6994   0.058   0.941   1.675  0.1228  0.0315  0.2084
 3476W        W 6995   9.259   5.578   1.175  0.3432 -0.0200 -0.2451
 3477W        W 6996   8.074   0.351  10.470 -0.1263 -0.2445  0.0780
 3478W        W 6997   7.840   4.766   3.079  0.0370 -0.1138  0.0981
 3479W        W 6998   3.535   0.604   1.186  0.1036 -0.0047 -0.2812
 3480W        W 6999   8.732   0.108   1.724 -0.1060 -0.1187  0.1563
 3481W        W 7000   2.606   4.970  10.311 -0.0404  0.3128 -0.0449
 3482W        W 7001   3.967   1.988   8.170 -0.1425  0.0276 -0.3023
 3483W        W 7002   9.410   2.807  12.013 -0.4595 -0.1145  0.0501
 3484W        W 7003   4.054   3.076  11.097  0.0698 -0.2160 -0.2342
 3485W        W 7004   6.969   7.259   0.564 -0.0502 -0.1184  0.3857
 3486W        W 7005   7.093   8.256   0.051  0.2624 -0.0009 -0.1677
 3487W        W 7006   4.093   3.690  11.731 -0.1963  0.3407  0.2932
 3488W        W 7007   9.504   6.009   1.012  0.0061 -0.2452 -0.1559
 3489W        W 7008   1.845   3.774   9.260 -0.0185 -0.0340  0.1911
 3490W        W 7009   3.129   8.433   0.083  0.0295 -0.2124 -0.1387
 3491W        W 7010   6.274   3.672  10.597  0.0467  0.0945 -0.1449
 3492W        W 7011   1.132   8.306   2.669 -0.2976  0.0838 -0.1720
 3493W        W 7012   4.395   6.746   2.149  0.1712  0.2805 -0.0801
 3494W        W 7013   0.993   2.704   0.965  0.3035  0.2270 -0.1461
 3495W        W 7014   4.849   2.384   1.967 -0.1898  0.0024 -0.2209
 3496W        W 7015   2.944   5.427   0.429 -0.0496 -0.0078 -0.0573
 3497W        W 7016   0.698   0.822  12.307  0.0920 -0.1877 -0.0070
 3498W        W 7017   6.083   9.313   2.332 -0.1971  0.1823 -0.1868
 3499W        W 7018   3.002   9.115   1.880 -0.1454  0.1111 -0.1791
 3500W        W 7019   2.454   8.340   1.903 -0.0903 -0.0061  0.1496
 3501W        W 7020   0.343   6.669  11.384 -0.2513  0.0945 -0.1341
 3502W        W 7021   6.247   0.362   2.761 -0.1650 -0.1502  0.1212
 3503W        W 7022   6.880   3.086  12.286  0.2293  0.0457 -0.3087
 3504W        W 7023   0.766   2.554   9.480  0.2466 -0.1466 -0.0286
 3505W        W 7024   8.678   4.606   1.954  0.3574 -0.0746 -0.0286
 3506W        W 7025   5.896   1.250  12.517 -0.1035 -0.0638 -0.1746
 3507W        W 7026   8.538   5.972  10.354  0.3379  0.3865 -0.1748
 3508W        W 7027   8.751   5.670  10.666 -0.0222 -0.1204  0.2460
 3509W        W 7028   8.373   7.068   8.456 -0.0168 -0.1706  0.2095
 3510W        W 7029   6.811   6.951  11.767  0.1141  0.1602 -0.1693
 3511W        W 7030   2.159   9.176  12.398  0.0005 -0.0805 -0.0867
 3512W        W 7031   5.221   4.352   8.894  0.0554 -0.1670  0.0343
 3513W        W 7032   3.562   0.352   0.810  0.1351  0.1864  0.0657
 3514W        W 7033   7.165   4.786   8.813 -0.2237  0.1513 -0.1012
 3515W        W 7034   4.477   3.394  11.073  0.1500  0.0431 -0.1369
 3516W        W 7035   1.418   3.476   0.658  0.3245  0.1190  0.1200
 3517W        W 7036   6.301   2.215   1.928  0.1817  0.2604  0.1535
 3518W        W 7037   2.431   9.170   3.520  0.0477  0.0019 -0.1093
 3519W        W 7038   0.071   0.871   2.201  0.0042  0.1003  0.0691
 3520W        W 7039   1.987   5.821   9.757  0.4221  0.0839  0.1219
 3521W        W 7040   7.052   7.715   2.500 -0.3819 -0.3385  0.3732
 3522W        W 7041   4.512   4.791   1.190 -0.0029  0.1714  0.2582
 3523W        W 7042   6.201   3.339   2.662  0.3653 -0.1795  0.2042
 3524W        W 7043   5.851   0.410   2.383  0.2749  0.1779 -0.0963
 3525W        W 7044   5.709   8.694  11.872 -0.0542  0.4243  0.1317
 3526W        W 7045   8.925   6.034   0.434  0.1311 -0.1284  0.1918
 3527W        W 7046   6.805   8.965   0.479  0.1738  0.0135  0.1031
 3528W        W 7047   6.419   2.196  11.876 -0.0855  0.1172  0.0684
 3529W        W 7048   9.450   2.114   3.877  0.1174  0.2684  0.2303
 3530W        W 7049   1.107   2.145  12.370  0.0854 -0.3411 -0.1285
 3531W        W 7050   9.183   5.839  11.046  0.1141 -0.0859 -0.1484
 3532W        W 7051   6.672   9.441   2.471 -0.0801 -0.0391  0.1778
 3533W        W 7052   6.344   6.943  11.987 -0.3948  0.0239 -0.1451
 3534W        W 7053   9.031   5.533   0.224  0.3465 -0.0475  0.1397
 3535W        W 7054   2.894   2.942  10.540  0.2918  0.0556 -0.1432
 3536W        W 7055   2.395   6.563   3.328  0.0057  0.0081 -0.0850
 3537W        W 7056   7.716   6.125  12.579  0.1743 -0.1217 -0.0184
 3538W        W 7057   9.664   2.035  10.019 -0.0108 -0.0609 -0.0279
 3539W        W 7058   4.768   6.125  12.365  0.0642  0.0970  0.2561
 3540W        W 7059   6.818   2.789   9.839  0.0816  0.0449  0.3068
 3541W        W 7060   2.216   0.060  10.480  0.3622  0.0688 -0.2982
 3542W        W 7061   9.575   3.311   1.992  0.1151  0.0113  0.0877
 3543W        W 7062   2.509   0.641  11.435 -0.1712 -0.0406  0.0173
 3544W        W 7063   6.247   5.852   1.123 -0.1120  0.2415  0.2786
 3545W        W 7064   0.372   3.702   3.252 -0.0751 -0.1795 -0.0566
 3546W        W 7065   4.102   3.176   0.314  0.1845 -0.3689 -0.1382
 3547W        W 7066   2.041   3.830   3.440  0.1951  0.2737  0.1518
 3548W        W 7067   0.125   3.102   1.076 -0.2802  0.1284 -0.1353
 3549W        W 7068   0.951   2.106   9.552 -0.1050  0.0805  0.0541
 3550W        W 7069   1.355   4.485   9.163  0.1104  0.0583 -0.1192
 3551W        W 7070   8.068   9.037   2.107  0.2973  0.0927  0.0749
 3552W        W 7071   8.838   1.794  11.650 -0.0101  0.0949 -0.1307
 3553W        W 7072   5.767   8.498  10.349 -0.2550  0.3165 -0.0971
 3554W        W 7073   9.617   3.616   2.836 -0.1202 -0.1603  0.0843
 3555W        W 7074   4.223   3.807  10.976  0.1290 -0.1118  0.0660
 3556W        W 7075   5.677   8.242   9.883 -0.5910  0.1217 -0.0763
 3557W        W 7076   4.971   5.619  10.432  0.0804  0.1596  0.0775
 3558W        W 7077   9.054   8.076   9.428 -0.0162  0.2186  0.2655
 3559W        W 7078   2.841   8.232  11.632  0.0697  0.1367  0.1001
 3560W        W 7079   6.112   4.151   3.088  0.1046 -0.0213 -0.2645
 3561W        W 7080   7.626   2.529   9.877  0.1016  0.1107  0.0586
 3562W        W 7081   5.369   5.507   7.932 -0.1808  0.2176 -0.1059
 3563W        W 7082   2.387   1.442  11.019 -0.4724  0.2056 -0.1016
 3564W        W 7083   5.095   7.209   0.076  0.2592 -0.2575 -0.0072
 3565W        W 7084   7.319   3.070   1.458  0.2577  0.4106  0.3112
 3566W        W 7085   4.365   4.305   9.373 -0.1911 -0.0280  0.0641
 3567W        W 7086   2.615   0.261   9.367 -0.0303  0.0979  0.5493
 3568W        W 7087   3.116   8.503   1.142  0.2587  0.0522 -0.0008
 3569W        W 7088   5.384   8.693   8.602  0.2231 -0.3277 -0.0283
 3570W        W 7089   7.107   9.639   2.364  0.2761  0.4131 -0.3635
 3571W        W 7090   5.079   2.426   3.845 -0.0711  0.0056 -0.0787
 3572W        W 7091   2.492   2.461   2.989 -0.0876 -0.0255 -0.3422
 3573W        W 7092   8.673   0.435   4.127 -0.1507  0.1359 -0.2374
 3574W        W 7093   3.702   6.000   2.825  0.0549  0.2336 -0.4224
 3575W        W 7094   1.565   3.207   2.865  0.3796  0.0475 -0.0244
 3576W        W 7095   5.837   3.878   1.750  0.1602  0.1785 -0.1911
 3577W        W 7096   9.346   8.824   0.930 -0.2125  0.2232  0.2817
 3578W        W 7097   3.640   3.950  10.907  0.0834 -0.1683  0.1497
 3579W        W 7098   7.439   3.098   0.567  0.2085 -0.0499  0.2469
 3580W        W 7099   5.944   8.613   0.532 -0.0064 -0.3582 -0.2292
 3581W        W 7100   2.846   8.873   8.710  0.5217  0.0715  0.1489
 3582W        W 7101   1.102   0.287  11.933 -0.0337  0.1800 -0.2160
 3583W        W 7102   6.380   0.300   7.960 -0.3138  0.0359  0.0347
 3584W        W 7103   4.632   4.302  12.334  0.0047 -0.1113 -0.2178
 3585W        W 7104   3.584   7.179  10.463 -0.2296 -0.0176  0.1529
 3586W        W 7105   2.644   7.846   2.457 -0.3957  0.0564  0.0853
 3587W        W 7106   1.174   3.270  11.692  0.3540 -0.5578  0.1282
 3588W        W 7107   4.429   6.358   3.511 -0.1408  0.2679  0.1202
 3589W        W 7108   4.791   1.590   4.343 -0.3255 -0.0155 -0.0594
 3590W        W 7109   2.489   6.202   9.328 -0.1375 -0.3434 -0.4292
 3591W        W 7110   3.240   4.068   1.623 -0.0927 -0.1255 -0.0123
 3592W        W 7111   8.367   1.867   1.146  0.0279  0.0265 -0.4420
 3593W        W 7112   0.160   1.207   9.404  0.1939  0.2450  0.0344
 3594W        W 7113   9.559   5.484   8.113 -0.2597 -0.3175 -0.1394
 3595W        W 7114   2.382   2.862  10.099  0.1370 -0.1975  0.1264
 3596W        W 7115   2.264   2.379  10.244  0.0642 -0.0046 -0.1464
 3597W        W 7116   4.108   2.681   0.332 -0.1266 -0.0411  0.0743
 3598W        W 7117   3.083   1.907  10.327 -0.0131  0.0701  0.0353
 3599W        W 7118   8.634   3.967   2.520 -0.0264 -0.0734  0.1514
 3600W        W 7119   4.200   5.538   2.183 -0.2688  0.1102 -0.2298
 3601W        W 7120   9.247   0.573   2.231  0.1370  0.1034 -0.3892
 3602W        W 7121   5.935   0.168  11.476 -0.1050  0.1485  0.1059
 3603W        W 7122   0.408   2.841   9.234 -0.1983  0.0518 -0.3430
 3604W        W 7123   6.887   2.325   4.256  0.1948  0.0472  0.0507
 3605W        W 7124   9.116   3.859   0.448 -0.2292 -0.2366  0.0967
 3606W        W 7125   6.933   7.716   9.908 -0.1258  0.1430 -0.0608
 3607W        W 7126   3.005   7.379  12.193 -0.1804 -0.0514  0.0508
 3608W        W 7127   0.133   4.165  11.891  0.1459 -0.0279  0.0356
 3609W        W 7128   3.273   9.220   9.684 -0.2883  0.0066  0.1009
 3610W        W 7129   2.328   5.799   3.253  0.2475  0.3837 -0.3083
 3611W        W 7130   1.352   6.945  12.514 -0.2242  0.0041  0.0705
 3612W        W 7131   6.612   0.621  10.330 -0.1303  0.1397 -0.2796
 3613W        W 7132   5.654   7.083  11.080  0.1821  0.2190  0.1002
 3614W        W 7133   5.008   5.069   3.863  0.2352  0.0513  0.0621
 3615W        W 7134   1.252   6.876  10.976  0.2079  0.3327  0.1884
 3616W        W 7135   9.363   3.734  12.068 -0.2171  0.0177 -0.1991
 3617W        W 7136   4.749   0.240   0.063 -0.0028 -0.3154 -0.1116
 3618W        W 7137   3.945   0.834   2.779  0.0857  0.0981  0.0590
 3619W        W 7138   9.373   2.316   2.113 -0.2621 -0.0413 -0.0652
 3620W        W 7139   3.645   8.238  10.535  0.0325 -0.2403  0.1004
 3621W        W 7140   5.940   1.059   1.366  0.1375 -0.1288 -0.1792
 3622W        W 7141   1.511   4.738   8.754  0.0110  0.0704  0.2680
 3623W        W 7142   0.518   1.068  11.103  0.0138 -0.0091 -0.0818
 3624W        W 7143   4.124   6.135   0.494 -0.0667 -0.1726  0.2914
 3625W        W 7144   3.580   8.437   3.767 -0.0367  0.0445  0.0809
 3626W        W 7145   7.859   1.311  10.596 -0.3386  0.1331 -0.0854
 3627W        W 7146   0.080   0.724   0.335 -0.1227 -0.3417 -0.1478
 3628W        W 7147   3.050   2.469   9.084 -0.1376 -0.3226 -0.0182
 3629W        W 7148   5.390   3.741   1.556  0.0145 -0.0054 -0.1666
 3630W        W 7149   6.831   7.695   0.904 -0.2290  0.2152  0.1432
 3631W        W 7150   7.326   7.875   0.203  0.0137  0.0859 -0.0292
 3632W        W 7151   8.606   7.228   0.052  0.2136  0.1644 -0.0281
 3633W        W 7152   9.672   8.604  11.660  0.0684  0.1130 -0.2831
 3634W        W 7153   5.684   5.652   4.995 -0.1558 -0.1845 -0.1074
 3635W        W 7154   5.314   4.042   9.256  0.0783 -0.2225 -0.0025
 3636W        W 7155   3.187   8.750   1.553 -0.1303  0.1820 -0.0054
 3637W        W 7156   4.595   0.053   9.853  0.1684 -0.2853 -0.2039
 3638W        W 7157   4.790   6.005   3.753  0.0080 -0.0206 -0.0327
 3639W        W 7158   9.347   6.789   0.519  0.2375 -0.2110 -0.3411
 3640W        W 7159   2.203   0.446  10.119 -0.0924 -0.1687 -0.1176
 3641W        W 7160   5.516   0.817   4.482  0.2530  0.2460 -0.0516
 3642W        W 7161   2.348   4.725   3.602  0.1728  0.1513 -0.2669
 3643W        W 7162   2.162   3.491   4.546 -0.3179  0.1075  0.2081
 3644W        W 7163   5.045   6.021   8.069  0.1215  0.0879 -0.3225
 3645W        W 7164   3.255   7.266   8.619 -0.2404 -0.0508  0.1330
 3646W        W 7165   3.034   5.695   1.054  0.0404 -0.2412  0.0901
 3647W        W 7166   0.583   4.394   9.541 -0.0867 -0.1950  0.1799
 3648W        W 7167   2.730   6.513   0.740 -0.2396 -0.1845 -0.0001
 3649W        W 7168   3.395   7.322   3.103 -0.1081  0.0208  0.2977
 3650W        W 7169   3.906   0.730  11.414  0.0575 -0.1088  0.1306
 3651W        W 7170   8.159   4.735   3.442  0.0984 -0.1555  0.0433
 3652W        W 7171   5.215   8.256   0.140  0.0707 -0.1753  0.2865
 3653W        W 7172   8.362   5.096   0.515 -0.3012  0.0093  0.2706
 3654W        W 7173   3.351   3.517  12.373  0.1377  0.1996  0.0842
 3655W        W 7174   8.514   7.925   2.112 -0.0737  0.1881 -0.0611
 3656W        W 7175   9.282   4.457   0.058  0.3499 -0.0064  0.0167
 3657W        W 7176   8.131   8.091   0.779  0.4172 -0.2756 -0.0978
 3658W        W 7177   6.831   1.887  11.725  0.0069 -0.1905  0.0140
 3659W        W 7178   3.177   3.245   3.675 -0.0926  0.0779  0.1013
 3660W        W 7179   6.004   8.895   9.865 -0.0151  0.0134 -0.1568
 3661W        W 7180   6.702   4.696   8.904  0.1028  0.1280 -0.2357
 3662W        W 7181   1.572   8.172   8.792 -0.0063 -0.0447 -0.1072
 3663W        W 7182   4.159   8.057   0.876  0.1345  0.0708  0.0338
 3664W        W 7183   8.497   6.763   0.269 -0.3082 -0.1208  0.0373
 3665W        W 7184   0.600   1.411  12.416 -0.1782 -0.0770 -0.2336
 3666W        W 7185   3.559   7.972  10.955 -0.1344  0.0429 -0.3791
 3667W        W 7186   5.171   1.466  10.098  0.2540 -0.1065 -0.0703
 3668W        W 7187   3.235   5.373   3.316 -0.0209 -0.1152 -0.1712
 3669W        W 7188   4.594   2.151  10.501 -0.2060  0.1313  0.0842
 3670W        W 7189   2.221   2.055   3.367  0.3758 -0.0601 -0.0858
 3671W        W 7190   0.593   6.767   1.146  0.0797 -0.0428  0.0103
 3672W        W 7191   6.255   3.253   1.392  0.1176 -0.0802  0.0228
 3673W        W 7192   6.391   8.981   9.564 -0.1493  0.3178 -0.2320
 3674W        W 7193   5.464   6.636   1.870  0.1361 -0.0721 -0.3256
 3675W        W 7194   4.827   5.657  11.278  0.1235 -0.0723  0.0725
 3676W        W 7195   1.746   0.254  10.940  0.1674  0.0592  0.0817
 3677W        W 7196   6.716   8.468   3.285 -0.3579 -0.0044 -0.0707
 3678W        W 7197   7.932   6.899  12.204  0.0256  0.0493  0.1267
 3679W        W 7198   7.690   4.389   2.165 -0.1661 -0.0940 -0.2335
 3680W        W 7199   3.412   9.595   2.652  0.1167  0.2566 -0.0354
 3681W        W 7200   9.660   9.065   3.209  0.1950 -0.0864 -0.0061
 3682W        W 7201   9.307   8.359   1.161  0.1170 -0.1374 -0.0835
 3683W        W 7202   0.627   4.889  11.718  0.0508  0.0667  0.1234
 3684W        W 7203   8.791   3.982  10.325 -0.1098 -0.1872 -0.0544
 3685W        W 7204   6.933   0.200   3.634  0.1153 -0.2454  0.0249
 3686W        W 7205   8.953   5.736  11.889  0.2132 -0.1788  0.1948
 3687W        W 7206   6.174   5.723   3.058  0.0532 -0.0433 -0.2158
 3688W        W 7207   2.371   8.236  10.817 -0.1975  0.0994 -0.1443
 3689W        W 7208   7.071   7.415   4.211  0.0483 -0.0264  0.1495
 3690W        W 7209   5.658   7.198   9.131  0.2307 -0.0772  0.0667
 3691W        W 7210   5.395   1.763   0.044 -0.1470 -0.0569  0.0839
 3692W        W 7211   3.642   4.126   0.488  0.2722 -0.0594  0.2003
 3693W        W 7212   1.506   5.168   2.815 -0.0251 -0.0577  0.1337
 3694W        W 7213   0.113   3.321   3.960 -0.2101  0.0269  0.1061
 3695W        W 7214   6.165   1.272  12.041  0.3231  0.3132 -0.3506
 3696W        W 7215   1.257   4.814   4.293  0.1599 -0.3075 -0.1488
 3697W        W 7216   0.779   2.110   4.031  0.1394 -0.1308 -0.0716
 3698W        W 7217   7.285   4.310  11.924 -0.2152  0.0481  0.1955
 3699W        W 7218   0.161   3.768   3.768  0.0711  0.0102 -0.0201
 3700W        W 7219   8.045   3.590   9.777 -0.3869  0.1971  0.2823
 3701W        W 7220   7.885   0.019  10.936  0.1161 -0.1011  0.1067
 3702W        W 7221   0.658   1.011   2.538 -0.0112  0.0888  0.0979
 3703W        W 7222   5.561   6.341   0.642  0.1463  0.2683  0.2712
 3704W        W 7223   8.705   3.881   3.022 -0.0623 -0.0560 -0.0345
 3705W        W 7224   5.454   4.597   9.347  0.0552 -0.3186  0.4380
 3706W        W 7225   8.942   6.655   9.974 -0.0352 -0.2357  0.0343
 3707W        W 7226   5.016   6.179   0.344 -0.5467  0.1259 -0.0290
 3708W        W 7227   5.132   5.223   1.633 -0.1364 -0.1488 -0.0516
 3709W        W 7228   1.935   0.543   0.464  0.1558  0.0525  0.2991
 3710W        W 7229   4.958   9.251  11.111  0.1243 -0.0685 -0.0751
 3711W        W 7230   1.097   4.947   1.934 -0.0726  0.0887  0.0540
 3712W        W 7231   7.698   4.456   8.606  0.3052  0.0177  0.0799
 3713W        W 7232   0.467   5.318   1.182  0.3669  0.0712  0.0831
 3714W        W 7233   3.627   8.829   0.768  0.3727 -0.1738  0.0413
 3715W        W 7234   5.103   6.543   0.837 -0.1431  0.0521 -0.1167
 3716W        W 7235   0.462   7.134   9.909 -0.3572 -0.0629 -0.2752
 3717W        W 7236   6.786   8.980   4.064  0.1657 -0.2551  0.2414
 3718W        W 7237   6.323   8.952   3.226  0.0375  0.1224  0.1319
 3719W        W 7238   1.311   8.684   0.413 -0.1461 -0.2389 -0.0399
 3720W        W 7239   5.393   0.558   2.170 -0.0145 -0.0948  0.0398
 3721W        W 7240   5.328   9.214   2.120 -0.2695 -0.1839  0.1597
 3722W        W 7241   4.095   3.185   3.108 -0.0167  0.0105 -0.2053
 3723W        W 7242   7.608   6.625  12.430  0.3864  0.0560  0.0380
 3724W        W 7243   5.592   3.644   9.245 -0.0211 -0.6974  0.1688
 3725W        W 7244   3.967   4.227   3.079 -0.3352 -0.0479 -0.1175
 3726W        W 7245   5.754   0.967   3.131 -0.0526  0.2297  0.1730
 3727W        W 7246   5.552   8.500   1.724  0.0722  0.1243  0.0267
 3728W        W 7247   4.284   4.605  12.565  0.1237  0.1564  0.1893
 3729W        W 7248   4.771   1.044   4.073 -0.1244  0.3460  0.0753
 3730W        W 7249   3.738   8.735   2.463 -0.0936  0.0758  0.4152
 3731W        W 7250   6.348   7.692   0.217  0.1203 -0.0755 -0.0893
 3732W        W 7251   7.543   9.182   2.382  0.1034 -0.5387  0.2956
 3733W        W 7252   7.209   8.999   0.790  0.3973  0.4243  0.1946
 3734W        W 7253   3.834   0.681  11.921 -0.1066 -0.0757 -0.0950
 3735W        W 7254   0.099   6.879   3.112 -0.1409 -0.0455 -0.0428
 3736W        W 7255   3.288   1.253  12.070  0.2557 -0.0617  0.0204
 3737W        W 7256   2.340   3.028   2.721  0.0816  0.3297  0.2015
 3738W        W 7257   9.401   4.599   5.149 -0.0935 -0.4237  0.0983
 3739W        W 7258   1.020   5.539   0.051 -0.0148  0.1313 -0.2133
 3740W        W 7259   5.263   8.600  11.646  0.1629  0.0144 -0.0566
 3741W        W 7260   6.627   6.517   2.601 -0.2396  0.0883  0.1527
 3742W        W 7261   6.783   7.465   0.149  0.1259  0.0546 -0.0074
 3743W        W 7262   3.599   6.873   3.109  0.1175 -0.2076  0.2041
 3744W        W 7263   3.685   8.095  12.582 -0.1171 -0.3445  0.2915
 3745W        W 7264   1.532   2.511  11.582  0.1553  0.2655  0.0245
 3746W        W 7265   1.978   4.664  11.360 -0.1774  0.1067 -0.1169
 3747W        W 7266   8.533   8.894  11.779  0.1033  0.1710 -0.3095
 3748W        W 7267   2.114   7.441  12.330  0.0378  0.1600 -0.0099
 3749W        W 7268   1.289   5.347  10.751 -0.0925  0.1431 -0.1984
 3750W        W 7269   4.895   4.301   9.395 -0.1591 -0.3341  0.1197
 3751W        W 7270   6.615   8.906   4.625 -0.1520 -0.0107  0.1194
 3752W        W 7271   5.572   6.965   0.904  0.3925 -0.2856  0.0882
 3753W        W 7272   9.496   1.357   0.828  0.1145  0.0710  0.0716
 3754W        W 7273   6.555   8.229   4.141  0.2047  0.0904 -0.0976
 3755W        W 7274   1.352   2.312  10.214 -0.1619 -0.2209 -0.2447
 3756W        W 7275   1.942   2.343  11.924 -0.1494 -0.0419  0.3863
 3757W        W 7276   2.036   1.556   2.001 -0.2656  0.2711  0.2218
 3758W        W 7277   1.571   8.994  11.426 -0.0733  0.2187 -0.2142
 3759W        W 7278   4.411   9.172   4.146 -0.1661  0.2272  0.0971
 3760W        W 7279   5.639   2.968  10.486 -0.1908 -0.2112  0.1316
 3761W        W 7280   8.420   5.741   2.515  0.2476  0.0650 -0.0644
 3762W        W 7281   9.346   7.025   1.479 -0.1737  0.0744  0.0032
 3763W        W 7282   5.459   5.003   3.679 -0.1625 -0.1986  0.2487
 3764W        W 7283   4.087   3.948  10.020  0.1300 -0.3548 -0.0728
 3765W        W 7284   9.013   1.336   0.685 -0.0892 -0.0341 -0.0351
 3766W        W 7285   5.938   7.899   3.374 -0.0894  0.3555  0.1310
 3767W        W 7286   8.626   6.161   8.398 -0.0256 -0.0729  0.0563
 3768W        W 7287   6.476   8.025   9.921 -0.1142  0.0114  0.4024
 3769W        W 7288   9.127   0.540  10.066 -0.1521  0.2052 -0.0712
 3770W        W 7289   7.579   8.197   3.172 -0.0630  0.4066 -0.2582
 3771W        W 7290   3.980   7.205  12.200 -0.0194  0.5528 -0.1620
 3772W        W 7291   0.005   6.068   3.843 -0.2779  0.1355  0.1288
 3773W        W 7292   3.392   2.482  11.351 -0.1362 -0.1745 -0.1053
 3774W        W 7293   5.576   9.225   0.033 -0.0519  0.2081  0.0324
 3775W        W 7294   3.323   4.268   0.103  0.1301 -0.0734  0.0550
 3776W        W 7295   5.360   9.280   4.862 -0.1648  0.0649  0.0108
 3777W        W 7296   1.733   7.713   8.934 -0.0944 -0.0227 -0.0344
 3778W        W 7297   6.587   6.259   1.034 -0.0987 -0.1864  0.0690
 3779W        W 7298   5.791   0.363   4.652  0.0709 -0.0534  0.0051
 3780W        W 7299   6.137   3.231   2.156  0.0374 -0.2694 -0.0467
 3781W        W 7300   7.162   7.691   4.649  0.2847 -0.0053 -0.1460
 3782W        W 7301   3.836   6.093   1.608  0.3301 -0.2567 -0.2636
 3783W        W 7302   3.144   7.788   9.559  0.0201  0.0236 -0.1535
 3784W        W 7303   1.768   5.661  11.487 -0.1711  0.0437  0.0237
 3785W        W 7304   9.673   2.545  11.026  0.0250  0.1899 -0.1272
 3786W        W 7305   0.246   7.735  12.147  0.3090 -0.0495  0.2237
 3787W        W 7306   7.079   0.947   3.363  0.1686  0.0868  0.0946
 3788W        W 7307   3.703   7.016  11.834  0.1726  0.2536 -0.1118
 3789W        W 7308   8.152   6.689   0.599  0.2937 -0.0816 -0.0556
 3790W        W 7309   1.229   9.083   4.161  0.0614 -0.0327 -0.0565
 3791W        W 7310   2.300   2.830  11.104 -0.0773  0.0650 -0.0649
 3792W        W 7311   7.412   1.287   8.146 -0.0712  0.3418 -0.3164
 3793W        W 7312   5.365   0.242   2.599 -0.0345  0.0464  0.0311
 3794W        W 7313   7.738   1.532   1.393 -0.1573 -0.0928 -0.2915
 3795W        W 7314   5.940   4.647   0.667 -0.3884  0.0116 -0.0408
 3796W        W 7315   9.332   4.720   9.854  0.0272  0.1285 -0.3548
 3797W        W 7316   7.062   1.126  10.829  0.0345 -0.0809 -0.1547
 3798W        W 7317   6.055   0.795   2.617 -0.1871  0.0114 -0.4857
 3799W        W 7318   0.758   2.931  10.820  0.0856  0.0881  0.0511
 3800W        W 7319   1.746   1.499   4.085 -0.2417 -0.1882 -0.1234
 3801W        W 7320   2.345   3.639   8.647  0.0078  0.1263  0.0135
 3802W        W 7321   4.211   7.141   0.922  0.0569 -0.1774 -0.0000
 3803W        W 7322   9.099   5.361  10.976 -0.1131  0.5395  0.1186
 3804W        W 7323   9.552   5.437   3.626 -0.0428 -0.2405  0.0529
 3805W        W 7324   1.492   3.446  11.189 -0.1161 -0.1087  0.0309
 3806W        W 7325   2.349   7.295   9.656 -0.2072 -0.0772  0.1236
 3807W        W 7326   4.453   5.106   4.582  0.1561 -0.2703  0.0886
 3808W        W 7327   8.655   5.679  11.150  0.3397  0.0218 -0.1055
 3809W        W 7328   2.866   2.080   2.761 -0.2691 -0.2311  0.2196
 3810W        W 7329   8.922   6.961  11.412  0.0780  0.0826  0.3151
 3811W        W 7330   1.304   9.165  12.358  0.1783 -0.1026  0.0171
 3812W        W 7331   4.953   4.940   2.697 -0.1216 -0.1829 -0.5324
 3813W        W 7332   8.586   3.160  10.437  0.0076  0.0699 -0.3540
 3814W        W 7333   6.761   4.097   0.721  0.0302 -0.0649  0.0113
 3815W        W 7334   3.764   4.354  10.142 -0.0065  0.0540 -0.2206
 3816W        W 7335   0.525   4.075   9.935 -0.1276  0.0035  0.0720
 3817W        W 7336   5.714   9.007   2.575  0.0336 -0.0112  0.1834
 3818W        W 7337   8.046   5.856   4.344  0.0094 -0.3692 -0.3247
 3819W        W 7338   7.164   8.426   1.744  0.3325  0.3018 -0.0001
 3820W        W 7339   3.119   6.552   0.395 -0.3388  0.1582  0.1128
 3821W        W 7340   5.352   5.360   4.124  0.0854  0.1554  0.0300
 3822W        W 7341   8.548   4.797  11.890 -0.3226 -0.1376  0.1519
 3823W        W 7342   7.047   0.356   0.129 -0.3106  0.1584  0.1824
 3824W        W 7343   5.725   6.063   9.736 -0.0659  0.1019 -0.3840
 3825W        W 7344   8.412   2.179   9.631  0.1509 -0.2405 -0.1411
 3826W        W 7345   3.170   2.656   0.216 -0.1217  0.2107 -0.1035
 3827W        W 7346   7.399   5.672  10.669 -0.2157  0.2597  0.2994
 3828W        W 7347   7.637   3.861   0.469 -0.1686  0.0444 -0.1745
 3829W        W 7348   2.362   5.421   1.783 -0.0453 -0.1222  0.0402
 3830W        W 7349   5.951   0.633   9.725 -0.2805  0.2489 -0.1714
 3831W        W 7350   4.107   3.483   2.710  0.0430 -0.2589 -0.3196
 3832W        W 7351   3.618   2.017  10.396  0.0966 -0.0486  0.2352
 3833W        W 7352   3.026   3.080  11.041 -0.3583  0.2202  0.3163
 3834W        W 7353   2.759   4.266   4.482 -0.2509  0.0224 -0.0512
 3835W        W 7354   3.554   7.678   3.390 -0.0472 -0.1184  0.1743
 3836W        W 7355   7.031   7.200   9.935  0.0990  0.2143  0.0812
 3837W        W 7356   3.830   3.581   2.295 -0.0717  0.0080  0.1852
 3838W        W 7357   6.663   6.115  12.319 -0.4405 -0.0718 -0.0390
 3839W        W 7358   0.910   2.624  10.429 -0.1349 -0.2137 -0.1147
 3840W        W 7359   8.494   8.166  10.062 -0.2132  0.1322 -0.0081
 3841W        W 7360   0.070   8.185   2.559 -0.0005  0.1420  0.0566
 3842W        W 7361   0.242   3.175   2.392  0.1948 -0.3584  0.0263
 3843W        W 7362   7.133   9.489   9.788  0.0907  0.3084  0.2094
 3844W        W 7363   1.767   4.677   7.751 -0.2991  0.1638  0.0321
 3845W        W 7364   2.568   4.238   3.515 -0.1022 -0.1035 -0.2097
 3846W        W 7365   1.976   7.249  11.626 -0.0679  0.0580 -0.3283
 3847W        W 7366   8.837   4.857   0.686  0.1704 -0.1579  0.4119
 3848W        W 7367   7.243   4.649   3.882  0.1001 -0.1128 -0.2270
 3849W        W 7368   9.340   4.414   0.559 -0.1878  0.2284  0.1787
 3850W        W 7369   5.488   2.714   7.877  0.2094  0.2730  0.2530
 3851W        W 7370   6.583   0.667   9.629 -0.3424 -0.2283  0.0316
 3852W        W 7371   4.428   8.007  11.417 -0.3055 -0.2457 -0.0552
 3853W        W 7372   8.863   8.811   1.148  0.0373  0.0047  0.0668
 3854W        W 7373   1.342   5.633   1.984 -0.1384 -0.2777  0.1721
 3855W        W 7374   6.084   9.194   1.844  0.3292 -0.1479  0.2948
 3856W        W 7375   7.659   8.676  11.704  0.0864  0.1759 -0.1768
 3857W        W 7376   9.267   4.188   8.324  0.0122 -0.0401  0.2512
 3858W        W 7377   1.069   4.744   9.571  0.1572 -0.0355 -0.0936
 3859W        W 7378   8.882   2.672  11.159 -0.1787  0.2996 -0.0739
 3860W        W 7379   5.703   3.993   3.374 -0.1516 -0.1520  0.1146
 3861W        W 7380   8.949   4.760  10.889  0.1426  0.2317  0.0592
 3862W        W 7381   7.870   2.361  10.529  0.0775 -0.2020 -0.1484
 3863W        W 7382   4.517   0.685   0.169 -0.5093  0.3277 -0.1355
 3864W        W 7383   7.016   7.934   9.493 -0.2020 -0.2404  0.1669
 3865W        W 7384   3.010   2.740   1.612  0.1105 -0.1799  0.1623
 3866W        W 7385   0.585   5.591   4.590  0.2801  0.4851 -0.0217
 3867W        W 7386   1.381   4.546   0.948  0.0693  0.0560 -0.0417
 3868W        W 7387   5.830   7.580   1.520  0.2283 -0.0370 -0.1506
 3869W        W 7388   0.448   4.597  10.055  0.1600 -0.0850 -0.0234
 3870W        W 7389   5.496   5.742  10.595  0.3948 -0.0569  0.2256
 3871W        W 7390   8.243   0.062  11.359  0.2725  0.1111 -0.4753
 3872W        W 7391   0.516   9.672   0.086  0.0012  0.0991 -0.1415
 3873W        W 7392   4.790   2.618   4.287  0.0731  0.1752 -0.1105
 3874W        W 7393   6.807   2.887  11.738 -0.2210 -0.0226 -0.1183
 3875W        W 7394   0.283   4.732   3.407  0.0150 -0.3394  0.3908
 3876W        W 7395   8.395   6.390  10.070 -0.3625 -0.2396  0.0246
 3877W        W 7396   8.614   3.027   2.990  0.0264 -0.1394  0.0271
 3878W        W 7397   1.727   5.543   0.256 -0.1279 -0.0250 -0.3521
 3879W        W 7398   2.093   0.976   0.278 -0.0939 -0.3206  0.1483
 3880W        W 7399   6.401   4.279  10.404  0.0319 -0.0372  0.3197
 3881W        W 7400   7.073   6.737   0.551 -0.1083 -0.1757 -0.1520
 3882W        W 7401   6.999   1.371   4.684  0.1010  0.0906 -0.0087
 3883W        W 7402   3.838   0.279   3.504 -0.4814 -0.3888  0.1995
 3884W        W 7403   8.535   1.719   9.661  0.0411 -0.2068  0.3441
 3885W        W 7404   2.822   2.344  12.016 -0.2648  0.0526 -0.0914
 3886W        W 7405   7.624   7.777  11.968  0.2352  0.3203 -0.1301
 3887W        W 7406   5.268   8.973  10.662  0.0165 -0.2382  0.3195
 3888W        W 7407   1.820   6.917   9.498  0.1198 -0.2489  0.2226
 3889W        W 7408   3.443   4.185  10.493 -0.1028 -0.1628 -0.2615
 3890W        W 7409   4.188   0.284  12.058  0.2003  0.0480  0.1231
 3891W        W 7410   4.728   5.425  11.749 -0.0459 -0.3130  0.1330
 3892W        W 7411   4.861   4.214   3.422 -0.3357 -0.1097 -0.0980
 3893W        W 7412   7.851   7.390   1.847  0.3631  0.1317  0.0288
 3894W        W 7413   1.711   2.173   3.320 -0.1049  0.1833  0.0453
 3895W        W 7414   7.098   4.284   1.014 -0.1352 -0.5174  0.0476
 3896W        W 7415   5.079   5.171   8.590  0.0298  0.5589 -0.1166
 3897W        W 7416   7.079   6.054   9.322  0.2484  0.0855  0.1563
 3898W        W 7417   4.467   1.899   9.995  0.0428  0.1344  0.2932
 3899W        W 7418   5.952   0.726  10.503  0.0518  0.0648 -0.1553
 3900W        W 7419   9.457   6.828   9.366 -0.1080 -0.1310 -0.2095
 3901W        W 7420   5.686   1.316   0.455  0.0673  0.4156 -0.2509
 3902W        W 7421   8.706   9.546  10.011 -0.0022 -0.0664 -0.0434
 3903W        W 7422   5.538   2.848  10.031  0.1473  0.0531 -0.2875
 3904W        W 7423   6.921   5.423   1.961 -0.0147  0.0935  0.0950
 3905W        W 7424   0.683   5.268   8.970  0.1550 -0.0737 -0.1986
 3906W        W 7425   1.837   0.332   0.004 -0.1772  0.0912  0.0128
 3907W        W 7426   5.710   2.969   2.219  0.0116 -0.0370 -0.1231
 3908W        W 7427   5.519   2.506  10.383  0.0773  0.1694  0.1318
 3909W        W 7428   1.886   7.087   0.024  0.3443  0.0468  0.2684
 3910W        W 7429   7.187   4.850   1.159 -0.3383 -0.0910 -0.0605
 3911W        W 7430   8.368   7.195   0.534 -0.2055 -0.0943  0.0506
 3912W        W 7431   8.380   7.167   4.518 -0.0791  0.2012 -0.0179
 3913W        W 7432   6.946   3.568   2.881  0.0646 -0.0155  0.3732
 3914W        W 7433   4.066   0.569   9.261 -0.1147 -0.0718 -0.0427
 3915W        W 7434   6.805   1.492   9.921 -0.3626 -0.1574  0.1582
 3916W        W 7435   8.910   4.211   0.741 -0.3210 -0.0419 -0.2135
 3917W        W 7436   8.207   7.189  10.098 -0.0689  0.2953 -0.2823
 3918W        W 7437   7.953   7.806   2.158  0.1059 -0.0781  0.0009
 3919W        W 7438   6.444   3.097   9.992  0.0281  0.1841 -0.1896
 3920W        W 7439   8.982   0.383   2.672  0.1371  0.0108 -0.2405
 3921W        W 7440   0.235   2.234  12.494 -0.0372  0.1029  0.4150
 3922W        W 7441   8.381   3.222   1.473 -0.2539  0.1512  0.1171
 3923W        W 7442   4.737   7.002  10.688 -0.2327 -0.2659  0.1168
 3924W        W 7443   7.309   7.630  11.058  0.0757  0.0276  0.2678
 3925W        W 7444   7.285   2.210  11.288  0.2469  0.3268 -0.1359
 3926W        W 7445   2.441   5.520  12.210  0.1899  0.2520 -0.0996
 3927W        W 7446   0.791   4.966   9.910  0.0233  0.3165 -0.1509
 3928W        W 7447   3.731   3.890  12.484  0.0587  0.1327 -0.0148
 3929W        W 7448   6.333   1.474  12.500  0.2975 -0.3313 -0.1866
 3930W        W 7449   2.760   4.108  11.576 -0.2386  0.3070 -0.0659
 3931W        W 7450   0.678   6.825   2.985 -0.1059 -0.3554  0.0503
 3932W        W 7451   1.880   4.729   0.926  0.1762 -0.4316  0.0648
 3933W        W 7452   8.958   6.208  12.099 -0.1932 -0.0597 -0.1011
 3934W        W 7453   6.645   9.148   1.637  0.1381  0.1564 -0.0492
 3935W        W 7454   5.311   2.386   1.117 -0.1017 -0.0563  0.1196
 3936W        W 7455   9.551   2.637   1.128 -0.0684  0.2859 -0.3324
 3937W        W 7456   2.043   2.733   9.643 -0.0045  0.1354 -0.0426
 3938W        W 7457   0.986   5.895   9.437 -0.0916  0.0080 -0.1163
 3939W        W 7458   3.699   3.890   1.451 -0.1888 -0.4478 -0.1098
 3940W        W 7459   7.938   5.716  11.405  0.3492 -0.2137 -0.2227
 3941W        W 7460   7.298   3.204   2.789  0.2589 -0.2620 -0.2825
 3942W        W 7461   5.288   2.406   9.881  0.3352  0.0035 -0.1444
 3943W        W 7462   3.901   6.783   1.535  0.1057 -0.0008  0.1124
 3944W        W 7463   8.275   4.300  10.726  0.1111 -0.1317 -0.0494
 3945W        W 7464   0.279   0.994  12.510  0.1745  0.0163 -0.2417
 3946W        W 7465   8.325   1.724   2.704 -0.2411 -0.1129 -0.0062
 3947W        W 7466   9.655   6.609   3.742 -0.1780  0.0227 -0.1160
 3948W        W 7467   4.424   9.601   8.929  0.0341 -0.4610  0.1286
 3949W        W 7468   1.362   6.085   9.021  0.2276  0.1879  0.2338
 3950W        W 7469   4.710   7.131   9.648  0.0533  0.3256  0.3871
 3951W        W 7470   9.292   5.261   3.190 -0.1202  0.1286  0.0304
 3952W        W 7471   8.118   5.051  10.790 -0.2221 -0.0894  0.2736
 3953W        W 7472   5.654   5.385   3.263  0.0593 -0.0903 -0.0503
 3954W        W 7473   4.610   1.483   1.885  0.0298  0.0584 -0.0757
 3955W        W 7474   4.721   9.518   4.000 -0.0655  0.0194 -0.0729
 3956W        W 7475   9.358   8.673   0.490 -0.0976  0.3063 -0.1697
 3957W        W 7476   8.696   9.046   9.981  0.0842  0.0632  0.3607
 3958W        W 7477   3.462   6.329  12.486  0.0744 -0.4562  0.1165
 3959W        W 7478   0.223   8.537   1.828  0.0719  0.1282  0.3673
 3960W        W 7479   3.779   8.537   8.535  0.2109  0.1131  0.0413
 3961W        W 7480   7.529   7.691   2.605 -0.1715 -0.2442 -0.0364
 3962W        W 7481   7.214   0.047   9.310 -0.0355 -0.0124  0.1499
 3963W        W 7482   8.079   3.569  11.840 -0.1302  0.0331  0.1688
 3964W        W 7483   3.414   0.991   3.457 -0.0364  0.0205  0.2173
 3965W        W 7484   7.548   5.273   9.679  0.0013  0.0127  0.1896
 3966W        W 7485   2.714   0.742   9.244  0.1942  0.0666  0.2641
 3967W        W 7486   1.438   6.153  10.363  0.0661  0.0562 -0.1851
 3968W        W 7487   0.526   8.816  10.236 -0.2986  0.2161  0.1109
 3969W        W 7488   2.188   8.338   0.542  0.1344 -0.1632 -0.0186
 3970W        W 7489   5.567   3.983  11.800 -0.1628  0.0071  0.1465
 3971W        W 7490   5.699   1.754   4.128 -0.4128  0.1197  0.0188
 3972W        W 7491   9.669   5.487   2.929  0.2370 -0.3347 -0.0273
 3973W        W 7492   2.765   8.297   2.316  0.0599  0.0918  0.0065
 3974W        W 7493   1.054   1.101  12.049  0.1294  0.2975  0.0245
 3975W        W 7494   0.471   0.336   1.431  0.0958  0.0868  0.0669
 3976W        W 7495   4.036   4.333  10.940  0.2566  0.0085 -0.0396
 3977W        W 7496   0.908   5.976   3.452 -0.0149  0.0895  0.0651
 3978W        W 7497   4.947   3.204   0.037 -0.0843  0.0045  0.0190
 3979W        W 7498   9.480   6.137  12.101 -0.0104  0.1415 -0.2468
 3980W        W 7499   4.399   8.541  12.299 -0.1132  0.2172 -0.0851
 3981W        W 7500   1.878   0.248   3.499  0.3435  0.0446 -0.2401
 3982W        W 7501   0.821   9.670   9.265 -0.3037 -0.0616 -0.1669
 3983W        W 7502   9.351   7.795   9.086 -0.1618 -0.0943 -0.0056
 3984W        W 7503   8.505   3.677   0.869  0.3431 -0.1155  0.0883
 3985W        W 7504   0.677   5.756  12.298  0.0125 -0.0357  0.0286
 3986W        W 7505   9.374   9.178  10.885 -0.3114 -0.1181  0.2283
 3987W        W 7506   7.185   1.272   0.679 -0.0592 -0.0436  0.1091
 3988W        W 7507   1.372   9.655  12.284  0.1480 -0.0118  0.2750
 3989W        W 7508   9.039   2.579   1.440 -0.5023  0.0430 -0.0321
 3990W        W 7509   7.615   7.173   8.998 -0.2802 -0.4591  0.1431
 3991W        W 7510   1.564   6.975   1.341  0.1278 -0.0815  0.3166
 3992W        W 7511   3.957   1.964  10.767 -0.0676  0.0986  0.1088
 3993W        W 7512   6.566   6.241  10.552 -0.2265  0.1816  0.3563
 3994W        W 7513   3.619   4.614   3.132 -0.0953 -0.0722 -0.3830
 3995W        W 7514   7.728   2.409   0.265  0.4777  0.0335 -0.2177
 3996W        W 7515   7.922   6.362  12.141 -0.2493  0.0202  0.0128
 3997W        W 7516   7.752   5.256  10.488 -0.2489  0.3779 -0.1408
 3998W        W 7517   4.906   3.925   0.416  0.1083  0.0992 -0.3437
 3999W        W 7518   0.475   0.647   2.235 -0.1218 -0.0969  0.0887
 4000W        W 7519   5.217   9.647   9.517 -0.0451  0.1456 -0.0305
 4001W        W 7520   2.055   4.564  12.172  0.1218 -0.1269  0.1888
 4002W        W 7521   4.025   7.405   0.539  0.0353 -0.1404 -0.0259
 4003W        W 7522   2.189   5.180   4.444 -0.1765  0.0348 -0.0743
 4004W        W 7523   6.067   5.606  10.739 -0.3460  0.2172  0.2127
 4005W        W 7524   1.603   8.396   4.606 -0.1503  0.1839  0.2598
 4006W        W 7525   3.126   4.545   3.103 -0.0520  0.2635  0.2311
 4007W        W 7526   0.268   0.276  12.363  0.0427 -0.0670  0.4183
 4008W        W 7527   1.810   3.656   2.955 -0.3043  0.1760  0.1037
 4009W        W 7528   4.294   7.890   3.572  0.2904  0.2287 -0.4031
 4010W        W 7529   2.342   3.516   2.555  0.3268 -0.0242  0.0775
 4011W        W 7530   1.804   2.007  10.909  0.1161 -0.0773  0.1956
 4012W        W 7531   5.582   1.718   2.772  0.0487  0.1168 -0.2307
 4013W        W 7532   4.866   0.897  10.538 -0.1810 -0.0467 -0.0460
 4014W        W 7533   3.032   5.094   9.946 -0.0776 -0.1943 -0.1191
 4015W        W 7534   7.429   5.463   2.645 -0.0329 -0.3388  0.1343
 4016W        W 7535   7.359   1.088  10.281 -0.1257 -0.1670 -0.1714
 4017W        W 7536   2.440   5.445   9.780 -0.0104  0.1842  0.1831
 4018W        W 7537   3.731   0.703   3.787  0.1009  0.1585  0.0313
 4019W        W 7538   6.683   0.520  12.234  0.3488  0.1907 -0.1214
 4020W        W 7539   3.804   7.232  10.010  0.0428  0.1916  0.0000
 4021W        W 7540   5.611   9.603   3.076  0.1176  0.0254  0.0791
 4022W        W 7541   0.070   2.910   2.799 -0.0425  0.1213 -0.2146
 4023W        W 7542   4.018   5.245   0.606 -0.1598 -0.0537 -0.1484
 4024W        W 7543   2.920   9.506   9.533  0.0892  0.1909 -0.0335
 4025W        W 7544   6.212   1.671   1.870 -0.1397  0.2169  0.0624
 4026W        W 7545   2.139   1.286   1.296  0.0134  0.0701  0.2113
 4027W        W 7546   3.872   8.450   2.067 -0.1982 -0.1210 -0.0182
 4028W        W 7547   5.795   0.390   8.774 -0.1164  0.0039  0.0029
 4029W        W 7548   2.926   6.547   3.541 -0.1700  0.0563 -0.0277
 4030W        W 7549   1.413   9.461   2.181 -0.0681 -0.0201 -0.1235
 4031W        W 7550   2.875   2.272  11.524  0.0116 -0.0469  0.0404
 4032W        W 7551   3.204   5.905   9.473  0.0165  0.2190  0.2227
 4033W        W 7552   2.792   0.971  10.384 -0.0849 -0.1174 -0.0027
 4034W        W 7553   5.688   1.373  10.856 -0.0942  0.2669 -0.0355
 4035W        W 7554   9.407   5.647  12.131 -0.0719 -0.2767  0.1989
 4036W        W 7555   0.081   9.080   3.869 -0.1499  0.0031  0.2129
 4037W        W 7556   1.168   7.717   3.122 -0.0564 -0.1028 -0.1577
 4038W        W 7557   5.342   2.285   0.115 -0.2213 -0.0661 -0.1529
 4039W        W 7558   2.879   1.517   3.592 -0.0918 -0.0550 -0.4360
 4040W        W 7559   3.209   2.918   2.571  0.1177  0.0619 -0.0500
 4041W        W 7560   6.863   0.602   0.654  0.0316 -0.2820  0.0766
 4042W        W 7561   0.615   9.211  12.493 -0.3612  0.1590  0.0272
 4043W        W 7562   1.215   0.947  10.492  0.0163  0.4183 -0.1378
 4044W        W 7563   2.820   6.407   8.725  0.1218  0.0604  0.1253
 4045W        W 7564   1.863   4.626   3.624 -0.1728  0.1135  0.2630
 4046W        W 7565   3.623   3.680   8.649  0.1958  0.0078  0.0160
 4047W        W 7566   4.737   2.351   9.075  0.1484  0.0616 -0.2919
 4048W        W 7567   8.139   1.520  12.285 -0.0473 -0.0101  0.0928
 4049W        W 7568   4.673   7.883  10.908  0.2563  0.0791 -0.1114
 4050W        W 7569   2.851   0.680   4.147  0.3593  0.3488 -0.0969
 4051W        W 7570   0.856   0.218  10.979  0.0407 -0.1333  0.2416
 4052W        W 7571   9.343   4.714   2.645  0.1541  0.1225 -0.0459
 4053W        W 7572   2.345   7.908   0.153  0.1976 -0.0008  0.2234
 4054W        W 7573   8.452   4.656   3.826 -0.4122 -0.1932 -0.0225
 4055W        W 7574   2.536   2.506   3.580 -0.0962 -0.0676  0.2564
 4056W        W 7575   4.827   0.135   8.808 -0.2346 -0.1744  0.2035
 4057W        W 7576   1.970   4.605   9.221  0.0131 -0.0179  0.0960
 4058W        W 7577   2.775   9.246   9.963  0.1412 -0.0264 -0.0820
 4059W        W 7578   6.435   7.275   0.520  0.1314 -0.1223 -0.2225
 4060W        W 7579   4.624   0.222  11.782  0.1047  0.0354  0.1329
 4061W        W 7580   7.061   5.661   8.401  0.0318  0.0283  0.0046
 4062W        W 7581   1.443   5.741  12.456 -0.2870  0.2220  0.0094
 4063W        W 7582   0.864   4.822   9.097  0.1994  0.0025 -0.2839
 4064W        W 7583   8.869   7.482   4.515  0.5374 -0.2101 -0.2252
 4065W        W 7584   8.280   6.184   1.773  0.1026  0.1954 -0.0909
 4066W        W 7585   0.850   7.636   9.211 -0.3458  0.0817  0.1147
 4067W        W 7586   4.657   5.709   7.955  0.0453 -0.4160  0.1432
 4068W        W 7587   4.932   8.738   8.976  0.0308  0.0626  0.1082
 4069W        W 7588   1.850   7.738   3.864  0.1786 -0.1614  0.0383
 4070W        W 7589   2.734   1.329   4.076  0.0555  0.1219  0.1083
 4071W        W 7590   0.265   3.632  12.316  0.0482  0.2295 -0.1255
 4072W        W 7591   7.679   2.660   0.697  0.1192 -0.1385  0.2551
 4073W        W 7592   0.082   7.393  11.408  0.4948 -0.0965 -0.2594
 4074W        W 7593   7.435   8.302   2.691  0.3987 -0.1345  0.2025
 4075W        W 7594   7.547   0.879  12.568 -0.2339  0.0212 -0.1220
 4076W        W 7595   0.688   6.006  11.836  0.4814  0.4756  0.1080
 4077W        W 7596   0.874   2.150   2.437 -0.0921  0.0194  0.3042
 4078W        W 7597   0.298   5.689   3.762  0.1345 -0.2941  0.0514
 4079W        W 7598   7.416   1.973   0.297  0.0761  0.0864  0.0977
 4080W        W 7599   1.574   5.224   9.729 -0.1209  0.3016 -0.1996
 4081W        W 7600   4.399   1.796   0.118  0.0904 -0.1165  0.0037
 4082W        W 7601   4.042   7.750   8.251  0.0416  0.1519  0.0674
 4083W        W 7602   8.442   6.147  11.208 -0.0896 -0.1256 -0.1874
 4084W        W 7603   1.495   1.329   9.406  0.0536 -0.0129  0.3791
 4085W        W 7604   3.257   6.854   0.937 -0.2160  0.0111 -0.1942
 4086W        W 7605   1.535   3.655   2.179  0.1745 -0.0057 -0.2668
 4087W        W 7606   8.009   7.586  10.534 -0.2499 -0.1217  0.2006
 4088W        W 7607   5.300   5.565   0.045 -0.0397  0.1550  0.3422
 4089W        W 7608   1.823   9.453  10.755  0.0392 -0.1141 -0.1221
 4090W        W 7609   1.981   8.129   0.925 -0.2915 -0.2779 -0.0837
 4091W        W 7610   7.994   5.565  12.272  0.0670 -0.1104  0.0683
 4092W        W 7611   9.576   5.242  11.218  0.2678  0.2517 -0.0236
 4093W        W 7612   7.312   8.569  11.350  0.1315 -0.0522 -0.0565
 4094W        W 7613   0.964   1.625   3.670 -0.1515  0.0013  0.0325
 4095W        W 7614   4.167   7.191  11.768  0.0773 -0.0619  0.2205
 4096W        W 7615   1.054   7.465  11.295 -0.1803  0.1023 -0.1240
 4097W        W 7616   1.078   7.923   8.772  0.1075 -0.0779 -0.1302
 4098W        W 7617   7.602   0.982   3.547  0.1746  0.3599  0.2823
 4099W        W 7618   5.739   7.694  10.492  0.0537  0.2923  0.0011
 4100W        W 7619   1.110   6.568  12.051  0.1022 -0.0245 -0.0106
 4101W        W 7620   5.090   5.961   4.220 -0.0358 -0.3000  0.0652
 4102W        W 7621   7.743   2.923   0.230 -0.0583  0.1310  0.0376
 4103W        W 7622   6.571   6.099  10.089  0.1748 -0.0267  0.0024
 4104W        W 7623   8.465   1.858  10.134 -0.0454  0.1101  0.0765
 4105W        W 7624   2.486   1.074  11.769 -0.2796 -0.1432  0.2388
 4106W        W 7625   9.325   7.557  10.302 -0.0758  0.0684  0.0485
 4107W        W 7626   5.306   1.158   3.400  0.0797  0.0271  0.2402
 4108W        W 7627   5.441   3.314   9.642  0.0354  0.2465 -0.1582
 4109W        W 7628   8.280   8.029   8.907  0.4808 -0.2199  0.0882
 4110W        W 7629   9.403   8.175   2.981  0.0975  0.5442 -0.1018
 4111W        W 7630   2.874   5.878  10.331  0.1225  0.0027  0.0170
 4112W        W 7631   2.128   4.920   9.561  0.0771  0.2006 -0.0049
 4113W        W 7632   7.431   2.728   8.913  0.2283  0.2919 -0.0108
 4114W        W 7633   3.830   5.697   1.235 -0.1395  0.1864  0.0708
 4115W        W 7634   8.997   4.877   9.536  0.2324  0.3403  0.0111
 4116W        W 7635   4.572   7.379   9.245  0.1320 -0.2050  0.3337
 4117W        W 7636   6.199   8.436  10.113 -0.1030  0.0809  0.4585
 4118W        W 7637   7.581   7.535  11.488  0.0074  0.0536  0.0528
 4119W        W 7638   2.177   6.484  11.087 -0.0744 -0.1097 -0.1780
 4120W        W 7639   9.026   7.745  11.281  0.0413  0.1010 -0.1126
 4121W        W 7640   2.235   5.141   1.044 -0.0611  0.1051 -0.0753
 4122W        W 7641   6.563   7.698  10.479  0.0175 -0.0580  0.2743
 4123W        W 7642   0.884   1.517   1.682  0.0259 -0.0163 -0.1109
 4124W        W 7643   8.270   5.841   3.831 -0.2117  0.1131 -0.2175
 4125W        W 7644   5.964   4.763   8.602  0.0694  0.0108 -0.0915
 4126W        W 7645   5.065   2.254  11.648  0.2084 -0.1080 -0.0121
 4127W        W 7646   0.254   6.517  12.346  0.0192 -0.0356  0.1295
 4128W        W 7647   4.416   8.728   3.926  0.2245  0.0406  0.0808
 4129W        W 7648   9.446   4.665   1.270 -0.0035 -0.0836  0.0232
 4130W        W 7649   7.718   6.968   3.526 -0.1223  0.1975 -0.2363
 4131W        W 7650   3.857   8.570   2.967 -0.2904 -0.1071  0.0954
 4132W        W 7651   3.302   4.225   9.912 -0.1151  0.3183  0.0675
 4133W        W 7652   1.385   5.726   4.427  0.2826 -0.2002 -0.2204
 4134W        W 7653   9.023   5.565   9.573 -0.0837  0.2023 -0.0146
 4135W        W 7654   4.162   6.372   9.478 -0.2506  0.1771  0.1460
 4136W        W 7655   2.741   6.425  11.160  0.3722  0.0310  0.0350
 4137W        W 7656   1.935   6.334   1.160  0.0228  0.2996 -0.3958
 4138W        W 7657   2.139   6.611   0.046 -0.1328 -0.1089 -0.0605
 4139W        W 7658   3.599   3.988   4.213 -0.2293 -0.2323  0.3218
 4140W        W 7659   7.520   7.438   1.499 -0.3542  0.3231  0.2050
 4141W        W 7660   7.129   5.343   3.202  0.1325 -0.1290 -0.1410
 4142W        W 7661   6.784   4.628  10.049 -0.0543 -0.1021 -0.1749
 4143W        W 7662   3.472   4.967   9.310  0.0640  0.0266 -0.0387
 4144W        W 7663   2.054   2.806  10.572 -0.0543  0.4535  0.0425
 4145W        W 7664   1.954   9.194   9.365 -0.3484 -0.1927 -0.1849
 4146W        W 7665   4.934   8.466   0.989  0.0481  0.1808 -0.0754
 4147W        W 7666   1.866   0.154   1.286  0.0693 -0.0077 -0.1179
 4148W        W 7667   8.606   8.318   2.514  0.1174  0.0914 -0.0368
 4149W        W 7668   2.170   6.365   5.012 -0.3013 -0.2745  0.2372
 4150W        W 7669   4.023   7.795   2.559  0.1209 -0.3041 -0.2163
 4151W        W 7670   0.459   9.350  10.069 -0.0446  0.0688 -0.1411
 4152W        W 7671   4.039   1.513   2.803  0.0370  0.1216 -0.0522
 4153W        W 7672   7.628   2.859   3.901  0.0102  0.0207 -0.1110
 4154W        W 7673   8.889   9.325   3.577  0.0269 -0.1653  0.0347
 4155W        W 7674   3.584   7.742  11.423 -0.1269  0.0278  0.1155
 4156W        W 7675   8.440   4.622   0.931 -0.3719 -0.1180 -0.1375
 4157W        W 7676   1.429   6.938   9.100  0.1982 -0.3505  0.1415
 4158W        W 7677   4.525   7.206  12.269 -0.0230  0.0977  0.0906
 4159W        W 7678   2.200   9.665  12.344 -0.2526 -0.1158 -0.0051
 4160W        W 7679   2.048   2.576   3.314 -0.2246  0.2796  0.0994
 4161W        W 7680   5.751   0.891   2.281 -0.0877 -0.2058  0.2728
 4162W        W 7681   3.353   0.659  11.616 -0.2607 -0.1513 -0.3051
 4163W        W 7682   9.374   4.227   9.627 -0.1188 -0.0337 -0.4144
 4164W        W 7683   2.427   7.026   1.272 -0.1881  0.0636  0.2167
 4165W        W 7684   3.472   1.567  10.182  0.0409 -0.0208  0.1617
 4166W        W 7685   8.168   3.096  11.362 -0.1982  0.3153 -0.2192
 4167W        W 7686   4.919   5.718   9.342  0.3177 -0.0466 -0.2306
 4168W        W 7687   1.586   8.159   3.774 -0.2228 -0.2415 -0.2293
 4169W        W 7688   2.423   7.844   1.954  0.0299 -0.3634 -0.0581
 4170W        W 7689   3.981   4.810   9.389  0.1991  0.0127 -0.1434
 4171W        W 7690   4.777   4.721   0.148 -0.1170  0.0487  0.1595
 4172W        W 7691   3.112   6.277  11.460  0.1004  0.0140  0.2671
 4173W        W 7692   6.125   0.580   3.248  0.2928 -0.1171 -0.1196
 4174W        W 7693   9.111   5.127   3.678  0.2588  0.1671  0.0822
 4175W        W 7694   2.877   1.076   1.712 -0.0197  0.2078  0.1289
 4176W        W 7695   4.597   1.829   0.612  0.0361  0.0890  0.1172
 4177W        W 7696   3.019   7.921   2.118 -0.0880  0.0894  0.4076
 4178W        W 7697   5.885   6.548   4.564 -0.2777  0.1229  0.0647
 4179W        W 7698   8.688   1.609  12.441 -0.0721  0.1313  0.2679
 4180W        W 7699   5.544   4.027   0.157  0.2252  0.5481  0.2411
 4181W        W 7700   8.063   5.217   3.650 -0.0838 -0.2666 -0.1881
 4182W        W 7701   0.908   5.731   1.382 -0.1392 -0.0259 -0.1039
 4183W        W 7702   7.778   3.080  12.018 -0.0417  0.2189 -0.0188
 4184W        W 7703   2.371   5.136   2.888  0.1319 -0.1045 -0.1185
 4185W        W 7704   5.698   0.454   0.772 -0.0948 -0.0184  0.0865
 4186W        W 7705   0.301   3.966   4.196 -0.1528 -0.1183 -0.1846
 4187W        W 7706   4.873   5.933  11.794  0.2668  0.1407  0.0528
 4188W        W 7707   9.222   2.186   2.556 -0.0924  0.1496  0.2317
 4189W        W 7708   6.699   6.931  10.998  0.0072 -0.1125 -0.2923
 4190W        W 7709   2.817   9.017   9.485 -0.4020  0.1198  0.1266
 4191W        W 7710   7.535   4.396  10.505  0.1360  0.0133 -0.2783
 4192W        W 7711   8.513   3.004   3.563  0.0303  0.1875  0.3298
 4193W        W 7712   3.898   2.298   3.885 -0.1550  0.2767  0.2971
 4194W        W 7713   5.295   7.456   3.992 -0.0761 -0.0208 -0.5182
 4195W        W 7714   4.729   0.201   9.310 -0.3022  0.1266 -0.0407
 4196W        W 7715   6.253   1.441   3.546  0.1048 -0.0505 -0.1023
 4197W        W 7716   5.272   2.884   4.603 -0.0876  0.0822 -0.1505
 4198W        W 7717   5.291   1.692   3.494  0.1972 -0.3536  0.0627
 4199W        W 7718   2.841   5.786  12.417 -0.3601  0.2636  0.0032
 4200W        W 7719   6.302   4.465   9.921  0.1432 -0.0134 -0.2504
 4201W        W 7720   8.695   3.662  10.706  0.1294  0.0111 -0.2129
 4202W        W 7721   5.776   1.792  11.728 -0.1995  0.0001 -0.0548
 4203W        W 7722   0.786   0.688  10.657 -0.1050 -0.0684 -0.0282
 4204W        W 7723   4.142   2.095  10.321 -0.3386  0.0015 -0.1714
 4205W        W 7724   7.716   7.259   2.331 -0.2018  0.0827 -0.3240
 4206W        W 7725   3.504   7.789   9.197 -0.1590 -0.2004 -0.0423
 4207W        W 7726   4.212   5.567  10.554  0.1280 -0.0575 -0.1773
 4208W        W 7727   1.868   8.614   0.824 -0.2205  0.3573 -0.0433
 4209W        W 7728   5.107   0.690   4.159 -0.0154  0.1135 -0.1255
 4210W        W 7729   0.168   5.551  12.481 -0.2983  0.1651 -0.3549
 4211W        W 7730   5.985   0.514   1.231  0.1795 -0.1663 -0.1484
 4212W        W 7731   4.732   3.657   8.748 -0.1031  0.2824  0.2044
 4213W        W 7732   3.447   2.706  10.900 -0.0067  0.0073  0.0854
 4214W        W 7733   1.063   6.441   9.239  0.0180 -0.2464  0.1461
 4215W        W 7734   9.013   1.603   9.657 -0.1336  0.2393  0.3303
 4216W        W 7735   3.236   2.168   0.794 -0.1614 -0.0206 -0.1177
 4217W        W 7736   2.092   0.735   1.358  0.0210  0.1736 -0.3197
 4218W        W 7737   1.813   5.883   4.120  0.1381 -0.0543  0.2738
 4219W        W 7738   9.532   2.605   9.906  0.0910  0.2814 -0.2275
 4220W        W 7739   3.623   6.227  11.414  0.1905  0.0975  0.0901
 4221W        W 7740   4.183   3.663  12.198 -0.0754 -0.2432  0.2324
 4222W        W 7741   8.466   3.170   2.051  0.2298  0.1458 -0.2363
 4223W        W 7742   5.789   5.793   3.551 -0.0492  0.3065 -0.0923
 4224W        W 7743   3.403   4.477   9.202  0.1907 -0.1735  0.2818
 4225W        W 7744   6.747   3.213   9.353  0.1703 -0.2098  0.1469
 4226W        W 7745   7.673   2.157   0.706  0.2479  0.0235 -0.3204
 4227W        W 7746   8.947   9.111  11.651  0.0746 -0.1755  0.1860
 4228W        W 7747   8.841   8.425  10.703 -0.0049  0.0508  0.2352
 4229W        W 7748   8.005   3.432   2.207  0.0037  0.1353  0.1566
 4230W        W 7749   0.996   4.208   0.960 -0.0183 -0.2533 -0.1934
 4231W        W 7750   6.181   7.541   9.287 -0.0698  0.1762  0.1073
 4232W        W 7751   6.047   2.299  11.552 -0.0341  0.0831 -0.0787
 4233W        W 7752   4.864   4.493   1.013  0.2932  0.0262  0.3497
 4234W        W 7753   7.193   0.870   0.368 -0.2081  0.3067 -0.2669
 4235W        W 7754   5.515   8.221  11.287  0.0122  0.0415 -0.1839
 4236W        W 7755   9.644   6.773   2.603 -0.1208  0.0166 -0.2666
 4237W        W 7756   2.453   2.068   0.030  0.1004 -0.0472  0.1239
 4238W        W 7757   6.124   2.506   1.558 -0.0038 -0.0861 -0.1010
 4239W        W 7758   5.168   1.232   0.082 -0.1091  0.1934 -0.1674
 4240W        W 7759   6.737   4.079   9.478  0.3588  0.1559  0.2018
 4241W        W 7760   6.789   1.673  12.152  0.1530  0.1099 -0.2211
 4242W        W 7761   1.591   5.033   3.331  0.0956 -0.0238 -0.1705
 4243W        W 7762   2.617   7.060   3.892 -0.1994  0.0161  0.1116
 4244W        W 7763   1.133   9.429   8.966  0.1413 -0.0179 -0.0158
 4245W        W 7764   0.341   8.174  12.375 -0.2966  0.1754 -0.1255
 4246W        W 7765   7.727   8.569   9.855  0.0845  0.1013 -0.0790
 4247W        W 7766   6.716   6.802  10.457  0.1462  0.2925 -0.0036
 4248W        W 7767   8.671   1.790  10.841 -0.2139  0.2375  0.0652
 4249W        W 7768   8.383   2.213   8.676  0.0252  0.2076 -0.0297
 4250W        W 7769   7.799   2.457   3.241 -0.1572  0.2771 -0.1194
 4251W        W 7770   3.140   5.675   3.783 -0.0561  0.0056  0.2338
 4252W        W 7771   3.306   8.089  11.875 -0.0351 -0.1668  0.3178
 4253W        W 7772   0.913   8.377   1.155  0.2609 -0.0503  0.1767
 4254W        W 7773   8.277   7.044   8.986  0.0942  0.3521 -0.1728
 4255W        W 7774   2.699   2.057   9.116  0.2893 -0.1265 -0.1854
 4256W        W 7775   7.342   8.441   4.014 -0.0268  0.0895  0.0781
 4257W        W 7776   6.411   0.033  10.366 -0.1606  0.1538 -0.1985
 4258W        W 7777   8.174   2.643   9.768  0.0204 -0.0329  0.0492
 4259W        W 7778   6.968   2.035   1.563  0.2332  0.1215 -0.2338
 4260W        W 7779   6.742   2.946   3.651  0.2855  0.0465 -0.0872
 4261W        W 7780   8.212   3.004   2.495  0.1451  0.2499  0.1518
 4262W        W 7781   3.605   2.414   2.012 -0.0365 -0.1215  0.4621
 4263W        W 7782   8.070   4.299   3.754 -0.1267 -0.0271 -0.0780
 4264W        W 7783   2.284   3.541   9.230  0.1879  0.3280 -0.1567
 4265W        W 7784   8.022   8.406   9.210 -0.2675 -0.0003 -0.1530
 4266W        W 7785   2.148   7.155  10.172  0.0405 -0.1300 -0.3188
 4267W        W 7786   1.907   6.411   0.562  0.2733  0.3222 -0.0284
 4268W        W 7787   2.655   4.622  10.675  0.1288  0.0043  0.2107
 4269W        W 7788   6.100   7.171   3.617 -0.2695 -0.1382 -0.0162
 4270W        W 7789   5.050   9.074  12.490 -0.2861 -0.1583  0.1484
 4271W        W 7790   8.646   5.140   3.609  0.1236  0.3733  0.0937
 4272W        W 7791   0.026   1.618  10.436  0.1708 -0.0488 -0.3145
 4273W        W 7792   0.486   8.825   9.311 -0.0081 -0.0209 -0.1057
 4274W        W 7793   7.685   9.298   0.285  0.0396  0.1885 -0.0820
 4275W        W 7794   3.061   4.347   8.844  0.2702 -0.2356 -0.1422
 4276W        W 7795   7.638   7.257  11.992  0.0136 -0.0077 -0.0248
 4277W        W 7796   7.052   0.780   2.825  0.2844  0.1310  0.1182
 4278W        W 7797   7.194   1.888   2.052 -0.0447  0.0842 -0.1025
 4279W        W 7798   1.545   3.909   8.083  0.0618  0.0096  0.2672
 4280W        W 7799   0.771   6.894  11.284  0.0216 -0.0583 -0.0110
 4281W        W 7800   3.982   1.333  11.413 -0.1027 -0.1647 -0.2045
 4282W        W 7801   3.982   3.962  10.533  0.0553  0.1079 -0.0815
 4283W        W 7802   3.918   3.973   1.918 -0.2202  0.0947  0.3530
 4284W        W 7803   6.444   3.701   8.761 -0.0815  0.1077  0.1576
 4285W        W 7804   9.537   4.600   8.306  0.1885 -0.3370  0.2945
 4286W        W 7805   8.832   5.540   2.631  0.1774 -0.0351  0.2470
 4287W        W 7806   9.230   7.415   3.424  0.0163 -0.1021 -0.1645
 4288W        W 7807   9.341   0.191   1.909 -0.0955  0.1735 -0.0033
 4289W        W 7808   3.155   4.786   2.339 -0.0985 -0.2134 -0.0451
 4290W        W 7809   6.886   0.849   3.831  0.0294 -0.1654 -0.1681
 4291W        W 7810   8.568   5.701   9.535 -0.0842 -0.1356  0.0550
 4292W        W 7811   2.445   6.385   1.260 -0.3175 -0.2317 -0.0950
 4293W        W 7812   2.422   6.491  12.112  0.0082  0.1443 -0.1359
 4294W        W 7813   2.147   1.449   0.814 -0.2208  0.0360 -0.0094
 4295W        W 7814   3.516   2.597   0.830  0.1629  0.2589 -0.1424
 4296W        W 7815   0.065   4.463   0.898  0.0372 -0.0786  0.2977
 4297W        W 7816   4.871   3.226   8.934 -0.3816  0.3386 -0.2573
 4298W        W 7817   7.637   4.999  11.669 -0.0966  0.0674  0.3254
 4299W        W 7818   6.173   5.234   3.308 -0.1383 -0.4822 -0.1455
 4300W        W 7819   7.409   2.995   2.293 -0.3847  0.1304 -0.4095
 4301W        W 7820   5.711   5.171   8.772 -0.0621 -0.1295 -0.0170
 4302W        W 7821   9.538   6.295   9.342  0.1088  0.4069  0.0970
 4303W        W 7822   0.397   5.792  11.391 -0.2441  0.0207 -0.1177
 4304W        W 7823   9.045   6.169   3.081  0.0217 -0.0761  0.0037
 4305W        W 7824   4.600   6.299   1.526  0.2390  0.1423  0.2345
 4306W        W 7825   4.378   6.148   2.141  0.0848 -0.1736 -0.1870
 4307W        W 7826   8.562   6.018   0.798 -0.0186 -0.0959  0.1248
 4308W        W 7827   2.670   3.750   9.191  0.0174 -0.0935 -0.1337
 4309W        W 7828   2.639   9.519  10.323  0.0798 -0.1373  0.2047
 4310W        W 7829   2.742   6.409   9.756  0.0621 -0.2365  0.0595
 4311W        W 7830   1.368   1.396  11.778  0.1975 -0.1987  0.2698
 4312W        W 7831   5.957   4.798   1.944  0.0596  0.1387  0.0989
 4313W        W 7832   4.039   9.364  10.394  0.0440  0.0471 -0.0867
 4314W        W 7833   4.425   1.559  11.337  0.1129  0.3180 -0.0514
 4315W        W 7834   4.703   1.388   9.986  0.1285 -0.2167 -0.0089
 4316W        W 7835   1.595   6.813   5.082 -0.2501  0.0924  0.1100
 4317W        W 7836   7.602   3.538   1.336  0.0457  0.0480 -0.1392
 4318W        W 7837   3.252   1.730  12.037 -0.0156 -0.3286  0.1381
 4319W        W 7838   5.952   3.492   0.950 -0.3317 -0.2489  0.1111
 4320W        W 7839   6.842   0.858  12.565  0.2390 -0.3234  0.0169
 4321W        W 7840   6.399   8.487  12.243 -0.3762 -0.5171  0.0636
 4322W        W 7841   8.641   5.184  10.732 -0.3285 -0.2159  0.0499
 4323W        W 7842   6.726   6.453  11.460 -0.1178  0.2603 -0.2215
 4324W        W 7843   7.776   7.834   0.458 -0.1703  0.2154  0.1720
 4325W        W 7844   0.703   6.303  12.289 -0.3988 -0.0853 -0.1204
 4326W        W 7845   4.138   1.161   1.881  0.2684  0.0130 -0.0040
 4327W        W 7846   3.125   9.312   0.117  0.0174 -0.0850 -0.2933
 4328W        W 7847   1.489   6.362  11.779  0.1949  0.1149  0.0011
 4329W        W 7848   6.952   9.470   0.650  0.0455  0.1389 -0.0325
 4330W        W 7849   8.112   7.677   3.648  0.1645 -0.2638 -0.2629
 4331W        W 7850   6.647   2.993   2.219  0.1355  0.4624 -0.1142
 4332W        W 7851   9.279   0.988   1.391 -0.1099  0.1073 -0.0697
 4333W        W 7852   1.535   9.071   0.185  0.0527 -0.2019  0.2752
 4334W        W 7853   2.215   3.784  10.579  0.1130 -0.0442 -0.0421
 4335W        W 7854   3.005   4.250   3.939  0.1141 -0.0281  0.1335
 4336W        W 7855   7.369   6.378   0.262 -0.1274 -0.2610  0.2341
 4337W        W 7856   5.457   1.062   1.237 -0.1237  0.1969 -0.1248
 4338W        W 7857   4.379   3.011   1.882  0.4172  0.0181 -0.1487
 4339W        W 7858   2.345   3.225  11.821  0.2582 -0.0059  0.2156
 4340W        W 7859   7.873   4.902   0.413  0.0089 -0.1575  0.2718
 4341W        W 7860   3.819   6.528   0.254 -0.0110 -0.2149  0.1095
 4342W        W 7861   8.832   6.611   2.843  0.1058  0.0328  0.2610
 4343W        W 7862   5.932   2.007   0.966 -0.0143  0.4333 -0.5674
 4344W        W 7863   0.757   2.603   3.859 -0.0864 -0.0173  0.1707
 4345W        W 7864   0.994   4.175  11.329  0.0688  0.2580 -0.1143
 4346W        W 7865   4.692   6.486   9.875  0.3241 -0.1850  0.0123
 4347W        W 7866   6.464   4.547   4.350  0.0133  0.1374  0.3078
 4348W        W 7867   9.341   7.794   8.244  0.0610  0.1269  0.3458
 4349W        W 7868   6.886   5.320  12.386 -0.0966  0.1212  0.2446
 4350W        W 7869   8.056   3.323   9.294 -0.0314  0.0128 -0.1553
 4351W        W 7870   9.476   7.727   2.637 -0.2777 -0.1696  0.0637
 4352W        W 7871   8.103   4.492  12.096  0.2028  0.1704 -0.2262
 4353W        W 7872   4.248   6.952   0.427  0.0854 -0.0480  0.0617
 4354W        W 7873   1.321   6.054   1.366  0.1492  0.2743 -0.0690
 4355W        W 7874   3.298   8.054   1.337  0.1074  0.0688  0.2203
 4356W        W 7875   1.544   7.851   2.778 -0.0244  0.0089  0.4034
 4357W        W 7876   1.530   9.129  10.916  0.0308 -0.3103 -0.1634
 4358W        W 7877   1.636   8.964   1.237  0.1151 -0.4101 -0.1641
 4359W        W 7878   5.915   9.672   1.411  0.1849 -0.0167  0.2579
 4360W        W 7879   5.212   1.663   8.910 -0.0964  0.0067  0.5076
 4361W        W 7880   4.477   2.744   8.028 -0.1528  0.2742 -0.0861
 4362W        W 7881   8.804   2.445   2.305  0.1200  0.0530  0.2487
 4363W        W 7882   1.609   1.372   2.719  0.0188 -0.0688 -0.0761
 4364W        W 7883   4.873   9.316   0.822 -0.0221  0.0352 -0.2342
 4365W        W 7884   8.226   2.147   1.545 -0.3060  0.1317 -0.2337
 4366W        W 7885   1.155   6.870   2.707 -0.1478 -0.0150 -0.3468
 4367W        W 7886   7.718   8.900   3.340  0.3788 -0.2360  0.0289
 4368W        W 7887   1.690   0.021   1.842 -0.0962  0.2323 -0.1337
 4369W        W 7888   8.724   0.292   9.112 -0.0658 -0.2753  0.0641
 4370W        W 7889   8.858   5.879   4.419 -0.0101 -0.2212 -0.1518
 4371W        W 7890   0.788   9.469   2.335 -0.0001  0.0783 -0.0918
 4372W        W 7891   3.111   6.881   3.132 -0.1320  0.0541 -0.2998
 4373W        W 7892   7.536   1.252   7.688 -0.0571  0.5048 -0.0057
 4374W        W 7893   7.283   5.836   1.963 -0.1462 -0.0459  0.0236
 4375W        W 7894   5.191   3.622   1.979  0.2002  0.3278 -0.0607
 4376W        W 7895   1.363   7.809   0.484  0.1918  0.0460  0.1858
 4377W        W 7896   0.923   6.927   3.556  0.0160  0.4203  0.0085
 4378W        W 7897   5.139   0.609  10.948  0.1153  0.3738 -0.1155
 4379W        W 7898   3.663   3.028   4.529 -0.0391  0.1256  0.2271
 4380W        W 7899   1.080   0.732   1.553 -0.0800 -0.3069 -0.3421
 4381W        W 7900   8.967   9.503   9.538 -0.0618  0.0004 -0.0878
 4382W        W 7901   5.572   2.546  10.915 -0.1359 -0.1780 -0.1920
 4383W        W 7902   1.047   0.007   1.975  0.3000 -0.3178 -0.0838
 4384W        W 7903   4.057   5.959   9.202  0.0975 -0.0056  0.1236
 4385W        W 7904   2.116   0.104   0.837 -0.0366 -0.0358 -0.4869
 4386W        W 7905   2.063   4.512   4.194  0.1755 -0.1880  0.0185
 4387W        W 7906   2.882   6.203  10.720 -0.3254  0.1119 -0.1740
 4388W        W 7907   2.349   3.277   9.809  0.0713 -0.1546  0.0429
 4389W        W 7908   4.228   4.703  10.632 -0.1442 -0.0069  0.0868
 4390W        W 7909   5.531   8.937  12.224  0.4522 -0.0922 -0.0760
 4391W        W 7910   3.722   4.557   4.185 -0.0693  0.0912 -0.4452
 4392W        W 7911   4.235   7.591  10.093  0.3877  0.1819  0.1019
 4393W        W 7912   2.653   5.481   8.917 -0.1550  0.1220 -0.2456
 4394W        W 7913   8.350   4.983   1.963 -0.1165 -0.0215  0.0887
 4395W        W 7914   6.302   6.615   3.837  0.3807  0.0726  0.0381
 4396W        W 7915   8.282   9.308  10.082  0.6485 -0.0952  0.2581
 4397W        W 7916   2.788   9.168   1.065  0.1244 -0.1551 -0.3371
 4398W        W 7917   7.602   8.232   2.184  0.1749 -0.4589  0.1248
 4399W        W 7918   4.342   7.141  10.370 -0.1200 -0.1195  0.0232
 4400W        W 7919   5.823   8.178   2.837 -0.1246  0.2105 -0.2583
 4401W        W 7920   3.663   6.421   4.145 -0.0950 -0.2092 -0.2729
 4402W        W 7921   7.779   1.948   4.045  0.1784  0.1587 -0.3521
 4403W        W 7922   3.490   9.311   0.522  0.0208  0.0638 -0.1434
 4404W        W 7923   5.252   1.084   2.268 -0.0021  0.3001 -0.2807
 4405W        W 7924   5.927   0.171  11.987  0.2874  0.2602 -0.0468
 4406W        W 7925   4.766   2.375  11.191 -0.2834  0.0009 -0.0495
 4407W        W 7926   7.559   5.928  11.021  0.2046  0.2953 -0.1736
 4408W        W 7927   0.721   8.116  11.673  0.0206  0.0418  0.1280
 4409W        W 7928   3.933   3.430   1.496 -0.0470 -0.1986  0.0477
 4410W        W 7929   8.863   7.087   2.116  0.1384  0.1724  0.1482
 4411W        W 7930   7.212   9.124   1.597 -0.1765  0.0877 -0.1320
 4412W        W 7931   7.293   2.942   9.972 -0.2341 -0.2961  0.3171
 4413W        W 7932   9.223   1.360  10.608 -0.0003 -0.0551  0.0144
 4414W        W 7933   4.551   3.561   1.082 -0.1191  0.1567 -0.2048
 4415W        W 7934   7.731   0.039   0.624 -0.0209  0.0759  0.3178
 4416W        W 7935   5.047   6.685  11.597  0.2221  0.3580  0.0917
 4417W        W 7936   7.231   6.897   0.092  0.3129  0.1022 -0.3117
 4418W        W 7937   1.670   0.743   2.211  0.0137 -0.2212 -0.0938
 4419W        W 7938   1.953   5.064   1.524  0.2385  0.0138  0.0731
 4420W        W 7939   2.357   9.095  10.293 -0.1006 -0.1002  0.1203
 4421W        W 7940   0.031   0.136   1.438  0.3139  0.1844 -0.3993
 4422W        W 7941   1.977   5.503   8.371  0.3595 -0.2547 -0.0515
 4423W        W 7942   7.607   3.834   9.834  0.1894 -0.0591  0.0697
 4424W        W 7943   0.163   9.522   3.496  0.0835 -0.0263  0.0211
 4425W        W 7944   4.033   9.143   2.214  0.0422  0.0698  0.1678
 4426W        W 7945   1.040   5.990   1.804 -0.0915  0.0204  0.2036
 4427W        W 7946   7.072   2.621   3.922 -0.0567 -0.0716  0.3981
 4428W        W 7947   5.838   1.035  10.096 -0.0172  0.0555 -0.0249
 4429W        W 7948   2.850   5.230   1.588  0.1013  0.2483 -0.0837
 4430W        W 7949   2.122   7.512  11.200 -0.0138  0.1380 -0.0579
 4431W        W 7950   1.877   1.205   2.307 -0.4026  0.3251  0.0527
 4432W        W 7951   1.621   0.687  11.148 -0.1844 -0.2467 -0.1749
 4433W        W 7952   6.342   7.646   2.763  0.0208 -0.1170  0.0976
 4434W        W 7953   0.346   6.484   4.018  0.0093  0.0230  0.1227
 4435W        W 7954   5.549   3.458  12.068 -0.2240  0.5599 -0.2889
 4436W        W 7955   0.794   5.503  10.770  0.1341  0.1496  0.0752
 4437W        W 7956   5.218   0.805  10.048  0.2135 -0.5111  0.3405
 4438W        W 7957   7.984   5.189   2.797  0.1307 -0.0419  0.2088
 4439W        W 7958   7.670   2.041   9.175 -0.2560  0.0204  0.4469
 4440W        W 7959   5.045   6.105   1.232  0.1815  0.1413 -0.0368
 4441W        W 7960   3.166   6.531   2.183 -0.0508 -0.0335 -0.0400
 4442W        W 7961   5.907   5.497   1.104  0.3568 -0.2568 -0.0169
 4443W        W 7962   8.580   1.267   0.253  0.2259  0.1119 -0.1690
 4444W        W 7963   8.182   5.331   2.250 -0.1047  0.1518 -0.2109
 4445W        W 7964   5.888   2.945  12.458 -0.1939 -0.5001  0.1662
 4446W        W 7965   4.378   0.764   1.739  0.2388 -0.0305  0.2491
 4447W        W 7966   5.615   9.223   1.242  0.0630  0.0778  0.0670
 4448W        W 7967   7.187   3.518  10.851  0.0455  0.0670  0.0053
 4449W        W 7968   8.066   4.764   8.339 -0.1613  0.0028  0.0066
 4450W        W 7969   3.946   4.519   2.629  0.0018 -0.1579  0.1608
 4451W        W 7970   6.065   1.246  10.558  0.0199  0.4318 -0.1824
 4452W        W 7971   2.839   0.674  10.905  0.0873  0.0786  0.1505
 4453W        W 7972   0.394   5.320  11.555  0.0650 -0.3394 -0.2074
 4454W        W 7973   4.136   4.201   8.103  0.0883  0.2068 -0.2355
 4455W        W 7974   5.546   0.548   3.385  0.2306  0.2305 -0.0058
 4456W        W 7975   0.519   0.573  10.206  0.1052 -0.1248  0.1089
 4457W        W 7976   5.747   6.271   3.810 -0.2347 -0.2196  0.1297
 4458W        W 7977   6.876   9.400  12.562  0.1002 -0.0744  0.2455
 4459W        W 7978   1.478   1.505  10.809  0.1504 -0.1013  0.2024
 4460W        W 7979   8.477   2.162   1.927 -0.3254 -0.3562  0.2969
 4461W        W 7980   8.629   7.980   1.633  0.1050 -0.1052 -0.1921
 4462W        W 7981   6.197   3.474   9.167  0.2184 -0.1065  0.0304
 4463W        W 7982   9.598   7.900  10.568  0.1032  0.1110 -0.1115
 4464W        W 7983   5.494   7.774   9.908  0.1899  0.1179 -0.1007
 4465W        W 7984   1.916   6.309   8.860  0.5147 -0.0101  0.0607
 4466W        W 7985   4.050   1.577  10.361 -0.2368 -0.1601 -0.0747
 4467W        W 7986   1.959   5.551  10.198 -0.1259  0.0033  0.1154
 4468W        W 7987   3.922   6.821  10.373 -0.1428  0.4296  0.0430
 4469W        W 7988   1.170   6.693   1.159  0.3197 -0.1930  0.0362
 4470W        W 7989   9.167   4.990  11.280  0.2865 -0.2119 -0.2069
 4471W        W 7990   5.858   9.620  10.046  0.0520  0.1649  0.0510
 4472W        W 7991   5.101   0.180   4.207  0.0745  0.0062  0.0183
 4473W        W 7992   8.296   7.656   0.238  0.1164 -0.2267 -0.0307
 4474W        W 7993   5.438   1.325  12.216  0.1822 -0.3957 -0.0608
 4475W        W 7994   2.795   7.837   9.199 -0.5207  0.2298  0.1686
 4476W        W 7995   3.385   6.742   8.803  0.0616 -0.0470 -0.2424
 4477W        W 7996   7.948   6.224  11.153 -0.1535  0.0433  0.0436
 4478W        W 7997   4.407   5.632   9.436 -0.0107 -0.4119  0.0323
 4479W        W 7998   6.258   7.891   5.057  0.0890 -0.2037  0.1657
 4480W        W 7999   6.207   4.532   8.965 -0.0424  0.1340 -0.2030
 4481W        W 8000   6.468   8.512  11.723 -0.0540 -0.2557  0.1094
 4482W        W 8001   5.458   0.197   1.756  0.0053 -0.0823  0.2648
 4483W        W 8002   5.738   3.821  10.348 -0.1732  0.0587 -0.0620
 4484W        W 8003   7.113   6.534  12.157 -0.1129 -0.0947  0.3267
 4485W        W 8004   4.191   3.223   9.974  0.0324  0.3826 -0.2564
 4486W        W 8005   5.487   5.135   2.364  0.0870 -0.0174 -0.0233
 4487W        W 8006   7.931   0.971   1.078  0.1838  0.0719 -0.0709
 4488W        W 8007   8.027   5.236   0.025  0.3852 -0.0878 -0.4060
 4489W        W 8008   3.568   8.987   9.262 -0.1209 -0.1347  0.4038
 4490W        W 8009   4.841   6.014   1.867 -0.1018 -0.0034 -0.1767
 4491W        W 8010   2.465   0.206   8.817 -0.1174 -0.0459 -0.1125
 4492W        W 8011   4.435   7.355   0.226 -0.0765  0.1261 -0.1084
 4493W        W 8012   8.374   1.760   3.439  0.1663 -0.3322  0.0180
 4494W        W 8013   5.422   6.520   3.038  0.2284  0.1398 -0.0269
 4495W        W 8014   8.885   4.130  11.523  0.1583 -0.2543 -0.1920
 4496W        W 8015   0.352   2.476  10.050 -0.1978 -0.3564 -0.3177
 4497W        W 8016   2.912   9.212   3.148 -0.2281 -0.2231 -0.2364
 4498W        W 8017   5.391   5.416  11.861  0.0822  0.1579 -0.3143
 4499W        W 8018   6.707   4.458   1.921  0.1422  0.2202  0.0681
 4500W        W 8019   7.345   4.080   8.890 -0.2109  0.2288  0.0138
 4501W        W 8020   7.263   3.487  11.371  0.1382 -0.3794 -0.3158
 4502W        W 8021   2.592   9.403   4.149  0.2119  0.2529  0.0311
 4503W        W 8022   3.130   3.303  10.268 -0.4487  0.3341  0.1049
 4504W        W 8023   4.402   3.671  10.450 -0.0529  0.4018 -0.1448
 4505W        W 8024   6.348   6.639   9.330 -0.0983 -0.2862 -0.1136
 4506W        W 8025   7.103   1.440   4.205 -0.0020  0.2542  0.0645
 4507W        W 8026   2.429   4.990   8.713  0.2795  0.0573 -0.2030
 4508W        W 8027   1.745   3.241  10.395 -0.1396  0.5801  0.1337
 4509W        W 8028   0.690   3.181  11.546  0.0625 -0.0684 -0.0801
 4510W        W 8029   5.393   4.880   1.439 -0.2889 -0.1806  0.0833
 4511W        W 8030   3.701   6.322   9.853 -0.1313  0.0611  0.3584
 4512W        W 8031   8.583   2.236  11.647 -0.0481  0.0703  0.0583
 4513W        W 8032   3.760   9.566   0.227 -0.0613  0.2738 -0.1872
 4514W        W 8033   2.852   6.453   3.020  0.2503 -0.1029 -0.1931
 4515W        W 8034   9.212   8.113  10.875 -0.0727  0.1072  0.1651
 4516W        W 8035   1.968   5.797  12.306  0.1764  0.1170 -0.2106
 4517W        W 8036   7.322   6.928   4.122 -0.0471 -0.1992 -0.2313
 4518W        W 8037   3.667   0.181   3.980 -0.1376 -0.1040  0.3144
 4519W        W 8038   7.933   0.442   8.842 -0.0879 -0.0383  0.1229
 4520W        W 8039   3.190   5.950   0.626 -0.1146 -0.1382  0.1871
 4521W        W 8040   9.112   8.243   0.748 -0.1375  0.3717 -0.0913
 4522W        W 8041   1.556   9.642  11.723  0.0275  0.0003  0.0196
 4523W        W 8042   9.129   3.561   3.251  0.1113  0.1979  0.3820
 4524W        W 8043   3.019   3.168   0.672  0.2202  0.3116 -0.2211
 4525W        W 8044   7.248   8.817   2.644  0.0292  0.0711 -0.1587
 4526W        W 8045   5.802   0.109  10.496 -0.2838 -0.0764  0.1118
 4527W        W 8046   8.627   7.191   9.344 -0.1259 -0.6432  0.1491
 4528W        W 8047   3.923   7.914   2.089 -0.4178 -0.2027 -0.1437
 4529W        W 8048   2.483   3.823   1.699 -0.0080  0.0984  0.2841
 4530W        W 8049   6.732   4.776   1.425 -0.2549 -0.0135  0.3012
 4531W        W 8050   6.881   6.465   0.036  0.1608  0.0527  0.1527
 4532W        W 8051   8.035   0.213   2.470  0.4092 -0.3005 -0.2433
 4533W        W 8052   1.306   3.479   8.811  0.0956 -0.1693  0.0120
 4534W        W 8053   2.904   3.930   8.541 -0.0471  0.0378  0.0623
 4535W        W 8054   6.665   2.824  10.403  0.1421 -0.0565  0.0198
 4536W        W 8055   5.812   5.721  12.497 -0.2233 -0.0321 -0.0813
 4537W        W 8056   6.618   5.176   3.596  0.1123 -0.2684 -0.1450
 4538W        W 8057   4.052   9.566   4.082 -0.4040 -0.1808  0.0636
 4539W        W 8058   8.487   5.540   3.464  0.1926  0.1240 -0.0791
 4540W        W 8059   7.099   6.438   3.971  0.1901 -0.1839 -0.1886
 4541W        W 8060   5.568   9.414   1.692  0.0364  0.1506 -0.0104
 4542W        W 8061   6.579   8.529   9.797  0.1264  0.1014  0.0370
 4543W        W 8062   9.555   3.934   0.750  0.2764 -0.1094 -0.0800
 4544W        W 8063   1.957   8.468  10.438  0.2470 -0.0882  0.0532
 4545W        W 8064   5.045   6.369  11.986 -0.3040 -0.0222  0.0669
 4546W        W 8065   7.423   0.155   3.379 -0.0999 -0.0871 -0.0106
 4547W        W 8066   9.321   7.292  11.177 -0.0609 -0.0960 -0.1836
 4548W        W 8067   1.231   0.293  11.318  0.0845 -0.0687 -0.0474
 4549W        W 8068   5.922   4.259  12.196 -0.1479  0.0054 -0.0828
 4550W        W 8069   8.328   8.284   0.368  0.1652 -0.1217 -0.1798
 4551W        W 8070   1.219   2.451   9.206 -0.1036 -0.2200 -0.2859
 4552W        W 8071   9.481   3.559   4.290  0.0208  0.0594 -0.0759
 4553W        W 8072   0.194   5.774   3.318  0.1069  0.1223  0.0865
 4554W        W 8073   4.427   8.486  11.494  0.0027 -0.1389 -0.0970
 4555W        W 8074   6.967   1.354   9.391 -0.2385  0.2421  0.1072
 4556W        W 8075   7.735   4.029   3.408  0.0328  0.1185 -0.0378
 4557W        W 8076   5.017   7.425   8.362 -0.0020 -0.2488  0.0307
 4558W        W 8077   5.043   8.351   4.292  0.0280  0.2917  0.1854
 4559W        W 8078   4.160   8.392  10.240  0.0883 -0.0081 -0.2241
 4560W        W 8079   7.554   6.496   4.191  0.1809  0.3263 -0.0504
 4561W        W 8080   0.945   6.447  11.626  0.1843 -0.1236  0.0896
 4562W        W 8081   1.010   1.018   0.734  0.0707  0.0515 -0.1967
 4563W        W 8082   1.800   0.481   0.910  0.0795  0.1137 -0.1490
 4564W        W 8083   4.623   3.953   0.810 -0.1294 -0.1236  0.3049
 4565W        W 8084   6.845   6.538   9.260 -0.1878  0.4203 -0.0191
 4566W        W 8085   6.376   1.673  11.912 -0.0852 -0.0713 -0.1668
 4567W        W 8086   1.844   8.332   3.303 -0.0395  0.0873  0.0196
 4568W        W 8087   4.249   7.033  11.348  0.1747 -0.0510 -0.2349
 4569W        W 8088   9.147   0.983   3.542  0.1336 -0.0131 -0.0849
 4570W        W 8089   3.591   5.171   4.218 -0.0816  0.4191 -0.0803
 4571W        W 8090   1.504   8.582   9.389  0.2002 -0.0474 -0.0561
 4572W        W 8091   0.115   6.108   0.105 -0.1549 -0.0017 -0.0399
 4573W        W 8092   4.842   6.858   9.126 -0.2977 -0.1327  0.2036
 4574W        W 8093   3.118   3.452   9.311  0.0341  0.2140  0.2291
 4575W        W 8094   8.647   0.481  10.496 -0.0027 -0.1526  0.0081
 4576W        W 8095   3.431   8.310  11.366  0.2642 -0.1120 -0.1655
 4577W        W 8096   0.758   1.030   1.238 -0.1362 -0.2867  0.2462
 4578W        W 8097   5.527   5.931  11.111 -0.0279  0.1991  0.0078
 4579W        W 8098   1.273   8.759  11.137 -0.2509 -0.2260 -0.1741
 4580W        W 8099   9.632   2.179  11.632 -0.0668 -0.1204 -0.1521
 4581W        W 8100   1.593   3.570  10.749 -0.1721  0.0988  0.3517
 4582W        W 8101   2.622   8.450  12.540 -0.0766  0.1209  0.1490
 4583W        W 8102   5.619   4.999   9.559  0.0918  0.3746 -0.0709
 4584W        W 8103   5.879   7.540   3.831  0.0645  0.2896 -0.1324
 4585W        W 8104   2.754   4.283   1.413 -0.0873 -0.2078  0.3598
 4586W        W 8105   8.047   6.949   2.517  0.5229  0.3423 -0.3516
 4587W        W 8106   3.548   9.417  11.948  0.0064 -0.3321  0.1765
 4588W        W 8107   4.828   9.425   2.063 -0.3629  0.2451 -0.5969
 4589W        W 8108   0.843   2.058  11.899 -0.1103  0.2394 -0.3201
 4590W        W 8109   4.967   1.097   1.828 -0.4823  0.1376 -0.1110
 4591W        W 8110   6.129   7.031   9.021 -0.1502  0.2086 -0.0580
 4592W        W 8111   3.071   5.248   8.646 -0.0457  0.0515  0.2954
 4593W        W 8112   0.129   0.803  12.083 -0.1748 -0.4813 -0.1406
 4594W        W 8113   4.860   4.490  11.820 -0.0728  0.1563  0.2701
 4595W        W 8114   3.188   5.465   2.114 -0.0469 -0.0772  0.2581
 4596W        W 8115   4.024   8.912  10.225  0.2385 -0.1435  0.2416
 4597W        W 8116   1.751   3.109   1.434 -0.0774 -0.1249  0.1962
 4598W        W 8117   0.756   2.311   3.435 -0.2421  0.1564  0.0454
 4599W        W 8118   0.692   4.998   1.690  0.2517  0.0384  0.1061
 4600W        W 8119   5.865   8.862   1.459 -0.4780 -0.0508 -0.0011
 4601W        W 8120   9.080   5.992   2.462  0.0529 -0.0683 -0.1317
 4602W        W 8121   5.724   1.454   3.170 -0.2419 -0.4306 -0.0184
 4603W        W 8122   2.901   6.276  12.100  0.2404  0.1827 -0.1605
 4604W        W 8123   3.542   8.759  11.521 -0.1043 -0.0004  0.2429
 4605W        W 8124   4.956   4.987   1.237 -0.4839 -0.0494 -0.0084
 4606W        W 8125   6.812   0.087   8.102 -0.1018 -0.2029 -0.0715
 4607W        W 8126   9.594   4.866   4.499 -0.0551 -0.0143  0.0357
 4608W        W 8127   2.699   5.126  12.420 -0.1340  0.2775 -0.0572
 4609W        W 8128   1.497   1.179   3.863 -0.0315  0.3177  0.0550
 4610W        W 8129   0.026   1.672  11.694 -0.3590 -0.1790  0.1667
 4611W        W 8130   3.670   5.511  10.828 -0.0908 -0.2195 -0.0531
 4612W        W 8131   8.286   5.627   9.921  0.0118  0.0677  0.0039
 4613W        W 8132   8.021   4.588  11.075 -0.0921  0.3911 -0.0824
 4614W        W 8133   9.151   7.418   2.379 -0.1130 -0.0357  0.1134
 4615W        W 8134   5.901   5.126   0.763  0.1264 -0.2391  0.0498
 4616W        W 8135   8.153   6.974   0.020  0.1840 -0.2238 -0.1935
 4617W        W 8136   2.934   2.570   0.897 -0.2911 -0.0968  0.1159
 4618W        W 8137   4.769   1.666  10.413  0.0594  0.3932 -0.0763
 4619W        W 8138   8.925   5.486  12.330 -0.2848  0.1007  0.1660
 4620W        W 8139   3.807   9.606   2.269 -0.1106  0.0129 -0.0102
 4621W        W 8140   0.275   8.358   4.565 -0.3318  0.1458 -0.0466
 4622W        W 8141   0.117   4.408   0.048 -0.0178 -0.1448 -0.1627
 4623W        W 8142   0.481   5.804   1.093  0.1841 -0.2480 -0.2763
 4624W        W 8143   2.727   9.633   1.947 -0.1133  0.1162  0.0073
 4625W        W 8144   8.593   2.824  10.064  0.2910  0.0372  0.1199
 4626W        W 8145   4.327   2.487   9.439  0.1310  0.1447  0.0932
 4627W        W 8146   3.096   8.712   9.145 -0.2231 -0.0486  0.1615
 4628W        W 8147   7.455   0.442   8.638  0.2153 -0.1327 -0.0460
 4629W        W 8148   5.593   6.953   9.738 -0.1153 -0.1568 -0.3022
 4630W        W 8149   7.978   8.817   8.935  0.0655  0.2113  0.1102
 4631W        W 8150   6.951   2.408   3.245 -0.3435 -0.0201  0.2548
 4632W        W 8151   0.187   8.002   2.031 -0.2823  0.0351  0.0916
 4633W        W 8152   9.356   2.150   9.635 -0.0754 -0.2533  0.0158
 4634W        W 8153   1.555   5.517   3.732  0.2644  0.0884  0.2859
 4635W        W 8154   7.696   4.443   1.085 -0.1525  0.0579  0.0907
 4636W        W 8155   2.798   8.335   9.980  0.0914 -0.0183  0.2438
 4637W        W 8156   4.019   9.449  11.349 -0.4583 -0.2321 -0.0733
 4638W        W 8157   4.859   0.632   8.927 -0.4635 -0.1775 -0.3111
 4639W        W 8158   5.873   5.161  10.600 -0.2049  0.1106 -0.1217
 4640W        W 8159   1.519   9.581  11.191 -0.0980  0.0145 -0.0145
 4641W        W 8160   6.085   6.306   1.287 -0.0017  0.4442  0.2001
 4642W        W 8161   3.562   0.227  12.019  0.1626  0.0313  0.0543
 4643W        W 8162   4.586   2.990   0.325 -0.0708 -0.2222 -0.2325
 4644W        W 8163   9.426   2.684   3.870  0.4943 -0.1317  0.2524
 4645W        W 8164   7.527   7.359  10.657  0.4554 -0.0414  0.3307
 4646W        W 8165   6.453   1.960   1.438 -0.0367  0.3497  0.0242
 4647W        W 8166   9.013   2.907   9.329 -0.4618 -0.1870  0.3802
 4648W        W 8167   1.831   2.204   1.065  0.0208  0.1383 -0.0090
 4649W        W 8168   6.251   0.886   9.326  0.2165  0.2184 -0.2657
 4650W        W 8169   3.463   1.185   0.647  0.3788  0.2351 -0.1313
 4651W        W 8170   6.184   7.527  10.774 -0.1981 -0.0577  0.2189
 4652W        W 8171   1.915   9.366  11.433  0.1633  0.0746 -0.2546
 4653W        W 8172   4.474   4.731  11.581  0.0323 -0.0364  0.2499
 4654W        W 8173   8.155   9.114  10.545 -0.0984 -0.2033 -0.1632
 4655W        W 8174   8.235   4.321  12.554 -0.2069  0.1613  0.0155
 4656W        W 8175   5.094   8.143  11.785  0.1243 -0.3291  0.1517
 4657W        W 8176   9.177   2.759   2.517  0.0897 -0.2590  0.1079
 4658W        W 8177   6.776   4.047  10.173 -0.2273 -0.0139  0.1278
 4659W        W 8178   8.746   0.133   3.631 -0.0124 -0.2002  0.0805
 4660W        W 8179   8.103   7.456   1.218 -0.3178 -0.2251 -0.0607
 4661W        W 8180   3.292   6.321   9.072 -0.1786 -0.2928 -0.2427
 4662W        W 8181   0.014   8.221   1.466 -0.0290  0.0601 -0.0147
 4663W        W 8182   4.332   8.993  11.475 -0.1467  0.0338  0.0408
 4664W        W 8183   6.798   0.388   1.489 -0.1195  0.3459 -0.0647
 4665W        W 8184   8.920   2.858   3.887  0.1305  0.1682  0.1235
 4666W        W 8185   2.258   7.299   0.735  0.1056  0.0151  0.0645
 4667W        W 8186   8.740   5.128   0.157 -0.1487  0.3873 -0.0698
 4668W        W 8187   3.974   6.790   3.878 -0.0848  0.1023  0.1169
 4669W        W 8188   8.375   0.751   1.774 -0.0951  0.2723 -0.0181
 4670W        W 8189   0.217   4.207   1.852  0.2009  0.0226  0.1430
 4671W        W 8190   1.280   0.550   0.558  0.2251  0.0221 -0.0410
 4672W        W 8191   4.793   9.419  10.694 -0.0218 -0.4513 -0.0598
 4673W        W 8192   0.224   4.998   8.982 -0.0418  0.1982 -0.0447
 4674W        W 8193   3.841   2.938  10.649 -0.0822  0.0948  0.2033
 4675W        W 8194   6.182   0.474   4.356  0.1169 -0.0027 -0.1989
 4676W        W 8195   5.334   5.801  10.113  0.2758  0.0462  0.1337
 4677W        W 8196   1.198   4.184   1.925 -0.1283 -0.0221 -0.1020
 4678W        W 8197   6.948   1.375  10.390  0.0561 -0.0366 -0.0464
 4679W        W 8198   1.909   6.333  10.568 -0.2230 -0.1841 -0.1437
 4680W        W 8199   3.381   9.649  12.434  0.1616 -0.0586  0.3589
 4681W        W 8200   9.393   7.551  12.312 -0.1994  0.1669 -0.0028
 4682W        W 8201   8.985   1.922  10.015 -0.0346 -0.0076  0.0234
 4683W        W 8202   4.594   1.179   0.134 -0.0888 -0.2906 -0.2154
 4684W        W 8203   9.421   2.896   1.606 -0.0626 -0.2865  0.0559
 4685W        W 8204   7.675   5.021  10.076 -0.0360  0.3724  0.3726
 4686W        W 8205   2.778   7.929   3.475 -0.1333  0.0355 -0.3692
 4687W        W 8206   2.089   5.425  12.556  0.1847  0.0189  0.0031
 4688W        W 8207   2.612   7.679  12.323  0.0514  0.0934 -0.0163
 4689W        W 8208   5.489   1.872   9.926  0.0643  0.1661  0.1815
 4690W        W 8209   7.248   3.371   9.651  0.1849 -0.0519 -0.1175
 4691W        W 8210   8.100   8.507  10.323 -0.0829 -0.1515 -0.0186
 4692W        W 8211   4.057   4.506   3.495  0.2313  0.0721  0.2112
 4693W        W 8212   7.930   5.679   3.408 -0.0019 -0.1109  0.2102
 4694W        W 8213   6.147   1.690   8.717 -0.0653  0.1437  0.0699
 4695W        W 8214   4.658   3.294  10.177  0.2453 -0.3062  0.2786
 4696W        W 8215   0.896   9.483   9.791  0.1091  0.2971  0.1048
 4697W        W 8216   7.346   9.658   0.326  0.0660  0.0686 -0.3276
 4698W        W 8217   0.718   7.620   9.920  0.1961  0.0135 -0.0003
 4699W        W 8218   1.063   5.623   9.030 -0.1341  0.2967  0.0462
 4700W        W 8219   5.497   8.404   9.423  0.0154 -0.1748 -0.0087
 4701W        W 8220   7.495   9.156   1.191 -0.1317 -0.0705 -0.3663
 4702W        W 8221   1.087   1.825  10.888 -0.2209  0.0475 -0.1390
 4703W        W 8222   8.297   4.779   2.922 -0.1802  0.2038  0.1290
 4704W        W 8223   5.816   6.730   9.337  0.2828  0.0780  0.1023
 4705W        W 8224   7.247   2.988  10.703 -0.1118  0.0450  0.2130
 4706W        W 8225   1.432   5.203   2.248 -0.0681  0.0964 -0.1667
 4707W        W 8226   3.609   7.335   0.879 -0.1128 -0.0982  0.1337
 4708W        W 8227   8.715   6.761   9.190 -0.1503 -0.1152  0.0441
 4709W        W 8228   3.575   7.737  10.484 -0.0793 -0.1539 -0.1181
 4710W        W 8229   3.187   0.095   3.121 -0.3197 -0.0260 -0.2036
 4711W        W 8230   0.543   7.981  10.196  0.0314 -0.2168  0.4373
 4712W        W 8231   0.312   1.817   1.785  0.2001 -0.1229  0.2024
 4713W        W 8232   7.506   6.423  11.111  0.0891  0.0247  0.0448
 4714W        W 8233   1.569   0.902   1.748  0.1418 -0.1288 -0.2565
 4715W        W 8234   8.995   5.101   1.312 -0.0146 -0.0240  0.0431
 4716W        W 8235   7.245   4.801   3.365  0.0200 -0.2556 -0.0223
 4717W        W 8236   2.895   8.050   4.073 -0.0041 -0.2880  0.0032
 4718W        W 8237   8.234   3.958  12.206 -0.0286  0.1513  0.2916
 4719W        W 8238   4.206   0.173  11.494  0.0276  0.0910  0.2414
 4720W        W 8239   9.591   4.148   2.604  0.1350 -0.2775 -0.1870
 4721W        W 8240   7.030   3.907  11.669 -0.0416 -0.2792  0.1960
 4722W        W 8241   2.033   9.477   3.376  0.4332  0.0447  0.0064
 4723W        W 8242   4.466   5.437   8.415 -0.0708 -0.0948 -0.0548
 4724W        W 8243   5.013   5.626   0.549 -0.4162  0.0203 -0.0677
 4725W        W 8244   3.638   0.999   9.670  0.1725 -0.0319 -0.1886
 4726W        W 8245   3.734   5.971   0.070 -0.2699  0.1033  0.0604
 4727W        W 8246   1.618   3.264   9.891  0.0958 -0.3049  0.0121
 4728W        W 8247   1.223   1.187   1.346  0.0785  0.0713  0.0917
 4729W        W 8248   6.569   0.578   3.529  0.3343  0.0132  0.1811
 4730W        W 8249   2.668   2.814   2.434 -0.0658 -0.2682  0.1093
 4731W        W 8250   8.399   2.663   2.183 -0.0953 -0.0018 -0.0190
 4732W        W 8251   1.697   4.709  10.325  0.0530  0.1417  0.2624
 4733W        W 8252   8.455   2.566   8.223  0.2526 -0.1581 -0.2830
 4734W        W 8253   6.701   1.180  12.112  0.0644  0.1073 -0.0494
 4735W        W 8254   4.413   9.045  10.566 -0.1768  0.0545  0.0374
 4736W        W 8255   1.722   0.096   0.442  0.0483 -0.0114  0.0277
 4737W        W 8256   5.043   0.274   1.464 -0.4374  0.0366  0.0421
 4738W        W 8257   6.856   9.551   4.051 -0.2004  0.1704 -0.1635
 4739W        W 8258   8.237   1.648   0.217 -0.0004  0.4788  0.0203
 4740W        W 8259   2.662   3.222   8.449  0.0793  0.3065  0.2167
 4741W        W 8260   7.400   0.033   3.895 -0.2347 -0.2256  0.0104
 4742W        W 8261   5.873   8.680   8.713 -0.0647 -0.0134  0.2122
 4743W        W 8262   4.926   3.772   1.522  0.2241  0.0143  0.0343
 4744W        W 8263   3.703   7.966  12.070  0.1546 -0.0011 -0.3964
 4745W        W 8264   6.286   2.471   3.560 -0.1186 -0.0282  0.0626
 4746W        W 8265   6.951   7.419  10.396 -0.2926  0.0359 -0.2782
 4747W        W 8266   4.673   5.488   3.804 -0.0027 -0.2937  0.3373
 4748W        W 8267   5.882   8.088   4.644  0.1619  0.0141 -0.1216
 4749W        W 8268   5.328   6.910  12.429 -0.2494  0.0417  0.0493
 4750W        W 8269   0.814   5.193  11.173 -0.2637 -0.2425 -0.4823
 4751W        W 8270   0.924   3.811   8.898  0.0716 -0.0475 -0.1416
 4752W        W 8271   6.879   8.242  11.466  0.1310  0.0324 -0.1529
 4753W        W 8272   2.908   2.320   3.955  0.0392 -0.1323 -0.3498
 4754W        W 8273   9.643   7.742   1.545 -0.0994 -0.1523 -0.2838
 4755W        W 8274   1.507   2.898   3.274 -0.1402 -0.4052  0.3063
 4756W        W 8275   2.382   4.382   1.786 -0.0830 -0.3881  0.1128
 4757W        W 8276   7.951   1.079   1.587 -0.0932  0.4311  0.1464
 4758W        W 8277   4.463   2.030   1.806 -0.0948 -0.1422  0.1851
 4759W        W 8278   4.001   5.514   9.087 -0.1370 -0.2229 -0.0116
 4760W        W 8279   5.136   4.590  10.432 -0.1594 -0.1792  0.0384
 4761W        W 8280   1.823   9.155   1.998  0.1130  0.0675 -0.1480
 4762W        W 8281   3.692   6.493   1.865 -0.2507 -0.0774  0.0732
 4763W        W 8282   0.011   0.404   2.346  0.2676  0.2599 -0.3224
 4764W        W 8283   1.623   4.740   8.233  0.1303 -0.2061 -0.2136
 4765W        W 8284   7.128   9.621   1.460 -0.1294 -0.2773  0.0852
 4766W        W 8285   3.921   8.071   0.415  0.1218 -0.0504 -0.4243
 4767W        W 8286   8.546   9.186   0.233 -0.0164 -0.2014  0.2348
 4768W        W 8287   0.984   6.979   1.488  0.3561  0.0454 -0.0729
 4769W        W 8288   0.983   4.326  10.792  0.1387  0.2870  0.1003
 4770W        W 8289   3.305   7.454   1.921  0.1440 -0.1721 -0.1232
 4771W        W 8290   2.577   0.259   1.456 -0.2755 -0.0649  0.3225
 4772W        W 8291   0.130   7.263   1.413 -0.4078  0.0004  0.0467
 4773W        W 8292   7.209   5.373  11.908 -0.2089 -0.2342  0.0549
 4774W        W 8293   2.489   6.753   2.865  0.1036  0.0307  0.2592
 4775W        W 8294   2.372   0.308   2.062 -0.1788 -0.3388  0.4386
 4776W        W 8295   1.847   6.260  11.384  0.1195 -0.0380  0.2010
 4777W        W 8296   1.288   8.039   1.288  0.1884 -0.0873  0.0053
 4778W        W 8297   0.829   3.571  11.896 -0.1926  0.1755  0.0044
 4779W        W 8298   3.998   2.805   9.618  0.4284  0.0891  0.0111
 4780W        W 8299   8.436   7.946  10.527  0.1403  0.2562  0.3122
 4781W        W 8300   9.096   1.755   2.704 -0.0228  0.4202  0.1052
 4782W        W 8301   5.344   6.897   1.381 -0.1355 -0.0480 -0.0270
 4783W        W 8302   1.310   4.116   8.796 -0.0981 -0.0808 -0.0529
 4784W        W 8303   6.622   8.941   0.008 -0.0761 -0.0268 -0.1373
 4785W        W 8304   4.049   1.904   0.507  0.3920 -0.2458  0.0800
 4786W        W 8305   4.984   2.393  10.320  0.0986  0.0179 -0.1331
 4787W        W 8306   6.777   5.271  10.196  0.3372 -0.1510  0.2670
 4788W        W 8307   4.576   7.525  11.306 -0.0074  0.0069 -0.0557
 4789W        W 8308   8.937   7.929  12.172 -0.0117  0.0296  0.1727
 4790W        W 8309   7.362   0.271   9.708  0.2040  0.1732  0.0022
 4791W        W 8310   5.843   9.658   2.633  0.0269 -0.3135 -0.4725
 4792W        W 8311   7.451   6.797  10.786  0.0630 -0.0072  0.1883
 4793W        W 8312   0.773   4.447  11.901 -0.0330  0.0438  0.0829
 4794W        W 8313   6.901   7.354   3.683 -0.2447 -0.3928 -0.0098
 4795W        W 8314   3.574   8.826  12.081 -0.1039  0.0660 -0.2658
 4796W        W 8315   4.041   0.904   0.237 -0.0476 -0.1278  0.1823
 4797W        W 8316   1.613   0.456   3.143 -0.3095  0.0650 -0.3634
 4798W        W 8317   8.915   9.304  10.822  0.0509  0.0306  0.0710
 4799W        W 8318   3.463   6.183   3.685 -0.1497 -0.1202  0.4606
 4800W        W 8319   7.770   6.128   4.637 -0.2486 -0.2835  0.1173
 4801W        W 8320   6.331   2.211   9.935 -0.0248  0.3348  0.1226
 4802W        W 8321   6.123   4.899   9.698  0.4714 -0.1547 -0.0006
 4803W        W 8322   4.355   2.242   2.228  0.1056  0.1184  0.4055
 4804W        W 8323   6.768   8.924   3.460 -0.1161  0.0393 -0.0826
 4805W        W 8324   8.761   0.772  11.771  0.0656  0.0185 -0.2493
 4806W        W 8325   9.445   9.500   2.989  0.0450  0.1801 -0.4169
 4807W        W 8326   5.787   8.804   2.038 -0.0565 -0.0724 -0.0091
 4808W        W 8327   6.004   4.479  11.216  0.0639 -0.2007  0.2605
 4809W        W 8328   0.260   5.561  10.469 -0.1103 -0.0592  0.2675
 4810W        W 8329   3.461   3.331   8.950  0.0665  0.0498  0.0447
 4811W        W 8330   8.294   4.638   0.377 -0.1615  0.0067 -0.1725
 4812W        W 8331   3.845   7.020  10.997 -0.0819 -0.3132  0.2196
 4813W        W 8332   2.767   7.393   9.426  0.1262 -0.4202 -0.0176
 4814W        W 8333   8.120   2.270  10.131 -0.5284  0.0199 -0.2259
 4815W        W 8334   4.876   5.610   9.857  0.2434 -0.0046 -0.1894
 4816W        W 8335   4.988   0.154  10.991  0.0213  0.1270 -0.0216
 4817W        W 8336   5.741   4.092   9.556 -0.0080 -0.1999  0.1212
 4818W        W 8337   3.743   0.540  12.401  0.2375  0.0438  0.2502
 4819W        W 8338   2.208   7.422   0.247  0.1189  0.1683  0.0531
 4820W        W 8339   4.300   5.312  11.963 -0.1792 -0.0630 -0.2002
 4821W        W 8340   5.949   3.094  11.432  0.3798 -0.0449  0.1182
 4822W        W 8341   2.569   7.585  10.447  0.0372 -0.0610 -0.0627
 4823W        W 8342   0.768   7.704   2.203  0.2492 -0.0523  0.1820
 4824W        W 8343   4.056   5.912   2.483  0.5679  0.0483  0.1218
 4825W        W 8344   5.871   3.248   0.341 -0.0226 -0.0533 -0.1282
 4826W        W 8345   5.176   6.381   3.898  0.0437 -0.1029  0.0912
 4827W        W 8346   8.906   6.424   2.179 -0.0262 -0.1704 -0.0984
 4828W        W 8347   5.703   6.664   2.449  0.4154 -0.1909 -0.1607
 4829W        W 8348   7.055   5.784   2.928  0.2120 -0.0103  0.0465
 4830W        W 8349   2.359   8.174   3.865  0.0803 -0.3234 -0.1812
 4831W        W 8350   7.745   3.009   9.710 -0.1063 -0.0425 -0.0811
 4832W        W 8351   5.295   6.089   3.419  0.0441  0.0766 -0.1207
 4833W        W 8352   5.242   6.555   8.690 -0.2173  0.1027  0.0728
 4834W        W 8353   8.491   5.517   0.763  0.2348 -0.0202  0.1230
 4835W        W 8354   9.659   8.322  10.879 -0.0794 -0.1402  0.1319
 4836W        W 8355   3.549   0.292  10.716  0.0329 -0.0855  0.0337
 4837W        W 8356   0.955   2.520   1.423  0.0344 -0.0009 -0.1426
 4838W        W 8357   7.487   1.237   3.159 -0.0767 -0.1244 -0.1356
 4839W        W 8358   0.993   4.618  11.507 -0.0280  0.0116 -0.0490
 4840W        W 8359   4.783   0.457   0.525 -0.2529  0.0323 -0.0336
 4841W        W 8360   7.096   9.276   2.749  0.1841 -0.1533  0.1501
 4842W        W 8361   3.703   3.016   1.218  0.0542 -0.2007 -0.0628
 4843W        W 8362   6.312   0.520   0.173 -0.1822 -0.0751 -0.4677
 4844W        W 8363   4.580   2.317   3.514 -0.2089  0.0866 -0.0921
 4845W        W 8364   2.909   7.338   2.934  0.2564 -0.0888  0.1861
 4846W        W 8365   2.762   9.017  11.655 -0.1212 -0.1680  0.0766
 4847W        W 8366   1.637   6.324   4.983  0.0701  0.0052  0.0558
 4848W        W 8367   9.079   7.341   0.157  0.1345  0.0227 -0.2269
 4849W        W 8368   0.329   7.702  11.648  0.1310 -0.0814 -0.2502
 4850W        W 8369   3.883   3.138   2.119  0.3016  0.2300  0.2303
 4851W        W 8370   3.274   2.556   8.148 -0.0478  0.0245 -0.1945
 4852W        W 8371   2.462   4.277  12.274  0.1291  0.1184  0.1678
 4853W        W 8372   6.637   9.396   9.719  0.0574  0.0327  0.3264
 4854W        W 8373   6.328   3.952  11.011 -0.1375  0.0110  0.0315
 4855W        W 8374   9.565   0.310   3.968  0.0657 -0.1358  0.1761
 4856W        W 8375   5.366   3.051   2.680 -0.2436 -0.0592  0.1179
 4857W        W 8376   7.096   3.634  10.300 -0.0686 -0.0387  0.0132
 4858W        W 8377   9.322   4.044  11.704 -0.3352 -0.0975 -0.0035
 4859W        W 8378   8.622   2.564   9.292 -0.2891 -0.1408  0.1150
 4860W        W 8379   8.717   3.919   7.941 -0.0190  0.0423  0.1941
 4861W        W 8380   0.184   3.173   0.018 -0.1262 -0.2160 -0.3189
 4862W        W 8381   0.715   6.672  10.109  0.3432  0.3107  0.1627
 4863W        W 8382   6.243   2.638  10.193 -0.2452  0.1530 -0.2287
 4864W        W 8383   8.481   4.318   2.865  0.1802 -0.0758 -0.1781
 4865W        W 8384   2.891   0.480  10.144  0.0638  0.1454 -0.0361
 4866W        W 8385   6.314   3.011  10.952  0.0402 -0.0161  0.0964
 4867W        W 8386   1.064   5.815   9.887  0.0085  0.2785  0.0719
 4868W        W 8387   8.188   6.556   8.369 -0.1492 -0.2751 -0.0584
 4869W        W 8388   7.286   4.091  10.122  0.2026 -0.1105  0.0890
 4870W        W 8389   0.931   4.246   9.183 -0.0932 -0.1292 -0.0333
 4871W        W 8390   9.604   3.811   1.287  0.3277  0.0227  0.1110
 4872W        W 8391   4.231   2.018   3.712  0.0529  0.0846 -0.3410
 4873W        W 8392   1.988   2.066   2.466  0.1871 -0.0050 -0.3090
 4874W        W 8393   1.549   8.856  10.180  0.1782 -0.1548 -0.2469
 4875W        W 8394   3.567   8.097   9.613  0.1143  0.2417 -0.0519
 4876W        W 8395   1.221   7.638   0.941 -0.0872 -0.2277  0.4775
 4877W        W 8396   8.374   2.573  10.474  0.0230 -0.0314  0.2831
 4878W        W 8397   8.429   4.442   9.655  0.0516  0.3434 -0.5192
 4879W        W 8398   3.457   2.909   1.914  0.1457  0.0324  0.2560
 4880W        W 8399   9.409   5.213  12.536  0.0069 -0.4033 -0.1689
 4881W        W 8400   0.252   4.621  12.055  0.0437  0.0386 -0.1839
 4882W        W 8401   6.363   1.967   3.615  0.0833  0.1200 -0.2677
 4883W        W 8402   3.307   8.016   0.366  0.1529 -0.0287 -0.0840
 4884W        W 8403   2.211   4.785  10.521  0.2180 -0.1290 -0.1998
 4885W        W 8404   8.828   2.358   4.434 -0.2951  0.0243  0.2270
 4886W        W 8405   4.982   8.344  10.728 -0.0051  0.0004 -0.0351
 4887W        W 8406   2.271   5.539  11.164 -0.2190 -0.0813 -0.1428
 4888W        W 8407   1.536   8.656  11.869  0.4287  0.2425  0.1544
 4889W        W 8408   2.434   9.185   1.779 -0.0335  0.2071  0.0469
 4890W        W 8409   0.770   6.899  10.742 -0.0771  0.2122  0.2057
 4891W        W 8410   5.348   9.312  11.888  0.1029 -0.2221  0.0415
 4892W        W 8411   6.394   7.135  12.507  0.4802 -0.1933 -0.0668
 4893W        W 8412   0.946   5.972  10.663  0.0047  0.0274 -0.1468
 4894W        W 8413   4.441   5.547  10.009  0.0320 -0.1324 -0.2267
 4895W        W 8414   4.649   9.008   3.011 -0.1904 -0.0294  0.1394
 4896W        W 8415   0.156   1.581   9.944  0.1583  0.1462 -0.1969
 4897W        W 8416   0.057   4.851   7.912  0.3180  0.0507  0.0004
 4898W        W 8417   2.686   9.246  12.192 -0.0901  0.1088  0.1657
 4899W        W 8418   5.760   4.152   0.726 -0.1558  0.1823  0.2399
 4900W        W 8419   5.178   0.099   2.199  0.1055 -0.0145 -0.1378
 4901W        W 8420   2.207   8.126  12.299 -0.2472  0.1309  0.2076
 4902W        W 8421   5.372   0.654   8.134  0.1461 -0.2893  0.1949
 4903W        W 8422   4.225   4.173  11.459  0.2036  0.0371 -0.0442
 4904W        W 8423   2.010   7.218   1.587  0.0073 -0.2155  0.1587
 4905W        W 8424   3.893   0.601   9.802  0.2993 -0.0871 -0.1724
 4906W        W 8425   3.011   0.639   3.151 -0.0550  0.0789  0.0341
 4907W        W 8426   4.539   1.975   4.707  0.0281  0.0564 -0.1848
 4908W        W 8427   3.385   4.102   8.493 -0.0742  0.2527  0.3957
 4909W        W 8428   6.103   4.728  10.328 -0.3882 -0.1019  0.2738
 4910W        W 8429   6.934   3.181  10.171 -0.2131  0.0052  0.2939
 4911W        W 8430   4.726   1.857   3.715 -0.1807 -0.1347 -0.2303
 4912W        W 8431   0.417   9.021  12.064 -0.1052  0.1543 -0.4797
 4913W        W 8432   8.123   6.334  11.602 -0.1348 -0.3347 -0.3129
 4914W        W 8433   3.255   5.965  12.158  0.4489 -0.1965  0.0988
 4915W        W 8434   2.114   4.847   3.189 -0.0894 -0.0328 -0.2906
 4916W        W 8435   6.774   4.704   3.584  0.1031 -0.0653 -0.0762
 4917W        W 8436   7.893   5.690   2.555  0.2802  0.0542  0.2012
 4918W        W 8437   4.854   8.425   2.195 -0.0274  0.1759  0.0363
 4919W        W 8438   2.436   9.286   2.813  0.0112 -0.2751  0.0419
 4920W        W 8439   0.866   3.443   9.295 -0.1904  0.0113 -0.0317
 4921W        W 8440   7.175   3.555   1.650 -0.2486  0.1140  0.0371
 4922W        W 8441   8.215   7.583  11.661 -0.3629 -0.0429 -0.0108
 4923W        W 8442   1.080   5.468   4.749  0.1714 -0.0475 -0.1598
 4924W        W 8443   2.662   6.321   2.060  0.2474  0.1455 -0.0809
 4925W        W 8444   1.928   3.457  12.144 -0.2845  0.1062  0.0226
 4926W        W 8445   3.483   3.477   1.226 -0.0345  0.2000  0.1889
 4927W        W 8446   7.431   5.619   3.506 -0.2593  0.3512 -0.0426
 4928W        W 8447   2.864   6.513   9.281 -0.1971  0.1855  0.3132
 4929W        W 8448   3.971   2.804  10.197  0.1817 -0.0012  0.0380
 4930W        W 8449   2.673   7.088  10.498 -0.3745 -0.0390 -0.2409
 4931W        W 8450   2.004   3.420   3.802  0.1518 -0.0766  0.0846
 4932W        W 8451   0.118   3.049   8.873 -0.2786  0.0368 -0.1642
 4933W        W 8452   1.060   3.084  11.229  0.1812  0.0968 -0.2099
 4934W        W 8453   4.744   6.407   8.780  0.2271 -0.0026 -0.1582
 4935W        W 8454   3.421   1.256  10.687  0.0993 -0.2836 -0.0858
 4936W        W 8455   2.188   2.885   2.162  0.1210 -0.1812 -0.2519
 4937W        W 8456   7.134   8.762   9.119  0.2253  0.1937  0.3035
 4938W        W 8457   3.314   3.533   9.845 -0.3464 -0.0408 -0.3131
 4939W        W 8458   2.968   0.400  11.366 -0.0217  0.0106  0.2865
 4940W        W 8459   5.819   0.935  12.120  0.1052 -0.1432 -0.1723
 4941W        W 8460   0.007   6.091  10.760  0.1109  0.0601  0.1529
 4942W        W 8461   0.664   4.514  11.175 -0.0291 -0.0629 -0.0940
 4943W        W 8462   6.116   6.333   4.171  0.0157  0.3031 -0.1127
 4944W        W 8463   1.136   5.339   9.876 -0.1454  0.1220 -0.2370
 4945W        W 8464   2.126   0.901   9.718 -0.1133  0.0141  0.2525
 4946W        W 8465   1.511   8.246   0.733  0.0560  0.1913  0.2831
 4947W        W 8466   8.088   5.411  11.766 -0.2914  0.0783  0.0437
 4948W        W 8467   3.856   5.001   8.976 -0.1599  0.2927 -0.2023
 4949W        W 8468   6.839   4.481  12.231  0.0198 -0.2590 -0.0301
 4950W        W 8469   2.889   7.042   1.841 -0.1472 -0.4049  0.3951
 4951W        W 8470   7.383   6.300   9.687 -0.1080 -0.0528 -0.2369
 4952W        W 8471   2.319   2.426   0.452 -0.4227 -0.0208  0.3031
 4953W        W 8472   9.134   3.711   1.956  0.1538  0.2385 -0.1134
 4954W        W 8473   8.761   3.065  11.828 -0.1395 -0.1084  0.1140
 4955W        W 8474   3.188   9.197  12.207  0.2279  0.1014  0.0564
 4956W        W 8475   3.875   9.441   9.537 -0.2108  0.3014  0.4231
 4957W        W 8476   3.814   6.884   1.077  0.1943  0.0772  0.1154
 4958W        W 8477   7.847   0.413  11.632  0.0955 -0.0958 -0.2284
 4959W        W 8478   0.532   1.551  10.577  0.1024  0.0553 -0.1562
 4960W        W 8479   4.017   8.656  10.612 -0.0107 -0.2345 -0.4970
 4961W        W 8480   6.208   8.200   0.520 -0.0030  0.2789 -0.0299
 4962W        W 8481   2.403   4.208   2.281 -0.1707 -0.2047 -0.0926
 4963W        W 8482   7.690   5.256   3.277 -0.1561 -0.0631  0.0098
 4964W        W 8483   6.188   2.169  10.461  0.1804  0.1447 -0.2999
 4965W        W 8484   1.452   1.326   0.902  0.0316  0.2168  0.0787
 4966W        W 8485   1.106   4.540   2.234  0.0926  0.5032 -0.2949
 4967W        W 8486   5.048   5.840  10.884 -0.1836  0.0167  0.1074
 4968W        W 8487   7.790   4.285   4.639 -0.3640 -0.0098 -0.2611
 4969W        W 8488   3.935   5.091  10.589  0.2009 -0.1515 -0.2565
 4970W        W 8489   4.221   2.833   8.500 -0.0214  0.2207  0.1604
 4971W        W 8490   8.052   3.858   0.111 -0.2800 -0.1301  0.2228
 4972W        W 8491   1.435   9.577   1.327  0.1856 -0.0636 -0.1157
 4973W        W 8492   7.694   8.716   1.370 -0.6184  0.1134 -0.0761
 4974W        W 8493   3.237   0.089   0.338  0.0089 -0.0618 -0.3464
 4975W        W 8494   1.063   0.537  10.260  0.3177 -0.0342 -0.0438
 4976W        W 8495   3.478   5.264   3.718  0.0763  0.1004 -0.2552
 4977W        W 8496   4.822   6.762   1.329 -0.0600 -0.2231 -0.0347
 4978W        W 8497   3.865   4.561  12.173  0.0601 -0.2719 -0.1524
 4979W        W 8498   8.310   7.431   9.683 -0.0475  0.0593 -0.2104
 4980W        W 8499   6.917   7.727  11.379  0.1174 -0.0198 -0.4247
 4981W        W 8500   8.036   9.279  11.180  0.1802  0.0426  0.3073
 4982W        W 8501   4.775   0.483   3.818 -0.0399  0.1642  0.4718
 4983W        W 8502   6.853   5.142   9.313 -0.1192  0.1173 -0.0882
 4984W        W 8503   0.055   1.068  11.717 -0.3324 -0.1147  0.1658
 4985W        W 8504   2.790   8.351   9.028  0.2681  0.0603  0.0898
 4986W        W 8505   6.774   5.550   0.668  0.1003  0.0457 -0.0688
 4987W        W 8506   9.474   4.010   2.165  0.2612  0.3871  0.4108
 4988W        W 8507   6.056   8.309   4.183  0.1542  0.2885  0.0958
 4989W        W 8508   2.086   6.434   9.344 -0.1353 -0.2220 -0.2275
 4990W        W 8509   1.601   8.276   0.117 -0.1598 -0.2063 -0.3889
 4991W        W 8510   1.943   8.180   1.892 -0.0204 -0.0963  0.0652
 4992W        W 8511   5.931   4.904   3.588  0.2662  0.3169  0.2393
 4993W        W 8512   5.206   4.183   1.326 -0.0694 -0.0849  0.0415
 4994W        W 8513   3.644   6.153   9.402 -0.0837  0.0491  0.3447
 4995W        W 8514   5.709   3.997   8.218 -0.2600 -0.0638 -0.0136
 4996W        W 8515   5.548   5.525   0.701 -0.4582 -0.1204 -0.4101
 4997W        W 8516   6.156   1.590   2.761 -0.0538  0.1072 -0.1638
 4998W        W 8517   8.922   8.274  11.223  0.0664 -0.1754  0.2810
 4999W        W 8518   7.113   1.823  12.474  0.4380  0.0437  0.0134
 5000W        W 8519   4.966   9.642  10.306 -0.2880 -0.2283  0.2229
 5001W        W 8520   3.342   0.281  10.217  0.4892 -0.0563 -0.1401
 5002W        W 8521   7.012   0.462   3.221 -0.0971 -0.2196  0.0558
 5003W        W 8522   6.088   1.794  10.075  0.0093 -0.0349 -0.2456
 5004W        W 8523   4.014   6.264  12.374 -0.0216 -0.0101 -0.0325
 5005W        W 8524   2.248   0.633  11.971 -0.1521  0.1470  0.2369
 5006W        W 8525   4.695   9.640   1.301  0.4786  0.1282 -0.0562
 5007W        W 8526   5.704   5.589   2.058 -0.0252 -0.2373 -0.1032
 5008W        W 8527   8.823   7.150   1.655 -0.3339  0.1727  0.0487
 5009W        W 8528   6.932   3.955   3.871  0.0746 -0.0818  0.0959
 5010W        W 8529   0.422   3.668   9.679 -0.0748 -0.1441 -0.0424
 5011W        W 8530   1.825   7.919   0.375  0.0895  0.1324  0.1730
 5012W        W 8531   3.410   3.266   2.206  0.0835 -0.1447 -0.0488
 5013W        W 8532   7.133   8.193  11.053 -0.1072  0.3781 -0.4223
 5014W        W 8533   6.782   3.323   1.837  0.0456 -0.0529  0.0349
 5015W        W 8534   4.194   6.787  10.786  0.3061  0.1114  0.0382
 5016W        W 8535   4.549   1.683   1.380 -0.2279  0.1740 -0.1919
 5017W        W 8536   3.586   8.562  10.938 -0.3955  0.0981 -0.1332
 5018W        W 8537   5.356   3.051   3.737  0.0877 -0.2378 -0.2666
 5019W        W 8538   6.091   7.494   1.942  0.2265  0.0397 -0.0098
 5020W        W 8539   2.472   5.180   3.424 -0.2473 -0.0756 -0.0792
 5021W        W 8540   3.097   3.809  10.161  0.0261 -0.1977 -0.1433
 5022W        W 8541   7.880   9.003   9.685 -0.0400  0.0968 -0.3864
 5023W        W 8542   8.005   9.169   9.218 -0.0181 -0.3514 -0.2328
 5024W        W 8543   2.255   6.307   9.786  0.2509 -0.1365  0.4373
 5025W        W 8544   4.376   0.432   8.834 -0.0513 -0.1245 -0.0842
 5026W        W 8545   5.250   1.782  11.099 -0.0890  0.0595 -0.0930
 5027W        W 8546   5.987   9.175   4.046 -0.1211  0.1878 -0.0238
 5028W        W 8547   6.173   2.610   9.196  0.0086  0.0611 -0.1609
 5029W        W 8548   5.585   5.142   1.898 -0.3188 -0.1197  0.0348
 5030W        W 8549   2.261   3.950   2.996  0.0984  0.2469 -0.1387
 5031W        W 8550   7.505   2.506   2.600  0.4827 -0.1560  0.2608
 5032W        W 8551   8.875   7.072   0.501  0.3477 -0.0187  0.0851
 5033W        W 8552   0.472   1.890   2.736  0.3879  0.3200  0.1249
 5034W        W 8553   4.178   3.803   9.483 -0.0412  0.2153  0.1231
 5035W        W 8554   0.119   6.615   9.047  0.2104 -0.3140  0.1926
 5036W        W 8555   4.003   8.823  12.465 -0.1572 -0.1531 -0.1394
 5037W        W 8556   3.896   7.259   2.778 -0.2554  0.0813 -0.0910
 5038W        W 8557   7.887   9.560   4.638 -0.1065  0.0217  0.2115
 5039W        W 8558   9.259   1.373   2.353  0.0604 -0.2073  0.1842
 5040W        W 8559   6.651   4.567   9.472  0.1959 -0.0351  0.1308
 5041W        W 8560   6.103   0.559   3.801  0.0757  0.2318  0.0366
 5042W        W 8561   2.530   2.927   1.783 -0.1978  0.0989  0.1432
 5043W        W 8562   1.483   3.347   8.332  0.1124  0.1159 -0.1730
 5044W        W 8563   7.167   0.608  10.923 -0.0193  0.1595  0.0559
 5045W        W 8564   1.794   4.258   3.272 -0.2547 -0.1210 -0.3161
 5046W        W 8565   2.871   4.597   0.032  0.4555 -0.0534 -0.0167
 5047W        W 8566   4.096   8.341   3.993 -0.0285  0.2516 -0.1756
 5048W        W 8567   3.799   5.751  11.323 -0.1894 -0.2093 -0.0940
 5049W        W 8568   7.397   6.546   3.542  0.0305  0.2572 -0.3152
 5050W        W 8569   1.401   2.710   1.369 -0.0708 -0.1850 -0.0827
 5051W        W 8570   8.978   2.504   9.739  0.1700 -0.0358 -0.0224
 5052W        W 8571   1.934   9.010  10.524  0.0118  0.1805  0.1962
 5053W        W 8572   7.002   6.137   9.894  0.0107  0.0766  0.1860
 5054W        W 8573   7.726   7.067  10.244  0.1685  0.0563 -0.0526
 5055W        W 8574   9.412   8.270   9.097  0.2462 -0.1025 -0.1851
 5056W        W 8575   7.949   7.944  11.462 -0.0082 -0.0136 -0.0552
 5057W        W 8576   5.587   2.510   2.403 -0.5209  0.3638  0.1003
 5058W        W 8577   1.615   9.080   8.770 -0.2222  0.1240  0.5361
 5059W        W 8578   0.725   6.164   2.534  0.3371  0.2768 -0.2050
 5060W        W 8579   1.758   7.250   3.977 -0.0943  0.0888 -0.0048
 5061W        W 8580   6.375   4.610   3.243  0.2474  0.2926  0.0450
 5062W        W 8581   5.965   0.466   9.212 -0.1383 -0.2628 -0.1858
 5063W        W 8582   6.029   6.500   8.878 -0.3330  0.0399 -0.2634
 5064W        W 8583   0.031   5.684   0.356  0.1284 -0.2203 -0.2232
 5065W        W 8584   2.832   3.987   0.244  0.1407 -0.0149 -0.0400
 5066W        W 8585   2.580   6.295  11.657  0.1922  0.1924  0.3022
 5067W        W 8586   0.554   0.084   2.665 -0.1527 -0.1119  0.0913
 5068W        W 8587   4.456   8.008   9.977 -0.1315  0.0348 -0.1846
 5069W        W 8588   6.874   8.810   2.984 -0.1016  0.4564 -0.1589
 5070W        W 8589   4.135   0.373   2.980 -0.0818 -0.2115 -0.2289
 5071W        W 8590   1.417   5.903  11.061 -0.1070  0.3028  0.2928
 5072W        W 8591   8.355   1.565  10.520  0.0071 -0.1375  0.0237
 5073W        W 8592   6.025   3.779  11.990 -0.3167 -0.2777  0.1483
 5074W        W 8593   5.758   2.781   4.322  0.1065 -0.0174 -0.0281
 5075W        W 8594   8.821   1.317   2.100 -0.2640  0.5832  0.2445
 5076W        W 8595   3.945   1.917  11.412  0.0220 -0.1157  0.2520
 5077W        W 8596   9.051   1.694   0.341  0.0224  0.2722 -0.2367
 5078W        W 8597   4.049   2.330   3.384 -0.3957 -0.2788  0.0530
 5079W        W 8598   4.824   2.803  12.392 -0.1316 -0.0967  0.1657
 5080W        W 8599   5.707   2.581   9.555 -0.0440  0.2768  0.1074
 5081W        W 8600   6.204   1.146   3.106  0.2170 -0.1876  0.1372
 5082W        W 8601   1.403   2.120   2.228 -0.2041 -0.2605 -0.4720
 5083W        W 8602   9.228   0.596   0.370 -0.3929  0.1111  0.0417
 5084W        W 8603   6.777   2.222  12.321  0.3348 -0.1957  0.0523
 5085W        W 8604   2.952   3.683   1.604  0.3471  0.0369  0.0645
 5086W        W 8605   8.605   2.563  12.538  0.0591 -0.3449 -0.0681
 5087W        W 8606   4.250   0.626   0.606  0.0142  0.0540  0.2045
 5088W        W 8607   7.926   7.287   9.408  0.2686 -0.1007  0.2655
 5089W        W 8608   7.125   0.762   9.544  0.0344 -0.0270 -0.4697
 5090W        W 8609   8.687   7.427   8.831 -0.0346 -0.0346 -0.3154
 5091W        W 8610   2.133   9.141   2.362 -0.0537 -0.1735 -0.0876
 5092W        W 8611   8.705   1.093   3.296 -0.0058 -0.2026 -0.1186
 5093W        W 8612   7.407   3.667   2.530  0.0703  0.2144  0.1406
 5094W        W 8613   2.495   4.937   1.679  0.0254  0.0911  0.0402
 5095W        W 8614   4.650   6.322  11.538  0.3384 -0.1637  0.0455
 5096W        W 8615   1.987   1.844   3.749  0.2750 -0.0364 -0.0018
 5097W        W 8616   8.375   0.010   4.314 -0.1657 -0.1424 -0.1422
 5098W        W 8617   0.542   8.346  11.013  0.0088 -0.0281 -0.3048
 5099W        W 8618   0.198   2.502   1.908  0.1291  0.0442 -0.2247
 5100W        W 8619   9.565   9.057  10.244  0.1089  0.2406  0.0780
 5101W        W 8620   1.769   7.408   2.919 -0.1396 -0.2602 -0.0773
 5102W        W 8621   8.588   2.583   3.247  0.1440  0.1978 -0.1014
 5103W        W 8622   5.271   1.991   2.131 -0.1474  0.3469 -0.2447
 5104W        W 8623   4.728   8.614  11.838  0.1134  0.0656  0.1594
 5105W        W 8624   5.530   3.435   3.379  0.2149  0.2473  0.0466
 5106W        W 8625   5.703   9.671   2.159  0.2346  0.0086 -0.1259
 5107W        W 8626   1.317   0.265   0.129 -0.1663  0.0003 -0.0745
 5108W        W 8627   7.071   6.353   2.413 -0.1001 -0.0047  0.2132
 5109W        W 8628   3.163   9.559  10.040 -0.0654  0.0359  0.1426
 5110W        W 8629   5.062   9.507   1.659  0.1075  0.0231  0.0149
 5111W        W 8630   6.324   5.062  12.478 -0.2983  0.0554 -0.0313
 5112W        W 8631   7.903   9.336   1.463 -0.0340 -0.1704  0.3242
 5113W        W 8632   9.603   7.223   2.382 -0.1607  0.4647 -0.3365
 5114W        W 8633   7.010   8.231   2.307 -0.1281 -0.3440  0.3468
 5115W        W 8634   3.001   3.240   8.129 -0.0437 -0.0461 -0.0203
 5116W        W 8635   9.167   4.958   0.308 -0.2473 -0.2264  0.0138
 5117W        W 8636   6.123   4.328   4.652 -0.2633  0.1111  0.1156
 5118W        W 8637   6.660   1.358   3.843 -0.0991 -0.2004 -0.1427
 5119W        W 8638   0.446   0.529  10.996  0.3133  0.2983 -0.0914
 5120W        W 8639   1.690   9.052   3.967 -0.3484  0.2241  0.0347
 5121W        W 8640   7.537   4.210  11.036  0.0063 -0.0773  0.0207
 5122W        W 8641   6.410   7.675  12.243 -0.3283 -0.0558 -0.0507
 5123W        W 8642   8.895   7.441  12.267 -0.3164  0.0683  0.1549
 5124W        W 8643   6.713   2.069   8.045  0.3312 -0.0627 -0.3565
 5125W        W 8644   5.391   9.675   1.289 -0.1363 -0.0629 -0.0327
 5126W        W 8645   6.093   2.674   2.080  0.0173 -0.2619 -0.0559
 5127W        W 8646   2.470   0.027   3.753 -0.0845  0.3156 -0.2392
 5128W        W 8647   7.253   2.679  12.064 -0.0036 -0.0069 -0.0948
 5129W        W 8648   5.440   6.899  11.929  0.3489 -0.1130  0.1360
 5130W        W 8649   2.535   2.355  11.166  0.1027 -0.1433  0.1168
 5131W        W 8650   3.832   5.546   3.496 -0.1483  0.2243 -0.1144
 5132W        W 8651   2.321   6.451   2.416  0.1897 -0.0963 -0.2606
 5133W        W 8652   7.009   9.234   8.834 -0.0925  0.0874  0.4907
 5134W        W 8653   6.765   8.724   2.384  0.0648 -0.0550  0.2792
 5135W        W 8654   6.027   3.238  12.020  0.1031  0.1939  0.2373
 5136W        W 8655   4.933   3.190  11.638 -0.1960 -0.0411 -0.0371
 5137W        W 8656   6.383   6.906   8.193 -0.3093 -0.0893  0.1694
 5138W        W 8657   6.671   5.424   4.042 -0.2886 -0.0623  0.2193
 5139W        W 8658   2.780   2.263  10.028  0.1784  0.1863  0.0300
 5140W        W 8659   0.207   2.775   1.479  0.2567 -0.1074 -0.0144
 5141W        W 8660   0.451   8.225   0.999 -0.0490  0.0037  0.0355
 5142W        W 8661   1.270   3.887   9.326 -0.0873  0.2044 -0.2480
 5143W        W 8662   1.031   7.805   2.648 -0.1628 -0.0821  0.0077
 5144W        W 8663   6.809   7.704   2.986  0.0580 -0.2928 -0.1952
 5145W        W 8664   5.473   5.425   9.228 -0.0561  0.0193  0.1824
 5146W        W 8665   1.670   2.022  11.532 -0.1845 -0.0209  0.1264
 5147W        W 8666   1.264   6.190   4.096  0.1164  0.1201 -0.3113
 5148W        W 8667   7.978   7.146  10.817 -0.0985 -0.2148 -0.0707
 5149W        W 8668   2.799   5.505   3.119  0.0439 -0.1196 -0.0444
 5150W        W 8669   1.147   6.793   4.062 -0.2588 -0.1096 -0.0190
 5151W        W 8670   8.193   2.704   3.022  0.2254  0.0504 -0.2066
 5152W        W 8671   8.603   3.808  12.552  0.1880  0.1452  0.3294
 5153W        W 8672   8.872   4.853   4.086  0.2799  0.2121 -0.2151
 5154W        W 8673   7.266   8.207   3.618  0.1497 -0.2151  0.1779
 5155W        W 8674   0.450   4.247   4.574 -0.2336  0.2612  0.0917
 5156W        W 8675   9.141   3.409   9.311  0.1395 -0.1069 -0.0141
 5157W        W 8676   8.345   6.298  10.709 -0.0289  0.0818  0.1965
 5158W        W 8677   7.291   6.979   4.583 -0.1429  0.2111 -0.0604
 5159W        W 8678   4.454   1.269  10.450 -0.0344 -0.0443  0.0540
 5160W        W 8679   8.695   7.871   9.664  0.2799 -0.1582 -0.0011
 5161W        W 8680   4.620   6.836   0.781  0.0076 -0.0425  0.0439
 5162W        W 8681   6.060   7.546   9.819 -0.1471 -0.0667 -0.1586
 5163W        W 8682   8.098   4.699   8.844 -0.2579 -0.0013 -0.2020
 5164W        W 8683   2.263   3.478   3.133  0.2214  0.0025 -0.0618
 5165W        W 8684   1.869   4.174   2.047  0.0511 -0.1248 -0.2451
 5166W        W 8685   6.103   3.559   3.993  0.2795  0.0209 -0.2159
 5167W        W 8686   9.214   9.559   1.536 -0.1367 -0.6188  0.1104
 5168W        W 8687   6.599   4.717  10.491  0.0779  0.0833  0.0728
 5169W        W 8688   8.318   8.429  10.768 -0.2451 -0.1496  0.1366
 5170W        W 8689   7.067   9.610   3.113  0.0731  0.0993 -0.1247
 5171W        W 8690   6.752   5.716  11.421 -0.2241  0.1302 -0.1205
 5172W        W 8691   7.541   7.620  10.232  0.2503  0.1637 -0.0197
 5173W        W 8692   2.596   7.295   2.465 -0.0468 -0.1408 -0.1598
 5174W        W 8693   4.411   1.302   0.881 -0.2852 -0.0733  0.0010
 5175W        W 8694   6.160   7.419  10.297  0.1602  0.1285 -0.1806
 5176W        W 8695   8.149   5.876   9.172  0.0912 -0.0983 -0.1492
 5177W        W 8696   4.551   6.007   9.133  0.0946 -0.2288  0.1393
 5178W        W 8697   5.553   2.169  11.306 -0.0309  0.0268  0.2195
 5179W        W 8698   2.944   4.661   1.800  0.2516 -0.1026 -0.1764
 5180W        W 8699   1.145   4.786  11.039  0.0119  0.0179 -0.3016
 5181W        W 8700   0.591   2.588   4.327 -0.1113 -0.0772  0.2761
 5182W        W 8701   1.589   1.941   2.870 -0.0220  0.0561 -0.3370
 5183W        W 8702   5.795   2.301   3.429  0.0396  0.1112  0.2779
 5184W        W 8703   1.210   4.638   0.163  0.1541 -0.2841  0.1534
 5185W        W 8704   8.875   0.194   2.156  0.0513  0.0162  0.1037
 5186W        W 8705   7.893   5.463  10.927  0.1713 -0.0249  0.2549
 5187W        W 8706   0.677   5.620  10.152  0.0725 -0.2028 -0.0878
 5188W        W 8707   7.857   5.873  10.540 -0.1619 -0.0324 -0.0841
 5189W        W 8708   0.869   3.805   2.904 -0.0244  0.0085 -0.0397
 5190W        W 8709   2.916   7.147  11.750  0.0884  0.2934  0.2711
 5191W        W 8710   1.239   0.757   1.059 -0.2257  0.0925 -0.2026
 5192W        W 8711   0.125   9.004   9.852 -0.2411 -0.0498  0.0285
 5193W        W 8712   5.185   9.569   3.759 -0.1574  0.1690 -0.2029
 5194W        W 8713   8.812   4.597   0.207 -0.0180 -0.0291 -0.0238
 5195W        W 8714   9.514   7.548   1.147  0.1158  0.3510  0.0738
 5196W        W 8715   8.841   8.370   2.045 -0.0462  0.2602 -0.1120
 5197W        W 8716   7.183   6.945   9.260 -0.3015  0.1781 -0.5056
 5198W        W 8717   9.552   5.598   2.453 -0.2684  0.1721  0.1069
 5199W        W 8718   1.014   8.924   0.111 -0.2808  0.0123 -0.2222
 5200W        W 8719   0.137   3.955  11.358  0.1069  0.0299 -0.3588
 5201W        W 8720   4.365   8.210   1.946  0.1195 -0.2817 -0.1079
 5202W        W 8721   6.076   2.145  10.985  0.4093  0.1722 -0.0198
 5203W        W 8722   1.609   4.741   1.386 -0.0186 -0.0729  0.0877
 5204W        W 8723   9.219   6.738  10.355  0.1408 -0.1856  0.2525
 5205W        W 8724   3.759   8.124   1.192  0.0141 -0.1619  0.2694
 5206W        W 8725   7.577   5.746   3.019 -0.1240  0.0601 -0.0023
 5207W        W 8726   5.664   3.396   1.978  0.1735  0.0782  0.3400
 5208W        W 8727   3.381   5.200   2.519  0.0242 -0.0818 -0.1605
 5209W        W 8728   4.956   9.125   3.861  0.1071 -0.1175  0.0650
 5210W        W 8729   4.862   5.134  10.064 -0.2756 -0.1903  0.1122
 5211W        W 8730   6.967   1.936   3.032 -0.1874 -0.1614  0.0263
 5212W        W 8731   6.810   3.481  11.560  0.0732 -0.2356 -0.2354
 5213W        W 8732   6.192   8.224   2.556  0.3809 -0.1807  0.0205
 5214W        W 8733   1.597   1.989   4.131 -0.0658  0.0241  0.1175
 5215W        W 8734   6.489   9.430   8.853 -0.1818 -0.0339  0.1756
 5216W        W 8735   2.429   1.836   2.955 -0.1141 -0.1759 -0.0389
 5217W        W 8736   1.220   7.073  10.394  0.0477 -0.3602  0.0997
 5218W        W 8737   3.908   8.899   3.873 -0.3198  0.1821  0.1287
 5219W        W 8738   3.702   2.500  10.500 -0.0608  0.1416  0.1008
 5220W        W 8739   8.792   2.153   2.804  0.1471 -0.0243  0.0756
 5221W        W 8740   0.141   9.025   1.163 -0.0349 -0.1293 -0.1259
 5222W        W 8741   4.480   6.953   1.703 -0.0478 -0.2834  0.1971
 5223W        W 8742   1.557   2.798  10.643  0.0962 -0.2600  0.2175
 5224W        W 8743   5.848   8.512  12.402 -0.2722  0.0074  0.0192
 5225W        W 8744   6.244   0.137   2.342  0.1677  0.2248  0.1576
 5226W        W 8745   0.341   7.967  10.767 -0.1648 -0.0316  0.0918
 5227W        W 8746   4.267   4.921   1.977 -0.0663  0.1395 -0.1421
 5228W        W 8747   0.261   4.786   1.275 -0.2488 -0.1817 -0.0629
 5229W        W 8748   9.520   5.092   2.038 -0.2825 -0.1659 -0.0365
 5230W        W 8749   5.517   3.287   0.815  0.2246 -0.0188  0.0089
 5231W        W 8750   5.027   1.904   1.232  0.0426 -0.0199 -0.1664
 5232W        W 8751   9.358   2.241  12.106  0.1179 -0.5409  0.1441
 5233W        W 8752   1.735   3.529   1.722  0.0975  0.3164  0.3197
 5234W        W 8753   5.297   7.771  10.368  0.1445  0.1101 -0.0519
 5235W        W 8754   3.139   8.604  11.845 -0.2609 -0.1839 -0.0468
 5236W        W 8755   1.972   9.220   0.386 -0.0398  0.1084  0.0122
 5237W        W 8756   3.165   5.287   9.529  0.3658  0.0182 -0.1043
 5238W        W 8757   4.690   6.884   0.130  0.0681  0.2264  0.2878
 5239W        W 8758   1.119   2.440  11.986  0.0004 -0.0825  0.1674
 5240W        W 8759   1.782   8.304   9.714  0.0136  0.1167  0.1793
 5241W        W 8760   0.984   9.460   1.490  0.1505 -0.2918 -0.3116
 5242W        W 8761   9.092   9.196   0.552  0.1374  0.0290 -0.2425
 5243W        W 8762   5.678   5.834   3.021 -0.1010  0.0632  0.1638
 5244W        W 8763   6.666   8.457  10.302 -0.2499 -0.2698 -0.1460
 5245W        W 8764   1.515   3.836   3.338  0.1175  0.1700 -0.0064
 5246W        W 8765   1.333   8.635  12.394 -0.1092  0.2337 -0.1946
 5247W        W 8766   5.469   0.173  11.750  0.0842 -0.1180 -0.1140
 5248W        W 8767   9.616   5.355  11.757  0.1093  0.2092  0.1129
 5249W        W 8768   5.189   8.922   0.901 -0.3981  0.0577 -0.2378
 5250W        W 8769   3.441   0.960   2.533 -0.0115  0.0434 -0.1880
 5251W        W 8770   5.863   4.777   0.138  0.1757 -0.2486  0.0590
 5252W        W 8771   7.328   7.055   8.514  0.2382 -0.1366  0.0255
 5253W        W 8772   6.586   0.302   8.530 -0.0390 -0.1318 -0.0311
 5254W        W 8773   2.061   6.671   3.694  0.0214 -0.1199  0.0384
 5255W        W 8774   1.347   2.695  11.134  0.0224  0.0566  0.0791
 5256W        W 8775   6.318   6.566  11.109  0.0825 -0.0648 -0.1193
 5257W        W 8776   3.023   5.560   2.639  0.0266 -0.1261 -0.2139
 5258W        W 8777   9.566   8.726   1.498  0.3102 -0.0194 -0.0275
 5259W        W 8778   3.750   0.785   0.761 -0.0171  0.0021 -0.2090
 5260W        W 8779   6.164   6.462   0.799 -0.0459 -0.0893  0.1766
 5261W        W 8780   3.537   7.679   2.774 -0.1281 -0.1900 -0.1703
 5262W        W 8781   8.789   5.717   8.623 -0.2405 -0.0705  0.0658
 5263W        W 8782   4.889   7.431  10.900 -0.2387 -0.0014 -0.2701
 5264W        W 8783   9.600   3.056   9.330  0.3166 -0.0498 -0.0885
 5265W        W 8784   4.220   8.863   2.731 -0.0718  0.0425  0.0084
 5266W        W 8785   0.493   8.120   1.594 -0.2585  0.0294  0.2757
 5267W        W 8786   7.037   9.378  10.654 -0.0492 -0.1876 -0.3839
 5268W        W 8787   1.022   3.228   3.610  0.1327 -0.3208  0.1551
 5269W        W 8788   9.293   6.526   1.412  0.0118  0.0868  0.1297
 5270W        W 8789   4.130   9.524   1.896  0.0090  0.0239 -0.2271
 5271W        W 8790   2.784   3.698   9.681 -0.1357 -0.0416 -0.1894
 5272W        W 8791   5.636   7.024   3.134  0.2274  0.4975 -0.0817
 5273W        W 8792   3.428   9.600   3.658 -0.1221  0.0147  0.0659
 5274W        W 8793   7.572   0.181  11.983 -0.0648 -0.1649  0.1684
 5275W        W 8794   0.710   7.264  10.323  0.0480 -0.1701  0.0354
 5276W        W 8795   5.437   4.765   8.610 -0.1814  0.1541  0.1924
 5277W        W 8796   4.719   3.792  10.966  0.2659 -0.0606 -0.2816
 5278W        W 8797   7.580   4.264   9.423 -0.0219 -0.0931 -0.1667
 5279W        W 8798   5.700   1.356   8.869 -0.1117  0.1280 -0.2547
 5280W        W 8799   8.582   7.449   1.303 -0.0616 -0.0769  0.0484
 5281W        W 8800   8.901   6.967   8.731 -0.3827 -0.1789  0.0532
 5282W        W 8801   5.638   4.983  11.806 -0.1300  0.3323  0.0227
 5283W        W 8802   3.135   7.926   8.830  0.0094  0.0305 -0.0571
 5284W        W 8803   1.248   7.234   3.713  0.2753 -0.1315  0.1230
 5285W        W 8804   5.129   9.302   1.216 -0.1604  0.1318  0.4585
 5286W        W 8805   5.214   5.552   3.624 -0.1159 -0.1220  0.0211
 5287W        W 8806   0.888   9.489   2.904  0.1640  0.0895  0.2643
 5288W        W 8807   0.105   3.673   2.368 -0.0376 -0.1063 -0.0310
 5289W        W 8808   4.381   9.200   3.605  0.1309  0.3298 -0.1475
 5290W        W 8809   7.566   4.898   1.519 -0.0301 -0.1260 -0.3482
 5291W        W 8810   1.884   4.273   9.541  0.1926 -0.0826  0.0894
 5292W        W 8811   3.873   2.443  12.350 -0.5414  0.1122  0.0031
 5293W        W 8812   4.632   3.601   0.183 -0.0562  0.2787  0.2016
 5294W        W 8813   1.467   8.327  11.071 -0.1457  0.0387  0.0572
 5295W        W 8814   1.667   2.777   0.186  0.0480  0.1103  0.1060
 5296W        W 8815   2.951   7.160   1.261  0.1215 -0.0564  0.0070
 5297W        W 8816   5.642   0.031   0.114  0.1478  0.0316 -0.1884
 5298W        W 8817   2.867   2.648   8.405 -0.2815 -0.1042 -0.0287
 5299W        W 8818   6.120   7.429   8.754 -0.0400  0.2838  0.1100
 5300W        W 8819   3.672   0.015   1.217  0.1356 -0.1330 -0.2632
 5301W        W 8820   5.539   3.400  11.088  0.2141 -0.2598 -0.2412
 5302W        W 8821   1.102   5.527  12.032  0.1468 -0.1346  0.0101
 5303W        W 8822   4.090   1.092  11.885  0.1462  0.1371 -0.1473
 5304W        W 8823   0.035   4.386   4.321 -0.0232  0.0495  0.0761
 5305W        W 8824   0.344   4.802   2.233  0.1423 -0.0608  0.0735
 5306W        W 8825   2.610   3.805   3.304  0.1034  0.0714 -0.0907
 5307W        W 8826   3.491   1.684   2.937 -0.0071  0.1059  0.1081
 5308W        W 8827   3.691   4.361   1.662 -0.2191 -0.0349  0.1801
 5309W        W 8828   7.233   3.387   3.264 -0.0696  0.0944  0.2741
 5310W        W 8829   2.880   4.840  11.102 -0.1929  0.0179  0.2756
 5311W        W 8830   5.979   7.381   3.070  0.2506 -0.1248 -0.1738
 5312W        W 8831   4.818   8.953   4.344 -0.1779 -0.0937  0.1509
 5313W        W 8832   7.657   6.114   1.034 -0.2330 -0.0636 -0.0771
 5314W        W 8833   7.278   0.049  10.221  0.0461  0.2380 -0.2325
 5315W        W 8834   1.944   8.086  11.303 -0.1704 -0.0783  0.4046
 5316W        W 8835   5.493   9.098   2.997  0.0319 -0.3008  0.1361
 5317W        W 8836   1.247   0.613  12.256 -0.0337  0.2110  0.0750
 5318W        W 8837   8.001   1.024  11.017  0.0036 -0.1567 -0.0091
 5319W        W 8838   8.613   5.463   2.032  0.1847  0.2638  0.1210
 5320W        W 8839   0.079   6.969  12.193 -0.1627  0.1374 -0.2649
 5321W        W 8840   5.301   2.857   9.559  0.1100  0.1252  0.1533
 5322W        W 8841   7.336   1.090  11.700 -0.0885  0.0360  0.1767
 5323W        W 8842   3.655   7.325   2.278 -0.3212  0.5177  0.1647
 5324W        W 8843   7.822   9.385  12.000 -0.1071  0.1078  0.1631
 5325W        W 8844   0.061   7.472   1.937 -0.2247 -0.1792 -0.0147
 5326W        W 8845   0.544   8.871  10.723  0.1247  0.0677 -0.2846
 5327W        W 8846   1.423   8.751  10.653  0.1086  0.2682  0.0740
 5328W        W 8847   5.534   7.694  11.279  0.1388 -0.0081  0.1093
 5329W        W 8848   0.410   4.521   9.052 -0.0057  0.2619 -0.1767
 5330W        W 8849   3.403   9.633   9.444  0.2092 -0.1316 -0.2196
 5331W        W 8850   2.950   2.568  10.966 -0.0515  0.0375  0.0087
 5332W        W 8851   3.940   2.488  10.954  0.0168 -0.0532  0.2303
 5333W        W 8852   3.205   8.891  10.752 -0.2152  0.0041 -0.1405
 5334W        W 8853   2.408   5.529  11.633  0.0789 -0.2762  0.0239
 5335W        W 8854   6.748   1.607   1.752  0.0741 -0.0631 -0.1491
 5336W        W 8855   6.643   4.144   8.944 -0.3488 -0.2254 -0.1340
 5337W        W 8856   1.634   1.739   9.898 -0.0832 -0.1052  0.0586
 5338W        W 8857   2.988   8.247   3.144  0.0080  0.0863 -0.4109
 5339W        W 8858   2.173   2.540   2.625 -0.0493 -0.0186  0.2531
 5340W        W 8859   3.255   0.736   0.730 -0.2348  0.0278  0.3091
 5341W        W 8860   6.874   5.640   3.593 -0.2569  0.0398  0.0548
 5342W        W 8861   8.882   3.049   1.634 -0.0565 -0.0823 -0.2730
 5343W        W 8862   5.466   9.397   0.712 -0.0989  0.4284  0.1308
 5344W        W 8863   7.508   1.796   8.748  0.0186  0.3872  0.2350
 5345W        W 8864   4.633   9.572   3.050  0.1329  0.0498  0.1058
 5346W        W 8865   0.095   4.293   1.356  0.0703 -0.1534 -0.0897
 5347W        W 8866   1.833   7.233   8.861  0.2099  0.0159  0.2534
 5348W        W 8867   8.442   9.663  10.431 -0.0014 -0.3005 -0.1553
 5349W        W 8868   7.388   3.242  12.294 -0.1664 -0.1969 -0.0258
 5350W        W 8869   4.314   9.108   9.799 -0.0662  0.1022 -0.0917
 5351W        W 8870   0.207   1.129  10.232 -0.0754 -0.2597  0.1305
 5352W        W 8871   4.971   3.452   3.681 -0.1734 -0.4439  0.2440
 5353W        W 8872   5.866   6.606  12.025  0.0907 -0.0950  0.3974
 5354W        W 8873   5.224   3.961   4.644 -0.0953  0.0630 -0.2712
 5355W        W 8874   6.098   3.788   2.246  0.1204  0.1973  0.3204
 5356W        W 8875   5.519   3.898  12.289  0.0787 -0.1352  0.1809
 5357W        W 8876   2.735   5.873  11.308  0.1581  0.2641 -0.2407
 5358W        W 8877   2.547   5.457   0.163 -0.2123 -0.1539 -0.3735
 5359W        W 8878   3.602   3.708   9.293  0.2199  0.0571  0.0740
 5360W        W 8879   6.371   7.594   3.577 -0.0419  0.1247  0.2137
 5361W        W 8880   2.730   3.814   2.402 -0.0371  0.0373  0.1188
 5362W        W 8881   0.186   1.278   0.368 -0.0685 -0.0038  0.0403
 5363W        W 8882   0.756   3.720  12.372  0.1984 -0.1930 -0.0794
 5364W        W 8883   9.584   6.589   0.115  0.0160 -0.0593 -0.0169
 5365W        W 8884   3.234   9.216   4.457 -0.0450  0.1334 -0.0951
 5366W        W 8885   5.281   4.179   0.687  0.1572  0.0487  0.1016
 5367W        W 8886   2.255   0.148   0.282 -0.1588  0.1024 -0.1821
 5368W        W 8887   8.386   9.646   0.268 -0.1914 -0.0884  0.2182
 5369W        W 8888   2.978   3.160   9.802  0.0111 -0.4068  0.2428
 5370W        W 8889   1.932   7.665   1.819 -0.0986  0.0493 -0.0576
 5371W        W 8890   6.655   3.249   3.260 -0.1132  0.1035 -0.0263
 5372W        W 8891   0.829   8.302  12.417 -0.2626  0.4999  0.2541
 5373W        W 8892   4.350   5.554   1.271  0.2511  0.1418 -0.6291
 5374W        W 8893   2.661   0.666   3.654 -0.0525 -0.0111  0.1423
 5375W        W 8894   6.377   6.138   1.690 -0.0721 -0.0438 -0.0726
 5376W        W 8895   0.262   5.118   3.768  0.2143  0.0112 -0.0785
 5377W        W 8896   3.209   1.482  11.098  0.0161  0.1496 -0.1668
 5378W        W 8897   3.387   0.474   3.423 -0.0691  0.5512  0.5003
 5379W        W 8898   2.296   8.791   1.093 -0.2901  0.2541  0.1686
 5380W        W 8899   7.613   2.237  11.751 -0.1195 -0.2623  0.3353
 5381W        W 8900   5.027   0.170   2.944  0.2729 -0.2101 -0.2868
 5382W        W 8901   6.353   5.312   0.731 -0.1746 -0.1710  0.1499
 5383W        W 8902   1.297   3.175   2.395  0.1384 -0.0214  0.0285
 5384W        W 8903   3.282   8.075  10.238 -0.1592 -0.0992  0.0640
 5385W        W 8904   9.150   0.274  11.277  0.1577 -0.0435  0.1839
 5386W        W 8905   1.162   4.199   3.240  0.0725  0.0594 -0.0690
 5387W        W 8906   8.076   9.124   3.575 -0.0658 -0.0152 -0.2336
 5388W        W 8907   4.315   8.728  11.006 -0.2360 -0.0902  0.0622
 5389W        W 8908   6.926   0.290  10.520  0.1130  0.1917 -0.1556
 5390W        W 8909   7.784   0.000   1.103  0.1595 -0.1269  0.1071
 5391W        W 8910   1.866   3.378   2.398  0.4232  0.3102 -0.1200
 5392W        W 8911   3.313   1.730   2.114 -0.4073 -0.1559 -0.0136
 5393W        W 8912   2.741   2.861  11.850  0.0106 -0.0439  0.0844
 5394W        W 8913   6.756   1.983   9.922  0.0858  0.1587  0.3155
 5395W        W 8914   5.432   1.555   0.970  0.1315  0.2206 -0.2188
 5396W        W 8915   3.122   3.888   1.099  0.0126 -0.1333 -0.0069
 5397W        W 8916   8.505   3.602   9.593 -0.0368  0.0751 -0.0071
 5398W        W 8917   5.973   8.365  11.017 -0.3022  0.2601  0.1285
 5399W        W 8918   4.602   3.237   3.383 -0.0391 -0.1986 -0.0383
 5400W        W 8919   6.543   7.956  11.690 -0.4474  0.2865 -0.2407
 5401W        W 8920   9.505   4.497  11.610 -0.0096  0.1553  0.1761
 5402W        W 8921   0.838   2.302  10.019  0.1078 -0.0668  0.1385
 5403W        W 8922   6.618   3.124   0.896  0.4099  0.1213 -0.0284
 5404W        W 8923   9.109   3.203   2.127 -0.2579  0.2484  0.0720
 5405W        W 8924   0.302   5.611  11.931 -0.0239 -0.0819 -0.0385
 5406W        W 8925   5.603   7.485   9.560  0.0608 -0.1199  0.0455
 5407W        W 8926   4.621   0.933  10.060  0.0042  0.0695  0.0044
 5408W        W 8927   8.077   6.099   2.834 -0.0724 -0.1237 -0.0305
 5409W        W 8928   0.158   2.412  12.052 -0.0340  0.4101  0.0629
 5410W        W 8929   5.829   6.931  11.560  0.1786 -0.2810 -0.0898
 5411W        W 8930   8.806   8.249   1.196 -0.1896 -0.1172  0.0932
 5412W        W 8931   6.532   0.963   0.381 -0.0667 -0.0034  0.3529
 5413W        W 8932   2.509   6.770  10.138 -0.2379  0.4281  0.1466
 5414W        W 8933   7.114   0.103  12.278  0.1907  0.2083 -0.0279
 5415W        W 8934   1.893   1.195  11.021 -0.3976 -0.0153  0.1676
 5416W        W 8935   7.038   3.994  12.210 -0.1440 -0.0405 -0.0767
 5417W        W 8936   9.631   9.497  11.306  0.0001 -0.1324 -0.3255
 5418W        W 8937   1.436   3.964   0.997 -0.0708 -0.0217  0.2998
 5419W        W 8938   1.617   4.619   3.022  0.0968 -0.0380  0.0918
 5420W        W 8939   8.442   1.721  11.938 -0.2113 -0.0789  0.0423
 5421W        W 8940   2.952   0.684   0.356 -0.2783  0.1828 -0.0323
 5422W        W 8941   2.320   1.443   0.337  0.0134  0.0697  0.3839
 5423W        W 8942   4.502   9.338  10.162  0.1985 -0.2694  0.0544
 5424W        W 8943   3.110   5.030   0.712 -0.1100 -0.4587 -0.0175
 5425W        W 8944   9.641   3.235  11.059  0.0433  0.4195  0.0820
 5426W        W 8945   0.397   2.033  10.324 -0.0741 -0.1038 -0.0307
 5427W        W 8946   3.412   5.989   1.260  0.0299 -0.4443  0.1994
 5428W        W 8947   1.758   2.365  10.516 -0.0306 -0.3206  0.1089
 5429W        W 8948   8.823   6.145  10.873  0.3255  0.3926 -0.0705
 5430W        W 8949   1.016   6.439   1.608 -0.1812 -0.1108 -0.2025
 5431W        W 8950   4.240   8.199  11.853 -0.1733 -0.0214 -0.2149
 5432W        W 8951   0.177   4.936   0.792 -0.3389 -0.3198  0.1407
 5433W        W 8952   6.659   5.996   3.205 -0.0816  0.0206 -0.0561
 5434W        W 8953   7.786   6.308   1.791  0.1270  0.0701 -0.4126
 5435W        W 8954   1.601   3.974  12.032  0.2228  0.1416  0.0551
 5436W        W 8955   8.178   5.635   2.993  0.2422 -0.0569 -0.2856
 5437W        W 8956   5.140   7.566   2.658  0.0527  0.1167  0.2901
 5438W        W 8957   2.234   7.614   2.609 -0.1291 -0.1753  0.4669
 5439W        W 8958   7.201   1.794   2.580  0.0899 -0.0683  0.0731
 5440W        W 8959   8.267   0.804   3.304 -0.2518 -0.2974  0.0050
 5441W        W 8960   6.426   8.450   1.335 -0.3655 -0.2283  0.2904
 5442W        W 8961   5.845   6.254  11.122 -0.1415 -0.1004  0.2679
 5443W        W 8962   3.654   5.212   1.507 -0.0047 -0.0067  0.0516
 5444W        W 8963   7.224   7.079  12.095  0.0473 -0.0281  0.3173
 5445W        W 8964   8.932   3.411   0.663  0.0825 -0.1375  0.0527
 5446W        W 8965   7.420   8.709  12.155 -0.4137 -0.0772 -0.0134
 5447W        W 8966   4.885   1.082   3.015 -0.0664  0.3965 -0.0225
 5448W        W 8967   6.526   8.332   2.246  0.1325 -0.0266  0.0279
 5449W        W 8968   8.318   2.140   3.009  0.1523  0.5128 -0.2163
 5450W        W 8969   5.383   6.137   1.979  0.1498 -0.3867  0.3368
 5451W        W 8970   6.789   8.443   9.230 -0.0039  0.2436 -0.0958
 5452W        W 8971   5.280   3.305  10.603 -0.2551  0.0607  0.0580
 5453W        W 8972   5.853   4.966   1.251 -0.0333  0.0317 -0.0111
 5454W        W 8973   8.558   4.136   1.683 -0.0312  0.0284 -0.0889
 5455W        W 8974   7.588   1.488   0.877  0.1817  0.0931 -0.1028
 5456W        W 8975   6.626   9.230  11.138 -0.3945 -0.0807 -0.0624
 5457W        W 8976   0.146   8.657   3.495  0.1832 -0.0193 -0.3143
 5458W        W 8977   6.376   7.735   0.727  0.1264  0.2142 -0.0760
 5459W        W 8978   0.910   5.434   1.929  0.2404 -0.2546 -0.0618
 5460W        W 8979   7.222   4.876  12.215  0.1359  0.5768  0.1884
 5461W        W 8980   7.869   1.636  11.878 -0.0477 -0.1343  0.3378
 5462W        W 8981   8.417   4.859   9.383  0.1666 -0.4270 -0.0869
 5463W        W 8982   8.284   6.137   8.757 -0.1447 -0.0280  0.1480
 5464W        W 8983   9.156   6.770   0.993 -0.1400  0.0008  0.0865
 5465W        W 8984   6.026   4.402   4.165 -0.1744  0.0506  0.0068
 5466W        W 8985   5.299   1.257   2.838  0.0119 -0.2721 -0.2126
 5467W        W 8986   7.430   6.336   7.953 -0.2698  0.1396  0.2818
 5468W        W 8987   1.976   3.179   0.968  0.3139  0.4390 -0.2036
 5469W        W 8988   5.703   8.695   0.987  0.0240 -0.2325 -0.2513
 5470W        W 8989   4.511   8.364  10.689  0.0351 -0.0305 -0.1312
 5471W        W 8990   5.438   5.887   1.545  0.0145  0.0994  0.0596
 5472W        W 8991   6.340   8.714   1.784 -0.0165  0.1002 -0.0691
 5473W        W 8992   8.493   4.722  10.965  0.0991 -0.2992  0.1717
 5474W        W 8993   9.396   3.809   8.737 -0.2014 -0.1439  0.1488
 5475W        W 8994   2.925   1.852   0.254 -0.1440  0.3451  0.1022
 5476W        W 8995   2.125   8.482   2.948  0.0387  0.1550  0.0927
 5477W        W 8996   0.717   7.569   0.835  0.0378 -0.1823 -0.2245
 5478W        W 8997   9.162   5.466  11.468 -0.3801 -0.0263 -0.0536
 5479W        W 8998   6.461   7.266   3.140  0.0006 -0.0052 -0.2218
 5480W        W 8999   4.313   2.108  11.090  0.0447  0.4315  0.0236
 5481W        W 9000   0.981   1.371   9.929 -0.0952 -0.2313 -0.1859
 5482W        W 9001   6.721   1.802   9.461  0.2291  0.3447  0.1579
 5483W        W 9002   3.011   9.034   4.058 -0.0373 -0.0434  0.0499
 5484W        W 9003   4.715   8.198  12.082 -0.0092 -0.2924  0.1936
 5485W        W 9004   2.106   2.230  11.318  0.2049 -0.2704  0.4761
 5486W        W 9005   1.076   1.689   2.265  0.1323 -0.0690  0.1417
 5487W        W 9006   2.135   4.675   0.488  0.0848  0.3484  0.0661
 5488W        W 9007   8.824   2.064   1.383  0.0211 -0.1686 -0.3652
 5489W        W 9008   3.842   1.511   9.329  0.1491 -0.2761 -0.3182
 5490W        W 9009   4.309   2.543  10.610 -0.1223  0.1144 -0.2390
 5491W        W 9010   2.112   7.519   3.258  0.0557  0.1240  0.0771
 5492W        W 9011   4.296   5.526   4.865  0.1684  0.0118 -0.1793
 5493W        W 9012   5.246   5.542   1.122  0.0570 -0.0979 -0.3038
 5494W        W 9013   7.087   4.405   9.192 -0.4268  0.0342 -0.3470
 5495W        W 9014   2.820   3.692   0.728  0.2139  0.0939 -0.1442
 5496W        W 9015   6.235   0.358  10.700  0.0015  0.0313 -0.0036
 5497W        W 9016   6.451   1.066   4.610  0.0023 -0.0394 -0.1572
 5498W        W 9017   1.575   5.740  10.600 -0.3726  0.2714 -0.2352
 5499W        W 9018   9.629   0.352   9.772  0.2238  0.0859 -0.1741
 5500W        W 9019   4.125   9.551   9.938  0.0718 -0.0273  0.0549
 5501W        W 9020   8.419   3.216   0.731  0.1257  0.0783 -0.2315
 5502W        W 9021   1.093   8.702  11.606 -0.1040 -0.0185 -0.0841
 5503W        W 9022   3.396   8.359  12.243 -0.0523 -0.1683 -0.1536
 5504W        W 9023   7.878   0.084   0.136 -0.1645  0.4593  0.0077
 5505W        W 9024   0.748   9.059  11.709 -0.2493 -0.2682  0.1508
 5506W        W 9025   8.163   3.199   0.270  0.0305  0.1194 -0.2071
 5507W        W 9026   0.885   7.282   3.052 -0.0033 -0.1591 -0.0434
 5508W        W 9027   3.741   1.491   1.989 -0.4475 -0.1019  0.2745
 5509W        W 9028   1.313   2.922  11.988  0.2934 -0.0463 -0.4217
 5510W        W 9029   0.381   2.135   3.166  0.1362  0.0660 -0.2611
 5511W        W 9030   9.052   7.269   1.063  0.1946  0.2327 -0.0789
 5512W        W 9031   1.406   1.407   2.015 -0.1213  0.0180  0.0478
 5513W        W 9032   8.638   5.987   2.117  0.0989 -0.1746  0.0468
 5514W        W 9033   6.975   9.268   1.175 -0.1394 -0.2183  0.2274
 5515W        W 9034   9.421   5.893   3.355  0.5450 -0.2264  0.3105
 5516W        W 9035   8.918   4.190   1.998 -0.0789  0.0651 -0.0730
 5517W        W 9036   0.205   6.410   3.240  0.2835 -0.1111  0.0701
 5518W        W 9037   5.161   9.393   4.263 -0.3619  0.1764  0.1131
 5519W        W 9038   5.526   5.987   8.058 -0.2405  0.2287  0.3302
 5520W        W 9039   2.724   2.172  10.570  0.3486  0.0434  0.1158
 5521W        W 9040   6.340   0.803  11.955 -0.0020  0.1029 -0.0284
 5522W        W 9041   1.617   3.436  11.731 -0.0553 -0.0918  0.3192
 5523W        W 9042   6.731   7.405   2.140  0.1491 -0.0985 -0.2438
 5524W        W 9043   8.421   7.233  10.599 -0.4115  0.1639  0.2127
 5525W        W 9044   4.809   7.216   0.510 -0.0208 -0.0238 -0.2338
 5526W        W 9045   8.487   6.148   1.252  0.0193  0.1947  0.0317
 5527W        W 9046   2.437   0.753   1.749  0.0039  0.0698  0.0385
 5528W        W 9047   0.718   8.787  11.170  0.2017 -0.0830  0.1544
 5529W        W 9048   6.635   2.640  12.149  0.1365  0.1821  0.2265
 5530W        W 9049   6.924   2.169   0.268  0.2911 -0.0454  0.1573
 5531W        W 9050   6.269   5.579   3.746  0.3999  0.4460  0.1176
 5532W        W 9051   1.937   5.967   3.000  0.0686 -0.2482  0.0368
 5533W        W 9052   0.526   3.619  11.330 -0.0695  0.2062  0.1063
 5534W        W 9053   9.093   9.155   2.642  0.4115  0.0545  0.1561
 5535W        W 9054   9.065   6.981   8.236 -0.1465 -0.1967 -0.0775
 5536W        W 9055   1.000   4.107   0.052  0.1689 -0.0044 -0.1005
 5537W        W 9056   5.179   5.363  10.885  0.3076 -0.3104 -0.1283
 5538W        W 9057   2.114   5.021  11.014  0.0710 -0.3570 -0.1843
 5539W        W 9058   8.652   0.386  10.023  0.0983 -0.3124 -0.3270
 5540W        W 9059   2.394   6.526   1.726  0.2955 -0.0653  0.2565
 5541W        W 9060   8.461   9.042  12.321  0.1761  0.0878  0.0199
 5542W        W 9061   5.042   4.662   1.824 -0.0587 -0.3655 -0.2606
 5543W        W 9062   3.904   8.386  12.262  0.0438 -0.0583  0.3316
 5544W        W 9063   7.108   8.819  12.501  0.2326  0.1373  0.1073
 5545W        W 9064   5.708   8.709  11.261 -0.2015 -0.0362 -0.1350
 5546W        W 9065   6.696   7.715   3.925 -0.0666  0.1767 -0.0969
 5547W        W 9066   3.408   8.809  12.565 -0.0342  0.0307 -0.0296
 5548W        W 9067   8.843   4.087  10.910 -0.2248 -0.0917  0.1698
 5549W        W 9068   7.223   4.332  11.435 -0.1751 -0.0751 -0.2580
 5550W        W 9069   7.228   9.132   0.279  0.0094 -0.3114  0.2427
 5551W        W 9070   8.396   3.778   1.343  0.0204 -0.2738  0.0852
 5552W        W 9071   1.428   7.086   2.294  0.0831 -0.0693 -0.0990
 5553W        W 9072   2.370   1.561   3.406  0.0557  0.0937 -0.0447
 5554W        W 9073   1.670   8.688   1.749 -0.1518  0.1545  0.3410
 5555W        W 9074   4.900   3.228   1.199  0.0529 -0.3301  0.1839
 5556W        W 9075   0.064   7.572   9.839  0.0918 -0.1349 -0.4130
 5557W        W 9076   8.325   7.227   2.112 -0.0737  0.1545  0.1309
 5558W        W 9077   5.131   6.866   3.231 -0.2943 -0.1175  0.2236
 5559W        W 9078   6.598   3.621   2.519  0.0872  0.0680 -0.1033
 5560W        W 9079   3.338   2.118   3.015  0.4612 -0.2559  0.3118
 5561W        W 9080   7.322   8.228   9.149 -0.0929 -0.3204  0.0432
 5562W        W 9081   4.000   8.227  10.915  0.3887 -0.2933  0.1613
 5563W        W 9082   5.648   2.647   3.808 -0.3709  0.0237 -0.2932
 5564W        W 9083   0.427   6.861   3.497 -0.2093 -0.0619 -0.2828
 5565W        W 9084   0.019   8.689   2.863 -0.1067 -0.0168  0.1567
 5566W        W 9085   4.757   8.076  10.416  0.5264  0.0138  0.1618
 5567W        W 9086   5.145   8.654  10.318  0.0614  0.0915  0.2990
 5568W        W 9087   0.310   2.663   0.179 -0.1204 -0.1406  0.0403
 5569W        W 9088   3.827   6.478  10.899 -0.1070 -0.0883 -0.2068
 5570W        W 9089   0.154   7.591   4.734  0.0032  0.4249 -0.0702
 5571W        W 9090   7.024   8.360   8.775 -0.0964 -0.0935 -0.1173
 5572W        W 9091   6.350   3.629   3.002  0.0832  0.0499  0.3549
 5573W        W 9092   6.698   8.865  12.126  0.2731 -0.1395  0.3238
 5574W        W 9093   8.527   8.140  12.510 -0.0264  0.3891  0.0737
 5575W        W 9094   0.130   2.909  10.696  0.0858  0.0885 -0.0429
 5576W        W 9095   6.699   3.260  10.626 -0.3575  0.0652  0.1376
 5577W        W 9096   4.392   4.105   3.702  0.1038  0.0035 -0.2899
 5578W        W 9097   3.090   2.466  10.498 -0.1496  0.1697  0.1344
 5579W        W 9098   3.147   9.259   9.109 -0.0922 -0.0121  0.0349
 5580W        W 9099   8.661   3.621   1.711 -0.1050 -0.1361 -0.1914
 5581W        W 9100   2.181   9.662  11.090 -0.1415 -0.4873 -0.1755
 5582W        W 9101   3.796   6.277   8.840 -0.1263  0.4529  0.0734
 5583W        W 9102   8.898   4.339   9.418  0.1116 -0.0222  0.2283
 5584W        W 9103   2.840   8.245  12.121  0.0227 -0.0718 -0.0174
 5585W        W 9104   6.880   6.859   1.127  0.2132  0.0844 -0.3456
 5586W        W 9105   5.474   7.183   3.612 -0.2181  0.1855  0.0521
 5587W        W 9106   0.093   6.248  11.266 -0.1756  0.1788 -0.1403
 5588W        W 9107   7.475   8.531   0.882  0.0897 -0.0203 -0.1058
 5589W        W 9108   1.700   7.567   8.422 -0.1705 -0.0226 -0.1157
 5590W        W 9109   8.109   1.638  10.963 -0.0235 -0.1797  0.0997
 5591W        W 9110   7.526   6.461   0.710  0.1795  0.1105  0.0484
 5592W        W 9111   5.619   0.363   4.095 -0.3091  0.0589  0.2880
 5593W        W 9112   9.294   3.993  11.153 -0.1004  0.0571  0.0413
 5594W        W 9113   5.389   5.206   0.376 -0.4171  0.1634 -0.0868
 5595W        W 9114   6.324   6.785   1.258 -0.0010 -0.2939 -0.0160
 5596W        W 9115   7.570   4.233   3.897 -0.0953 -0.3158 -0.2718
 5597W        W 9116   8.231   3.741   3.320 -0.2126 -0.2153  0.0684
 5598W        W 9117   1.055   6.031  12.528 -0.1434  0.3143  0.0839
 5599W        W 9118   1.178   9.236   1.090 -0.2587 -0.1871  0.2255
 5600W        W 9119   8.324   0.216   3.339  0.1043 -0.1338 -0.1195
 5601W        W 9120   5.448   0.821  12.472  0.2009 -0.0392  0.3497
 5602W        W 9121   2.557   8.230   2.782  0.2824  0.0500  0.1787
 5603W        W 9122   9.398   3.479  11.403 -0.0187 -0.2580  0.2044
 5604W        W 9123   2.141   8.737   2.051 -0.0114  0.3237 -0.1870
 5605W        W 9124   2.469   8.856  11.236  0.3439 -0.1155  0.3008
 5606W        W 9125   2.091   3.785   4.132  0.2162  0.2436  0.0550
 5607W        W 9126   2.380   0.917  10.131  0.1032  0.1202  0.0635
 5608W        W 9127   0.374   7.193   0.901  0.0170 -0.0505 -0.3043
 5609W        W 9128   6.648   2.078   0.729  0.1109 -0.1228 -0.1757
 5610W        W 9129   3.680   3.184   2.656  0.0503  0.0422 -0.1068
 5611W        W 9130   1.553   7.211  11.274  0.1912  0.0462 -0.0156
 5612W        W 9131   6.898   6.507   3.322 -0.0065  0.0527  0.1874
 5613W        W 9132   3.003   5.994   2.198  0.0257  0.0221 -0.1458
 5614W        W 9133   0.533   1.130  11.951  0.0213 -0.2241 -0.2164
 5615W        W 9134   4.727   0.895  11.004  0.2560 -0.2938 -0.2312
 5616W        W 9135   2.116   4.166   8.586  0.3863  0.0802 -0.0575
 5617W        W 9136   6.939   5.743   8.914 -0.0331 -0.2358  0.2983
 5618W        W 9137   9.101   2.599   0.305 -0.2286  0.0985  0.3180
 5619W        W 9138   7.772   4.382   8.097 -0.0173  0.2449 -0.2173
 5620W        W 9139   7.401   6.601   1.600 -0.0386 -0.1191  0.0256
 5621W        W 9140   3.241   5.778  11.220  0.0237 -0.4396  0.0695
 5622W        W 9141   6.816   2.870   1.301  0.0058 -0.1962 -0.0718
 5623W        W 9142   7.207   5.567   3.950 -0.2124  0.1559 -0.0646
 5624W        W 9143   3.279   4.836   3.490  0.0899  0.2355  0.2047
 5625W        W 9144   6.257   3.482  12.491 -0.0094  0.1601  0.0440
 5626W        W 9145   6.342   0.881  10.012 -0.1201 -0.1193 -0.1075
 5627W        W 9146   8.736   9.528  12.441 -0.0829 -0.1222 -0.2374
 5628W        W 9147   9.253   6.349  11.166  0.0291  0.2228 -0.0402
 5629W        W 9148   4.366   4.355   0.893  0.2835 -0.2102 -0.2874
 5630W        W 9149   5.072   1.647  12.118 -0.2674 -0.0161  0.1348
 5631W        W 9150   2.652   9.548   8.242 -0.1669 -0.2176  0.1088
 5632W        W 9151   5.549   8.241   3.341  0.2729  0.0334  0.2796
 5633W        W 9152   9.462   5.294   0.503 -0.0453  0.1128  0.0130
 5634W        W 9153   8.342   3.662   4.101  0.0662  0.1591  0.2555
 5635W        W 9154   1.422   6.079   3.127 -0.0495  0.0346 -0.3587
 5636W        W 9155   9.385   8.606   3.240  0.2030 -0.3104  0.0465
 5637W        W 9156   4.584   6.590  12.152 -0.1220 -0.0863 -0.0511
 5638W        W 9157   3.576   2.498   2.790  0.1508  0.3030  0.1693
 5639W        W 9158   1.760   4.335  11.655 -0.3822  0.0094  0.0955
 5640W        W 9159   3.268   0.466   0.002 -0.3779 -0.0996  0.0735
 5641W        W 9160   8.233   0.152  10.027 -0.1135  0.1755  0.0363
 5642W        W 9161   3.219   9.115   2.675 -0.4264 -0.1367  0.1144
 5643W        W 9162   1.515   5.177   1.752 -0.1310  0.2241 -0.2295
 5644W        W 9163   1.707   9.561   0.869  0.1885  0.0332 -0.2471
 5645W        W 9164   5.211   7.168   9.895 -0.0447 -0.2971  0.2251
 5646W        W 9165   7.322   5.102   9.187  0.1465 -0.1127  0.1100
 5647W        W 9166   4.589   4.046  11.824 -0.2016 -0.0790  0.2063
 5648W        W 9167   4.025   9.563  10.848 -0.2641 -0.0743  0.3710
 5649W        W 9168   3.051   0.229  12.129  0.2801 -0.1991 -0.0122
 5650W        W 9169   0.558   1.755   1.252 -0.2060  0.0020  0.2699
 5651W        W 9170   4.388   4.232  10.282 -0.0027  0.0389 -0.0247
 5652W        W 9171   5.807   7.192   2.630  0.0157 -0.2380 -0.2318
 5653W        W 9172   0.895   2.578   3.023 -0.1608 -0.0752 -0.0091
 5654W        W 9173   3.475   5.253  10.447 -0.0070  0.0084  0.0932
 5655W        W 9174   2.022   5.535   2.371 -0.2695  0.1114 -0.1842
 5656W        W 9175   3.952   7.653  12.425 -0.3727  0.3325  0.1132
 5657W        W 9176   0.972   9.052   0.685 -0.0789  0.0408 -0.0362
 5658W        W 9177   5.554   8.368   4.217 -0.2593 -0.2913  0.0011
 5659W        W 9178   9.503   0.310   2.847 -0.1294  0.1501  0.0046
 5660W        W 9179   7.791   7.711  11.021  0.1590  0.0039 -0.1942
 5661W        W 9180   5.543   3.357  10.137  0.0062 -0.1048 -0.2644
 5662W        W 9181   7.878   7.285   0.328 -0.2882  0.2597 -0.0819
 5663W        W 9182   7.067   6.202  11.256  0.3026  0.0707 -0.1283
 5664W        W 9183   8.407   1.395   3.080  0.0125  0.3839 -0.0003
 5665W        W 9184   7.012   3.945   2.486 -0.0208 -0.0033 -0.2874
 5666W        W 9185   5.580   5.398   1.485  0.0363 -0.0463  0.0695
 5667W        W 9186   8.579   5.687   0.303  0.2424  0.3353  0.2013
 5668W        W 9187   7.237   7.726   3.223 -0.0203 -0.2012  0.3238
 5669W        W 9188   1.199   2.163   3.724 -0.1679 -0.3908 -0.3658
 5670W        W 9189   2.375   4.808   0.061  0.1484 -0.2784 -0.1570
 5671W        W 9190   1.303   6.826   9.560  0.1691 -0.0616 -0.0445
 5672W        W 9191   0.866   2.690   2.504  0.0603 -0.1885 -0.0887
 5673W        W 9192   3.504   1.547  12.439  0.0264  0.0516  0.2910
 5674W        W 9193   1.970   1.389  12.501  0.0535  0.0497  0.0045
 5675W        W 9194   0.110   9.103   2.631 -0.0417 -0.1168 -0.0817
 5676W        W 9195   1.209   3.180   4.073  0.3348 -0.0751  0.2007
 5677W        W 9196   7.762   8.754   8.340 -0.3796 -0.0765 -0.0118
 5678W        W 9197   6.565   0.667   1.115 -0.0310  0.2641  0.0580
 5679W        W 9198   3.088   4.896  12.274 -0.0980  0.0453  0.2768
 5680W        W 9199   7.616   8.527  10.366  0.0336  0.0250 -0.2554
 5681W        W 9200   9.474   5.775   9.254 -0.0350 -0.0546  0.1618
 5682W        W 9201   0.418   3.313  10.646 -0.3131 -0.3024 -0.0413
 5683W        W 9202   3.527   1.079  11.145 -0.2964 -0.0033 -0.1610
 5684W        W 9203   4.911   2.091   0.334  0.1745  0.0914 -0.1185
 5685W        W 9204   7.831   8.425  12.110 -0.3089 -0.0384  0.1189
 5686W        W 9205   6.555   9.409   4.865  0.1273  0.0875  0.3270
 5687W        W 9206   2.121   1.942   4.219 -0.0032  0.2912  0.0443
 5688W        W 9207   8.536   4.186   3.995  0.1138  0.1281  0.1634
 5689W        W 9208   6.583   7.671   8.574 -0.1133 -0.2055  0.1598
 5690W        W 9209   2.521   5.128  10.772 -0.1261  0.1219 -0.2681
 5691W        W 9210   4.404   8.578   9.777  0.3288  0.1856 -0.2253
 5692W        W 9211   5.827   7.738   2.552  0.1574  0.0730 -0.1319
 5693W        W 9212   7.736   2.828  10.672 -0.0291  0.2351  0.1262
 5694W        W 9213   0.130   1.516  10.920  0.1149  0.1108  0.1693
 5695W        W 9214   2.275   5.338   4.921 -0.0696  0.0337  0.1161
 5696W        W 9215   7.503   1.165   1.688 -0.1969 -0.0879 -0.0753
 5697W        W 9216   8.471   3.513  12.130  0.2740 -0.2626 -0.0374
 5698W        W 9217   2.138   1.502   2.707  0.3625 -0.1659 -0.0790
 5699W        W 9218   1.490   5.245  11.775  0.2257 -0.3997 -0.0737
 5700W        W 9219   6.853   3.887   0.201 -0.3193  0.2030  0.3748
 5701W        W 9220   2.394   4.419   9.572 -0.1584  0.0722  0.0123
 5702W        W 9221   3.482   5.239  12.484  0.0806  0.1026  0.2536
 5703W        W 9222   7.734   3.259  11.543  0.1943 -0.3896 -0.0710
 5704W        W 9223   4.804   6.253   3.227  0.0455  0.2848 -0.1847
 5705W        W 9224   1.397   8.861   2.152 -0.3047  0.1440  0.1583
 5706W        W 9225   5.259   7.323   3.090 -0.4377 -0.2499  0.1707
 5707W        W 9226   0.259   0.690   3.304 -0.0312  0.0245 -0.0959
 5708W        W 9227   6.686   0.243   2.173 -0.2113  0.0600  0.0257
 5709W        W 9228   8.921   3.437   2.813  0.1832 -0.2913 -0.3271
 5710W        W 9229   4.193   1.940   9.569 -0.2634  0.0822  0.1345
 5711W        W 9230   4.681   7.409  10.079  0.2706  0.0476  0.1873
 5712W        W 9231   4.848   9.138  11.667 -0.3210  0.2435  0.0935
 5713W        W 9232   2.407   6.006   8.881 -0.0194 -0.0687 -0.0459
 5714W        W 9233   1.431   1.894   1.749 -0.1060 -0.0702  0.0708
 5715W        W 9234   4.277   0.060   0.387  0.0594 -0.0432  0.1485
 5716W        W 9235   9.196   6.930   2.487  0.0969  0.0319  0.0826
 5717W        W 9236   8.967   5.295   9.198 -0.2213  0.0849  0.4265
 5718W        W 9237   8.185   5.991  12.502  0.0665  0.2461 -0.2580
 5719W        W 9238   9.479   0.767   2.650 -0.2067 -0.0180  0.1276
 5720W        W 9239   4.342   5.485   2.688  0.4617 -0.2940 -0.0728
 5721W        W 9240   5.750   8.498   2.439  0.0312 -0.0044  0.0470
 5722W        W 9241   1.409   6.379  10.840  0.0347 -0.1408 -0.1525
 5723W        W 9242   0.939   1.511   0.967 -0.1195 -0.0098  0.4683
 5724W        W 9243   1.761   4.208   8.958  0.0421  0.0989  0.1180
 5725W        W 9244   7.648   2.475  11.145 -0.0348  0.3151 -0.0396
 5726W        W 9245   0.460   0.136   0.911  0.0964  0.0872  0.0440
 5727W        W 9246   9.481   5.025   4.042 -0.0371 -0.3254  0.0329
 5728W        W 9247   1.829   9.248  10.093  0.0365 -0.0971 -0.0026
 5729W        W 9248   0.673   1.670  10.125 -0.2384 -0.2182  0.1160
 5730W        W 9249   8.878   6.162   8.827 -0.0559 -0.2630 -0.4886
 5731W        W 9250   5.084   2.496   0.616  0.3990  0.3433  0.1602
 5732W        W 9251   3.860   9.355   3.587 -0.0226 -0.0728 -0.0458
 5733W        W 9252   9.314   9.162   9.494  0.0608 -0.1157 -0.2022
 5734W        W 9253   6.060   3.485  11.088 -0.1276  0.0421  0.0196
 5735W        W 9254   9.476   7.085  12.572  0.2624 -0.0440 -0.0087
 5736W        W 9255   1.802   1.721   1.108 -0.2311  0.1143 -0.1351
 5737W        W 9256   7.916   3.886   4.217 -0.2234 -0.1555  0.0464
 5738W        W 9257   4.236   6.858  12.469  0.0495  0.1793 -0.4803
 5739W        W 9258   1.531   5.153   1.150  0.0120 -0.1169  0.1127
 5740W        W 9259   2.670   8.506   4.111  0.0738 -0.1037  0.0237
 5741W        W 9260   5.334   3.671   0.567  0.0367  0.1902 -0.0108
 5742W        W 9261   8.574   7.978   3.158 -0.0163 -0.1183 -0.1155
 5743W        W 9262   9.017   3.162  11.406  0.2581  0.0863  0.0570
 5744W        W 9263   6.663   4.073   4.503 -0.0001  0.0140  0.1204
 5745W        W 9264   6.358   4.930   9.285  0.0272 -0.0313  0.2217
 5746W        W 9265   3.403   2.048  12.386 -0.0121  0.0675 -0.0140
 5747W        W 9266   3.771   1.076   1.220 -0.1215  0.2726  0.1001
 5748W        W 9267   6.265   6.676   0.237 -0.0237 -0.0336 -0.1727
 5749W        W 9268   2.687   5.141  11.877 -0.2149 -0.2413  0.1473
 5750W        W 9269   7.711   3.943   2.864 -0.1248 -0.0405 -0.2545
 5751W        W 9270   9.232   1.834  11.400 -0.1407  0.3377  0.1436
 5752W        W 9271   1.561   5.727   2.763  0.1660 -0.2080  0.0860
 5753W        W 9272   0.440   0.320  11.874 -0.0663 -0.2227 -0.1206
 5754W        W 9273   5.069   1.192   9.717 -0.0836  0.0903 -0.0288
 5755W        W 9274   5.153   0.333   8.496 -0.0277  0.2496 -0.0502
 5756W        W 9275   0.213   1.057   2.933 -0.1930  0.1439  0.0716
 5757W        W 9276   0.315   5.430  10.976  0.0332  0.1902 -0.2175
 5758W        W 9277   2.745   4.221   0.902  0.0041  0.1000 -0.1092
 5759W        W 9278   4.837   9.335   3.449  0.2264 -0.2060  0.0352
 5760W        W 9279   1.266   3.209  10.746 -0.0029 -0.3258  0.1604
 5761W        W 9280   8.925   7.634   9.304  0.2460 -0.0740 -0.1688
 5762W        W 9281   5.590   9.125   4.418 -0.3695 -0.2802  0.0691
 5763W        W 9282   8.354   7.172   3.760 -0.1107  0.2607  0.0494
 5764W        W 9283   1.748   7.641   0.886 -0.0262 -0.0409  0.1402
 5765W        W 9284   1.126   4.843   3.097  0.1775  0.2802 -0.0575
 5766W        W 9285   7.591   4.625   9.111 -0.0140 -0.0333 -0.0629
 5767W        W 9286   1.491   3.146  12.397  0.2125 -0.2669  0.1080
 5768W        W 9287   9.315   6.290   4.140  0.2103  0.2193  0.2374
 5769W        W 9288   1.463   0.298   2.358 -0.2039  0.0198 -0.1633
 5770W        W 9289   4.004   7.029   9.120  0.0499 -0.0506  0.1565
 5771W        W 9290   4.014   8.843   8.832 -0.1970 -0.1109  0.0709
 5772W        W 9291   0.020   4.582   3.831 -0.1895  0.1115 -0.1866
 5773W        W 9292   0.919   7.251   9.530 -0.0140 -0.2096 -0.1431
 5774W        W 9293   4.247   3.651   4.422  0.0622 -0.3025 -0.1590
 5775W        W 9294   6.705   6.932   9.591 -0.4291 -0.0822 -0.0352
 5776W        W 9295   5.689   0.427  10.112  0.0932 -0.1011 -0.0274
 5777W        W 9296   6.197   6.502  11.618  0.4533 -0.1370 -0.3499
 5778W        W 9297   3.926   4.787  11.055 -0.0569 -0.1319  0.0845
 5779W        W 9298   9.515   2.534   2.935 -0.3199 -0.1349 -0.1082
 5780W        W 9299   6.799   0.778  11.767  0.2041  0.0257 -0.3291
 5781W        W 9300   4.672   2.550   0.163  0.0745  0.0568 -0.2650
 5782W        W 9301   3.332   6.231  10.436  0.0376 -0.1004 -0.1702
 5783W        W 9302   8.116   2.438  11.425 -0.0560  0.1995  0.2665
 5784W        W 9303   5.103   1.504   2.036 -0.3128 -0.2006 -0.1772
 5785W        W 9304   9.331   4.980  10.594  0.1697  0.2353 -0.2151
 5786W        W 9305   1.469   1.798  10.399 -0.0769 -0.2141  0.0060
 5787W        W 9306   5.088   1.665   2.551 -0.1982 -0.1187 -0.2193
 5788W        W 9307   4.576   4.837   0.624  0.1132  0.0201  0.1297
 5789W        W 9308   9.680   0.017  11.844  0.0338 -0.0000  0.1752
 5790W        W 9309   5.297   3.762  10.783 -0.0879 -0.3598 -0.0089
 5791W        W 9310   5.376   7.685   8.587  0.1257  0.1460  0.3217
 5792W        W 9311   5.111   4.236  12.177 -0.1242 -0.2170  0.1688
 5793W        W 9312   6.742   6.851   3.974 -0.1885  0.3985  0.2775
 5794W        W 9313   5.783   0.046   9.528  0.2528  0.0904 -0.1803
 5795W        W 9314   3.185   8.278  10.755 -0.0486 -0.0204  0.0593
 5796W        W 9315   3.838   4.836   0.316 -0.0128  0.2698  0.3432
 5797W        W 9316   7.824   1.202   9.501 -0.2192 -0.3783 -0.4213
 5798W        W 9317   3.903   2.260   2.435 -0.0626 -0.0306  0.3124
 5799W        W 9318   6.851   4.692  11.341 -0.1868 -0.0435  0.0900
 5800W        W 9319   0.662   4.473   1.995  0.0731  0.3633 -0.0879
 5801W        W 9320   2.499   8.658   9.737 -0.0142 -0.1215 -0.0379
 5802W        W 9321   1.621   0.982   0.551 -0.2262 -0.1377 -0.3763
 5803W        W 9322   0.539   0.849   1.677  0.0692 -0.0887  0.0476
 5804W        W 9323   3.850   3.464  10.284  0.1982  0.1252  0.2422
 5805W        W 9324   2.680   8.798   1.464  0.1986  0.1283  0.0103
 5806W        W 9325   4.789   1.263   0.541 -0.0628 -0.0599 -0.0001
 5807W        W 9326   7.779   1.350   4.788 -0.0811 -0.1044 -0.2141
 5808W        W 9327   9.575   7.726   3.738  0.0330 -0.0594  0.0180
 5809W        W 9328   8.663   2.585   1.737 -0.1321  0.2187 -0.2398
 5810W        W 9329   0.852   3.440  10.859  0.0981 -0.0283  0.3333
 5811W        W 9330   8.829   3.767   4.178 -0.3778  0.0534  0.0615
 5812W        W 9331   1.665   4.935  10.828  0.2770 -0.4456  0.1730
 5813W        W 9332   8.870   3.269   9.796 -0.0289  0.0997  0.0578
 5814W        W 9333   1.618   6.525   9.251  0.0226 -0.0978 -0.2701
 5815W        W 9334   3.263   5.025   1.213 -0.0298 -0.0133 -0.2942
 5816W        W 9335   4.455   0.260   0.894 -0.2292 -0.2801  0.1477
 5817W        W 9336   7.986   5.432   0.723 -0.2727  0.0718 -0.0871
 5818W        W 9337   9.087   9.429  11.278 -0.0753 -0.2417 -0.0200
 5819W        W 9338   5.815   3.057   1.186 -0.2185 -0.2577 -0.0164
 5820W        W 9339   3.181   4.473  10.840 -0.5874  0.2687  0.5222
 5821W        W 9340   5.462   8.088   2.427 -0.0107  0.4659 -0.2486
 5822W        W 9341   8.040   3.613   0.545 -0.1977 -0.2330 -0.2035
 5823W        W 9342   7.782   7.267   7.817  0.0075 -0.0271 -0.4490
 5824W        W 9343   0.721   5.036   3.389  0.1133  0.2293 -0.0780
 5825W        W 9344   8.752   6.257   1.698  0.3727  0.1455 -0.0328
 5826W        W 9345   7.783   2.002   1.314  0.0423  0.1425 -0.0295
 5827W        W 9346   3.931   5.917  10.772 -0.2884 -0.1865 -0.0612
 5828W        W 9347   4.109   0.332   2.035  0.1653  0.2022 -0.0849
 5829W        W 9348   2.194   7.601   1.171 -0.1929  0.0440 -0.0705
 5830W        W 9349   7.287   1.200   9.744 -0.1607 -0.0631  0.1152
 5831W        W 9350   5.509   4.444  12.453 -0.1618  0.0006 -0.0638
 5832W        W 9351   1.688   8.967   9.709  0.2672 -0.2133 -0.0426
 5833W        W 9352   2.573   5.935   9.895  0.1656 -0.2933 -0.0723
 5834W        W 9353   1.648   2.571   2.933 -0.0173 -0.2877 -0.1611
 5835W        W 9354   5.490   6.424  11.712  0.0622  0.3682 -0.1376
 5836W        W 9355   2.481   8.588  11.762  0.1883  0.2566  0.3153
 5837W        W 9356   8.159   5.752   1.972 -0.1697 -0.1978 -0.1390
 5838W        W 9357   8.570   2.528   3.783  0.0170 -0.0941 -0.1484
 5839W        W 9358   3.615   4.824   7.910  0.2724 -0.2896  0.1011
 5840W        W 9359   8.456   0.213   0.946  0.1517  0.4462  0.1484
 5841W        W 9360   6.625   1.194  11.133 -0.2248  0.0325 -0.0016
 5842W        W 9361   8.706   6.016   3.547 -0.3278  0.2145 -0.2089
 5843W        W 9362   9.560   2.826   2.193  0.1253 -0.2386 -0.1742
 5844W        W 9363   0.246   8.395   0.306  0.2894  0.1059 -0.2412
 5845W        W 9364   4.924   2.909   3.618 -0.3526  0.2382  0.1393
 5846W        W 9365   1.981   1.402  10.286 -0.1821 -0.0212  0.1898
 5847W        W 9366   5.415   6.488   0.208 -0.3324 -0.4302 -0.0497
 5848W        W 9367   1.698   4.790  11.806 -0.1805  0.0053  0.2660
 5849W        W 9368   8.123   4.977  12.081  0.0779  0.2320 -0.0584
 5850W        W 9369   8.535   6.787   2.468  0.1308  0.0568 -0.1095
 5851W        W 9370   2.263   4.685   1.280 -0.1677 -0.1640  0.1964
 5852W        W 9371   4.528   8.169   9.459  0.0907 -0.0108 -0.0204
 5853W        W 9372   3.789   6.117   0.865  0.2048  0.2365  0.1184
 5854W        W 9373   1.326   4.568   3.520 -0.2345  0.1316  0.0856
 5855W        W 9374   3.024   1.728   0.713 -0.3645  0.1692 -0.0263
 5856W        W 9375   5.608   5.390  10.169  0.0885  0.1161 -0.1339
 5857W        W 9376   1.794   2.508   2.225  0.2142  0.1707 -0.0192
 5858W        W 9377   9.574   4.346   3.041  0.2910  0.1085 -0.2600
 5859W        W 9378   5.157   1.189  11.733 -0.1746 -0.0447  0.0640
 5860W        W 9379   2.786   8.725   0.817  0.0893 -0.0307  0.0998
 5861W        W 9380   5.075   1.407   1.358  0.1850  0.0597  0.0491
 5862W        W 9381   6.286   3.095   9.514  0.0335  0.0439 -0.0676
 5863W        W 9382   1.801   8.160  11.779 -0.0640  0.0876  0.1199
 5864W        W 9383   9.107   9.078   1.544  0.1240 -0.1666  0.2253
 5865W        W 9384   9.088   7.990  10.424 -0.3116  0.0134 -0.1712
 5866W        W 9385   3.308   1.078   1.429  0.0175 -0.1759 -0.0814
 5867W        W 9386   9.607   4.422   9.222  0.0803  0.1371 -0.1215
 5868W        W 9387   1.968   0.474   1.790  0.0401  0.2417  0.1368
 5869W        W 9388   6.793   4.349  11.770 -0.3379 -0.2804  0.1490
 5870W        W 9389   7.043   9.364   3.641  0.2341 -0.1185  0.0562
 5871W        W 9390   3.378   6.912   1.741  0.3388 -0.2570 -0.1717
 5872W        W 9391   0.151   3.070   0.539  0.2632  0.3532 -0.2022
 5873W        W 9392   7.038   8.075   4.146  0.4311 -0.2388  0.3630
 5874W        W 9393   5.470   0.988  10.481 -0.0887  0.2331 -0.0610
 5875W        W 9394   0.320   6.969  10.538 -0.0047 -0.1871  0.1324
 5876W        W 9395   5.618   5.906   0.333 -0.0467  0.2631  0.1290
 5877W        W 9396   4.440   6.413   0.019  0.2798  0.3226  0.0310
 5878W        W 9397   6.756   0.737   2.041 -0.3592  0.1751  0.0634
 5879W        W 9398   6.082   1.894   3.175  0.3514  0.1925 -0.0817
 5880W        W 9399   4.892   8.553   9.454  0.1816  0.3228 -0.0373
 5881W        W 9400   5.958   1.714   0.162 -0.2306  0.1263 -0.1393
 5882W        W 9401   5.889   9.146  11.512  0.0348 -0.1153 -0.1449
 5883W        W 9402   0.975   3.747   3.430  0.2048 -0.0123 -0.1021
 5884W        W 9403   7.233   0.687   9.076 -0.0713 -0.1837  0.1049
 5885W        W 9404   3.476   7.830   2.274  0.0792 -0.1271 -0.1073
 5886W        W 9405   0.966   7.124   1.010 -0.2422 -0.1291  0.0884
 5887W        W 9406   0.456   1.349   1.493 -0.1446  0.2118  0.2815
 5888W        W 9407   8.829   9.315   1.929  0.2047  0.0071  0.0674
 5889W        W 9408   1.213   3.106   0.344  0.1031 -0.1748  0.3246
 5890W        W 9409   9.443   8.947  11.367 -0.1240 -0.0205  0.1269
 5891W        W 9410   1.776   8.888  12.360 -0.0740  0.1254  0.1257
 5892W        W 9411   3.701   4.627  10.601 -0.2065 -0.0183 -0.1057
 5893W        W 9412   7.854   1.801  10.339 -0.0082  0.1666  0.1199
 5894W        W 9413   2.682   7.309   0.139  0.1726 -0.0488 -0.2126
 5895W        W 9414   2.036   6.889   3.201 -0.1387  0.0607 -0.0333
 5896W        W 9415   6.384   2.640  11.661 -0.0181 -0.0987 -0.1249
 5897W        W 9416   0.027   5.566   0.852 -0.0934  0.2041  0.1153
 5898W        W 9417   1.548   4.533   4.012 -0.0369  0.0605  0.0624
 5899W        W 9418   1.397   8.249   1.766  0.2614 -0.0380 -0.4214
 5900W        W 9419   3.989   2.138   1.484  0.3027 -0.2201  0.0757
 5901W        W 9420   2.247   4.037   0.052 -0.0554 -0.1386  0.3456
 5902W        W 9421   6.928   4.360   0.267 -0.0783 -0.1914 -0.1606
 5903W        W 9422   1.657   1.388   1.491  0.0262 -0.1031 -0.2335
 5904W        W 9423   4.614   7.247   1.244 -0.0897  0.0008 -0.0416
 5905W        W 9424   8.628   9.407  11.941  0.0295 -0.0832 -0.0388
 5906W        W 9425   7.172   6.398   1.160 -0.2610  0.1056 -0.3130
 5907W        W 9426   7.035   7.524   8.461 -0.0351 -0.1855 -0.0351
 5908W        W 9427   0.063   1.141   1.218  0.2384  0.0397  0.2511
 5909W        W 9428   6.460   8.363  11.185  0.2875 -0.4312 -0.0501
 5910W        W 9429   6.739   7.044   1.741 -0.0607  0.1248 -0.2691
 5911W        W 9430   5.056   1.628   3.081  0.1839  0.1889 -0.2627
 5912W        W 9431   7.527   2.785   1.814  0.1078  0.4050 -0.0272
 5913W        W 9432   0.459   7.505   0.411 -0.0603  0.3599  0.0852
 5914W        W 9433   0.800   4.036   4.219  0.1736 -0.2032  0.1484
 5915W        W 9434   0.915   6.246   1.140  0.2120  0.3413 -0.3624
 5916W        W 9435   6.986   7.186   3.175 -0.2952  0.4292 -0.1032
 5917W        W 9436   0.213   4.604   2.649  0.0302 -0.1165  0.1195
 5918W        W 9437   4.843   8.306  11.281  0.0156 -0.1598  0.0935
 5919W        W 9438   0.874   0.274  12.422  0.3542  0.1306 -0.0197
 5920W        W 9439   7.975   8.162   0.041  0.0917 -0.1908 -0.0877
 5921W        W 9440   7.071   5.179  11.373  0.2789  0.0735 -0.0110
 5922W        W 9441   8.648   6.732  10.756 -0.3031  0.1325 -0.1517
 5923W        W 9442   8.376   0.221   8.758  0.1397  0.0239 -0.2035
 5924W        W 9443   8.740   4.103   1.179  0.0912 -0.0160  0.2253
 5925W        W 9444   5.994   3.631   3.482 -0.0883 -0.0746 -0.1841
 5926W        W 9445   8.291   0.580  11.838  0.1391 -0.1643 -0.5137
 5927W        W 9446   4.652   5.520  10.812 -0.2038 -0.1028 -0.0651
 5928W        W 9447   0.977   8.322  11.243  0.1607 -0.2494 -0.0879
 5929W        W 9448   1.018   0.013  10.352  0.1722  0.1654 -0.0508
 5930W        W 9449   4.227   1.393   0.435  0.1276  0.2492 -0.2141
 5931W        W 9450   9.124   9.230   9.936 -0.0760 -0.0023 -0.1884
 5932W        W 9451   4.799   1.888  10.858 -0.0998 -0.0989 -0.0528
 5933W        W 9452   1.630   5.255   8.082 -0.0185 -0.6727  0.2520
 5934W        W 9453   3.359   9.665   8.916 -0.2509 -0.1706 -0.0491
 5935W        W 9454   8.340   7.090   2.891 -0.2384  0.0331  0.0942
 5936W        W 9455   2.006   9.141   0.927 -0.0273 -0.1330  0.2095
 5937W        W 9456   2.188   8.448   1.510 -0.3462  0.0956 -0.0742
 5938W        W 9457   5.811   0.962   0.870  0.4068  0.1953  0.1697
 5939W        W 9458   9.235   5.194   2.711  0.0636 -0.0869  0.2131
 5940W        W 9459   5.213   4.556   2.313 -0.3133 -0.1246 -0.1315
 5941W        W 9460   1.590   0.339   9.433  0.0311  0.2529 -0.1126
 5942W        W 9461   8.089   4.276   3.200  0.0767  0.1026  0.1630
 5943W        W 9462   4.256   7.528   1.834  0.3372  0.0837 -0.1739
 5944W        W 9463   4.934   5.505   4.341 -0.0083  0.4029 -0.0718
 5945W        W 9464   2.149   3.225   1.766 -0.0219  0.0434 -0.3288
 5946W        W 9465   9.498   3.449   0.517 -0.1030  0.2303 -0.1877
 5947W        W 9466   2.496   5.356   3.905  0.1475 -0.2086 -0.2528
 5948W        W 9467   5.324   2.567   3.425 -0.2849  0.0920  0.1720
 5949W        W 9468   2.564   4.559   3.141  0.3246 -0.0514 -0.0509
 5950W        W 9469   0.433   2.473  10.652 -0.0705  0.0123  0.4170
 5951W        W 9470   3.863   0.800   3.246 -0.1860  0.0246 -0.1887
 5952W        W 9471   1.205   9.509   3.896 -0.3283 -0.0677  0.0209
 5953W        W 9472   8.549   0.848  12.309 -0.1848 -0.0186  0.1061
 5954W        W 9473   1.853   1.361   3.539 -0.2710 -0.0388 -0.3160
 5955W        W 9474   7.147   7.422   1.816  0.0650 -0.1571 -0.0655
 5956W        W 9475   1.909   7.093   1.022 -0.2028  0.0707 -0.1108
 5957W        W 9476   6.744   5.007   3.027  0.2071  0.2584 -0.0794
 5958W        W 9477   0.489   3.940   1.417 -0.0119  0.1431 -0.1393
 5959W        W 9478   4.393   5.087  10.250 -0.1169 -0.3874 -0.1842
 5960W        W 9479   9.320   9.213   2.049 -0.1508  0.0285 -0.2144
 5961W        W 9480   1.581   6.902   3.655 -0.3090 -0.1594  0.3178
 5962W        W 9481   7.834   0.524   3.554  0.1248 -0.0375  0.0969
 5963W        W 9482   0.266   5.369   2.159 -0.5040 -0.2825 -0.2173
 5964W        W 9483   8.894   1.667  10.411  0.3406 -0.3892  0.0187
 5965W        W 9484   0.359   6.737   2.205 -0.0931  0.0839 -0.1370
 5966W        W 9485   5.465   3.027   1.620 -0.2577  0.2178  0.0148
 5967W        W 9486   3.956   5.387  10.085 -0.1318 -0.1757  0.2150
 5968W        W 9487   9.618   4.790   0.351 -0.2238  0.0013  0.2443
 5969W        W 9488   9.593   1.337   2.027 -0.1976  0.0380 -0.2563
 5970W        W 9489   2.929   3.734   3.718  0.1372  0.2846 -0.0872
 5971W        W 9490   3.311   8.481   2.705  0.2011 -0.0287 -0.0646
 5972W        W 9491   8.578   8.531   3.463 -0.1348  0.2560  0.1061
 5973W        W 9492   5.228   0.396   3.697 -0.2088  0.3505 -0.0916
 5974W        W 9493   8.147   3.627   1.728 -0.1510  0.0204  0.1659
 5975W        W 9494   7.151   2.502   1.528 -0.3915 -0.1661  0.0784
 5976W        W 9495   2.493   4.698   9.129  0.2939 -0.1029 -0.4003
 5977W        W 9496   7.502   6.595  10.151 -0.3239 -0.3560  0.0075
 5978W        W 9497   4.451   8.480   3.046  0.1425 -0.1814 -0.1499
 5979W        W 9498   6.189   5.965   8.340  0.0503 -0.2462  0.3144
 5980W        W 9499   5.136   0.475  11.605 -0.2782 -0.4021  0.2277
 5981W        W 9500   4.057   1.722   3.327  0.4621  0.1173  0.0130
 5982W        W 9501   3.827   5.812   2.039  0.0663  0.1021 -0.0799
 5983W        W 9502   6.963   0.151   1.029 -0.0086  0.1732  0.0736
 5984W        W 9503   1.852   8.602  10.971 -0.1070  0.3365  0.0040
 5985W        W 9504   6.928   2.008  10.722 -0.0272 -0.0149 -0.2011
 5986W        W 9505   5.196   4.848  10.855 -0.0587 -0.0699  0.1245
 5987W        W 9506   7.308   0.588   3.615 -0.0537 -0.3031  0.0464
 5988W        W 9507   2.366   5.042   2.362 -0.1481 -0.2449 -0.1071
 5989W        W 9508   7.734   8.860   3.910  0.2434 -0.0862  0.2017
 5990W        W 9509   2.109   2.548   0.008  0.0908  0.1039  0.1417
 5991W        W 9510   8.655   1.921   2.305  0.0812 -0.0038  0.0814
 5992W        W 9511   3.779   7.503   1.764  0.0011  0.2032 -0.2162
 5993W        W 9512   5.305   6.408   8.206  0.0279  0.1762  0.2406
 5994W        W 9513   8.263   0.035   1.467 -0.0182  0.0892 -0.0141
 5995W        W 9514   7.985   4.549   9.388  0.0234  0.1748  0.0146
 5996W        W 9515   2.754   5.787   1.806  0.2092  0.1411  0.0696
 5997W        W 9516   7.413   3.037   9.294 -0.0345 -0.1237  0.0381
 5998W        W 9517   8.505   8.969   0.777 -0.0629  0.2798  0.1833
 5999W        W 9518   2.416   0.958  10.755  0.1971  0.0040 -0.2620
 6000W        W 9519   3.296   6.084   8.624 -0.0521 -0.2540  0.2867
 6001W        W 9520   5.668   9.208  11.042 -0.0821 -0.2618 -0.0888
 6002W        W 9521   8.427   1.244   1.787 -0.0364  0.0972  0.3710
 6003W        W 9522   2.253   3.048   1.318 -0.2489  0.1160 -0.1866
 6004W        W 9523   2.618   7.469   3.421  0.1097 -0.1412 -0.0836
 6005W        W 9524   2.776   9.646   1.050  0.1657  0.1178 -0.2802
 6006W        W 9525   6.259   5.138   8.807  0.1316  0.0621 -0.0440
 6007W        W 9526   7.600   4.741   9.629 -0.0740 -0.1553 -0.0356
 6008W        W 9527   9.472   8.316   1.939  0.0981 -0.0237  0.0320
 6009W        W 9528   9.014   2.584   2.945  0.1563 -0.1474 -0.1060
 6010W        W 9529   3.241   8.985   0.955 -0.1509  0.0619  0.1045
 6011W        W 9530   3.580   2.820   9.857  0.1289  0.0207 -0.0770
 6012W        W 9531   9.459   8.718   2.340  0.3712 -0.2108 -0.0353
 6013W        W 9532   4.133   4.820   1.494 -0.1336  0.2057  0.1911
 6014W        W 9533   0.900   3.869   9.664  0.1357 -0.0208  0.2143
 6015W        W 9534   2.382   2.309   9.687 -0.1189 -0.2662 -0.0428
 6016W        W 9535   5.183   6.391  10.053  0.1491 -0.1724 -0.3081
 6017W        W 9536   6.543   1.602   3.187 -0.2162  0.3711  0.2196
 6018W        W 9537   7.414   6.854   1.069  0.1263 -0.0992 -0.0581
 6019W        W 9538   5.279   4.819   0.095 -0.0828  0.1756  0.5666
 6020W        W 9539   0.831   8.041  10.765  0.2728  0.2579 -0.4493
 6021W        W 9540   9.340   1.576  10.057  0.0262 -0.3490  0.1925
 6022W        W 9541   4.990   3.881   9.652  0.0337 -0.0908  0.2632
 6023W        W 9542   5.411   3.051  12.455 -0.0443 -0.1183 -0.1476
 6024W        W 9543   7.174   7.296   1.042  0.2959  0.0936  0.0381
 6025W        W 9544   6.120   7.429   4.266  0.2452  0.0006 -0.1276
 6026W        W 9545   7.051   4.335   4.217 -0.0870 -0.2840 -0.1115
 6027W        W 9546   5.389   7.390   0.621 -0.0686 -0.0586 -0.2161
 6028W        W 9547   6.489   9.069   2.688 -0.4072  0.0414  0.3268
 6029W        W 9548   7.630   3.378  10.084  0.1366  0.0091  0.3998
 6030W        W 9549   8.154   8.110   1.827  0.1816 -0.3978 -0.0512
 6031W        W 9550   6.657   2.656   9.368 -0.0708  0.1759 -0.0676
 6032W        W 9551   6.221   6.190   2.794  0.1680  0.2506  0.1590
 6033W        W 9552   4.944   7.691   3.115  0.0192 -0.0193 -0.0762
 6034W        W 9553   3.307   1.540   0.297  0.1015 -0.0239  0.1163
 6035W        W 9554   8.824   1.282  11.663  0.0954 -0.1132 -0.1887
 6036W        W 9555   5.793   3.460   1.477 -0.1276 -0.0180  0.0306
 6037W        W 9556   5.462   1.364  11.342 -0.0727  0.1080  0.0427
 6038W        W 9557   2.875   6.681  11.813  0.1319 -0.0760  0.1833
 6039W        W 9558   5.958   4.264  10.214  0.1384  0.2441 -0.0109
 6040W        W 9559   2.697   0.122   0.598  0.1402 -0.2202 -0.1534
 6041W        W 9560   7.308   8.245  11.926 -0.4472 -0.0864  0.1244
 6042W        W 9561   0.173   5.887   9.538  0.2205 -0.3903 -0.1196
 6043W        W 9562   2.086   4.575   9.926 -0.3016  0.1619  0.0145
 6044W        W 9563   0.828   4.668  10.351  0.0869 -0.1406 -0.2695
 6045W        W 9564   1.190   4.038  10.085  0.1780 -0.0366 -0.3763
 6046W        W 9565   2.251   7.632  10.073 -0.0563 -0.2563  0.3223
 6047W        W 9566   7.999   1.840   2.312 -0.1397 -0.0310 -0.1610
 6048W        W 9567   5.181   8.565   8.155 -0.2055  0.4504 -0.0070
 6049W        W 9568   6.265   8.797  11.318  0.5369  0.0062  0.0877
 6050W        W 9569   1.889   5.027   8.972 -0.3051  0.0414  0.0061
 6051W        W 9570   1.977   0.574  10.571 -0.0629 -0.0546 -0.1253
 6052W        W 9571   5.665   6.821   8.798 -0.1533 -0.1676  0.1158
 6053W        W 9572   1.194   2.861   1.830  0.4834 -0.1936  0.0637
 6054W        W 9573   2.772   1.146  12.152  0.0970  0.1656  0.1074
 6055W        W 9574   6.673   2.708   0.052  0.0429  0.3245 -0.1644
 6056W        W 9575   9.347   5.287   1.638 -0.1135  0.2663 -0.0579
 6057W        W 9576   4.288   3.215   8.222 -0.1551 -0.2718 -0.1683
 6058W        W 9577   5.699   2.668   0.262  0.3163 -0.1375 -0.1217
 6059W        W 9578   0.838   8.861   2.859 -0.0105 -0.1947 -0.2236
 6060W        W 9579   6.839   4.631   0.688 -0.4357  0.1554 -0.0990
 6061W        W 9580   2.437   8.811  12.196 -0.0211 -0.1011  0.0040
 6062W        W 9581   0.194   3.606   0.923  0.0841 -0.2821 -0.1852
 6063W        W 9582   8.332   7.642   8.561  0.2312  0.0960 -0.1923
 6064W        W 9583   3.496   7.065   2.638  0.1497 -0.1727  0.1719
 6065W        W 9584   1.754   7.816  12.465  0.1178 -0.4443 -0.0197
 6066W        W 9585   6.330   5.405   9.576 -0.1038 -0.1027 -0.0508
 6067W        W 9586   4.855   8.205   4.770 -0.2423  0.1166  0.0158
 6068W        W 9587   4.181   0.201   9.554 -0.0087  0.0556  0.0266
 6069W        W 9588   0.654   8.217   2.095  0.2266  0.0398  0.0657
 6070W        W 9589   4.335   4.112   4.602 -0.2223 -0.1274 -0.2020
 6071W        W 9590   6.023   9.307   3.467  0.1627  0.0097  0.0059
 6072W        W 9591   1.009   5.315   3.046 -0.0701  0.0557 -0.0402
 6073W        W 9592   9.003   4.576  11.826  0.2028  0.0726 -0.0156
 6074W        W 9593   8.659   5.266   9.672  0.2215  0.4562 -0.0331
 6075W        W 9594   1.306   3.520  12.137 -0.1383 -0.0218 -0.0343
 6076W        W 9595   4.777   4.558   3.961 -0.0106  0.1879  0.0433
 6077W        W 9596   1.868   6.760   8.609  0.0329 -0.2272  0.0778
 6078W        W 9597   6.903   7.100   8.268 -0.0337 -0.2102  0.1466
 6079W        W 9598   6.350   4.777   2.276  0.2868 -0.0829 -0.1835
 6080W        W 9599   8.480   8.551  11.276  0.1147  0.0325  0.2298
 6081W        W 9600   5.492   6.649  11.278 -0.2316  0.2698 -0.1375
 6082W        W 9601   3.900   2.960   1.672 -0.3998 -0.2593  0.1603
 6083W        W 9602   7.236   8.880   3.689  0.1335  0.2340  0.0931
 6084W        W 9603   8.047   5.926   7.716 -0.1585  0.0006  0.0309
 6085W        W 9604   8.100   6.474  12.559  0.0247 -0.3223 -0.0011
 6086W        W 9605   8.248   5.342   9.285 -0.0200  0.0572 -0.0439
 6087W        W 9606   7.058   5.160   3.751  0.1022  0.2246  0.0730
 6088W        W 9607   0.094   3.252  11.702  0.1515  0.3055  0.0693
 6089W        W 9608   2.042   6.279   2.025  0.0418 -0.2459  0.2169
 6090W        W 9609   7.480   5.354   1.705  0.0622  0.0591 -0.3487
 6091W        W 9610   1.982   5.526  11.908 -0.0140 -0.2289 -0.3424
 6092W        W 9611   7.691   1.467   3.767  0.0705 -0.2494 -0.1542
 6093W        W 9612   7.372   1.808  11.584  0.2505 -0.2217 -0.0237
 6094W        W 9613   0.048   1.957   9.251 -0.1808  0.2700  0.1446
 6095W        W 9614   4.515   3.310   3.900 -0.0182  0.0430  0.1936
 6096W        W 9615   0.789   6.944  11.772  0.1179  0.0274  0.0821
 6097W        W 9616   6.207   7.072   9.648 -0.0472 -0.0944 -0.0362
 6098W        W 9617   7.234   3.502   8.972  0.1072 -0.0279  0.0864
 6099W        W 9618   9.388   5.890   4.382  0.0894  0.0092  0.3490
 6100W        W 9619   0.758   8.438   9.504  0.2468 -0.2876 -0.1904
 6101W        W 9620   5.361   6.386  10.843  0.0528 -0.2393 -0.4073
 6102W        W 9621   0.622   5.550   0.668  0.3223 -0.2053 -0.0539
 6103W        W 9622   6.144   0.461  12.282 -0.1088 -0.4355 -0.2009
 6104W        W 9623   2.273   1.031  12.287  0.1767 -0.1494  0.1001
 6105W        W 9624   0.575   8.017   2.653  0.1870  0.0829 -0.0088
 6106W        W 9625   8.186   3.140   8.852 -0.0072 -0.2205 -0.0418
 6107W        W 9626   1.992   3.826  11.649 -0.3534 -0.0481 -0.1370
 6108W        W 9627   1.317   6.444  11.317  0.2815 -0.0494 -0.1041
 6109W        W 9628   6.648   3.151   2.737 -0.0680  0.1307 -0.0100
 6110W        W 9629   0.594   6.261   0.200 -0.0899 -0.0619  0.2244
 6111W        W 9630   8.292   1.158  10.183 -0.3459 -0.1126  0.1401
 6112W        W 9631   5.119   8.606   3.024  0.0365  0.0372  0.2067
 6113W        W 9632   3.682   5.086   8.386  0.0416 -0.3242  0.0400
 6114W        W 9633   9.301   9.436  11.753 -0.1995  0.1228  0.0673
 6115W        W 9634   4.139   8.409   0.134 -0.0511 -0.0141  0.2983
 6116W        W 9635   0.467   8.533  11.492 -0.0640  0.0752 -0.1238
 6117W        W 9636   4.063   6.198  11.213  0.1619 -0.2979  0.4489
 6118W        W 9637   6.765   2.047   2.356  0.5239  0.2233 -0.3033
 6119W        W 9638   4.785   7.885   3.572 -0.1134  0.2881  0.0264
 6120W        W 9639   1.545   1.666   0.073 -0.2781 -0.0792 -0.1710
 6121W        W 9640   1.033   8.734  10.253 -0.1165 -0.4259 -0.1608
 6122W        W 9641   4.501   9.085   8.973  0.2515 -0.1026 -0.0232
 6123W        W 9642   2.015   9.073  11.033 -0.0713  0.2852 -0.0728
 6124W        W 9643   7.718   9.486   9.824  0.0051  0.2022 -0.4914
 6125W        W 9644   2.570   6.841   2.226  0.2560 -0.4581 -0.1633
 6126W        W 9645   6.366   4.418   0.605  0.0030 -0.0571  0.0041
 6127W        W 9646   0.443   3.998   0.135 -0.4080 -0.1111 -0.0419
 6128W        W 9647   6.368   8.637   8.810 -0.1064  0.0714  0.0039
 6129W        W 9648   2.651   0.235  10.979 -0.1446  0.0397 -0.0680
 6130W        W 9649   4.824   2.207   2.480  0.2169 -0.0921  0.1647
 6131W        W 9650   5.133   2.665   2.396  0.3881 -0.0201  0.0187
 6132W        W 9651   5.210   3.588  11.549 -0.3971 -0.3081  0.2174
 6133W        W 9652   7.663   7.537   3.399 -0.1063 -0.1871 -0.1461
 6134W        W 9653   7.544   0.293  11.259  0.3744 -0.0269  0.1638
 6135W        W 9654   3.024   1.437  10.398  0.2842 -0.0769 -0.3273
 6136W        W 9655   1.200   8.816   9.709 -0.0668 -0.0372  0.3050
 6137W        W 9656   2.837   2.283   9.519  0.1302 -0.4841 -0.2135
 6138W        W 9657   6.985   3.337   2.339  0.0963  0.1609  0.0480
 6139W        W 9658   4.192   6.486   1.755 -0.2887 -0.2985 -0.1676
 6140W        W 9659   1.035   1.520  11.282  0.0881  0.1118 -0.2295
 6141W        W 9660   1.534   6.999   9.932 -0.0009  0.0984  0.0181
 6142W        W 9661   0.495   1.380   3.565 -0.1333  0.2976  0.1610
 6143W        W 9662   3.588   5.714   4.317  0.2605  0.2682  0.3153
 6144W        W 9663   5.933   4.538  11.784 -0.0206  0.1547 -0.0932
 6145W        W 9664   2.005   2.208   2.955 -0.5444 -0.1638  0.1131
 6146W        W 9665   5.378   6.320   9.444 -0.2831 -0.0741 -0.0721
 6147W        W 9666   7.554   3.321   3.609  0.0419 -0.1305 -0.0264
 6148W        W 9667   8.194   9.334  11.700 -0.0614  0.0901 -0.2767
 6149W        W 9668   0.518   6.071   1.581 -0.0945  0.0195 -0.1863
 6150W        W 9669   1.092   8.277   0.241 -0.2353  0.0650  0.3078
 6151W        W 9670   7.888   8.724  10.729 -0.1444  0.1867  0.0596
 6152W        W 9671   8.490   1.729  11.334 -0.3841 -0.2450 -0.0028
 6153W        W 9672   1.429   1.533   3.160 -0.0478  0.1087  0.1615
 6154W        W 9673   7.608   9.213  10.652 -0.0614  0.1218  0.1521
 6155W        W 9674   8.634   7.496   2.341  0.0491  0.3682 -0.0798
 6156W        W 9675   5.393   7.926   0.484 -0.0602 -0.0810  0.2460
 6157W        W 9676   5.217   6.994  10.790 -0.4635 -0.5883  0.0825
 6158W        W 9677   1.049   8.255   3.650 -0.0826 -0.3691 -0.4984
 6159W        W 9678   2.517   5.530   0.707  0.0037  0.0326  0.1011
 6160W        W 9679   1.410   3.621   3.747  0.2422 -0.4485  0.0951
 6161W        W 9680   8.480   7.048  11.102  0.0588  0.3344 -0.0527
 6162W        W 9681   8.255   3.031  12.352  0.0170 -0.0883 -0.1057
 6163W        W 9682   6.123   5.233   2.140 -0.3102  0.0631 -0.3085
 6164W        W 9683   5.501   4.500  11.421 -0.3203  0.5057 -0.1643
 6165W        W 9684   0.180   6.983   3.996 -0.0044  0.0216  0.1841
 6166W        W 9685   5.206   7.670  11.861 -0.1092  0.0501 -0.0721
 6167W        W 9686   4.772   9.664   0.513  0.1455  0.0493  0.2131
 6168W        W 9687   2.012   8.548  12.053 -0.1209  0.0797 -0.5275
 6169W        W 9688   6.227   8.552   0.163 -0.0474  0.0843 -0.1430
 6170W        W 9689   4.330   6.342  10.763  0.0533 -0.0529 -0.1560
 6171W        W 9690   1.692   7.695  11.481  0.1247  0.0987 -0.0339
 6172W        W 9691   0.099   1.267   2.502  0.4186 -0.1733  0.0563
 6173W        W 9692   1.977   4.731   8.617 -0.0361  0.1748  0.0517
 6174W        W 9693   0.194   5.246   9.386  0.1300 -0.2447 -0.1657
 6175W        W 9694   5.557   1.777   9.213 -0.1116  0.1486  0.2009
 6176W        W 9695   2.552   3.242  11.262  0.2078 -0.0079  0.1383
 6177W        W 9696   6.705   4.233   3.357 -0.0674  0.1768 -0.1107
 6178W        W 9697   3.532   2.450   9.548 -0.3345  0.0656  0.0941
 6179W        W 9698   6.123   2.507  12.426  0.2665  0.0330  0.4931
 6180W        W 9699   0.762   3.189   2.170 -0.1321  0.3362 -0.1891
 6181W        W 9700   5.742   3.527  11.564 -0.2057 -0.0239  0.1647
 6182W        W 9701   8.432   3.919  11.620  0.0446 -0.0164  0.2312
 6183W        W 9702   9.161   1.768  12.451 -0.0249  0.0517 -0.1749
 6184W        W 9703   1.581   6.514   1.547  0.2542 -0.3465  0.0481
 6185W        W 9704   4.278   1.622  10.844 -0.1693  0.2231 -0.0625
 6186W        W 9705   8.077   9.474   3.097 -0.0773 -0.0955  0.0692
 6187W        W 9706   0.790   3.601   0.567  0.1123  0.1706 -0.0356
 6188W        W 9707   2.287   0.194   4.308  0.0851  0.1608 -0.1486
 6189W        W 9708   2.057   7.614  10.555  0.0989 -0.0214 -0.0304
 6190W        W 9709   1.698   5.176   8.590  0.2880  0.2102  0.0240
 6191W        W 9710   2.167   5.096  10.052  0.2797 -0.1733  0.2427
 6192W        W 9711   7.188   4.161   2.010  0.0519 -0.1591 -0.1188
 6193W        W 9712   3.167   3.795   8.959 -0.3690 -0.4218  0.2189
 6194W        W 9713   8.513   3.415  11.595 -0.0706  0.0423 -0.1061
 6195W        W 9714   1.353   1.055  11.041  0.2279 -0.2847  0.4077
 6196W        W 9715   7.688   2.513   9.367 -0.1629 -0.2356 -0.0493
 6197W        W 9716   7.643   3.680   9.375  0.0621  0.2216 -0.1412
 6198W        W 9717   8.108   7.325   3.279 -0.1121 -0.1551 -0.2627
 6199W        W 9718   4.455   2.384   4.009  0.0039 -0.0753  0.0028
 6200W        W 9719   7.832   0.452   0.914 -0.0100  0.2252  0.2371
 6201W        W 9720   5.406   1.271   9.326  0.1595  0.1789 -0.2373
 6202W        W 9721   1.944   6.433  12.239  0.1582  0.2932 -0.2936
 6203W        W 9722   0.631   7.552   2.645 -0.1009  0.2618 -0.5186
 6204W        W 9723   7.972   6.841   1.912  0.3053  0.2869 -0.2855
 6205W        W 9724   2.669   4.656  11.539  0.1437 -0.0162  0.1197
 6206W        W 9725   4.123   8.124   2.967  0.0743 -0.3821  0.1696
 6207W        W 9726   2.359   2.567   1.455  0.0751 -0.1623 -0.0920
 6208W        W 9727   8.158   6.323   0.938 -0.0778  0.2046  0.0170
 6209W        W 9728   5.075   3.708   4.223 -0.1935  0.1573  0.2334
 6210W        W 9729   1.754   3.305   8.968  0.0003  0.0677  0.0993
 6211W        W 9730   5.946   3.976  11.381  0.2406 -0.1320 -0.1837
 6212W        W 9731   5.975   9.265   2.963  0.0308 -0.1112 -0.2096
 6213W        W 9732   8.779   5.959  12.535 -0.4382  0.0934 -0.0877
 6214W        W 9733   4.067   3.918   8.993 -0.1964  0.4401  0.0678
 6215W        W 9734   9.288   2.853  11.035  0.0954 -0.0819  0.2281
 6216W        W 9735   6.866   7.732  10.889 -0.0533 -0.3589  0.0772
 6217W        W 9736   1.434   7.217   0.779  0.0660 -0.0590 -0.1857
 6218W        W 9737   7.976   8.021  10.081  0.0438  0.0753 -0.2142
 6219W        W 9738   0.995   8.853  12.130  0.0001 -0.0290 -0.0415
 6220W        W 9739   4.752   2.225   0.879 -0.2770 -0.1662  0.0736
 6221W        W 9740   7.555   5.054   4.207 -0.0364 -0.0599 -0.0852
 6222W        W 9741   9.641   9.482   9.924  0.2668  0.2190 -0.1146
 6223W        W 9742   6.117   6.962   0.817  0.1259  0.0433 -0.0455
 6224W        W 9743   1.448   4.320   1.532  0.0170 -0.0749  0.1989
 6225W        W 9744   0.115   0.954   0.784 -0.4231 -0.0995  0.2849
 6226W        W 9745   9.262   0.952   1.939 -0.1969  0.0931 -0.2165
 6227W        W 9746   4.157   4.639   3.954 -0.0908  0.0943  0.1450
 6228W        W 9747   9.663   7.031   8.772  0.2304 -0.1096 -0.2139
 6229W        W 9748   5.856   0.498   1.822  0.3555  0.2096 -0.2361
 6230W        W 9749   4.977   7.239   3.492 -0.2545 -0.3331  0.3163
 6231W        W 9750   0.379   3.694   8.824 -0.0235  0.6219 -0.0418
 6232W        W 9751   8.542   1.803   0.644  0.2720 -0.0592  0.3007
 6233W        W 9752   2.543   1.167   8.329  0.0590  0.0272 -0.2796
 6234W        W 9753   5.150   7.296  10.358 -0.2909  0.0542 -0.2131
 6235W        W 9754   0.706   4.390   8.306  0.1344  0.1686  0.2338
 6236W        W 9755   4.753   1.974  11.921  0.2949 -0.0125 -0.0029
 6237W        W 9756   7.219   5.850   1.072  0.0209 -0.1836  0.1201
 6238W        W 9757   4.183   3.484   1.905  0.0794  0.2263 -0.0802
 6239W        W 9758   5.442   9.627   8.701  0.2722  0.0314 -0.1605
 6240W        W 9759   5.289   8.559   1.308  0.2457 -0.0931 -0.1005
 6241W        W 9760   5.972   6.291   0.419 -0.2665 -0.0535  0.1793
 6242W        W 9761   2.835   0.250   0.003  0.1037 -0.2109 -0.0817
 6243W        W 9762   3.471   4.239   1.153 -0.0798  0.1801 -0.1098
 6244W        W 9763   7.488   7.281   9.810 -0.3666  0.0611  0.3500
 6245W        W 9764   2.955   1.173  10.828 -0.0789 -0.3348  0.3411
 6246W        W 9765   4.909   6.949  12.150 -0.1671  0.0822 -0.1541
 6247W        W 9766   8.696   5.835   3.074 -0.0110  0.0322 -0.0074
 6248W        W 9767   9.227   2.107   3.057 -0.0357 -0.4542 -0.1072
 6249W        W 9768   8.549   2.730  11.511 -0.0635  0.1193  0.0966
 6250W        W 9769   8.827   9.464   3.037  0.0794 -0.1354 -0.4046
 6251W        W 9770   5.945   0.582  11.200  0.2626  0.2893 -0.0615
 6252W        W 9771   9.167   3.936  12.532  0.1441 -0.3243  0.3261
 6253W        W 9772   8.951   3.431  12.230  0.0287  0.0052 -0.1173
 6254W        W 9773   5.016   6.734   9.640 -0.1808  0.1019 -0.1304
 6255W        W 9774   3.270   3.941   2.884 -0.0447  0.1280 -0.4169
 6256W        W 9775   8.407   0.898  11.422  0.0065  0.0097  0.0174
 6257W        W 9776   4.355   0.080   3.741 -0.2138  0.1615 -0.0362
 6258W        W 9777   4.544   1.610   8.918  0.1108  0.2328  0.5937
 6259W        W 9778   9.308   4.040   9.186  0.3075 -0.1891  0.4476
 6260W        W 9779   2.647   3.311   9.462 -0.2855  0.2736  0.5281
 6261W        W 9780   4.094   6.330   3.843 -0.1183  0.0912  0.0815
 6262W        W 9781   0.944   6.195  10.185  0.2225  0.1299  0.0650
 6263W        W 9782   1.549   1.030   3.137 -0.2505 -0.0598  0.3194
 6264W        W 9783   2.270   4.000   9.090 -0.1978  0.0719 -0.0202
 6265W        W 9784   0.894   2.086   2.933  0.4772 -0.1604 -0.3963
 6266W        W 9785   6.627   9.665  10.829  0.1206 -0.0804  0.1930
 6267W        W 9786   6.592   4.971   9.732  0.0344 -0.1210 -0.0346
 6268W        W 9787   7.712   3.175   8.907 -0.0380  0.1499 -0.2053
 6269W        W 9788   7.536   7.971   4.101 -0.3024 -0.0577  0.0338
 6270W        W 9789   7.646   8.935  11.122  0.0569 -0.2090  0.2159
 6271W        W 9790   7.707   1.323  11.417 -0.0883 -0.1276  0.0485
 6272W        W 9791   5.664   4.416   2.293  0.1559  0.1481 -0.0019
 6273W        W 9792   3.044   5.325  10.985 -0.0277  0.1403 -0.0025
 6274W        W 9793   2.717   2.931   1.247 -0.1372  0.1735 -0.0102
 6275W        W 9794   5.149   7.504   9.054 -0.4646  0.2169 -0.1994
 6276W        W 9795   4.315   3.164   2.379 -0.2224 -0.0585  0.0797
 6277W        W 9796   3.121   1.510   1.565 -0.1487  0.0945  0.1211
 6278W        W 9797   4.905   8.978   1.973  0.1210 -0.2433 -0.0767
 6279W        W 9798   1.919   4.360   2.724 -0.2081 -0.1945 -0.0197
 6280W        W 9799   9.639   3.103  10.189  0.0957 -0.1651 -0.0498
 6281W        W 9800   5.324   8.414  12.211 -0.2668  0.0392 -0.3040
 6282W        W 9801   2.373   7.545  11.785 -0.3225 -0.1258  0.3339
 6283W        W 9802   1.560   9.662   3.196 -0.1187  0.2029  0.1660
 6284W        W 9803   9.547   1.608   9.571 -0.1755  0.3244  0.2065
 6285W        W 9804   7.412   2.174   9.555  0.0113 -0.0838 -0.4587
 6286W        W 9805   2.266   7.798   0.631  0.1718 -0.2334 -0.1904
 6287W        W 9806   0.308   7.540  10.357 -0.0737  0.3070  0.1696
 6288W        W 9807   7.609   4.820  10.778 -0.3672 -0.0055 -0.0794
 6289W        W 9808   6.653   1.543   0.690 -0.1003 -0.0999 -0.0965
 6290W        W 9809   8.297   4.290   2.266  0.2273  0.0119 -0.1474
 6291W        W 9810   2.705   5.908   0.395 -0.0520 -0.2885 -0.0643
 6292W        W 9811   4.609   9.117   2.458 -0.1874  0.1928  0.3675
 6293W        W 9812   0.243   7.301  12.472 -0.1284  0.0405 -0.1518
 6294W        W 9813   6.349   2.356   1.117  0.0656 -0.0098 -0.1039
 6295W        W 9814   0.359   2.739   2.350 -0.3331 -0.1501 -0.0187
 6296W        W 9815   3.740   1.016   9.113 -0.1342  0.1785 -0.0630
 6297W        W 9816   9.187   7.288   9.021 -0.0183 -0.0209  0.0500
 6298W        W 9817   3.997   5.649   3.022 -0.0866 -0.1311  0.0837
 6299W        W 9818   2.363   1.393   9.943  0.0181  0.2152  0.1760
 6300W        W 9819   7.898   2.198   8.782  0.1857 -0.2883 -0.1326
 6301W        W 9820   0.114   8.572  12.146  0.0010 -0.2949 -0.3722
 6302W        W 9821   2.514   4.386   4.885 -0.1283  0.4689 -0.2462
 6303W        W 9822   7.383   7.265   3.763  0.0874 -0.1999 -0.1807
 6304W        W 9823   5.476   5.657   2.499 -0.0538  0.0656  0.0628
 6305W        W 9824   4.239   0.068   1.440  0.2353 -0.2156 -0.0976
 6306W        W 9825   5.532   2.596   2.865 -0.2273  0.0892 -0.3026
 6307W        W 9826   2.685   7.453   0.927 -0.2601 -0.3159 -0.1139
 6308W        W 9827   6.527   7.374  11.136  0.0238 -0.0004 -0.2412
 6309W        W 9828   2.347   2.286  12.203  0.1231 -0.0984  0.0425
 6310W        W 9829   0.947   4.087   1.454  0.1757  0.2554  0.1475
 6311W        W 9830   6.357   3.945   3.505  0.0257  0.1812 -0.0174
 6312W        W 9831   5.493   3.774   9.848  0.2722 -0.2425  0.1594
 6313W        W 9832   2.702   7.604   3.941 -0.0037  0.0235 -0.2183
 6314W        W 9833   5.666   0.902  10.963  0.3261  0.0579  0.0439
 6315W        W 9834   8.523   8.966   3.734  0.0669  0.1656 -0.3861
 6316W        W 9835   4.625   3.729  11.475 -0.2266 -0.0121  0.0168
 6317W        W 9836   8.879   0.934  11.294 -0.2965 -0.2719 -0.0859
 6318W        W 9837   0.644   6.894   3.993 -0.1209 -0.1843 -0.2367
 6319W        W 9838   6.561   6.583   8.857  0.1690  0.2913 -0.2271
 6320W        W 9839   8.257   4.381   1.293  0.0219 -0.2899  0.0266
 6321W        W 9840   4.695   0.426  10.711 -0.2353 -0.0909 -0.1142
 6322W        W 9841   3.904   9.686  12.327  0.1043 -0.2934  0.1117
 6323W        W 9842   1.153   2.738  12.436 -0.1621 -0.0400 -0.0486
 6324W        W 9843   0.840   6.683   8.323 -0.0180 -0.0796 -0.1130
 6325W        W 9844   6.493   9.465   0.398  0.2493  0.1263 -0.1729
 6326W        W 9845   0.997   5.884   2.899  0.0518 -0.0699 -0.0405
 6327W        W 9846   1.669   7.681  10.962 -0.0311 -0.1380  0.0467
 6328W        W 9847   0.747   5.045   3.942  0.2179 -0.1213  0.1774
 6329W        W 9848   0.019   6.969   1.894  0.1807  0.1207  0.3590
 6330W        W 9849   7.521   0.913   2.135 -0.0106 -0.2264 -0.2403
 6331W        W 9850   4.195   7.346   2.349 -0.0807  0.0846 -0.1244
 6332W        W 9851   4.903   6.937   2.257  0.3859  0.4739  0.1944
 6333W        W 9852   0.677   7.345  12.060  0.2818 -0.2555  0.0180
 6334W        W 9853   6.372   4.628  12.014  0.0777 -0.2065 -0.0771
 6335W        W 9854   3.998   0.364   0.972 -0.0634  0.0950  0.0766
 6336W        W 9855   5.788   5.459   9.705 -0.0289  0.1807  0.2633
 6337W        W 9856   3.174   2.421   3.396 -0.1267  0.2054 -0.1600
 6338W        W 9857   1.984   3.014   3.062 -0.0531 -0.1339 -0.0670
 6339W        W 9858   5.858   6.278  12.498  0.1317  0.0536  0.1063
 6340W        W 9859   9.623   1.807  12.285  0.2368  0.0209  0.2329
 6341W        W 9860   5.066   0.270  12.133 -0.0331 -0.0463 -0.0619
 6342W        W 9861   2.432   8.187   9.387 -0.0299  0.0826  0.0513
 6343W        W 9862   7.520   7.156  11.076 -0.1035 -0.0568 -0.3227
 6344W        W 9863   8.251   6.011   3.261 -0.3578  0.1282 -0.0735
 6345W        W 9864   8.171   5.516   1.254  0.2296 -0.1793  0.2307
 6346W        W 9865   8.508   8.433   0.832  0.0223  0.2501  0.1074
 6347W        W 9866   0.070   8.530   1.016 -0.3389 -0.0306  0.4346
 6348W        W 9867   4.964   7.970   2.309  0.2045  0.1045 -0.3397
 6349W        W 9868   7.599   3.423  10.580  0.2809 -0.0160 -0.1238
 6350W        W 9869   0.998   3.769  10.557  0.0762 -0.4698 -0.2154
 6351W        W 9870   3.657   6.724   2.285  0.0510 -0.1752  0.1148
 6352W        W 9871   8.885   8.552   8.290 -0.0193 -0.0518 -0.0177
 6353W        W 9872   9.522   4.115   3.863 -0.0651 -0.0456  0.0752
 6354W        W 9873   8.394   9.233   9.569 -0.1170  0.2130 -0.1819
 6355W        W 9874   2.126   6.639  11.761 -0.1559 -0.1109  0.0856
 6356W        W 9875   2.212   0.533  11.050 -0.2296  0.0163  0.0423
 6357W        W 9876   3.914   2.028   1.964 -0.2622 -0.2418  0.2500
 6358W        W 9877   3.948   8.520   9.546  0.6671  0.0583 -0.2853
 6359W        W 9878   0.691   9.418  11.100  0.0413 -0.1499 -0.1377
 6360W        W 9879   2.944   7.043   0.589  0.0523 -0.0024 -0.0348
 6361W        W 9880   0.382   1.288   2.011  0.1905  0.2793 -0.4038
 6362W        W 9881   1.497   4.998   3.863 -0.0442  0.1058 -0.0437
 6363W        W 9882   8.277   8.745   9.387  0.0928 -0.0252  0.2197
 6364W        W 9883   0.832   0.152   0.555 -0.1180  0.0436  0.1833
 6365W        W 9884   3.544   6.404  11.937  0.1218 -0.0132 -0.0086
 6366W        W 9885   3.807   1.456  12.070 -0.0499 -0.1227  0.2083
 6367W        W 9886   0.986   4.513   8.731  0.1789 -0.2327 -0.2017
 6368W        W 9887   7.817   2.355   3.728 -0.1298 -0.3095 -0.0509
 6369W        W 9888   3.479   7.237   1.379  0.1499 -0.1039  0.3329
 6370W        W 9889   0.571   3.371   1.237  0.0286  0.4849 -0.3208
 6371W        W 9890   8.727   5.297   3.108 -0.0197 -0.0027 -0.0930
 6372W        W 9891   2.901   9.430   1.480 -0.1225  0.0701  0.0253
 6373W        W 9892   1.012   3.173   0.777 -0.3231  0.1465 -0.0603
 6374W        W 9893   4.586   0.484  12.244  0.2413 -0.1744 -0.3545
 6375W        W 9894   0.438   9.504   1.411 -0.0056  0.0043 -0.1500
 6376W        W 9895   7.248   6.059   3.302 -0.0396  0.0457  0.1150
 6377W        W 9896   3.203   8.606   0.533  0.1321 -0.1234  0.1362
 6378W        W 9897   2.391   9.531   9.557  0.0142  0.1865 -0.0097
 6379W        W 9898   8.699   6.465  12.506  0.2395 -0.0987  0.3670
 6380W        W 9899   5.587   7.193   0.156  0.0295  0.2072 -0.2132
 6381W        W 9900   3.976   2.583   1.230 -0.2160  0.3986  0.3861
 6382W        W 9901   4.817   5.643   0.050  0.0487  0.0915  0.1344
 6383W        W 9902   7.099   6.361  10.333  0.1180 -0.0171  0.0092
 6384W        W 9903   3.585   2.220   1.169  0.0986 -0.0198  0.0761
 6385W        W 9904   8.122   2.308   1.075 -0.1660  0.0960  0.0245
 6386W        W 9905   6.561   0.212   3.168  0.0455  0.0853 -0.1169
 6387W        W 9906   6.904   8.561   4.313 -0.1037 -0.0667  0.0901
 6388W        W 9907   5.066   4.757  11.320  0.0428 -0.0892  0.1719
 6389W        W 9908   8.632   6.332  11.677  0.1783 -0.2225 -0.0253
 6390W        W 9909   7.852   8.969  10.187  0.0692 -0.2787  0.0789
 6391W        W 9910   0.664   6.441   8.773  0.1173 -0.1076  0.0255
 6392W        W 9911   4.616   1.649   9.596 -0.0444 -0.4084  0.2143
 6393W        W 9912   7.395   5.404   8.755 -0.2121 -0.3661  0.0722
 6394W        W 9913   4.615   6.327   0.921 -0.1920  0.2010 -0.2476
 6395W        W 9914   0.965   3.240  12.378  0.3724  0.2099  0.0450
 6396W        W 9915   0.250   3.316   8.422  0.0266 -0.2938  0.0456
 6397W        W 9916   0.313   7.001   9.327 -0.2524  0.0855 -0.0147
 6398W        W 9917   2.614   3.103   0.159 -0.1772 -0.3170  0.3184
 6399W        W 9918   2.356   9.456   1.196  0.4216  0.2036 -0.2125
 6400W        W 9919   0.571   4.441   1.539  0.0094 -0.0306  0.1466
 6401W        W 9920   8.591   9.202   1.240  0.1057 -0.0870 -0.0950
 6402W        W 9921   3.120   7.745   3.050  0.1839 -0.3345 -0.2428
 6403W        W 9922   2.766   8.293   1.436 -0.0016 -0.0294  0.0588
 6404W        W 9923   2.565   5.183  11.293  0.0201 -0.2084 -0.1698
 6405W        W 9924   0.066   4.156  10.512  0.3748  0.1389  0.1951
 6406W        W 9925   9.408   7.320   8.394  0.0266  0.1324  0.2663
 6407W        W 9926   2.281   1.029  11.299  0.1587 -0.0797 -0.2090
 6408W        W 9927   2.835   4.663   3.654 -0.1127  0.1609  0.0655
 6409W        W 9928   8.540   3.121   9.361  0.2064  0.2330 -0.0824
 6410W        W 9929   1.346   3.512  10.227  0.0770  0.1056  0.1122
 6411W        W 9930   6.055   5.281   1.626  0.1732 -0.3130  0.0062
 6412W        W 9931   3.695   4.004  11.443 -0.0615 -0.4051 -0.1134
 6413W        W 9932   8.940   3.293   4.196  0.0837  0.2272 -0.2082
 6414W        W 9933   6.751   6.970   0.188  0.0460 -0.0076 -0.0036
 6415W        W 9934   6.106   0.040   3.201  0.0872  0.1204 -0.0642
 6416W        W 9935   7.152   3.778   0.564  0.0560 -0.1333  0.1306
 6417W        W 9936   0.703   4.110   4.984  0.0949  0.1403 -0.0744
 6418W        W 9937   7.426   2.278   8.725 -0.1312 -0.3128  0.3030
 6419W        W 9938   5.268   3.171   2.164 -0.0864 -0.1004  0.0505
 6420W        W 9939   2.992   2.099  11.092 -0.3227  0.1360 -0.4336
 6421W        W 9940   5.935   5.803   1.585  0.1673  0.0063  0.1469
 6422W        W 9941   1.030   9.047  10.747 -0.1057 -0.0314 -0.0167
 6423W        W 9942   7.729   4.400   1.608 -0.0005  0.4258  0.0351
 6424W        W 9943   3.380   4.718  10.167  0.1301  0.2317  0.0437
 6425W        W 9944   5.693   2.657  11.455  0.1226  0.0655 -0.2151
 6426W        W 9945   1.504   1.298  10.265  0.2356  0.1928  0.0019
 6427W        W 9946   8.420   0.973   1.311 -0.2556 -0.1208 -0.0138
 6428W        W 9947   5.322   0.440   0.128 -0.4241 -0.4040 -0.1449
 6429W        W 9948   9.577   4.508   2.231  0.2388  0.0168  0.0434
 6430W        W 9949   9.364   0.836  12.525 -0.0443 -0.1506 -0.0135
 6431W        W 9950   4.888   1.412   9.248 -0.0620 -0.3796  0.1159
 6432W        W 9951   1.200   5.998   2.321 -0.1526 -0.1696  0.0158
 6433W        W 9952   2.145   4.166   3.818 -0.2162  0.0091  0.0317
 6434W        W 9953   5.753   6.685   4.110 -0.2595  0.0515 -0.2076
 6435W        W 9954   7.152   1.347   2.831 -0.0945  0.0895  0.0566
 6436W        W 9955   5.674   8.892   3.386  0.1413 -0.2768  0.3535
 6437W        W 9956   5.449   1.775   1.480  0.1360  0.1788 -0.1801
 6438W        W 9957   5.832   8.413   5.014 -0.0185  0.2367  0.2700
 6439W        W 9958   7.022   2.834   1.927 -0.2330 -0.1929  0.2666
 6440W        W 9959   8.187   2.999  11.832 -0.0804  0.0019 -0.0650
 6441W        W 9960   5.173   5.337  11.402  0.2157 -0.0694  0.3708
 6442W        W 9961   6.907   7.836   1.962 -0.2382 -0.2408 -0.0078
 6443W        W 9962   9.555   5.585  10.790  0.0035  0.0792  0.0048
 6444W        W 9963   3.802   2.770  11.399  0.0831 -0.2913 -0.1405
 6445W        W 9964   3.699   7.178   3.505 -0.0572  0.2604 -0.2198
 6446W        W 9965   2.942   3.513  11.390 -0.0955  0.0346  0.0115
 6447W        W 9966   9.192   7.539  11.804  0.2122 -0.1881 -0.0078
 6448W        W 9967   5.681   1.294  11.793 -0.2231 -0.0683  0.0272
 6449W        W 9968   5.083   9.338   3.026  0.1651  0.0415 -0.1949
 6450W        W 9969   2.351   1.944   2.097  0.0516  0.4201  0.0453
 6451W        W 9970   8.801   0.632   2.031  0.1278 -0.2700 -0.2182
 6452W        W 9971   2.793   8.546  10.818 -0.1002 -0.2865 -0.1069
 6453W        W 9972   4.264   4.126   2.691  0.1671 -0.4005 -0.2639
 6454W        W 9973   0.261   3.168   3.147 -0.3164 -0.0916  0.2022
 6455W        W 9974   4.599   2.678   2.337  0.0448  0.4987  0.1150
 6456W        W 9975   6.001   5.724   9.347 -0.1847 -0.1248 -0.1287
 6457W        W 9976   5.897   6.039   2.157 -0.0603 -0.0729  0.1670
 6458W        W 9977   4.892   7.764   0.266 -0.1936  0.0630 -0.2273
 6459W        W 9978   3.782   3.507   4.544 -0.0182 -0.1987  0.0472
 6460W        W 9979   9.544   4.750  12.361  0.0555  0.1163  0.3350
 6461W        W 9980   9.283   5.732   0.650  0.1293  0.2748  0.0297
 6462W        W 9981   8.291   8.044  11.928  0.4120  0.0727 -0.0912
 6463W        W 9982   0.218   2.832  12.262  0.1736 -0.0336 -0.1233
 6464W        W 9983   9.088   6.278   0.858  0.3017 -0.1217  0.2142
 6465W        W 9984   3.732   8.510   9.055 -0.3201 -0.0315 -0.1268
 6466W        W 9985   4.370   1.859   8.519 -0.2229 -0.1003  0.0271
 6467W        W 9986   2.826   7.892   1.186 -0.2639  0.2129  0.2007
 6468W        W 9987   2.746   2.091   0.956 -0.3139  0.0489 -0.1308
 6469W        W 9988   3.190   1.010  12.556  0.1902  0.1703 -0.1248
 6470W        W 9989   5.315   6.891   0.493  0.0749  0.3304  0.0215
 6471W        W 9990   1.161   8.020   2.207  0.0746  0.2251  0.3830
 6472W        W 9991   7.485   7.098   0.624  0.0238 -0.0228  0.1530
 6473W        W 9992   4.644   3.823  12.313  0.1646  0.3223 -0.0175
 6474W        W 9993   7.445   8.022  11.424 -0.1336 -0.0474 -0.1223
 6475W        W 9994   6.189   0.388  10.159 -0.2723  0.1056  0.0457
 6476W        W 9995   7.096   0.027   8.519  0.2632 -0.0789 -0.2927
 6477W        W 9996   3.389   1.408   8.513 -0.0914  0.1863 -0.2378
 6478W        W 9997   4.507   3.353   1.528  0.2900  0.0511 -0.0919
 6479W        W 9998   2.896   6.128   3.888  0.0311 -0.2098  0.1558
 6480W        W 9999   1.275   9.574   0.624  0.1984 -0.0562 -0.1704
 6481W        W10000   4.981   6.557   2.778  0.1614 -0.0653 -0.0924
 6482W        W10001   2.780   3.614   2.895 -0.1583  0.1305 -0.4564
 6483W        W10002   1.050   0.264   1.428  0.1965 -0.1738 -0.1072
 6484W        W10003   8.369   0.699   0.841  0.1908 -0.3231 -0.2042
 6485W        W10004   2.965   2.929   9.249  0.1290  0.1066 -0.0078
 6486W        W10005   8.130   3.369  10.237 -0.1997 -0.2248 -0.1065
 6487W        W10006   4.236   4.707   7.877  0.1348 -0.4587 -0.3901
 6488W        W10007   7.232   8.567   3.212  0.4492  0.0344 -0.2981
 6489W        W10008   3.990   7.534   9.156 -0.0456 -0.1928 -0.0360
 6490W        W10009   5.228   8.298   9.003  0.0095  0.1326  0.0795
 6491W        W10010   6.512   5.731  11.971  0.1516 -0.0083  0.1421
 6492W        W10011   0.599   8.515   2.674  0.1409  0.1865 -0.2312
 6493W        W10012   3.664   4.740   1.296  0.0976 -0.0361  0.2749
 6494W        W10013   7.376   6.858   3.123  0.1614  0.1110 -0.2053
 6495W        W10014   6.755   3.349   1.375 -0.1024 -0.2513 -0.1627
 6496W        W10015   7.321   4.809   0.236  0.1752 -0.1907  0.1081
 6497W        W10016   2.669   0.101   9.940 -0.0020 -0.1116  0.1539
 6498W        W10017   1.680   4.285  10.000  0.1445  0.0089  0.1610
 6499W        W10018   8.380   6.141  12.089  0.1902  0.0504  0.3067
 6500W        W10019   1.898   5.407   3.050 -0.0765  0.0678  0.0243
 6501W        W10020   8.226   6.922   9.543 -0.0679 -0.1968  0.0146
 6502W        W10021   3.221   8.368   8.704  0.2195 -0.2274 -0.0973
 6503W        W10022   5.562   4.288  10.904  0.0275 -0.2887 -0.3961
 6504W        W10023   5.758   6.268   1.659  0.1234  0.2511  0.2577
 6505W        W10024   7.091   4.306   9.746 -0.0210  0.0468 -0.0310
 6506W        W10025   6.298   6.590  12.350  0.1603  0.0718 -0.0755
 6507W        W10026   8.016   2.234   2.001 -0.1265  0.3555  0.1842
 6508W        W10027   1.869   0.712  12.259  0.0257 -0.1417 -0.0672
 6509W        W10028   3.135   7.440   2.467 -0.1126 -0.0167 -0.1604
 6510W        W10029   1.451   5.506   0.748  0.1334  0.1247 -0.5582
 6511W        W10030   8.095   1.311   0.602 -0.0168 -0.0561 -0.0140
 6512W        W10031   5.047   7.668   0.825  0.1261  0.2138 -0.1315
 6513W        W10032   3.680   7.234  11.373  0.1042  0.0786 -0.0260
 6514W        W10033   8.932   0.087  10.483 -0.0732  0.0028 -0.0800
 6515W        W10034   2.297   9.107   9.782 -0.0085 -0.0303 -0.2982
 6516W        W10035   7.559   7.630   9.232  0.1353 -0.0037 -0.0560
 6517W        W10036   4.019   5.866   9.778 -0.3013 -0.1512 -0.1408
 6518W        W10037   5.575   8.094  11.840  0.1896 -0.0651  0.2317
 6519W        W10038   8.655   5.241   8.638 -0.3015  0.1233  0.1590
 6520W        W10039   4.626   3.645   2.593 -0.2411  0.0566  0.2052
 6521W        W10040   0.665   2.386  12.231 -0.1187 -0.1461 -0.2716
 6522W        W10041   2.537   0.804   8.707 -0.0192  0.2776  0.2049
 6523W        W10042   6.952   1.115   8.187  0.3146 -0.0092 -0.3942
 6524W        W10043   1.976   1.189  11.950  0.4176 -0.1172 -0.0715
 6525W        W10044   4.966   2.528   2.901 -0.3226  0.1477  0.1777
 6526W        W10045   3.840   3.849   3.554  0.1858 -0.1244  0.3535
 6527W        W10046   7.600   1.133   0.445  0.0927  0.0545  0.1413
 6528W        W10047   5.797   4.217   9.088 -0.1535  0.0498 -0.0629
 6529W        W10048   1.804   4.048  10.866 -0.1115 -0.1346  0.1278
 6530W        W10049   7.611   0.789  11.264 -0.2622  0.1518  0.4522
 6531W        W10050   3.224   6.496   9.579  0.0024 -0.1501  0.0854
 6532W        W10051   3.059   9.427   2.313  0.0631 -0.0383  0.2139
 6533W        W10052   5.826   4.818   9.092 -0.0677 -0.2426 -0.0023
 6534W        W10053   9.608   6.760  10.768  0.0810 -0.1695 -0.1943
 6535W        W10054   3.881   7.137   0.091 -0.0633 -0.1600  0.0007
 6536W        W10055   8.251   5.524  10.541 -0.0462  0.3191 -0.1219
 6537W        W10056   9.337   2.804   8.943  0.2470  0.0838  0.1915
 6538W        W10057   8.367   7.977   1.208  0.1435 -0.2317 -0.2046
 6539W        W10058   0.469   4.151  12.258  0.0761  0.1172  0.0938
 6540W        W10059   9.223   6.220  10.067  0.0834 -0.3298  0.2384
 6541W        W10060   1.361   5.579   9.435 -0.0852 -0.4917  0.1269
 6542W        W10061   1.958   3.896   1.000 -0.2708  0.2039  0.2188
 6543W        W10062   8.482   3.220   4.042 -0.2541  0.3318  0.0520
 6544W        W10063   5.146   5.725  12.145  0.0263  0.0699 -0.2043
 6545W        W10064   2.744   1.382  11.353  0.0369 -0.0385  0.2682
 6546W        W10065   8.719   1.739   1.814  0.2264 -0.0038 -0.1548
 6547W        W10066   4.642   5.962  10.587  0.0202 -0.2265 -0.0845
 6548W        W10067   4.403   6.909   8.891 -0.1975  0.0107  0.1508
 6549W        W10068   8.544   6.148   9.249  0.0152 -0.1328 -0.0798
 6550W        W10069   2.746   7.731   0.512 -0.1148  0.1738  0.0287
 6551W        W10070   3.132   4.473  11.461 -0.0495 -0.1265 -0.0039
 6552W        W10071   8.899   4.631   1.117  0.4138  0.1619  0.0089
 6553W        W10072   0.736   7.963   3.266  0.1210  0.2926 -0.0690
 6554W        W10073   7.744   5.781   1.718 -0.1539  0.1762 -0.0970
 6555W        W10074   8.842   2.192  10.596  0.2859 -0.0719 -0.1010
 6556W        W10075   9.645   7.381   9.180  0.1611  0.2930  0.1315
 6557W        W10076   7.666   5.245  12.058 -0.3354  0.0733  0.0893
 6558W        W10077   6.273   4.179  11.779  0.0858  0.2842 -0.0185
 6559W        W10078   3.897   1.150  10.563  0.4378 -0.2132 -0.2842
 6560W        W10079   6.117   9.641  12.545 -0.1428  0.0287  0.0971
 6561W        W10080   3.228   7.500   0.576 -0.1723 -0.1351 -0.0609
 6562W        W10081   7.801   1.176  10.058 -0.1909 -0.0544  0.0205
 6563W        W10082   5.808   2.990  10.945  0.2002 -0.0845  0.1474
 6564W        W10083   4.875   1.567   4.843 -0.4358  0.1393  0.0822
 6565W        W10084   8.578   4.852   9.961  0.0306  0.0497 -0.1187
 6566W        W10085   2.017   5.530   8.887 -0.2324  0.0532  0.0346
 6567W        W10086   8.876   1.824   0.969 -0.2627  0.1316 -0.0620
 6568W        W10087   4.594   4.688   9.920  0.2022 -0.2866 -0.4087
 6569W        W10088   1.975   5.211  10.542 -0.1988  0.0717 -0.1678
 6570W        W10089   0.943   7.161   2.403  0.3283  0.1877 -0.0580
 6571W        W10090   7.739   8.671   2.418  0.2276  0.0857  0.1724
 6572W        W10091   2.165   7.201   3.606  0.0890 -0.1184  0.2011
 6573W        W10092   5.063   8.043   1.386 -0.2849 -0.2887  0.0186
 6574W        W10093   2.608   3.331   1.484 -0.1019  0.2106 -0.0973
 6575W        W10094   4.442   8.714   1.594 -0.1122 -0.1400 -0.0807
 6576W        W10095   3.134   4.988   0.195 -0.0235 -0.1603 -0.0331
 6577W        W10096   2.742   7.464   2.067 -0.2639  0.0946  0.1929
 6578W        W10097   7.148   2.739   0.953  0.0622  0.1245  0.0963
 6579W        W10098   0.735   0.405   3.312 -0.0256 -0.0251 -0.0448
 6580W        W10099   8.818   9.652   1.250 -0.2090  0.2180 -0.1167
 6581W        W10100   9.655   2.422   2.480 -0.1024  0.0886 -0.0429
 6582W        W10101   7.072   1.840  10.253  0.1227 -0.1581  0.0337
 6583W        W10102   1.320   6.534  10.063  0.0828 -0.5058 -0.0128
 6584W        W10103   1.400   0.778   9.149  0.1473  0.1491 -0.1440
 6585W        W10104   2.750   6.203   4.354  0.1968 -0.4320 -0.2492
 6586W        W10105   4.288   5.986  10.244  0.0744 -0.0734  0.3564
 6587W        W10106   0.953   7.654  11.757  0.1679  0.2670 -0.2508
 6588W        W10107   1.165   8.256   9.645 -0.2058 -0.1290 -0.1437
 6589W        W10108   7.172   1.758   9.711 -0.0632 -0.0739  0.1607
 6590W        W10109   8.749   4.176   8.435  0.2031 -0.2053  0.0218
 6591W        W10110   3.679   1.808   3.829 -0.0066 -0.2994 -0.2246
 6592W        W10111   3.981   6.491   8.147  0.3064  0.1358  0.0223
 6593W        W10112   3.637   7.587   0.252  0.3002 -0.3238  0.1315
 6594W        W10113   9.531   5.333   8.594  0.2966  0.1520  0.2041
 6595W        W10114   1.373   9.152   3.542 -0.0580 -0.2544  0.1378
 6596W        W10115   8.822   0.981   1.639 -0.3941  0.0180  0.2463
 6597W        W10116   7.742   7.656  12.551 -0.3101  0.1549  0.0816
 6598W        W10117   0.041   6.235   9.904  0.1933 -0.4476 -0.0526
 6599W        W10118   6.371   9.096   8.464 -0.2438  0.0296  0.3160
 6600W        W10119   5.576   8.596   2.935 -0.0534 -0.0622  0.2987
 6601W        W10120   3.763   3.998   2.659 -0.0695  0.1776 -0.1370
 6602W        W10121   9.087   4.176   2.469  0.2722 -0.4790 -0.1231
 6603W        W10122   6.750   3.815   2.022  0.0640  0.1816 -0.2202
 6604W        W10123   9.528   8.509   9.993 -0.0136  0.3431 -0.1923
 6605W        W10124   6.523   1.873  10.978  0.3166  0.0377  0.0052
 6606W        W10125   5.825   5.412  11.608 -0.1896 -0.3248  0.1872
 6607W        W10126   8.792   4.058   4.706  0.1168 -0.3147 -0.2805
 6608W        W10127   2.873   0.482   1.831 -0.1296 -0.0310 -0.2565
 6609W        W10128   6.382   3.181   4.026 -0.4096 -0.0870 -0.0540
 6610W        W10129   2.847   4.341   9.308 -0.1059  0.0317 -0.1264
 6611W        W10130   4.975   8.333   3.403  0.0950 -0.2852  0.0261
 6612W        W10131   2.714   3.906  10.491 -0.0802 -0.1494 -0.2155
 6613W        W10132   0.003   1.142  11.235 -0.4103  0.0573  0.0971
 6614W        W10133   2.649   6.965   3.382  0.0430  0.1952  0.1566
 6615W        W10134   5.382   3.701   2.908 -0.0729 -0.0361 -0.1456
 6616W        W10135   5.283   2.738   4.152  0.0778  0.1808  0.4853
 6617W        W10136   5.638   7.488   2.169  0.0809  0.1363  0.1593
 6618W        W10137   8.308   0.279   1.978 -0.1314 -0.0707  0.1612
 6619W        W10138   5.022   3.497   9.917  0.0177  0.3162  0.1961
 6620W        W10139   2.904   2.894   3.364  0.1147 -0.1910 -0.2985
 6621W        W10140   8.940   1.180  12.198 -0.1289  0.0087  0.0067
 6622W        W10141   9.110   2.742  11.577 -0.0706 -0.1422  0.1746
 6623W        W10142   9.248   1.095  10.185  0.3134 -0.1487  0.1806
 6624W        W10143   7.318   5.231  10.955 -0.1375 -0.0412  0.0802
 6625W        W10144   0.964   2.102   1.083 -0.0071  0.1847  0.0313
 6626W        W10145   3.512   4.204  12.238 -0.0512 -0.0285 -0.0964
 6627W        W10146   9.173   1.223   2.907 -0.0090 -0.1051  0.0292
 6628W        W10147   6.897   4.107   1.496  0.0444  0.0494 -0.1218
 6629W        W10148   0.655   8.108   0.287 -0.0903 -0.0390 -0.0631
 6630W        W10149   2.597   4.662   9.948 -0.0777 -0.0461 -0.0880
 6631W        W10150   5.550   7.419  12.199 -0.0339 -0.1471  0.0137
 6632W        W10151   7.962   3.786   3.740  0.2917 -0.1027 -0.0785
 6633W        W10152   5.800   1.686   3.647  0.2859 -0.0775 -0.0465
 6634W        W10153   7.751   2.115  12.225  0.0133 -0.0454  0.2146
 6635W        W10154   2.071   8.474   0.007  0.3670  0.1728 -0.1311
 6636W        W10155   8.892   8.747   2.425  0.0378 -0.1588 -0.0234
 6637W        W10156   5.975   7.898  11.570 -0.0311 -0.1765 -0.0353
 6638W        W10157   2.637   1.430   0.831  0.1724 -0.0992 -0.0623
 6639W        W10158   7.315   4.257   0.558 -0.0189 -0.1371 -0.0623
 6640W        W10159   5.844   7.688   1.004  0.0346  0.4601  0.2335
 6641W        W10160   9.251   3.425   1.539  0.1513  0.3350 -0.3611
 6642W        W10161   4.540   3.500   9.710  0.2569  0.1935  0.0169
 6643W        W10162   7.142   7.449  11.768 -0.2289 -0.2750 -0.1507
 6644W        W10163   7.146   9.075  11.076  0.1645 -0.2991 -0.0670
 6645W        W10164   6.532   7.930   9.430 -0.4100  0.4496 -0.0974
 6646W        W10165   0.402   7.295   3.134 -0.1073  0.1895 -0.0160
 6647W        W10166   0.276   5.062   9.867 -0.1477  0.0916 -0.1227
 6648W        W10167   2.566   7.754   2.956 -0.3626  0.0199  0.2765
 6649W        W10168   9.642   7.983   0.976  0.0252  0.1296  0.2158
 6650W        W10169   6.769   6.871  12.286 -0.1164 -0.1893  0.1588
 6651W        W10170   1.757   7.456   2.430  0.1002 -0.2561 -0.1323
 6652W        W10171   6.854   1.033  10.017  0.0210  0.3256  0.1212
 6653W        W10172   4.107   4.711   3.058  0.1491  0.0036  0.0383
 6654W        W10173   6.450   4.009  12.359  0.1589 -0.0318 -0.4136
 6655W        W10174   6.519   2.329   4.609 -0.0231  0.3992  0.4759
 6656W        W10175   7.698   5.173   1.065 -0.1066 -0.3503 -0.0706
 6657W        W10176   0.497   6.089   3.003 -0.0192 -0.0426  0.1640
 6658W        W10177   5.431   7.458  10.770 -0.1122  0.0254  0.2619
 6659W        W10178   1.254   6.173   4.649 -0.0196  0.0318  0.0385
 6660W        W10179   5.023   0.959   8.424  0.3296  0.2264  0.1345
 6661W        W10180   4.272   3.834   2.318  0.2977  0.0149 -0.0930
 6662W        W10181   1.226   6.495   2.372  0.1286  0.0083 -0.0262
 6663W        W10182   2.259   5.935  11.450  0.1065 -0.2453 -0.4610
 6664W        W10183   4.376   6.857   9.412  0.0094 -0.2179  0.2059
 6665W        W10184   1.643   8.349   2.837 -0.2986  0.0216 -0.1702
 6666W        W10185   9.026   8.182   9.929  0.3029 -0.2753 -0.2333
 6667W        W10186   7.999   4.280  10.268 -0.1954  0.1341 -0.1690
 6668W        W10187   4.649   6.480   4.020 -0.0767 -0.1675 -0.1197
 6669W        W10188   4.883   1.226   2.562  0.0292 -0.1367  0.2331
 6670W        W10189   6.366   4.245   1.590 -0.0416 -0.0079  0.1083
 6671W        W10190   0.099   6.436  10.419 -0.1734  0.1477 -0.0327
 6672W        W10191   3.755   1.309   3.177 -0.4909 -0.3366  0.3252
 6673W        W10192   2.821   1.551   2.031 -0.0295 -0.1961  0.0133
 6674W        W10193   5.740   1.748  11.180  0.1058  0.4501 -0.0149
 6675W        W10194   4.713   8.302   8.965  0.0595  0.0784  0.0233
 6676W        W10195   1.000   2.360   1.935 -0.2105 -0.1803 -0.1273
 6677W        W10196   8.824   7.539  10.459 -0.0387 -0.3370  0.2371
 6678W        W10197   4.639   7.939   1.064 -0.1687  0.0002 -0.2296
 6679W        W10198   7.482   9.141  11.582 -0.1121 -0.2280  0.0324
 6680W        W10199   5.036   9.686  11.575  0.2856  0.3474 -0.2732
 6681W        W10200   7.285   7.107   7.887  0.1494  0.2563  0.2227
 6682W        W10201   8.108   1.782   9.341  0.2187  0.3169  0.3198
 6683W        W10202   3.296   9.080   3.627 -0.4154 -0.0900  0.0736
 6684W        W10203   2.734   1.609  11.926 -0.0620 -0.0876  0.0223
 6685W        W10204   0.280   2.206   0.417 -0.1807  0.3370  0.0809
 6686W        W10205   6.729   8.792  10.853  0.0346 -0.0261 -0.2876
 6687W        W10206   7.266   1.293   0.035  0.1531 -0.2687 -0.1611
 6688W        W10207   8.560   5.606   9.019 -0.0346 -0.0679  0.2987
 6689W        W10208   2.055   8.928   1.531  0.0100  0.1741 -0.1128
 6690W        W10209   7.032   4.393  10.429 -0.0554 -0.3238 -0.0030
 6691W        W10210   4.263   1.417   3.710 -0.1606  0.0257  0.2439
 6692W        W10211   5.221   1.807   4.560 -0.0595  0.1638  0.1781
 6693W        W10212   3.553   2.174   8.916 -0.0364 -0.0195 -0.2417
 6694W        W10213   2.686   3.325   8.919 -0.2558  0.2839 -0.2598
 6695W        W10214   2.844   5.864  11.788  0.1416 -0.1774 -0.0925
 6696W        W10215   4.015   0.104   8.197 -0.1924 -0.1894  0.0569
 6697W        W10216   2.456   5.488  10.320  0.3636  0.3082  0.1483
 6698W        W10217   0.240   6.283   1.250  0.3782  0.1255 -0.2275
 6699W        W10218   8.519   3.529   0.359 -0.2316 -0.0643  0.2234
 6700W        W10219   2.804   8.881   3.672  0.0850  0.1368  0.1820
 6701W        W10220   6.627   5.447   3.177  0.0442 -0.2366  0.1481
 6702W        W10221   9.480   8.584  12.560  0.2502 -0.1388  0.2333
 6703W        W10222   7.309   2.403   2.074 -0.1495 -0.0888 -0.1031
 6704W        W10223   6.839   8.775   1.893 -0.2397  0.0681 -0.0017
 6705ION    NA+10224   3.741   0.961   1.694  0.0085  0.1525  0.2925
 6706ION    NA+10225   0.536   1.868   0.734 -0.0401 -0.0029  0.0268
 6707ION    NA+10226   6.068   2.377   2.463  0.0425  0.0899 -0.1344
 6708ION    NA+10227   8.259   8.811   0.392 -0.1763 -0.1401 -0.0311
 6709ION    NA+10228   3.451   0.522   4.316  0.0282  0.4079 -0.1252
 6710ION    NA+10229   1.113   1.015   9.502  0.0400  0.3707 -0.5145
 6711ION    NA+10230   4.620   0.549   3.090  0.0213  0.1107  0.1543
 6712ION    NA+10231   6.618   3.453   8.321  0.1753 -0.1511  0.1180
 6713ION    NA+10232   4.153   5.657   8.114 -0.2340  0.0644  0.0457
 6714ION    NA+10233   1.929   3.193   9.451 -0.1060 -0.0447  0.1688
 6715ION    NA+10234   8.410   8.577   1.973 -0.0183 -0.1757 -0.1259
 6716ION    NA+10235   1.456   3.003   0.940  0.0001 -0.1323 -0.1243
 6717ION    NA+10236   2.857   4.557   2.674 -0.0441 -0.2087 -0.1948
 6718ION    NA+10237   0.086   4.429   4.799 -0.0163 -0.2215  0.1939
 6719ION    NA+10238   7.100   8.426  10.526  0.2771  0.0471  0.0476
 6720ION    NA+10239   2.021   1.550  10.745 -0.0114 -0.0358  0.0174
 6721ION    NA+10240   4.875   8.894   9.837 -0.1568 -0.0103  0.0706
 6722ION    NA+10241   2.923   3.496   0.245 -0.2341 -0.1982  0.1228
 6723ION    NA+10242   3.798   2.909  12.498 -0.1696 -0.1862 -0.1977
 6724ION    NA+10243   8.767   0.602   3.462  0.2244 -0.1337 -0.0906
 6725ION    NA+10244   3.457   9.540  10.442 -0.0165  0.1784  0.1616
 6726ION    NA+10245   4.904   7.841   9.979 -0.2469  0.1258  0.0699
 6727ION    NA+10246   9.346   4.448   3.519  0.1099 -0.0343 -0.0162
 6728ION    NA+10247   3.004   1.180   0.456  0.0633 -0.0930  0.1205
 6729ION    NA+10248   1.649   0.738   3.563 -0.1547  0.2536 -0.1849
 6730ION    NA+10249   3.739   6.755  12.328 -0.0864  0.1579 -0.1353
 6731ION    NA+10250   3.007   5.604   9.853  0.4385 -0.1491 -0.1656
 6732ION    NA+10251   5.136   4.468   4.446 -0.2598  0.2649 -0.0750
 6733ION    NA+10252   9.140   0.040   3.929 -0.0914 -0.4379 -0.3629
 6734ION    NA+10253   8.896   6.217   8.000  0.0967  0.0177  0.2133
 6735ION    NA+10254   8.229   6.082   9.678  0.2350  0.1598 -0.1962
 6736ION    NA+10255   9.277   0.298   1.203 -0.0968  0.1640  0.0461
 6737ION    NA+10256   4.438   0.132  11.017  0.1715 -0.0144 -0.1083
 6738ION    NA+10257   9.268   1.873   9.260  0.1654 -0.0253  0.0261
 6739ION    NA+10258   5.052   2.995   0.740 -0.0269  0.3807 -0.0473
 6740ION    NA+10259   3.282   5.065   1.812  0.2999 -0.1350 -0.0441
 6741ION    NA+10260   1.264   3.356   1.763 -0.3043  0.1527 -0.0659
 6742ION    NA+10261   6.785   8.835   8.609  0.1119 -0.1392 -0.3142
 6743ION    NA+10262   6.154   7.036  10.981 -0.2800 -0.1434  0.0191
 6744ION    NA+10263   2.858   8.102   8.282  0.0842  0.1924 -0.0124
 6745ION    NA+10264   4.878   8.602  12.401 -0.1766 -0.3413  0.2085
 6746ION    NA+10265   6.203   9.469  11.742  0.0649 -0.1961  0.3231
 6747ION    NA+10266   5.548   1.167   8.408  0.0694  0.0738  0.0243
 6748ION    NA+10267   0.736   4.967  10.725 -0.3045 -0.4194  0.2331
 6749ION    NA+10268   7.665   9.056   2.861 -0.0642 -0.0407 -0.1072
 6750ION    NA+10269   7.587   2.160   4.547  0.0200 -0.0511 -0.2468
 6751ION    NA+10270   7.787   5.555  10.062 -0.2541  0.1015  0.0217
 6752ION    NA+10271   8.794   4.860   4.624 -0.3084  0.1215 -0.1325
 6753ION    NA+10272   2.610   0.769   2.332  0.2981  0.1268  0.0902
 6754ION    NA+10273   5.202   6.949   8.304  0.0788  0.1075  0.0622
 6755ION    NA+10274   5.650   5.446  11.053  0.0617 -0.0375  0.2924
 6756ION    NA+10275   8.699   3.171   4.635 -0.0392 -0.1368  0.1323
 6757ION    NA+10276   1.553   5.817  12.001  0.0727  0.0689  0.0628
 6758ION    NA+10277   0.972   6.850   4.518 -0.2475 -0.3586  0.3048
 6759ION    NA+10278   9.123   2.241  11.656  0.4601  0.1818 -0.1786
 6760ION    NA+10279   7.516   6.548   2.138 -0.0847 -0.0909 -0.3071
 6761ION    NA+10280   3.462   3.901   2.094 -0.0424 -0.1504 -0.0316
 6762ION    NA+10281   0.233   5.445   4.919  0.0472 -0.2118 -0.2011
 6763ION    NA+10282   1.199   3.848  11.691  0.2391 -0.2037  0.1398
 6764ION    NA+10283   8.782   2.122   3.345  0.1727 -0.0176  0.0874
 6765ION    NA+10284   6.173   1.940   0.519 -0.1312 -0.1134  0.1671
 6766ION    NA+10285   6.574   6.360   9.678  0.2627  0.1030  0.0998
 6767ION    NA+10286   1.002   4.399   2.822  0.0927 -0.2168 -0.0094
 6768ION    NA+10287   6.466   5.049   1.802  0.1182  0.0464 -0.1278
 6769ION    NA+10288   2.833   3.352  11.876 -0.0045 -0.0751 -0.0653
 6770ION    NA+10289   9.315   3.173   3.855 -0.1023 -0.3339  0.0268
 6771ION    NA+10290   6.867   8.020   8.378 -0.1379  0.2194 -0.3130
 6772ION    NA+10291   4.558   3.968   7.989  0.0325  0.0350  0.0434
 6773ION    NA+10292   0.405   9.095   3.512  0.1937  0.0892 -0.0677
 6774ION    NA+10293   7.817   6.773  11.352 -0.0759  0.1063 -0.4945
 6775ION    NA+10294   6.268   7.281   4.754 -0.1607 -0.1905 -0.0176
 6776ION    CL-10295   2.382   4.500   2.659 -0.2389 -0.0699 -0.3474
 6777ION    CL-10296   6.082   1.802   9.204 -0.2411 -0.0240 -0.1651
 6778ION    CL-10297   3.111   2.519   2.203  0.2254 -0.3367  0.1839
 6779ION    CL-10298   2.086   8.726  10.003  0.2567 -0.0647  0.2669
 6780ION    CL-10299   6.153   8.069   1.047 -0.0761 -0.0537 -0.0998
 6781ION    CL-10300   6.832   0.346  11.322  0.0225 -0.1070  0.2920
 6782ION    CL-10301   4.350   0.542   3.532  0.0629 -0.3931  0.0993
 6783ION    CL-10302   1.599   3.003  11.468 -0.0674 -0.1462 -0.0223
 6784ION    CL-10303   0.571   5.601   2.883  0.0818  0.0358  0.0036
 6785ION    CL-10304   3.057   0.243  10.662 -0.0036 -0.1803  0.3516
 6786ION    CL-10305   6.145   9.435  11.213 -0.1428 -0.0039 -0.5036
 6787ION    CL-10306   8.585   7.564   3.439 -0.2185 -0.0654 -0.2190
 6788ION    CL-10307   4.402   0.027  10.502 -0.1754 -0.2131 -0.1077
 6789ION    CL-10308   6.779   0.204   9.485 -0.1383  0.1316 -0.2055
 6790ION    CL-10309   8.516   4.302  11.930  0.0765  0.1018  0.3441
 6791ION    CL-10310   8.065   9.237  12.539 -0.0921  0.2532 -0.1681
 6792ION    CL-10311   2.897   4.077   1.967 -0.0192  0.2014  0.0565
 6793ION    CL-10312   2.288   0.435   2.541 -0.0963  0.0332 -0.2274
 6794ION    CL-10313   6.583   3.607  10.217 -0.1183  0.2198  0.0738
 6795ION    CL-10314   2.333   2.760   0.943  0.0326  0.0618 -0.1170
 6796ION    CL-10315   7.088   6.260   1.890  0.2485  0.1009  0.1252
 6797ION    CL-10316   6.061   5.231  11.097 -0.1246 -0.1383 -0.1450
 6798ION    CL-10317   7.790   7.982   8.967  0.3558  0.1422  0.0170
 6799ION    CL-10318   5.153   7.620   9.615 -0.0533  0.3691  0.0266
 6800ION    CL-10319   8.287   6.539   9.043 -0.2638  0.1286  0.1530
 6801ION    CL-10320   5.863   9.309  12.140 -0.1810 -0.2359 -0.0663
 6802ION    CL-10321   6.437   7.293   3.908 -0.1464  0.1100 -0.2939
 6803ION    CL-10322   3.378   3.241   0.308  0.1025  0.0450 -0.0603
 6804ION    CL-10323   0.305   7.768   3.528  0.0610  0.2392  0.1079
 6805ION    CL-10324   3.212   0.498   3.898  0.3445 -0.0599 -0.0402
 6806ION    CL-10325   3.516   6.707   3.628  0.0554 -0.0676 -0.3362
 6807ION    CL-10326   4.412   7.009   3.676 -0.1010  0.2835  0.2798
 6808ION    CL-10327   5.769   6.683  10.770 -0.1986 -0.1426 -0.3589
 6809ION    CL-10328   1.542   2.880   9.552 -0.2607 -0.2635 -0.0512
 6810ION    CL-10329   5.850   6.730   1.474 -0.0796 -0.1099 -0.1058
 6811ION    CL-10330   3.981   0.536   1.525  0.2044  0.1362  0.1825
 6812ION    CL-10331   4.303   5.899   3.905  0.0845  0.0379  0.4550
 6813ION    CL-10332   4.056   4.308   1.311  0.0646 -0.2500  0.1247
 6814ION    CL-10333   1.147   8.218   9.130 -0.0534  0.0472 -0.1812
 6815ION    CL-10334   8.727   1.564   4.166 -0.2245 -0.0153 -0.0051
 6816ION    CL-10335   4.154   5.727   0.824 -0.2284 -0.1120  0.2043
 6817ION    CL-10336   8.974   2.134   0.570  0.0047  0.2716  0.2994
 6818ION    CL-10337   6.305   7.000  11.510  0.0498 -0.0348  0.0529
 6819ION    CL-10338   8.110   8.288   2.356 -0.0838  0.1239  0.0373
 6820ION    CL-10339   3.449   4.536   2.627 -0.1263 -0.0118 -0.0654
 6821ION    CL-10340   2.927   1.137   3.306  0.0789 -0.1546  0.0749
 6822ION    CL-10341   5.614   9.158   8.736  0.0719  0.1452 -0.2521
 6823ION    CL-10342   4.914   9.118  10.331 -0.0027  0.2528  0.1210
 6824ION    CL-10343   7.181   0.591  12.137  0.2320  0.2242 -0.0676
 6825ION    CL-10344   6.421   2.261   0.222  0.1111  0.0320 -0.2035
 6826ION    CL-10345   2.838   3.486  12.320  0.0537  0.3092  0.0380
 6827ION    CL-10346   8.995   0.753   3.011 -0.2027 -0.2659 -0.3763
 6828ION    CL-10347   4.645   5.021   8.832  0.3238 -0.2807  0.1654
 6829ION    CL-10348   4.843   8.334   9.971 -0.0194  0.0821 -0.3528
 6830ION    CL-10349   1.052   3.133   1.276  0.0453 -0.0951  0.2894
 6831ION    CL-10350   6.233   7.882   4.034  0.0059  0.2049  0.2353
 6832ION    CL-10351   9.220   1.911   3.507 -0.0331  0.1941  0.1863
 6833ION    CL-10352   5.613   2.559   1.491 -0.1545 -0.0932 -0.2182
 6834ION    CL-10353   8.585   6.379   3.185 -0.1204 -0.1220 -0.3960
 6835ION    CL-10354   0.728   6.567   0.649  0.1984 -0.0028 -0.1449
 6836ION    CL-10355   9.010   4.160   3.844  0.0187 -0.1562  0.0907
 6837ION    CL-10356   9.308   9.584   3.489  0.0251  0.2964 -0.0815
 6838ION    CL-10357   1.133   1.893   9.954 -0.2002 -0.1380  0.1021
 6839ION    CL-10358   5.243   3.743  10.291  0.0043  0.1266  0.1073
 6840ION    CL-10359   7.898   5.653   9.594  0.0833  0.1202 -0.1310
 6841ION    CL-10360   7.701   0.644   9.316 -0.1490  0.0888 -0.5362
 6842ION    CL-10361   6.263   2.860   2.556 -0.2489 -0.2305 -0.0276
 6843ION    CL-10362   7.860   0.804  10.377  0.3927  0.1019 -0.0436
 6844ION    CL-10363   8.372   9.597   3.809 -0.1045  0.1820  0.2737
 6845ION    CL-10364   1.253   4.877  10.511  0.3581 -0.2107 -0.0869
 6846ION    CL-10365   2.440   1.372  10.514 -0.0134 -0.3990 -0.1526
   9.68653   9.68653  12.58207
