Protein in INSANE! Membrane UpperLeaflet>POPC=1.0 LowerLeaflet>POPC=1.0
12914
    1AU     AUC    1   5.765   5.824   5.993
    1AU     AUC    2   5.889   5.793   5.919
    1AU     AUC    3   5.895   5.808   6.067
    1AU     AUC    4   5.610   5.820   5.917
    1AU     AUC    5   5.582   5.817   6.070
    1AU     AUC    6   5.677   5.978   6.005
    1AU     AUC    7   5.856   5.938   6.005
    1AU     AUC    8   5.637   5.698   5.970
    1AU     AUC    9   5.825   5.659   5.998
    1AU     AUC   10   5.725   5.749   6.157
    1AU     AUC   11   5.753   5.909   6.142
    1AU     AUC   12   5.728   5.737   5.855
    1AU     AUC   13   5.767   5.918   5.849
    1AU     AUC   14   6.020   5.796   5.820
    1AU     AUC   15   6.078   5.768   5.975
    1AU     AUC   16   6.020   5.785   6.170
    1AU     AUC   17   5.483   5.873   5.805
    1AU     AUC   18   5.422   5.853   6.024
    1AU     AUC   19   5.459   5.870   6.147
    1AU     AUC   20   5.607   6.090   5.999
    1AU     AUC   21   5.790   6.153   6.008
    1AU     AUC   22   5.932   6.083   6.002
    1AU     AUC   23   5.560   5.547   5.981
    1AU     AUC   24   5.663   5.521   6.025
    1AU     AUC   25   5.859   5.527   6.018
    1AU     AUC   26   5.739   5.677   6.276
    1AU     AUC   27   5.734   5.832   6.295
    1AU     AUC   28   5.807   6.005   6.267
    1AU     AUC   29   5.737   5.677   5.704
    1AU     AUC   30   5.745   5.810   5.676
    1AU     AUC   31   5.787   5.973   5.727
    1AU     AUC   32   5.937   5.729   6.241
    1AU     AUC   33   5.882   5.943   6.282
    1AU     AUC   34   5.890   5.700   5.724
    1AU     AUC   35   5.959   5.897   5.758
    1AU     AUC   36   5.547   5.694   6.230
    1AU     AUC   37   5.595   5.963   6.272
    1AU     AUC   38   5.591   5.747   5.699
    1AU     AUC   39   5.588   5.949   5.741
    1AU     AUC   40   6.028   6.002   5.908
    1AU     AUC   41   6.024   5.966   6.074
    1AU     AUC   42   5.497   5.969   5.858
    1AU     AUC   43   5.524   6.053   6.053
    1AU     AUC   44   5.966   5.609   5.885
    1AU     AUC   45   5.967   5.607   6.121
    1AU     AUC   46   5.482   5.619   5.823
    1AU     AUC   47   5.405   5.658   6.008
    1AU     AUC   48   5.659   6.077   6.152
    1AU     AUC   49   5.902   6.065   6.154
    1AU     AUC   50   5.636   5.578   6.194
    1AU     AUC   51   5.805   5.579   6.172
    1AU     AUC   52   5.701   6.068   5.819
    1AU     AUC   53   5.881   6.046   5.808
    1AU     AUC   54   5.655   5.556   5.812
    1AU     AUC   55   5.833   5.526   5.866
    1AU    AUSL   56   6.025   5.816   6.313
    1AU    AUSL   57   6.015   5.542   6.428
    1AU     AUL   58   6.081   5.838   6.470
    1AU       S   59   6.289   5.259   6.681
    1AU     LIG   60   6.370   4.942   6.983
    1AU     LIG   61   6.378   4.499   7.100
    1AU     LIG   62   6.608   4.169   7.316
    1AU     LIG   63   6.865   4.011   7.688
    1AU     LIG   64   6.883   3.746   8.088
    1AU       S   65   6.317   5.738   6.885
    1AU     LIG   66   6.435   5.429   7.258
    1AU     LIG   67   6.648   5.346   7.705
    1AU     LIG   68   6.894   5.339   8.129
    1AU     LIG   69   7.200   5.550   8.448
    1AU     LIG   70   7.542   5.585   8.783
    1AU    AUSL   71   5.796   5.725   6.429
    1AU    AUSL   72   5.592   5.914   6.385
    1AU     AUL   73   5.840   5.727   6.544
    1AU       S   74   6.011   5.786   7.024
    1AU     LIG   75   5.930   5.466   7.373
    1AU     LIG   76   6.153   5.208   7.720
    1AU     LIG   77   6.407   5.070   8.126
    1AU     LIG   78   6.445   4.873   8.582
    1AU     LIG   79   6.497   4.859   9.064
    1AU       S   80   5.399   5.950   6.991
    1AU     LIG   81   5.284   5.933   7.435
    1AU     LIG   82   5.223   5.746   7.872
    1AU     LIG   83   5.071   5.723   8.328
    1AU     LIG   84   5.093   5.948   8.768
    1AU     LIG   85   5.020   6.012   9.243
    1AU    AUSL   86   5.852   6.003   6.417
    1AU    AUSL   87   6.280   5.940   6.310
    1AU     AUL   88   5.877   6.013   6.560
    1AU       S   89   5.855   6.277   6.971
    1AU     LIG   90   6.062   6.506   7.338
    1AU     LIG   91   6.258   6.550   7.787
    1AU     LIG   92   6.279   6.550   8.284
    1AU     LIG   93   6.358   6.667   8.745
    1AU     LIG   94   6.649   6.701   9.108
    1AU       S   95   6.596   6.087   6.582
    1AU     LIG   96   6.937   6.266   6.830
    1AU     LIG   97   7.156   6.524   7.171
    1AU     LIG   98   7.435   6.647   7.551
    1AU     LIG   99   7.793   6.689   7.883
    1AU     LIG  100   8.207   6.879   8.039
    1AU    AUSL  101   6.064   5.843   5.691
    1AU    AUSL  102   6.007   6.073   5.530
    1AU     AUL  103   6.453   5.967   5.619
    1AU       S  104   6.350   5.822   5.092
    1AU     LIG  105   6.608   5.579   4.795
    1AU     LIG  106   6.726   5.547   4.334
    1AU     LIG  107   6.859   5.537   3.867
    1AU     LIG  108   7.203   5.440   3.533
    1AU     LIG  109   7.617   5.462   3.275
    1AU       S  110   6.155   6.341   5.185
    1AU     LIG  111   6.442   6.547   4.832
    1AU     LIG  112   6.805   6.684   4.506
    1AU     LIG  113   7.149   6.875   4.215
    1AU     LIG  114   7.397   7.054   3.842
    1AU     LIG  115   7.583   7.402   3.571
    1AU    AUSL  116   5.853   5.672   5.619
    1AU    AUSL  117   6.105   5.581   5.560
    1AU     AUL  118   6.199   5.856   5.606
    1AU       S  119   6.351   5.271   5.291
    1AU     LIG  120   6.648   5.083   5.006
    1AU     LIG  121   6.821   4.656   4.878
    1AU     LIG  122   7.113   4.376   4.606
    1AU     LIG  123   7.500   4.299   4.318
    1AU     LIG  124   7.936   4.370   4.127
    1AU       S  125   6.107   5.588   5.008
    1AU     LIG  126   6.227   5.246   4.725
    1AU     LIG  127   6.321   5.239   4.261
    1AU     LIG  128   6.439   5.242   3.792
    1AU     LIG  129   6.594   5.204   3.331
    1AU     LIG  130   6.778   5.110   2.888
    1AU    AUSL  131   5.980   5.816   5.428
    1AU    AUSL  132   5.730   5.728   5.366
    1AU     AUL  133   5.680   5.457   5.306
    1AU       S  134   5.623   5.820   4.931
    1AU     LIG  135   5.467   5.621   4.531
    1AU     LIG  136   5.228   5.414   4.155
    1AU     LIG  137   5.011   5.216   3.770
    1AU     LIG  138   4.977   5.025   3.324
    1AU     LIG  139   4.913   4.967   2.848
    1AU       S  140   6.116   5.868   4.997
    1AU     LIG  141   6.204   5.732   4.515
    1AU     LIG  142   6.343   5.709   4.032
    1AU     LIG  143   6.448   5.701   3.553
    1AU     LIG  144   6.446   5.837   3.091
    1AU     LIG  145   6.504   6.164   2.746
    1AU    AUSL  146   5.362   5.792   6.473
    1AU    AUSL  147   5.661   6.165   6.265
    1AU     AUL  148   5.619   5.903   6.558
    1AU       S  149   5.157   5.783   6.850
    1AU     LIG  150   4.932   5.610   7.229
    1AU     LIG  151   4.806   5.517   7.685
    1AU     LIG  152   4.616   5.511   8.127
    1AU     LIG  153   4.271   5.403   8.448
    1AU     LIG  154   3.914   5.495   8.752
    1AU       S  155   5.415   6.521   6.729
    1AU     LIG  156   5.327   6.597   7.169
    1AU     LIG  157   5.105   6.862   7.496
    1AU     LIG  158   4.816   7.175   7.724
    1AU     LIG  159   4.692   7.358   8.164
    1AU     LIG  160   4.572   7.489   8.619
    1AU    AUSL  161   5.574   5.615   6.542
    1AU    AUSL  162   5.213   5.649   6.291
    1AU     AUL  163   5.504   5.369   6.349
    1AU       S  164   4.914   5.446   6.508
    1AU     LIG  165   4.520   5.192   6.561
    1AU     LIG  166   4.298   4.888   6.848
    1AU     LIG  167   4.065   4.661   7.195
    1AU     LIG  168   3.849   4.420   7.541
    1AU     LIG  169   3.525   4.360   7.891
    1AU       S  170   5.383   5.617   6.973
    1AU     LIG  171   5.388   5.430   7.408
    1AU     LIG  172   5.226   5.233   7.803
    1AU     LIG  173   5.004   5.179   8.213
    1AU     LIG  174   4.903   4.954   8.619
    1AU     LIG  175   4.938   4.914   9.089
    1AU    AUSL  176   5.509   5.841   5.490
    1AU    AUSL  177   5.598   5.582   5.556
    1AU     AUL  178   5.544   5.478   5.558
    1AU       S  179   5.369   5.892   5.029
    1AU     LIG  180   5.019   5.800   4.714
    1AU     LIG  181   4.786   5.622   4.325
    1AU     LIG  182   4.609   5.557   3.886
    1AU     LIG  183   4.315   5.656   3.518
    1AU     LIG  184   3.966   5.659   3.172
    1AU       S  185   5.177   5.297   5.230
    1AU     LIG  186   4.895   4.883   5.135
    1AU     LIG  187   4.590   4.583   4.911
    1AU     LIG  188   4.373   4.272   4.604
    1AU     LIG  189   4.255   4.074   4.171
    1AU     LIG  190   4.297   3.854   3.743
    1AU    AUSL  191   5.763   5.934   5.568
    1AU    AUSL  192   5.298   5.953   5.627
    1AU     AUL  193   5.747   6.000   5.445
    1AU       S  194   5.031   6.089   5.315
    1AU     LIG  195   4.967   6.308   4.883
    1AU     LIG  196   4.718   6.584   4.572
    1AU     LIG  197   4.396   6.764   4.253
    1AU     LIG  198   4.004   6.887   3.981
    1AU     LIG  199   3.729   7.152   3.690
    1AU       S  200   5.644   6.121   4.986
    1AU     LIG  201   5.380   6.150   4.589
    1AU     LIG  202   5.185   5.931   4.213
    1AU     LIG  203   5.068   5.768   3.771
    1AU     LIG  204   5.015   5.869   3.290
    1AU     LIG  205   4.948   6.013   2.820
    1AU    AUSL  206   6.163   6.030   5.916
    1AU    AUSL  207   6.231   6.127   5.677
    1AU     AUL  208   6.301   6.396   5.979
    1AU       S  209   6.401   6.413   5.363
    1AU     LIG  210   6.813   6.545   5.189
    1AU     LIG  211   7.157   6.595   4.877
    1AU     LIG  212   7.454   6.598   4.519
    1AU     LIG  213   7.701   6.836   4.198
    1AU     LIG  214   7.907   7.155   3.913
    1AU       S  215   6.734   6.116   6.067
    1AU     LIG  216   7.141   6.387   6.122
    1AU     LIG  217   7.630   6.481   6.059
    1AU     LIG  218   8.132   6.553   6.019
    1AU     LIG  219   8.541   6.786   6.180
    1AU     LIG  220   8.672   7.130   6.489
    1AU    AUSL  221   6.341   5.836   5.856
    1AU    AUSL  222   6.334   5.593   6.025
    1AU     AUL  223   6.430   5.679   5.590
    1AU       S  224   6.830   5.848   5.953
    1AU     LIG  225   7.325   5.959   5.906
    1AU     LIG  226   7.819   6.057   5.838
    1AU     LIG  227   8.282   6.129   5.710
    1AU     LIG  228   8.733   6.273   5.547
    1AU     LIG  229   9.102   6.365   5.267
    1AU       S  230   6.679   5.344   6.039
    1AU     LIG  231   7.079   5.182   6.263
    1AU     LIG  232   7.533   4.995   6.295
    1AU     LIG  233   7.991   4.843   6.285
    1AU     LIG  234   8.462   4.793   6.270
    1AU     LIG  235   8.915   4.860   6.431
    1AU    AUSL  236   6.178   5.818   6.082
    1AU    AUSL  237   6.086   6.075   6.173
    1AU     AUL  238   6.147   6.221   6.147
    1AU       S  239   6.546   6.381   6.466
    1AU     LIG  240   6.765   6.740   6.728
    1AU     LIG  241   7.045   7.017   7.031
    1AU     LIG  242   7.269   7.414   7.236
    1AU     LIG  243   7.478   7.872   7.304
    1AU     LIG  244   7.857   8.098   7.513
    1AU       S  245   6.766   5.831   6.199
    1AU     LIG  246   7.168   5.961   6.401
    1AU     LIG  247   7.656   6.039   6.327
    1AU     LIG  248   8.159   6.125   6.290
    1AU     LIG  249   8.525   6.381   6.527
    1AU     LIG  250   8.954   6.567   6.651
    1AU    AUSL  251   5.398   6.137   6.070
    1AU    AUSL  252   5.398   6.119   6.359
    1AU     AUL  253   5.121   6.071   6.145
    1AU       S  254   5.166   6.284   6.702
    1AU     LIG  255   4.865   6.407   7.032
    1AU     LIG  256   4.643   6.696   7.346
    1AU     LIG  257   4.414   6.805   7.758
    1AU     LIG  258   4.074   6.802   8.108
    1AU     LIG  259   3.723   6.985   8.376
    1AU       S  260   4.971   6.532   6.317
    1AU     LIG  261   4.618   6.838   6.174
    1AU     LIG  262   4.228   7.116   6.048
    1AU     LIG  263   3.800   7.359   5.976
    1AU     LIG  264   3.364   7.585   5.906
    1AU     LIG  265   2.913   7.757   5.965
    1AU    AUSL  266   5.336   5.921   5.899
    1AU    AUSL  267   5.381   6.190   5.798
    1AU     AUL  268   5.094   6.247   5.910
    1AU       S  269   4.718   5.971   5.693
    1AU     LIG  270   4.218   5.956   5.624
    1AU     LIG  271   3.849   6.144   5.351
    1AU     LIG  272   3.361   6.180   5.410
    1AU     LIG  273   2.976   6.488   5.414
    1AU     LIG  274   2.599   6.657   5.183
    1AU       S  275   5.177   6.525   5.483
    1AU     LIG  276   5.082   6.876   5.148
    1AU     LIG  277   4.969   7.297   4.898
    1AU     LIG  278   4.792   7.770   4.793
    1AU     LIG  279   4.529   8.167   4.654
    1AU     LIG  280   4.205   8.548   4.685
    1AU    AUSL  281   5.334   5.894   6.214
    1AU    AUSL  282   5.165   5.721   5.802
    1AU     AUL  283   5.209   5.993   5.891
    1AU       S  284   4.703   5.504   5.813
    1AU     LIG  285   4.239   5.436   5.685
    1AU     LIG  286   3.808   5.245   5.647
    1AU     LIG  287   3.376   5.083   5.585
    1AU     LIG  288   2.939   5.138   5.725
    1AU     LIG  289   2.536   5.120   5.519
    1AU       S  290   4.813   5.944   6.520
    1AU     LIG  291   4.287   5.993   6.556
    1AU     LIG  292   3.832   6.138   6.754
    1AU     LIG  293   3.428   6.412   6.809
    1AU     LIG  294   2.934   6.400   6.755
    1AU     LIG  295   2.485   6.575   6.602
    1AU    AUSL  296   6.142   5.363   5.998
    1AU    AUSL  297   6.088   5.568   6.167
    1AU     AUL  298   6.250   5.654   6.310
    1AU       S  299   6.422   5.068   5.969
    1AU     LIG  300   6.732   4.813   6.174
    1AU     LIG  301   7.183   4.649   6.151
    1AU     LIG  302   7.651   4.485   6.134
    1AU     LIG  303   8.132   4.343   6.156
    1AU     LIG  304   8.441   3.994   6.298
    1AU       S  305   6.451   5.199   6.452
    1AU     LIG  306   6.786   4.972   6.670
    1AU     LIG  307   6.866   4.623   6.985
    1AU     LIG  308   7.090   4.340   7.306
    1AU     LIG  309   7.369   4.207   7.667
    1AU     LIG  310   7.771   4.201   7.927
    1AU    AUSL  311   6.107   5.629   5.880
    1AU    AUSL  312   6.005   5.403   5.754
    1AU     AUL  313   6.223   5.605   5.760
    1AU       S  314   6.609   5.222   5.799
    1AU     LIG  315   7.038   4.998   5.781
    1AU     LIG  316   7.521   4.857   5.795
    1AU     LIG  317   7.998   4.695   5.791
    1AU     LIG  318   8.491   4.674   5.766
    1AU     LIG  319   8.911   4.713   5.527
    1AU       S  320   6.281   5.063   5.472
    1AU     LIG  321   6.596   4.740   5.398
    1AU     LIG  322   6.691   4.301   5.247
    1AU     LIG  323   6.802   3.948   4.958
    1AU     LIG  324   7.027   3.537   4.866
    1AU     LIG  325   7.379   3.238   4.691
    1AU    AUSL  326   5.206   5.464   5.907
    1AU    AUSL  327   5.432   5.711   5.737
    1AU     AUL  328   5.323   5.658   5.586
    1AU       S  329   4.975   5.361   5.417
    1AU     LIG  330   4.559   5.136   5.420
    1AU     LIG  331   4.239   4.891   5.141
    1AU     LIG  332   4.039   4.618   4.787
    1AU     LIG  333   3.871   4.316   4.443
    1AU     LIG  334   3.642   4.012   4.153
    1AU       S  335   4.816   5.290   5.905
    1AU     LIG  336   4.436   5.025   5.926
    1AU     LIG  337   3.971   4.901   5.992
    1AU     LIG  338   3.481   4.840   6.052
    1AU     LIG  339   3.106   4.583   6.264
    1AU     LIG  340   2.655   4.404   6.374
    1AU    AUSL  341   5.324   5.682   6.037
    1AU    AUSL  342   5.324   5.434   6.159
    1AU     AUL  343   5.118   5.796   6.068
    1AU       S  344   4.993   5.192   6.383
    1AU     LIG  345   4.768   4.828   6.279
    1AU     LIG  346   4.536   4.533   6.558
    1AU     LIG  347   4.231   4.310   6.860
    1AU     LIG  348   3.926   4.072   7.149
    1AU     LIG  349   3.589   3.712   7.186
    1AU       S  350   4.712   5.496   6.045
    1AU     LIG  351   4.281   5.702   6.111
    1AU     LIG  352   3.822   5.609   6.011
    1AU     LIG  353   3.403   5.366   5.995
    1AU     LIG  354   3.056   5.103   6.220
    1AU     LIG  355   2.706   4.928   6.470
    1AU    AUSL  356   5.910   6.265   6.315
    1AU    AUSL  357   5.468   6.361   6.208
    1AU     AUL  358   5.647   6.175   6.484
    1AU       S  359   5.381   6.699   6.529
    1AU     LIG  360   5.031   6.858   6.827
    1AU     LIG  361   4.841   7.157   7.166
    1AU     LIG  362   4.736   7.587   7.372
    1AU     LIG  363   4.435   7.971   7.396
    1AU     LIG  364   4.128   8.343   7.454
    1AU       S  365   5.924   6.620   6.621
    1AU     LIG  366   6.057   6.893   6.964
    1AU     LIG  367   6.062   7.368   7.052
    1AU     LIG  368   6.019   7.787   7.305
    1AU     LIG  369   6.082   8.098   7.694
    1AU     LIG  370   6.079   8.522   7.937
    1AU    AUSL  371   5.735   6.418   6.150
    1AU    AUSL  372   5.827   6.420   5.863
    1AU     AUL  373   5.455   6.594   6.016
    1AU       S  374   5.832   6.817   6.393
    1AU     LIG  375   5.699   7.150   6.682
    1AU     LIG  376   5.755   7.626   6.726
    1AU     LIG  377   5.573   8.068   6.748
    1AU     LIG  378   5.447   8.512   6.849
    1AU     LIG  379   5.418   8.972   6.712
    1AU       S  380   5.825   6.791   5.638
    1AU     LIG  381   6.080   7.168   5.465
    1AU     LIG  382   6.233   7.610   5.307
    1AU     LIG  383   6.518   8.013   5.248
    1AU     LIG  384   6.715   8.458   5.203
    1AU     LIG  385   6.629   8.904   5.086
    1AU    AUSL  386   5.873   6.211   6.046
    1AU    AUSL  387   6.107   6.124   6.438
    1AU     AUL  388   6.019   6.456   6.076
    1AU       S  389   6.353   6.301   6.708
    1AU     LIG  390   6.514   6.478   7.085
    1AU     LIG  391   6.741   6.756   7.373
    1AU     LIG  392   7.077   7.029   7.560
    1AU     LIG  393   7.199   7.319   7.921
    1AU     LIG  394   7.206   7.579   8.327
    1AU       S  395   6.121   6.721   6.470
    1AU     LIG  396   6.199   7.200   6.568
    1AU     LIG  397   6.348   7.663   6.681
    1AU     LIG  398   6.688   8.051   6.665
    1AU     LIG  399   6.853   8.508   6.757
    1AU     LIG  400   6.890   8.900   6.998
    1AU    AUSL  401   5.760   5.495   6.287
    1AU    AUSL  402   5.979   5.325   6.252
    1AU     AUL  403   5.799   5.477   6.676
    1AU       S  404   5.644   4.962   6.629
    1AU     LIG  405   5.477   4.544   6.776
    1AU     LIG  406   5.440   4.075   6.762
    1AU     LIG  407   5.571   3.644   6.929
    1AU     LIG  408   5.577   3.381   7.342
    1AU     LIG  409   5.598   3.279   7.822
    1AU       S  410   6.199   5.018   6.450
    1AU     LIG  411   6.436   4.608   6.583
    1AU     LIG  412   6.654   4.200   6.776
    1AU     LIG  413   6.950   3.907   7.027
    1AU     LIG  414   7.076   3.463   7.178
    1AU     LIG  415   7.382   3.097   7.330
    1AU    AUSL  416   5.582   5.445   6.072
    1AU    AUSL  417   5.494   5.634   6.277
    1AU     AUL  418   5.761   5.426   6.410
    1AU       S  419   5.399   4.884   6.387
    1AU     LIG  420   5.166   4.495   6.369
    1AU     LIG  421   5.263   4.037   6.281
    1AU     LIG  422   5.284   3.614   6.495
    1AU     LIG  423   5.122   3.174   6.656
    1AU     LIG  424   5.003   2.701   6.755
    1AU       S  425   5.117   5.292   6.661
    1AU     LIG  426   4.880   4.877   6.788
    1AU     LIG  427   4.624   4.567   7.082
    1AU     LIG  428   4.356   4.282   7.380
    1AU     LIG  429   4.179   4.107   7.794
    1AU     LIG  430   4.181   3.961   8.257
    1AU    AUSL  431   5.711   5.237   6.190
    1AU    AUSL  432   5.640   5.234   5.899
    1AU     AUL  433   5.354   5.223   5.975
    1AU       S  434   5.594   4.756   5.941
    1AU     LIG  435   5.321   4.371   5.893
    1AU     LIG  436   5.316   3.931   5.695
    1AU     LIG  437   5.153   3.498   5.479
    1AU     LIG  438   4.921   3.034   5.407
    1AU     LIG  439   4.786   2.624   5.144
    1AU       S  440   5.698   4.854   6.412
    1AU     LIG  441   5.669   4.378   6.321
    1AU     LIG  442   5.767   3.893   6.409
    1AU     LIG  443   6.030   3.520   6.627
    1AU     LIG  444   6.137   3.052   6.760
    1AU     LIG  445   6.137   2.545   6.718
    1AU    AUSL  446   5.777   6.242   5.595
    1AU    AUSL  447   5.967   6.182   5.783
    1AU     AUL  448   6.075   6.286   5.859
    1AU       S  449   5.724   6.563   5.336
    1AU     LIG  450   5.935   6.857   5.073
    1AU     LIG  451   5.971   7.316   4.969
    1AU     LIG  452   5.984   7.702   4.683
    1AU     LIG  453   6.017   7.997   4.299
    1AU     LIG  454   5.978   8.403   4.063
    1AU       S  455   6.206   6.580   5.422
    1AU     LIG  456   6.446   6.918   5.185
    1AU     LIG  457   6.831   7.007   4.907
    1AU     LIG  458   7.199   7.237   4.674
    1AU     LIG  459   7.470   7.664   4.661
    1AU     LIG  460   7.651   8.129   4.625
    1AU    AUSL  461   5.657   6.206   5.845
    1AU    AUSL  462   5.540   6.096   5.603
    1AU     AUL  463   5.563   6.348   5.936
    1AU       S  464   5.609   6.727   5.503
    1AU     LIG  465   5.585   7.175   5.311
    1AU     LIG  466   5.685   7.665   5.271
    1AU     LIG  467   5.508   8.137   5.203
    1AU     LIG  468   5.319   8.573   5.349
    1AU     LIG  469   5.366   9.071   5.382
    1AU       S  470   5.289   6.336   5.275
    1AU     LIG  471   5.412   6.583   4.902
    1AU     LIG  472   5.158   6.861   4.599
    1AU     LIG  473   4.976   7.019   4.161
    1AU     LIG  474   4.878   7.294   3.758
    1AU     LIG  475   4.619   7.638   3.534
    1AU    AUSL  476   5.734   5.460   5.766
    1AU    AUSL  477   5.460   5.437   5.814
    1AU     AUL  478   5.651   5.222   5.508
    1AU       S  479   5.118   5.138   5.510
    1AU     LIG  480   4.862   4.809   5.676
    1AU     LIG  481   4.513   4.596   5.459
    1AU     LIG  482   4.224   4.335   5.173
    1AU     LIG  483   3.907   4.093   4.908
    1AU     LIG  484   3.513   3.814   4.820
    1AU       S  485   5.634   4.745   5.727
    1AU     LIG  486   5.528   4.399   5.428
    1AU     LIG  487   5.474   3.998   5.205
    1AU     LIG  488   5.498   3.560   5.073
    1AU     LIG  489   5.511   3.273   4.697
    1AU     LIG  490   5.653   3.022   4.319
    1AU    AUSL  491   5.862   5.366   5.999
    1AU    AUSL  492   5.858   5.425   5.516
    1AU     AUL  493   5.848   5.177   5.713
    1AU       S  494   5.918   4.768   5.985
    1AU     LIG  495   5.834   4.290   5.839
    1AU     LIG  496   5.840   3.901   5.558
    1AU     LIG  497   5.980   3.538   5.281
    1AU     LIG  498   6.238   3.160   5.139
    1AU     LIG  499   6.558   2.802   5.201
    1AU       S  500   6.113   5.129   5.229
    1AU     LIG  501   6.270   4.742   4.990
    1AU     LIG  502   6.432   4.323   4.802
    1AU     LIG  503   6.692   4.110   4.470
    1AU     LIG  504   7.031   4.120   4.138
    1AU     LIG  505   7.190   3.972   3.716
    2POPC   NC3  506   1.899   8.078   8.255
    2POPC   PO4  507   2.381   8.479   8.071
    2POPC   GL1  508   2.165   8.186   7.731
    2POPC   GL2  509   1.994   7.883   7.784
    2POPC   C1A  510   2.123   8.081   7.279
    2POPC   D2A  511   2.184   8.345   6.914
    2POPC   C3A  512   2.198   8.247   6.461
    2POPC   C4A  513   2.375   8.444   6.078
    2POPC   C1B  514   1.674   7.871   7.437
    2POPC   C2B  515   1.725   7.784   7.005
    2POPC   C3B  516   1.818   7.855   6.565
    2POPC   C4B  517   1.706   8.163   6.283
    3POPC   NC3  518   1.995   2.829   8.312
    3POPC   PO4  519   1.628   3.208   7.938
    3POPC   GL1  520   1.763   3.094   7.572
    3POPC   GL2  521   2.003   2.930   7.608
    3POPC   C1A  522   1.685   2.718   7.262
    3POPC   D2A  523   1.788   2.522   6.869
    3POPC   C3A  524   1.766   2.821   6.579
    3POPC   C4A  525   1.660   2.885   6.197
    3POPC   C1B  526   2.218   2.750   7.322
    3POPC   C2B  527   2.392   2.775   6.941
    3POPC   C3B  528   2.253   2.597   6.599
    3POPC   C4B  529   2.156   2.807   6.243
    4POPC   NC3  530   8.034   9.810   7.982
    4POPC   PO4  531   8.257   9.197   8.175
    4POPC   GL1  532   8.374   9.380   7.775
    4POPC   GL2  533   8.078   9.538   7.565
    4POPC   C1A  534   8.494   9.329   7.351
    4POPC   D2A  535   8.245   9.550   7.034
    4POPC   C3A  536   8.367   9.622   6.609
    4POPC   C4A  537   8.433   9.414   6.174
    4POPC   C1B  538   7.802   9.820   7.312
    4POPC   C2B  539   7.758   9.923   6.883
    4POPC   C3B  540   7.676   9.735   6.515
    4POPC   C4B  541   7.983   9.641   6.292
    5POPC   NC3  542   1.941   0.547   7.893
    5POPC   PO4  543   1.551   0.029   8.050
    5POPC   GL1  544   1.686   0.130   7.621
    5POPC   GL2  545   2.023   0.279   7.482
    5POPC   C1A  546   1.722   0.067   7.175
    5POPC   D2A  547   1.831   0.335   6.842
    5POPC   C3A  548   1.864   0.142   6.474
    5POPC   C4A  549   1.714   0.154   6.070
    5POPC   C1B  550   1.923   0.662   7.236
    5POPC   C2B  551   1.856   0.849   6.818
    5POPC   C3B  552   2.021   0.658   6.402
    5POPC   C4B  553   1.933   0.569   5.926
    6POPC   NC3  554   7.230   9.219   8.041
    6POPC   PO4  555   7.477   9.828   8.042
    6POPC   GL1  556   7.347   9.590   7.691
    6POPC   GL2  557   7.095   9.851   7.632
    6POPC   C1A  558   7.587   9.357   7.347
    6POPC   D2A  559   7.771   9.378   6.902
    6POPC   C3A  560   7.576   9.259   6.478
    6POPC   C4A  561   7.662   9.382   6.001
    6POPC   C1B  562   7.289   9.766   7.226
    6POPC   C2B  563   7.285   9.693   6.829
    6POPC   C3B  564   7.179   9.572   6.417
    6POPC   C4B  565   7.207   9.663   5.966
    7POPC   NC3  566  10.955   0.445   8.118
    7POPC   PO4  567   0.124   0.733   8.168
    7POPC   GL1  568   0.138   0.541   7.768
    7POPC   GL2  569  11.297   0.477   7.667
    7POPC   C1A  570   0.158   0.669   7.331
    7POPC   D2A  571  11.314   0.699   7.045
    7POPC   C3A  572  11.419   0.526   6.641
    7POPC   C4A  573  11.200   0.511   6.248
    7POPC   C1B  574  10.949   0.436   7.361
    7POPC   C2B  575  10.858   0.517   6.919
    7POPC   C3B  576  10.861   0.265   6.543
    7POPC   C4B  577  10.622   0.062   6.219
    8POPC   NC3  578  10.556   7.246   8.055
    8POPC   PO4  579  10.589   7.920   8.078
    8POPC   GL1  580  10.666   7.644   7.709
    8POPC   GL2  581  10.350   7.456   7.653
    8POPC   C1A  582  10.733   7.529   7.259
    8POPC   D2A  583  10.656   7.710   6.846
    8POPC   C3A  584  10.476   7.433   6.511
    8POPC   C4A  585  10.574   7.420   6.069
    8POPC   C1B  586  10.236   7.610   7.270
    8POPC   C2B  587  10.306   7.294   6.973
    8POPC   C3B  588  10.119   7.076   6.640
    8POPC   C4B  589  10.043   7.284   6.254
    9POPC   NC3  590   2.032   8.881   8.009
    9POPC   PO4  591   1.693   8.302   7.917
    9POPC   GL1  592   1.883   8.575   7.595
    9POPC   GL2  593   2.254   8.685   7.591
    9POPC   C1A  594   1.729   8.418   7.214
    9POPC   D2A  595   1.706   8.304   6.787
    9POPC   C3A  596   1.817   8.614   6.473
    9POPC   C4A  597   1.865   8.590   6.014
    9POPC   C1B  598   2.123   8.801   7.152
    9POPC   C2B  599   2.229   8.841   6.700
    9POPC   C3B  600   2.130   8.976   6.265
    9POPC   C4B  601   1.904   9.322   6.036
   10POPC   NC3  602   9.374   1.764   8.134
   10POPC   PO4  603   8.725   1.972   8.016
   10POPC   GL1  604   8.874   1.965   7.590
   10POPC   GL2  605   8.999   2.323   7.627
   10POPC   C1A  606   8.904   1.755   7.141
   10POPC   D2A  607   9.187   2.005   6.793
   10POPC   C3A  608   9.340   1.858   6.420
   10POPC   C4A  609   9.009   1.979   6.134
   10POPC   C1B  610   8.982   2.252   7.194
   10POPC   C2B  611   8.717   2.121   6.851
   10POPC   C3B  612   8.592   1.965   6.466
   10POPC   C4B  613   8.523   2.236   6.103
   11POPC   NC3  614  11.270   5.935   8.050
   11POPC   PO4  615  10.678   6.289   8.052
   11POPC   GL1  616  10.934   6.147   7.685
   11POPC   GL2  617  11.011   5.769   7.655
   11POPC   C1A  618  11.052   6.025   7.233
   11POPC   D2A  619  11.338   5.806   6.924
   11POPC   C3A  620  11.180   5.822   6.496
   11POPC   C4A  621  11.076   6.223   6.313
   11POPC   C1B  622  11.254   5.531   7.361
   11POPC   C2B  623  11.462   5.301   7.032
   11POPC   C3B  624  11.477   5.405   6.599
   11POPC   C4B  625  11.265   5.402   6.191
   12POPC   NC3  626   0.441   0.304   8.153
   12POPC   PO4  627   0.846   0.785   7.941
   12POPC   GL1  628   0.637   0.586   7.659
   12POPC   GL2  629   0.768   0.275   7.634
   12POPC   C1A  630   0.679   0.717   7.247
   12POPC   D2A  631   0.473   0.594   6.860
   12POPC   C3A  632   0.633   0.764   6.473
   12POPC   C4A  633   0.801   0.654   6.052
   12POPC   C1B  634   0.482   0.245   7.278
   12POPC   C2B  635   0.288   0.106   6.873
   12POPC   C3B  636   0.412   0.250   6.453
   12POPC   C4B  637   0.267   0.581   6.178
   13POPC   NC3  638   2.793   2.820   8.073
   13POPC   PO4  639   2.248   3.221   8.187
   13POPC   GL1  640   2.463   2.990   7.754
   13POPC   GL2  641   2.613   2.656   7.642
   13POPC   C1A  642   2.631   3.042   7.311
   13POPC   D2A  643   2.673   3.229   6.904
   13POPC   C3A  644   2.608   2.993   6.515
   13POPC   C4A  645   2.817   2.656   6.364
   13POPC   C1B  646   2.629   2.435   7.260
   13POPC   C2B  647   2.767   2.428   6.842
   13POPC   C3B  648   2.603   2.218   6.490
   13POPC   C4B  649   2.427   2.389   6.161
   14POPC   NC3  650  11.176   8.778   8.129
   14POPC   PO4  651  10.588   8.885   7.901
   14POPC   GL1  652  10.925   8.698   7.665
   14POPC   GL2  653  11.198   8.957   7.657
   14POPC   C1A  654  10.953   8.694   7.212
   14POPC   D2A  655  11.173   8.709   6.817
   14POPC   C3A  656  10.913   8.778   6.468
   14POPC   C4A  657  10.964   8.654   6.055
   14POPC   C1B  658  11.028   9.199   7.324
   14POPC   C2B  659  11.198   9.244   6.906
   14POPC   C3B  660  11.459   9.196   6.559
   14POPC   C4B  661  11.330   8.971   6.178
   15POPC   NC3  662   8.545  11.389   8.046
   15POPC   PO4  663   9.124  10.969   8.235
   15POPC   GL1  664   8.858  10.971   7.777
   15POPC   GL2  665   8.823  11.302   7.626
   15POPC   C1A  666   8.813  10.935   7.275
   15POPC   D2A  667   8.970  11.186   6.865
   15POPC   C3A  668   8.976  10.974   6.410
   15POPC   C4A  669   8.863  10.896   5.960
   15POPC   C1B  670   8.548  11.402   7.255
   15POPC   C2B  671   8.518   0.065   6.822
   15POPC   C3B  672   8.782  11.483   6.457
   15POPC   C4B  673   9.236  11.426   6.422
   16POPC   NC3  674   6.988  11.223   7.852
   16POPC   PO4  675   6.878  10.625   8.119
   16POPC   GL1  676   6.717  10.786   7.714
   16POPC   GL2  677   6.685  11.092   7.485
   16POPC   C1A  678   6.865  10.681   7.266
   16POPC   D2A  679   6.749  10.966   6.887
   16POPC   C3A  680   6.734  10.805   6.427
   16POPC   C4A  681   6.496  11.035   6.063
   16POPC   C1B  682   6.461  11.344   7.202
   16POPC   C2B  683   6.295  11.230   6.799
   16POPC   C3B  684   6.607  11.305   6.500
   16POPC   C4B  685   6.536   0.077   6.198
   17POPC   NC3  686   0.534   8.052   8.092
   17POPC   PO4  687   0.020   7.650   7.830
   17POPC   GL1  688   0.144   7.918   7.554
   17POPC   GL2  689   0.472   8.067   7.581
   17POPC   C1A  690   0.134   7.936   7.127
   17POPC   D2A  691   0.395   8.130   6.841
   17POPC   C3A  692   0.232   8.063   6.454
   17POPC   C4A  693   0.220   8.122   6.038
   17POPC   C1B  694   0.705   8.341   7.309
   17POPC   C2B  695   0.749   8.505   6.884
   17POPC   C3B  696   0.874   8.199   6.607
   17POPC   C4B  697   0.710   8.003   6.258
   18POPC   NC3  698   4.067  11.068   8.151
   18POPC   PO4  699   4.680  11.421   8.005
   18POPC   GL1  700   4.435  11.425   7.634
   18POPC   GL2  701   4.156  11.195   7.666
   18POPC   C1A  702   4.444  11.461   7.162
   18POPC   D2A  703   4.196   0.048   6.777
   18POPC   C3A  704   4.217  11.305   6.405
   18POPC   C4A  705   4.204  11.377   5.949
   18POPC   C1B  706   4.334  10.977   7.296
   18POPC   C2B  707   4.365  11.059   6.845
   18POPC   C3B  708   4.635  10.936   6.493
   18POPC   C4B  709   4.424  10.906   6.113
   19POPC   NC3  710   5.836  11.127   8.002
   19POPC   PO4  711   6.554  11.153   8.042
   19POPC   GL1  712   6.258  11.021   7.720
   19POPC   GL2  713   6.121  11.325   7.614
   19POPC   C1A  714   6.152  10.942   7.233
   19POPC   D2A  715   5.802  10.746   6.990
   19POPC   C3A  716   5.776  10.825   6.542
   19POPC   C4A  717   6.017  11.065   6.238
   19POPC   C1B  718   5.813  11.334   7.303
   19POPC   C2B  719   5.748  11.235   6.890
   19POPC   C3B  720   5.645  11.318   6.503
   19POPC   C4B  721   5.471   0.105   6.276
   20POPC   NC3  722   6.388   1.006   8.147
   20POPC   PO4  723   6.197   1.630   8.011
   20POPC   GL1  724   6.455   1.330   7.720
   20POPC   GL2  725   6.616   0.987   7.697
   20POPC   C1A  726   6.580   1.391   7.274
   20POPC   D2A  727   6.542   1.641   6.892
   20POPC   C3A  728   6.468   1.417   6.535
   20POPC   C4A  729   6.305   1.358   6.132
   20POPC   C1B  730   6.822   0.942   7.320
   20POPC   C2B  731   6.671   1.015   6.921
   20POPC   C3B  732   6.847   0.973   6.541
   20POPC   C4B  733   6.778   1.171   6.184
   21POPC   NC3  734   0.375   6.292   8.171
   21POPC   PO4  735   0.572   6.970   8.064
   21POPC   GL1  736   0.278   6.789   7.732
   21POPC   GL2  737   0.414   6.462   7.668
   21POPC   C1A  738   0.121   6.722   7.281
   21POPC   D2A  739   0.245   6.522   6.895
   21POPC   C3A  740   0.104   6.739   6.545
   21POPC   C4A  741   0.231   6.906   6.146
   21POPC   C1B  742   0.606   6.582   7.265
   21POPC   C2B  743   0.741   6.381   6.856
   21POPC   C3B  744   0.597   6.572   6.469
   21POPC   C4B  745   0.540   6.503   6.038
   22POPC   NC3  746   2.369   6.256   8.146
   22POPC   PO4  747   2.212   6.857   8.085
   22POPC   GL1  748   1.891   6.868   7.771
   22POPC   GL2  749   1.872   6.515   7.714
   22POPC   C1A  750   1.858   6.914   7.328
   22POPC   D2A  751   1.993   6.756   6.920
   22POPC   C3A  752   2.114   6.978   6.548
   22POPC   C4A  753   2.240   6.864   6.111
   22POPC   C1B  754   2.041   6.274   7.326
   22POPC   C2B  755   1.885   6.256   6.875
   22POPC   C3B  756   1.920   6.467   6.451
   22POPC   C4B  757   1.765   6.324   6.040
   23POPC   NC3  758  11.103   7.693   8.023
   23POPC   PO4  759  10.921   8.380   8.160
   23POPC   GL1  760  10.941   8.143   7.743
   23POPC   GL2  761  11.265   8.282   7.655
   23POPC   C1A  762  11.100   7.895   7.350
   23POPC   D2A  763  11.175   7.635   6.966
   23POPC   C3A  764  11.077   7.826   6.537
   23POPC   C4A  765  11.030   7.983   6.081
   23POPC   C1B  766  11.327   8.345   7.202
   23POPC   C2B  767  11.338   8.212   6.760
   23POPC   C3B  768  11.312   8.359   6.310
   23POPC   C4B  769  11.302   8.325   5.824
   24POPC   NC3  770   0.122   4.252   8.284
   24POPC   PO4  771   0.754   4.423   8.238
   24POPC   GL1  772   0.420   4.279   7.857
   24POPC   GL2  773   0.297   4.536   7.659
   24POPC   C1A  774   0.332   4.109   7.378
   24POPC   D2A  775   0.478   4.176   6.935
   24POPC   C3A  776   0.308   3.989   6.563
   24POPC   C4A  777   0.395   4.044   6.101
   24POPC   C1B  778   0.577   4.547   7.303
   24POPC   C2B  779   0.612   4.660   6.859
   24POPC   C3B  780   0.429   4.506   6.472
   24POPC   C4B  781   0.120   4.511   6.151
   25POPC   NC3  782   1.146   1.138   8.029
   25POPC   PO4  783   1.621   1.595   8.108
   25POPC   GL1  784   1.281   1.541   7.732
   25POPC   GL2  785   1.261   1.175   7.558
   25POPC   C1A  786   1.267   1.572   7.249
   25POPC   D2A  787   1.038   1.475   6.848
   25POPC   C3A  788   1.270   1.574   6.503
   25POPC   C4A  789   1.382   1.434   6.125
   25POPC   C1B  790   1.167   1.022   7.168
   25POPC   C2B  791   1.193   0.971   6.760
   25POPC   C3B  792   1.071   1.078   6.366
   25POPC   C4B  793   1.232   0.979   5.955
   26POPC   NC3  794   1.286   9.613   8.111
   26POPC   PO4  795   1.822   9.292   7.883
   26POPC   GL1  796   1.613   9.656   7.608
   26POPC   GL2  797   1.297   9.826   7.669
   26POPC   C1A  798   1.430   9.729   7.190
   26POPC   D2A  799   1.235   9.405   6.958
   26POPC   C3A  800   1.331   9.371   6.534
   26POPC   C4A  801   1.261   9.532   6.173
   26POPC   C1B  802   0.960   9.721   7.405
   26POPC   C2B  803   0.959   9.861   6.991
   26POPC   C3B  804   1.144   9.835   6.608
   26POPC   C4B  805   0.860   9.806   6.262
   27POPC   NC3  806   5.331   2.691   8.232
   27POPC   PO4  807   5.441   2.014   8.159
   27POPC   GL1  808   5.419   1.808   7.708
   27POPC   GL2  809   5.796   1.729   7.610
   27POPC   C1A  810   5.415   1.937   7.242
   27POPC   D2A  811   5.690   2.088   6.896
   27POPC   C3A  812   5.549   1.991   6.468
   27POPC   C4A  813   5.682   2.204   6.096
   27POPC   C1B  814   5.688   1.513   7.249
   27POPC   C2B  815   5.637   1.589   6.830
   27POPC   C3B  816   5.975   1.727   6.583
   27POPC   C4B  817   5.879   1.616   6.201
   28POPC   NC3  818   7.638   0.299   7.943
   28POPC   PO4  819   7.137  11.427   8.251
   28POPC   GL1  820   7.044   0.235   7.825
   28POPC   GL2  821   7.181   0.589   7.852
   28POPC   C1A  822   7.080   0.142   7.315
   28POPC   D2A  823   6.902  11.481   6.915
   28POPC   C3A  824   7.123   0.008   6.514
   28POPC   C4A  825   7.020   0.167   6.098
   28POPC   C1B  826   7.234   0.625   7.400
   28POPC   C2B  827   7.396   0.467   7.007
   28POPC   C3B  828   7.428   0.419   6.555
   28POPC   C4B  829   7.269   0.618   6.175
   29POPC   NC3  830   7.966   8.836   8.197
   29POPC   PO4  831   8.504   8.606   8.150
   29POPC   GL1  832   8.271   8.830   7.770
   29POPC   GL2  833   7.950   9.063   7.743
   29POPC   C1A  834   7.959   8.654   7.425
   29POPC   D2A  835   7.856   8.798   6.960
   29POPC   C3A  836   8.113   8.675   6.609
   29POPC   C4A  837   7.993   8.515   6.217
   29POPC   C1B  838   8.037   9.127   7.297
   29POPC   C2B  839   8.334   9.016   6.983
   29POPC   C3B  840   8.354   9.122   6.588
   29POPC   C4B  841   8.021   9.115   6.322
   30POPC   NC3  842   6.341   9.597   8.221
   30POPC   PO4  843   6.776   9.114   8.059
   30POPC   GL1  844   6.815   9.434   7.722
   30POPC   GL2  845   6.608   9.755   7.755
   30POPC   C1A  846   6.798   9.624   7.279
   30POPC   D2A  847   6.825   9.485   6.862
   30POPC   C3A  848   6.697   9.729   6.503
   30POPC   C4A  849   6.765   9.439   6.131
   30POPC   C1B  850   6.322   9.722   7.420
   30POPC   C2B  851   6.366   9.824   6.982
   30POPC   C3B  852   6.172   9.694   6.592
   30POPC   C4B  853   6.073   9.876   6.214
   31POPC   NC3  854   2.307   5.407   8.247
   31POPC   PO4  855   3.020   5.328   8.158
   31POPC   GL1  856   2.691   5.517   7.848
   31POPC   GL2  857   2.580   5.870   7.837
   31POPC   C1A  858   2.660   5.542   7.360
   31POPC   D2A  859   2.838   5.391   6.939
   31POPC   C3A  860   2.710   5.468   6.501
   31POPC   C4A  861   2.947   5.585   6.123
   31POPC   C1B  862   2.626   6.043   7.392
   31POPC   C2B  863   2.768   5.908   6.954
   31POPC   C3B  864   2.750   5.984   6.482
   31POPC   C4B  865   2.354   6.163   6.296
   32POPC   NC3  866   8.085   2.058   8.206
   32POPC   PO4  867   7.868   1.564   7.838
   32POPC   GL1  868   8.099   1.799   7.555
   32POPC   GL2  869   8.321   2.029   7.738
   32POPC   C1A  870   8.410   1.617   7.269
   32POPC   D2A  871   8.473   1.537   6.818
   32POPC   C3A  872   8.048   1.621   6.625
   32POPC   C4A  873   7.759   1.575   6.241
   32POPC   C1B  874   8.457   2.123   7.332
   32POPC   C2B  875   8.249   1.991   6.952
   32POPC   C3B  876   8.119   2.162   6.580
   32POPC   C4B  877   8.151   1.892   6.212
   33POPC   NC3  878   4.544  10.951   7.969
   33POPC   PO4  879   4.346  10.336   8.260
   33POPC   GL1  880   4.561  10.349   7.790
   33POPC   GL2  881   4.276  10.337   7.518
   33POPC   C1A  882   4.711  10.453   7.346
   33POPC   D2A  883   4.694  10.702   6.971
   33POPC   C3A  884   4.665  10.430   6.585
   33POPC   C4A  885   4.728  10.490   6.145
   33POPC   C1B  886   4.001  10.148   7.245
   33POPC   C2B  887   3.928   9.952   6.861
   33POPC   C3B  888   3.893  10.130   6.433
   33POPC   C4B  889   4.234  10.389   6.275
   34POPC   NC3  890   7.416   8.236   8.062
   34POPC   PO4  891   6.826   8.208   7.999
   34POPC   GL1  892   7.108   8.423   7.677
   34POPC   GL2  893   7.468   8.430   7.592
   34POPC   C1A  894   7.108   8.450   7.218
   34POPC   D2A  895   7.253   8.186   6.841
   34POPC   C3A  896   7.112   8.255   6.402
   34POPC   C4A  897   6.787   8.087   6.129
   34POPC   C1B  898   7.614   8.374   7.162
   34POPC   C2B  899   7.740   8.330   6.736
   34POPC   C3B  900   7.615   8.195   6.330
   34POPC   C4B  901   7.646   8.299   5.878
   35POPC   NC3  902   0.940   6.754   7.873
   35POPC   PO4  903   0.928   6.129   8.124
   35POPC   GL1  904   0.992   6.287   7.674
   35POPC   GL2  905   1.339   6.448   7.703
   35POPC   C1A  906   1.087   6.482   7.243
   35POPC   D2A  907   0.989   6.813   6.929
   35POPC   C3A  908   1.116   6.608   6.523
   35POPC   C4A  909   1.046   6.484   6.084
   35POPC   C1B  910   1.578   6.470   7.297
   35POPC   C2B  911   1.493   6.638   6.900
   35POPC   C3B  912   1.588   6.863   6.564
   35POPC   C4B  913   1.484   6.743   6.162
   36POPC   NC3  914   3.223   5.739   8.099
   36POPC   PO4  915   3.036   6.319   8.265
   36POPC   GL1  916   3.038   6.160   7.751
   36POPC   GL2  917   3.043   5.816   7.611
   36POPC   C1A  918   3.136   6.165   7.224
   36POPC   D2A  919   3.236   5.955   6.756
   36POPC   C3A  920   3.226   6.236   6.351
   36POPC   C4A  921   3.213   6.357   5.888
   36POPC   C1B  922   3.202   5.663   7.207
   36POPC   C2B  923   3.618   5.682   6.981
   36POPC   C3B  924   3.732   5.677   6.546
   36POPC   C4B  925   3.407   5.778   6.281
   37POPC   NC3  926   8.342   0.622   7.986
   37POPC   PO4  927   8.087   0.057   8.004
   37POPC   GL1  928   8.329   0.201   7.652
   37POPC   GL2  929   8.049   0.450   7.599
   37POPC   C1A  930   8.385   0.388   7.213
   37POPC   D2A  931   8.070   0.338   6.845
   37POPC   C3A  932   8.247   0.382   6.423
   37POPC   C4A  933   8.308   0.076   6.028
   37POPC   C1B  934   7.822   0.660   7.252
   37POPC   C2B  935   7.770   0.773   6.804
   37POPC   C3B  936   7.794   0.692   6.324
   37POPC   C4B  937   7.690   0.713   5.867
   38POPC   NC3  938   1.695   2.719   7.915
   38POPC   PO4  939   1.123   3.002   8.122
   38POPC   GL1  940   1.093   2.737   7.750
   38POPC   GL2  941   1.159   3.002   7.563
   38POPC   C1A  942   1.196   2.546   7.321
   38POPC   D2A  943   1.281   2.712   6.888
   38POPC   C3A  944   1.409   2.464   6.499
   38POPC   C4A  945   1.391   2.482   6.049
   38POPC   C1B  946   0.973   3.128   7.174
   38POPC   C2B  947   0.767   3.011   6.789
   38POPC   C3B  948   0.803   3.097   6.342
   38POPC   C4B  949   0.874   3.150   5.874
   39POPC   NC3  950   0.714   2.777   8.098
   39POPC   PO4  951   0.810   2.148   8.121
   39POPC   GL1  952   0.662   2.400   7.728
   39POPC   GL2  953   0.355   2.610   7.742
   39POPC   C1A  954   0.700   2.677   7.345
   39POPC   D2A  955   0.819   2.482   6.947
   39POPC   C3A  956   0.916   2.610   6.509
   39POPC   C4A  957   0.890   2.348   6.151
   39POPC   C1B  958   0.171   2.722   7.327
   39POPC   C2B  959   0.339   2.674   6.918
   39POPC   C3B  960   0.393   2.784   6.490
   39POPC   C4B  961   0.065   2.773   6.184
   40POPC   NC3  962   4.998   1.878   8.049
   40POPC   PO4  963   4.913   2.607   8.032
   40POPC   GL1  964   4.975   2.263   7.691
   40POPC   GL2  965   4.711   2.013   7.639
   40POPC   C1A  966   4.952   2.191   7.217
   40POPC   D2A  967   5.184   2.202   6.801
   40POPC   C3A  968   5.068   2.333   6.350
   40POPC   C4A  969   5.257   2.415   5.895
   40POPC   C1B  970   4.987   1.698   7.396
   40POPC   C2B  971   4.956   1.749   6.921
   40POPC   C3B  972   5.042   1.830   6.477
   40POPC   C4B  973   4.860   1.663   6.088
   41POPC   NC3  974   8.966  10.556   8.054
   41POPC   PO4  975   8.399  10.187   8.159
   41POPC   GL1  976   8.531  10.457   7.762
   41POPC   GL2  977   8.866  10.387   7.593
   41POPC   C1A  978   8.484  10.482   7.278
   41POPC   D2A  979   8.566  10.314   6.830
   41POPC   C3A  980   8.569  10.605   6.439
   41POPC   C4A  981   8.451  10.609   5.979
   41POPC   C1B  982   8.965  10.200   7.201
   41POPC   C2B  983   9.079  10.267   6.759
   41POPC   C3B  984   8.853  10.186   6.387
   41POPC   C4B  985   8.906  10.359   6.001
   42POPC   NC3  986   7.489   2.229   8.047
   42POPC   PO4  987   7.801   1.717   8.339
   42POPC   GL1  988   7.423   1.741   7.866
   42POPC   GL2  989   7.589   1.967   7.627
   42POPC   C1A  990   7.504   1.603   7.319
   42POPC   D2A  991   7.757   1.863   6.970
   42POPC   C3A  992   7.650   1.986   6.487
   42POPC   C4A  993   7.327   1.880   6.143
   42POPC   C1B  994   7.358   2.076   7.237
   42POPC   C2B  995   7.273   1.897   6.819
   42POPC   C3B  996   7.184   2.204   6.496
   42POPC   C4B  997   6.924   2.213   6.137
   43POPC   NC3  998   7.557   1.241   7.972
   43POPC   PO4  999   6.848   1.252   8.086
   43POPC   GL1 1000   6.980   1.378   7.675
   43POPC   GL2 1001   7.188   1.091   7.656
   43POPC   C1A 1002   7.079   1.367   7.219
   43POPC   D2A 1003   6.989   1.416   6.793
   43POPC   C3A 1004   7.262   1.461   6.438
   43POPC   C4A 1005   7.140   1.455   5.972
   43POPC   C1B 1006   7.474   1.063   7.307
   43POPC   C2B 1007   7.247   0.959   6.939
   43POPC   C3B 1008   7.361   0.956   6.534
   43POPC   C4B 1009   7.477   1.103   6.128
   44POPC   NC3 1010   2.016   9.710   7.910
   44POPC   PO4 1011   2.401   9.150   8.113
   44POPC   GL1 1012   2.336   9.361   7.700
   44POPC   GL2 1013   2.108   9.172   7.491
   44POPC   C1A 1014   2.334   9.584   7.270
   44POPC   D2A 1015   2.325   9.346   6.873
   44POPC   C3A 1016   2.120   9.456   6.489
   44POPC   C4A 1017   2.136   9.766   6.170
   44POPC   C1B 1018   1.865   9.284   7.109
   44POPC   C2B 1019   1.723   9.591   6.798
   44POPC   C3B 1020   1.670   9.745   6.393
   44POPC   C4B 1021   1.689   9.932   6.003
   45POPC   NC3 1022  11.084   3.463   7.984
   45POPC   PO4 1023   0.127   3.273   7.681
   45POPC   GL1 1024  11.190   3.462   7.491
   45POPC   GL2 1025  10.980   3.799   7.619
   45POPC   C1A 1026  10.935   3.650   7.136
   45POPC   D2A 1027  10.757   3.384   6.835
   45POPC   C3A 1028  11.079   3.177   6.606
   45POPC   C4A 1029  11.019   3.167   6.173
   45POPC   C1B 1030  11.334   3.935   7.369
   45POPC   C2B 1031   0.072   3.763   7.019
   45POPC   C3B 1032  11.304   3.804   6.660
   45POPC   C4B 1033  11.059   3.696   6.284
   46POPC   NC3 1034   8.784   8.252   8.080
   46POPC   PO4 1035   8.466   7.787   7.839
   46POPC   GL1 1036   8.893   7.876   7.669
   46POPC   GL2 1037   9.051   8.218   7.645
   46POPC   C1A 1038   8.948   7.757   7.227
   46POPC   D2A 1039   9.055   7.953   6.785
   46POPC   C3A 1040   8.921   7.762   6.358
   46POPC   C4A 1041   8.651   7.754   5.937
   46POPC   C1B 1042   9.097   8.526   7.322
   46POPC   C2B 1043   9.196   8.479   6.868
   46POPC   C3B 1044   9.000   8.322   6.446
   46POPC   C4B 1045   8.929   8.160   6.018
   47POPC   NC3 1046   1.249   8.303   8.070
   47POPC   PO4 1047   0.907   7.778   8.142
   47POPC   GL1 1048   0.968   8.042   7.734
   47POPC   GL2 1049   0.969   7.775   7.529
   47POPC   C1A 1050   1.218   8.194   7.317
   47POPC   D2A 1051   1.258   8.498   6.948
   47POPC   C3A 1052   1.315   8.444   6.483
   47POPC   C4A 1053   1.054   8.356   6.114
   47POPC   C1B 1054   1.224   7.693   7.154
   47POPC   C2B 1055   1.302   7.991   6.810
   47POPC   C3B 1056   1.257   7.948   6.375
   47POPC   C4B 1057   1.491   7.706   6.133
   48POPC   NC3 1058   0.660  10.408   7.971
   48POPC   PO4 1059   0.114  10.023   8.188
   48POPC   GL1 1060   0.283  10.121   7.724
   48POPC   GL2 1061   0.318  10.477   7.605
   48POPC   C1A 1062   0.630  10.141   7.350
   48POPC   D2A 1063   0.493  10.038   6.899
   48POPC   C3A 1064   0.770  10.197   6.602
   48POPC   C4A 1065   0.669  10.439   6.256
   48POPC   C1B 1066   0.174  10.328   7.210
   48POPC   C2B 1067   0.314  10.536   6.846
   48POPC   C3B 1068   0.220  10.597   6.429
   48POPC   C4B 1069   0.081  10.847   6.114
   49POPC   NC3 1070   1.247   3.442   8.061
   49POPC   PO4 1071   0.762   3.903   7.884
   49POPC   GL1 1072   1.143   3.777   7.605
   49POPC   GL2 1073   1.372   3.479   7.578
   49POPC   C1A 1074   1.178   3.638   7.138
   49POPC   D2A 1075   1.045   3.447   6.730
   49POPC   C3A 1076   1.140   3.718   6.365
   49POPC   C4A 1077   1.129   3.599   5.939
   49POPC   C1B 1078   1.474   3.223   7.215
   49POPC   C2B 1079   1.481   3.170   6.826
   49POPC   C3B 1080   1.522   3.392   6.489
   49POPC   C4B 1081   1.272   3.210   6.212
   50POPC   NC3 1082   1.856   7.112   8.215
   50POPC   PO4 1083   1.242   6.948   8.150
   50POPC   GL1 1084   1.375   7.015   7.732
   50POPC   GL2 1085   1.225   7.359   7.741
   50POPC   C1A 1086   1.343   6.938   7.288
   50POPC   D2A 1087   1.339   7.215   6.921
   50POPC   C3A 1088   1.132   7.118   6.541
   50POPC   C4A 1089   1.336   7.230   6.205
   50POPC   C1B 1090   0.978   7.278   7.388
   50POPC   C2B 1091   0.837   7.343   6.972
   50POPC   C3B 1092   1.015   7.594   6.654
   50POPC   C4B 1093   0.949   7.555   6.219
   51POPC   NC3 1094   3.511   9.520   8.345
   51POPC   PO4 1095   3.373  10.140   8.139
   51POPC   GL1 1096   3.604   9.976   7.788
   51POPC   GL2 1097   3.587   9.617   7.739
   51POPC   C1A 1098   3.547   9.943   7.349
   51POPC   D2A 1099   3.246   9.820   7.041
   51POPC   C3A 1100   3.470   9.785   6.679
   51POPC   C4A 1101   3.423   9.952   6.308
   51POPC   C1B 1102   3.499   9.438   7.311
   51POPC   C2B 1103   3.328   9.328   6.884
   51POPC   C3B 1104   3.509   9.328   6.439
   51POPC   C4B 1105   3.820   9.310   6.100
   52POPC   NC3 1106   8.925   3.311   8.239
   52POPC   PO4 1107   9.142   3.854   8.130
   52POPC   GL1 1108   9.240   3.619   7.738
   52POPC   GL2 1109   8.990   3.344   7.731
   52POPC   C1A 1110   9.125   3.600   7.278
   52POPC   D2A 1111   8.872   3.573   6.883
   52POPC   C3A 1112   9.000   3.696   6.452
   52POPC   C4A 1113   8.860   3.847   6.040
   52POPC   C1B 1114   8.862   3.157   7.338
   52POPC   C2B 1115   9.040   3.102   6.946
   52POPC   C3B 1116   8.791   3.138   6.589
   52POPC   C4B 1117   8.673   3.374   6.201
   53POPC   NC3 1118   1.713   5.323   7.980
   53POPC   PO4 1119   2.162   5.842   8.170
   53POPC   GL1 1120   2.129   5.602   7.757
   53POPC   GL2 1121   1.782   5.700   7.635
   53POPC   C1A 1122   2.141   5.724   7.285
   53POPC   D2A 1123   1.906   5.734   6.881
   53POPC   C3A 1124   2.148   5.702   6.496
   53POPC   C4A 1125   2.018   5.476   6.104
   53POPC   C1B 1126   1.612   5.950   7.263
   53POPC   C2B 1127   1.375   6.144   6.900
   53POPC   C3B 1128   1.466   6.205   6.478
   53POPC   C4B 1129   1.721   5.880   6.281
   54POPC   NC3 1130  11.082   9.773   8.156
   54POPC   PO4 1131   0.020   9.179   8.112
   54POPC   GL1 1132  11.496   9.394   7.678
   54POPC   GL2 1133  11.166   9.523   7.727
   54POPC   C1A 1134  11.343   9.605   7.259
   54POPC   D2A 1135  11.409   9.930   6.901
   54POPC   C3A 1136  11.393   9.728   6.523
   54POPC   C4A 1137  11.459   9.679   6.097
   54POPC   C1B 1138  10.883   9.758   7.464
   54POPC   C2B 1139  10.878   9.634   7.049
   54POPC   C3B 1140  10.888   9.565   6.633
   54POPC   C4B 1141  11.071   9.406   6.285
   55POPC   NC3 1142  10.774   5.067   8.035
   55POPC   PO4 1143  10.172   5.428   8.125
   55POPC   GL1 1144  10.216   5.263   7.706
   55POPC   GL2 1145  10.427   4.964   7.661
   55POPC   C1A 1146  10.366   5.385   7.296
   55POPC   D2A 1147  10.485   5.239   6.873
   55POPC   C3A 1148  10.182   5.270   6.549
   55POPC   C4A 1149  10.216   4.934   6.261
   55POPC   C1B 1150  10.661   4.809   7.304
   55POPC   C2B 1151  10.643   4.750   6.874
   55POPC   C3B 1152  10.685   4.893   6.449
   55POPC   C4B 1153  10.604   4.683   6.047
   56POPC   NC3 1154   5.899   0.492   8.138
   56POPC   PO4 1155   5.263   0.312   8.260
   56POPC   GL1 1156   5.449   0.486   7.800
   56POPC   GL2 1157   5.679   0.754   7.763
   56POPC   C1A 1158   5.752   0.408   7.402
   56POPC   D2A 1159   5.666   0.246   6.972
   56POPC   C3A 1160   5.986   0.179   6.656
   56POPC   C4A 1161   6.002   0.074   6.223
   56POPC   C1B 1162   6.106   0.771   7.525
   56POPC   C2B 1163   6.141   0.839   7.056
   56POPC   C3B 1164   5.875   0.695   6.698
   56POPC   C4B 1165   5.785   0.527   6.292
   57POPC   NC3 1166   9.518  11.164   8.081
   57POPC   PO4 1167   9.287  10.655   7.734
   57POPC   GL1 1168   9.538  10.947   7.560
   57POPC   GL2 1169   9.426  11.291   7.587
   57POPC   C1A 1170   9.530  11.040   7.124
   57POPC   D2A 1171   9.784  10.992   6.772
   57POPC   C3A 1172   9.524  10.993   6.435
   57POPC   C4A 1173   9.710  11.008   6.066
   57POPC   C1B 1174   9.703  11.490   7.276
   57POPC   C2B 1175   9.634  11.495   6.834
   57POPC   C3B 1176   9.767  11.453   6.416
   57POPC   C4B 1177   9.721  11.492   5.960
   58POPC   NC3 1178  10.502   8.272   8.367
   58POPC   PO4 1179   9.946   8.390   7.936
   58POPC   GL1 1180  10.106   8.293   7.571
   58POPC   GL2 1181  10.261   7.983   7.639
   58POPC   C1A 1182  10.164   8.235   7.150
   58POPC   D2A 1183  10.345   8.110   6.804
   58POPC   C3A 1184  10.163   8.311   6.484
   58POPC   C4A 1185  10.310   8.211   6.110
   58POPC   C1B 1186  10.599   8.025   7.321
   58POPC   C2B 1187  10.851   8.220   6.974
   58POPC   C3B 1188  10.777   8.262   6.519
   58POPC   C4B 1189  10.603   7.881   6.330
   59POPC   NC3 1190   4.702   1.237   8.001
   59POPC   PO4 1191   4.157   0.773   8.044
   59POPC   GL1 1192   3.994   1.052   7.722
   59POPC   GL2 1193   4.340   1.059   7.631
   59POPC   C1A 1194   3.887   0.960   7.279
   59POPC   D2A 1195   4.156   0.931   6.911
   59POPC   C3A 1196   4.003   0.953   6.540
   59POPC   C4A 1197   4.284   1.183   6.404
   59POPC   C1B 1198   4.288   1.277   7.252
   59POPC   C2B 1199   4.522   1.374   6.867
   59POPC   C3B 1200   4.586   1.561   6.506
   59POPC   C4B 1201   4.153   1.703   6.417
   60POPC   NC3 1202   1.359   4.839   8.188
   60POPC   PO4 1203   2.033   5.047   8.172
   60POPC   GL1 1204   2.021   4.945   7.736
   60POPC   GL2 1205   1.880   5.198   7.527
   60POPC   C1A 1206   2.015   4.747   7.324
   60POPC   D2A 1207   1.906   5.030   6.974
   60POPC   C3A 1208   1.868   4.814   6.574
   60POPC   C4A 1209   1.835   5.000   6.183
   60POPC   C1B 1210   2.253   5.227   7.319
   60POPC   C2B 1211   2.317   5.378   6.889
   60POPC   C3B 1212   2.265   5.203   6.459
   60POPC   C4B 1213   2.523   5.207   6.061
   61POPC   NC3 1214   9.802   5.128   8.200
   61POPC   PO4 1215   9.764   4.462   8.015
   61POPC   GL1 1216   9.926   4.821   7.738
   61POPC   GL2 1217   9.715   5.129   7.704
   61POPC   C1A 1218  10.047   4.971   7.291
   61POPC   D2A 1219  10.133   4.845   6.842
   61POPC   C3A 1220   9.796   4.942   6.515
   61POPC   C4A 1221   9.648   4.816   6.114
   61POPC   C1B 1222   9.539   5.069   7.301
   61POPC   C2B 1223   9.542   5.204   6.865
   61POPC   C3B 1224   9.346   5.173   6.443
   61POPC   C4B 1225   9.421   5.264   6.021
   62POPC   NC3 1226  11.319  11.192   7.969
   62POPC   PO4 1227  10.757   0.025   8.086
   62POPC   GL1 1228  11.005   0.058   7.739
   62POPC   GL2 1229  10.754  11.461   7.498
   62POPC   C1A 1230  11.276   0.046   7.369
   62POPC   D2A 1231  11.033   0.026   6.988
   62POPC   C3A 1232  11.307  11.492   6.654
   62POPC   C4A 1233  11.297  11.439   6.224
   62POPC   C1B 1234  11.008  11.112   7.324
   62POPC   C2B 1235  11.137  11.012   6.917
   62POPC   C3B 1236  11.295  10.985   6.525
   62POPC   C4B 1237  11.098  10.968   6.151
   63POPC   NC3 1238  10.227   3.404   8.243
   63POPC   PO4 1239  10.691   3.322   7.748
   63POPC   GL1 1240  10.306   3.296   7.568
   63POPC   GL2 1241  10.196   3.594   7.757
   63POPC   C1A 1242  10.319   3.273   7.109
   63POPC   D2A 1243  10.255   3.342   6.671
   63POPC   C3A 1244  10.595   3.496   6.351
   63POPC   C4A 1245  10.614   3.323   5.895
   63POPC   C1B 1246  10.167   3.752   7.342
   63POPC   C2B 1247  10.382   3.754   6.930
   63POPC   C3B 1248  10.209   3.851   6.533
   63POPC   C4B 1249  10.223   3.699   6.100
   64POPC   NC3 1250   6.709   0.063   8.225
   64POPC   PO4 1251   6.357   0.550   8.185
   64POPC   GL1 1252   6.293   0.324   7.752
   64POPC   GL2 1253   6.571   0.068   7.688
   64POPC   C1A 1254   6.243   0.312   7.263
   64POPC   D2A 1255   6.467   0.249   6.848
   64POPC   C3A 1256   6.365   0.535   6.508
   64POPC   C4A 1257   6.255   0.484   6.081
   64POPC   C1B 1258   6.708   0.455   7.443
   64POPC   C2B 1259   6.884   0.534   6.999
   64POPC   C3B 1260   6.885   0.456   6.538
   64POPC   C4B 1261   6.757   0.642   6.131
   65POPC   NC3 1262   4.816  10.234   8.234
   65POPC   PO4 1263   4.945  10.955   8.209
   65POPC   GL1 1264   5.033  10.592   7.862
   65POPC   GL2 1265   5.374  10.688   7.770
   65POPC   C1A 1266   5.190  10.379   7.420
   65POPC   D2A 1267   5.072  10.383   6.937
   65POPC   C3A 1268   5.085  10.138   6.530
   65POPC   C4A 1269   5.062  10.111   6.092
   65POPC   C1B 1270   5.369  10.845   7.289
   65POPC   C2B 1271   5.298  10.870   6.815
   65POPC   C3B 1272   5.141  10.662   6.412
   65POPC   C4B 1273   5.225  10.578   5.929
   66POPC   NC3 1274  11.497   5.423   8.115
   66POPC   PO4 1275   0.022   4.688   8.095
   66POPC   GL1 1276  11.195   4.808   7.822
   66POPC   GL2 1277  11.182   5.195   7.760
   66POPC   C1A 1278  11.163   4.865   7.385
   66POPC   D2A 1279  11.135   4.661   7.002
   66POPC   C3A 1280  11.158   4.889   6.643
   66POPC   C4A 1281  11.153   4.737   6.250
   66POPC   C1B 1282  10.843   5.268   7.436
   66POPC   C2B 1283  10.962   5.166   7.020
   66POPC   C3B 1284  10.939   5.362   6.615
   66POPC   C4B 1285  10.611   5.388   6.316
   67POPC   NC3 1286   8.071  10.508   8.054
   67POPC   PO4 1287   8.337   9.973   7.663
   67POPC   GL1 1288   8.013  10.261   7.593
   67POPC   GL2 1289   8.090  10.637   7.575
   67POPC   C1A 1290   7.790  10.336   7.205
   67POPC   D2A 1291   8.058  10.456   6.855
   67POPC   C3A 1292   8.144  10.121   6.562
   67POPC   C4A 1293   7.769  10.189   6.370
   67POPC   C1B 1294   7.834  10.828   7.310
   67POPC   C2B 1295   7.747  10.891   6.868
   67POPC   C3B 1296   8.048  10.899   6.562
   67POPC   C4B 1297   8.078  10.574   6.308
   68POPC   NC3 1298   4.489   2.731   7.936
   68POPC   PO4 1299   3.924   2.443   8.035
   68POPC   GL1 1300   4.090   2.499   7.634
   68POPC   GL2 1301   4.017   2.832   7.644
   68POPC   C1A 1302   4.433   2.546   7.296
   68POPC   D2A 1303   4.599   2.359   6.888
   68POPC   C3A 1304   4.577   2.571   6.490
   68POPC   C4A 1305   4.449   2.425   6.095
   68POPC   C1B 1306   3.920   2.740   7.204
   68POPC   C2B 1307   4.132   2.750   6.782
   68POPC   C3B 1308   4.117   2.745   6.324
   68POPC   C4B 1309   4.386   2.933   5.994
   69POPC   NC3 1310   1.372   6.232   8.220
   69POPC   PO4 1311   1.237   5.564   7.995
   69POPC   GL1 1312   1.269   5.857   7.664
   69POPC   GL2 1313   1.315   5.574   7.471
   69POPC   C1A 1314   1.059   5.964   7.240
   69POPC   D2A 1315   0.893   5.866   6.800
   69POPC   C3A 1316   0.952   6.110   6.412
   69POPC   C4A 1317   0.783   6.060   5.959
   69POPC   C1B 1318   1.594   5.433   7.175
   69POPC   C2B 1319   1.373   5.616   6.832
   69POPC   C3B 1320   1.259   5.695   6.414
   69POPC   C4B 1321   1.509   5.406   6.192
   70POPC   NC3 1322   3.549   0.182   8.170
   70POPC   PO4 1323   3.607  10.975   8.238
   70POPC   GL1 1324   3.681  10.952   7.812
   70POPC   GL2 1325   3.640  11.311   7.737
   70POPC   C1A 1326   3.801  10.946   7.383
   70POPC   D2A 1327   3.912  11.250   7.073
   70POPC   C3A 1328   3.776  11.150   6.637
   70POPC   C4A 1329   3.776  11.190   6.177
   70POPC   C1B 1330   3.376  11.288   7.339
   70POPC   C2B 1331   3.187  11.354   6.905
   70POPC   C3B 1332   3.324  11.341   6.446
   70POPC   C4B 1333   3.334  10.902   6.282
   71POPC   NC3 1334  11.138   4.447   8.243
   71POPC   PO4 1335  11.434   3.888   8.032
   71POPC   GL1 1336  11.373   4.271   7.798
   71POPC   GL2 1337  11.027   4.301   7.767
   71POPC   C1A 1338  11.422   4.435   7.372
   71POPC   D2A 1339  11.496   4.264   6.986
   71POPC   C3A 1340  11.394   4.337   6.575
   71POPC   C4A 1341  11.413   4.055   6.224
   71POPC   C1B 1342  10.938   4.351   7.360
   71POPC   C2B 1343  11.004   4.165   6.954
   71POPC   C3B 1344  10.903   4.426   6.582
   71POPC   C4B 1345  10.960   4.267   6.183
   72POPC   NC3 1346   9.375   4.237   8.071
   72POPC   PO4 1347  10.007   3.859   8.191
   72POPC   GL1 1348   9.824   3.952   7.768
   72POPC   GL2 1349   9.996   4.193   7.565
   72POPC   C1A 1350   9.626   3.810   7.368
   72POPC   D2A 1351   9.379   3.898   6.962
   72POPC   C3A 1352   9.485   3.903   6.524
   72POPC   C4A 1353   9.824   4.038   6.264
   72POPC   C1B 1354   9.755   4.533   7.347
   72POPC   C2B 1355   9.664   4.673   6.935
   72POPC   C3B 1356   9.643   4.456   6.523
   72POPC   C4B 1357   9.294   4.408   6.252
   73POPC   NC3 1358   2.579   8.045   7.965
   73POPC   PO4 1359   2.084   7.536   8.225
   73POPC   GL1 1360   2.043   7.380   7.792
   73POPC   GL2 1361   1.735   7.392   7.765
   73POPC   C1A 1362   2.086   7.558   7.343
   73POPC   D2A 1363   2.212   7.706   6.885
   73POPC   C3A 1364   2.205   7.504   6.474
   73POPC   C4A 1365   1.993   7.609   6.116
   73POPC   C1B 1366   1.615   7.367   7.337
   73POPC   C2B 1367   1.852   7.285   6.943
   73POPC   C3B 1368   1.715   7.356   6.532
   73POPC   C4B 1369   1.817   7.131   6.163
   74POPC   NC3 1370  10.575   1.333   8.369
   74POPC   PO4 1371  10.138   0.863   8.146
   74POPC   GL1 1372  10.271   0.961   7.745
   74POPC   GL2 1373  10.311   1.334   7.753
   74POPC   C1A 1374  10.313   1.013   7.325
   74POPC   D2A 1375   9.978   1.012   7.034
   74POPC   C3A 1376  10.166   1.011   6.629
   74POPC   C4A 1377  10.558   1.121   6.384
   74POPC   C1B 1378  10.162   1.479   7.314
   74POPC   C2B 1379  10.315   1.396   6.922
   74POPC   C3B 1380  10.259   1.523   6.508
   74POPC   C4B 1381  10.399   1.540   6.060
   75POPC   NC3 1382   0.556   4.763   8.005
   75POPC   PO4 1383   0.458   5.479   7.933
   75POPC   GL1 1384   0.522   5.137   7.659
   75POPC   GL2 1385   0.172   5.028   7.698
   75POPC   C1A 1386   0.640   5.061   7.234
   75POPC   D2A 1387   0.414   5.137   6.836
   75POPC   C3A 1388   0.603   5.031   6.466
   75POPC   C4A 1389   0.894   4.743   6.394
   75POPC   C1B 1390   0.167   4.869   7.257
   75POPC   C2B 1391   0.109   4.738   6.824
   75POPC   C3B 1392   0.111   4.949   6.415
   75POPC   C4B 1393   0.282   5.327   6.185
   76POPC   NC3 1394   0.878   7.316   8.187
   76POPC   PO4 1395   0.327   7.715   8.326
   76POPC   GL1 1396   0.533   7.609   7.838
   76POPC   GL2 1397   0.427   7.297   7.691
   76POPC   C1A 1398   0.533   7.620   7.344
   76POPC   D2A 1399   0.336   7.478   6.995
   76POPC   C3A 1400   0.516   7.664   6.636
   76POPC   C4A 1401   0.436   7.573   6.222
   76POPC   C1B 1402   0.520   7.076   7.340
   76POPC   C2B 1403   0.457   6.973   6.933
   76POPC   C3B 1404   0.400   7.165   6.565
   76POPC   C4B 1405   0.684   7.107   6.259
   77POPC   NC3 1406   2.075   4.409   8.023
   77POPC   PO4 1407   1.530   3.909   8.082
   77POPC   GL1 1408   1.600   4.174   7.713
   77POPC   GL2 1409   1.947   4.165   7.576
   77POPC   C1A 1410   1.576   4.341   7.266
   77POPC   D2A 1411   1.781   4.077   6.916
   77POPC   C3A 1412   1.665   4.125   6.475
   77POPC   C4A 1413   1.671   4.478   6.204
   77POPC   C1B 1414   2.210   3.995   7.208
   77POPC   C2B 1415   2.286   4.083   6.746
   77POPC   C3B 1416   2.133   4.366   6.408
   77POPC   C4B 1417   2.272   4.756   6.212
   78POPC   NC3 1418   7.119  10.205   8.058
   78POPC   PO4 1419   7.576  10.748   8.066
   78POPC   GL1 1420   7.571  10.528   7.633
   78POPC   GL2 1421   7.494  10.174   7.655
   78POPC   C1A 1422   7.379  10.681   7.182
   78POPC   D2A 1423   7.109  10.622   6.811
   78POPC   C3A 1424   7.429  10.558   6.517
   78POPC   C4A 1425   7.641  10.848   6.275
   78POPC   C1B 1426   7.184  10.251   7.331
   78POPC   C2B 1427   7.346  10.204   6.921
   78POPC   C3B 1428   7.286  10.069   6.498
   78POPC   C4B 1429   7.185  10.182   6.107
   79POPC   NC3 1430   1.914   1.188   8.078
   79POPC   PO4 1431   2.288   1.625   7.867
   79POPC   GL1 1432   2.082   1.342   7.601
   79POPC   GL2 1433   1.742   1.351   7.643
   79POPC   C1A 1434   2.202   1.099   7.228
   79POPC   D2A 1435   2.362   0.921   6.828
   79POPC   C3A 1436   2.145   1.149   6.470
   79POPC   C4A 1437   2.228   1.399   6.110
   79POPC   C1B 1438   1.675   1.130   7.264
   79POPC   C2B 1439   1.548   1.306   6.888
   79POPC   C3B 1440   1.593   1.150   6.491
   79POPC   C4B 1441   1.718   0.975   6.135
   80POPC   NC3 1442  10.260   9.178   8.117
   80POPC   PO4 1443  10.659   9.757   8.320
   80POPC   GL1 1444  10.570   9.648   7.859
   80POPC   GL2 1445  10.209   9.652   7.787
   80POPC   C1A 1446  10.487   9.423   7.412
   80POPC   D2A 1447  10.384   9.593   6.983
   80POPC   C3A 1448  10.349   9.535   6.531
   80POPC   C4A 1449  10.636   9.764   6.239
   80POPC   C1B 1450  10.201   9.885   7.366
   80POPC   C2B 1451  10.136  10.066   6.925
   80POPC   C3B 1452  10.068   9.969   6.467
   80POPC   C4B 1453  10.178   9.842   6.021
   81POPC   NC3 1454   1.883   3.573   8.045
   81POPC   PO4 1455   2.400   3.995   8.072
   81POPC   GL1 1456   2.233   3.752   7.692
   81POPC   GL2 1457   2.201   3.411   7.693
   81POPC   C1A 1458   1.857   3.665   7.373
   81POPC   D2A 1459   1.803   3.552   6.906
   81POPC   C3A 1460   2.010   3.739   6.494
   81POPC   C4A 1461   2.374   3.941   6.238
   81POPC   C1B 1462   2.160   3.267   7.284
   81POPC   C2B 1463   1.963   3.063   6.998
   81POPC   C3B 1464   2.143   3.154   6.639
   81POPC   C4B 1465   1.969   3.280   6.293
   82POPC   NC3 1466  10.280   2.159   7.966
   82POPC   PO4 1467   9.794   1.785   8.325
   82POPC   GL1 1468   9.759   1.685   7.789
   82POPC   GL2 1469   9.390   1.690   7.630
   82POPC   C1A 1470   9.881   1.906   7.351
   82POPC   D2A 1471  10.108   1.879   6.927
   82POPC   C3A 1472   9.851   1.839   6.514
   82POPC   C4A 1473   9.919   1.690   6.126
   82POPC   C1B 1474   9.392   1.875   7.235
   82POPC   C2B 1475   9.659   2.082   6.906
   82POPC   C3B 1476   9.600   2.328   6.495
   82POPC   C4B 1477   9.381   2.355   6.077
   83POPC   NC3 1478   0.812   5.676   8.201
   83POPC   PO4 1479   0.175   5.846   8.249
   83POPC   GL1 1480   0.218   5.937   7.783
   83POPC   GL2 1481   0.573   5.977   7.765
   83POPC   C1A 1482   0.215   5.734   7.350
   83POPC   D2A 1483   0.550   5.568   7.073
   83POPC   C3A 1484   0.472   5.586   6.613
   83POPC   C4A 1485   0.726   5.652   6.261
   83POPC   C1B 1486   0.564   6.089   7.311
   83POPC   C2B 1487   0.380   6.024   6.892
   83POPC   C3B 1488   0.450   6.063   6.430
   83POPC   C4B 1489   0.134   5.821   6.219
   84POPC   NC3 1490  10.418  10.146   8.124
   84POPC   PO4 1491  10.092  10.780   8.066
   84POPC   GL1 1492  10.262  10.469   7.711
   84POPC   GL2 1493  10.520  10.154   7.641
   84POPC   C1A 1494  10.306  10.459   7.260
   84POPC   D2A 1495  10.278  10.778   6.941
   84POPC   C3A 1496  10.298  10.592   6.556
   84POPC   C4A 1497  10.129  10.746   6.214
   84POPC   C1B 1498  10.801  10.422   7.410
   84POPC   C2B 1499  10.784  10.655   7.022
   84POPC   C3B 1500  10.801  10.735   6.572
   84POPC   C4B 1501  10.783  10.575   6.129
   85POPC   NC3 1502   4.469   0.445   7.883
   85POPC   PO4 1503   4.056   0.039   8.195
   85POPC   GL1 1504   3.986   0.204   7.725
   85POPC   GL2 1505   4.029   0.552   7.616
   85POPC   C1A 1506   4.030   0.245   7.223
   85POPC   D2A 1507   3.922   0.500   6.807
   85POPC   C3A 1508   4.058   0.332   6.376
   85POPC   C4A 1509   4.141   0.379   5.929
   85POPC   C1B 1510   4.333   0.665   7.299
   85POPC   C2B 1511   4.424   0.481   6.910
   85POPC   C3B 1512   4.429   0.665   6.495
   85POPC   C4B 1513   4.639   0.553   6.144
   86POPC   NC3 1514   1.995   1.903   8.110
   86POPC   PO4 1515   2.179   2.589   7.956
   86POPC   GL1 1516   2.013   2.304   7.656
   86POPC   GL2 1517   1.954   1.909   7.599
   86POPC   C1A 1518   2.056   2.286   7.226
   86POPC   D2A 1519   1.963   2.015   6.911
   86POPC   C3A 1520   2.071   2.106   6.479
   86POPC   C4A 1521   1.890   2.381   6.184
   86POPC   C1B 1522   1.856   1.632   7.233
   86POPC   C2B 1523   2.006   1.508   6.814
   86POPC   C3B 1524   1.837   1.599   6.393
   86POPC   C4B 1525   1.941   1.819   6.014
   87POPC   NC3 1526   9.575   3.701   8.141
   87POPC   PO4 1527   9.844   3.152   8.251
   87POPC   GL1 1528   9.761   3.329   7.813
   87POPC   GL2 1529   9.461   3.168   7.835
   87POPC   C1A 1530   9.854   3.354   7.318
   87POPC   D2A 1531   9.871   3.686   6.911
   87POPC   C3A 1532   9.816   3.527   6.464
   87POPC   C4A 1533   9.804   3.117   6.498
   87POPC   C1B 1534   9.380   3.184   7.401
   87POPC   C2B 1535   9.479   3.350   6.964
   87POPC   C3B 1536   9.318   3.301   6.547
   87POPC   C4B 1537   9.360   3.452   6.147
   88POPC   NC3 1538   8.708   9.030   8.129
   88POPC   PO4 1539   9.190   8.497   8.077
   88POPC   GL1 1540   8.875   8.693   7.781
   88POPC   GL2 1541   9.022   9.002   7.648
   88POPC   C1A 1542   8.633   8.816   7.386
   88POPC   D2A 1543   8.811   8.816   6.965
   88POPC   C3A 1544   8.655   8.705   6.551
   88POPC   C4A 1545   8.413   8.825   6.179
   88POPC   C1B 1546   8.988   9.241   7.225
   88POPC   C2B 1547   8.775   9.309   6.796
   88POPC   C3B 1548   8.858   9.140   6.333
   88POPC   C4B 1549   9.185   9.062   5.946
   89POPC   NC3 1550   2.640   1.341   8.030
   89POPC   PO4 1551   2.251   0.819   8.085
   89POPC   GL1 1552   2.489   1.006   7.664
   89POPC   GL2 1553   2.590   1.365   7.534
   89POPC   C1A 1554   2.766   0.984   7.260
   89POPC   D2A 1555   2.930   0.914   6.844
   89POPC   C3A 1556   2.717   0.934   6.445
   89POPC   C4A 1557   2.428   0.869   6.147
   89POPC   C1B 1558   3.032   1.407   7.418
   89POPC   C2B 1559   3.070   1.394   6.981
   89POPC   C3B 1560   3.049   1.303   6.530
   89POPC   C4B 1561   2.723   1.439   6.227
   90POPC   NC3 1562   9.550   8.209   8.070
   90POPC   PO4 1563   9.422   7.647   8.097
   90POPC   GL1 1564   9.430   7.879   7.659
   90POPC   GL2 1565   9.601   8.204   7.585
   90POPC   C1A 1566   9.328   8.073   7.213
   90POPC   D2A 1567   9.589   8.098   6.871
   90POPC   C3A 1568   9.500   8.269   6.508
   90POPC   C4A 1569   9.375   8.026   6.212
   90POPC   C1B 1570   9.813   7.900   7.303
   90POPC   C2B 1571   9.943   7.737   6.861
   90POPC   C3B 1572   9.858   7.898   6.421
   90POPC   C4B 1573   9.812   8.239   6.081
   91POPC   NC3 1574   6.658   1.673   8.042
   91POPC   PO4 1575   7.027   2.225   7.962
   91POPC   GL1 1576   6.971   1.897   7.637
   91POPC   GL2 1577   6.597   1.805   7.570
   91POPC   C1A 1578   6.910   1.841   7.187
   91POPC   D2A 1579   6.802   2.075   6.831
   91POPC   C3A 1580   6.860   1.806   6.476
   91POPC   C4A 1581   6.602   1.774   6.146
   91POPC   C1B 1582   6.225   1.767   7.303
   91POPC   C2B 1583   6.206   2.025   6.942
   91POPC   C3B 1584   6.384   2.040   6.542
   91POPC   C4B 1585   6.155   2.047   6.184
   92POPC   NC3 1586   6.302   3.420   8.297
   92POPC   PO4 1587   6.615   3.024   8.144
   92POPC   GL1 1588   6.447   3.259   7.744
   92POPC   GL2 1589   6.478   3.611   7.810
   92POPC   C1A 1590   6.392   3.251   7.233
   92POPC   D2A 1591   6.626   3.270   6.809
   92POPC   C3A 1592   6.433   3.249   6.376
   92POPC   C4A 1593   6.498   3.134   5.930
   92POPC   C1B 1594   6.640   3.661   7.389
   92POPC   C2B 1595   6.471   3.735   6.966
   92POPC   C3B 1596   6.580   3.725   6.517
   92POPC   C4B 1597   6.509   3.655   6.047
   93POPC   NC3 1598   8.090   1.355   8.185
   93POPC   PO4 1599   7.727   0.789   7.977
   93POPC   GL1 1600   7.920   1.073   7.647
   93POPC   GL2 1601   8.254   1.254   7.669
   93POPC   C1A 1602   7.934   1.290   7.223
   93POPC   D2A 1603   7.628   1.346   6.860
   93POPC   C3A 1604   7.825   1.171   6.497
   93POPC   C4A 1605   7.976   1.110   6.038
   93POPC   C1B 1606   8.277   0.879   7.355
   93POPC   C2B 1607   8.300   0.793   6.896
   93POPC   C3B 1608   8.242   0.907   6.469
   93POPC   C4B 1609   8.335   1.353   6.299
   94POPC   NC3 1610   6.408  10.704   8.159
   94POPC   PO4 1611   6.501  10.029   8.161
   94POPC   GL1 1612   6.481  10.311   7.809
   94POPC   GL2 1613   6.799  10.292   7.679
   94POPC   C1A 1614   6.406  10.548   7.408
   94POPC   D2A 1615   6.536  10.481   6.929
   94POPC   C3A 1616   6.275  10.670   6.580
   94POPC   C4A 1617   6.243  10.608   6.088
   94POPC   C1B 1618   6.663  10.113   7.314
   94POPC   C2B 1619   6.866  10.030   6.920
   94POPC   C3B 1620   6.823  10.264   6.535
   94POPC   C4B 1621   6.444  10.199   6.359
   95POPC   NC3 1622   6.864   2.651   8.052
   95POPC   PO4 1623   7.554   2.684   8.198
   95POPC   GL1 1624   7.335   2.714   7.771
   95POPC   GL2 1625   7.359   2.423   7.604
   95POPC   C1A 1626   7.040   2.712   7.357
   95POPC   D2A 1627   7.084   2.496   6.916
   95POPC   C3A 1628   7.057   2.703   6.470
   95POPC   C4A 1629   6.946   3.096   6.202
   95POPC   C1B 1630   7.507   2.570   7.205
   95POPC   C2B 1631   7.571   2.339   6.840
   95POPC   C3B 1632   7.596   2.518   6.454
   95POPC   C4B 1633   7.452   2.851   6.167
   96POPC   NC3 1634  11.094   2.144   8.099
   96POPC   PO4 1635  11.312   1.466   8.062
   96POPC   GL1 1636  11.239   1.786   7.761
   96POPC   GL2 1637  11.425   1.596   7.546
   96POPC   C1A 1638  11.085   1.960   7.366
   96POPC   D2A 1639  11.079   1.750   6.963
   96POPC   C3A 1640  11.155   2.000   6.588
   96POPC   C4A 1641  11.211   1.807   6.189
   96POPC   C1B 1642   0.068   1.830   7.211
   96POPC   C2B 1643   0.054   1.765   6.791
   96POPC   C3B 1644   0.165   1.927   6.432
   96POPC   C4B 1645   0.256   1.568   6.255
   97POPC   NC3 1646   5.283   0.777   8.185
   97POPC   PO4 1647   5.155   1.431   8.021
   97POPC   GL1 1648   5.050   1.175   7.655
   97POPC   GL2 1649   5.236   0.889   7.532
   97POPC   C1A 1650   4.773   1.129   7.273
   97POPC   D2A 1651   4.683   0.913   6.855
   97POPC   C3A 1652   4.939   0.865   6.505
   97POPC   C4A 1653   4.748   1.058   6.166
   97POPC   C1B 1654   5.256   1.257   7.219
   97POPC   C2B 1655   5.068   1.262   6.832
   97POPC   C3B 1656   5.088   1.339   6.411
   97POPC   C4B 1657   5.392   1.446   6.123
   98POPC   NC3 1658   0.331   3.664   7.842
   98POPC   PO4 1659   0.349   3.035   8.159
   98POPC   GL1 1660   0.597   3.069   7.683
   98POPC   GL2 1661   0.802   3.381   7.643
   98POPC   C1A 1662   0.466   3.119   7.184
   98POPC   D2A 1663   0.077   3.229   6.922
   98POPC   C3A 1664   0.107   3.404   6.490
   98POPC   C4A 1665   0.359   3.237   6.162
   98POPC   C1B 1666   0.668   3.592   7.233
   98POPC   C2B 1667   0.524   3.543   6.791
   98POPC   C3B 1668   0.636   3.636   6.342
   98POPC   C4B 1669   0.613   3.602   5.869
   99POPC   NC3 1670  10.279   6.542   7.985
   99POPC   PO4 1671  10.752   7.001   7.722
   99POPC   GL1 1672  10.388   6.861   7.601
   99POPC   GL2 1673  10.568   6.532   7.573
   99POPC   C1A 1674  10.259   6.809   7.190
   99POPC   D2A 1675  10.364   6.653   6.801
   99POPC   C3A 1676  10.592   6.886   6.565
   99POPC   C4A 1677  10.451   6.974   6.252
   99POPC   C1B 1678  10.473   6.310   7.206
   99POPC   C2B 1679  10.318   6.162   6.814
   99POPC   C3B 1680  10.378   6.299   6.391
   99POPC   C4B 1681  10.194   6.139   6.033
  100POPC   NC3 1682  10.545   5.788   8.090
  100POPC   PO4 1683   9.959   6.171   7.992
  100POPC   GL1 1684  10.309   6.095   7.707
  100POPC   GL2 1685  10.197   5.772   7.697
  100POPC   C1A 1686  10.597   5.850   7.407
  100POPC   D2A 1687  10.775   5.635   7.060
  100POPC   C3A 1688  10.709   5.852   6.693
  100POPC   C4A 1689  10.691   5.893   6.268
  100POPC   C1B 1690  10.125   5.897   7.256
  100POPC   C2B 1691  10.251   5.679   6.882
  100POPC   C3B 1692  10.224   5.775   6.439
  100POPC   C4B 1693  10.295   5.651   5.990
  101POPC   NC3 1694  11.468   2.829   7.997
  101POPC   PO4 1695  10.841   3.101   8.200
  101POPC   GL1 1696  10.977   2.915   7.731
  101POPC   GL2 1697  11.276   2.933   7.553
  101POPC   C1A 1698  10.920   3.014   7.238
  101POPC   D2A 1699  11.248   2.828   7.000
  101POPC   C3A 1700  11.056   2.608   6.715
  101POPC   C4A 1701  11.028   2.675   6.330
  101POPC   C1B 1702  11.206   2.496   7.398
  101POPC   C2B 1703  11.394   2.288   7.029
  101POPC   C3B 1704   0.027   2.391   6.610
  101POPC   C4B 1705  11.364   2.297   6.206
  102POPC   NC3 1706   3.496   2.751   8.049
  102POPC   PO4 1707   2.927   2.367   8.014
  102POPC   GL1 1708   3.150   2.612   7.671
  102POPC   GL2 1709   3.541   2.560   7.576
  102POPC   C1A 1710   3.138   2.826   7.252
  102POPC   D2A 1711   3.029   2.868   6.788
  102POPC   C3A 1712   3.264   2.906   6.360
  102POPC   C4A 1713   3.257   2.906   5.877
  102POPC   C1B 1714   3.534   2.376   7.150
  102POPC   C2B 1715   3.682   2.462   6.732
  102POPC   C3B 1716   3.639   2.561   6.300
  102POPC   C4B 1717   3.579   2.473   5.864
  103POPC   NC3 1718   9.549   7.213   8.117
  103POPC   PO4 1719  10.170   6.984   8.079
  103POPC   GL1 1720   9.921   7.122   7.701
  103POPC   GL2 1721   9.823   7.493   7.707
  103POPC   C1A 1722   9.798   7.029   7.244
  103POPC   D2A 1723   9.698   7.260   6.829
  103POPC   C3A 1724   9.601   7.049   6.393
  103POPC   C4A 1725   9.765   6.988   5.943
  103POPC   C1B 1726   9.532   7.470   7.357
  103POPC   C2B 1727   9.377   7.615   6.978
  103POPC   C3B 1728   9.420   7.641   6.546
  103POPC   C4B 1729   9.594   7.518   6.157
  104POPC   NC3 1730   5.503  10.388   8.444
  104POPC   PO4 1731   5.850   9.720   8.196
  104POPC   GL1 1732   5.641   9.930   7.821
  104POPC   GL2 1733   5.862   9.738   7.641
  104POPC   C1A 1734   5.482   9.937   7.376
  104POPC   D2A 1735   5.799   9.875   6.997
  104POPC   C3A 1736   5.656   9.896   6.544
  104POPC   C4A 1737   5.516   9.806   6.093
  104POPC   C1B 1738   5.685   9.475   7.287
  104POPC   C2B 1739   5.476   9.482   6.850
  104POPC   C3B 1740   5.525   9.391   6.400
  104POPC   C4B 1741   5.938   9.392   6.183
  105POPC   NC3 1742   2.004  11.415   8.154
  105POPC   PO4 1743   1.779  10.819   8.101
  105POPC   GL1 1744   1.795  11.110   7.732
  105POPC   GL2 1745   2.106  11.285   7.673
  105POPC   C1A 1746   1.867  11.076   7.283
  105POPC   D2A 1747   1.689  11.135   6.879
  105POPC   C3A 1748   1.973  11.109   6.544
  105POPC   C4A 1749   1.941  10.919   6.161
  105POPC   C1B 1750   2.315  11.406   7.297
  105POPC   C2B 1751   2.145  11.416   6.898
  105POPC   C3B 1752   2.365  11.459   6.498
  105POPC   C4B 1753   2.143  11.383   6.134
  106POPC   NC3 1754   4.136  10.098   7.929
  106POPC   PO4 1755   4.712   9.702   8.066
  106POPC   GL1 1756   4.526   9.834   7.697
  106POPC   GL2 1757   4.204   9.646   7.694
  106POPC   C1A 1758   4.431   9.849   7.259
  106POPC   D2A 1759   4.321   9.618   6.879
  106POPC   C3A 1760   4.363   9.926   6.553
  106POPC   C4A 1761   4.619   9.945   6.213
  106POPC   C1B 1762   3.962   9.636   7.303
  106POPC   C2B 1763   3.825   9.448   6.895
  106POPC   C3B 1764   3.936   9.609   6.487
  106POPC   C4B 1765   4.232   9.623   6.158
  107POPC   NC3 1766   2.677   9.514   8.130
  107POPC   PO4 1767   2.431  10.077   7.944
  107POPC   GL1 1768   2.686   9.770   7.683
  107POPC   GL2 1769   3.065   9.699   7.701
  107POPC   C1A 1770   2.792   9.857   7.272
  107POPC   D2A 1771   2.722   9.992   6.871
  107POPC   C3A 1772   2.438   9.827   6.653
  107POPC   C4A 1773   2.587   9.649   6.323
  107POPC   C1B 1774   3.003   9.404   7.320
  107POPC   C2B 1775   2.837   9.481   6.895
  107POPC   C3B 1776   3.042   9.552   6.496
  107POPC   C4B 1777   2.921   9.330   6.063
  108POPC   NC3 1778   6.775   8.659   8.008
  108POPC   PO4 1779   7.510   8.699   8.084
  108POPC   GL1 1780   7.439   8.924   7.693
  108POPC   GL2 1781   7.072   8.930   7.653
  108POPC   C1A 1782   7.454   8.856   7.264
  108POPC   D2A 1783   7.357   8.698   6.848
  108POPC   C3A 1784   7.603   8.758   6.496
  108POPC   C4A 1785   7.382   8.633   6.179
  108POPC   C1B 1786   7.106   9.232   7.335
  108POPC   C2B 1787   7.283   9.207   6.921
  108POPC   C3B 1788   7.123   9.039   6.532
  108POPC   C4B 1789   7.215   9.157   6.111
  109POPC   NC3 1790  10.493   2.913   7.881
  109POPC   PO4 1791  10.726   2.249   7.853
  109POPC   GL1 1792  10.477   2.482   7.570
  109POPC   GL2 1793  10.105   2.396   7.442
  109POPC   C1A 1794  10.722   2.536   7.221
  109POPC   D2A 1795  10.873   2.218   6.965
  109POPC   C3A 1796  10.704   2.235   6.542
  109POPC   C4A 1797  10.480   2.549   6.378
  109POPC   C1B 1798  10.252   2.773   7.207
  109POPC   C2B 1799  10.585   2.868   6.867
  109POPC   C3B 1800  10.605   3.015   6.465
  109POPC   C4B 1801  10.237   3.150   6.211
  110POPC   NC3 1802   9.669   8.750   8.115
  110POPC   PO4 1803   9.794   9.344   8.033
  110POPC   GL1 1804   9.544   9.063   7.689
  110POPC   GL2 1805   9.618   8.716   7.625
  110POPC   C1A 1806   9.398   8.920   7.224
  110POPC   D2A 1807   9.225   9.042   6.800
  110POPC   C3A 1808   9.236   8.781   6.452
  110POPC   C4A 1809   9.443   8.623   6.090
  110POPC   C1B 1810   9.766   8.549   7.254
  110POPC   C2B 1811   9.959   8.645   6.891
  110POPC   C3B 1812   9.787   8.679   6.513
  110POPC   C4B 1813   9.955   8.720   6.133
  111POPC   NC3 1814   2.909  10.154   7.983
  111POPC   PO4 1815   2.614  10.789   8.084
  111POPC   GL1 1816   2.903  10.673   7.785
  111POPC   GL2 1817   2.658  10.464   7.663
  111POPC   C1A 1818   2.994  10.713   7.350
  111POPC   D2A 1819   2.738  10.765   6.985
  111POPC   C3A 1820   2.950  10.724   6.597
  111POPC   C4A 1821   2.795  10.612   6.215
  111POPC   C1B 1822   2.609  10.341   7.272
  111POPC   C2B 1823   2.358  10.394   6.937
  111POPC   C3B 1824   2.529  10.381   6.582
  111POPC   C4B 1825   2.553  10.140   6.228
  112POPC   NC3 1826   7.778  11.186   7.994
  112POPC   PO4 1827   8.360  10.898   8.019
  112POPC   GL1 1828   8.338  11.113   7.648
  112POPC   GL2 1829   8.030  11.253   7.579
  112POPC   C1A 1830   8.295  10.975   7.237
  112POPC   D2A 1831   8.433  10.810   6.901
  112POPC   C3A 1832   8.521  11.083   6.647
  112POPC   C4A 1833   8.484  11.095   6.239
  112POPC   C1B 1834   8.041   0.012   7.260
  112POPC   C2B 1835   8.085  11.302   6.893
  112POPC   C3B 1836   8.149  11.393   6.485
  112POPC   C4B 1837   7.988  11.186   6.117
  113POPC   NC3 1838   2.475   2.239   7.905
  113POPC   PO4 1839   2.597   1.738   8.274
  113POPC   GL1 1840   2.709   1.826   7.733
  113POPC   GL2 1841   2.860   2.116   7.587
  113POPC   C1A 1842   2.402   1.940   7.345
  113POPC   D2A 1843   2.463   2.033   6.932
  113POPC   C3A 1844   2.427   1.736   6.568
  113POPC   C4A 1845   2.433   1.872   6.130
  113POPC   C1B 1846   2.869   1.859   7.230
  113POPC   C2B 1847   3.035   1.958   6.851
  113POPC   C3B 1848   3.117   2.226   6.512
  113POPC   C4B 1849   2.934   1.984   6.175
  114POPC   NC3 1850   4.445   9.325   8.045
  114POPC   PO4 1851   3.836   9.325   8.075
  114POPC   GL1 1852   3.916   9.228   7.624
  114POPC   GL2 1853   4.155   8.997   7.715
  114POPC   C1A 1854   4.149   9.171   7.207
  114POPC   D2A 1855   4.076   8.996   6.778
  114POPC   C3A 1856   4.219   9.171   6.374
  114POPC   C4A 1857   4.275   9.139   5.897
  114POPC   C1B 1858   4.419   8.774   7.417
  114POPC   C2B 1859   4.506   8.740   6.977
  114POPC   C3B 1860   4.548   8.829   6.529
  114POPC   C4B 1861   4.302   8.701   6.165
  115POPC   NC3 1862  10.894   1.377   7.858
  115POPC   PO4 1863  10.480   1.780   8.226
  115POPC   GL1 1864  10.603   1.770   7.741
  115POPC   GL2 1865  10.321   1.849   7.587
  115POPC   C1A 1866  10.666   1.623   7.266
  115POPC   D2A 1867  10.590   1.816   6.828
  115POPC   C3A 1868  10.747   1.707   6.438
  115POPC   C4A 1869  10.723   1.934   6.034
  115POPC   C1B 1870  10.458   2.086   7.249
  115POPC   C2B 1871  10.347   2.355   6.915
  115POPC   C3B 1872  10.113   2.265   6.570
  115POPC   C4B 1873  10.302   1.988   6.302
  116POPC   NC3 1874  10.930   6.708   8.018
  116POPC   PO4 1875  11.460   6.344   7.996
  116POPC   GL1 1876  11.408   6.367   7.623
  116POPC   GL2 1877  11.265   6.696   7.636
  116POPC   C1A 1878   0.019   6.218   7.246
  116POPC   D2A 1879  11.267   6.335   6.885
  116POPC   C3A 1880  11.498   6.207   6.582
  116POPC   C4A 1881   0.079   6.351   6.207
  116POPC   C1B 1882  11.024   6.533   7.315
  116POPC   C2B 1883  10.879   6.698   6.939
  116POPC   C3B 1884  11.097   6.836   6.556
  116POPC   C4B 1885  11.248   6.717   6.155
  117POPC   NC3 1886   2.204  10.502   8.008
  117POPC   PO4 1887   1.617   9.977   8.060
  117POPC   GL1 1888   1.633  10.216   7.665
  117POPC   GL2 1889   1.735  10.559   7.671
  117POPC   C1A 1890   1.706  10.156   7.222
  117POPC   D2A 1891   2.026   9.990   6.927
  117POPC   C3A 1892   2.049  10.128   6.496
  117POPC   C4A 1893   1.805  10.379   6.193
  117POPC   C1B 1894   2.009  10.565   7.315
  117POPC   C2B 1895   1.851  10.543   6.898
  117POPC   C3B 1896   2.054  10.616   6.558
  117POPC   C4B 1897   2.280  10.558   6.174
  118POPC   NC3 1898   2.799   0.574   8.030
  118POPC   PO4 1899   2.264   0.200   7.927
  118POPC   GL1 1900   2.432   0.498   7.691
  118POPC   GL2 1901   2.700   0.292   7.603
  118POPC   C1A 1902   2.435   0.601   7.274
  118POPC   D2A 1903   2.390   0.348   6.929
  118POPC   C3A 1904   2.486   0.487   6.531
  118POPC   C4A 1905   2.346   0.357   6.141
  118POPC   C1B 1906   2.813   0.178   7.188
  118POPC   C2B 1907   2.881   0.236   6.753
  118POPC   C3B 1908   2.845   0.173   6.325
  118POPC   C4B 1909   3.115   0.158   5.977
  119POPC   NC3 1910   2.951  11.099   8.107
  119POPC   PO4 1911   3.077   0.179   8.042
  119POPC   GL1 1912   2.977  11.369   7.677
  119POPC   GL2 1913   2.620  11.213   7.722
  119POPC   C1A 1914   2.843  11.186   7.275
  119POPC   D2A 1915   2.632  11.276   6.905
  119POPC   C3A 1916   2.841  11.218   6.537
  119POPC   C4A 1917   2.952  11.184   6.114
  119POPC   C1B 1918   2.415  10.904   7.410
  119POPC   C2B 1919   2.244  10.906   6.973
  119POPC   C3B 1920   2.452  10.903   6.578
  119POPC   C4B 1921   2.492  11.025   6.180
  120POPC   NC3 1922   1.553  10.425   8.159
  120POPC   PO4 1923   0.956  10.728   8.111
  120POPC   GL1 1924   1.231  10.637   7.791
  120POPC   GL2 1925   1.139  10.308   7.775
  120POPC   C1A 1926   1.088  10.694   7.361
  120POPC   D2A 1927   0.854  10.542   6.979
  120POPC   C3A 1928   1.109  10.601   6.572
  120POPC   C4A 1929   1.547  10.721   6.465
  120POPC   C1B 1930   1.169  10.191   7.344
  120POPC   C2B 1931   1.288  10.258   6.939
  120POPC   C3B 1932   1.556  10.192   6.633
  120POPC   C4B 1933   1.328  10.190   6.278
  121POPC   NC3 1934   9.834   1.221   8.092
  121POPC   PO4 1935   9.167   1.382   7.985
  121POPC   GL1 1936   9.472   1.188   7.703
  121POPC   GL2 1937   9.832   1.187   7.588
  121POPC   C1A 1938   9.479   0.924   7.321
  121POPC   D2A 1939   9.494   1.055   6.882
  121POPC   C3A 1940   9.268   1.166   6.491
  121POPC   C4A 1941   9.557   0.920   6.243
  121POPC   C1B 1942   9.664   1.422   7.269
  121POPC   C2B 1943   9.794   1.489   6.881
  121POPC   C3B 1944   9.775   1.320   6.486
  121POPC   C4B 1945  10.064   1.189   6.162
  122POPC   NC3 1946   9.955   0.431   8.088
  122POPC   PO4 1947   9.482   0.929   8.184
  122POPC   GL1 1948   9.685   0.749   7.806
  122POPC   GL2 1949   9.574   0.449   7.751
  122POPC   C1A 1950   9.920   0.631   7.405
  122POPC   D2A 1951   9.980   0.340   7.036
  122POPC   C3A 1952   9.897   0.558   6.651
  122POPC   C4A 1953  10.037   0.689   6.246
  122POPC   C1B 1954   9.422   0.405   7.377
  122POPC   C2B 1955   9.483   0.506   6.981
  122POPC   C3B 1956   9.411   0.376   6.575
  122POPC   C4B 1957   9.606   0.411   6.215
  123POPC   NC3 1958   5.043  11.389   8.343
  123POPC   PO4 1959   5.608   0.028   7.925
  123POPC   GL1 1960   5.412  11.230   7.625
  123POPC   GL2 1961   5.063  11.101   7.730
  123POPC   C1A 1962   5.301  11.358   7.177
  123POPC   D2A 1963   5.236   0.026   6.751
  123POPC   C3A 1964   5.128  11.224   6.441
  123POPC   C4A 1965   5.410  11.030   6.152
  123POPC   C1B 1966   4.837  11.158   7.357
  123POPC   C2B 1967   4.867  11.194   6.923
  123POPC   C3B 1968   4.679  11.427   6.622
  123POPC   C4B 1969   4.666  11.360   6.187
  124POPC   NC3 1970   0.468   9.044   8.197
  124POPC   PO4 1971   0.793   8.514   7.980
  124POPC   GL1 1972   0.601   8.805   7.675
  124POPC   GL2 1973   0.227   8.915   7.696
  124POPC   C1A 1974   0.526   8.817   7.228
  124POPC   D2A 1975   0.418   9.053   6.850
  124POPC   C3A 1976   0.650   8.891   6.533
  124POPC   C4A 1977   0.592   8.508   6.323
  124POPC   C1B 1978   0.016   8.858   7.263
  124POPC   C2B 1979   0.170   8.602   6.903
  124POPC   C3B 1980   0.161   8.726   6.483
  124POPC   C4B 1981   0.318   9.102   6.197
  125POPC   NC3 1982   4.210   0.443   8.359
  125POPC   PO4 1983   3.559   0.634   8.304
  125POPC   GL1 1984   3.545   0.549   7.793
  125POPC   GL2 1985   3.359   0.252   7.632
  125POPC   C1A 1986   3.618   0.524   7.295
  125POPC   D2A 1987   3.585   0.164   6.962
  125POPC   C3A 1988   3.546   0.312   6.501
  125POPC   C4A 1989   3.643   0.204   6.058
  125POPC   C1B 1990   3.118   0.549   7.347
  125POPC   C2B 1991   3.270   0.562   6.890
  125POPC   C3B 1992   3.118   0.600   6.427
  125POPC   C4B 1993   3.309   0.635   6.000
  126POPC   NC3 1994   1.051   8.899   7.975
  126POPC   PO4 1995   1.452   8.565   8.431
  126POPC   GL1 1996   1.530   8.774   7.918
  126POPC   GL2 1997   1.337   8.571   7.653
  126POPC   C1A 1998   1.581   8.923   7.400
  126POPC   D2A 1999   1.646   8.834   6.934
  126POPC   C3A 2000   1.754   9.103   6.605
  126POPC   C4A 2001   1.544   9.021   6.207
  126POPC   C1B 2002   1.039   8.732   7.347
  126POPC   C2B 2003   0.956   8.969   6.986
  126POPC   C3B 2004   1.177   8.914   6.640
  126POPC   C4B 2005   1.068   8.837   6.250
  127POPC   NC3 2006   9.713  10.527   7.897
  127POPC   PO4 2007   9.174  10.112   7.992
  127POPC   GL1 2008   9.434  10.211   7.563
  127POPC   GL2 2009   9.825  10.283   7.480
  127POPC   C1A 2010   9.471  10.283   7.100
  127POPC   D2A 2011   9.599  10.082   6.678
  127POPC   C3A 2012   9.355  10.247   6.306
  127POPC   C4A 2013   9.414  10.250   5.846
  127POPC   C1B 2014   9.826  10.624   7.234
  127POPC   C2B 2015   9.866  10.499   6.836
  127POPC   C3B 2016   9.749  10.525   6.436
  127POPC   C4B 2017   9.863  10.265   6.103
  128POPC   NC3 2018   3.480   9.118   7.886
  128POPC   PO4 2019   3.119   8.591   7.937
  128POPC   GL1 2020   3.291   8.809   7.538
  128POPC   GL2 2021   3.674   8.774   7.551
  128POPC   C1A 2022   3.152   8.877   7.108
  128POPC   D2A 2023   3.160   8.536   6.790
  128POPC   C3A 2024   3.235   8.680   6.404
  128POPC   C4A 2025   3.076   9.055   6.465
  128POPC   C1B 2026   3.667   8.990   7.157
  128POPC   C2B 2027   3.558   8.906   6.737
  128POPC   C3B 2028   3.775   8.860   6.355
  128POPC   C4B 2029   3.867   8.812   5.926
  129POPC   NC3 2030  10.508   0.716   8.379
  129POPC   PO4 2031  10.229   0.171   8.358
  129POPC   GL1 2032  10.317   0.162   7.854
  129POPC   GL2 2033  10.496   0.495   7.875
  129POPC   C1A 2034  10.269   0.054   7.375
  129POPC   D2A 2035  10.495   0.159   6.943
  129POPC   C3A 2036  10.227   0.166   6.541
  129POPC   C4A 2037  10.177   0.237   6.069
  129POPC   C1B 2038  10.446   0.533   7.418
  129POPC   C2B 2039  10.362   0.655   6.974
  129POPC   C3B 2040  10.480   0.617   6.553
  129POPC   C4B 2041  10.669   0.609   6.162
  130POPC   NC3 2042   2.439   7.252   8.090
  130POPC   PO4 2043   2.793   7.647   7.888
  130POPC   GL1 2044   2.524   7.404   7.595
  130POPC   GL2 2045   2.375   7.042   7.617
  130POPC   C1A 2046   2.581   7.583   7.201
  130POPC   D2A 2047   2.586   8.026   7.042
  130POPC   C3A 2048   2.617   7.971   6.607
  130POPC   C4A 2049   2.717   7.560   6.414
  130POPC   C1B 2050   2.302   7.130   7.170
  130POPC   C2B 2051   2.502   7.232   6.780
  130POPC   C3B 2052   2.633   7.037   6.372
  130POPC   C4B 2053   2.700   6.905   5.891
  131POPC   NC3 2054   1.195   1.881   8.135
  131POPC   PO4 2055   1.790   2.332   8.202
  131POPC   GL1 2056   1.559   2.133   7.847
  131POPC   GL2 2057   1.207   2.233   7.757
  131POPC   C1A 2058   1.567   2.166   7.375
  131POPC   D2A 2059   1.374   2.202   6.964
  131POPC   C3A 2060   1.562   1.988   6.622
  131POPC   C4A 2061   1.519   2.005   6.206
  131POPC   C1B 2062   1.039   2.035   7.378
  131POPC   C2B 2063   0.911   1.973   6.940
  131POPC   C3B 2064   1.065   2.056   6.518
  131POPC   C4B 2065   1.071   1.838   6.089
  132POPC   NC3 2066   5.417   9.557   8.094
  132POPC   PO4 2067   5.292  10.170   8.100
  132POPC   GL1 2068   5.012  10.040   7.773
  132POPC   GL2 2069   5.104   9.695   7.711
  132POPC   C1A 2070   4.933   9.963   7.322
  132POPC   D2A 2071   5.156   9.870   6.955
  132POPC   C3A 2072   4.868   9.688   6.648
  132POPC   C4A 2073   5.074   9.639   6.284
  132POPC   C1B 2074   5.162   9.483   7.288
  132POPC   C2B 2075   5.008   9.249   6.889
  132POPC   C3B 2076   5.007   9.143   6.428
  132POPC   C4B 2077   5.168   9.232   5.980
  133POPC   NC3 2078   5.711   1.637   8.097
  133POPC   PO4 2079   5.897   0.955   8.168
  133POPC   GL1 2080   5.927   1.221   7.803
  133POPC   GL2 2081   5.576   1.265   7.699
  133POPC   C1A 2082   6.099   1.261   7.381
  133POPC   D2A 2083   6.109   1.387   6.949
  133POPC   C3A 2084   5.961   1.214   6.551
  133POPC   C4A 2085   6.102   0.924   6.264
  133POPC   C1B 2086   5.681   0.988   7.321
  133POPC   C2B 2087   5.626   1.086   6.913
  133POPC   C3B 2088   5.469   1.012   6.514
  133POPC   C4B 2089   5.620   0.992   6.106
  134POPC   NC3 2090   9.457   9.685   8.033
  134POPC   PO4 2091   9.975  10.113   7.957
  134POPC   GL1 2092   9.749   9.825   7.645
  134POPC   GL2 2093   9.722   9.514   7.548
  134POPC   C1A 2094   9.733   9.860   7.182
  134POPC   D2A 2095   9.902   9.599   6.866
  134POPC   C3A 2096   9.698   9.581   6.513
  134POPC   C4A 2097   9.619   9.835   6.174
  134POPC   C1B 2098   9.513   9.397   7.145
  134POPC   C2B 2099   9.717   9.124   6.827
  134POPC   C3B 2100   9.984   9.146   6.496
  134POPC   C4B 2101   9.599   9.097   6.286
  135POPC   NC3 2102   8.761   1.538   7.833
  135POPC   PO4 2103   8.490   1.034   8.121
  135POPC   GL1 2104   8.665   0.944   7.705
  135POPC   GL2 2105   8.971   1.090   7.647
  135POPC   C1A 2106   8.672   1.169   7.266
  135POPC   D2A 2107   8.898   1.199   6.902
  135POPC   C3A 2108   8.716   1.034   6.580
  135POPC   C4A 2109   8.656   0.902   6.187
  135POPC   C1B 2110   9.172   1.338   7.304
  135POPC   C2B 2111   9.284   1.519   6.886
  135POPC   C3B 2112   8.943   1.601   6.597
  135POPC   C4B 2113   8.839   1.409   6.245
  136POPC   NC3 2114   9.019   0.916   8.129
  136POPC   PO4 2115   8.697   0.339   7.994
  136POPC   GL1 2116   9.020   0.524   7.769
  136POPC   GL2 2117   9.144   0.185   7.758
  136POPC   C1A 2118   9.006   0.702   7.366
  136POPC   D2A 2119   8.788   0.710   7.029
  136POPC   C3A 2120   9.107   0.750   6.731
  136POPC   C4A 2121   9.111   0.673   6.283
  136POPC   C1B 2122   8.949   0.201   7.332
  136POPC   C2B 2123   8.995   0.257   6.883
  136POPC   C3B 2124   8.719   0.480   6.572
  136POPC   C4B 2125   8.681   0.385   6.143
  137POPC   NC3 2126   3.603   1.087   8.114
  137POPC   PO4 2127   2.950   1.012   7.948
  137POPC   GL1 2128   3.288   0.981   7.664
  137POPC   GL2 2129   3.510   1.272   7.638
  137POPC   C1A 2130   3.333   0.999   7.229
  137POPC   D2A 2131   3.543   1.124   6.902
  137POPC   C3A 2132   3.507   0.892   6.565
  137POPC   C4A 2133   3.434   1.122   6.243
  137POPC   C1B 2134   3.754   1.452   7.299
  137POPC   C2B 2135   3.968   1.414   6.880
  137POPC   C3B 2136   3.757   1.407   6.503
  137POPC   C4B 2137   3.707   1.662   6.142
  138POPC   NC3 2138   3.679  10.500   8.239
  138POPC   PO4 2139   4.177  10.675   7.880
  138POPC   GL1 2140   3.792  10.455   7.705
  138POPC   GL2 2141   3.397  10.472   7.752
  138POPC   C1A 2142   3.595  10.467   7.292
  138POPC   D2A 2143   3.526  10.239   6.920
  138POPC   C3A 2144   3.493  10.479   6.563
  138POPC   C4A 2145   3.809  10.688   6.290
  138POPC   C1B 2146   3.142  10.237   7.389
  138POPC   C2B 2147   3.042  10.352   6.950
  138POPC   C3B 2148   3.030  10.224   6.487
  138POPC   C4B 2149   3.284  10.403   6.113
  139POPC   NC3 2150  11.327  10.306   8.432
  139POPC   PO4 2151  10.889  10.177   8.040
  139POPC   GL1 2152  11.231  10.076   7.763
  139POPC   GL2 2153  11.323  10.417   7.707
  139POPC   C1A 2154  11.216  10.113   7.316
  139POPC   D2A 2155  10.904  10.142   6.975
  139POPC   C3A 2156  10.996  10.059   6.530
  139POPC   C4A 2157  10.984  10.109   6.067
  139POPC   C1B 2158  11.260  10.636   7.287
  139POPC   C2B 2159  11.265  10.515   6.846
  139POPC   C3B 2160  11.223  10.497   6.406
  139POPC   C4B 2161  11.442  10.179   6.245
  140POPC   NC3 2162   3.001   1.886   8.129
  140POPC   PO4 2163   3.576   1.586   8.072
  140POPC   GL1 2164   3.316   1.759   7.712
  140POPC   GL2 2165   3.345   2.115   7.751
  140POPC   C1A 2166   3.357   1.792   7.248
  140POPC   D2A 2167   3.480   1.633   6.856
  140POPC   C3A 2168   3.296   1.725   6.466
  140POPC   C4A 2169   3.191   1.553   6.059
  140POPC   C1B 2170   3.727   2.037   7.475
  140POPC   C2B 2171   3.857   1.888   7.046
  140POPC   C3B 2172   3.741   1.970   6.579
  140POPC   C4B 2173   3.480   2.099   6.190
  141POPC   NC3 2174   2.625   3.588   8.150
  141POPC   PO4 2175   3.162   3.089   8.075
  141POPC   GL1 2176   2.965   3.127   7.679
  141POPC   GL2 2177   2.726   3.417   7.678
  141POPC   C1A 2178   3.040   3.348   7.279
  141POPC   D2A 2179   3.263   3.320   6.899
  141POPC   C3A 2180   3.010   3.335   6.529
  141POPC   C4A 2181   2.901   3.206   6.128
  141POPC   C1B 2182   2.546   3.586   7.295
  141POPC   C2B 2183   2.314   3.577   6.889
  141POPC   C3B 2184   2.504   3.505   6.464
  141POPC   C4B 2185   2.863   3.769   6.286
  142POPC   NC3 2186   8.733   9.994   7.894
  142POPC   PO4 2187   9.065   9.417   8.064
  142POPC   GL1 2188   9.191   9.479   7.654
  142POPC   GL2 2189   8.849   9.573   7.608
  142POPC   C1A 2190   9.259   9.781   7.375
  142POPC   D2A 2191   9.267   9.836   6.966
  142POPC   C3A 2192   9.222   9.535   6.691
  142POPC   C4A 2193   9.257   9.458   6.266
  142POPC   C1B 2194   8.776   9.718   7.186
  142POPC   C2B 2195   8.796   9.837   6.781
  142POPC   C3B 2196   8.811   9.683   6.376
  142POPC   C4B 2197   8.579   9.890   6.013
  143POPC   NC3 2198   7.201  10.952   8.266
  143POPC   PO4 2199   7.417  11.405   7.804
  143POPC   GL1 2200   7.484  11.063   7.586
  143POPC   GL2 2201   7.202  10.851   7.621
  143POPC   C1A 2202   7.612  11.256   7.201
  143POPC   D2A 2203   7.624   0.032   6.873
  143POPC   C3A 2204   7.651  11.302   6.526
  143POPC   C4A 2205   7.469  11.320   6.146
  143POPC   C1B 2206   7.119  11.121   7.231
  143POPC   C2B 2207   7.276  11.119   6.847
  143POPC   C3B 2208   7.197  11.015   6.473
  143POPC   C4B 2209   6.979  11.164   6.127
  144POPC   NC3 2210   8.631   2.423   8.017
  144POPC   PO4 2211   9.088   2.893   8.155
  144POPC   GL1 2212   9.077   2.833   7.728
  144POPC   GL2 2213   8.738   2.842   7.720
  144POPC   C1A 2214   9.141   2.735   7.293
  144POPC   D2A 2215   8.873   2.640   6.888
  144POPC   C3A 2216   9.019   2.662   6.457
  144POPC   C4A 2217   9.035   3.029   6.179
  144POPC   C1B 2218   8.638   2.612   7.348
  144POPC   C2B 2219   8.397   2.479   6.973
  144POPC   C3B 2220   8.524   2.494   6.548
  144POPC   C4B 2221   8.574   2.772   6.204
  145POPC   NC3 2222  11.330   1.073   8.342
  145POPC   PO4 2223  10.672   1.012   8.047
  145POPC   GL1 2224  10.914   0.848   7.729
  145POPC   GL2 2225  11.262   0.968   7.828
  145POPC   C1A 2226  10.838   0.924   7.281
  145POPC   D2A 2227  10.697   1.028   6.876
  145POPC   C3A 2228  10.995   0.878   6.574
  145POPC   C4A 2229  11.015   0.982   6.155
  145POPC   C1B 2230  11.324   1.094   7.386
  145POPC   C2B 2231  11.193   1.222   6.942
  145POPC   C3B 2232  11.195   1.385   6.491
  145POPC   C4B 2233  11.375   1.327   6.048
  146POPC   NC3 2234   5.132   0.079   7.885
  146POPC   PO4 2235   4.826   0.713   8.041
  146POPC   GL1 2236   4.759   0.752   7.620
  146POPC   GL2 2237   4.932   0.438   7.631
  146POPC   C1A 2238   4.839   0.616   7.202
  146POPC   D2A 2239   4.863   0.229   7.034
  146POPC   C3A 2240   4.866   0.389   6.645
  146POPC   C4A 2241   4.989   0.220   6.291
  146POPC   C1B 2242   5.261   0.381   7.328
  146POPC   C2B 2243   5.349   0.660   7.012
  146POPC   C3B 2244   5.375   0.510   6.612
  146POPC   C4B 2245   5.291   0.615   6.217
  147POPC   NC3 2246   5.230   7.684   8.531
  147POPC   PO4 2247   5.264   7.739   8.054
  147POPC   GL1 2248   5.153   7.834   7.585
  147POPC   GL2 2249   4.914   8.114   7.509
  147POPC   C1A 2250   5.218   7.980   7.126
  147POPC   D2A 2251   5.054   8.199   6.744
  147POPC   C3A 2252   5.242   8.154   6.328
  147POPC   C4A 2253   5.015   8.018   5.959
  147POPC   C1B 2254   4.958   8.466   7.183
  147POPC   C2B 2255   4.979   8.713   6.786
  147POPC   C3B 2256   4.966   8.585   6.356
  147POPC   C4B 2257   5.138   8.585   5.934
  148POPC   NC3 2258   0.787  11.145   8.216
  148POPC   PO4 2259   0.185  11.404   8.133
  148POPC   GL1 2260   0.289   0.022   7.715
  148POPC   GL2 2261   0.565  11.310   7.753
  148POPC   C1A 2262   0.256  11.293   7.294
  148POPC   D2A 2263   0.141  11.066   6.899
  148POPC   C3A 2264   0.249  11.241   6.492
  148POPC   C4A 2265   0.287  11.423   6.066
  148POPC   C1B 2266   0.599  10.937   7.450
  148POPC   C2B 2267   0.633  11.010   6.997
  148POPC   C3B 2268   0.650  10.846   6.586
  148POPC   C4B 2269   0.556  10.984   6.181
  149POPC   NC3 2270   0.855   5.552   7.701
  149POPC   PO4 2271   0.977   4.963   7.982
  149POPC   GL1 2272   1.073   5.102   7.607
  149POPC   GL2 2273   1.389   5.111   7.675
  149POPC   C1A 2274   1.148   5.185   7.183
  149POPC   D2A 2275   0.977   5.010   6.853
  149POPC   C3A 2276   0.940   5.356   6.648
  149POPC   C4A 2277   1.033   5.248   6.259
  149POPC   C1B 2278   1.529   4.879   7.345
  149POPC   C2B 2279   1.448   4.800   6.939
  149POPC   C3B 2280   1.409   5.061   6.584
  149POPC   C4B 2281   1.362   4.882   6.195
  150POPC   NC3 2282   1.101   4.196   8.035
  150POPC   PO4 2283   1.671   4.635   7.934
  150POPC   GL1 2284   1.258   4.607   7.703
  150POPC   GL2 2285   1.126   4.291   7.546
  150POPC   C1A 2286   1.058   4.697   7.278
  150POPC   D2A 2287   1.056   4.426   6.920
  150POPC   C3A 2288   1.296   4.488   6.553
  150POPC   C4A 2289   1.169   4.409   6.120
  150POPC   C1B 2290   0.874   4.070   7.247
  150POPC   C2B 2291   0.890   3.931   6.803
  150POPC   C3B 2292   0.819   4.146   6.415
  150POPC   C4B 2293   0.884   4.016   5.973
  151POPC   NC3 2294   0.407   0.997   7.909
  151POPC   PO4 2295   0.810   1.534   8.077
  151POPC   GL1 2296   0.766   1.328   7.708
  151POPC   GL2 2297   0.416   1.429   7.628
  151POPC   C1A 2298   0.797   1.332   7.279
  151POPC   D2A 2299   0.704   1.077   6.897
  151POPC   C3A 2300   0.572   1.262   6.531
  151POPC   C4A 2301   0.779   1.439   6.173
  151POPC   C1B 2302   0.315   1.178   7.243
  151POPC   C2B 2303   0.169   1.012   6.847
  151POPC   C3B 2304   0.044   0.993   6.419
  151POPC   C4B 2305   0.339   1.098   6.097
  152POPC   NC3 2306   0.456   1.856   8.124
  152POPC   PO4 2307   0.002   2.362   8.074
  152POPC   GL1 2308   0.059   2.200   7.639
  152POPC   GL2 2309   0.304   1.952   7.658
  152POPC   C1A 2310   0.367   2.272   7.282
  152POPC   D2A 2311   0.409   2.102   6.900
  152POPC   C3A 2312   0.548   2.270   6.556
  152POPC   C4A 2313   0.367   2.355   6.195
  152POPC   C1B 2314   0.575   1.801   7.322
  152POPC   C2B 2315   0.527   1.596   6.928
  152POPC   C3B 2316   0.650   1.767   6.537
  152POPC   C4B 2317   0.586   1.920   6.106
  153POPC   NC3 2318   9.498   6.292   8.023
  153POPC   PO4 2319   9.254   6.871   8.114
  153POPC   GL1 2320   9.499   6.737   7.735
  153POPC   GL2 2321   9.836   6.615   7.737
  153POPC   C1A 2322   9.515   6.572   7.282
  153POPC   D2A 2323   9.565   6.754   6.831
  153POPC   C3A 2324   9.440   6.544   6.432
  153POPC   C4A 2325   9.095   6.371   6.201
  153POPC   C1B 2326   9.999   6.402   7.395
  153POPC   C2B 2327   9.938   6.440   7.002
  153POPC   C3B 2328   9.909   6.406   6.580
  153POPC   C4B 2329  10.003   6.715   6.295
  154POPC   NC3 2330   2.732   8.794   8.104
  154POPC   PO4 2331   3.125   9.375   8.104
  154POPC   GL1 2332   2.817   9.186   7.738
  154POPC   GL2 2333   2.777   8.823   7.603
  154POPC   C1A 2334   2.579   9.131   7.278
  154POPC   D2A 2335   2.711   8.979   6.851
  154POPC   C3A 2336   2.569   9.180   6.456
  154POPC   C4A 2337   2.402   9.338   5.981
  154POPC   C1B 2338   2.609   8.596   7.216
  154POPC   C2B 2339   2.648   8.473   6.774
  154POPC   C3B 2340   2.713   8.677   6.408
  154POPC   C4B 2341   2.610   8.896   6.052
  155POPC   NC3 2342   0.194   7.332   8.121
  155POPC   PO4 2343  11.017   7.221   8.184
  155POPC   GL1 2344  11.290   7.190   7.787
  155POPC   GL2 2345  11.116   7.404   7.576
  155POPC   C1A 2346   0.030   7.221   7.341
  155POPC   D2A 2347  11.455   7.150   6.859
  155POPC   C3A 2348   0.017   7.533   6.590
  155POPC   C4A 2349  11.447   7.716   6.188
  155POPC   C1B 2350  11.059   7.137   7.188
  155POPC   C2B 2351  10.850   7.232   6.826
  155POPC   C3B 2352  10.972   7.333   6.419
  155POPC   C4B 2353  11.344   7.213   6.233
  156POPC   NC3 2354  10.176   4.265   8.036
  156POPC   PO4 2355  10.738   4.605   8.064
  156POPC   GL1 2356  10.513   4.434   7.672
  156POPC   GL2 2357  10.501   4.046   7.709
  156POPC   C1A 2358  10.263   4.501   7.268
  156POPC   D2A 2359  10.012   4.262   6.960
  156POPC   C3A 2360  10.157   4.394   6.553
  156POPC   C4A 2361  10.051   4.476   6.151
  156POPC   C1B 2362  10.542   4.076   7.281
  156POPC   C2B 2363  10.521   4.235   6.877
  156POPC   C3B 2364  10.683   3.986   6.526
  156POPC   C4B 2365  10.456   4.168   6.178
  157POPC   NC3 2366  10.343  11.250   8.180
  157POPC   PO4 2367   9.771   0.009   7.925
  157POPC   GL1 2368   9.969  11.176   7.721
  157POPC   GL2 2369  10.327  11.145   7.694
  157POPC   C1A 2370  10.022  11.086   7.285
  157POPC   D2A 2371  10.121  11.326   6.934
  157POPC   C3A 2372  10.268  11.139   6.559
  157POPC   C4A 2373  10.145  11.245   6.146
  157POPC   C1B 2374  10.519  10.974   7.344
  157POPC   C2B 2375  10.642  11.162   6.948
  157POPC   C3B 2376  10.826  11.237   6.545
  157POPC   C4B 2377  10.607  11.049   6.169
  158POPC   NC3 2378   1.391  11.085   8.048
  158POPC   PO4 2379   0.875   0.076   8.107
  158POPC   GL1 2380   1.141  11.427   7.750
  158POPC   GL2 2381   1.017  11.096   7.699
  158POPC   C1A 2382   1.366  11.239   7.365
  158POPC   D2A 2383   1.143  11.057   7.005
  158POPC   C3A 2384   1.257  11.127   6.606
  158POPC   C4A 2385   1.558  11.222   6.288
  158POPC   C1B 2386   0.853  11.362   7.329
  158POPC   C2B 2387   0.800   0.013   6.907
  158POPC   C3B 2388   0.792  11.327   6.494
  158POPC   C4B 2389   1.044  11.067   6.159
  159POPC   NC3 2390   0.257   9.590   8.076
  159POPC   PO4 2391   0.865   9.312   8.116
  159POPC   GL1 2392   0.548   9.318   7.767
  159POPC   GL2 2393   0.525   9.667   7.656
  159POPC   C1A 2394   0.382   9.276   7.348
  159POPC   D2A 2395   0.699   9.430   7.067
  159POPC   C3A 2396   0.826   9.369   6.643
  159POPC   C4A 2397   0.798   9.285   6.210
  159POPC   C1B 2398   0.304   9.770   7.286
  159POPC   C2B 2399   0.219   9.523   6.899
  159POPC   C3B 2400   0.379   9.566   6.486
  159POPC   C4B 2401   0.394   9.990   6.291
  160POPC   NC3 2402   9.811   5.721   8.044
  160POPC   PO4 2403   9.171   5.973   8.023
  160POPC   GL1 2404   9.519   5.921   7.668
  160POPC   GL2 2405   9.727   5.626   7.566
  160POPC   C1A 2406   9.642   6.035   7.242
  160POPC   D2A 2407   9.491   6.236   6.867
  160POPC   C3A 2408   9.524   6.024   6.485
  160POPC   C4A 2409   9.307   5.739   6.222
  160POPC   C1B 2410   9.863   5.465   7.201
  160POPC   C2B 2411   9.752   5.684   6.847
  160POPC   C3B 2412   9.728   5.523   6.451
  160POPC   C4B 2413   9.819   5.781   6.125
  161POPC   NC3 2414   6.059  10.117   8.082
  161POPC   PO4 2415   5.916  10.717   8.213
  161POPC   GL1 2416   6.015  10.555   7.789
  161POPC   GL2 2417   5.819  10.827   7.581
  161POPC   C1A 2418   6.089  10.171   7.462
  161POPC   D2A 2419   6.075  10.328   7.082
  161POPC   C3A 2420   6.093  10.182   6.719
  161POPC   C4A 2421   5.949  10.335   6.381
  161POPC   C1B 2422   5.682  10.448   7.421
  161POPC   C2B 2423   5.553  10.308   7.045
  161POPC   C3B 2424   5.521  10.400   6.657
  161POPC   C4B 2425   5.482  10.289   6.250
  162POPC   NC3 2426   3.967   1.913   8.051
  162POPC   PO4 2427   4.570   1.680   8.022
  162POPC   GL1 2428   4.512   1.545   7.620
  162POPC   GL2 2429   4.154   1.643   7.590
  162POPC   C1A 2430   4.529   1.732   7.212
  162POPC   D2A 2431   4.360   1.897   6.845
  162POPC   C3A 2432   4.583   2.055   6.449
  162POPC   C4A 2433   4.408   1.909   6.057
  162POPC   C1B 2434   4.224   2.074   7.395
  162POPC   C2B 2435   4.097   2.306   7.015
  162POPC   C3B 2436   4.147   2.284   6.567
  162POPC   C4B 2437   3.993   2.197   6.171
  163POPC   NC3 2438   8.923   5.600   8.072
  163POPC   PO4 2439   9.475   5.415   8.090
  163POPC   GL1 2440   9.271   5.440   7.675
  163POPC   GL2 2441   9.053   5.722   7.585
  163POPC   C1A 2442   9.353   5.563   7.201
  163POPC   D2A 2443   9.263   5.626   6.726
  163POPC   C3A 2444   8.927   5.470   6.411
  163POPC   C4A 2445   8.952   5.469   5.935
  163POPC   C1B 2446   9.131   6.030   7.235
  163POPC   C2B 2447   9.020   6.070   6.774
  163POPC   C3B 2448   8.833   5.987   6.372
  163POPC   C4B 2449   8.622   6.283   6.046
  164POPC   NC3 2450   7.802   2.973   7.920
  164POPC   PO4 2451   8.173   2.488   8.072
  164POPC   GL1 2452   7.923   2.341   7.703
  164POPC   GL2 2453   7.834   2.625   7.571
  164POPC   C1A 2454   7.954   2.318   7.202
  164POPC   D2A 2455   7.947   2.676   6.847
  164POPC   C3A 2456   8.077   2.656   6.398
  164POPC   C4A 2457   8.002   2.350   6.091
  164POPC   C1B 2458   8.168   2.809   7.298
  164POPC   C2B 2459   8.401   2.972   6.891
  164POPC   C3B 2460   8.291   3.121   6.443
  164POPC   C4B 2461   8.296   3.122   5.951
  165POPC   NC3 2462   1.159   0.411   7.959
  165POPC   PO4 2463   1.575   0.907   7.929
  165POPC   GL1 2464   1.505   0.660   7.548
  165POPC   GL2 2465   1.137   0.646   7.508
  165POPC   C1A 2466   1.435   0.604   7.076
  165POPC   D2A 2467   1.008   0.507   6.889
  165POPC   C3A 2468   1.098   0.571   6.470
  165POPC   C4A 2469   1.531   0.609   6.470
  165POPC   C1B 2470   1.212   0.228   7.317
  165POPC   C2B 2471   1.316   0.063   6.889
  165POPC   C3B 2472   1.301   0.120   6.437
  165POPC   C4B 2473   0.934   0.175   6.165
  166POPC   NC3 2474   9.543   2.802   8.173
  166POPC   PO4 2475  10.109   2.630   7.894
  166POPC   GL1 2476   9.854   2.862   7.621
  166POPC   GL2 2477   9.558   2.669   7.664
  166POPC   C1A 2478   9.694   2.840   7.197
  166POPC   D2A 2479   9.862   2.553   6.938
  166POPC   C3A 2480  10.121   2.769   6.674
  166POPC   C4A 2481   9.989   2.684   6.269
  166POPC   C1B 2482   9.510   2.367   7.325
  166POPC   C2B 2483   9.354   2.478   6.922
  166POPC   C3B 2484   9.438   2.823   6.711
  166POPC   C4B 2485   9.480   2.813   6.269
  167POPC   NC3 2486  10.506   8.422   7.869
  167POPC   PO4 2487  10.104   8.763   8.309
  167POPC   GL1 2488  10.099   8.826   7.781
  167POPC   GL2 2489  10.069   9.140   7.655
  167POPC   C1A 2490  10.264   8.722   7.329
  167POPC   D2A 2491  10.491   8.613   6.932
  167POPC   C3A 2492  10.339   8.779   6.545
  167POPC   C4A 2493  10.475   8.680   6.159
  167POPC   C1B 2494   9.907   9.076   7.287
  167POPC   C2B 2495  10.221   9.100   6.957
  167POPC   C3B 2496  10.628   9.141   6.753
  167POPC   C4B 2497  10.617   9.171   6.282
  168POPC   NC3 2498   1.571   1.136   4.003
  168POPC   PO4 2499   0.954   0.927   3.910
  168POPC   GL1 2500   1.122   1.185   4.226
  168POPC   GL2 2501   0.967   1.436   4.435
  168POPC   C1A 2502   1.369   1.121   4.593
  168POPC   D2A 2503   1.350   1.100   5.021
  168POPC   C3A 2504   1.518   1.324   5.383
  168POPC   C4A 2505   1.642   0.930   5.619
  168POPC   C1B 2506   0.866   1.013   4.636
  168POPC   C2B 2507   0.867   0.903   5.065
  168POPC   C3B 2508   1.098   1.016   5.455
  168POPC   C4B 2509   1.076   1.437   5.692
  169POPC   NC3 2510  10.885   3.392   3.896
  169POPC   PO4 2511  10.211   3.516   3.879
  169POPC   GL1 2512  10.269   3.705   4.265
  169POPC   GL2 2513  10.647   3.698   4.243
  169POPC   C1A 2514  10.113   3.490   4.642
  169POPC   D2A 2515  10.203   3.194   4.991
  169POPC   C3A 2516   9.972   3.206   5.370
  169POPC   C4A 2517  10.128   3.336   5.745
  169POPC   C1B 2518  10.594   3.547   4.688
  169POPC   C2B 2519  10.374   3.676   5.102
  169POPC   C3B 2520  10.407   3.739   5.570
  169POPC   C4B 2521  10.702   3.821   5.916
  170POPC   NC3 2522   9.755   5.698   3.738
  170POPC   PO4 2523   9.326   5.359   3.927
  170POPC   GL1 2524   9.636   5.448   4.204
  170POPC   GL2 2525   9.662   5.797   4.252
  170POPC   C1A 2526   9.660   5.445   4.633
  170POPC   D2A 2527   9.426   5.443   4.990
  170POPC   C3A 2528   9.631   5.621   5.340
  170POPC   C4A 2529   9.502   5.679   5.752
  170POPC   C1B 2530   9.832   5.931   4.703
  170POPC   C2B 2531   9.853   6.056   5.160
  170POPC   C3B 2532   9.556   6.197   5.514
  170POPC   C4B 2533   9.496   6.152   5.972
  171POPC   NC3 2534   3.598  10.256   4.002
  171POPC   PO4 2535   3.902  10.808   4.069
  171POPC   GL1 2536   3.693  10.628   4.371
  171POPC   GL2 2537   3.318  10.593   4.313
  171POPC   C1A 2538   3.879  10.637   4.763
  171POPC   D2A 2539   3.916  10.825   5.147
  171POPC   C3A 2540   3.866  10.522   5.503
  171POPC   C4A 2541   3.786  10.327   5.926
  171POPC   C1B 2542   3.419  10.365   4.718
  171POPC   C2B 2543   3.470  10.539   5.144
  171POPC   C3B 2544   3.360  10.381   5.559
  171POPC   C4B 2545   3.359  10.019   5.788
  172POPC   NC3 2546  10.511   2.210   3.962
  172POPC   PO4 2547   9.882   2.038   4.044
  172POPC   GL1 2548  10.142   2.225   4.374
  172POPC   GL2 2549  10.437   1.977   4.407
  172POPC   C1A 2550  10.332   2.248   4.814
  172POPC   D2A 2551  10.333   2.017   5.205
  172POPC   C3A 2552  10.304   2.335   5.506
  172POPC   C4A 2553  10.388   2.341   5.936
  172POPC   C1B 2554  10.576   1.605   4.669
  172POPC   C2B 2555  10.458   1.454   5.084
  172POPC   C3B 2556  10.476   1.573   5.529
  172POPC   C4B 2557  10.216   1.891   5.745
  173POPC   NC3 2558  10.236  11.186   3.921
  173POPC   PO4 2559  10.716  10.647   3.797
  173POPC   GL1 2560  10.521  10.895   4.215
  173POPC   GL2 2561  10.434  11.282   4.371
  173POPC   C1A 2562  10.377  10.873   4.659
  173POPC   D2A 2563  10.596  10.755   5.042
  173POPC   C3A 2564  10.419  10.955   5.392
  173POPC   C4A 2565  10.345  10.786   5.783
  173POPC   C1B 2566  10.149  11.470   4.700
  173POPC   C2B 2567  10.029  11.355   5.135
  173POPC   C3B 2568  10.153   0.075   5.523
  173POPC   C4B 2569  10.447  11.320   5.761
  174POPC   NC3 2570   6.383  11.476   3.976
  174POPC   PO4 2571   7.076  11.355   4.027
  174POPC   GL1 2572   6.732  11.272   4.282
  174POPC   GL2 2573   6.769  10.927   4.364
  174POPC   C1A 2574   6.503  11.311   4.645
  174POPC   D2A 2575   6.595  11.280   5.090
  174POPC   C3A 2576   6.359   0.009   5.382
  174POPC   C4A 2577   6.222  11.410   5.801
  174POPC   C1B 2578   6.591  10.837   4.783
  174POPC   C2B 2579   6.279  10.853   5.131
  174POPC   C3B 2580   6.467  10.965   5.511
  174POPC   C4B 2581   6.838  10.849   5.731
  175POPC   NC3 2582   2.945   9.777   4.038
  175POPC   PO4 2583   3.533   9.883   3.739
  175POPC   GL1 2584   3.654   9.786   4.204
  175POPC   GL2 2585   3.653   9.428   4.202
  175POPC   C1A 2586   3.739   9.931   4.664
  175POPC   D2A 2587   3.555  10.007   5.116
  175POPC   C3A 2588   3.804   9.981   5.530
  175POPC   C4A 2589   3.784   9.825   6.005
  175POPC   C1B 2590   3.412   9.513   4.604
  175POPC   C2B 2591   3.313   9.540   5.058
  175POPC   C3B 2592   3.462   9.605   5.489
  175POPC   C4B 2593   3.380   9.528   5.953
  176POPC   NC3 2594  10.526   7.937   3.827
  176POPC   PO4 2595  10.683   8.580   3.962
  176POPC   GL1 2596  10.448   8.404   4.299
  176POPC   GL2 2597  10.456   8.041   4.347
  176POPC   C1A 2598  10.416   8.329   4.751
  176POPC   D2A 2599  10.660   8.146   5.097
  176POPC   C3A 2600  10.448   8.398   5.388
  176POPC   C4A 2601  10.216   8.514   5.739
  176POPC   C1B 2602  10.421   7.821   4.775
  176POPC   C2B 2603  10.206   7.956   5.194
  176POPC   C3B 2604  10.150   7.989   5.661
  176POPC   C4B 2605  10.172   7.737   6.053
  177POPC   NC3 2606   9.565   2.274   4.281
  177POPC   PO4 2607   9.642   2.885   3.901
  177POPC   GL1 2608   9.486   2.784   4.257
  177POPC   GL2 2609   9.855   2.697   4.329
  177POPC   C1A 2610   9.453   2.772   4.698
  177POPC   D2A 2611   9.366   2.989   5.052
  177POPC   C3A 2612   9.476   2.883   5.421
  177POPC   C4A 2613   9.292   2.912   5.788
  177POPC   C1B 2614   9.922   2.557   4.735
  177POPC   C2B 2615   9.854   2.801   5.060
  177POPC   C3B 2616   9.943   2.694   5.451
  177POPC   C4B 2617   9.728   2.649   5.835
  178POPC   NC3 2618  10.799   0.488   3.724
  178POPC   PO4 2619  11.249   0.210   4.124
  178POPC   GL1 2620  11.266   0.584   4.332
  178POPC   GL2 2621   0.127   0.601   4.324
  178POPC   C1A 2622  11.066   0.587   4.757
  178POPC   D2A 2623  10.961   0.226   5.053
  178POPC   C3A 2624  11.091   0.289   5.497
  178POPC   C4A 2625  10.988   0.661   5.745
  178POPC   C1B 2626   0.074   0.381   4.725
  178POPC   C2B 2627  11.427   0.517   5.122
  178POPC   C3B 2628   0.078   0.437   5.515
  178POPC   C4B 2629  11.465   0.291   5.887
  179POPC   NC3 2630   6.676   9.569   3.854
  179POPC   PO4 2631   6.192   9.951   3.783
  179POPC   GL1 2632   6.386   9.884   4.195
  179POPC   GL2 2633   6.660   9.672   4.357
  179POPC   C1A 2634   6.367   9.991   4.657
  179POPC   D2A 2635   6.406   9.761   5.035
  179POPC   C3A 2636   6.278   9.856   5.458
  179POPC   C4A 2637   6.369   9.629   5.869
  179POPC   C1B 2638   6.862   9.852   4.752
  179POPC   C2B 2639   6.818  10.025   5.189
  179POPC   C3B 2640   6.767   9.814   5.601
  179POPC   C4B 2641   6.760   9.935   6.033
  180POPC   NC3 2642   9.290   8.974   3.840
  180POPC   PO4 2643   9.977   9.027   3.768
  180POPC   GL1 2644   9.683   9.030   4.168
  180POPC   GL2 2645   9.478   8.685   4.217
  180POPC   C1A 2646   9.587   9.238   4.589
  180POPC   D2A 2647   9.787   9.141   4.997
  180POPC   C3A 2648   9.610   9.162   5.405
  180POPC   C4A 2649   9.701   9.031   5.810
  180POPC   C1B 2650   9.437   8.767   4.666
  180POPC   C2B 2651   9.291   8.871   5.096
  180POPC   C3B 2652   9.353   8.749   5.545
  180POPC   C4B 2653   9.731   8.540   5.657
  181POPC   NC3 2654  11.185   8.393   4.064
  181POPC   PO4 2655  10.953   7.868   3.699
  181POPC   GL1 2656  10.949   7.942   4.159
  181POPC   GL2 2657  11.274   7.870   4.207
  181POPC   C1A 2658  10.903   8.109   4.625
  181POPC   D2A 2659  11.159   8.260   5.018
  181POPC   C3A 2660  10.964   8.369   5.444
  181POPC   C4A 2661  10.707   8.315   5.815
  181POPC   C1B 2662  11.280   7.733   4.643
  181POPC   C2B 2663  11.018   7.738   5.033
  181POPC   C3B 2664  11.054   7.868   5.478
  181POPC   C4B 2665  11.469   7.842   5.690
  182POPC   NC3 2666   5.733  10.915   4.019
  182POPC   PO4 2667   6.375  10.933   3.732
  182POPC   GL1 2668   6.239  11.007   4.202
  182POPC   GL2 2669   6.041  11.332   4.333
  182POPC   C1A 2670   6.121  10.964   4.648
  182POPC   D2A 2671   6.072  11.318   4.963
  182POPC   C3A 2672   5.940  11.208   5.389
  182POPC   C4A 2673   6.024  10.930   5.737
  182POPC   C1B 2674   5.684  11.214   4.626
  182POPC   C2B 2675   5.519  11.265   5.062
  182POPC   C3B 2676   5.468  11.420   5.494
  182POPC   C4B 2677   5.702  11.335   5.878
  183POPC   NC3 2678   1.108   8.149   3.810
  183POPC   PO4 2679   1.575   8.488   4.092
  183POPC   GL1 2680   1.382   8.152   4.252
  183POPC   GL2 2681   1.074   8.174   4.326
  183POPC   C1A 2682   1.462   8.038   4.667
  183POPC   D2A 2683   1.294   8.170   5.072
  183POPC   C3A 2684   1.377   7.952   5.442
  183POPC   C4A 2685   1.527   8.164   5.812
  183POPC   C1B 2686   0.956   8.003   4.727
  183POPC   C2B 2687   0.795   8.173   5.128
  183POPC   C3B 2688   0.924   8.148   5.537
  183POPC   C4B 2689   1.076   7.921   5.884
  184POPC   NC3 2690  11.033  10.913   4.015
  184POPC   PO4 2691  10.640  11.469   3.936
  184POPC   GL1 2692  10.939  11.321   4.296
  184POPC   GL2 2693  11.315  11.235   4.310
  184POPC   C1A 2694  10.836  11.140   4.688
  184POPC   D2A 2695  10.567  11.302   5.030
  184POPC   C3A 2696  10.825  11.349   5.415
  184POPC   C4A 2697  10.951  11.383   5.859
  184POPC   C1B 2698  11.303  11.416   4.744
  184POPC   C2B 2699  11.422   0.012   5.189
  184POPC   C3B 2700  11.397  11.377   5.607
  184POPC   C4B 2701  11.326  10.975   5.696
  185POPC   NC3 2702   1.898  11.125   3.950
  185POPC   PO4 2703   2.443  10.721   3.985
  185POPC   GL1 2704   2.252  10.697   4.356
  185POPC   GL2 2705   2.058  10.986   4.412
  185POPC   C1A 2706   2.372  10.790   4.778
  185POPC   D2A 2707   2.211  11.090   5.046
  185POPC   C3A 2708   2.080  10.975   5.405
  185POPC   C4A 2709   2.239  11.049   5.759
  185POPC   C1B 2710   1.820  11.182   4.733
  185POPC   C2B 2711   1.597  11.153   5.100
  185POPC   C3B 2712   1.588  11.036   5.486
  185POPC   C4B 2713   1.779  11.245   5.793
  186POPC   NC3 2714   3.613   2.897   3.842
  186POPC   PO4 2715   3.041   3.214   4.020
  186POPC   GL1 2716   3.284   2.922   4.318
  186POPC   GL2 2717   3.444   2.571   4.226
  186POPC   C1A 2718   3.279   2.841   4.793
  186POPC   D2A 2719   3.280   2.899   5.270
  186POPC   C3A 2720   3.653   2.857   5.541
  186POPC   C4A 2721   3.760   2.962   5.997
  186POPC   C1B 2722   3.202   2.377   4.591
  186POPC   C2B 2723   3.198   2.273   5.057
  186POPC   C3B 2724   3.205   2.461   5.523
  186POPC   C4B 2725   3.112   2.439   6.017
  187POPC   NC3 2726   9.733   1.617   4.168
  187POPC   PO4 2727   9.263   2.194   3.948
  187POPC   GL1 2728   9.142   2.032   4.399
  187POPC   GL2 2729   9.470   1.851   4.548
  187POPC   C1A 2730   9.061   1.820   4.833
  187POPC   D2A 2731   9.461   1.823   5.094
  187POPC   C3A 2732   9.534   1.734   5.540
  187POPC   C4A 2733   9.493   1.886   5.937
  187POPC   C1B 2734   9.860   2.001   4.796
  187POPC   C2B 2735   9.889   2.260   5.173
  187POPC   C3B 2736   9.805   2.188   5.623
  187POPC   C4B 2737   9.895   2.207   6.078
  188POPC   NC3 2738   2.687   7.187   3.926
  188POPC   PO4 2739   3.149   6.899   3.920
  188POPC   GL1 2740   2.922   7.108   4.372
  188POPC   GL2 2741   2.666   7.408   4.392
  188POPC   C1A 2742   2.886   7.275   4.844
  188POPC   D2A 2743   2.860   7.092   5.276
  188POPC   C3A 2744   2.934   7.329   5.675
  188POPC   C4A 2745   3.016   7.264   6.118
  188POPC   C1B 2746   2.450   7.106   4.653
  188POPC   C2B 2747   2.316   7.111   5.107
  188POPC   C3B 2748   2.450   7.227   5.541
  188POPC   C4B 2749   2.459   7.357   6.004
  189POPC   NC3 2750   8.347  11.256   4.115
  189POPC   PO4 2751   8.355  10.718   3.716
  189POPC   GL1 2752   8.206  10.776   4.202
  189POPC   GL2 2753   7.912  10.836   4.216
  189POPC   C1A 2754   8.316  10.922   4.687
  189POPC   D2A 2755   8.114  11.196   5.006
  189POPC   C3A 2756   8.097  11.093   5.423
  189POPC   C4A 2757   8.368  11.060   5.759
  189POPC   C1B 2758   7.885  11.149   4.560
  189POPC   C2B 2759   7.602  11.277   4.862
  189POPC   C3B 2760   7.556  11.262   5.300
  189POPC   C4B 2761   7.749  11.351   5.701
  190POPC   NC3 2762   5.351  11.409   3.698
  190POPC   PO4 2763   5.298   0.526   3.951
  190POPC   GL1 2764   5.096   0.620   4.341
  190POPC   GL2 2765   4.733   0.548   4.297
  190POPC   C1A 2766   5.259   0.510   4.743
  190POPC   D2A 2767   5.383   0.257   5.099
  190POPC   C3A 2768   5.265   0.434   5.455
  190POPC   C4A 2769   5.038   0.448   5.822
  190POPC   C1B 2770   4.776   0.260   4.666
  190POPC   C2B 2771   4.876   0.388   5.073
  190POPC   C3B 2772   4.716   0.504   5.435
  190POPC   C4B 2773   4.689   0.837   5.720
  191POPC   NC3 2774   4.799   1.769   3.908
  191POPC   PO4 2775   4.793   2.433   3.924
  191POPC   GL1 2776   4.805   2.157   4.293
  191POPC   GL2 2777   5.099   1.917   4.309
  191POPC   C1A 2778   4.746   2.228   4.762
  191POPC   D2A 2779   4.543   2.138   5.174
  191POPC   C3A 2780   4.811   2.250   5.523
  191POPC   C4A 2781   4.830   2.145   5.938
  191POPC   C1B 2782   5.020   1.783   4.754
  191POPC   C2B 2783   5.014   1.903   5.194
  191POPC   C3B 2784   5.087   1.801   5.634
  191POPC   C4B 2785   5.279   1.925   6.024
  192POPC   NC3 2786   4.161   0.101   3.690
  192POPC   PO4 2787   4.720  11.395   3.973
  192POPC   GL1 2788   4.377   0.122   4.250
  192POPC   GL2 2789   4.204   0.459   4.273
  192POPC   C1A 2790   4.178   0.102   4.678
  192POPC   D2A 2791   4.449   0.091   5.046
  192POPC   C3A 2792   4.328   0.162   5.467
  192POPC   C4A 2793   4.608   0.176   5.810
  192POPC   C1B 2794   4.376   0.572   4.696
  192POPC   C2B 2795   4.284   0.586   5.123
  192POPC   C3B 2796   4.238   0.697   5.546
  192POPC   C4B 2797   4.268   0.875   5.992
  193POPC   NC3 2798   1.436   2.127   4.003
  193POPC   PO4 2799   1.676   1.582   3.945
  193POPC   GL1 2800   1.499   1.591   4.360
  193POPC   GL2 2801   1.273   1.890   4.418
  193POPC   C1A 2802   1.336   1.571   4.800
  193POPC   D2A 2803   1.031   1.516   5.128
  193POPC   C3A 2804   1.239   1.809   5.375
  193POPC   C4A 2805   1.467   1.750   5.744
  193POPC   C1B 2806   0.911   1.895   4.720
  193POPC   C2B 2807   0.725   2.164   5.056
  193POPC   C3B 2808   0.964   2.364   5.353
  193POPC   C4B 2809   1.154   2.173   5.725
  194POPC   NC3 2810   5.847   0.561   3.899
  194POPC   PO4 2811   5.753  11.387   3.919
  194POPC   GL1 2812   5.610   0.169   4.290
  194POPC   GL2 2813   5.612   0.544   4.356
  194POPC   C1A 2814   5.749   0.214   4.746
  194POPC   D2A 2815   5.978   0.301   5.152
  194POPC   C3A 2816   5.878   0.228   5.572
  194POPC   C4A 2817   5.560   0.348   5.854
  194POPC   C1B 2818   5.980   0.666   4.601
  194POPC   C2B 2819   6.125   0.765   5.001
  194POPC   C3B 2820   6.051   0.907   5.431
  194POPC   C4B 2821   5.919   0.719   5.805
  195POPC   NC3 2822   3.934   9.642   3.803
  195POPC   PO4 2823   4.643   9.452   4.058
  195POPC   GL1 2824   4.206   9.467   4.202
  195POPC   GL2 2825   4.169   9.806   4.313
  195POPC   C1A 2826   3.956   9.440   4.603
  195POPC   D2A 2827   3.895   9.587   5.027
  195POPC   C3A 2828   4.115   9.387   5.365
  195POPC   C4A 2829   4.049   9.548   5.700
  195POPC   C1B 2830   4.414   9.712   4.707
  195POPC   C2B 2831   4.394   9.757   5.167
  195POPC   C3B 2832   4.517   9.760   5.610
  195POPC   C4B 2833   4.691  10.159   5.760
  196POPC   NC3 2834   2.948   1.840   4.041
  196POPC   PO4 2835   2.584   1.432   3.679
  196POPC   GL1 2836   2.444   1.892   4.055
  196POPC   GL2 2837   2.587   2.192   4.188
  196POPC   C1A 2838   2.268   1.878   4.523
  196POPC   D2A 2839   2.454   1.777   4.937
  196POPC   C3A 2840   2.455   1.832   5.402
  196POPC   C4A 2841   2.745   1.706   5.761
  196POPC   C1B 2842   2.734   2.081   4.606
  196POPC   C2B 2843   2.645   2.233   5.005
  196POPC   C3B 2844   2.809   2.188   5.380
  196POPC   C4B 2845   2.713   2.238   5.778
  197POPC   NC3 2846   7.436   0.118   3.916
  197POPC   PO4 2847   7.213   0.736   3.647
  197POPC   GL1 2848   7.124   0.606   4.095
  197POPC   GL2 2849   7.472   0.557   4.227
  197POPC   C1A 2850   7.075   0.671   4.559
  197POPC   D2A 2851   7.357   0.721   4.899
  197POPC   C3A 2852   7.232   0.696   5.361
  197POPC   C4A 2853   7.066   0.483   5.705
  197POPC   C1B 2854   7.400   0.282   4.614
  197POPC   C2B 2855   7.487   0.234   5.045
  197POPC   C3B 2856   7.464   0.244   5.467
  197POPC   C4B 2857   7.473   0.257   5.889
  198POPC   NC3 2858   1.172   7.622   3.692
  198POPC   PO4 2859   1.500   6.997   3.909
  198POPC   GL1 2860   1.302   7.235   4.257
  198POPC   GL2 2861   0.999   7.123   4.437
  198POPC   C1A 2862   1.392   7.524   4.601
  198POPC   D2A 2863   1.264   7.656   5.022
  198POPC   C3A 2864   1.417   7.365   5.356
  198POPC   C4A 2865   1.486   7.057   5.717
  198POPC   C1B 2866   0.835   7.496   4.675
  198POPC   C2B 2867   0.708   7.673   5.072
  198POPC   C3B 2868   0.941   7.655   5.453
  198POPC   C4B 2869   1.191   7.455   5.781
  199POPC   NC3 2870   0.928   3.657   3.899
  199POPC   PO4 2871   0.579   3.028   3.917
  199POPC   GL1 2872   0.584   3.298   4.294
  199POPC   GL2 2873   0.675   3.646   4.434
  199POPC   C1A 2874   0.446   3.259   4.719
  199POPC   D2A 2875   0.596   3.547   5.029
  199POPC   C3A 2876   0.693   3.323   5.404
  199POPC   C4A 2877   0.393   3.173   5.665
  199POPC   C1B 2878   0.241   3.726   4.655
  199POPC   C2B 2879   0.105   3.553   5.071
  199POPC   C3B 2880   0.256   3.642   5.500
  199POPC   C4B 2881   0.089   3.652   5.939
  200POPC   NC3 2882  10.468   5.787   4.011
  200POPC   PO4 2883  10.002   5.278   3.889
  200POPC   GL1 2884  10.149   5.513   4.289
  200POPC   GL2 2885  10.537   5.541   4.434
  200POPC   C1A 2886  10.156   5.407   4.721
  200POPC   D2A 2887  10.143   5.634   5.087
  200POPC   C3A 2888  10.134   5.516   5.507
  200POPC   C4A 2889   9.951   5.909   5.656
  200POPC   C1B 2890  10.435   5.883   4.723
  200POPC   C2B 2891  10.377   6.069   5.153
  200POPC   C3B 2892  10.454   5.927   5.563
  200POPC   C4B 2893  10.692   6.158   5.852
  201POPC   NC3 2894   8.954   5.622   3.785
  201POPC   PO4 2895   8.479   5.859   4.108
  201POPC   GL1 2896   8.802   5.575   4.310
  201POPC   GL2 2897   9.155   5.600   4.326
  201POPC   C1A 2898   8.920   5.621   4.787
  201POPC   D2A 2899   8.778   5.927   5.131
  201POPC   C3A 2900   8.653   5.763   5.569
  201POPC   C4A 2901   8.529   5.777   6.019
  201POPC   C1B 2902   9.314   5.899   4.614
  201POPC   C2B 2903   9.350   5.962   5.055
  201POPC   C3B 2904   9.152   5.879   5.460
  201POPC   C4B 2905   9.014   5.981   5.876
  202POPC   NC3 2906   6.060   1.539   3.702
  202POPC   PO4 2907   5.840   1.014   4.025
  202POPC   GL1 2908   5.625   1.067   4.381
  202POPC   GL2 2909   5.593   1.402   4.273
  202POPC   C1A 2910   5.555   0.946   4.796
  202POPC   D2A 2911   5.633   0.709   5.182
  202POPC   C3A 2912   5.566   0.974   5.547
  202POPC   C4A 2913   5.403   1.376   5.624
  202POPC   C1B 2914   5.893   1.392   4.643
  202POPC   C2B 2915   5.920   1.239   5.042
  202POPC   C3B 2916   5.877   1.425   5.416
  202POPC   C4B 2917   5.919   1.270   5.817
  203POPC   NC3 2918   6.988   1.560   4.000
  203POPC   PO4 2919   6.928   2.219   3.909
  203POPC   GL1 2920   7.236   1.963   4.260
  203POPC   GL2 2921   7.600   2.029   4.403
  203POPC   C1A 2922   7.362   1.685   4.649
  203POPC   D2A 2923   7.426   1.640   5.104
  203POPC   C3A 2924   7.272   1.728   5.522
  203POPC   C4A 2925   6.929   1.872   5.756
  203POPC   C1B 2926   7.617   2.243   4.808
  203POPC   C2B 2927   7.463   2.135   5.225
  203POPC   C3B 2928   7.271   2.248   5.617
  203POPC   C4B 2929   7.441   2.359   6.010
  204POPC   NC3 2930   7.973   1.533   3.832
  204POPC   PO4 2931   7.882   0.873   3.989
  204POPC   GL1 2932   8.294   1.017   4.248
  204POPC   GL2 2933   8.418   1.335   4.198
  204POPC   C1A 2934   8.468   1.086   4.664
  204POPC   D2A 2935   8.455   0.905   5.058
  204POPC   C3A 2936   8.463   1.172   5.406
  204POPC   C4A 2937   8.554   1.244   5.834
  204POPC   C1B 2938   8.074   1.358   4.527
  204POPC   C2B 2939   8.141   1.378   4.995
  204POPC   C3B 2940   7.991   1.373   5.432
  204POPC   C4B 2941   8.120   1.556   5.831
  205POPC   NC3 2942   8.680   9.187   3.887
  205POPC   PO4 2943   8.993   8.600   3.867
  205POPC   GL1 2944   8.993   8.889   4.261
  205POPC   GL2 2945   8.685   8.962   4.450
  205POPC   C1A 2946   9.087   9.152   4.663
  205POPC   D2A 2947   8.813   9.087   5.011
  205POPC   C3A 2948   8.942   9.048   5.448
  205POPC   C4A 2949   8.673   9.017   5.795
  205POPC   C1B 2950   8.930   8.668   4.730
  205POPC   C2B 2951   8.875   8.575   5.178
  205POPC   C3B 2952   8.896   8.545   5.646
  205POPC   C4B 2953   8.899   8.663   6.083
  206POPC   NC3 2954   4.747  10.934   3.960
  206POPC   PO4 2955   4.130  11.137   3.675
  206POPC   GL1 2956   4.300  11.123   4.142
  206POPC   GL2 2957   4.055  11.077   4.444
  206POPC   C1A 2958   4.505  11.230   4.572
  206POPC   D2A 2959   4.311  11.110   4.949
  206POPC   C3A 2960   4.600  11.138   5.281
  206POPC   C4A 2961   4.616  11.166   5.703
  206POPC   C1B 2962   3.812  11.226   4.759
  206POPC   C2B 2963   3.924  11.414   5.147
  206POPC   C3B 2964   4.125  11.195   5.471
  206POPC   C4B 2965   4.029  10.922   5.805
  207POPC   NC3 2966   0.518  10.792   3.895
  207POPC   PO4 2967   0.713  11.488   3.994
  207POPC   GL1 2968   0.695  11.145   4.216
  207POPC   GL2 2969   0.334  11.147   4.203
  207POPC   C1A 2970   0.756  11.058   4.640
  207POPC   D2A 2971   0.921  11.307   4.982
  207POPC   C3A 2972   0.729  11.180   5.385
  207POPC   C4A 2973   0.767  11.338   5.808
  207POPC   C1B 2974   0.241  11.128   4.610
  207POPC   C2B 2975   0.390  10.967   4.986
  207POPC   C3B 2976   0.198  11.045   5.336
  207POPC   C4B 2977   0.334  11.058   5.724
  208POPC   NC3 2978   8.721  10.475   3.950
  208POPC   PO4 2979   9.329  10.489   3.713
  208POPC   GL1 2980   9.131  10.596   4.272
  208POPC   GL2 2981   8.869  10.374   4.415
  208POPC   C1A 2982   8.915  10.687   4.766
  208POPC   D2A 2983   8.568  10.706   5.070
  208POPC   C3A 2984   8.682  10.749   5.495
  208POPC   C4A 2985   9.090  10.574   5.592
  208POPC   C1B 2986   9.285  10.345   4.691
  208POPC   C2B 2987   9.206  10.387   5.122
  208POPC   C3B 2988   8.789  10.297   5.278
  208POPC   C4B 2989   8.560  10.250   5.641
  209POPC   NC3 2990   5.066   0.155   4.112
  209POPC   PO4 2991   5.254  10.993   3.881
  209POPC   GL1 2992   5.322  11.236   4.251
  209POPC   GL2 2993   4.975  11.180   4.380
  209POPC   C1A 2994   5.254  11.481   4.681
  209POPC   D2A 2995   4.955  11.378   5.006
  209POPC   C3A 2996   4.955   0.011   5.456
  209POPC   C4A 2997   5.127  11.431   5.897
  209POPC   C1B 2998   4.845  10.901   4.765
  209POPC   C2B 2999   5.001  10.825   5.195
  209POPC   C3B 3000   5.157  10.999   5.610
  209POPC   C4B 3001   4.930  10.963   6.041
  210POPC   NC3 3002   0.579  10.176   3.666
  210POPC   PO4 3003   0.009  10.072   3.951
  210POPC   GL1 3004   0.373  10.161   4.259
  210POPC   GL2 3005   0.443  10.475   4.269
  210POPC   C1A 3006   0.281  10.077   4.713
  210POPC   D2A 3007   0.090  10.057   5.151
  210POPC   C3A 3008   0.364  10.209   5.496
  210POPC   C4A 3009   0.273  10.403   5.918
  210POPC   C1B 3010   0.304  10.592   4.646
  210POPC   C2B 3011   0.439  10.454   5.044
  210POPC   C3B 3012   0.573  10.677   5.393
  210POPC   C4B 3013   0.670  10.692   5.797
  211POPC   NC3 3014   2.136   1.600   3.837
  211POPC   PO4 3015   2.231   2.316   3.848
  211POPC   GL1 3016   2.059   2.262   4.213
  211POPC   GL2 3017   1.900   1.965   4.182
  211POPC   C1A 3018   2.219   2.371   4.610
  211POPC   D2A 3019   2.076   2.213   5.011
  211POPC   C3A 3020   2.290   2.315   5.386
  211POPC   C4A 3021   2.207   2.165   5.773
  211POPC   C1B 3022   1.770   1.968   4.622
  211POPC   C2B 3023   1.682   1.855   5.056
  211POPC   C3B 3024   1.872   1.925   5.453
  211POPC   C4B 3025   1.693   2.181   5.755
  212POPC   NC3 3026  10.887   8.855   3.665
  212POPC   PO4 3027  11.434   8.683   3.806
  212POPC   GL1 3028  11.400   8.806   4.244
  212POPC   GL2 3029  11.126   9.012   4.265
  212POPC   C1A 3030  11.229   8.700   4.663
  212POPC   D2A 3031  11.215   8.848   5.055
  212POPC   C3A 3032  11.400   8.607   5.343
  212POPC   C4A 3033  11.265   8.814   5.687
  212POPC   C1B 3034  11.143   9.210   4.694
  212POPC   C2B 3035  10.836   9.230   5.032
  212POPC   C3B 3036  11.028   9.219   5.463
  212POPC   C4B 3037  10.936   9.150   5.880
  213POPC   NC3 3038   7.214  10.934   3.913
  213POPC   PO4 3039   7.836  11.375   3.952
  213POPC   GL1 3040   7.550  11.169   4.179
  213POPC   GL2 3041   7.445  11.357   4.376
  213POPC   C1A 3042   7.489  10.847   4.534
  213POPC   D2A 3043   7.549  10.787   5.000
  213POPC   C3A 3044   7.667  10.782   5.423
  213POPC   C4A 3045   7.488  10.938   5.799
  213POPC   C1B 3046   7.123  11.209   4.643
  213POPC   C2B 3047   7.099  11.345   5.013
  213POPC   C3B 3048   7.060  11.137   5.376
  213POPC   C4B 3049   7.220  11.359   5.709
  214POPC   NC3 3050   3.891   1.445   4.172
  214POPC   PO4 3051   3.323   1.597   3.873
  214POPC   GL1 3052   3.165   1.403   4.252
  214POPC   GL2 3053   3.123   1.054   4.155
  214POPC   C1A 3054   3.366   1.382   4.678
  214POPC   D2A 3055   3.749   1.355   4.919
  214POPC   C3A 3056   3.718   1.454   5.340
  214POPC   C4A 3057   3.516   1.574   5.676
  214POPC   C1B 3058   3.265   0.898   4.536
  214POPC   C2B 3059   3.436   0.890   4.948
  214POPC   C3B 3060   3.379   0.882   5.397
  214POPC   C4B 3061   3.480   1.057   5.763
  215POPC   NC3 3062   9.729   6.636   4.036
  215POPC   PO4 3063  10.092   6.073   3.886
  215POPC   GL1 3064   9.898   6.243   4.299
  215POPC   GL2 3065   9.512   6.311   4.368
  215POPC   C1A 3066   9.850   6.488   4.705
  215POPC   D2A 3067   9.655   6.515   5.117
  215POPC   C3A 3068   9.868   6.738   5.485
  215POPC   C4A 3069   9.856   6.483   5.853
  215POPC   C1B 3070   9.388   6.707   4.654
  215POPC   C2B 3071   9.397   6.929   5.076
  215POPC   C3B 3072   9.367   6.723   5.509
  215POPC   C4B 3073   9.392   6.659   5.928
  216POPC   NC3 3074   4.499   9.009   4.046
  216POPC   PO4 3075   3.927   9.143   3.872
  216POPC   GL1 3076   3.929   8.980   4.284
  216POPC   GL2 3077   4.244   9.034   4.475
  216POPC   C1A 3078   3.839   8.958   4.745
  216POPC   D2A 3079   4.142   9.016   5.035
  216POPC   C3A 3080   4.104   8.878   5.470
  216POPC   C4A 3081   4.183   8.477   5.705
  216POPC   C1B 3082   4.571   8.905   4.756
  216POPC   C2B 3083   4.575   8.745   5.193
  216POPC   C3B 3084   4.592   8.781   5.647
  216POPC   C4B 3085   4.746   8.924   6.038
  217POPC   NC3 3086   1.125   4.370   3.889
  217POPC   PO4 3087   1.695   4.768   4.082
  217POPC   GL1 3088   1.378   4.440   4.304
  217POPC   GL2 3089   1.139   4.060   4.274
  217POPC   C1A 3090   1.187   4.368   4.664
  217POPC   D2A 3091   1.365   4.510   4.953
  217POPC   C3A 3092   1.322   4.546   5.350
  217POPC   C4A 3093   1.436   4.628   5.758
  217POPC   C1B 3094   1.094   3.884   4.702
  217POPC   C2B 3095   1.258   4.037   5.159
  217POPC   C3B 3096   1.233   4.139   5.629
  217POPC   C4B 3097   1.439   3.997   6.017
  218POPC   NC3 3098   1.737   3.663   3.901
  218POPC   PO4 3099   2.159   3.884   4.231
  218POPC   GL1 3100   1.986   3.597   4.394
  218POPC   GL2 3101   2.194   3.292   4.274
  218POPC   C1A 3102   1.922   3.657   4.826
  218POPC   D2A 3103   1.870   3.882   5.213
  218POPC   C3A 3104   2.150   3.846   5.572
  218POPC   C4A 3105   2.124   3.601   5.939
  218POPC   C1B 3106   1.874   3.173   4.616
  218POPC   C2B 3107   1.992   3.181   5.038
  218POPC   C3B 3108   2.002   3.359   5.453
  218POPC   C4B 3109   1.952   3.119   5.817
  219POPC   NC3 3110  10.594   1.215   3.859
  219POPC   PO4 3111   9.901   1.208   3.969
  219POPC   GL1 3112  10.241   1.104   4.266
  219POPC   GL2 3113  10.630   1.103   4.346
  219POPC   C1A 3114  10.281   1.127   4.709
  219POPC   D2A 3115   9.990   1.241   5.023
  219POPC   C3A 3116   9.996   1.592   5.302
  219POPC   C4A 3117   9.958   1.424   5.703
  219POPC   C1B 3118  10.797   1.094   4.767
  219POPC   C2B 3119  10.583   0.950   5.133
  219POPC   C3B 3120  10.320   1.078   5.473
  219POPC   C4B 3121  10.542   1.087   5.877
  220POPC   NC3 3122   8.679   3.591   3.888
  220POPC   PO4 3123   9.243   3.313   3.734
  220POPC   GL1 3124   9.194   3.316   4.206
  220POPC   GL2 3125   8.875   3.413   4.328
  220POPC   C1A 3126   9.294   3.534   4.627
  220POPC   D2A 3127   9.256   3.827   5.027
  220POPC   C3A 3128   9.133   3.621   5.421
  220POPC   C4A 3129   9.001   3.410   5.798
  220POPC   C1B 3130   8.602   3.341   4.694
  220POPC   C2B 3131   8.528   3.220   5.134
  220POPC   C3B 3132   8.546   3.381   5.551
  220POPC   C4B 3133   8.386   3.655   5.888
  221POPC   NC3 3134   0.833   0.476   3.861
  221POPC   PO4 3135   1.391   0.193   3.702
  221POPC   GL1 3136   1.184   0.320   4.177
  221POPC   GL2 3137   1.143   0.665   4.326
  221POPC   C1A 3138   1.003   0.258   4.596
  221POPC   D2A 3139   0.951   0.404   5.001
  221POPC   C3A 3140   0.824   0.184   5.331
  221POPC   C4A 3141   1.006   0.315   5.687
  221POPC   C1B 3142   1.349   0.630   4.752
  221POPC   C2B 3143   1.556   0.634   5.181
  221POPC   C3B 3144   1.558   0.389   5.594
  221POPC   C4B 3145   1.349   0.487   6.011
  222POPC   NC3 3146   1.528   8.927   4.168
  222POPC   PO4 3147   0.854   8.803   3.924
  222POPC   GL1 3148   1.077   8.687   4.285
  222POPC   GL2 3149   1.080   9.034   4.399
  222POPC   C1A 3150   1.246   8.528   4.686
  222POPC   D2A 3151   1.047   8.636   5.079
  222POPC   C3A 3152   1.250   8.521   5.469
  222POPC   C4A 3153   1.373   8.661   5.874
  222POPC   C1B 3154   1.277   9.036   4.798
  222POPC   C2B 3155   1.370   9.016   5.222
  222POPC   C3B 3156   1.048   8.994   5.494
  222POPC   C4B 3157   1.155   9.144   5.863
  223POPC   NC3 3158   9.925   0.672   3.902
  223POPC   PO4 3159   9.927   0.009   4.029
  223POPC   GL1 3160   9.736   0.328   4.258
  223POPC   GL2 3161   9.405   0.352   4.231
  223POPC   C1A 3162   9.642   0.333   4.691
  223POPC   D2A 3163   9.878   0.319   5.028
  223POPC   C3A 3164   9.673   0.388   5.380
  223POPC   C4A 3165   9.828   0.437   5.764
  223POPC   C1B 3166   9.237   0.596   4.547
  223POPC   C2B 3167   9.255   0.477   4.998
  223POPC   C3B 3168   9.249   0.658   5.424
  223POPC   C4B 3169   9.391   0.683   5.824
  224POPC   NC3 3170   8.112   2.953   4.029
  224POPC   PO4 3171   7.876   2.378   3.631
  224POPC   GL1 3172   8.140   2.461   4.076
  224POPC   GL2 3173   7.901   2.445   4.373
  224POPC   C1A 3174   8.428   2.538   4.454
  224POPC   D2A 3175   8.517   2.808   4.831
  224POPC   C3A 3176   8.526   2.743   5.328
  224POPC   C4A 3177   8.384   2.579   5.752
  224POPC   C1B 3178   7.963   2.728   4.712
  224POPC   C2B 3179   8.067   2.961   5.077
  224POPC   C3B 3180   8.055   2.890   5.511
  224POPC   C4B 3181   7.899   2.800   5.918
  225POPC   NC3 3182   7.419   1.020   3.942
  225POPC   PO4 3183   7.560   1.710   3.950
  225POPC   GL1 3184   7.600   1.375   4.313
  225POPC   GL2 3185   7.363   1.074   4.432
  225POPC   C1A 3186   7.641   1.280   4.798
  225POPC   D2A 3187   7.370   1.145   5.156
  225POPC   C3A 3188   7.518   1.118   5.576
  225POPC   C4A 3189   7.617   1.466   5.787
  225POPC   C1B 3190   7.086   1.255   4.740
  225POPC   C2B 3191   6.878   1.423   5.107
  225POPC   C3B 3192   7.017   1.259   5.499
  225POPC   C4B 3193   7.087   0.965   5.835
  226POPC   NC3 3194  10.296   4.863   3.836
  226POPC   PO4 3195  10.809   5.394   3.966
  226POPC   GL1 3196  10.551   5.084   4.228
  226POPC   GL2 3197  10.148   5.009   4.299
  226POPC   C1A 3198  10.610   5.104   4.687
  226POPC   D2A 3199  10.450   5.230   5.090
  226POPC   C3A 3200  10.646   5.277   5.491
  226POPC   C4A 3201  10.425   5.173   5.868
  226POPC   C1B 3202  10.313   4.704   4.566
  226POPC   C2B 3203  10.331   4.730   5.020
  226POPC   C3B 3204  10.240   4.921   5.433
  226POPC   C4B 3205  10.038   4.801   5.780
  227POPC   NC3 3206   2.102   4.230   3.945
  227POPC   PO4 3207   1.464   4.060   3.852
  227POPC   GL1 3208   1.648   3.996   4.302
  227POPC   GL2 3209   1.856   4.264   4.392
  227POPC   C1A 3210   1.601   4.072   4.785
  227POPC   D2A 3211   1.794   4.369   5.158
  227POPC   C3A 3212   1.738   4.215   5.597
  227POPC   C4A 3213   1.939   4.085   5.997
  227POPC   C1B 3214   2.092   4.176   4.779
  227POPC   C2B 3215   2.291   4.136   5.144
  227POPC   C3B 3216   2.233   4.351   5.501
  227POPC   C4B 3217   2.376   4.345   5.926
  228POPC   NC3 3218  10.994   4.221   3.924
  228POPC   PO4 3219  11.453   4.700   3.901
  228POPC   GL1 3220   0.038   4.520   4.283
  228POPC   GL2 3221  11.170   4.548   4.335
  228POPC   C1A 3222   0.222   4.427   4.685
  228POPC   D2A 3223  11.485   4.544   5.040
  228POPC   C3A 3224  11.376   4.319   5.410
  228POPC   C4A 3225  11.238   4.511   5.803
  228POPC   C1B 3226  11.272   4.169   4.580
  228POPC   C2B 3227  11.387   3.996   4.981
  228POPC   C3B 3228  11.277   3.809   5.392
  228POPC   C4B 3229  11.169   4.006   5.782
  229POPC   NC3 3230   3.486   5.771   4.011
  229POPC   PO4 3231   3.955   5.636   4.266
  229POPC   GL1 3232   3.640   5.820   4.559
  229POPC   GL2 3233   3.376   6.047   4.431
  229POPC   C1A 3234   3.528   5.849   5.033
  229POPC   D2A 3235   3.625   5.717   5.501
  229POPC   C3A 3236   3.691   6.062   5.823
  229POPC   C4A 3237   3.828   6.091   6.245
  229POPC   C1B 3238   3.154   5.694   4.650
  229POPC   C2B 3239   3.055   5.647   5.091
  229POPC   C3B 3240   3.137   5.561   5.524
  229POPC   C4B 3241   3.235   5.853   5.817
  230POPC   NC3 3242   9.102   2.914   3.887
  230POPC   PO4 3243   8.522   3.159   4.005
  230POPC   GL1 3244   8.788   2.896   4.292
  230POPC   GL2 3245   8.901   2.530   4.174
  230POPC   C1A 3246   9.024   3.047   4.652
  230POPC   D2A 3247   9.019   3.336   5.004
  230POPC   C3A 3248   8.979   3.105   5.388
  230POPC   C4A 3249   8.749   2.957   5.753
  230POPC   C1B 3250   8.961   2.530   4.624
  230POPC   C2B 3251   8.966   2.690   5.051
  230POPC   C3B 3252   9.025   2.593   5.489
  230POPC   C4B 3253   8.922   2.507   5.928
  231POPC   NC3 3254  10.071   3.104   4.044
  231POPC   PO4 3255  10.588   2.650   3.878
  231POPC   GL1 3256  10.379   2.670   4.247
  231POPC   GL2 3257  10.614   2.471   4.403
  231POPC   C1A 3258  10.336   2.830   4.662
  231POPC   D2A 3259  10.352   2.690   5.103
  231POPC   C3A 3260  10.427   2.941   5.471
  231POPC   C4A 3261  10.218   2.823   5.840
  231POPC   C1B 3262  10.752   2.549   4.801
  231POPC   C2B 3263  10.748   2.383   5.198
  231POPC   C3B 3264  10.754   2.536   5.628
  231POPC   C4B 3265  10.689   2.809   5.987
  232POPC   NC3 3266   1.714   7.404   4.004
  232POPC   PO4 3267   2.357   7.507   3.989
  232POPC   GL1 3268   2.137   7.462   4.339
  232POPC   GL2 3269   2.048   7.134   4.277
  232POPC   C1A 3270   2.008   7.320   4.737
  232POPC   D2A 3271   1.754   7.438   4.999
  232POPC   C3A 3272   2.043   7.535   5.302
  232POPC   C4A 3273   2.241   7.683   5.680
  232POPC   C1B 3274   1.646   7.025   4.555
  232POPC   C2B 3275   1.638   6.878   4.970
  232POPC   C3B 3276   1.833   7.045   5.332
  232POPC   C4B 3277   1.989   7.232   5.715
  233POPC   NC3 3278   0.360   8.795   3.961
  233POPC   PO4 3279   0.080   8.294   4.301
  233POPC   GL1 3280   0.289   8.675   4.541
  233POPC   GL2 3281   0.579   8.883   4.403
  233POPC   C1A 3282   0.179   9.038   4.843
  233POPC   D2A 3283   0.052   9.135   5.297
  233POPC   C3A 3284   0.262   8.851   5.598
  233POPC   C4A 3285   0.188   8.637   5.983
  233POPC   C1B 3286   0.743   8.999   4.802
  233POPC   C2B 3287   0.567   9.122   5.215
  233POPC   C3B 3288   0.602   9.204   5.656
  233POPC   C4B 3289   0.684   8.863   5.929
  234POPC   NC3 3290   3.510   8.962   3.909
  234POPC   PO4 3291   3.142   8.552   4.061
  234POPC   GL1 3292   3.449   8.691   4.360
  234POPC   GL2 3293   3.441   9.018   4.440
  234POPC   C1A 3294   3.523   8.566   4.788
  234POPC   D2A 3295   3.713   8.681   5.192
  234POPC   C3A 3296   3.452   8.705   5.592
  234POPC   C4A 3297   3.486   8.475   6.003
  234POPC   C1B 3298   3.351   9.052   4.881
  234POPC   C2B 3299   3.645   9.178   5.215
  234POPC   C3B 3300   3.670   9.172   5.645
  234POPC   C4B 3301   3.401   9.020   6.031
  235POPC   NC3 3302   2.599   2.616   3.808
  235POPC   PO4 3303   3.136   2.247   3.856
  235POPC   GL1 3304   2.924   2.566   4.201
  235POPC   GL2 3305   2.730   2.913   4.262
  235POPC   C1A 3306   2.720   2.581   4.631
  235POPC   D2A 3307   2.869   2.690   5.056
  235POPC   C3A 3308   2.668   2.686   5.442
  235POPC   C4A 3309   2.750   2.784   5.877
  235POPC   C1B 3310   2.757   3.080   4.730
  235POPC   C2B 3311   2.504   3.127   5.146
  235POPC   C3B 3312   2.440   3.123   5.616
  235POPC   C4B 3313   2.412   3.183   6.057
  236POPC   NC3 3314   1.819   0.390   3.777
  236POPC   PO4 3315   1.599  11.408   4.157
  236POPC   GL1 3316   1.617   0.286   4.424
  236POPC   GL2 3317   1.662   0.622   4.309
  236POPC   C1A 3318   1.770   0.328   4.829
  236POPC   D2A 3319   2.111   0.095   4.970
  236POPC   C3A 3320   1.977  11.473   5.355
  236POPC   C4A 3321   2.146   0.140   5.709
  236POPC   C1B 3322   2.086   0.549   4.503
  236POPC   C2B 3323   2.188   0.633   4.945
  236POPC   C3B 3324   2.064   0.536   5.370
  236POPC   C4B 3325   2.396   0.600   5.678
  237POPC   NC3 3326   1.895   2.627   3.837
  237POPC   PO4 3327   2.359   3.007   3.793
  237POPC   GL1 3328   2.251   2.760   4.193
  237POPC   GL2 3329   1.903   2.734   4.348
  237POPC   C1A 3330   2.300   2.891   4.631
  237POPC   D2A 3331   2.347   2.669   5.009
  237POPC   C3A 3332   2.119   2.804   5.371
  237POPC   C4A 3333   2.271   2.675   5.775
  237POPC   C1B 3334   1.852   2.679   4.817
  237POPC   C2B 3335   1.477   2.539   5.059
  237POPC   C3B 3336   1.434   2.541   5.495
  237POPC   C4B 3337   1.781   2.658   5.751
  238POPC   NC3 3338   0.218   0.139   4.065
  238POPC   PO4 3339   0.420   0.748   3.866
  238POPC   GL1 3340   0.628   0.690   4.278
  238POPC   GL2 3341   0.610   0.361   4.305
  238POPC   C1A 3342   0.565   0.586   4.735
  238POPC   D2A 3343   0.443   0.471   5.135
  238POPC   C3A 3344   0.661   0.660   5.463
  238POPC   C4A 3345   0.366   0.817   5.687
  238POPC   C1B 3346   0.538   0.056   4.651
  238POPC   C2B 3347   0.415  11.465   5.060
  238POPC   C3B 3348   0.369   0.028   5.502
  238POPC   C4B 3349   0.504   0.309   5.814
  239POPC   NC3 3350   1.975   9.612   3.860
  239POPC   PO4 3351   2.610   9.397   4.119
  239POPC   GL1 3352   2.168   9.521   4.327
  239POPC   GL2 3353   1.801   9.687   4.326
  239POPC   C1A 3354   2.037   9.629   4.759
  239POPC   D2A 3355   2.197   9.568   5.125
  239POPC   C3A 3356   2.246   9.926   5.363
  239POPC   C4A 3357   2.047   9.678   5.690
  239POPC   C1B 3358   1.614   9.389   4.634
  239POPC   C2B 3359   1.493   9.470   5.018
  239POPC   C3B 3360   1.671   9.490   5.389
  239POPC   C4B 3361   1.522   9.533   5.761
  240POPC   NC3 3362   0.464   1.943   4.147
  240POPC   PO4 3363  11.483   2.343   3.842
  240POPC   GL1 3364   0.205   2.366   4.315
  240POPC   GL2 3365   0.563   2.246   4.520
  240POPC   C1A 3366   0.178   2.366   4.794
  240POPC   D2A 3367   0.262   2.403   5.234
  240POPC   C3A 3368   0.234   2.005   5.472
  240POPC   C4A 3369   0.113   1.924   5.900
  240POPC   C1B 3370   0.387   1.893   4.797
  240POPC   C2B 3371   0.510   1.663   5.187
  240POPC   C3B 3372   0.748   1.868   5.534
  240POPC   C4B 3373   0.625   2.263   5.729
  241POPC   NC3 3374   9.146   7.443   3.937
  241POPC   PO4 3375   8.657   7.787   4.061
  241POPC   GL1 3376   8.891   7.567   4.398
  241POPC   GL2 3377   9.035   7.226   4.410
  241POPC   C1A 3378   8.843   7.637   4.819
  241POPC   D2A 3379   8.720   7.507   5.221
  241POPC   C3A 3380   8.930   7.392   5.594
  241POPC   C4A 3381   8.823   7.284   6.028
  241POPC   C1B 3382   8.964   7.131   4.886
  241POPC   C2B 3383   8.952   6.960   5.337
  241POPC   C3B 3384   8.920   6.814   5.799
  241POPC   C4B 3385   9.066   6.885   6.255
  242POPC   NC3 3386   2.855  10.923   3.946
  242POPC   PO4 3387   2.295  11.397   3.848
  242POPC   GL1 3388   2.484  11.174   4.216
  242POPC   GL2 3389   2.836  11.240   4.338
  242POPC   C1A 3390   2.429  11.285   4.635
  242POPC   D2A 3391   2.689  11.365   4.993
  242POPC   C3A 3392   2.497  11.331   5.396
  242POPC   C4A 3393   2.733  11.084   5.656
  242POPC   C1B 3394   2.856  10.946   4.647
  242POPC   C2B 3395   2.976  10.932   5.065
  242POPC   C3B 3396   3.161  10.851   5.447
  242POPC   C4B 3397   3.063  10.757   5.832
  243POPC   NC3 3398   6.433   2.123   3.910
  243POPC   PO4 3399   6.522   1.423   3.871
  243POPC   GL1 3400   6.480   1.666   4.242
  243POPC   GL2 3401   6.725   1.932   4.310
  243POPC   C1A 3402   6.515   1.645   4.701
  243POPC   D2A 3403   6.318   1.581   5.092
  243POPC   C3A 3404   6.490   1.803   5.442
  243POPC   C4A 3405   6.214   1.731   5.795
  243POPC   C1B 3406   6.935   1.920   4.740
  243POPC   C2B 3407   6.958   1.972   5.194
  243POPC   C3B 3408   6.762   2.263   5.480
  243POPC   C4B 3409   6.504   2.180   5.833
  244POPC   NC3 3410   9.465   1.333   3.805
  244POPC   PO4 3411   9.445   0.657   3.817
  244POPC   GL1 3412   9.577   0.858   4.226
  244POPC   GL2 3413   9.379   1.133   4.345
  244POPC   C1A 3414   9.743   0.963   4.650
  244POPC   D2A 3415   9.622   0.810   5.043
  244POPC   C3A 3416   9.803   0.938   5.402
  244POPC   C4A 3417   9.834   0.935   5.813
  244POPC   C1B 3418   9.413   1.358   4.773
  244POPC   C2B 3419   9.531   1.334   5.211
  244POPC   C3B 3420   9.447   1.230   5.624
  244POPC   C4B 3421   9.523   1.384   6.039
  245POPC   NC3 3422   8.042   8.646   3.952
  245POPC   PO4 3423   8.198   9.199   3.771
  245POPC   GL1 3424   8.150   9.001   4.263
  245POPC   GL2 3425   7.911   9.178   4.421
  245POPC   C1A 3426   8.259   9.036   4.745
  245POPC   D2A 3427   7.980   9.014   5.071
  245POPC   C3A 3428   8.277   9.009   5.429
  245POPC   C4A 3429   8.176   9.146   5.841
  245POPC   C1B 3430   7.883   8.712   4.623
  245POPC   C2B 3431   7.744   8.513   5.018
  245POPC   C3B 3432   7.892   8.435   5.442
  245POPC   C4B 3433   8.176   8.627   5.751
  246POPC   NC3 3434   7.417   8.061   3.918
  246POPC   PO4 3435   7.095   7.615   4.029
  246POPC   GL1 3436   7.171   7.960   4.364
  246POPC   GL2 3437   7.259   8.328   4.323
  246POPC   C1A 3438   7.178   8.076   4.808
  246POPC   D2A 3439   7.498   8.069   5.142
  246POPC   C3A 3440   7.360   7.956   5.584
  246POPC   C4A 3441   7.285   7.913   6.045
  246POPC   C1B 3442   7.358   8.563   4.673
  246POPC   C2B 3443   7.210   8.519   5.067
  246POPC   C3B 3444   7.370   8.453   5.456
  246POPC   C4B 3445   7.128   8.361   5.836
  247POPC   NC3 3446   4.320   2.323   3.994
  247POPC   PO4 3447   4.138   1.681   3.848
  247POPC   GL1 3448   4.200   1.838   4.292
  247POPC   GL2 3449   4.319   2.122   4.483
  247POPC   C1A 3450   3.999   1.790   4.714
  247POPC   D2A 3451   4.009   2.079   5.056
  247POPC   C3A 3452   4.091   1.816   5.375
  247POPC   C4A 3453   4.051   1.598   5.746
  247POPC   C1B 3454   4.495   1.783   4.783
  247POPC   C2B 3455   4.583   1.622   5.201
  247POPC   C3B 3456   4.567   1.784   5.597
  247POPC   C4B 3457   4.312   2.177   5.653
  248POPC   NC3 3458  10.804   0.313   4.213
  248POPC   PO4 3459  10.439   0.766   3.808
  248POPC   GL1 3460  10.428   0.638   4.234
  248POPC   GL2 3461  10.280   0.302   4.280
  248POPC   C1A 3462  10.541   0.639   4.701
  248POPC   D2A 3463  10.427   0.332   5.024
  248POPC   C3A 3464  10.636   0.479   5.383
  248POPC   C4A 3465  10.633   0.286   5.765
  248POPC   C1B 3466  10.063   0.581   4.584
  248POPC   C2B 3467  10.125   0.751   5.006
  248POPC   C3B 3468  10.152   0.583   5.400
  248POPC   C4B 3469  10.289   0.663   5.804
  249POPC   NC3 3470   9.040   0.431   3.878
  249POPC   PO4 3471   8.993  11.266   3.769
  249POPC   GL1 3472   9.042   0.012   4.158
  249POPC   GL2 3473   8.820   0.241   4.311
  249POPC   C1A 3474   9.173   0.080   4.645
  249POPC   D2A 3475   8.973   0.071   5.140
  249POPC   C3A 3476   9.223   0.151   5.542
  249POPC   C4A 3477   9.169   0.246   5.996
  249POPC   C1B 3478   8.781   0.380   4.756
  249POPC   C2B 3479   8.800   0.554   5.187
  249POPC   C3B 3480   8.792   0.405   5.572
  249POPC   C4B 3481   8.885   0.680   5.806
  250POPC   NC3 3482   7.838   2.087   3.981
  250POPC   PO4 3483   8.405   1.714   3.852
  250POPC   GL1 3484   8.146   1.773   4.258
  250POPC   GL2 3485   8.198   2.048   4.391
  250POPC   C1A 3486   7.930   1.793   4.724
  250POPC   D2A 3487   8.086   1.903   5.154
  250POPC   C3A 3488   7.800   1.846   5.478
  250POPC   C4A 3489   7.747   1.961   5.887
  250POPC   C1B 3490   8.154   2.255   4.781
  250POPC   C2B 3491   8.113   2.460   5.169
  250POPC   C3B 3492   7.948   2.353   5.566
  250POPC   C4B 3493   8.233   2.046   5.720
  251POPC   NC3 3494   2.863   8.623   3.713
  251POPC   PO4 3495   2.311   8.445   4.061
  251POPC   GL1 3496   2.375   8.253   4.495
  251POPC   GL2 3497   2.412   7.871   4.503
  251POPC   C1A 3498   2.563   8.329   4.944
  251POPC   D2A 3499   2.904   8.210   5.271
  251POPC   C3A 3500   3.053   8.217   5.728
  251POPC   C4A 3501   2.851   8.243   6.159
  251POPC   C1B 3502   2.377   7.693   4.925
  251POPC   C2B 3503   2.392   7.981   5.299
  251POPC   C3B 3504   2.558   8.073   5.732
  251POPC   C4B 3505   2.440   7.888   6.138
  252POPC   NC3 3506   6.559   3.569   4.002
  252POPC   PO4 3507   6.940   3.426   4.208
  252POPC   GL1 3508   6.639   3.595   4.519
  252POPC   GL2 3509   6.354   3.388   4.480
  252POPC   C1A 3510   6.412   3.618   4.944
  252POPC   D2A 3511   6.353   3.904   5.293
  252POPC   C3A 3512   6.708   3.852   5.573
  252POPC   C4A 3513   6.885   3.450   5.758
  252POPC   C1B 3514   6.648   3.174   4.803
  252POPC   C2B 3515   6.733   3.299   5.242
  252POPC   C3B 3516   6.420   3.441   5.532
  252POPC   C4B 3517   6.071   3.499   5.816
  253POPC   NC3 3518   8.200   9.623   3.986
  253POPC   PO4 3519   7.691  10.029   4.006
  253POPC   GL1 3520   7.933   9.849   4.349
  253POPC   GL2 3521   8.297   9.832   4.437
  253POPC   C1A 3522   7.950  10.037   4.773
  253POPC   D2A 3523   7.893   9.787   5.130
  253POPC   C3A 3524   7.657   9.812   5.515
  253POPC   C4A 3525   7.641   9.918   5.966
  253POPC   C1B 3526   8.179   9.567   4.764
  253POPC   C2B 3527   8.261   9.433   5.145
  253POPC   C3B 3528   7.969   9.416   5.474
  253POPC   C4B 3529   8.077   9.677   5.813
  254POPC   NC3 3530   9.287   9.954   3.681
  254POPC   PO4 3531   9.094   9.341   4.041
  254POPC   GL1 3532   9.280   9.675   4.285
  254POPC   GL2 3533   9.656   9.679   4.348
  254POPC   C1A 3534   9.226   9.677   4.714
  254POPC   D2A 3535   9.284   9.397   5.066
  254POPC   C3A 3536   9.220   9.490   5.492
  254POPC   C4A 3537   9.487   9.509   5.812
  254POPC   C1B 3538   9.852   9.631   4.785
  254POPC   C2B 3539   9.801   9.609   5.253
  254POPC   C3B 3540   9.988   9.438   5.639
  254POPC   C4B 3541   9.923   9.427   6.080
  255POPC   NC3 3542   5.298   0.983   4.012
  255POPC   PO4 3543   5.101   1.530   3.622
  255POPC   GL1 3544   5.086   1.416   4.131
  255POPC   GL2 3545   4.881   1.098   4.284
  255POPC   C1A 3546   5.217   1.333   4.594
  255POPC   D2A 3547   5.387   1.417   5.016
  255POPC   C3A 3548   5.024   1.394   5.287
  255POPC   C4A 3549   4.884   1.335   5.710
  255POPC   C1B 3550   4.792   0.894   4.690
  255POPC   C2B 3551   4.728   0.928   5.146
  255POPC   C3B 3552   5.081   0.909   5.429
  255POPC   C4B 3553   5.171   0.964   5.881
  256POPC   NC3 3554   0.228   7.982   3.999
  256POPC   PO4 3555   0.879   7.775   4.005
  256POPC   GL1 3556   0.605   7.992   4.330
  256POPC   GL2 3557   0.601   8.369   4.224
  256POPC   C1A 3558   0.452   8.058   4.764
  256POPC   D2A 3559   0.203   7.898   5.101
  256POPC   C3A 3560   0.401   8.055   5.469
  256POPC   C4A 3561   0.574   7.841   5.799
  256POPC   C1B 3562   0.741   8.469   4.652
  256POPC   C2B 3563   0.521   8.604   5.040
  256POPC   C3B 3564   0.688   8.604   5.462
  256POPC   C4B 3565   0.610   8.367   5.844
  257POPC   NC3 3566  10.199   7.341   4.216
  257POPC   PO4 3567   9.606   7.515   3.902
  257POPC   GL1 3568   9.703   7.503   4.301
  257POPC   GL2 3569   9.410   7.598   4.365
  257POPC   C1A 3570   9.801   7.303   4.713
  257POPC   D2A 3571  10.053   7.514   4.994
  257POPC   C3A 3572   9.913   7.587   5.391
  257POPC   C4A 3573   9.905   7.434   5.766
  257POPC   C1B 3574   9.328   7.466   4.761
  257POPC   C2B 3575   9.507   7.420   5.142
  257POPC   C3B 3576   9.521   7.207   5.519
  257POPC   C4B 3577   9.298   7.173   5.897
  258POPC   NC3 3578   8.554  11.229   3.622
  258POPC   PO4 3579   8.674  10.897   4.178
  258POPC   GL1 3580   8.750  11.210   4.438
  258POPC   GL2 3581   9.094  11.093   4.429
  258POPC   C1A 3582   8.569  11.400   4.801
  258POPC   D2A 3583   8.596  11.198   5.205
  258POPC   C3A 3584   8.569  11.461   5.542
  258POPC   C4A 3585   8.781  11.413   5.944
  258POPC   C1B 3586   9.028  11.157   4.865
  258POPC   C2B 3587   9.078  10.932   5.208
  258POPC   C3B 3588   9.024  11.166   5.559
  258POPC   C4B 3589   9.265  11.237   5.947
  259POPC   NC3 3590   1.699   6.602   3.748
  259POPC   PO4 3591   2.201   6.234   3.736
  259POPC   GL1 3592   1.913   6.341   4.132
  259POPC   GL2 3593   1.869   6.670   4.228
  259POPC   C1A 3594   1.812   6.307   4.625
  259POPC   D2A 3595   1.710   6.187   5.085
  259POPC   C3A 3596   1.924   6.292   5.516
  259POPC   C4A 3597   2.266   6.406   5.857
  259POPC   C1B 3598   2.063   6.761   4.659
  259POPC   C2B 3599   2.089   6.618   5.095
  259POPC   C3B 3600   2.208   6.764   5.510
  259POPC   C4B 3601   1.869   6.746   5.797
  260POPC   NC3 3602  11.164   5.682   3.869
  260POPC   PO4 3603  10.753   6.197   3.988
  260POPC   GL1 3604  10.923   5.860   4.292
  260POPC   GL2 3605  11.287   5.732   4.351
  260POPC   C1A 3606  10.935   5.719   4.734
  260POPC   D2A 3607  10.705   5.668   5.125
  260POPC   C3A 3608  10.912   5.741   5.503
  260POPC   C4A 3609  10.785   5.582   5.881
  260POPC   C1B 3610  11.458   5.902   4.729
  260POPC   C2B 3611  11.325   5.964   5.144
  260POPC   C3B 3612  11.415   5.843   5.566
  260POPC   C4B 3613  11.191   5.861   5.963
  261POPC   NC3 3614   5.123   9.234   4.001
  261POPC   PO4 3615   5.195   9.967   3.852
  261POPC   GL1 3616   5.160   9.826   4.264
  261POPC   GL2 3617   5.236   9.511   4.414
  261POPC   C1A 3618   4.967   9.889   4.654
  261POPC   D2A 3619   4.907   9.716   5.041
  261POPC   C3A 3620   4.941   9.935   5.393
  261POPC   C4A 3621   5.023   9.718   5.778
  261POPC   C1B 3622   4.839   9.361   4.679
  261POPC   C2B 3623   4.603   9.287   5.112
  261POPC   C3B 3624   4.681   9.281   5.588
  261POPC   C4B 3625   4.680   9.431   6.039
  262POPC   NC3 3626  10.869   6.645   3.957
  262POPC   PO4 3627  11.349   7.000   3.958
  262POPC   GL1 3628  11.224   6.804   4.317
  262POPC   GL2 3629  11.220   6.442   4.274
  262POPC   C1A 3630  11.303   6.719   4.726
  262POPC   D2A 3631  11.194   6.518   5.070
  262POPC   C3A 3632  11.187   6.755   5.433
  262POPC   C4A 3633  11.319   7.025   5.752
  262POPC   C1B 3634  11.061   6.232   4.634
  262POPC   C2B 3635  10.859   6.144   5.019
  262POPC   C3B 3636  11.007   6.230   5.449
  262POPC   C4B 3637  11.188   6.344   5.820
  263POPC   NC3 3638  11.109   7.429   3.811
  263POPC   PO4 3639  10.537   6.961   3.764
  263POPC   GL1 3640  10.864   7.123   4.146
  263POPC   GL2 3641  11.129   7.369   4.297
  263POPC   C1A 3642  10.954   7.089   4.672
  263POPC   D2A 3643  10.834   7.020   5.140
  263POPC   C3A 3644  10.826   7.184   5.566
  263POPC   C4A 3645  10.886   7.039   6.004
  263POPC   C1B 3646  11.443   7.217   4.614
  263POPC   C2B 3647  11.341   7.136   5.065
  263POPC   C3B 3648  11.293   7.415   5.436
  263POPC   C4B 3649  11.092   7.505   5.870
  264POPC   NC3 3650   5.196  10.422   3.721
  264POPC   PO4 3651   5.832  10.400   3.946
  264POPC   GL1 3652   5.881  10.510   4.358
  264POPC   GL2 3653   6.029  10.196   4.363
  264POPC   C1A 3654   5.709  10.664   4.775
  264POPC   D2A 3655   5.516  10.770   5.204
  264POPC   C3A 3656   5.653  10.591   5.606
  264POPC   C4A 3657   5.734  10.669   6.051
  264POPC   C1B 3658   5.838  10.153   4.766
  264POPC   C2B 3659   5.699  10.291   5.138
  264POPC   C3B 3660   5.834  10.123   5.490
  264POPC   C4B 3661   5.841  10.199   5.905
  265POPC   NC3 3662   0.189   3.431   3.999
  265POPC   PO4 3663  11.126   3.782   3.946
  265POPC   GL1 3664  11.259   3.485   4.254
  265POPC   GL2 3665  10.979   3.331   4.392
  265POPC   C1A 3666  11.416   3.318   4.653
  265POPC   D2A 3667  11.177   3.274   5.052
  265POPC   C3A 3668  11.392   3.289   5.461
  265POPC   C4A 3669  11.437   3.159   5.893
  265POPC   C1B 3670  11.077   3.694   4.673
  265POPC   C2B 3671  10.900   3.703   5.059
  265POPC   C3B 3672  10.851   3.495   5.438
  265POPC   C4B 3673  11.093   3.516   5.808
  266POPC   NC3 3674   1.177  11.372   3.972
  266POPC   PO4 3675   1.323  10.711   3.837
  266POPC   GL1 3676   1.265  10.950   4.286
  266POPC   GL2 3677   1.156  11.288   4.451
  266POPC   C1A 3678   1.267  10.902   4.772
  266POPC   D2A 3679   1.029  10.820   5.176
  266POPC   C3A 3680   1.117  10.918   5.640
  266POPC   C4A 3681   1.476  10.860   5.948
  266POPC   C1B 3682   1.384  11.481   4.769
  266POPC   C2B 3683   1.364   0.139   5.154
  266POPC   C3B 3684   1.219  11.394   5.468
  266POPC   C4B 3685   1.294  11.416   5.891
  267POPC   NC3 3686   1.484   4.994   3.757
  267POPC   PO4 3687   0.926   5.366   3.728
  267POPC   GL1 3688   1.070   5.353   4.185
  267POPC   GL2 3689   1.300   5.088   4.228
  267POPC   C1A 3690   1.267   5.404   4.628
  267POPC   D2A 3691   1.101   5.385   5.073
  267POPC   C3A 3692   1.330   5.448   5.456
  267POPC   C4A 3693   1.538   5.150   5.757
  267POPC   C1B 3694   1.213   4.886   4.634
  267POPC   C2B 3695   1.005   4.878   5.045
  267POPC   C3B 3696   1.087   4.979   5.480
  267POPC   C4B 3697   0.973   4.855   5.891
  268POPC   NC3 3698   1.125   6.743   4.064
  268POPC   PO4 3699   1.477   6.195   3.821
  268POPC   GL1 3700   1.411   6.251   4.279
  268POPC   GL2 3701   1.420   6.576   4.434
  268POPC   C1A 3702   1.164   6.229   4.710
  268POPC   D2A 3703   1.230   6.411   5.140
  268POPC   C3A 3704   1.027   6.340   5.548
  268POPC   C4A 3705   1.405   6.521   5.720
  268POPC   C1B 3706   1.158   6.759   4.754
  268POPC   C2B 3707   1.154   6.960   5.148
  268POPC   C3B 3708   1.030   6.842   5.540
  268POPC   C4B 3709   1.024   6.961   5.933
  269POPC   NC3 3710   0.576   5.307   4.034
  269POPC   PO4 3711   0.726   4.590   3.912
  269POPC   GL1 3712   0.478   4.809   4.221
  269POPC   GL2 3713   0.796   4.925   4.333
  269POPC   C1A 3714   0.401   4.925   4.689
  269POPC   D2A 3715   0.467   4.717   5.131
  269POPC   C3A 3716   0.511   4.928   5.541
  269POPC   C4A 3717   0.438   4.882   6.001
  269POPC   C1B 3718   0.799   5.227   4.677
  269POPC   C2B 3719   0.602   5.233   5.093
  269POPC   C3B 3720   0.758   5.370   5.478
  269POPC   C4B 3721   0.715   5.277   5.886
  270POPC   NC3 3722   6.271   1.165   4.160
  270POPC   PO4 3723   6.974   1.113   4.073
  270POPC   GL1 3724   6.688   0.889   4.290
  270POPC   GL2 3725   6.666   1.211   4.468
  270POPC   C1A 3726   6.595   0.706   4.708
  270POPC   D2A 3727   6.865   0.872   5.055
  270POPC   C3A 3728   6.722   0.822   5.510
  270POPC   C4A 3729   6.422   0.921   5.852
  270POPC   C1B 3730   6.387   1.160   4.796
  270POPC   C2B 3731   6.443   1.107   5.197
  270POPC   C3B 3732   6.364   1.308   5.537
  270POPC   C4B 3733   6.656   1.442   5.779
  271POPC   NC3 3734  10.243   7.361   3.662
  271POPC   PO4 3735  10.572   7.603   4.143
  271POPC   GL1 3736  10.611   7.393   4.496
  271POPC   GL2 3737  10.496   7.013   4.463
  271POPC   C1A 3738  10.510   7.312   4.884
  271POPC   D2A 3739  10.568   7.560   5.215
  271POPC   C3A 3740  10.395   7.526   5.584
  271POPC   C4A 3741  10.627   7.828   5.798
  271POPC   C1B 3742  10.192   6.910   4.768
  271POPC   C2B 3743  10.169   7.048   5.173
  271POPC   C3B 3744  10.384   6.918   5.491
  271POPC   C4B 3745  10.258   7.092   5.822
  272POPC   NC3 3746   9.523   7.979   3.976
  272POPC   PO4 3747  10.091   7.824   3.651
  272POPC   GL1 3748  10.038   7.845   4.109
  272POPC   GL2 3749   9.953   8.199   4.214
  272POPC   C1A 3750   9.943   7.846   4.586
  272POPC   D2A 3751   9.659   7.880   4.943
  272POPC   C3A 3752   9.712   8.061   5.373
  272POPC   C4A 3753   9.651   7.865   5.781
  272POPC   C1B 3754   9.613   8.274   4.562
  272POPC   C2B 3755   9.317   8.350   4.931
  272POPC   C3B 3756   9.256   8.292   5.345
  272POPC   C4B 3757   9.335   8.255   5.760
  273POPC   NC3 3758   1.011   9.354   3.801
  273POPC   PO4 3759   1.619   9.339   4.001
  273POPC   GL1 3760   1.277   9.506   4.243
  273POPC   GL2 3761   1.304   9.867   4.288
  273POPC   C1A 3762   1.092   9.514   4.651
  273POPC   D2A 3763   0.977   9.381   5.056
  273POPC   C3A 3764   1.135   9.510   5.431
  273POPC   C4A 3765   0.902   9.578   5.796
  273POPC   C1B 3766   1.456   9.878   4.697
  273POPC   C2B 3767   1.204   9.881   5.049
  273POPC   C3B 3768   1.327  10.002   5.439
  273POPC   C4B 3769   1.197   9.963   5.854
  274POPC   NC3 3770   0.542   6.083   3.801
  274POPC   PO4 3771   0.664   6.750   3.996
  274POPC   GL1 3772   0.439   6.410   4.197
  274POPC   GL2 3773   0.711   6.194   4.309
  274POPC   C1A 3774   0.170   6.380   4.581
  274POPC   D2A 3775   0.225   6.577   5.007
  274POPC   C3A 3776   0.051   6.373   5.398
  274POPC   C4A 3777   0.103   6.610   5.761
  274POPC   C1B 3778   0.696   6.479   4.668
  274POPC   C2B 3779   0.722   6.387   5.108
  274POPC   C3B 3780   0.547   6.510   5.501
  274POPC   C4B 3781   0.526   6.902   5.728
  275POPC   NC3 3782   4.745   9.915   4.008
  275POPC   PO4 3783   4.745  10.504   3.786
  275POPC   GL1 3784   4.990  10.346   4.180
  275POPC   GL2 3785   5.387  10.302   4.183
  275POPC   C1A 3786   4.818  10.375   4.597
  275POPC   D2A 3787   4.635  10.158   4.952
  275POPC   C3A 3788   4.714  10.391   5.305
  275POPC   C4A 3789   4.790  10.659   5.652
  275POPC   C1B 3790   5.349  10.265   4.615
  275POPC   C2B 3791   5.146  10.314   5.007
  275POPC   C3B 3792   5.210  10.393   5.427
  275POPC   C4B 3793   5.374  10.137   5.711
  276POPC   NC3 3794   4.610   2.865   3.919
  276POPC   PO4 3795   4.028   3.076   3.940
  276POPC   GL1 3796   4.242   2.792   4.263
  276POPC   GL2 3797   4.050   2.549   4.388
  276POPC   C1A 3798   4.420   2.639   4.707
  276POPC   D2A 3799   4.250   2.551   5.138
  276POPC   C3A 3800   4.474   2.653   5.545
  276POPC   C4A 3801   4.820   2.676   5.842
  276POPC   C1B 3802   3.738   2.639   4.666
  276POPC   C2B 3803   3.653   2.501   5.095
  276POPC   C3B 3804   3.890   2.404   5.460
  276POPC   C4B 3805   4.056   2.585   5.827
  277POPC   NC3 3806   8.700   4.658   3.847
  277POPC   PO4 3807   8.718   4.043   3.861
  277POPC   GL1 3808   8.947   3.921   4.249
  277POPC   GL2 3809   9.080   4.212   4.432
  277POPC   C1A 3810   8.868   3.817   4.702
  277POPC   D2A 3811   8.704   3.706   5.129
  277POPC   C3A 3812   8.717   3.876   5.553
  277POPC   C4A 3813   8.504   4.165   5.815
  277POPC   C1B 3814   9.031   4.316   4.879
  277POPC   C2B 3815   9.007   4.216   5.326
  277POPC   C3B 3816   9.051   4.288   5.778
  277POPC   C4B 3817   8.800   4.426   6.135
  278POPC   NC3 3818   1.079   2.894   4.056
  278POPC   PO4 3819   1.338   3.467   3.842
  278POPC   GL1 3820   1.331   3.584   4.258
  278POPC   GL2 3821   1.090   3.350   4.311
  278POPC   C1A 3822   1.454   3.521   4.703
  278POPC   D2A 3823   1.574   3.488   5.169
  278POPC   C3A 3824   1.544   3.720   5.571
  278POPC   C4A 3825   1.625   3.502   5.968
  278POPC   C1B 3826   0.975   3.300   4.733
  278POPC   C2B 3827   1.083   3.556   5.078
  278POPC   C3B 3828   0.979   3.728   5.468
  278POPC   C4B 3829   1.209   3.345   5.526
  279POPC   NC3 3830   3.025   1.256   3.707
  279POPC   PO4 3831   2.634   1.462   4.204
  279POPC   GL1 3832   2.742   1.121   4.482
  279POPC   GL2 3833   2.496   0.833   4.414
  279POPC   C1A 3834   2.958   1.156   4.895
  279POPC   D2A 3835   3.239   1.336   5.193
  279POPC   C3A 3836   3.070   1.298   5.625
  279POPC   C4A 3837   2.993   1.048   6.019
  279POPC   C1B 3838   2.283   1.086   4.705
  279POPC   C2B 3839   2.465   1.280   4.995
  279POPC   C3B 3840   2.643   1.353   5.362
  279POPC   C4B 3841   2.578   1.205   5.773
  280POPC   NC3 3842   3.799  11.249   3.995
  280POPC   PO4 3843   3.084  11.347   3.889
  280POPC   GL1 3844   3.322  11.399   4.255
  280POPC   GL2 3845   3.470  11.093   4.355
  280POPC   C1A 3846   3.191  11.365   4.714
  280POPC   D2A 3847   3.196   0.056   5.130
  280POPC   C3A 3848   3.145  11.361   5.526
  280POPC   C4A 3849   3.382  11.245   5.884
  280POPC   C1B 3850   3.403  10.890   4.745
  280POPC   C2B 3851   3.467  11.109   5.122
  280POPC   C3B 3852   3.633  11.043   5.503
  280POPC   C4B 3853   3.558  10.768   5.844
  281POPC   NC3 3854   5.116   8.242   3.868
  281POPC   PO4 3855   4.873   8.790   3.919
  281POPC   GL1 3856   4.847   8.539   4.306
  281POPC   GL2 3857   5.141   8.315   4.374
  281POPC   C1A 3858   4.896   8.491   4.788
  281POPC   D2A 3859   4.986   8.190   5.130
  281POPC   C3A 3860   4.899   8.330   5.557
  281POPC   C4A 3861   4.657   8.387   5.964
  281POPC   C1B 3862   5.255   8.011   4.715
  281POPC   C2B 3863   5.216   7.723   5.077
  281POPC   C3B 3864   5.208   7.856   5.505
  281POPC   C4B 3865   5.420   8.208   5.718
  282POPC   NC3 3866   6.788   0.858   3.735
  282POPC   PO4 3867   6.287   0.420   3.853
  282POPC   GL1 3868   6.611   0.373   4.209
  282POPC   GL2 3869   6.340   0.258   4.416
  282POPC   C1A 3870   6.845   0.205   4.595
  282POPC   D2A 3871   6.985   0.364   5.003
  282POPC   C3A 3872   6.880   0.132   5.383
  282POPC   C4A 3873   6.723  11.352   5.724
  282POPC   C1B 3874   6.384   0.253   4.852
  282POPC   C2B 3875   6.505   0.484   5.180
  282POPC   C3B 3876   6.321   0.498   5.546
  282POPC   C4B 3877   6.598   0.327   5.767
  283POPC   NC3 3878   7.979  10.448   3.863
  283POPC   PO4 3879   8.485   9.997   3.927
  283POPC   GL1 3880   8.358  10.297   4.264
  283POPC   GL2 3881   8.002  10.336   4.354
  283POPC   C1A 3882   8.406  10.307   4.728
  283POPC   D2A 3883   8.400   9.972   5.082
  283POPC   C3A 3884   8.132  10.059   5.472
  283POPC   C4A 3885   8.095  10.205   5.929
  283POPC   C1B 3886   7.933  10.601   4.684
  283POPC   C2B 3887   8.061  10.680   5.089
  283POPC   C3B 3888   8.170  10.581   5.507
  283POPC   C4B 3889   7.967  10.753   5.849
  284POPC   NC3 3890   2.515   5.910   3.816
  284POPC   PO4 3891   3.195   5.940   3.692
  284POPC   GL1 3892   2.977   5.867   4.150
  284POPC   GL2 3893   2.643   5.781   4.318
  284POPC   C1A 3894   2.890   6.117   4.597
  284POPC   D2A 3895   2.722   6.141   5.063
  284POPC   C3A 3896   2.870   5.998   5.479
  284POPC   C4A 3897   2.771   6.071   5.932
  284POPC   C1B 3898   2.606   5.716   4.795
  284POPC   C2B 3899   2.585   5.629   5.264
  284POPC   C3B 3900   2.650   5.586   5.710
  284POPC   C4B 3901   2.466   5.705   6.101
  285POPC   NC3 3902   1.857   5.920   3.818
  285POPC   PO4 3903   2.337   5.531   4.002
  285POPC   GL1 3904   2.013   5.582   4.271
  285POPC   GL2 3905   1.938   5.890   4.341
  285POPC   C1A 3906   1.774   5.411   4.599
  285POPC   D2A 3907   1.615   5.470   5.018
  285POPC   C3A 3908   1.773   5.742   5.349
  285POPC   C4A 3909   1.654   5.680   5.793
  285POPC   C1B 3910   2.041   5.841   4.771
  285POPC   C2B 3911   2.220   6.006   5.151
  285POPC   C3B 3912   2.349   5.981   5.573
  285POPC   C4B 3913   2.071   5.941   5.906
  286POPC   NC3 3914   7.290   9.951   4.241
  286POPC   PO4 3915   7.390  10.497   3.858
  286POPC   GL1 3916   7.141  10.542   4.316
  286POPC   GL2 3917   7.135  10.262   4.585
  286POPC   C1A 3918   7.083  10.691   4.811
  286POPC   D2A 3919   7.202  10.399   5.189
  286POPC   C3A 3920   7.226  10.544   5.634
  286POPC   C4A 3921   7.164  10.688   6.094
  286POPC   C1B 3922   7.514  10.335   4.763
  286POPC   C2B 3923   7.726  10.292   5.167
  286POPC   C3B 3924   7.701  10.310   5.603
  286POPC   C4B 3925   7.596  10.443   5.984
  287POPC   NC3 3926   2.033   5.148   4.012
  287POPC   PO4 3927   2.291   4.618   3.793
  287POPC   GL1 3928   2.149   4.665   4.279
  287POPC   GL2 3929   2.171   4.968   4.463
  287POPC   C1A 3930   1.828   4.665   4.704
  287POPC   D2A 3931   1.600   4.942   5.037
  287POPC   C3A 3932   1.787   4.820   5.441
  287POPC   C4A 3933   1.954   4.621   5.825
  287POPC   C1B 3934   2.264   5.344   4.703
  287POPC   C2B 3935   2.133   5.480   5.117
  287POPC   C3B 3936   2.154   5.491   5.583
  287POPC   C4B 3937   2.103   5.098   5.778
  288POPC   NC3 3938   0.309   4.413   3.856
  288POPC   PO4 3939   0.504   3.813   3.983
  288POPC   GL1 3940   0.456   4.113   4.320
  288POPC   GL2 3941   0.711   4.346   4.341
  288POPC   C1A 3942   0.607   4.068   4.769
  288POPC   D2A 3943   0.379   4.002   5.150
  288POPC   C3A 3944   0.515   4.097   5.574
  288POPC   C4A 3945   0.290   4.482   5.680
  288POPC   C1B 3946   0.740   4.562   4.720
  288POPC   C2B 3947   0.865   4.381   5.124
  288POPC   C3B 3948   0.837   4.497   5.565
  288POPC   C4B 3949   0.676   4.458   6.011
  289POPC   NC3 3950   1.923   8.483   3.808
  289POPC   PO4 3951   2.343   8.914   3.706
  289POPC   GL1 3952   2.056   9.023   4.122
  289POPC   GL2 3953   1.974   8.715   4.336
  289POPC   C1A 3954   2.080   9.124   4.622
  289POPC   D2A 3955   1.885   9.145   5.066
  289POPC   C3A 3956   2.108   9.201   5.481
  289POPC   C4A 3957   2.204   8.881   5.761
  289POPC   C1B 3958   1.717   8.781   4.741
  289POPC   C2B 3959   1.605   8.568   5.095
  289POPC   C3B 3960   1.747   8.652   5.501
  289POPC   C4B 3961   1.656   9.042   5.687
  290POPC   NC3 3962   0.622   1.118   3.685
  290POPC   PO4 3963   0.215   1.538   4.006
  290POPC   GL1 3964   0.353   1.462   4.402
  290POPC   GL2 3965   0.546   1.183   4.251
  290POPC   C1A 3966   0.132   1.460   4.825
  290POPC   D2A 3967  11.424   1.381   5.222
  290POPC   C3A 3968   0.144   1.323   5.605
  290POPC   C4A 3969   0.462   1.535   5.787
  290POPC   C1B 3970   0.331   1.016   4.651
  290POPC   C2B 3971   0.317   1.015   5.123
  290POPC   C3B 3972   0.615   1.201   5.419
  290POPC   C4B 3973   0.755   1.089   5.822
  291POPC   NC3 3974   8.279   0.633   3.951
  291POPC   PO4 3975   8.535   0.125   3.876
  291POPC   GL1 3976   8.302   0.247   4.282
  291POPC   GL2 3977   7.922   0.256   4.302
  291POPC   C1A 3978   8.311   0.535   4.653
  291POPC   D2A 3979   8.346   0.371   5.103
  291POPC   C3A 3980   8.344   0.645   5.513
  291POPC   C4A 3981   8.241   0.658   5.984
  291POPC   C1B 3982   7.965   0.143   4.777
  291POPC   C2B 3983   7.945   0.107   5.276
  291POPC   C3B 3984   7.965   0.299   5.722
  291POPC   C4B 3985   7.840   0.191   6.201
  292POPC   NC3 3986   8.883   1.945   3.773
  292POPC   PO4 3987   9.267   1.582   4.151
  292POPC   GL1 3988   8.764   1.714   4.313
  292POPC   GL2 3989   8.653   2.056   4.198
  292POPC   C1A 3990   8.482   1.644   4.687
  292POPC   D2A 3991   8.595   1.835   5.105
  292POPC   C3A 3992   8.565   1.671   5.526
  292POPC   C4A 3993   8.582   1.744   5.973
  292POPC   C1B 3994   8.658   2.117   4.646
  292POPC   C2B 3995   8.595   2.331   5.040
  292POPC   C3B 3996   8.674   2.216   5.488
  292POPC   C4B 3997   9.097   2.070   5.637
  293POPC   NC3 3998   9.727  10.327   3.857
  293POPC   PO4 3999   9.107  10.151   4.051
  293POPC   GL1 4000   9.496  10.161   4.270
  293POPC   GL2 4001   9.637  10.476   4.318
  293POPC   C1A 4002   9.777  10.123   4.650
  293POPC   D2A 4003   9.520   9.979   4.999
  293POPC   C3A 4004   9.469   9.956   5.435
  293POPC   C4A 4005   9.806   9.929   5.697
  293POPC   C1B 4006   9.846  10.661   4.648
  293POPC   C2B 4007   9.709  10.478   5.022
  293POPC   C3B 4008   9.651  10.441   5.439
  293POPC   C4B 4009   9.852  10.629   5.775
  294POPC   NC3 4010   2.567   1.057   3.969
  294POPC   PO4 4011   1.920   0.830   3.902
  294POPC   GL1 4012   1.971   1.044   4.309
  294POPC   GL2 4013   2.019   1.420   4.310
  294POPC   C1A 4014   1.806   0.914   4.725
  294POPC   D2A 4015   1.871   1.054   5.124
  294POPC   C3A 4016   2.216   1.029   5.381
  294POPC   C4A 4017   2.117   1.011   5.794
  294POPC   C1B 4018   1.880   1.452   4.747
  294POPC   C2B 4019   2.066   1.533   5.169
  294POPC   C3B 4020   2.132   1.494   5.604
  294POPC   C4B 4021   1.785   1.377   5.840
  295POPC   NC3 4022   3.506   2.009   3.714
  295POPC   PO4 4023   3.884   2.497   3.925
  295POPC   GL1 4024   3.776   2.155   4.220
  295POPC   GL2 4025   3.424   2.025   4.226
  295POPC   C1A 4026   3.645   2.139   4.676
  295POPC   D2A 4027   3.532   1.831   5.006
  295POPC   C3A 4028   3.565   2.021   5.379
  295POPC   C4A 4029   3.772   2.015   5.763
  295POPC   C1B 4030   3.213   1.864   4.611
  295POPC   C2B 4031   2.986   1.786   4.989
  295POPC   C3B 4032   3.107   1.776   5.406
  295POPC   C4B 4033   3.221   2.002   5.761
  296POPC   NC3 4034   1.161   5.766   3.853
  296POPC   PO4 4035   1.706   5.429   3.820
  296POPC   GL1 4036   1.493   5.675   4.232
  296POPC   GL2 4037   1.142   5.831   4.356
  296POPC   C1A 4038   1.524   5.862   4.689
  296POPC   D2A 4039   1.281   5.875   5.111
  296POPC   C3A 4040   1.422   6.043   5.526
  296POPC   C4A 4041   1.319   6.061   5.989
  296POPC   C1B 4042   0.927   5.759   4.743
  296POPC   C2B 4043   0.731   5.754   5.126
  296POPC   C3B 4044   0.937   5.831   5.529
  296POPC   C4B 4045   1.113   5.608   5.897
  297POPC   NC3 4046   0.214   9.703   4.155
  297POPC   PO4 4047   0.821   9.791   3.775
  297POPC   GL1 4048   0.789   9.751   4.232
  297POPC   GL2 4049   0.718   9.400   4.302
  297POPC   C1A 4050   0.828   9.963   4.661
  297POPC   D2A 4051   0.618   9.931   5.070
  297POPC   C3A 4052   0.823   9.949   5.449
  297POPC   C4A 4053   0.697  10.086   5.867
  297POPC   C1B 4054   0.552   9.494   4.740
  297POPC   C2B 4055   0.270   9.561   5.107
  297POPC   C3B 4056   0.384   9.686   5.542
  297POPC   C4B 4057   0.436   9.580   5.978
  298POPC   NC3 4058   0.160   2.779   3.916
  298POPC   PO4 4059   0.703   2.318   3.997
  298POPC   GL1 4060   0.661   2.685   4.295
  298POPC   GL2 4061   0.340   2.861   4.370
  298POPC   C1A 4062   0.587   2.694   4.765
  298POPC   D2A 4063   0.512   2.932   5.131
  298POPC   C3A 4064   0.573   2.720   5.514
  298POPC   C4A 4065   0.540   2.769   5.975
  298POPC   C1B 4066   0.083   2.850   4.732
  298POPC   C2B 4067  -0.002   2.892   5.158
  298POPC   C3B 4068   0.074   2.798   5.563
  298POPC   C4B 4069   0.138   2.423   5.759
  299POPC   NC3 4070   7.340   2.390   3.789
  299POPC   PO4 4071   7.698   2.785   4.084
  299POPC   GL1 4072   7.458   2.745   4.420
  299POPC   GL2 4073   7.346   2.455   4.306
  299POPC   C1A 4074   7.458   2.749   4.863
  299POPC   D2A 4075   7.641   2.610   5.235
  299POPC   C3A 4076   7.485   2.722   5.631
  299POPC   C4A 4077   7.254   3.096   5.762
  299POPC   C1B 4078   7.123   2.394   4.682
  299POPC   C2B 4079   7.099   2.483   5.134
  299POPC   C3B 4080   6.990   2.731   5.489
  299POPC   C4B 4081   7.025   2.662   5.927
  300POPC   NC3 4082   1.385  10.267   3.963
  300POPC   PO4 4083   0.829  10.557   3.647
  300POPC   GL1 4084   0.922  10.585   4.143
  300POPC   GL2 4085   0.941  10.249   4.248
  300POPC   C1A 4086   0.816  10.549   4.656
  300POPC   D2A 4087   0.956  10.323   5.077
  300POPC   C3A 4088   1.021  10.414   5.555
  300POPC   C4A 4089   1.087  10.558   6.028
  300POPC   C1B 4090   1.266  10.345   4.596
  300POPC   C2B 4091   1.486  10.345   4.987
  300POPC   C3B 4092   1.522  10.526   5.394
  300POPC   C4B 4093   1.484  10.372   5.803
  301POPC   NC3 4094   8.871   1.415   3.939
  301POPC   PO4 4095   8.724   0.770   3.937
  301POPC   GL1 4096   8.746   0.756   4.371
  301POPC   GL2 4097   8.867   1.084   4.331
  301POPC   C1A 4098   8.905   0.870   4.801
  301POPC   D2A 4099   9.151   1.028   5.104
  301POPC   C3A 4100   8.965   1.095   5.523
  301POPC   C4A 4101   9.110   1.088   5.980
  301POPC   C1B 4102   8.908   1.355   4.654
  301POPC   C2B 4103   8.791   1.375   5.058
  301POPC   C3B 4104   9.059   1.575   5.359
  301POPC   C4B 4105   9.076   1.574   5.810
  302POPC   NC3 4106   0.075   1.028   4.046
  302POPC   PO4 4107  10.938   0.910   3.960
  302POPC   GL1 4108  11.156   1.091   4.349
  302POPC   GL2 4109  11.324   1.426   4.388
  302POPC   C1A 4110  11.321   1.038   4.771
  302POPC   D2A 4111  11.112   0.924   5.156
  302POPC   C3A 4112  11.389   0.904   5.476
  302POPC   C4A 4113  11.428   0.839   5.912
  302POPC   C1B 4114  11.104   1.523   4.817
  302POPC   C2B 4115  10.926   1.386   5.246
  302POPC   C3B 4116  10.998   1.193   5.654
  302POPC   C4B 4117  10.886   1.443   6.027
  303POPC   NC3 4118   2.202   7.952   4.048
  303POPC   PO4 4119   1.559   7.814   3.866
  303POPC   GL1 4120   1.772   7.832   4.284
  303POPC   GL2 4121   1.884   8.185   4.344
  303POPC   C1A 4122   1.934   7.817   4.694
  303POPC   D2A 4123   1.764   7.969   5.071
  303POPC   C3A 4124   1.885   7.994   5.453
  303POPC   C4A 4125   1.712   7.657   5.691
  303POPC   C1B 4126   1.925   8.328   4.746
  303POPC   C2B 4127   2.091   8.403   5.162
  303POPC   C3B 4128   2.181   8.386   5.600
  303POPC   C4B 4129   2.039   8.095   5.921
  304POPC   NC3 4130   0.571   5.521   3.481
  304POPC   PO4 4131   0.741   5.755   4.054
  304POPC   GL1 4132   0.589   5.653   4.391
  304POPC   GL2 4133   0.294   5.853   4.317
  304POPC   C1A 4134   0.344   5.483   4.717
  304POPC   D2A 4135   0.193   5.595   5.114
  304POPC   C3A 4136   0.241   5.406   5.513
  304POPC   C4A 4137   0.437   5.669   5.830
  304POPC   C1B 4138   0.476   6.002   4.717
  304POPC   C2B 4139   0.319   6.083   5.064
  304POPC   C3B 4140   0.417   5.997   5.447
  304POPC   C4B 4141   0.267   6.133   5.813
  305POPC   NC3 4142  10.387   6.438   3.831
  305POPC   PO4 4143  10.069   6.915   4.117
  305POPC   GL1 4144  10.300   6.559   4.326
  305POPC   GL2 4145  10.671   6.522   4.392
  305POPC   C1A 4146  10.335   6.381   4.745
  305POPC   D2A 4147  10.167   6.532   5.130
  305POPC   C3A 4148  10.268   6.398   5.547
  305POPC   C4A 4149  10.333   6.605   5.925
  305POPC   C1B 4150  10.764   6.634   4.811
  305POPC   C2B 4151  10.670   6.556   5.255
  305POPC   C3B 4152  10.776   6.642   5.699
  305POPC   C4B 4153  10.761   6.575   6.173
  306POPC   NC3 4154   9.271  10.923   3.930
  306POPC   PO4 4155   9.965  10.715   3.968
  306POPC   GL1 4156   9.629  10.970   4.290
  306POPC   GL2 4157   9.507  11.316   4.229
  306POPC   C1A 4158   9.410  10.856   4.739
  306POPC   D2A 4159   9.611  10.972   5.158
  306POPC   C3A 4160   9.465  10.906   5.606
  306POPC   C4A 4161   9.323  10.704   6.039
  306POPC   C1B 4162   9.625  11.321   4.680
  306POPC   C2B 4163   9.480  11.482   5.080
  306POPC   C3B 4164   9.642  11.377   5.480
  306POPC   C4B 4165   9.971  11.112   5.640
  307POPC   NC3 4166   7.396   9.055   3.811
  307POPC   PO4 4167   7.630   8.458   3.979
  307POPC   GL1 4168   7.541   8.833   4.268
  307POPC   GL2 4169   7.199   8.926   4.293
  307POPC   C1A 4170   7.532   9.050   4.731
  307POPC   D2A 4171   7.480   8.913   5.191
  307POPC   C3A 4172   7.771   8.929   5.529
  307POPC   C4A 4173   7.760   8.879   5.961
  307POPC   C1B 4174   7.031   8.973   4.734
  307POPC   C2B 4175   7.052   9.179   5.151
  307POPC   C3B 4176   7.025   8.863   5.440
  307POPC   C4B 4177   7.307   8.853   5.735
  308POPC   NC3 4178   9.639   4.985   3.952
  308POPC   PO4 4179   9.111   4.574   4.046
  308POPC   GL1 4180   9.386   4.643   4.405
  308POPC   GL2 4181   9.579   4.968   4.444
  308POPC   C1A 4182   9.452   4.699   4.860
  308POPC   D2A 4183   9.442   4.961   5.234
  308POPC   C3A 4184   9.432   4.752   5.635
  308POPC   C4A 4185   9.143   4.821   5.980
  308POPC   C1B 4186   9.891   4.971   4.766
  308POPC   C2B 4187   9.896   5.191   5.157
  308POPC   C3B 4188   9.751   5.185   5.607
  308POPC   C4B 4189   9.931   5.280   6.027
  309POPC   NC3 4190  11.043   9.368   3.896
  309POPC   PO4 4191   0.038   9.277   4.120
  309POPC   GL1 4192  11.250   9.560   4.339
  309POPC   GL2 4193  10.870   9.471   4.358
  309POPC   C1A 4194  11.373   9.693   4.754
  309POPC   D2A 4195  11.226   9.537   5.113
  309POPC   C3A 4196  11.386   9.598   5.499
  309POPC   C4A 4197   0.019   9.273   5.797
  309POPC   C1B 4198  10.839   9.780   4.674
  309POPC   C2B 4199  10.629   9.736   5.045
  309POPC   C3B 4200  10.818   9.678   5.425
  309POPC   C4B 4201  11.011   9.657   5.836
  310POPC   NC3 4202   9.698   3.309   3.702
  310POPC   PO4 4203   9.697   3.879   3.985
  310POPC   GL1 4204   9.721   3.650   4.357
  310POPC   GL2 4205   9.689   3.272   4.329
  310POPC   C1A 4206   9.728   3.769   4.804
  310POPC   D2A 4207   9.901   3.999   5.152
  310POPC   C3A 4208   9.891   3.729   5.497
  310POPC   C4A 4209   9.763   3.675   5.920
  310POPC   C1B 4210   9.703   3.239   4.784
  310POPC   C2B 4211   9.560   3.442   5.179
  310POPC   C3B 4212   9.520   3.350   5.627
  310POPC   C4B 4213   9.738   3.144   5.988
  311POPC   NC3 4214   3.187   0.302   3.794
  311POPC   PO4 4215   3.787   0.218   3.920
  311POPC   GL1 4216   3.493   0.396   4.285
  311POPC   GL2 4217   3.717   0.667   4.425
  311POPC   C1A 4218   3.306   0.416   4.744
  311POPC   D2A 4219   3.081   0.544   5.162
  311POPC   C3A 4220   3.268   0.378   5.544
  311POPC   C4A 4221   3.634   0.067   5.564
  311POPC   C1B 4222   3.832   0.481   4.822
  311POPC   C2B 4223   3.655   0.456   5.225
  311POPC   C3B 4224   3.732   0.600   5.676
  311POPC   C4B 4225   3.788   0.715   6.135
  312POPC   NC3 4226   4.230  10.672   3.788
  312POPC   PO4 4227   4.046  10.080   3.905
  312POPC   GL1 4228   4.106  10.335   4.233
  312POPC   GL2 4229   4.457  10.359   4.195
  312POPC   C1A 4230   4.197  10.216   4.662
  312POPC   D2A 4231   4.015  10.236   5.078
  312POPC   C3A 4232   4.267  10.178   5.437
  312POPC   C4A 4233   4.212  10.047   5.887
  312POPC   C1B 4234   4.398  10.682   4.529
  312POPC   C2B 4235   4.380  10.611   4.976
  312POPC   C3B 4236   4.337  10.720   5.411
  312POPC   C4B 4237   4.324  10.523   5.799
  313POPC   NC3 4238  11.483   1.880   3.796
  313POPC   PO4 4239  10.844   1.975   3.779
  313POPC   GL1 4240  10.952   2.135   4.210
  313POPC   GL2 4241  11.274   2.074   4.218
  313POPC   C1A 4242  10.886   2.066   4.681
  313POPC   D2A 4243  10.797   1.856   5.084
  313POPC   C3A 4244  10.760   2.008   5.529
  313POPC   C4A 4245  11.111   2.144   5.801
  313POPC   C1B 4246  11.410   1.919   4.593
  313POPC   C2B 4247  11.408   1.996   5.015
  313POPC   C3B 4248  11.234   1.905   5.363
  313POPC   C4B 4249  11.221   1.647   5.687
  314POPC   NC3 4250  11.120   5.034   3.926
  314POPC   PO4 4251   0.107   5.508   3.871
  314POPC   GL1 4252  11.463   5.213   4.260
  314POPC   GL2 4253  11.086   5.258   4.389
  314POPC   C1A 4254  11.408   4.914   4.643
  314POPC   D2A 4255   0.088   5.072   5.076
  314POPC   C3A 4256  11.490   4.877   5.480
  314POPC   C4A 4257  11.453   4.985   5.921
  314POPC   C1B 4258  11.328   5.402   4.763
  314POPC   C2B 4259  11.216   5.454   5.210
  314POPC   C3B 4260  11.198   5.345   5.661
  314POPC   C4B 4261  10.924   5.094   5.968
  315POPC   NC3 4262  11.135  10.378   3.928
  315POPC   PO4 4263   0.091  10.862   3.719
  315POPC   GL1 4264  11.494  10.754   4.212
  315POPC   GL2 4265  11.423  10.419   4.350
  315POPC   C1A 4266  11.342  10.809   4.693
  315POPC   D2A 4267  11.211  10.533   5.074
  315POPC   C3A 4268  11.445  10.512   5.475
  315POPC   C4A 4269  11.245  10.511   5.888
  315POPC   C1B 4270  11.243  10.178   4.703
  315POPC   C2B 4271  11.072  10.020   5.104
  315POPC   C3B 4272  11.084  10.108   5.532
  315POPC   C4B 4273  11.449  10.044   5.751
  316POPC   NC3 4274   6.317  10.384   3.894
  316POPC   PO4 4275   6.893   9.965   4.001
  316POPC   GL1 4276   6.692  10.251   4.346
  316POPC   GL2 4277   6.438  10.527   4.368
  316POPC   C1A 4278   6.696  10.343   4.812
  316POPC   D2A 4279   6.702  10.564   5.218
  316POPC   C3A 4280   6.753  10.335   5.604
  316POPC   C4A 4281   6.731  10.451   6.035
  316POPC   C1B 4282   6.215  10.482   4.752
  316POPC   C2B 4283   6.236  10.284   5.133
  316POPC   C3B 4284   6.237  10.449   5.552
  316POPC   C4B 4285   6.337  10.154   5.864
  317POPC   NC3 4286   5.742   9.920   3.924
  317POPC   PO4 4287   5.580   9.254   4.096
  317POPC   GL1 4288   5.790   9.589   4.310
  317POPC   GL2 4289   5.630   9.882   4.403
  317POPC   C1A 4290   5.982   9.665   4.704
  317POPC   D2A 4291   5.888   9.767   5.129
  317POPC   C3A 4292   5.871   9.380   5.385
  317POPC   C4A 4293   5.654   9.233   5.786
  317POPC   C1B 4294   5.458   9.792   4.795
  317POPC   C2B 4295   5.396   9.894   5.209
  317POPC   C3B 4296   5.498   9.677   5.567
  317POPC   C4B 4297   5.886   9.703   5.772
  318POPC   NC3 4298   2.627   3.379   3.908
  318POPC   PO4 4299   2.459   3.989   3.775
  318POPC   GL1 4300   2.625   3.756   4.262
  318POPC   GL2 4301   2.775   3.449   4.376
  318POPC   C1A 4302   2.415   3.514   4.700
  318POPC   D2A 4303   2.316   3.614   5.126
  318POPC   C3A 4304   2.586   3.560   5.448
  318POPC   C4A 4305   2.620   3.612   5.876
  318POPC   C1B 4306   2.926   3.568   4.778
  318POPC   C2B 4307   2.973   3.308   5.153
  318POPC   C3B 4308   2.953   3.227   5.599
  318POPC   C4B 4309   3.128   3.575   5.866
  319POPC   NC3 4310  11.013   2.453   3.788
  319POPC   PO4 4311  11.320   3.112   3.900
  319POPC   GL1 4312  11.327   2.946   4.289
  319POPC   GL2 4313  11.238   2.626   4.205
  319POPC   C1A 4314  11.072   2.920   4.660
  319POPC   D2A 4315  10.729   3.056   4.921
  319POPC   C3A 4316  10.908   2.877   5.271
  319POPC   C4A 4317  10.985   3.044   5.653
  319POPC   C1B 4318  11.225   2.434   4.573
  319POPC   C2B 4319  11.221   2.498   4.998
  319POPC   C3B 4320  11.231   2.452   5.422
  319POPC   C4B 4321  11.192   2.644   5.857
  320POPC   NC3 4322   9.334   4.169   3.993
  320POPC   PO4 4323   9.932   4.564   3.902
  320POPC   GL1 4324   9.877   4.552   4.335
  320POPC   GL2 4325   9.738   4.227   4.354
  320POPC   C1A 4326   9.932   4.452   4.800
  320POPC   D2A 4327   9.857   4.659   5.197
  320POPC   C3A 4328   9.802   4.403   5.524
  320POPC   C4A 4329   9.636   4.346   5.895
  320POPC   C1B 4330   9.498   4.205   4.718
  320POPC   C2B 4331   9.478   4.279   5.162
  320POPC   C3B 4332   9.450   4.007   5.550
  320POPC   C4B 4333   9.351   3.946   6.016
  321POPC   NC3 4334   7.294  10.050   3.740
  321POPC   PO4 4335   7.103   9.398   3.854
  321POPC   GL1 4336   7.147   9.452   4.292
  321POPC   GL2 4337   7.506   9.452   4.275
  321POPC   C1A 4338   7.208   9.454   4.760
  321POPC   D2A 4339   7.562   9.399   5.123
  321POPC   C3A 4340   7.420   9.319   5.542
  321POPC   C4A 4341   6.982   9.327   5.664
  321POPC   C1B 4342   7.670   9.607   4.677
  321POPC   C2B 4343   7.416   9.873   4.964
  321POPC   C3B 4344   7.197   9.723   5.315
  321POPC   C4B 4345   7.214  10.045   5.623
  322POPC   NC3 4346  10.337  10.405   3.917
  322POPC   PO4 4347  10.903  10.567   4.281
  322POPC   GL1 4348  10.576  10.416   4.499
  322POPC   GL2 4349  10.219  10.440   4.406
  322POPC   C1A 4350  10.688  10.252   4.887
  322POPC   D2A 4351  10.582  10.184   5.301
  322POPC   C3A 4352  10.711  10.470   5.617
  322POPC   C4A 4353  10.830  10.901   5.712
  322POPC   C1B 4354  10.215  10.434   4.889
  322POPC   C2B 4355  10.164  10.503   5.326
  322POPC   C3B 4356  10.205  10.275   5.700
  322POPC   C4B 4357  10.377  10.291   6.128
  323POPC   NC3 4358   2.395  10.258   3.992
  323POPC   PO4 4359   1.782  10.028   3.918
  323POPC   GL1 4360   1.853  10.411   4.159
  323POPC   GL2 4361   1.710  10.195   4.392
  323POPC   C1A 4362   1.771  10.628   4.608
  323POPC   D2A 4363   1.938  10.640   5.032
  323POPC   C3A 4364   2.109  10.464   5.409
  323POPC   C4A 4365   1.922  10.628   5.758
  323POPC   C1B 4366   1.933  10.137   4.772
  323POPC   C2B 4367   1.770   9.928   5.134
  323POPC   C3B 4368   1.806  10.093   5.542
  323POPC   C4B 4369   2.150  10.176   5.851
  324POPC   NC3 4370   2.657   9.231   3.693
  324POPC   PO4 4371   2.559   9.890   3.740
  324POPC   GL1 4372   2.542   9.878   4.311
  324POPC   GL2 4373   2.842   9.648   4.508
  324POPC   C1A 4374   2.515   9.843   4.815
  324POPC   D2A 4375   2.744   9.567   5.116
  324POPC   C3A 4376   2.530   9.540   5.511
  324POPC   C4A 4377   2.524   9.830   5.834
  324POPC   C1B 4378   3.050   9.929   4.826
  324POPC   C2B 4379   3.078   9.939   5.295
  324POPC   C3B 4380   2.985   9.702   5.662
  324POPC   C4B 4381   2.983   9.844   6.094
  325POPC   NC3 4382  10.241   8.668   3.882
  325POPC   PO4 4383  10.611   9.249   3.745
  325POPC   GL1 4384  10.629   9.057   4.149
  325POPC   GL2 4385  10.326   8.936   4.290
  325POPC   C1A 4386  10.738   8.908   4.588
  325POPC   D2A 4387  10.779   8.624   4.939
  325POPC   C3A 4388  10.775   8.811   5.321
  325POPC   C4A 4389  10.614   8.820   5.689
  325POPC   C1B 4390  10.233   9.010   4.710
  325POPC   C2B 4391  10.308   8.874   5.123
  325POPC   C3B 4392  10.106   8.949   5.504
  325POPC   C4B 4393  10.236   9.069   5.922
  326POPC   NC3 4394  10.090   4.094   3.905
  326POPC   PO4 4395  10.617   4.491   3.849
  326POPC   GL1 4396  10.545   4.191   4.182
  326POPC   GL2 4397  10.260   4.223   4.358
  326POPC   C1A 4398  10.701   4.060   4.611
  326POPC   D2A 4399  10.920   4.204   4.989
  326POPC   C3A 4400  10.789   4.053   5.402
  326POPC   C4A 4401  10.730   4.301   5.742
  326POPC   C1B 4402  10.195   4.003   4.715
  326POPC   C2B 4403  10.381   4.202   5.072
  326POPC   C3B 4404  10.299   4.363   5.478
  326POPC   C4B 4405  10.102   4.099   5.806
  327POPC   NC3 4406   2.543   8.868   4.146
  327POPC   PO4 4407   3.065   9.027   3.742
  327POPC   GL1 4408   2.992   9.077   4.243
  327POPC   GL2 4409   2.940   8.777   4.452
  327POPC   C1A 4410   2.821   9.161   4.746
  327POPC   D2A 4411   2.498   9.106   5.141
  327POPC   C3A 4412   2.702   9.085   5.579
  327POPC   C4A 4413   3.150   9.179   5.612
  327POPC   C1B 4414   3.010   8.643   4.859
  327POPC   C2B 4415   2.844   8.721   5.252
  327POPC   C3B 4416   2.694   8.576   5.650
  327POPC   C4B 4417   3.032   8.686   5.934
  328POPC   NC3 4418   0.731   2.650   3.686
  328POPC   PO4 4419   1.426   2.578   3.931
  328POPC   GL1 4420   1.166   2.433   4.293
  328POPC   GL2 4421   1.505   2.375   4.457
  328POPC   C1A 4422   1.047   2.437   4.733
  328POPC   D2A 4423   1.024   2.831   4.978
  328POPC   C3A 4424   1.049   2.884   5.401
  328POPC   C4A 4425   1.002   2.663   5.779
  328POPC   C1B 4426   1.410   2.804   4.601
  328POPC   C2B 4427   1.484   3.051   4.953
  328POPC   C3B 4428   1.610   3.015   5.387
  328POPC   C4B 4429   1.401   2.977   5.786
  329POPC   NC3 4430   5.426   2.292   3.882
  329POPC   PO4 4431   5.997   1.978   3.811
  329POPC   GL1 4432   5.959   1.764   4.179
  329POPC   GL2 4433   5.620   1.905   4.203
  329POPC   C1A 4434   6.065   1.871   4.604
  329POPC   D2A 4435   6.242   2.060   4.983
  329POPC   C3A 4436   5.999   1.932   5.349
  329POPC   C4A 4437   5.998   2.191   5.705
  329POPC   C1B 4438   5.535   1.771   4.640
  329POPC   C2B 4439   5.521   1.925   5.078
  329POPC   C3B 4440   5.510   2.057   5.517
  329POPC   C4B 4441   5.696   1.770   5.773
  330POPC   NC3 4442  10.205   9.344   4.006
  330POPC   PO4 4443  10.023   9.928   3.735
  330POPC   GL1 4444  10.160   9.806   4.212
  330POPC   GL2 4445  10.518   9.861   4.255
  330POPC   C1A 4446  10.353   9.509   4.618
  330POPC   D2A 4447  10.237   9.399   5.075
  330POPC   C3A 4448  10.493   9.281   5.434
  330POPC   C4A 4449  10.523   9.472   5.838
  330POPC   C1B 4450  10.307   9.999   4.655
  330POPC   C2B 4451  10.146   9.955   5.078
  330POPC   C3B 4452  10.297   9.800   5.476
  330POPC   C4B 4453  10.606   9.978   5.770
  331POPC   NC3 4454   2.822  10.116   3.425
  331POPC   PO4 4455   3.068  10.261   4.006
  331POPC   GL1 4456   2.924  10.230   4.403
  331POPC   GL2 4457   2.747  10.533   4.341
  331POPC   C1A 4458   2.917  10.451   4.809
  331POPC   D2A 4459   2.952  10.433   5.229
  331POPC   C3A 4460   2.672  10.206   5.483
  331POPC   C4A 4461   2.878  10.255   5.844
  331POPC   C1B 4462   2.454  10.306   4.624
  331POPC   C2B 4463   2.440  10.352   5.043
  331POPC   C3B 4464   2.536  10.728   5.308
  331POPC   C4B 4465   2.535  10.630   5.751
  332POPC   NC3 4466   8.767   8.190   3.883
  332POPC   PO4 4467   9.222   7.824   3.677
  332POPC   GL1 4468   9.098   7.982   4.199
  332POPC   GL2 4469   9.061   8.339   4.324
  332POPC   C1A 4470   9.219   7.947   4.655
  332POPC   D2A 4471   9.191   7.826   5.131
  332POPC   C3A 4472   9.013   7.899   5.557
  332POPC   C4A 4473   9.170   7.687   5.918
  332POPC   C1B 4474   8.785   8.178   4.696
  332POPC   C2B 4475   8.732   8.070   5.161
  332POPC   C3B 4476   8.558   8.167   5.611
  332POPC   C4B 4477   8.461   8.327   6.058
  333POPC   NC3 4478   2.663   4.378   3.909
  333POPC   PO4 4479   3.151   4.513   4.272
  333POPC   GL1 4480   2.668   4.571   4.386
  333POPC   GL2 4481   2.453   4.265   4.366
  333POPC   C1A 4482   2.458   4.535   4.804
  333POPC   D2A 4483   2.705   4.416   5.183
  333POPC   C3A 4484   2.675   4.605   5.585
  333POPC   C4A 4485   2.724   4.745   5.982
  333POPC   C1B 4486   2.593   4.010   4.726
  333POPC   C2B 4487   2.752   3.908   5.133
  333POPC   C3B 4488   2.650   4.052   5.571
  333POPC   C4B 4489   2.864   4.199   5.952
  334POPC   NC3 4490   8.890   9.751   3.963
  334POPC   PO4 4491   8.464   9.361   4.243
  334POPC   GL1 4492   8.784   9.517   4.440
  334POPC   GL2 4493   8.803   9.875   4.433
  334POPC   C1A 4494   8.712   9.582   4.869
  334POPC   D2A 4495   8.746   9.500   5.294
  334POPC   C3A 4496   8.527   9.501   5.641
  334POPC   C4A 4497   8.875   9.466   5.912
  334POPC   C1B 4498   8.875  10.063   4.818
  334POPC   C2B 4499   9.045   9.878   5.171
  334POPC   C3B 4500   8.957   9.914   5.618
  334POPC   C4B 4501   9.122   9.887   6.030
  335POPC   NC3 4502   0.300   7.036   3.981
  335POPC   PO4 4503   0.023   7.624   3.814
  335POPC   GL1 4504   0.168   7.507   4.225
  335POPC   GL2 4505   0.531   7.443   4.257
  335POPC   C1A 4506   0.294   7.590   4.671
  335POPC   D2A 4507   0.319   7.339   5.040
  335POPC   C3A 4508   0.330   7.525   5.454
  335POPC   C4A 4509   0.169   7.374   5.849
  335POPC   C1B 4510   0.492   7.100   4.598
  335POPC   C2B 4511   0.654   6.926   4.996
  335POPC   C3B 4512   0.728   7.204   5.360
  335POPC   C4B 4513   0.697   7.359   5.807
  336POPC   NC3 4514   4.387   1.328   3.712
  336POPC   PO4 4515   4.581   1.495   4.198
  336POPC   GL1 4516   4.331   1.341   4.465
  336POPC   GL2 4517   4.352   0.987   4.404
  336POPC   C1A 4518   4.429   1.256   4.866
  336POPC   D2A 4519   4.190   1.308   5.213
  336POPC   C3A 4520   4.418   1.250   5.563
  336POPC   C4A 4521   4.438   1.402   5.983
  336POPC   C1B 4522   4.031   0.953   4.768
  336POPC   C2B 4523   3.875   0.918   5.217
  336POPC   C3B 4524   3.948   1.097   5.631
  336POPC   C4B 4525   3.905   1.213   6.056
  337POPC   NC3 4526   2.693   0.065   3.974
  337POPC   PO4 4527   2.908   0.688   3.839
  337POPC   GL1 4528   2.944   0.584   4.291
  337POPC   GL2 4529   2.935   0.246   4.409
  337POPC   C1A 4530   2.845   0.685   4.745
  337POPC   D2A 4531   2.645   0.829   5.163
  337POPC   C3A 4532   2.874   0.784   5.579
  337POPC   C4A 4533   2.804   0.565   5.993
  337POPC   C1B 4534   2.551   0.283   4.716
  337POPC   C2B 4535   2.534   0.327   5.191
  337POPC   C3B 4536   2.760   0.240   5.575
  337POPC   C4B 4537   2.601  11.491   5.916
  338W        W 4538   4.597   7.135   1.913
  339W        W 4539   5.159   6.008   0.015
  340W        W 4540   7.826   4.663  10.365
  341W        W 4541  10.042   0.282  10.628
  342W        W 4542   0.143   4.715   3.426
  343W        W 4543   7.468   3.860  10.491
  344W        W 4544  10.851   8.798  11.752
  345W        W 4545   8.560   3.216   8.922
  346W        W 4546   1.391   0.913   0.956
  347W        W 4547   1.227   6.557  10.808
  348W        W 4548   4.324   9.033   2.230
  349W        W 4549   7.675   6.475   2.734
  350W        W 4550  11.358   1.012   2.147
  351W        W 4551  10.071   2.607   3.839
  352W        W 4552   0.478  11.432   3.250
  353W        W 4553   2.232  10.433  10.444
  354W        W 4554  10.742   5.803  11.487
  355W        W 4555   3.833   7.658   0.915
  356W        W 4556  11.485   8.163  11.824
  357W        W 4557  11.104   7.957   2.194
  358W        W 4558   5.980   3.631   7.950
  359W        W 4559   5.955   4.099   3.915
  360W        W 4560   2.553   3.050   0.126
  361W        W 4561   9.173   5.272   2.903
  362W        W 4562   2.451  10.357   0.457
  363W        W 4563   2.561  10.851   3.515
  364W        W 4564   4.603   0.379   0.468
  365W        W 4565   6.077   0.284   2.674
  366W        W 4566   2.385   5.759   0.954
  367W        W 4567   9.369  11.141  10.298
  368W        W 4568   7.216   6.110  10.492
  369W        W 4569   5.873   6.824  11.472
  370W        W 4570  11.302  10.556  11.335
  371W        W 4571   2.170  10.828   3.169
  372W        W 4572   7.939   8.384   1.893
  373W        W 4573   7.110   4.761   1.403
  374W        W 4574   0.860   1.395  10.453
  375W        W 4575   5.622   0.551   0.042
  376W        W 4576  10.298   2.844   3.120
  377W        W 4577   2.437   8.311   3.587
  378W        W 4578   3.276   8.565   0.812
  379W        W 4579   5.205   2.417  10.746
  380W        W 4580   2.750   2.595   9.856
  381W        W 4581   2.642   4.598   3.404
  382W        W 4582   3.842   8.990   3.038
  383W        W 4583   6.114   0.468   9.233
  384W        W 4584   6.691   6.561   1.954
  385W        W 4585   5.833   4.116   8.172
  386W        W 4586   0.628   2.459  11.836
  387W        W 4587   1.708   5.362  10.400
  388W        W 4588   0.661   2.801   0.677
  389W        W 4589   3.202   1.533   0.015
  390W        W 4590   6.592   1.045   0.933
  391W        W 4591   6.069   7.415  10.289
  392W        W 4592   4.400   8.945   0.768
  393W        W 4593   2.644   4.134   9.791
  394W        W 4594   3.728   4.750  11.682
  395W        W 4595  10.795   6.738  11.113
  396W        W 4596   0.941  10.541   2.758
  397W        W 4597   9.654   0.379   1.969
  398W        W 4598   9.002   2.474  10.967
  399W        W 4599   9.260   8.966   2.986
  400W        W 4600   9.172  10.830   9.957
  401W        W 4601   8.969  11.317   1.701
  402W        W 4602   9.061   9.565   9.941
  403W        W 4603   5.203   9.143   1.287
  404W        W 4604   9.522  10.399  11.421
  405W        W 4605   7.690   5.165   0.750
  406W        W 4606   1.472   2.826   1.476
  407W        W 4607   3.825   4.671   2.714
  408W        W 4608   5.784  10.325  11.501
  409W        W 4609  10.479   3.311   9.044
  410W        W 4610   9.943  10.744  11.542
  411W        W 4611   4.235   1.744  10.604
  412W        W 4612   3.166   8.214   9.565
  413W        W 4613  10.529   4.596   1.425
  414W        W 4614   1.076   8.368   8.927
  415W        W 4615  11.346   4.362   0.587
  416W        W 4616  10.388   7.434   1.694
  417W        W 4617   6.649   7.543  11.435
  418W        W 4618   5.600   6.226   0.272
  419W        W 4619   4.169   2.838   0.433
  420W        W 4620   4.731   6.191   0.198
  421W        W 4621   8.071   9.985  10.900
  422W        W 4622   9.451  11.369   1.895
  423W        W 4623   4.325   0.188   9.802
  424W        W 4624   7.091   4.328   0.029
  425W        W 4625   9.133   7.276   3.457
  426W        W 4626   9.468   4.241  11.518
  427W        W 4627   5.430   3.577   9.140
  428W        W 4628  10.591   8.863   0.340
  429W        W 4629   5.652  11.252   2.211
  430W        W 4630   5.624   4.527   3.026
  431W        W 4631   5.007  11.461  10.611
  432W        W 4632   5.788   3.231  10.309
  433W        W 4633  10.954   8.067  11.093
  434W        W 4634   1.849   3.239   3.066
  435W        W 4635  11.218   0.399  10.793
  436W        W 4636   6.021   9.967  11.789
  437W        W 4637   3.575   5.168   8.087
  438W        W 4638   4.654   8.855   8.140
  439W        W 4639   2.259  10.261   9.859
  440W        W 4640   1.770   9.869   0.043
  441W        W 4641   7.020   2.655   1.636
  442W        W 4642  10.025   2.347  10.845
  443W        W 4643   0.332   0.388   9.003
  444W        W 4644   6.454   0.146  11.027
  445W        W 4645   6.477   3.799   9.893
  446W        W 4646   0.989   6.283   3.887
  447W        W 4647   9.295   9.404   8.969
  448W        W 4648   5.121   7.398   1.896
  449W        W 4649  10.220   7.651   0.846
  450W        W 4650   9.144   5.047  11.949
  451W        W 4651   4.985  10.579  10.567
  452W        W 4652   1.248   3.471  10.698
  453W        W 4653   2.686   4.020  11.939
  454W        W 4654   4.464   0.383   8.817
  455W        W 4655   4.648   3.246   2.689
  456W        W 4656   4.145   4.235  11.370
  457W        W 4657   2.665  10.278   0.920
  458W        W 4658  10.793   1.841  10.939
  459W        W 4659   6.978   9.734   3.486
  460W        W 4660  10.896   0.905   0.278
  461W        W 4661   9.798   1.279   9.767
  462W        W 4662   8.455   9.159   9.010
  463W        W 4663   2.541   5.377   1.699
  464W        W 4664   7.666   3.921   4.003
  465W        W 4665   0.871   6.626   8.387
  466W        W 4666   7.400   7.512  10.743
  467W        W 4667   2.219   6.481   3.274
  468W        W 4668   8.802   9.482   1.848
  469W        W 4669   9.538   0.580   9.823
  470W        W 4670   8.123   4.652  10.773
  471W        W 4671   2.108   2.286   0.218
  472W        W 4672  11.191   5.057  11.160
  473W        W 4673   8.377   5.618   0.282
  474W        W 4674   1.321   3.394  11.676
  475W        W 4675   2.339   3.696  10.012
  476W        W 4676   6.230   1.035   9.904
  477W        W 4677   6.626   6.942   2.304
  478W        W 4678  10.955  11.295   2.185
  479W        W 4679   3.499   6.182   1.751
  480W        W 4680   4.657   2.245  11.298
  481W        W 4681   9.514   0.318  11.437
  482W        W 4682   9.443   9.111  10.297
  483W        W 4683  10.436   8.675  11.457
  484W        W 4684   6.025   6.897   0.901
  485W        W 4685   2.464   8.171   9.110
  486W        W 4686   2.917  10.595   3.248
  487W        W 4687   5.756   3.554  11.467
  488W        W 4688   9.647   7.199   9.491
  489W        W 4689  10.565   7.027  11.898
  490W        W 4690   3.307   6.960  11.444
  491W        W 4691  11.305  11.106   0.067
  492W        W 4692   2.741   4.533   0.056
  493W        W 4693   6.592   4.072   9.410
  494W        W 4694   3.983   8.328   3.494
  495W        W 4695   1.258   9.924  10.754
  496W        W 4696   7.636  11.073   1.703
  497W        W 4697  10.043   3.715  11.608
  498W        W 4698  11.073   5.418  10.823
  499W        W 4699   7.262   4.181   2.389
  500W        W 4700   1.835   6.170  11.390
  501W        W 4701   9.742   9.001   0.919
  502W        W 4702   8.494   1.641  10.886
  503W        W 4703   9.430  11.255   2.787
  504W        W 4704   1.345   1.771   0.669
  505W        W 4705   4.288   9.159   1.238
  506W        W 4706   0.440   4.802  11.623
  507W        W 4707   0.599   4.205   0.733
  508W        W 4708  10.507  10.212   0.648
  509W        W 4709   0.778   0.296  11.850
  510W        W 4710   8.476   5.476   3.755
  511W        W 4711   0.844  10.770   9.859
  512W        W 4712   4.702   0.808   2.163
  513W        W 4713   3.603   8.553  11.730
  514W        W 4714   3.345   8.106   3.148
  515W        W 4715   4.180   3.344   2.848
  516W        W 4716   1.210   7.808   1.053
  517W        W 4717   8.792   1.453   3.080
  518W        W 4718   5.266   8.704   8.624
  519W        W 4719   8.087   1.162   9.283
  520W        W 4720   0.967  11.391   0.800
  521W        W 4721   6.810   5.658   2.383
  522W        W 4722   4.374   1.325   9.465
  523W        W 4723   2.153   6.582   1.283
  524W        W 4724   0.871   7.941   9.157
  525W        W 4725   3.568   0.471   2.358
  526W        W 4726   2.004   3.767   8.497
  527W        W 4727   7.156   1.401  11.410
  528W        W 4728   3.702   6.527   3.098
  529W        W 4729   0.841   6.628  10.006
  530W        W 4730   1.594   5.328   0.793
  531W        W 4731   1.591   2.680  11.640
  532W        W 4732   6.406   8.886  10.226
  533W        W 4733   3.099  11.030   3.466
  534W        W 4734  10.632   0.312   1.742
  535W        W 4735  10.009   8.604   9.697
  536W        W 4736   5.248   3.600  11.392
  537W        W 4737  10.580   3.100  11.568
  538W        W 4738   1.706   0.538   2.660
  539W        W 4739   5.551   3.533   4.228
  540W        W 4740   2.453   8.487  10.756
  541W        W 4741   1.726   7.923   2.992
  542W        W 4742   7.945   3.507   2.021
  543W        W 4743   9.642   9.647   0.149
  544W        W 4744   7.896  11.343   3.028
  545W        W 4745   9.993   7.419   0.461
  546W        W 4746   5.561   8.583  10.676
  547W        W 4747   2.119   0.965   9.395
  548W        W 4748   7.263   1.329   2.314
  549W        W 4749   7.184  10.363  10.848
  550W        W 4750   0.689   6.480   2.794
  551W        W 4751   2.322   1.730   2.431
  552W        W 4752   5.667   4.246  11.870
  553W        W 4753   2.040   5.233  11.750
  554W        W 4754   0.444   5.088   2.832
  555W        W 4755   4.159   8.548  10.523
  556W        W 4756   3.356   9.388   1.905
  557W        W 4757   5.234   8.282   2.980
  558W        W 4758  10.063   3.512   0.060
  559W        W 4759   0.739   3.660   2.834
  560W        W 4760   9.593   1.476  10.576
  561W        W 4761   4.351   6.528   1.715
  562W        W 4762  11.157   9.520   9.523
  563W        W 4763   9.294   9.443   3.123
  564W        W 4764   4.176  11.058   3.135
  565W        W 4765   6.999  11.036   1.564
  566W        W 4766   2.200   9.822  10.765
  567W        W 4767   4.085   2.621   2.318
  568W        W 4768   6.212   4.099   8.657
  569W        W 4769   3.254  11.486   2.227
  570W        W 4770   6.063   7.163   3.970
  571W        W 4771  10.466   6.497   2.848
  572W        W 4772   3.410   9.044   3.325
  573W        W 4773   6.669  11.070   0.512
  574W        W 4774   6.170   3.005   8.601
  575W        W 4775   5.575   5.714   9.991
  576W        W 4776   1.351   4.257   2.913
  577W        W 4777   7.624   0.489  11.577
  578W        W 4778   6.880   6.469   0.709
  579W        W 4779   2.323   4.812  10.970
  580W        W 4780   0.516   1.326   9.861
  581W        W 4781   5.956   0.578   9.875
  582W        W 4782   7.590   2.494   1.218
  583W        W 4783   3.737   2.291  11.735
  584W        W 4784   8.174   1.381   1.715
  585W        W 4785   0.761   9.082   3.009
  586W        W 4786   9.964  11.430   9.871
  587W        W 4787   4.952   1.844   3.255
  588W        W 4788   3.644   1.643   9.032
  589W        W 4789   7.340   7.150  11.528
  590W        W 4790   3.187   4.251   2.768
  591W        W 4791   5.644   7.584  10.522
  592W        W 4792  10.471   4.716   1.919
  593W        W 4793   5.139   5.547   0.307
  594W        W 4794   9.468   7.701   9.427
  595W        W 4795   4.962   1.421  11.539
  596W        W 4796   4.915   2.916   8.471
  597W        W 4797   0.322   9.053   9.235
  598W        W 4798   3.739   5.188   2.674
  599W        W 4799  10.367   4.759   2.405
  600W        W 4800   4.375   1.705  11.509
  601W        W 4801   2.266   3.613   1.795
  602W        W 4802  10.912   8.460  11.395
  603W        W 4803   3.761  11.321  10.853
  604W        W 4804   5.707   0.137   1.883
  605W        W 4805   1.608   1.869   1.775
  606W        W 4806   6.221   3.353  11.999
  607W        W 4807   5.055   8.101  11.264
  608W        W 4808   2.887   7.378   0.681
  609W        W 4809   3.526   2.887  11.274
  610W        W 4810   4.238   9.612   8.967
  611W        W 4811   5.614   6.555   1.175
  612W        W 4812  10.715   9.438  11.119
  613W        W 4813   3.731   7.497   3.089
  614W        W 4814   1.294   8.649  11.937
  615W        W 4815   0.182   3.034   9.358
  616W        W 4816   2.726   3.601   1.562
  617W        W 4817   3.185   2.904   2.300
  618W        W 4818   1.916   8.579   9.932
  619W        W 4819   4.788   2.991  11.823
  620W        W 4820   1.941   9.440   2.553
  621W        W 4821   4.063  10.290  11.821
  622W        W 4822   3.628   6.275  11.883
  623W        W 4823   1.265   9.058   0.717
  624W        W 4824   5.158   1.033   9.972
  625W        W 4825   8.998   8.101   2.891
  626W        W 4826   2.759   8.349   1.510
  627W        W 4827   0.895   3.166  11.013
  628W        W 4828   9.155   0.971   8.638
  629W        W 4829   4.314   8.075  11.964
  630W        W 4830   6.091   8.693   3.653
  631W        W 4831   7.707   2.186  11.717
  632W        W 4832   1.317   9.870   2.996
  633W        W 4833   3.275   0.384   1.917
  634W        W 4834   4.105   6.103   8.345
  635W        W 4835   3.189   6.169   0.736
  636W        W 4836   7.631   6.898   9.930
  637W        W 4837  11.227   5.693   2.769
  638W        W 4838   1.426   9.495  10.493
  639W        W 4839   7.413  11.161  11.854
  640W        W 4840   1.877   2.401  10.251
  641W        W 4841   9.343   9.890  11.356
  642W        W 4842   2.333  11.045   9.120
  643W        W 4843   8.381   6.152   3.155
  644W        W 4844   3.547   3.391   4.031
  645W        W 4845   6.470   1.815   0.476
  646W        W 4846   5.293   7.638   0.812
  647W        W 4847  10.836   6.402   3.511
  648W        W 4848   9.409   0.840   9.066
  649W        W 4849   3.624   4.997  10.836
  650W        W 4850   5.965   9.919  11.196
  651W        W 4851   1.696   4.138   9.398
  652W        W 4852   1.611   7.081   0.977
  653W        W 4853   8.135   3.364   2.645
  654W        W 4854   7.346   0.917  11.423
  655W        W 4855   7.074   1.845   1.610
  656W        W 4856   5.215   2.671  11.791
  657W        W 4857   7.926   8.959   0.839
  658W        W 4858  10.036   4.381   9.373
  659W        W 4859   9.855   3.864   3.060
  660W        W 4860   7.490   6.032   9.881
  661W        W 4861   8.510   1.392  11.476
  662W        W 4862   1.473   8.169   1.279
  663W        W 4863   7.995  10.784   0.577
  664W        W 4864   5.287   0.656   0.797
  665W        W 4865   8.227   6.117   0.392
  666W        W 4866   9.079   8.088  10.760
  667W        W 4867   5.449   6.473   9.174
  668W        W 4868   6.113   9.849   8.620
  669W        W 4869  10.028   5.425   8.997
  670W        W 4870  11.223   3.761   2.703
  671W        W 4871   7.588   4.720   1.697
  672W        W 4872   8.561   8.998  11.986
  673W        W 4873   2.603   6.204   1.945
  674W        W 4874   1.272   6.565  10.296
  675W        W 4875   4.756   9.353   1.172
  676W        W 4876   5.215   9.405  10.025
  677W        W 4877   5.192   8.488   2.085
  678W        W 4878  11.430   2.944   8.913
  679W        W 4879   0.795   9.102   0.511
  680W        W 4880   5.864   2.047   2.851
  681W        W 4881   4.049   2.879  11.115
  682W        W 4882   7.064   0.093   9.246
  683W        W 4883   1.779   7.975   0.304
  684W        W 4884  10.949   6.366   9.306
  685W        W 4885   1.302   6.480   9.769
  686W        W 4886   9.002  10.874   2.000
  687W        W 4887   8.071   7.201   0.676
  688W        W 4888   1.209  10.864   9.503
  689W        W 4889   1.455   6.967  10.988
  690W        W 4890   8.606   9.792   9.812
  691W        W 4891   8.852   4.075  11.728
  692W        W 4892   6.198   2.259   3.192
  693W        W 4893   6.043   9.443   0.822
  694W        W 4894   1.117   0.278  10.867
  695W        W 4895   4.738   5.710   0.613
  696W        W 4896   4.235   7.523  10.464
  697W        W 4897   8.899   8.693   8.486
  698W        W 4898   3.045   5.277   1.598
  699W        W 4899   6.378   3.254   1.266
  700W        W 4900   6.510   8.354  10.993
  701W        W 4901   4.044   7.228   2.763
  702W        W 4902  10.770   4.080  10.101
  703W        W 4903   2.652   1.208  10.826
  704W        W 4904   9.146   5.942  10.759
  705W        W 4905   6.999   0.587  11.217
  706W        W 4906   7.134   6.097   2.297
  707W        W 4907   3.106   3.112   9.519
  708W        W 4908   5.022   5.174  11.503
  709W        W 4909   4.148   0.294   1.520
  710W        W 4910   0.848   1.249   1.250
  711W        W 4911   4.666   2.806   3.422
  712W        W 4912  10.408   6.424   9.023
  713W        W 4913   2.624   6.126   2.864
  714W        W 4914   9.973   8.872  11.588
  715W        W 4915   8.243   0.272  10.518
  716W        W 4916   8.786   0.280   1.850
  717W        W 4917   6.508   8.205   2.002
  718W        W 4918   4.153   6.062   0.864
  719W        W 4919   6.309   1.422  11.652
  720W        W 4920   7.966   6.433   0.016
  721W        W 4921   2.655   3.299   0.576
  722W        W 4922   1.246   0.772   9.931
  723W        W 4923   4.673   5.671  11.524
  724W        W 4924   2.922   3.798   2.842
  725W        W 4925  10.947   1.630   2.766
  726W        W 4926   6.967   7.471  11.861
  727W        W 4927   3.805  10.839   8.977
  728W        W 4928   4.931  11.196   3.541
  729W        W 4929   4.389   0.713  11.653
  730W        W 4930  10.441   6.896  10.753
  731W        W 4931   6.595   1.568   0.919
  732W        W 4932   0.234   3.519   9.891
  733W        W 4933   4.973  10.378  -0.000
  734W        W 4934   0.754   7.145   0.524
  735W        W 4935   6.121   2.754   1.238
  736W        W 4936   8.872   1.468   1.740
  737W        W 4937   1.188  10.138   3.485
  738W        W 4938  10.925   1.300  10.661
  739W        W 4939   1.635  11.449  10.121
  740W        W 4940   1.116   7.294   1.074
  741W        W 4941   2.116   6.186   0.855
  742W        W 4942   4.540   3.256   2.157
  743W        W 4943  10.107  10.815  10.844
  744W        W 4944  10.352   8.838  10.949
  745W        W 4945   8.112  10.153  10.428
  746W        W 4946   9.971   7.180   1.881
  747W        W 4947   5.467   8.478   9.052
  748W        W 4948   3.819  10.450   1.473
  749W        W 4949   4.810   1.001  11.776
  750W        W 4950   1.332  10.641   1.924
  751W        W 4951   1.819   2.391   2.920
  752W        W 4952   6.796   5.205   1.314
  753W        W 4953  10.009   8.445   9.211
  754W        W 4954   3.326   4.725   2.623
  755W        W 4955   4.586   3.756   1.971
  756W        W 4956   4.269   2.434  10.997
  757W        W 4957   8.601   1.951   9.377
  758W        W 4958  11.274   4.233   9.377
  759W        W 4959   9.340   5.465  10.014
  760W        W 4960   8.395   8.082   9.999
  761W        W 4961   6.976   4.166   0.579
  762W        W 4962   1.324   5.346   1.259
  763W        W 4963   3.479   3.212  10.376
  764W        W 4964   4.783   0.372   9.408
  765W        W 4965   9.747   6.704   8.230
  766W        W 4966   8.190   0.440  10.007
  767W        W 4967   6.339   5.969  11.477
  768W        W 4968   5.180   4.712  11.732
  769W        W 4969   2.259   3.841   8.960
  770W        W 4970   0.004  11.217   0.971
  771W        W 4971   9.910   6.146   9.021
  772W        W 4972   1.159   9.510   9.006
  773W        W 4973   6.227   5.325   1.769
  774W        W 4974   7.896   9.822  11.840
  775W        W 4975   4.552   2.244  10.022
  776W        W 4976   0.400   0.241   1.965
  777W        W 4977   7.494   0.910   3.005
  778W        W 4978   7.460   1.488  10.468
  779W        W 4979   0.052   7.381   0.426
  780W        W 4980  10.700   2.972   9.409
  781W        W 4981   8.532   2.363  11.188
  782W        W 4982   5.739   3.608   2.270
  783W        W 4983   7.211   8.444  11.912
  784W        W 4984   7.871   4.275   1.562
  785W        W 4985   0.177   6.141   9.932
  786W        W 4986   4.809   4.168   9.613
  787W        W 4987   7.681   9.539   9.800
  788W        W 4988   5.580   0.310  11.571
  789W        W 4989   5.465   9.876   8.507
  790W        W 4990  11.258   2.221  10.602
  791W        W 4991   7.827   7.990   0.581
  792W        W 4992  11.061   7.006  11.978
  793W        W 4993   7.975   4.289   2.841
  794W        W 4994   6.726   8.130   0.185
  795W        W 4995  11.274   0.308   9.913
  796W        W 4996   7.604  10.574   2.660
  797W        W 4997   4.561   0.824  10.325
  798W        W 4998   7.465   5.157  11.747
  799W        W 4999   7.231   0.877   9.806
  800W        W 5000   6.676  11.320   9.076
  801W        W 5001   7.969   6.164   8.744
  802W        W 5002   4.595   3.066   0.289
  803W        W 5003   3.041   8.997  11.543
  804W        W 5004   7.550   1.689  11.072
  805W        W 5005   8.857   8.008   1.933
  806W        W 5006  11.298  10.796   0.776
  807W        W 5007   0.814   7.558  11.821
  808W        W 5008   4.712   7.486  11.294
  809W        W 5009   1.048   8.003   9.627
  810W        W 5010   9.831   6.540  11.740
  811W        W 5011   0.099  11.438  11.780
  812W        W 5012  10.524   0.331   9.288
  813W        W 5013   5.393   6.551   2.033
  814W        W 5014   2.884  10.124   1.811
  815W        W 5015   5.367   6.781  11.575
  816W        W 5016  10.247   5.636   9.428
  817W        W 5017  11.078   4.468  10.424
  818W        W 5018   6.477   3.768   8.955
  819W        W 5019   4.202   6.514   2.214
  820W        W 5020   3.998   6.652   9.994
  821W        W 5021   8.898   9.917  11.138
  822W        W 5022   8.934   1.098  11.437
  823W        W 5023   9.739   8.163   1.768
  824W        W 5024   3.725   9.515   2.402
  825W        W 5025   0.238   7.584   1.867
  826W        W 5026   4.741   9.828   8.868
  827W        W 5027   7.088   9.386  11.681
  828W        W 5028   5.407  10.309  10.274
  829W        W 5029   5.482   3.769   8.676
  830W        W 5030  10.467  11.325   9.852
  831W        W 5031  11.471   8.473  10.785
  832W        W 5032   1.344  10.857   2.944
  833W        W 5033   8.893   1.409  10.693
  834W        W 5034   7.265   0.061   9.706
  835W        W 5035  10.317   5.658   0.400
  836W        W 5036   8.620   3.740   8.196
  837W        W 5037  10.389   7.277  10.359
  838W        W 5038  10.352   2.910   9.762
  839W        W 5039   0.451   2.223  10.795
  840W        W 5040  10.878   0.047   0.811
  841W        W 5041   7.871   5.727   0.315
  842W        W 5042  10.893   0.700   9.908
  843W        W 5043   4.077   5.519  11.801
  844W        W 5044   3.726   8.945  10.103
  845W        W 5045   9.542  10.564  11.890
  846W        W 5046   4.665   0.493   0.961
  847W        W 5047   0.996   2.678   2.169
  848W        W 5048   1.963   0.432  11.065
  849W        W 5049  10.895   6.188  11.827
  850W        W 5050   9.383   5.647   0.689
  851W        W 5051   5.944   3.686   8.965
  852W        W 5052   1.628   9.344   2.135
  853W        W 5053   0.006   7.200   3.497
  854W        W 5054   8.006   7.187   2.543
  855W        W 5055   0.846   3.267  11.504
  856W        W 5056   6.537   0.291   1.969
  857W        W 5057   8.060   0.446   3.291
  858W        W 5058  10.714   9.792  11.498
  859W        W 5059   7.710   2.193   2.132
  860W        W 5060   5.097   6.996  10.442
  861W        W 5061   9.655   2.057   1.819
  862W        W 5062   6.659  11.253  10.745
  863W        W 5063   4.402   9.770   0.955
  864W        W 5064   5.923   6.630  10.381
  865W        W 5065   1.263   7.554   9.180
  866W        W 5066   1.874  10.600   9.848
  867W        W 5067  10.746   8.362   0.366
  868W        W 5068   8.882   9.929   1.077
  869W        W 5069   0.661   5.973   2.829
  870W        W 5070  10.839   9.567  10.080
  871W        W 5071  10.002  10.082   1.656
  872W        W 5072   2.671   2.130   3.652
  873W        W 5073   5.561  11.461   3.223
  874W        W 5074  11.032  11.171   8.983
  875W        W 5075   7.962   1.820   1.903
  876W        W 5076   2.974   0.668   9.553
  877W        W 5077  10.887   9.150   9.758
  878W        W 5078   4.729   2.011   2.475
  879W        W 5079   5.480   7.183  11.879
  880W        W 5080   8.563   3.168  11.364
  881W        W 5081  10.007  10.008   9.256
  882W        W 5082   0.302   6.113   9.431
  883W        W 5083   4.112   1.605  11.937
  884W        W 5084   8.478   1.725   8.937
  885W        W 5085  10.476   9.861   0.284
  886W        W 5086   4.186   7.230  10.869
  887W        W 5087   5.529   9.901   2.468
  888W        W 5088   4.994   6.890  11.901
  889W        W 5089   5.012   4.441   1.286
  890W        W 5090   4.483  11.439   2.868
  891W        W 5091   7.178   7.373   2.597
  892W        W 5092  11.159  10.291   2.307
  893W        W 5093   0.526  10.002   1.858
  894W        W 5094   0.812   0.646   9.079
  895W        W 5095   5.655   0.890  11.662
  896W        W 5096   7.856  10.392   0.284
  897W        W 5097   6.836   7.470   1.691
  898W        W 5098   9.444   7.312   1.873
  899W        W 5099   6.479   3.236   9.593
  900W        W 5100   6.224   7.041   3.092
  901W        W 5101   6.189   3.538  10.271
  902W        W 5102   3.391   9.339   0.291
  903W        W 5103   3.864   1.653  10.957
  904W        W 5104   2.008   0.457   9.525
  905W        W 5105   1.917   1.592   2.682
  906W        W 5106   5.179   6.948   9.143
  907W        W 5107  10.593   5.011  10.310
  908W        W 5108   8.943   9.315   9.337
  909W        W 5109   1.429   3.116   9.770
  910W        W 5110   4.000   3.730   2.039
  911W        W 5111   5.886   7.489   9.324
  912W        W 5112   6.800   7.836   3.245
  913W        W 5113   6.425  10.015   2.934
  914W        W 5114   0.927   3.690   9.303
  915W        W 5115   5.628  10.292  11.030
  916W        W 5116   3.532   0.787  10.446
  917W        W 5117   7.130   6.911   9.986
  918W        W 5118   9.731  11.487  10.370
  919W        W 5119   4.961   8.316   0.248
  920W        W 5120   7.133   0.561   2.792
  921W        W 5121   0.343   7.337  10.311
  922W        W 5122   3.581  10.356   2.543
  923W        W 5123   6.942   7.382   9.801
  924W        W 5124   9.109   6.428   8.369
  925W        W 5125   3.914   9.830  11.548
  926W        W 5126  10.432   7.647  11.524
  927W        W 5127   9.909   6.679  10.741
  928W        W 5128   2.822   1.396   3.232
  929W        W 5129   2.981   9.816   9.496
  930W        W 5130   7.610   6.696   0.328
  931W        W 5131   9.375  10.613   0.372
  932W        W 5132   0.245   4.592   0.806
  933W        W 5133  11.070   2.671  10.768
  934W        W 5134   1.859  10.483   2.625
  935W        W 5135   2.466   0.698   1.617
  936W        W 5136   9.815   4.129  11.896
  937W        W 5137  10.022   3.669  11.107
  938W        W 5138   1.378   7.565   3.250
  939W        W 5139   5.049   3.647  10.072
  940W        W 5140   8.637  10.545   0.875
  941W        W 5141   1.893   8.367   1.512
  942W        W 5142   9.344   2.879   1.548
  943W        W 5143   9.315   5.695   8.482
  944W        W 5144   6.743   7.500   0.746
  945W        W 5145   3.137   7.491   0.219
  946W        W 5146   4.777   9.590   3.206
  947W        W 5147   4.486   1.205  11.457
  948W        W 5148   7.653   3.355   2.442
  949W        W 5149   3.132  10.368  11.818
  950W        W 5150   6.710   8.989   9.796
  951W        W 5151   0.330   2.620   9.995
  952W        W 5152   2.324   7.171   9.039
  953W        W 5153   6.238   3.764  11.447
  954W        W 5154   0.723   7.257   2.688
  955W        W 5155   3.621   9.409   0.736
  956W        W 5156   0.519   1.753   9.010
  957W        W 5157  11.429   0.026   8.882
  958W        W 5158   6.744   9.791   0.349
  959W        W 5159   5.893   7.316  11.621
  960W        W 5160   4.965   7.975  10.674
  961W        W 5161   3.323   2.175   9.177
  962W        W 5162   3.686   1.963  11.327
  963W        W 5163   7.284   3.094  10.109
  964W        W 5164   7.714   9.553   0.249
  965W        W 5165   9.991   4.957   9.228
  966W        W 5166   4.505  10.999   0.854
  967W        W 5167   9.789   2.388  11.306
  968W        W 5168  10.808   9.416   9.118
  969W        W 5169   5.279   5.012   0.437
  970W        W 5170   9.119   5.965  10.241
  971W        W 5171   6.109   9.472   2.981
  972W        W 5172  11.313   6.511  11.805
  973W        W 5173   1.000   0.270   9.574
  974W        W 5174   1.010   0.504  10.415
  975W        W 5175   7.324   7.926  10.427
  976W        W 5176   0.241   0.764   2.829
  977W        W 5177   6.155   7.579  11.268
  978W        W 5178   4.520   4.526   1.405
  979W        W 5179  10.358  10.816   2.017
  980W        W 5180   3.040   0.754   1.193
  981W        W 5181   8.642   4.730   1.723
  982W        W 5182   4.729   7.560  10.291
  983W        W 5183   8.622   4.990  11.939
  984W        W 5184   3.212   7.400  11.712
  985W        W 5185   7.326   2.278   1.783
  986W        W 5186   8.436   2.744   3.589
  987W        W 5187   5.613  10.843   9.496
  988W        W 5188  11.359   8.642  11.637
  989W        W 5189   8.959   4.511   8.206
  990W        W 5190   9.484   0.326   1.002
  991W        W 5191   6.921   5.499   0.126
  992W        W 5192   3.895   2.278   2.789
  993W        W 5193   8.085   6.558   1.351
  994W        W 5194   3.902   6.676   8.983
  995W        W 5195   5.252  11.445   9.682
  996W        W 5196   6.917   8.576   1.312
  997W        W 5197  10.851  10.111  11.920
  998W        W 5198   1.919   5.024  10.725
  999W        W 5199   4.306   8.165   1.395
 1000W        W 5200   0.904   5.061   2.634
 1001W        W 5201  10.388   8.989  11.876
 1002W        W 5202   2.674   1.200  10.317
 1003W        W 5203   8.907   2.773   1.811
 1004W        W 5204   7.779   9.109   2.657
 1005W        W 5205   7.102   3.113  10.599
 1006W        W 5206  11.027   5.693  11.880
 1007W        W 5207   2.749   3.120   9.883
 1008W        W 5208   3.996   0.825   1.666
 1009W        W 5209   7.271   8.990  11.234
 1010W        W 5210   7.607   3.607  10.928
 1011W        W 5211   2.721   4.107   1.587
 1012W        W 5212   1.383   3.982   3.356
 1013W        W 5213  10.908  10.607   1.731
 1014W        W 5214   0.829   6.040   2.338
 1015W        W 5215  10.179   8.085   8.847
 1016W        W 5216   3.712  10.442   1.984
 1017W        W 5217  10.785   2.358   9.278
 1018W        W 5218   0.540   0.479   9.483
 1019W        W 5219   6.242   0.241   3.151
 1020W        W 5220   5.268   7.243   2.787
 1021W        W 5221   9.473  10.617   3.200
 1022W        W 5222   0.058   5.930   3.610
 1023W        W 5223   6.001   9.927   3.237
 1024W        W 5224   5.200   6.512   9.625
 1025W        W 5225   6.706  10.946  10.307
 1026W        W 5226   7.938   2.241  10.266
 1027W        W 5227   0.189  10.920   1.778
 1028W        W 5228   9.075   5.094   8.112
 1029W        W 5229   5.693   3.951   0.309
 1030W        W 5230   0.833   2.756   3.179
 1031W        W 5231   1.351   2.486  10.394
 1032W        W 5232   9.112   2.041   9.462
 1033W        W 5233   6.867   8.127  10.696
 1034W        W 5234   2.974   8.046   0.001
 1035W        W 5235   4.075   0.133   2.265
 1036W        W 5236   9.408   3.715   8.981
 1037W        W 5237  10.787   6.588   0.119
 1038W        W 5238   8.271   4.592   0.724
 1039W        W 5239   0.926  11.132   8.999
 1040W        W 5240  10.971   9.728   8.743
 1041W        W 5241   8.879   7.677   3.209
 1042W        W 5242   0.892   1.991   8.647
 1043W        W 5243   5.915   1.307   1.233
 1044W        W 5244   5.744   5.779   2.527
 1045W        W 5245   7.441   8.578   9.634
 1046W        W 5246  11.225   0.737   2.567
 1047W        W 5247   9.026   8.999  10.742
 1048W        W 5248   5.545   4.513  11.234
 1049W        W 5249   2.902   0.399   0.786
 1050W        W 5250   4.181  10.085   8.735
 1051W        W 5251   3.208   6.739  10.781
 1052W        W 5252   0.429  11.465   8.693
 1053W        W 5253   7.021   0.892   1.882
 1054W        W 5254   5.956   0.137   3.543
 1055W        W 5255   1.634   7.249  10.166
 1056W        W 5256   4.743   8.617   8.605
 1057W        W 5257   3.527   0.270   3.235
 1058W        W 5258   3.225   5.757   1.542
 1059W        W 5259   7.280   6.110   1.444
 1060W        W 5260   6.209   2.233   1.248
 1061W        W 5261   3.638   8.533   3.139
 1062W        W 5262   7.613   9.727   2.313
 1063W        W 5263   4.828   9.631  10.256
 1064W        W 5264   5.500   7.588   1.250
 1065W        W 5265   7.479   5.008   9.435
 1066W        W 5266  11.382   0.806  10.015
 1067W        W 5267   3.408   9.575   3.237
 1068W        W 5268   5.598   7.495   1.727
 1069W        W 5269   2.827   4.556  11.168
 1070W        W 5270   9.830   1.865  11.334
 1071W        W 5271   0.198   1.327   8.905
 1072W        W 5272   9.543   3.100  11.068
 1073W        W 5273   1.440   3.890  10.451
 1074W        W 5274   4.285   4.168   0.625
 1075W        W 5275   5.655  10.362   2.266
 1076W        W 5276   9.120   3.214   2.583
 1077W        W 5277   5.828  11.105   1.736
 1078W        W 5278   1.214   2.790   3.510
 1079W        W 5279  10.914  11.321  10.814
 1080W        W 5280   7.648  11.319   2.168
 1081W        W 5281   7.085   1.083   2.729
 1082W        W 5282   2.559   4.360  11.567
 1083W        W 5283   0.976   4.567  10.830
 1084W        W 5284   2.137   1.504   8.415
 1085W        W 5285   7.263   2.226  11.932
 1086W        W 5286   0.785   3.731   1.260
 1087W        W 5287   9.780   9.467   1.966
 1088W        W 5288   7.743   3.894  11.356
 1089W        W 5289   6.448   7.465   3.219
 1090W        W 5290   8.565   5.166   0.464
 1091W        W 5291   4.705   9.145   3.579
 1092W        W 5292   4.326   6.421   9.533
 1093W        W 5293   4.206   4.134   1.176
 1094W        W 5294   8.087   5.169   3.915
 1095W        W 5295   7.138   3.935   9.480
 1096W        W 5296   2.856   1.276   9.275
 1097W        W 5297   5.527   3.259   3.062
 1098W        W 5298   6.967   0.976   9.360
 1099W        W 5299   7.997   9.422   3.013
 1100W        W 5300   4.502   6.502   9.998
 1101W        W 5301   5.189   2.375   1.501
 1102W        W 5302   4.535   6.546  11.489
 1103W        W 5303   7.742   7.555   0.799
 1104W        W 5304   5.406  10.388   0.324
 1105W        W 5305  10.944   2.275  11.992
 1106W        W 5306   5.076   2.053  10.412
 1107W        W 5307   4.645   5.625  11.006
 1108W        W 5308   2.896   0.875   2.609
 1109W        W 5309   1.189   0.445   0.205
 1110W        W 5310  10.494   0.800   1.885
 1111W        W 5311   6.076   7.887  10.524
 1112W        W 5312   5.159   4.449   3.546
 1113W        W 5313   0.444   6.229   8.874
 1114W        W 5314   3.804   4.059   0.821
 1115W        W 5315   4.921   2.728   8.936
 1116W        W 5316   3.314   9.139  10.565
 1117W        W 5317   6.629   9.079  11.720
 1118W        W 5318   5.696   3.130  11.767
 1119W        W 5319   5.067   4.636   2.223
 1120W        W 5320   5.298   6.150   9.986
 1121W        W 5321   4.560   5.114  10.731
 1122W        W 5322   5.236   0.299   1.672
 1123W        W 5323   2.612  10.909   1.581
 1124W        W 5324   1.806   7.815  10.920
 1125W        W 5325   3.634   0.739   0.205
 1126W        W 5326   9.335   0.372  11.950
 1127W        W 5327   4.947   0.247   8.880
 1128W        W 5328   8.164   8.928  11.231
 1129W        W 5329   7.460   0.152  11.963
 1130W        W 5330  10.355  10.397   3.088
 1131W        W 5331   0.612   8.790   1.289
 1132W        W 5332   7.535   9.374   3.298
 1133W        W 5333   0.501   8.153   2.188
 1134W        W 5334  10.450   6.943   1.861
 1135W        W 5335   6.458   0.093  11.918
 1136W        W 5336   5.797   7.497   2.193
 1137W        W 5337   6.965   6.515  11.778
 1138W        W 5338   9.872   8.071   1.284
 1139W        W 5339   6.047   9.704   9.103
 1140W        W 5340   7.273  10.921   3.394
 1141W        W 5341   5.243  11.273   0.436
 1142W        W 5342   4.509  11.486  10.629
 1143W        W 5343  10.464   1.003   8.814
 1144W        W 5344   6.224   2.986   1.703
 1145W        W 5345  11.338   2.674   1.399
 1146W        W 5346   0.918   7.027   0.039
 1147W        W 5347   9.576  10.767   2.721
 1148W        W 5348  10.863   1.121  10.185
 1149W        W 5349   3.475   0.814   1.693
 1150W        W 5350   8.842   2.431   0.911
 1151W        W 5351   8.474  10.247   1.289
 1152W        W 5352   0.982   7.113   9.252
 1153W        W 5353   7.442   1.044   0.795
 1154W        W 5354   6.637   7.623   0.273
 1155W        W 5355   5.100   9.921  11.754
 1156W        W 5356  11.052   3.204   1.320
 1157W        W 5357   1.402   1.471  10.645
 1158W        W 5358   5.136   1.676   2.257
 1159W        W 5359   0.183   6.504   0.537
 1160W        W 5360   0.354   6.678  11.535
 1161W        W 5361   4.801   3.352  11.445
 1162W        W 5362   4.797  11.318  11.532
 1163W        W 5363   7.956   4.517   2.042
 1164W        W 5364   5.188   0.884   2.468
 1165W        W 5365   9.776   0.911   1.102
 1166W        W 5366   8.784   3.594   8.653
 1167W        W 5367   4.109   2.362   9.810
 1168W        W 5368   2.468   1.878   0.959
 1169W        W 5369   0.506  10.897   3.376
 1170W        W 5370   0.108   8.236  10.359
 1171W        W 5371   2.315   9.649   8.927
 1172W        W 5372   5.038   5.684   1.348
 1173W        W 5373   9.310   4.247   9.037
 1174W        W 5374  11.287   5.227   0.528
 1175W        W 5375   1.747   1.068   8.835
 1176W        W 5376   3.583   7.240   1.019
 1177W        W 5377   3.636   4.948   9.425
 1178W        W 5378   7.381  10.895   1.267
 1179W        W 5379   3.112   1.156  11.083
 1180W        W 5380   9.890   9.020  11.097
 1181W        W 5381   3.455   7.466   9.803
 1182W        W 5382  11.238   1.856  11.905
 1183W        W 5383  11.487   1.288   9.813
 1184W        W 5384   7.984   4.667   1.242
 1185W        W 5385   7.892  10.678  10.502
 1186W        W 5386  10.015   5.220   2.931
 1187W        W 5387   7.481   4.099  10.946
 1188W        W 5388   0.073   0.844  11.749
 1189W        W 5389   5.843   1.321  11.852
 1190W        W 5390   2.781   4.053  10.992
 1191W        W 5391   6.789   8.255  11.637
 1192W        W 5392   9.223   1.127  10.451
 1193W        W 5393   4.828   0.148   9.875
 1194W        W 5394   8.063   5.192   1.399
 1195W        W 5395   5.022  10.932   1.812
 1196W        W 5396   8.305  10.975   0.937
 1197W        W 5397  10.261   8.948   0.996
 1198W        W 5398  11.250   5.045   3.411
 1199W        W 5399   1.786   5.251   8.994
 1200W        W 5400   2.556   8.001   0.946
 1201W        W 5401   6.151   6.681   3.775
 1202W        W 5402   7.037   5.655   1.439
 1203W        W 5403   8.709   4.066   2.283
 1204W        W 5404   0.027   1.861   9.109
 1205W        W 5405   9.083   2.337   2.970
 1206W        W 5406   1.422   1.758   0.171
 1207W        W 5407   1.740   2.363   1.773
 1208W        W 5408   0.829   9.796   9.887
 1209W        W 5409   6.939   9.898  10.916
 1210W        W 5410   4.512   4.743   8.333
 1211W        W 5411   7.912   8.899  10.396
 1212W        W 5412   4.540   3.824   0.890
 1213W        W 5413   8.978   9.867  10.615
 1214W        W 5414   1.981   7.548  11.335
 1215W        W 5415   6.054   3.635   4.121
 1216W        W 5416   0.001   0.405  10.376
 1217W        W 5417   8.016  10.770  11.542
 1218W        W 5418   5.879   3.187   1.381
 1219W        W 5419   2.267   4.068  10.579
 1220W        W 5420   0.677   8.724   9.030
 1221W        W 5421   6.263   4.532   9.404
 1222W        W 5422  11.372   9.800   1.599
 1223W        W 5423   1.823  10.100  11.577
 1224W        W 5424   0.903   1.922   9.339
 1225W        W 5425   8.462   9.495   2.815
 1226W        W 5426   5.464   0.882   9.591
 1227W        W 5427   5.435   3.177   1.146
 1228W        W 5428   9.285   2.088   0.422
 1229W        W 5429   5.748   9.005   2.026
 1230W        W 5430  10.022   9.920   2.677
 1231W        W 5431   6.585   4.225   3.128
 1232W        W 5432   9.952   9.826   1.192
 1233W        W 5433   9.131   0.622  10.395
 1234W        W 5434   3.768   8.022  10.000
 1235W        W 5435   8.787   2.195   0.313
 1236W        W 5436   9.077   9.480   1.380
 1237W        W 5437   1.811   2.894  10.100
 1238W        W 5438   8.956   7.216   9.972
 1239W        W 5439   5.627   9.535   8.861
 1240W        W 5440   3.129   2.373  10.123
 1241W        W 5441   1.273   4.682   0.126
 1242W        W 5442  11.499   1.894   1.959
 1243W        W 5443   9.482   5.171   9.064
 1244W        W 5444  11.193  11.263   0.549
 1245W        W 5445   2.579  10.757   9.561
 1246W        W 5446   8.527   9.536   0.780
 1247W        W 5447   3.868   0.409   9.682
 1248W        W 5448   5.800   4.701  11.648
 1249W        W 5449   0.824   0.073   0.329
 1250W        W 5450   7.209   2.307   9.345
 1251W        W 5451   2.581   2.307   0.406
 1252W        W 5452   3.188   1.747   2.539
 1253W        W 5453  10.873   7.986  11.589
 1254W        W 5454   8.486   1.786   1.880
 1255W        W 5455   9.362   7.594   3.103
 1256W        W 5456   8.607   5.784  11.838
 1257W        W 5457   5.613   2.161  10.928
 1258W        W 5458   2.155   6.581   8.517
 1259W        W 5459  10.829   4.178   9.133
 1260W        W 5460   4.812  10.322   9.155
 1261W        W 5461   3.376   6.078  10.214
 1262W        W 5462  11.336   2.417   2.705
 1263W        W 5463   1.093   1.806  10.318
 1264W        W 5464   8.907   9.956   2.049
 1265W        W 5465   3.247   1.611   9.631
 1266W        W 5466   0.782  10.680   8.781
 1267W        W 5467  10.523   1.420  11.005
 1268W        W 5468  11.359   8.810  11.147
 1269W        W 5469   8.770   3.208   3.550
 1270W        W 5470   2.133  11.333   1.328
 1271W        W 5471   3.475  11.160   2.575
 1272W        W 5472   5.995   4.237  11.474
 1273W        W 5473   2.294   9.013   0.985
 1274W        W 5474   0.885   0.458   2.654
 1275W        W 5475   7.620  11.087   2.646
 1276W        W 5476   3.778   8.208   8.728
 1277W        W 5477   6.097   6.544   0.258
 1278W        W 5478  11.369   7.418  11.956
 1279W        W 5479   1.564   4.408   8.964
 1280W        W 5480   5.512  11.387   2.697
 1281W        W 5481  11.457   7.589   1.135
 1282W        W 5482   6.214   4.814   0.777
 1283W        W 5483   4.651   3.569  10.960
 1284W        W 5484   8.512   2.457   1.323
 1285W        W 5485   1.949  10.874  10.932
 1286W        W 5486   7.723   4.404   3.264
 1287W        W 5487   6.662   8.387   8.978
 1288W        W 5488   7.674   2.205   2.665
 1289W        W 5489   1.640   7.139  11.480
 1290W        W 5490   7.096   1.890  11.276
 1291W        W 5491   5.550   6.626   2.667
 1292W        W 5492   9.004   3.334   1.090
 1293W        W 5493   9.428   7.465   0.434
 1294W        W 5494   8.131   2.953   0.023
 1295W        W 5495   0.522   7.138  11.741
 1296W        W 5496  11.051  10.957   2.653
 1297W        W 5497   5.088   2.256   3.509
 1298W        W 5498   1.114   2.441  11.664
 1299W        W 5499   9.907   9.474   2.457
 1300W        W 5500   0.904   8.259   8.439
 1301W        W 5501   9.170   4.192   2.112
 1302W        W 5502   6.073  10.358   1.952
 1303W        W 5503   5.648   4.169   3.518
 1304W        W 5504   3.746   9.784   8.840
 1305W        W 5505  10.995  10.988  10.420
 1306W        W 5506   3.760   9.833  10.616
 1307W        W 5507   2.541   7.516   1.137
 1308W        W 5508  10.896  10.024   0.889
 1309W        W 5509   1.031   3.595   1.916
 1310W        W 5510   2.133   0.847   9.888
 1311W        W 5511   7.032   1.329   0.842
 1312W        W 5512   6.657   4.317  11.691
 1313W        W 5513  10.914   8.534   1.872
 1314W        W 5514   1.038   0.823  10.854
 1315W        W 5515   3.577  11.239  10.375
 1316W        W 5516   9.358   1.051   2.579
 1317W        W 5517   9.534   2.446   0.106
 1318W        W 5518   1.736  10.805   0.119
 1319W        W 5519  10.042   6.104  11.948
 1320W        W 5520   6.527   4.636   1.141
 1321W        W 5521   2.797   7.394   9.010
 1322W        W 5522   8.923  11.368   3.265
 1323W        W 5523  10.949  10.011   3.648
 1324W        W 5524   1.077   5.645   3.332
 1325W        W 5525   2.402   7.930   1.455
 1326W        W 5526   0.418   3.167   2.804
 1327W        W 5527   6.397   6.622   0.653
 1328W        W 5528   3.343  10.087   3.275
 1329W        W 5529   3.720   0.504   1.374
 1330W        W 5530   2.556   1.105   9.694
 1331W        W 5531   3.344   7.160   0.542
 1332W        W 5532  11.041   1.636   9.333
 1333W        W 5533   2.612   3.497  11.818
 1334W        W 5534   5.746   5.067   1.340
 1335W        W 5535   6.144   2.870  11.805
 1336W        W 5536   6.039   1.314  10.296
 1337W        W 5537   4.600   7.960  11.539
 1338W        W 5538  11.327   9.311   9.097
 1339W        W 5539  11.336   9.789   0.694
 1340W        W 5540   7.485   6.888   9.418
 1341W        W 5541   3.345  10.620   9.125
 1342W        W 5542   2.231   6.917   2.279
 1343W        W 5543   8.742   4.687  10.597
 1344W        W 5544   8.973   3.252   3.074
 1345W        W 5545   7.518   6.954   2.634
 1346W        W 5546   9.087   6.483   0.935
 1347W        W 5547   5.334   0.059   9.177
 1348W        W 5548   0.889   9.836  11.812
 1349W        W 5549  10.706  11.088   1.764
 1350W        W 5550   5.762  10.451   2.782
 1351W        W 5551   3.931   1.665   2.118
 1352W        W 5552   3.226   4.648  11.839
 1353W        W 5553   7.080   9.499   3.035
 1354W        W 5554   4.013   1.289  10.651
 1355W        W 5555   3.583  10.724  10.342
 1356W        W 5556   5.554   4.011  11.365
 1357W        W 5557   6.951   9.010   1.079
 1358W        W 5558   8.926   1.410  10.142
 1359W        W 5559   1.911   3.777  10.280
 1360W        W 5560   0.310   4.958   9.498
 1361W        W 5561   3.346   7.657  11.290
 1362W        W 5562   6.531   2.590   1.850
 1363W        W 5563   4.187  11.323   9.441
 1364W        W 5564   1.310   4.478   3.404
 1365W        W 5565   4.122   8.202   2.269
 1366W        W 5566   5.639   1.204  10.898
 1367W        W 5567   1.886   7.052   9.764
 1368W        W 5568   1.793   3.586  11.743
 1369W        W 5569   3.125   8.686   1.319
 1370W        W 5570   8.221   7.702   0.853
 1371W        W 5571   4.617   1.810   9.404
 1372W        W 5572   7.750   1.433   2.176
 1373W        W 5573   7.652   1.405   9.244
 1374W        W 5574   9.312   0.439   8.195
 1375W        W 5575   3.465   2.527   3.540
 1376W        W 5576   2.971   9.636   1.692
 1377W        W 5577   1.282   0.289  10.042
 1378W        W 5578   3.974   4.039  10.562
 1379W        W 5579   2.264   5.302   1.176
 1380W        W 5580   5.120   3.633   3.950
 1381W        W 5581   3.729   8.796  11.107
 1382W        W 5582   7.107   8.930   9.457
 1383W        W 5583   9.046  10.351   9.316
 1384W        W 5584   6.600   1.414   3.374
 1385W        W 5585   2.183   9.943   3.099
 1386W        W 5586   4.131   6.231  10.814
 1387W        W 5587   4.133   9.382   0.762
 1388W        W 5588   4.740  11.405   2.189
 1389W        W 5589   1.422   1.129  11.036
 1390W        W 5590   2.628  11.162  11.753
 1391W        W 5591   8.475   1.019   1.100
 1392W        W 5592   5.088   3.272  11.025
 1393W        W 5593   9.397   0.752   3.006
 1394W        W 5594   3.214   2.677   2.779
 1395W        W 5595  11.220   2.119   3.457
 1396W        W 5596   8.546   9.586   3.620
 1397W        W 5597   5.999   7.295   8.640
 1398W        W 5598   3.071   2.344   0.469
 1399W        W 5599   3.611  10.598  11.750
 1400W        W 5600   2.329   4.117   0.866
 1401W        W 5601   8.400   0.739  10.701
 1402W        W 5602  10.304  10.492   9.753
 1403W        W 5603   2.797   7.834   0.455
 1404W        W 5604   8.393   8.858   8.580
 1405W        W 5605   8.189   6.006   8.292
 1406W        W 5606   5.602  10.273   1.730
 1407W        W 5607   6.624   8.067   0.696
 1408W        W 5608   5.699   2.335   8.724
 1409W        W 5609   3.455   1.918   2.152
 1410W        W 5610   3.322   5.713  10.577
 1411W        W 5611  11.340   2.747   3.501
 1412W        W 5612   6.062   2.776   3.729
 1413W        W 5613   6.244  10.511   1.503
 1414W        W 5614   9.694   1.396  11.112
 1415W        W 5615  10.417   0.696   0.476
 1416W        W 5616   2.589   5.655   2.619
 1417W        W 5617   6.066   8.841   2.822
 1418W        W 5618   5.578   8.638   9.924
 1419W        W 5619  10.958   9.852   0.385
 1420W        W 5620   6.562   4.343   8.970
 1421W        W 5621   8.673   8.101   0.046
 1422W        W 5622   7.435   4.321  10.290
 1423W        W 5623   4.634   5.636  10.488
 1424W        W 5624   8.775   4.795   0.807
 1425W        W 5625   4.947   9.568   3.673
 1426W        W 5626   2.402   7.050   1.426
 1427W        W 5627   9.972   2.808  11.081
 1428W        W 5628   1.362   1.666   9.336
 1429W        W 5629   9.701   9.241   0.469
 1430W        W 5630  10.421   1.656   0.218
 1431W        W 5631   4.057   4.636   9.370
 1432W        W 5632   2.257   6.354   9.326
 1433W        W 5633   9.534   6.502   9.097
 1434W        W 5634   7.764   9.378  10.300
 1435W        W 5635   2.422   8.182   1.904
 1436W        W 5636   8.073   8.615   8.936
 1437W        W 5637   9.732   2.061   0.708
 1438W        W 5638   9.009   7.501  11.503
 1439W        W 5639   8.476   4.719   2.671
 1440W        W 5640   8.597   6.510   9.685
 1441W        W 5641   1.689  10.995   1.821
 1442W        W 5642   8.165   6.448   9.401
 1443W        W 5643  11.319   6.043   3.163
 1444W        W 5644   8.048   0.265  11.333
 1445W        W 5645   7.547   7.175   0.516
 1446W        W 5646   0.337   5.841   2.258
 1447W        W 5647   5.287  10.820  10.231
 1448W        W 5648   7.400   7.773   2.289
 1449W        W 5649   6.066   2.004   8.909
 1450W        W 5650   6.274   5.966  10.130
 1451W        W 5651   8.714   4.060   3.344
 1452W        W 5652   5.589   9.302  11.329
 1453W        W 5653   7.256   9.755   0.038
 1454W        W 5654   8.658   3.752   0.396
 1455W        W 5655   8.868  11.187  11.895
 1456W        W 5656   4.999  11.164   0.890
 1457W        W 5657   4.851   3.197   9.145
 1458W        W 5658   1.950   4.766   8.922
 1459W        W 5659   5.424   6.602  10.369
 1460W        W 5660   1.217   1.224   0.045
 1461W        W 5661   6.239   7.943   0.211
 1462W        W 5662   9.778   8.609   0.593
 1463W        W 5663  10.783   2.782   1.188
 1464W        W 5664   0.292  10.354  11.366
 1465W        W 5665   6.011   0.876   0.062
 1466W        W 5666   1.304   9.051  11.639
 1467W        W 5667   2.279   1.465  10.600
 1468W        W 5668   2.131   9.356   9.358
 1469W        W 5669   5.222   9.303   3.253
 1470W        W 5670   6.503   9.478   2.341
 1471W        W 5671   5.958   5.502  10.362
 1472W        W 5672   8.459   3.116   3.143
 1473W        W 5673   3.924   0.322  10.929
 1474W        W 5674   7.246   5.143   9.965
 1475W        W 5675   7.585   5.822  11.325
 1476W        W 5676   2.954   1.310   0.434
 1477W        W 5677   8.388   9.768   1.222
 1478W        W 5678  10.716   5.274  11.761
 1479W        W 5679   3.139   4.603   3.550
 1480W        W 5680   0.565   0.782  11.750
 1481W        W 5681   8.622   6.970  10.257
 1482W        W 5682   0.692   8.151  10.051
 1483W        W 5683   0.328   0.762  11.289
 1484W        W 5684   5.998   9.012   1.091
 1485W        W 5685   4.809   0.353   1.942
 1486W        W 5686   2.851   0.463   8.953
 1487W        W 5687   7.751   3.071   2.889
 1488W        W 5688   9.118   3.364   9.409
 1489W        W 5689   2.887   4.148   3.525
 1490W        W 5690   1.735   2.744  10.607
 1491W        W 5691  10.910   9.892   9.246
 1492W        W 5692   0.303   7.646  10.857
 1493W        W 5693   9.157   6.174   2.253
 1494W        W 5694   7.255   5.622  11.736
 1495W        W 5695   5.938   5.158  11.424
 1496W        W 5696   1.443   6.186   1.608
 1497W        W 5697   1.853   6.124   1.291
 1498W        W 5698  10.925   4.083   0.634
 1499W        W 5699   9.484   5.925   9.862
 1500W        W 5700   2.583   5.262  11.820
 1501W        W 5701   7.949   1.235   3.153
 1502W        W 5702   2.390   0.956  11.926
 1503W        W 5703   6.138   1.276  10.796
 1504W        W 5704   5.216   1.558  10.574
 1505W        W 5705   0.055   0.322   9.477
 1506W        W 5706   0.430   8.430   0.886
 1507W        W 5707   2.105   4.044  11.409
 1508W        W 5708   2.876   0.326   9.928
 1509W        W 5709   0.279   5.582   2.706
 1510W        W 5710   6.467   2.004  11.776
 1511W        W 5711   4.183   2.474  11.912
 1512W        W 5712   3.547   2.068   9.996
 1513W        W 5713   1.023   2.070   0.055
 1514W        W 5714   6.554   8.164   9.460
 1515W        W 5715   0.135  10.438   2.417
 1516W        W 5716   1.347   4.008   1.923
 1517W        W 5717   4.322  11.017   8.985
 1518W        W 5718  10.961   6.715   9.717
 1519W        W 5719   1.638  10.401   3.547
 1520W        W 5720   2.518   5.774  10.028
 1521W        W 5721   4.559   2.296   3.504
 1522W        W 5722   3.310   4.987  10.057
 1523W        W 5723   2.132   4.575  11.411
 1524W        W 5724  11.335   3.335  10.591
 1525W        W 5725   1.669   7.461   1.714
 1526W        W 5726   6.581   0.750   8.880
 1527W        W 5727   7.850   9.891  11.338
 1528W        W 5728  10.662   4.307  11.819
 1529W        W 5729   6.817   0.982  11.514
 1530W        W 5730   3.192   9.764   0.487
 1531W        W 5731   3.732   2.779   1.171
 1532W        W 5732   7.342   5.595  10.840
 1533W        W 5733   7.174   4.814  11.125
 1534W        W 5734   8.538   8.620   4.114
 1535W        W 5735   7.961   5.742  10.056
 1536W        W 5736  10.539   5.989   2.750
 1537W        W 5737   6.445   4.706  10.208
 1538W        W 5738   2.437   0.449   8.631
 1539W        W 5739   3.328   2.726  10.447
 1540W        W 5740   5.670   1.818   8.599
 1541W        W 5741   5.809   6.054   1.250
 1542W        W 5742   1.823   7.436   9.032
 1543W        W 5743   9.923   9.775  11.767
 1544W        W 5744   1.521   3.335   2.677
 1545W        W 5745   7.715   0.066   0.394
 1546W        W 5746   8.531  11.373   2.088
 1547W        W 5747   5.176   3.956   3.576
 1548W        W 5748   3.823   8.504   0.722
 1549W        W 5749   7.965   1.451   2.673
 1550W        W 5750   3.848   0.731   0.905
 1551W        W 5751   8.144   8.477   2.368
 1552W        W 5752  10.506   2.376   2.965
 1553W        W 5753   2.183   8.101   9.967
 1554W        W 5754  10.948   7.197  10.988
 1555W        W 5755   4.589   3.310   8.714
 1556W        W 5756   5.179   3.325   8.756
 1557W        W 5757   3.922   1.328   1.714
 1558W        W 5758  11.074   0.325   2.881
 1559W        W 5759  10.555   5.227   2.242
 1560W        W 5760   7.191   5.270  10.483
 1561W        W 5761   4.854   3.619   2.400
 1562W        W 5762   8.932   1.979   8.959
 1563W        W 5763   8.556   3.373   0.798
 1564W        W 5764   5.720   2.617  11.963
 1565W        W 5765   4.596  10.786   9.382
 1566W        W 5766   0.919   4.780  10.342
 1567W        W 5767   2.817   1.436   2.735
 1568W        W 5768   5.257   5.063   2.024
 1569W        W 5769   3.308   7.477   8.961
 1570W        W 5770   5.600   2.718   1.387
 1571W        W 5771   4.228   0.791   9.037
 1572W        W 5772   5.561   5.043  10.707
 1573W        W 5773  10.342   4.711  10.806
 1574W        W 5774  10.909   9.834   2.204
 1575W        W 5775   7.952   6.554   2.290
 1576W        W 5776   0.381   5.633   1.046
 1577W        W 5777   8.612   0.744   9.863
 1578W        W 5778  10.499   2.361  11.047
 1579W        W 5779   8.020   7.888   1.784
 1580W        W 5780   5.469   3.767   0.756
 1581W        W 5781   9.097   8.403   0.039
 1582W        W 5782   9.721   5.164   9.937
 1583W        W 5783   9.924   9.093   9.566
 1584W        W 5784  11.285   7.215   0.832
 1585W        W 5785   4.709  10.737  10.963
 1586W        W 5786   9.490  10.111   0.359
 1587W        W 5787   0.725   0.638   0.226
 1588W        W 5788   2.781   6.659   1.778
 1589W        W 5789   3.140   0.447  10.493
 1590W        W 5790   4.804   5.194   0.513
 1591W        W 5791   0.561   4.450   9.804
 1592W        W 5792   1.511   1.887   1.126
 1593W        W 5793   4.055   2.623   9.045
 1594W        W 5794   4.415   6.632   9.084
 1595W        W 5795   9.482   0.079   9.934
 1596W        W 5796  10.559   8.539   0.829
 1597W        W 5797  10.816   2.705   0.687
 1598W        W 5798   0.954  11.091   3.206
 1599W        W 5799   9.030  11.375   2.237
 1600W        W 5800  10.418   3.793  10.826
 1601W        W 5801   1.730   7.281  10.673
 1602W        W 5802   0.802  11.485   2.449
 1603W        W 5803   3.995   1.098   1.226
 1604W        W 5804   0.137   4.564   9.200
 1605W        W 5805  11.350  10.815   1.337
 1606W        W 5806   1.202   8.583  11.444
 1607W        W 5807   1.798   3.315   8.964
 1608W        W 5808   4.338   2.244  10.521
 1609W        W 5809   0.708   3.263   3.195
 1610W        W 5810   2.999   9.514   2.929
 1611W        W 5811   7.578   7.219  11.987
 1612W        W 5812   1.641   0.160  10.753
 1613W        W 5813   7.403   9.860  11.562
 1614W        W 5814  11.264   4.614  11.414
 1615W        W 5815  11.065   2.038   8.974
 1616W        W 5816   8.595   6.470  10.261
 1617W        W 5817   0.299  10.948  12.000
 1618W        W 5818   2.702   6.682   4.086
 1619W        W 5819   4.650   7.047  11.559
 1620W        W 5820   9.865   1.233   1.700
 1621W        W 5821   5.324   1.316   2.660
 1622W        W 5822   1.750   4.915   1.862
 1623W        W 5823   3.922   9.970   2.677
 1624W        W 5824   8.860   2.816   2.323
 1625W        W 5825   4.460   8.248   9.053
 1626W        W 5826   6.753   3.600   9.374
 1627W        W 5827   9.821   6.985   9.070
 1628W        W 5828   4.517   2.659   9.237
 1629W        W 5829   8.603   8.822   2.471
 1630W        W 5830   2.207   0.977  10.365
 1631W        W 5831   2.500   4.518   0.590
 1632W        W 5832   6.045   7.971   9.524
 1633W        W 5833   1.539   1.317   2.256
 1634W        W 5834   4.378   1.530   1.853
 1635W        W 5835   1.462   8.644   1.493
 1636W        W 5836   2.861   2.348  11.625
 1637W        W 5837   8.407   1.336   3.417
 1638W        W 5838   5.034   7.189   9.587
 1639W        W 5839   2.573   3.587   2.495
 1640W        W 5840  10.306   7.923   0.415
 1641W        W 5841   3.831   5.989   0.483
 1642W        W 5842   3.835   0.835  10.861
 1643W        W 5843   5.434   3.351   1.630
 1644W        W 5844   7.243   3.764  11.281
 1645W        W 5845   3.536   0.826   3.270
 1646W        W 5846   2.212   1.761  11.034
 1647W        W 5847   2.251   5.220   0.212
 1648W        W 5848   0.029   4.243  10.242
 1649W        W 5849   2.787   5.133   2.600
 1650W        W 5850   7.986   5.072   9.533
 1651W        W 5851   2.862   9.807   0.902
 1652W        W 5852   4.046   9.854   0.045
 1653W        W 5853   9.099   3.955  11.256
 1654W        W 5854  10.743  10.804   9.133
 1655W        W 5855  11.469   0.064   3.560
 1656W        W 5856   0.540   7.542   0.268
 1657W        W 5857   4.720   2.091  10.797
 1658W        W 5858   8.033   3.178   1.173
 1659W        W 5859   9.152   6.200   2.767
 1660W        W 5860   1.591   8.222   8.799
 1661W        W 5861  10.927   5.773   9.956
 1662W        W 5862   5.482   0.289   0.476
 1663W        W 5863   2.181   8.133   2.804
 1664W        W 5864   0.372  11.274   3.708
 1665W        W 5865   1.087   2.255   2.424
 1666W        W 5866   8.010   7.557   2.162
 1667W        W 5867   9.177   1.961   2.647
 1668W        W 5868   2.333   5.566  11.442
 1669W        W 5869   6.325   8.313  10.329
 1670W        W 5870   8.081   7.996  11.569
 1671W        W 5871   0.201   4.201   3.369
 1672W        W 5872  11.445   5.219   2.821
 1673W        W 5873   2.946  10.204   0.459
 1674W        W 5874   6.107   3.090   2.412
 1675W        W 5875   2.110   4.803   2.817
 1676W        W 5876   9.013  11.157  11.351
 1677W        W 5877   4.788  10.062   2.971
 1678W        W 5878   8.377   7.631  10.745
 1679W        W 5879   4.766   9.449   9.770
 1680W        W 5880   8.093   0.644  11.670
 1681W        W 5881   1.678   9.548   9.629
 1682W        W 5882   7.541   2.005   3.509
 1683W        W 5883   8.931   1.435   8.802
 1684W        W 5884   1.993   7.588   9.916
 1685W        W 5885  11.447  10.947  10.672
 1686W        W 5886   0.202   0.303  11.026
 1687W        W 5887   4.267  10.494   9.054
 1688W        W 5888   6.598   4.377   8.449
 1689W        W 5889   8.593  11.402  11.471
 1690W        W 5890   4.728   2.401   8.504
 1691W        W 5891   9.418   4.114   3.151
 1692W        W 5892   9.006   8.781   9.390
 1693W        W 5893   2.079   7.206   1.882
 1694W        W 5894   9.568   2.593  10.867
 1695W        W 5895   3.258   2.917   1.342
 1696W        W 5896   7.092   1.821   9.462
 1697W        W 5897   3.554   3.845  11.810
 1698W        W 5898  11.075   4.972  10.563
 1699W        W 5899   8.944   9.084   3.415
 1700W        W 5900  11.220   9.360   2.455
 1701W        W 5901   4.255   2.480   3.145
 1702W        W 5902   0.333   7.562   0.792
 1703W        W 5903   3.068   6.204   9.379
 1704W        W 5904   1.291   0.316  11.720
 1705W        W 5905  10.432   9.383   1.231
 1706W        W 5906   9.070   3.764  10.784
 1707W        W 5907   5.980   2.315  10.127
 1708W        W 5908  11.302   3.318  10.084
 1709W        W 5909   8.807   7.106   2.577
 1710W        W 5910   8.395   9.886  11.317
 1711W        W 5911   2.796  11.374   0.707
 1712W        W 5912   7.483   2.665   2.691
 1713W        W 5913  10.471   9.538   8.748
 1714W        W 5914   4.572   8.683   3.362
 1715W        W 5915   0.230   1.872   3.266
 1716W        W 5916   2.347   2.829   1.330
 1717W        W 5917   6.119   9.324  11.029
 1718W        W 5918   7.345   7.778   1.416
 1719W        W 5919   6.123   0.557   8.669
 1720W        W 5920   6.462  10.893   8.829
 1721W        W 5921   7.951   0.466   8.808
 1722W        W 5922   7.211   7.345   9.372
 1723W        W 5923   6.006   7.487   0.284
 1724W        W 5924   1.730   7.380   2.967
 1725W        W 5925  10.460   3.125   2.340
 1726W        W 5926   1.365   9.761   3.796
 1727W        W 5927  10.679   6.971   1.389
 1728W        W 5928   8.397   6.897   9.307
 1729W        W 5929   7.053  10.023   9.082
 1730W        W 5930   4.461   8.187   3.264
 1731W        W 5931   4.572   7.096  10.479
 1732W        W 5932   2.857   9.507  10.903
 1733W        W 5933   3.093   9.951  11.095
 1734W        W 5934   8.129   6.719  10.378
 1735W        W 5935  11.302   1.415   1.816
 1736W        W 5936   4.243   7.584   3.133
 1737W        W 5937   2.132   7.134   0.994
 1738W        W 5938   0.363   1.287   9.388
 1739W        W 5939  11.060  11.243   1.244
 1740W        W 5940   4.488   5.330   0.917
 1741W        W 5941   5.231   7.818   1.635
 1742W        W 5942   9.790   5.378   9.442
 1743W        W 5943   9.057   4.817   8.596
 1744W        W 5944  11.326   5.401  10.382
 1745W        W 5945  10.727   0.624   2.556
 1746W        W 5946   8.249   1.474   2.199
 1747W        W 5947   9.593   7.189  11.766
 1748W        W 5948   1.730   0.569  11.509
 1749W        W 5949   8.506   0.332   2.299
 1750W        W 5950  10.979   7.221   3.156
 1751W        W 5951  10.874   9.113   2.720
 1752W        W 5952   1.718   2.669  11.134
 1753W        W 5953   2.594   7.238   2.784
 1754W        W 5954   6.519   0.172   0.968
 1755W        W 5955   8.554   1.062   1.625
 1756W        W 5956   7.065   8.922  10.768
 1757W        W 5957   8.990   7.434   9.051
 1758W        W 5958   4.901   3.251   3.651
 1759W        W 5959   0.320   8.635  11.883
 1760W        W 5960   5.702   2.774   2.376
 1761W        W 5961  11.406   6.036   0.551
 1762W        W 5962   1.434   2.700   2.494
 1763W        W 5963   1.447   7.205   8.537
 1764W        W 5964   7.253   3.248  11.069
 1765W        W 5965  10.831   7.471  11.823
 1766W        W 5966   6.667   0.583   0.699
 1767W        W 5967   4.397   2.026  11.933
 1768W        W 5968  10.123   6.845  10.313
 1769W        W 5969   1.709  11.296  11.954
 1770W        W 5970   2.156   5.614   0.523
 1771W        W 5971   3.093  11.424  10.125
 1772W        W 5972   3.184   6.505   1.155
 1773W        W 5973  10.885   3.791   3.149
 1774W        W 5974   3.692   9.785   0.389
 1775W        W 5975   3.473   3.704   2.092
 1776W        W 5976   3.375  11.190  11.528
 1777W        W 5977   3.099   4.440   1.846
 1778W        W 5978   3.605   4.799   0.187
 1779W        W 5979   2.936   4.259   0.457
 1780W        W 5980   2.482  11.420   1.687
 1781W        W 5981   8.277   3.133   2.197
 1782W        W 5982   6.276  10.914   1.834
 1783W        W 5983   3.262  11.011   2.046
 1784W        W 5984   0.951   3.267   9.972
 1785W        W 5985   8.012  10.482  10.052
 1786W        W 5986   7.399   8.996  10.375
 1787W        W 5987   8.167   5.159   2.709
 1788W        W 5988   5.704  10.356   9.341
 1789W        W 5989   6.720   7.348   9.216
 1790W        W 5990   2.088   5.647   2.454
 1791W        W 5991   5.455   5.033  11.235
 1792W        W 5992   6.204   0.881   1.434
 1793W        W 5993   7.789   4.635   0.766
 1794W        W 5994   4.144   5.126  10.071
 1795W        W 5995   6.150   3.236  11.403
 1796W        W 5996  10.458   0.351   2.222
 1797W        W 5997   4.314  10.561   0.471
 1798W        W 5998   2.844   5.064   9.896
 1799W        W 5999   7.662   7.564   2.704
 1800W        W 6000   0.489   1.489  10.812
 1801W        W 6001   2.451   9.872   9.355
 1802W        W 6002   9.072   0.385   9.943
 1803W        W 6003   8.966  10.528  10.323
 1804W        W 6004   9.345   1.510   9.579
 1805W        W 6005  11.302   0.975   8.862
 1806W        W 6006   8.555   3.334   9.434
 1807W        W 6007   0.197   5.842  11.303
 1808W        W 6008   4.298   8.392  10.055
 1809W        W 6009   1.550   7.762  11.484
 1810W        W 6010   6.885   3.282   0.449
 1811W        W 6011   8.062   0.712   0.965
 1812W        W 6012   9.931  10.994   9.438
 1813W        W 6013   2.669   3.903   2.059
 1814W        W 6014   5.467   5.209   0.860
 1815W        W 6015   9.503   7.046   4.272
 1816W        W 6016   8.112  10.618   9.224
 1817W        W 6017   5.603   5.783  11.948
 1818W        W 6018   9.989  10.024   0.205
 1819W        W 6019   3.730  11.278   2.147
 1820W        W 6020   3.768   1.212  11.948
 1821W        W 6021   6.399   4.385   1.824
 1822W        W 6022   1.921   2.600   2.240
 1823W        W 6023   3.741   0.174   0.768
 1824W        W 6024  11.482   2.145   0.327
 1825W        W 6025   0.818   9.594   0.300
 1826W        W 6026   9.313   5.549  10.504
 1827W        W 6027   4.208   9.632   1.434
 1828W        W 6028   7.902   5.046  11.966
 1829W        W 6029   7.762   8.645   1.270
 1830W        W 6030   0.408   5.199   2.322
 1831W        W 6031   4.970   0.930   9.491
 1832W        W 6032   2.114   7.463   1.413
 1833W        W 6033   5.023   8.495   3.439
 1834W        W 6034   0.570   8.361  10.518
 1835W        W 6035   6.077   4.031  10.161
 1836W        W 6036   9.940   4.578  11.094
 1837W        W 6037   5.958   3.315   0.885
 1838W        W 6038   7.636  10.451   0.746
 1839W        W 6039   5.290   6.981   0.305
 1840W        W 6040   6.064   2.335  11.718
 1841W        W 6041   4.656   4.828  11.596
 1842W        W 6042   1.548   0.831  11.926
 1843W        W 6043   3.661   5.103  11.324
 1844W        W 6044   5.419   5.708   9.109
 1845W        W 6045  10.267   0.494  11.037
 1846W        W 6046   6.232   6.578   3.264
 1847W        W 6047   6.504   5.548  11.081
 1848W        W 6048   8.049   0.574   2.365
 1849W        W 6049   8.695   2.448   9.404
 1850W        W 6050  11.296   7.005  10.271
 1851W        W 6051   9.536   3.241   1.253
 1852W        W 6052   9.101   6.034   4.054
 1853W        W 6053  11.397  10.333   1.530
 1854W        W 6054   7.128   6.842   0.477
 1855W        W 6055   1.928   5.535  10.827
 1856W        W 6056   8.719   3.301  10.858
 1857W        W 6057   9.080   3.722   2.453
 1858W        W 6058   4.104   0.341  11.464
 1859W        W 6059   3.343   2.392   1.332
 1860W        W 6060   0.415   4.173   1.988
 1861W        W 6061   5.231   6.565   1.564
 1862W        W 6062   6.501   7.120   1.844
 1863W        W 6063  10.086   8.152   0.807
 1864W        W 6064   3.125   1.282   8.827
 1865W        W 6065   4.527   9.514   8.514
 1866W        W 6066   6.219   2.202   0.205
 1867W        W 6067  10.767   0.462  10.996
 1868W        W 6068   8.582   9.989   8.880
 1869W        W 6069   1.237   5.276   9.043
 1870W        W 6070   3.649   9.289   8.860
 1871W        W 6071   4.993  11.263   0.003
 1872W        W 6072  10.333   3.080   0.021
 1873W        W 6073   6.890   2.209  11.609
 1874W        W 6074   2.272   1.259  11.204
 1875W        W 6075   7.029   2.679  11.773
 1876W        W 6076   4.164   3.324   0.280
 1877W        W 6077   4.638   3.482   1.244
 1878W        W 6078   5.175   2.173   2.898
 1879W        W 6079   3.542   2.862   9.492
 1880W        W 6080   9.630   6.234   1.876
 1881W        W 6081   3.060   8.701   8.630
 1882W        W 6082   2.598   9.609  11.418
 1883W        W 6083  10.310   9.984  10.442
 1884W        W 6084   0.257   6.793  11.037
 1885W        W 6085   2.340   9.874   0.825
 1886W        W 6086  10.110   9.537   0.376
 1887W        W 6087   0.389   2.303   0.660
 1888W        W 6088   1.938   0.171   0.399
 1889W        W 6089   9.467   9.369   2.661
 1890W        W 6090  11.411   6.602   9.950
 1891W        W 6091   3.074   8.376   2.316
 1892W        W 6092   3.092   8.525  11.800
 1893W        W 6093   5.605   1.633   0.200
 1894W        W 6094   3.200   4.984   4.058
 1895W        W 6095   4.754   6.096  10.228
 1896W        W 6096   1.661   6.789  10.550
 1897W        W 6097   2.175   6.227   1.671
 1898W        W 6098   1.245   3.719   2.943
 1899W        W 6099   4.315   3.152  11.463
 1900W        W 6100   7.466   6.107   8.656
 1901W        W 6101   9.909  10.968  10.390
 1902W        W 6102   5.893   7.001   3.462
 1903W        W 6103   2.278   8.635   1.712
 1904W        W 6104   1.848   6.107   2.460
 1905W        W 6105   1.255   0.972   1.477
 1906W        W 6106   6.982   4.249  11.272
 1907W        W 6107   6.173   1.215   2.745
 1908W        W 6108   8.565   5.306   1.475
 1909W        W 6109   5.798   3.759  10.528
 1910W        W 6110   3.182   0.725  11.422
 1911W        W 6111   4.719   3.700   3.458
 1912W        W 6112   5.921   4.600   3.468
 1913W        W 6113   0.371   1.442   1.262
 1914W        W 6114   9.502  10.054  11.822
 1915W        W 6115   2.804   8.116  10.800
 1916W        W 6116   2.246   3.495  11.456
 1917W        W 6117   3.634   5.244  11.839
 1918W        W 6118   2.518   4.751  10.128
 1919W        W 6119   8.027   9.588   3.494
 1920W        W 6120   1.116   2.220  10.018
 1921W        W 6121   1.657   9.413   9.137
 1922W        W 6122   7.230   4.247   3.253
 1923W        W 6123   2.258   1.462   9.473
 1924W        W 6124   7.364  11.366   3.055
 1925W        W 6125   3.270   5.275   9.638
 1926W        W 6126   2.513   7.714   9.926
 1927W        W 6127   1.413   8.327   2.799
 1928W        W 6128   2.029   5.636  10.001
 1929W        W 6129   2.351   2.319   1.223
 1930W        W 6130   2.203   6.623   9.895
 1931W        W 6131   0.749   9.975  10.514
 1932W        W 6132   4.630   8.018   2.398
 1933W        W 6133   2.110   6.158  10.080
 1934W        W 6134  10.735   5.911   9.401
 1935W        W 6135   0.221   8.494   3.460
 1936W        W 6136   1.417   2.346   1.361
 1937W        W 6137   3.014   5.088   3.394
 1938W        W 6138   0.692   8.550   2.707
 1939W        W 6139   1.443   4.888   1.441
 1940W        W 6140   9.059   8.483   8.956
 1941W        W 6141   3.247   3.990   3.208
 1942W        W 6142   5.597   8.078   3.944
 1943W        W 6143  10.050   4.552   8.890
 1944W        W 6144   8.152   9.767   9.572
 1945W        W 6145  10.746  11.375   9.406
 1946W        W 6146   0.315   6.566   1.618
 1947W        W 6147   7.379   2.188   9.839
 1948W        W 6148   9.613   9.091   8.502
 1949W        W 6149   8.115   5.250   9.980
 1950W        W 6150   3.928   9.505   2.893
 1951W        W 6151   0.329   6.490   1.025
 1952W        W 6152  10.907   9.088   3.219
 1953W        W 6153   0.408   2.693   8.942
 1954W        W 6154   3.266  11.423   0.420
 1955W        W 6155   0.634   5.568  11.277
 1956W        W 6156   6.406   8.436   0.420
 1957W        W 6157   6.528   1.650   2.499
 1958W        W 6158   6.573   2.795  11.080
 1959W        W 6159   2.836   8.399  10.379
 1960W        W 6160   6.025   5.552   2.175
 1961W        W 6161   0.924   2.242  10.560
 1962W        W 6162   4.745  10.588   2.805
 1963W        W 6163   4.649   9.394   0.684
 1964W        W 6164   8.897  10.424   9.803
 1965W        W 6165   2.018   2.150   2.485
 1966W        W 6166   8.686  10.746  10.779
 1967W        W 6167   1.263   0.468   1.351
 1968W        W 6168   5.686   0.926   3.223
 1969W        W 6169   8.437  10.242   2.100
 1970W        W 6170   4.361   1.348   0.347
 1971W        W 6171   0.367   1.253   2.990
 1972W        W 6172   1.213   5.819   8.515
 1973W        W 6173   4.119   3.677   0.644
 1974W        W 6174   7.462   5.075   8.885
 1975W        W 6175   4.767   4.413  11.847
 1976W        W 6176   2.714   3.509  10.885
 1977W        W 6177   3.092   9.492  11.350
 1978W        W 6178   5.673   8.501   1.249
 1979W        W 6179  10.573   0.028  11.773
 1980W        W 6180   9.001   4.413   3.109
 1981W        W 6181  11.126   4.618   9.078
 1982W        W 6182  11.104   0.513   0.907
 1983W        W 6183   1.506   0.621  10.940
 1984W        W 6184   2.767   5.383  10.312
 1985W        W 6185   3.148   5.134   1.105
 1986W        W 6186   8.235   5.254   1.880
 1987W        W 6187   9.828   0.845   3.418
 1988W        W 6188   1.914   8.009   9.157
 1989W        W 6189   2.226   4.328  11.959
 1990W        W 6190   2.821   2.248   0.900
 1991W        W 6191   4.349   9.487  10.092
 1992W        W 6192   8.560   9.847   2.420
 1993W        W 6193   0.118  10.456   1.025
 1994W        W 6194   5.160   7.647  11.085
 1995W        W 6195   1.870   1.367  10.886
 1996W        W 6196   4.148   3.158   1.328
 1997W        W 6197   7.281   9.269   0.161
 1998W        W 6198   6.765   1.390   9.593
 1999W        W 6199  10.208   1.789  11.740
 2000W        W 6200  10.460  10.931   9.533
 2001W        W 6201   1.860   1.348  10.354
 2002W        W 6202   4.801   6.753   0.412
 2003W        W 6203   0.255   6.981   0.732
 2004W        W 6204  11.298   4.537   2.303
 2005W        W 6205  10.086   8.145   2.164
 2006W        W 6206   3.288   5.184   2.408
 2007W        W 6207  10.113   8.782   1.462
 2008W        W 6208   5.608  10.965   2.987
 2009W        W 6209  10.810  11.418   2.697
 2010W        W 6210  10.907  10.307   1.322
 2011W        W 6211   5.066  10.964  11.283
 2012W        W 6212   8.164   8.973   1.338
 2013W        W 6213   8.703   8.152   9.138
 2014W        W 6214   6.062   8.175   1.153
 2015W        W 6215   8.829   3.808   0.908
 2016W        W 6216   2.300   3.784  11.012
 2017W        W 6217   9.787   2.550   1.798
 2018W        W 6218   1.170   4.805   3.037
 2019W        W 6219   4.193   4.587   0.906
 2020W        W 6220   7.079  10.948   0.177
 2021W        W 6221   8.998  11.354  10.003
 2022W        W 6222  11.337   2.361   9.938
 2023W        W 6223   7.249   4.165   1.517
 2024W        W 6224   1.248   6.963   9.996
 2025W        W 6225   3.184   8.925   2.832
 2026W        W 6226   2.485   0.116   1.044
 2027W        W 6227   3.740   5.743   1.971
 2028W        W 6228   9.969   3.600   9.082
 2029W        W 6229   6.037   0.875   1.934
 2030W        W 6230   9.999   3.662   9.972
 2031W        W 6231   8.493  10.050   0.774
 2032W        W 6232   4.855   2.121   0.149
 2033W        W 6233   6.665   8.664   9.402
 2034W        W 6234   1.655   8.869   0.342
 2035W        W 6235   4.382   5.913   2.471
 2036W        W 6236  10.874   1.177   9.106
 2037W        W 6237  11.036   7.399   0.337
 2038W        W 6238  11.199   5.557   9.551
 2039W        W 6239   9.087   7.947  11.246
 2040W        W 6240   5.880   4.840   9.556
 2041W        W 6241   5.755   3.857   9.402
 2042W        W 6242   0.302   5.487   0.526
 2043W        W 6243   9.585   8.861   9.883
 2044W        W 6244   1.883   6.231   0.407
 2045W        W 6245   3.864   7.526  10.111
 2046W        W 6246   7.194   1.716   9.962
 2047W        W 6247   0.160   5.198   0.092
 2048W        W 6248   3.480   0.780   9.533
 2049W        W 6249   3.649   3.273   1.305
 2050W        W 6250  10.473  10.549   8.737
 2051W        W 6251   6.874   4.876  10.704
 2052W        W 6252   9.115   8.593   1.394
 2053W        W 6253   9.600   3.236   8.991
 2054W        W 6254   1.480   5.245  10.919
 2055W        W 6255   4.656   3.682   2.942
 2056W        W 6256   0.659   5.940  11.614
 2057W        W 6257   2.346   4.306  11.030
 2058W        W 6258   1.919   4.679   2.366
 2059W        W 6259   6.425   8.859   8.919
 2060W        W 6260   8.224   3.306  10.993
 2061W        W 6261   9.236   5.613  11.804
 2062W        W 6262   8.382   4.372   1.450
 2063W        W 6263   3.326   4.683  11.315
 2064W        W 6264   9.554   5.071  10.463
 2065W        W 6265   8.529   0.580   0.712
 2066W        W 6266   8.320   8.043   0.434
 2067W        W 6267   5.443   3.196   2.116
 2068W        W 6268   8.148  10.455   0.943
 2069W        W 6269   6.870   0.722  10.744
 2070W        W 6270   8.286   3.779   3.477
 2071W        W 6271   7.585  10.249   2.204
 2072W        W 6272   9.119   5.178   0.997
 2073W        W 6273   8.809  10.023   3.525
 2074W        W 6274   0.088   8.022   8.668
 2075W        W 6275   3.756   7.687   8.839
 2076W        W 6276   9.839   5.014   8.722
 2077W        W 6277   3.507  11.381   3.589
 2078W        W 6278   8.016   3.119  11.441
 2079W        W 6279  10.137   0.417   1.808
 2080W        W 6280   1.046   4.134   1.006
 2081W        W 6281   7.766  11.160  10.537
 2082W        W 6282   9.981   3.674  10.562
 2083W        W 6283   6.637   3.208   8.678
 2084W        W 6284   7.518   8.064   2.711
 2085W        W 6285   4.439   1.332  10.344
 2086W        W 6286   8.361   2.475   0.788
 2087W        W 6287   3.319  10.517   2.958
 2088W        W 6288   4.044   8.682  11.501
 2089W        W 6289  11.206   6.957   1.323
 2090W        W 6290  10.895   2.129   2.730
 2091W        W 6291   5.723   6.562   3.160
 2092W        W 6292   6.223   9.419   4.080
 2093W        W 6293   6.250  10.482   2.926
 2094W        W 6294   2.357   9.511   2.883
 2095W        W 6295   8.890   4.087   8.516
 2096W        W 6296   3.332   8.926  11.999
 2097W        W 6297   4.811   4.792  10.338
 2098W        W 6298   0.292   6.262   3.307
 2099W        W 6299   1.669   3.031   3.533
 2100W        W 6300   9.585   8.038  11.779
 2101W        W 6301   2.333   9.472   2.178
 2102W        W 6302   8.612   8.051  10.989
 2103W        W 6303   2.703   8.195   9.932
 2104W        W 6304   2.871   9.406   1.217
 2105W        W 6305   6.110   1.771   1.468
 2106W        W 6306   6.408   1.864   3.468
 2107W        W 6307  10.342   2.714   2.609
 2108W        W 6308   3.153   3.422   1.290
 2109W        W 6309   7.859   2.595  11.439
 2110W        W 6310   5.983   6.209  11.091
 2111W        W 6311   2.699   3.370   2.962
 2112W        W 6312   0.464  10.454   9.622
 2113W        W 6313  11.320   9.533   1.145
 2114W        W 6314   6.343   7.124  11.493
 2115W        W 6315   0.334   2.593   0.246
 2116W        W 6316   9.455   6.041   1.016
 2117W        W 6317   2.640   8.449   0.028
 2118W        W 6318   4.678   8.102   0.986
 2119W        W 6319   6.869   3.494  11.996
 2120W        W 6320   2.024   5.682   8.789
 2121W        W 6321  10.903   0.303  11.452
 2122W        W 6322   9.087   7.612  10.661
 2123W        W 6323   5.273   0.835   0.319
 2124W        W 6324   7.358  10.524   0.302
 2125W        W 6325  10.715   1.828  11.831
 2126W        W 6326   5.652   6.725   0.061
 2127W        W 6327   9.847   4.071   8.831
 2128W        W 6328   7.713   6.465   9.671
 2129W        W 6329   9.445   2.925   0.332
 2130W        W 6330   8.014   7.194  10.055
 2131W        W 6331   1.781   8.091   2.508
 2132W        W 6332   5.533   3.532  10.920
 2133W        W 6333   9.888   1.760   1.080
 2134W        W 6334   1.385   6.150   0.332
 2135W        W 6335   5.281   8.676   9.489
 2136W        W 6336   3.403   0.519   8.799
 2137W        W 6337   3.355   9.485   1.382
 2138W        W 6338   7.980   2.604   2.850
 2139W        W 6339   2.314   1.578   1.945
 2140W        W 6340   9.877   9.359  11.505
 2141W        W 6341   5.044   3.680   8.389
 2142W        W 6342   0.293   1.336   0.406
 2143W        W 6343   2.573   4.262   9.289
 2144W        W 6344   3.713   5.222   9.857
 2145W        W 6345   5.933   5.812  10.782
 2146W        W 6346   5.646   6.234   2.339
 2147W        W 6347   2.209   0.745   2.270
 2148W        W 6348   8.943   6.680   2.233
 2149W        W 6349   3.657   5.602  11.364
 2150W        W 6350   5.723   1.698  10.680
 2151W        W 6351   0.896   7.928   0.255
 2152W        W 6352  11.313   1.916   2.456
 2153W        W 6353   6.863   4.951   0.878
 2154W        W 6354  11.181   2.436  11.540
 2155W        W 6355   7.091   8.202   2.970
 2156W        W 6356   9.465   6.415   1.360
 2157W        W 6357   1.388   3.614   9.983
 2158W        W 6358   7.704   5.634   2.076
 2159W        W 6359   3.397   9.053   1.062
 2160W        W 6360   2.936   3.880   1.179
 2161W        W 6361   9.412   9.961   0.958
 2162W        W 6362   5.254   8.781   3.104
 2163W        W 6363   8.816   8.193   0.532
 2164W        W 6364   6.957   9.373   2.008
 2165W        W 6365   5.638   1.528   0.718
 2166W        W 6366   7.420   8.063   9.541
 2167W        W 6367   2.061  10.667   3.654
 2168W        W 6368   8.401   1.187   2.873
 2169W        W 6369   9.320   5.540   9.461
 2170W        W 6370  10.484   9.310   0.669
 2171W        W 6371   8.618   5.965   3.596
 2172W        W 6372   2.293   6.326  10.894
 2173W        W 6373   7.994   4.776   3.035
 2174W        W 6374   5.348   2.413   0.290
 2175W        W 6375   9.509   6.493   3.079
 2176W        W 6376  11.277   3.985   0.247
 2177W        W 6377  10.800   3.596   1.534
 2178W        W 6378   6.531   7.390  10.540
 2179W        W 6379   9.610  10.772  11.054
 2180W        W 6380   5.673   0.443   8.951
 2181W        W 6381   1.855   5.862  10.420
 2182W        W 6382   6.946   9.698   9.977
 2183W        W 6383   3.736   1.911   1.178
 2184W        W 6384   6.434   4.221  11.222
 2185W        W 6385   2.459  10.749   2.206
 2186W        W 6386   1.911   8.966   9.027
 2187W        W 6387   5.338   4.056   1.384
 2188W        W 6388   6.168   5.398   3.106
 2189W        W 6389  10.841  10.012  10.443
 2190W        W 6390   4.487   0.803   9.474
 2191W        W 6391   5.616   2.301   3.254
 2192W        W 6392   1.710   6.662  10.049
 2193W        W 6393   4.665   5.675   9.959
 2194W        W 6394   3.007   8.028   2.726
 2195W        W 6395   1.402  10.214   1.664
 2196W        W 6396   0.835   3.118   1.939
 2197W        W 6397   7.886   8.635   2.785
 2198W        W 6398   9.017   3.166  11.603
 2199W        W 6399  10.472   4.177   0.444
 2200W        W 6400   9.082   7.963  11.760
 2201W        W 6401  10.021   1.606   2.952
 2202W        W 6402   0.686   8.858   9.554
 2203W        W 6403   9.256   9.941   1.439
 2204W        W 6404   6.241   2.393   9.198
 2205W        W 6405   8.888   5.553   0.630
 2206W        W 6406  10.577   1.520   8.838
 2207W        W 6407   3.773  10.309   3.527
 2208W        W 6408   3.726   8.460   1.709
 2209W        W 6409   8.698   0.987  10.296
 2210W        W 6410   5.334   7.714   2.242
 2211W        W 6411   7.208  10.009  10.474
 2212W        W 6412  10.256   6.156   9.450
 2213W        W 6413   2.841   1.504   9.939
 2214W        W 6414  10.359   6.050   1.662
 2215W        W 6415  10.127   2.423   3.360
 2216W        W 6416   5.572   2.198  10.418
 2217W        W 6417   0.863   2.665  10.261
 2218W        W 6418   5.650   8.967   1.479
 2219W        W 6419   9.088   6.314   0.399
 2220W        W 6420  11.000   8.341  11.921
 2221W        W 6421  10.898   1.614  10.035
 2222W        W 6422  10.956   8.156   8.734
 2223W        W 6423   3.637   1.658  11.741
 2224W        W 6424   9.968  10.422  11.134
 2225W        W 6425  10.901   4.813   1.158
 2226W        W 6426   9.964   0.849   2.024
 2227W        W 6427   7.453   4.834   3.209
 2228W        W 6428   1.639   7.555   1.192
 2229W        W 6429   7.186   2.860   9.342
 2230W        W 6430  10.565  11.295   1.317
 2231W        W 6431   1.238   9.107   0.192
 2232W        W 6432   1.301   2.965  10.755
 2233W        W 6433   5.671   9.631  11.944
 2234W        W 6434   2.362   9.955   1.902
 2235W        W 6435   5.628  11.109  11.973
 2236W        W 6436   8.917   1.969  10.868
 2237W        W 6437   3.859   6.161  10.036
 2238W        W 6438   7.573   1.506   3.386
 2239W        W 6439   7.165   1.383   1.812
 2240W        W 6440  10.063   3.214   8.735
 2241W        W 6441   3.227   8.154  11.102
 2242W        W 6442   6.521   0.787   1.822
 2243W        W 6443   7.605   1.373   0.317
 2244W        W 6444   6.389   3.214   0.478
 2245W        W 6445   6.022   5.519   1.326
 2246W        W 6446   3.337   0.690  10.933
 2247W        W 6447   4.124   2.387   1.867
 2248W        W 6448   9.848   3.042   0.883
 2249W        W 6449   4.304  10.054   3.316
 2250W        W 6450   3.430   6.078  11.449
 2251W        W 6451   4.946   4.130   4.040
 2252W        W 6452   0.667   6.641   0.371
 2253W        W 6453   9.958   7.639   8.641
 2254W        W 6454   4.762   8.967   2.536
 2255W        W 6455   8.145   9.147  10.772
 2256W        W 6456   3.749   2.399   9.443
 2257W        W 6457   3.943   3.733   9.252
 2258W        W 6458   5.239   2.165   2.381
 2259W        W 6459   9.795   4.718   9.676
 2260W        W 6460   9.377   0.020   9.028
 2261W        W 6461   4.792  10.796   8.910
 2262W        W 6462   3.714   1.239  10.261
 2263W        W 6463   5.954   3.662   9.822
 2264W        W 6464   9.685   4.220   3.590
 2265W        W 6465   0.412   8.169  10.960
 2266W        W 6466   0.034   4.156  10.742
 2267W        W 6467   0.113   8.832   1.352
 2268W        W 6468   3.809   8.108   1.299
 2269W        W 6469   8.149  11.237   0.342
 2270W        W 6470   5.721  11.369   9.479
 2271W        W 6471   2.670   9.962   2.949
 2272W        W 6472  10.310   5.515  11.496
 2273W        W 6473   6.280   1.002   3.680
 2274W        W 6474   1.513   0.540  10.432
 2275W        W 6475   8.132  10.096   8.611
 2276W        W 6476   1.878   5.959   3.308
 2277W        W 6477   5.580   7.944   0.438
 2278W        W 6478   0.656   7.016  11.273
 2279W        W 6479   5.841   5.284   2.674
 2280W        W 6480   6.720   4.064  10.839
 2281W        W 6481   2.179   2.765  10.911
 2282W        W 6482   9.288  10.892   0.798
 2283W        W 6483   9.013   7.013   1.844
 2284W        W 6484   6.485   0.634  11.233
 2285W        W 6485   5.211   0.908  10.891
 2286W        W 6486   3.217   0.845   2.129
 2287W        W 6487   8.122   5.992  11.073
 2288W        W 6488   3.646   2.584   9.917
 2289W        W 6489   5.596   0.321   2.418
 2290W        W 6490   6.071   1.856  11.483
 2291W        W 6491   0.996   1.750   1.054
 2292W        W 6492  10.830   6.259  11.278
 2293W        W 6493   0.821   7.545   9.495
 2294W        W 6494   0.161   8.512   2.950
 2295W        W 6495   3.824   9.402   1.190
 2296W        W 6496   2.323   2.348   9.993
 2297W        W 6497   4.887   4.254   1.764
 2298W        W 6498   6.215   4.679   0.270
 2299W        W 6499  10.240   7.001   0.277
 2300W        W 6500   3.146   4.265   9.626
 2301W        W 6501   0.857   7.621   0.719
 2302W        W 6502   1.100   7.460   0.269
 2303W        W 6503   0.149   4.801   2.546
 2304W        W 6504   6.968   6.582  10.388
 2305W        W 6505   8.438   1.981   0.962
 2306W        W 6506   2.259   0.241   2.951
 2307W        W 6507   9.774   5.771   0.241
 2308W        W 6508   9.955  11.434   0.605
 2309W        W 6509   5.057   0.204  11.730
 2310W        W 6510   1.288   2.958  10.232
 2311W        W 6511   7.643  11.338   3.481
 2312W        W 6512   3.139   9.982   1.364
 2313W        W 6513  10.426  10.925   3.045
 2314W        W 6514   4.037   5.070   0.990
 2315W        W 6515   9.445  11.048   2.290
 2316W        W 6516   2.808   6.798  11.359
 2317W        W 6517   4.337   0.714   1.301
 2318W        W 6518   9.930   5.712  10.745
 2319W        W 6519   0.779   6.544   2.298
 2320W        W 6520   5.651   8.531   2.304
 2321W        W 6521   4.136   9.400  11.843
 2322W        W 6522   2.819   1.886  10.804
 2323W        W 6523   1.896   2.586   1.333
 2324W        W 6524   2.838   2.601   1.311
 2325W        W 6525   2.822   2.805  10.311
 2326W        W 6526  11.424   5.620   9.077
 2327W        W 6527  10.327  10.944   0.960
 2328W        W 6528   1.829   4.627   9.431
 2329W        W 6529  10.845   1.370   0.541
 2330W        W 6530   4.445   7.094   3.086
 2331W        W 6531   4.242   0.347   9.306
 2332W        W 6532   9.035   4.916   3.255
 2333W        W 6533  10.463   8.965   2.417
 2334W        W 6534   8.520   0.727   2.634
 2335W        W 6535   8.190   5.650   2.205
 2336W        W 6536  10.798   0.728   3.035
 2337W        W 6537  10.401   6.153   1.143
 2338W        W 6538   0.961   7.951  10.452
 2339W        W 6539   8.592   6.490  11.128
 2340W        W 6540   0.511   1.001  10.854
 2341W        W 6541   6.008   2.368   9.634
 2342W        W 6542   6.469   8.616  11.476
 2343W        W 6543   3.211  10.712   2.472
 2344W        W 6544  10.842   6.564  10.196
 2345W        W 6545   6.081   7.833   2.775
 2346W        W 6546   0.906   4.169  10.055
 2347W        W 6547   9.395   5.194   8.552
 2348W        W 6548   7.729  11.313   1.256
 2349W        W 6549   6.289  10.729   0.307
 2350W        W 6550   7.848   5.049   3.469
 2351W        W 6551   2.951   7.303  11.268
 2352W        W 6552   9.152   1.834   9.940
 2353W        W 6553   3.689  10.373  10.840
 2354W        W 6554   0.448  10.303   2.818
 2355W        W 6555   0.072   3.729  10.350
 2356W        W 6556   4.734  11.024  10.499
 2357W        W 6557   1.827   1.782  10.600
 2358W        W 6558   1.973   1.829   0.929
 2359W        W 6559   9.249   7.025   0.089
 2360W        W 6560   3.220   9.106  10.055
 2361W        W 6561   5.174   8.840   1.702
 2362W        W 6562   3.175  10.316   9.517
 2363W        W 6563   1.212   6.299   1.181
 2364W        W 6564  11.185   3.462   3.498
 2365W        W 6565   3.353   3.864   0.400
 2366W        W 6566  11.471   2.420   9.009
 2367W        W 6567   0.239   9.787  10.403
 2368W        W 6568   2.137   1.389   8.965
 2369W        W 6569   7.814  10.462   8.835
 2370W        W 6570   7.887   4.100   0.594
 2371W        W 6571  11.191   6.169  10.126
 2372W        W 6572   5.320   1.216   2.112
 2373W        W 6573   9.729   7.601   0.050
 2374W        W 6574   2.672   5.518   0.278
 2375W        W 6575   7.315   3.330   2.839
 2376W        W 6576   5.265   8.983   2.219
 2377W        W 6577   2.815   5.338   4.102
 2378W        W 6578   7.142   8.565   3.884
 2379W        W 6579   3.874   4.129   1.570
 2380W        W 6580  10.457   8.530   2.170
 2381W        W 6581   0.356   9.288   0.304
 2382W        W 6582  11.360   2.149   1.402
 2383W        W 6583   7.532   4.304   0.283
 2384W        W 6584   2.269   1.329   1.483
 2385W        W 6585   3.660   6.745   1.168
 2386W        W 6586   1.169  10.997   8.539
 2387W        W 6587   9.515   3.024   9.474
 2388W        W 6588   1.540  10.351  11.959
 2389W        W 6589   4.348   3.616   2.441
 2390W        W 6590   0.489   4.903  10.597
 2391W        W 6591   3.240   7.362  10.424
 2392W        W 6592   4.115   5.563   9.739
 2393W        W 6593  10.427   5.891   9.850
 2394W        W 6594   2.683   5.046   1.308
 2395W        W 6595   0.856   6.670   8.979
 2396W        W 6596   4.367   3.642  11.404
 2397W        W 6597   2.374   6.602   2.729
 2398W        W 6598   1.639   7.473   0.285
 2399W        W 6599   2.354   9.378   0.217
 2400W        W 6600   0.778   3.472   2.341
 2401W        W 6601   8.174   6.065   2.498
 2402W        W 6602   7.680  10.058   2.696
 2403W        W 6603   6.413   5.218   2.249
 2404W        W 6604   7.117   4.862   1.947
 2405W        W 6605   1.557   6.983   2.710
 2406W        W 6606   4.209   1.890   2.616
 2407W        W 6607   3.645  10.768  11.234
 2408W        W 6608   1.566   2.232   2.235
 2409W        W 6609   6.471   0.686  10.199
 2410W        W 6610   4.697   9.810   1.362
 2411W        W 6611   5.420   9.218   8.504
 2412W        W 6612   0.900   6.667   9.499
 2413W        W 6613   9.604  10.158   3.361
 2414W        W 6614   1.356   4.356  11.727
 2415W        W 6615   1.045   5.926  11.988
 2416W        W 6616   0.549   1.416   2.515
 2417W        W 6617   8.517   9.621   9.243
 2418W        W 6618   7.055   4.655   2.462
 2419W        W 6619   0.970   1.185   9.998
 2420W        W 6620   5.130   2.740   1.152
 2421W        W 6621   0.381   7.911   1.163
 2422W        W 6622   9.472   9.649  10.354
 2423W        W 6623   8.912  11.345   2.756
 2424W        W 6624  10.635   8.083   1.984
 2425W        W 6625   9.398   7.610   2.295
 2426W        W 6626   9.545   8.361   9.001
 2427W        W 6627  10.835  10.131   2.643
 2428W        W 6628   3.408   0.487   0.986
 2429W        W 6629   7.215   8.090  11.433
 2430W        W 6630   7.573   2.791   3.534
 2431W        W 6631   8.401  10.676  10.353
 2432W        W 6632   9.517   2.442   1.339
 2433W        W 6633   5.611  10.546   3.276
 2434W        W 6634  11.394   2.880   9.843
 2435W        W 6635   5.250   2.845   1.755
 2436W        W 6636   7.075   9.038   3.239
 2437W        W 6637  11.429   3.293  11.089
 2438W        W 6638   4.529   2.835   2.436
 2439W        W 6639   6.460   0.851   9.371
 2440W        W 6640   0.772  10.231   1.396
 2441W        W 6641   8.440   5.136   8.571
 2442W        W 6642   2.317   1.238   3.290
 2443W        W 6643  10.260   3.371   0.981
 2444W        W 6644   2.617   8.823   0.467
 2445W        W 6645   5.520   8.972  10.329
 2446W        W 6646   6.382   4.170   1.354
 2447W        W 6647  10.893   6.274   3.010
 2448W        W 6648   8.425   3.835  11.875
 2449W        W 6649   8.884   0.361   0.360
 2450W        W 6650   4.599   2.970   1.165
 2451W        W 6651   9.298   2.207   0.932
 2452W        W 6652   1.976   9.550   1.808
 2453W        W 6653   1.057   9.020   9.219
 2454W        W 6654   4.810   8.052  10.166
 2455W        W 6655   2.370   5.044  11.406
 2456W        W 6656   0.971   2.715   1.633
 2457W        W 6657   4.323   6.030   9.859
 2458W        W 6658   0.525   2.677   2.001
 2459W        W 6659   9.480   3.975   2.665
 2460W        W 6660   3.863   3.798  11.393
 2461W        W 6661   2.228   7.970   2.316
 2462W        W 6662   0.394   4.909  11.111
 2463W        W 6663   8.423   6.910  11.532
 2464W        W 6664   3.452   3.934   9.277
 2465W        W 6665   0.944   3.719  11.738
 2466W        W 6666   8.111   8.159  11.061
 2467W        W 6667   6.408   9.954  11.432
 2468W        W 6668   1.120   1.882   2.833
 2469W        W 6669  10.109  10.951   9.923
 2470W        W 6670   2.690   4.127   8.826
 2471W        W 6671   0.622   7.922   8.695
 2472W        W 6672   5.008   3.162   1.425
 2473W        W 6673   9.767   3.609   8.601
 2474W        W 6674   6.015   8.485  11.297
 2475W        W 6675   5.194   9.324  10.544
 2476W        W 6676  11.097   5.870  10.538
 2477W        W 6677  10.869  10.273  11.390
 2478W        W 6678   4.346   4.207   1.779
 2479W        W 6679   1.318   1.448   1.305
 2480W        W 6680   6.470   3.473   2.673
 2481W        W 6681   7.430  10.092   1.712
 2482W        W 6682   9.986   7.465   9.149
 2483W        W 6683   4.092   3.283   1.834
 2484W        W 6684   6.846   2.029   0.145
 2485W        W 6685   6.267   2.710   0.269
 2486W        W 6686  11.254   6.045  10.994
 2487W        W 6687   2.618   3.860  11.442
 2488W        W 6688   1.735   1.305   9.295
 2489W        W 6689   8.897   2.820   1.282
 2490W        W 6690   6.607   1.825   1.398
 2491W        W 6691   2.938   6.627   2.656
 2492W        W 6692   8.497   4.582  11.566
 2493W        W 6693   0.270   4.504   0.312
 2494W        W 6694   1.842  11.191   9.091
 2495W        W 6695   0.495   4.349  11.897
 2496W        W 6696  10.710   2.252  11.519
 2497W        W 6697   8.360   7.257  11.967
 2498W        W 6698   2.732   1.745   9.489
 2499W        W 6699   6.268   3.031  10.318
 2500W        W 6700   9.903   8.132   3.241
 2501W        W 6701   2.887   2.293  11.121
 2502W        W 6702   9.196  11.438   9.529
 2503W        W 6703   2.652   3.746   3.314
 2504W        W 6704   6.630   8.675   2.130
 2505W        W 6705   1.853   1.608   1.385
 2506W        W 6706   7.138  11.139  10.940
 2507W        W 6707   4.256   2.969  11.926
 2508W        W 6708   1.640  10.707   1.398
 2509W        W 6709   4.820   8.851  11.012
 2510W        W 6710   3.216   5.119  11.564
 2511W        W 6711   5.712  10.424   0.715
 2512W        W 6712   6.502   3.842  11.869
 2513W        W 6713   3.488   4.973   3.631
 2514W        W 6714   2.289  10.787   2.674
 2515W        W 6715   4.720   2.457  11.790
 2516W        W 6716   3.100   8.441   0.316
 2517W        W 6717   0.773   6.518   1.356
 2518W        W 6718  10.034  11.283   1.229
 2519W        W 6719   7.600   2.876  10.537
 2520W        W 6720   7.977  10.300   1.889
 2521W        W 6721   5.417   1.392   1.219
 2522W        W 6722   1.042   6.843   2.631
 2523W        W 6723   3.155   2.730  10.965
 2524W        W 6724   3.039   4.265  10.587
 2525W        W 6725   5.510   1.853   3.637
 2526W        W 6726  10.017   6.655   2.694
 2527W        W 6727   6.646   9.919   1.305
 2528W        W 6728   8.238   7.659  10.244
 2529W        W 6729   4.294  10.116  11.301
 2530W        W 6730   3.505   0.953   1.208
 2531W        W 6731  10.793   1.419   1.931
 2532W        W 6732   3.271   5.755   9.485
 2533W        W 6733   0.970   3.681   0.255
 2534W        W 6734   2.948   1.743   1.018
 2535W        W 6735   9.988   2.805  10.576
 2536W        W 6736   7.185   9.063   2.735
 2537W        W 6737   8.509   6.276  11.956
 2538W        W 6738   2.422   0.305   0.572
 2539W        W 6739  11.252   3.620   1.799
 2540W        W 6740  10.263   9.397   9.776
 2541W        W 6741   7.492   6.627  11.822
 2542W        W 6742   5.437   7.197   8.625
 2543W        W 6743   3.642   4.502  10.745
 2544W        W 6744   0.969   3.296   1.489
 2545W        W 6745   6.341   3.203   3.683
 2546W        W 6746   1.412   1.412  10.137
 2547W        W 6747  10.197   7.144  11.314
 2548W        W 6748   6.691   9.153   9.246
 2549W        W 6749   3.177  10.464  10.873
 2550W        W 6750   2.709   1.948   3.173
 2551W        W 6751   3.715   2.613  10.771
 2552W        W 6752   9.395   4.788  10.024
 2553W        W 6753   8.082   0.890   1.451
 2554W        W 6754   2.410   6.554  10.371
 2555W        W 6755   5.826   6.073   9.164
 2556W        W 6756   0.927   6.020   1.506
 2557W        W 6757   6.988   5.169  11.550
 2558W        W 6758  10.002   2.208   9.929
 2559W        W 6759   3.345   6.960   2.383
 2560W        W 6760   4.656   0.290   1.430
 2561W        W 6761  11.051   0.537   1.921
 2562W        W 6762  10.462   9.951   1.887
 2563W        W 6763   6.466   5.151  11.443
 2564W        W 6764   5.939  11.476  11.822
 2565W        W 6765   9.474   0.178  10.832
 2566W        W 6766   1.241   8.422   1.914
 2567W        W 6767   6.478   4.882   9.713
 2568W        W 6768   5.047   9.041   0.238
 2569W        W 6769  11.254   3.994   1.435
 2570W        W 6770  10.026   6.299   3.090
 2571W        W 6771   1.142   7.091  11.385
 2572W        W 6772   8.668  10.037   0.243
 2573W        W 6773   7.519   2.999   1.224
 2574W        W 6774   2.639   4.629   9.652
 2575W        W 6775   8.289  11.019   9.664
 2576W        W 6776   0.371   6.806   8.587
 2577W        W 6777   7.485   1.209  10.917
 2578W        W 6778   5.287  10.469  11.587
 2579W        W 6779  10.962   0.990   1.720
 2580W        W 6780  10.487   3.514  11.269
 2581W        W 6781   6.889   3.679   0.748
 2582W        W 6782   8.141   2.977   8.722
 2583W        W 6783   1.900   8.810   1.279
 2584W        W 6784   1.725   0.652   1.226
 2585W        W 6785   2.712   9.426   2.521
 2586W        W 6786  10.869   2.772   8.961
 2587W        W 6787   1.156   5.756  11.434
 2588W        W 6788   4.971   5.262   1.040
 2589W        W 6789  10.797   6.242   9.786
 2590W        W 6790  10.636   5.146  10.792
 2591W        W 6791   0.638   9.483  11.452
 2592W        W 6792   7.667   6.068   2.402
 2593W        W 6793   1.407   7.110   1.444
 2594W        W 6794   5.638   2.196  11.451
 2595W        W 6795   5.600  11.139   9.941
 2596W        W 6796   0.318   0.995   2.358
 2597W        W 6797   6.019   5.650  11.250
 2598W        W 6798   0.676   1.503   3.326
 2599W        W 6799   6.743   1.857   3.044
 2600W        W 6800   8.646   6.105   2.734
 2601W        W 6801   4.131   5.088   9.568
 2602W        W 6802   0.005   2.399  11.032
 2603W        W 6803  11.401   4.625  10.928
 2604W        W 6804   1.402   3.248   1.203
 2605W        W 6805   9.429  10.631   9.554
 2606W        W 6806   1.935   4.434   0.915
 2607W        W 6807   8.572   0.257   3.365
 2608W        W 6808   4.918   7.637   9.361
 2609W        W 6809   5.281   2.796   9.808
 2610W        W 6810   8.567   2.340  11.767
 2611W        W 6811   5.804   8.856   8.605
 2612W        W 6812   6.956   2.637   2.156
 2613W        W 6813   4.687   9.408   2.751
 2614W        W 6814   8.938   6.386   3.697
 2615W        W 6815   2.825   8.927   0.009
 2616W        W 6816  10.522   7.458   0.368
 2617W        W 6817   3.075   6.503   9.925
 2618W        W 6818  10.773   4.743   3.127
 2619W        W 6819   0.262  10.060  11.836
 2620W        W 6820   7.550   4.203   8.762
 2621W        W 6821   1.408   3.590   1.571
 2622W        W 6822  10.933   4.426   0.244
 2623W        W 6823   1.189  10.516   1.299
 2624W        W 6824   6.500   6.159   9.706
 2625W        W 6825   3.586   1.105   8.658
 2626W        W 6826   3.326   0.985  11.836
 2627W        W 6827  10.409   6.676   0.976
 2628W        W 6828   2.125   3.200   0.439
 2629W        W 6829   9.018   4.773   2.750
 2630W        W 6830   2.578   9.457   9.609
 2631W        W 6831   1.765   8.446   0.041
 2632W        W 6832   1.254   7.376   9.686
 2633W        W 6833   0.273   5.763   3.168
 2634W        W 6834  10.907   4.826   2.150
 2635W        W 6835   3.555  10.688   0.694
 2636W        W 6836   6.645   6.241   8.817
 2637W        W 6837   1.519   2.231  11.930
 2638W        W 6838   3.855   2.345   1.426
 2639W        W 6839   8.517   5.591  11.314
 2640W        W 6840   7.893   3.642  11.814
 2641W        W 6841   7.984  11.479  10.199
 2642W        W 6842   0.276   0.870   3.366
 2643W        W 6843   6.732   3.112   0.923
 2644W        W 6844   9.871  10.343   2.974
 2645W        W 6845  11.020   0.337   9.466
 2646W        W 6846   2.078   6.924   3.627
 2647W        W 6847   6.461   9.078   0.893
 2648W        W 6848   5.572   5.546  11.473
 2649W        W 6849   8.138   1.827   1.433
 2650W        W 6850   4.612   4.624   9.387
 2651W        W 6851   7.601   9.410  11.774
 2652W        W 6852   8.723   6.864   3.600
 2653W        W 6853   5.716   0.413   0.906
 2654W        W 6854  10.503   5.055   2.786
 2655W        W 6855   0.529   2.102   0.191
 2656W        W 6856   1.459   6.182  10.569
 2657W        W 6857   0.414   0.752   1.914
 2658W        W 6858   5.435   2.953   0.205
 2659W        W 6859   6.175   1.355   0.248
 2660W        W 6860   7.082   3.536  10.323
 2661W        W 6861   6.020   6.112   3.263
 2662W        W 6862   4.964   2.726   0.232
 2663W        W 6863  10.876   0.445  11.941
 2664W        W 6864  10.397   5.197   0.164
 2665W        W 6865   6.415   6.158   0.350
 2666W        W 6866  11.130   3.956  10.438
 2667W        W 6867   5.599   8.092   2.613
 2668W        W 6868   5.968   8.018   2.263
 2669W        W 6869   4.028   5.987   0.005
 2670W        W 6870   1.838   6.959  11.953
 2671W        W 6871  11.228   6.440   0.310
 2672W        W 6872   6.836   2.185   1.902
 2673W        W 6873   1.053   0.778  11.837
 2674W        W 6874   8.248   7.198  10.505
 2675W        W 6875   1.769   2.260  10.753
 2676W        W 6876   6.227   9.938   2.258
 2677W        W 6877   9.105   0.909   9.981
 2678W        W 6878   6.886   9.102  10.286
 2679W        W 6879   6.746   0.672   2.268
 2680W        W 6880   9.984   4.185  11.410
 2681W        W 6881   9.938   6.686   1.731
 2682W        W 6882   8.586  10.859  11.269
 2683W        W 6883   7.221   4.652   4.087
 2684W        W 6884  10.911   2.135  10.153
 2685W        W 6885   9.367   4.290  10.120
 2686W        W 6886   3.830   6.633   1.657
 2687W        W 6887   5.625   1.783  11.730
 2688W        W 6888   4.334   6.907   9.731
 2689W        W 6889   3.028  11.424   1.731
 2690W        W 6890   8.476   8.896  10.425
 2691W        W 6891   3.845  11.074  11.679
 2692W        W 6892   6.580   7.851  11.811
 2693W        W 6893   4.172   2.177  11.488
 2694W        W 6894   8.079   3.812  10.903
 2695W        W 6895   5.749   2.911   1.843
 2696W        W 6896   6.513   7.774   1.121
 2697W        W 6897   8.725   5.150  11.099
 2698W        W 6898   0.733   5.562   2.500
 2699W        W 6899   3.653   0.523  11.316
 2700W        W 6900   5.162  11.005  10.783
 2701W        W 6901   2.864   8.957   0.926
 2702W        W 6902   8.053   2.750  10.288
 2703W        W 6903   7.068   0.777   0.992
 2704W        W 6904   4.768   7.179   2.665
 2705W        W 6905   6.729   3.703   2.241
 2706W        W 6906  10.069   1.478  10.754
 2707W        W 6907   4.795  10.032   3.513
 2708W        W 6908   8.873   5.626   2.649
 2709W        W 6909   8.256   4.254   3.249
 2710W        W 6910   1.771   6.538  11.001
 2711W        W 6911   0.822   1.831   2.423
 2712W        W 6912   1.316   7.559  10.431
 2713W        W 6913   8.830   7.099  11.777
 2714W        W 6914   0.005   3.776   2.233
 2715W        W 6915   4.730   6.697   1.438
 2716W        W 6916   7.492   4.086   2.840
 2717W        W 6917   7.789  10.682  11.096
 2718W        W 6918   7.884   7.690   1.282
 2719W        W 6919   0.813   6.430  10.488
 2720W        W 6920   7.501   4.699   9.954
 2721W        W 6921   6.493   0.951   3.206
 2722W        W 6922   6.038   5.633   0.313
 2723W        W 6923   9.061   6.736   3.228
 2724W        W 6924   5.523   8.938   0.937
 2725W        W 6925   5.555  10.799  11.262
 2726W        W 6926   6.541  10.925   1.413
 2727W        W 6927   9.054   9.974   9.645
 2728W        W 6928   2.862   6.093   3.325
 2729W        W 6929   3.206   5.530  10.092
 2730W        W 6930   8.261   6.005   9.658
 2731W        W 6931   2.145   5.571   3.524
 2732W        W 6932   5.146   3.607   1.197
 2733W        W 6933   5.580   9.346   9.342
 2734W        W 6934   7.579  10.004   0.429
 2735W        W 6935  10.607   4.543   8.837
 2736W        W 6936   2.578   9.019   1.832
 2737W        W 6937   2.794   7.697  11.686
 2738W        W 6938  11.274  11.440  10.330
 2739W        W 6939   7.588  10.577   1.739
 2740W        W 6940   0.422   9.109   2.239
 2741W        W 6941   4.736  10.223  10.950
 2742W        W 6942   1.861   0.061  11.527
 2743W        W 6943   9.033   6.747  10.986
 2744W        W 6944   3.775   2.684   0.128
 2745W        W 6945   7.843   9.818   1.853
 2746W        W 6946  10.228   5.052  11.685
 2747W        W 6947  10.832   2.883   3.150
 2748W        W 6948   7.113   8.711  10.022
 2749W        W 6949  10.331   7.697   2.128
 2750W        W 6950   6.982   1.268  10.048
 2751W        W 6951   9.181   0.373   2.138
 2752W        W 6952   4.498  11.391   3.377
 2753W        W 6953   8.858   3.570  10.368
 2754W        W 6954  11.494   7.999   1.452
 2755W        W 6955   7.471   7.243   3.062
 2756W        W 6956   5.223  10.779   0.621
 2757W        W 6957  10.682   7.147  11.423
 2758W        W 6958   1.789   9.795   0.540
 2759W        W 6959   2.197   1.974  10.319
 2760W        W 6960   8.480   7.661   1.864
 2761W        W 6961   8.404   4.221  10.785
 2762W        W 6962   2.133   9.841   1.422
 2763W        W 6963   5.078   7.764   0.385
 2764W        W 6964   3.146  11.423  10.621
 2765W        W 6965   5.282   6.911   9.949
 2766W        W 6966   8.647   5.821   1.363
 2767W        W 6967   1.729   8.613  11.413
 2768W        W 6968   1.878   9.385   1.222
 2769W        W 6969   7.552   9.178   9.457
 2770W        W 6970   2.357   6.951   3.141
 2771W        W 6971   1.909   9.061   3.251
 2772W        W 6972   0.856   9.028   2.510
 2773W        W 6973   2.632  11.368  10.892
 2774W        W 6974   6.216  10.415  11.248
 2775W        W 6975   1.238  11.473   1.245
 2776W        W 6976   8.047   7.592   8.828
 2777W        W 6977   6.494   6.739  11.770
 2778W        W 6978   4.283   3.895   8.817
 2779W        W 6979   2.656  10.139   0.019
 2780W        W 6980   6.876   6.523   2.457
 2781W        W 6981   1.093   7.142   1.843
 2782W        W 6982   0.743   8.367   9.390
 2783W        W 6983   7.523   2.546   0.682
 2784W        W 6984   3.532   9.988   9.653
 2785W        W 6985   9.724   1.443   3.367
 2786W        W 6986   9.020   6.164   1.332
 2787W        W 6987   7.746   4.257   2.405
 2788W        W 6988   5.569   5.767   0.481
 2789W        W 6989   2.658   5.087   8.915
 2790W        W 6990   9.883  11.191   2.531
 2791W        W 6991   4.783   0.643   9.894
 2792W        W 6992   1.337   4.426  10.232
 2793W        W 6993   1.363   1.804   9.825
 2794W        W 6994   3.875   8.071   3.055
 2795W        W 6995   3.981   6.439   2.676
 2796W        W 6996  11.268   8.575   9.491
 2797W        W 6997   2.229   7.694   1.882
 2798W        W 6998   5.632   4.267  10.302
 2799W        W 6999   5.245  10.786   8.665
 2800W        W 7000  11.274   2.835  11.226
 2801W        W 7001  10.908   8.519   9.090
 2802W        W 7002   2.514   5.549   8.718
 2803W        W 7003   0.176   9.140  10.844
 2804W        W 7004   9.094   5.525   8.973
 2805W        W 7005   2.626   9.595   3.309
 2806W        W 7006   5.823   8.881  10.997
 2807W        W 7007   0.377   8.947   0.841
 2808W        W 7008   8.566   9.779  10.313
 2809W        W 7009   4.494   4.007  11.726
 2810W        W 7010   6.878   2.346  11.114
 2811W        W 7011   0.425   3.978  10.044
 2812W        W 7012   4.180   0.406   0.015
 2813W        W 7013   4.870   2.758  11.388
 2814W        W 7014   1.768   0.934  10.650
 2815W        W 7015   6.092   5.085   9.978
 2816W        W 7016   9.550   9.875   2.425
 2817W        W 7017  11.483   0.310   1.661
 2818W        W 7018   8.900   1.794   2.210
 2819W        W 7019  11.048   0.013   1.707
 2820W        W 7020   2.834   8.568  11.108
 2821W        W 7021   6.422   3.628  10.950
 2822W        W 7022  10.336   9.164  11.350
 2823W        W 7023   4.106   1.493   3.321
 2824W        W 7024   5.182   4.177   0.015
 2825W        W 7025   1.881   1.872   3.120
 2826W        W 7026   3.293   8.608  11.336
 2827W        W 7027   6.642   6.653   3.585
 2828W        W 7028   2.751   0.004   2.393
 2829W        W 7029   1.102   5.395   0.765
 2830W        W 7030   9.990   1.204  10.309
 2831W        W 7031   2.893   5.890  10.370
 2832W        W 7032   4.853   9.526   0.203
 2833W        W 7033   6.211   5.812   9.424
 2834W        W 7034   5.627   1.924   9.606
 2835W        W 7035   0.454   0.936   1.391
 2836W        W 7036   9.092   5.062   4.266
 2837W        W 7037   6.619   2.518   4.202
 2838W        W 7038   3.257   0.521   2.863
 2839W        W 7039   0.273   2.164   2.803
 2840W        W 7040   6.455  11.174   0.976
 2841W        W 7041   4.546   8.595   0.186
 2842W        W 7042   8.114  10.060   9.135
 2843W        W 7043   0.879  11.067   3.711
 2844W        W 7044   9.966  10.292  11.749
 2845W        W 7045   2.630   8.178   3.044
 2846W        W 7046   9.938   6.248   1.452
 2847W        W 7047   3.266   9.240   2.394
 2848W        W 7048   8.324   0.774   8.978
 2849W        W 7049   0.017   0.657   1.218
 2850W        W 7050   5.212  10.160  10.727
 2851W        W 7051   8.899   9.524   0.415
 2852W        W 7052   9.337   2.289  10.095
 2853W        W 7053   5.716   7.075   9.051
 2854W        W 7054   6.609   9.551   2.854
 2855W        W 7055   8.418   9.148   1.763
 2856W        W 7056   4.523   9.751  10.958
 2857W        W 7057   4.361   9.567  11.420
 2858W        W 7058   4.153  10.029   0.519
 2859W        W 7059   7.967  10.017   0.789
 2860W        W 7060   4.324   1.429  11.037
 2861W        W 7061   8.973   0.660   9.502
 2862W        W 7062   7.569  10.388   1.263
 2863W        W 7063   0.442   9.926   9.473
 2864W        W 7064  10.846   0.238   1.286
 2865W        W 7065   2.795   7.359  10.166
 2866W        W 7066   9.917   6.528   0.251
 2867W        W 7067  10.369   1.290   9.247
 2868W        W 7068   8.405   5.079  11.473
 2869W        W 7069   7.433   0.939   9.146
 2870W        W 7070   8.762   7.571  11.066
 2871W        W 7071   0.760   2.304   9.643
 2872W        W 7072   2.151   9.052   2.798
 2873W        W 7073   8.446   3.249   8.406
 2874W        W 7074   0.324   1.755  10.040
 2875W        W 7075   8.379   4.183   0.451
 2876W        W 7076   6.186   5.704   0.859
 2877W        W 7077   6.101   0.972   8.993
 2878W        W 7078   6.058   7.415   9.792
 2879W        W 7079   2.320   0.225  11.360
 2880W        W 7080   4.343   6.804   2.661
 2881W        W 7081   2.073   7.874   1.066
 2882W        W 7082   8.043   9.258   9.571
 2883W        W 7083   7.638   6.775  11.344
 2884W        W 7084  10.845  11.447   0.217
 2885W        W 7085   2.219   7.462   3.066
 2886W        W 7086   2.392   5.327   2.196
 2887W        W 7087   3.289   4.735   8.957
 2888W        W 7088   2.178   2.825   9.279
 2889W        W 7089  10.480   9.988   3.442
 2890W        W 7090   8.859   0.623   8.971
 2891W        W 7091   3.410  10.918   3.876
 2892W        W 7092   0.116   1.466   2.241
 2893W        W 7093   6.805   7.978  11.185
 2894W        W 7094   2.678  10.701  10.392
 2895W        W 7095   4.608   4.049   2.615
 2896W        W 7096   8.167   3.704   0.298
 2897W        W 7097   2.410   7.565   0.664
 2898W        W 7098   6.447   9.404  10.338
 2899W        W 7099   4.087   6.445  11.267
 2900W        W 7100  10.757   5.345  11.249
 2901W        W 7101   0.869   6.714  11.623
 2902W        W 7102   0.273   0.418   9.936
 2903W        W 7103   7.138  11.397   3.526
 2904W        W 7104   5.964   8.020  11.011
 2905W        W 7105   7.408   9.573   1.864
 2906W        W 7106   5.658  11.285   1.297
 2907W        W 7107   7.935   3.707  10.412
 2908W        W 7108   2.248   1.191   2.773
 2909W        W 7109   0.053   4.167   2.586
 2910W        W 7110   4.063   3.430   8.802
 2911W        W 7111   9.412   6.564   3.586
 2912W        W 7112   5.362  11.292   1.720
 2913W        W 7113   9.027   2.296   1.369
 2914W        W 7114   8.909   9.036   1.570
 2915W        W 7115   9.978   0.454   2.380
 2916W        W 7116   0.341   9.296   1.208
 2917W        W 7117   0.675   9.518   1.983
 2918W        W 7118   5.037   9.600   8.472
 2919W        W 7119   0.372   8.095   3.207
 2920W        W 7120   8.057   9.511   2.491
 2921W        W 7121  11.320  11.373   2.534
 2922W        W 7122   7.040   2.787   4.059
 2923W        W 7123   4.785  10.779  10.053
 2924W        W 7124   6.439   2.371  10.847
 2925W        W 7125   5.197   6.911   3.580
 2926W        W 7126   4.055  11.070  11.200
 2927W        W 7127   2.749  11.128   2.030
 2928W        W 7128  10.580   0.452   0.904
 2929W        W 7129   5.250   2.773   0.659
 2930W        W 7130   0.233   6.941   1.268
 2931W        W 7131   0.606   1.784   2.896
 2932W        W 7132   0.935   7.677  10.009
 2933W        W 7133   1.532   2.035  10.273
 2934W        W 7134   0.164   9.544   2.121
 2935W        W 7135   2.887   2.090   0.061
 2936W        W 7136   8.381   6.756   0.027
 2937W        W 7137  10.623   8.570  10.398
 2938W        W 7138   2.013   9.359  11.773
 2939W        W 7139   6.203  10.479  11.788
 2940W        W 7140   0.293   3.382   2.360
 2941W        W 7141   7.324   2.415  11.411
 2942W        W 7142   3.304   5.683   2.871
 2943W        W 7143   3.624   4.312   3.042
 2944W        W 7144  11.054   0.902  10.957
 2945W        W 7145   3.197   5.169   2.912
 2946W        W 7146   0.870   9.509  10.329
 2947W        W 7147  10.364   0.429   0.025
 2948W        W 7148   5.110  10.175   2.551
 2949W        W 7149   9.554   5.005   2.671
 2950W        W 7150   9.573   7.004   8.620
 2951W        W 7151   2.655   1.950   1.856
 2952W        W 7152   3.877   1.445   9.458
 2953W        W 7153  10.895   5.683   0.743
 2954W        W 7154   3.979  11.292   9.956
 2955W        W 7155   2.706  10.304  10.716
 2956W        W 7156   0.227   5.214   3.272
 2957W        W 7157   7.544   3.365  10.477
 2958W        W 7158   9.855   9.620   9.545
 2959W        W 7159   5.136   9.343   8.921
 2960W        W 7160   5.511   6.338  11.791
 2961W        W 7161   1.232   3.241   0.181
 2962W        W 7162   6.024   1.731   2.450
 2963W        W 7163   0.908  10.355   1.881
 2964W        W 7164   3.613   1.367   2.381
 2965W        W 7165   9.304   2.743   0.981
 2966W        W 7166   7.425   5.033   3.770
 2967W        W 7167   5.125   6.080   0.512
 2968W        W 7168   4.938  10.083   1.701
 2969W        W 7169   9.368   8.143   1.380
 2970W        W 7170   7.941   9.082   9.101
 2971W        W 7171   3.830   5.547   0.242
 2972W        W 7172   1.739   3.138  10.949
 2973W        W 7173   8.972   8.833   0.288
 2974W        W 7174   2.917  10.337   9.075
 2975W        W 7175   9.044   1.479   2.624
 2976W        W 7176   5.019   7.381   8.894
 2977W        W 7177  10.773   3.265   0.895
 2978W        W 7178   2.724   1.944   2.660
 2979W        W 7179   5.859   3.324   9.363
 2980W        W 7180  10.017   9.419   0.861
 2981W        W 7181   8.858   2.941   0.755
 2982W        W 7182   0.155   4.041  11.685
 2983W        W 7183   5.212   1.436  11.071
 2984W        W 7184   2.169   4.272   9.587
 2985W        W 7185   6.743   2.118   2.408
 2986W        W 7186   0.505   0.445  10.380
 2987W        W 7187  10.160   7.095   9.488
 2988W        W 7188   3.529   6.729   9.820
 2989W        W 7189   6.159   6.448   9.962
 2990W        W 7190   2.689   6.769   8.259
 2991W        W 7191   0.343   0.044   1.205
 2992W        W 7192   2.086   4.301   9.079
 2993W        W 7193  11.372   3.890   0.795
 2994W        W 7194   3.700   0.841   9.079
 2995W        W 7195   6.479   4.528  10.777
 2996W        W 7196   8.620  10.481   9.044
 2997W        W 7197   0.121   0.402   3.187
 2998W        W 7198   8.891   4.891  11.501
 2999W        W 7199   9.858  11.418  11.623
 3000W        W 7200   0.465   3.204   8.971
 3001W        W 7201   2.177   0.020  11.972
 3002W        W 7202  10.922   0.418   0.448
 3003W        W 7203   4.898   1.430   9.620
 3004W        W 7204   0.931   1.392   2.865
 3005W        W 7205   4.380   2.376   2.648
 3006W        W 7206   7.266   2.866   3.098
 3007W        W 7207   3.491   9.304   2.829
 3008W        W 7208   4.326   3.683  10.551
 3009W        W 7209  10.724   0.755  10.558
 3010W        W 7210   9.879   7.705   2.965
 3011W        W 7211   1.243   5.784   1.864
 3012W        W 7212   0.740   8.507  11.230
 3013W        W 7213   3.015   5.987   9.872
 3014W        W 7214   1.337   3.160   1.818
 3015W        W 7215   7.488   2.093   0.922
 3016W        W 7216   1.415   8.617   0.950
 3017W        W 7217   4.134   9.106  10.468
 3018W        W 7218   0.655   8.374   3.700
 3019W        W 7219   3.738   4.945  10.332
 3020W        W 7220   9.620   5.136  11.781
 3021W        W 7221   9.917   8.151   2.689
 3022W        W 7222   2.298   1.928   9.247
 3023W        W 7223   5.683   9.028   2.535
 3024W        W 7224   5.105   3.805  10.926
 3025W        W 7225   6.696   2.690   8.562
 3026W        W 7226   4.260   1.123  11.901
 3027W        W 7227   6.521   1.683   8.753
 3028W        W 7228   3.248   5.299  11.054
 3029W        W 7229   2.562   0.611   1.103
 3030W        W 7230   3.819   5.846   1.487
 3031W        W 7231   3.635   4.372   1.170
 3032W        W 7232   5.101   5.694  10.228
 3033W        W 7233   0.708   8.001  11.374
 3034W        W 7234   8.694   7.464  10.366
 3035W        W 7235   4.614   7.946  11.039
 3036W        W 7236  11.198  11.027   1.806
 3037W        W 7237  10.069   5.181   2.435
 3038W        W 7238   6.275   3.280   9.062
 3039W        W 7239   1.376   5.723  10.229
 3040W        W 7240   2.632   1.717  10.351
 3041W        W 7241  10.164   9.592   1.629
 3042W        W 7242   2.620   0.208  11.824
 3043W        W 7243   0.192   2.735   0.840
 3044W        W 7244   3.158   7.549   1.679
 3045W        W 7245   3.832   9.856   3.269
 3046W        W 7246   0.871  10.873  11.968
 3047W        W 7247   6.277   7.687   0.667
 3048W        W 7248   6.019   1.391   8.461
 3049W        W 7249   9.844   5.166  11.313
 3050W        W 7250   9.197   7.935   9.036
 3051W        W 7251   7.972   4.711   2.522
 3052W        W 7252   6.752   8.998  11.189
 3053W        W 7253   7.711   3.640   2.838
 3054W        W 7254   3.177  10.915  11.919
 3055W        W 7255   7.749   7.577  10.358
 3056W        W 7256  11.072  11.453   3.246
 3057W        W 7257   7.067   0.571   9.070
 3058W        W 7258   0.467  10.852  11.534
 3059W        W 7259   9.937   7.594   9.635
 3060W        W 7260   0.910   0.461   0.675
 3061W        W 7261   2.362   7.214   9.899
 3062W        W 7262   1.231   1.182   9.166
 3063W        W 7263   4.372   2.652  11.458
 3064W        W 7264   3.697  11.334   9.080
 3065W        W 7265  10.417   8.169  11.502
 3066W        W 7266  10.941   2.753   0.189
 3067W        W 7267   9.923   4.833   3.460
 3068W        W 7268   8.842   7.238   0.266
 3069W        W 7269   2.790   1.820  11.633
 3070W        W 7270   7.469  10.400   9.807
 3071W        W 7271   9.466   8.882   8.967
 3072W        W 7272   7.419   6.731   3.120
 3073W        W 7273   5.489  10.768   1.925
 3074W        W 7274   1.386   5.255  11.435
 3075W        W 7275   0.030  10.078   2.000
 3076W        W 7276   5.531   0.627  10.153
 3077W        W 7277   5.807   7.544   0.793
 3078W        W 7278   5.270   3.701   2.124
 3079W        W 7279  10.466   1.376   2.873
 3080W        W 7280   8.154   5.057  10.457
 3081W        W 7281   6.706  10.477   1.253
 3082W        W 7282   6.736   3.793  11.312
 3083W        W 7283   6.064  10.997   1.278
 3084W        W 7284   9.879   4.704  11.574
 3085W        W 7285  11.337   9.228   3.479
 3086W        W 7286   0.485   5.897  10.841
 3087W        W 7287   7.441   8.551  11.454
 3088W        W 7288   5.128   5.733   9.714
 3089W        W 7289   8.133  11.496   3.527
 3090W        W 7290   2.651  10.216  10.229
 3091W        W 7291   8.322   0.779  11.220
 3092W        W 7292   9.394   7.369   1.063
 3093W        W 7293   8.926   1.577   9.292
 3094W        W 7294   5.577   4.239   0.946
 3095W        W 7295   2.899   4.679   8.634
 3096W        W 7296   5.161  10.946   9.738
 3097W        W 7297   1.854   6.567   2.780
 3098W        W 7298   4.150  11.500   8.923
 3099W        W 7299   6.544   9.904   8.923
 3100W        W 7300   5.823   6.021  11.545
 3101W        W 7301   0.859   2.706  10.780
 3102W        W 7302   4.601   5.427   1.425
 3103W        W 7303   4.266   7.872  10.072
 3104W        W 7304   2.852   7.492   2.079
 3105W        W 7305   1.404   8.239  10.552
 3106W        W 7306   7.539   2.745   1.665
 3107W        W 7307  11.385   1.283   0.022
 3108W        W 7308   8.020   0.933   1.961
 3109W        W 7309   6.100   0.458  11.787
 3110W        W 7310   5.307  10.508   1.043
 3111W        W 7311   8.083   2.477  11.897
 3112W        W 7312   7.082   4.006   1.066
 3113W        W 7313   3.206   8.710   9.393
 3114W        W 7314   3.579   5.768  11.851
 3115W        W 7315   5.721  10.805   0.379
 3116W        W 7316   4.057   0.862  10.380
 3117W        W 7317  11.431   5.176   9.790
 3118W        W 7318   6.328   4.738  11.747
 3119W        W 7319   1.247   8.549   9.379
 3120W        W 7320   3.296   7.958   0.393
 3121W        W 7321   3.293   8.199   1.301
 3122W        W 7322   1.786  11.212  10.561
 3123W        W 7323   4.590   0.001   0.920
 3124W        W 7324   8.433  11.297   2.586
 3125W        W 7325   6.142   1.336   0.755
 3126W        W 7326   0.895   7.250   3.957
 3127W        W 7327   0.357   3.788   0.962
 3128W        W 7328   3.765   3.169  11.921
 3129W        W 7329   1.638  10.293   9.019
 3130W        W 7330   3.568  11.257   3.087
 3131W        W 7331  11.025   8.743   0.573
 3132W        W 7332   5.729   2.272   9.231
 3133W        W 7333   2.765   4.888   3.815
 3134W        W 7334   6.712  10.521   9.102
 3135W        W 7335   5.739   2.820  10.004
 3136W        W 7336   4.031   4.651   9.868
 3137W        W 7337   4.544   9.096   0.291
 3138W        W 7338   7.762   8.321   9.251
 3139W        W 7339   0.224   0.870  10.386
 3140W        W 7340  11.453   1.175   1.353
 3141W        W 7341  11.151  10.727   3.531
 3142W        W 7342   1.272  11.359  10.502
 3143W        W 7343   6.987   7.885   2.559
 3144W        W 7344   6.567   4.544   2.657
 3145W        W 7345   1.041   4.433   1.415
 3146W        W 7346   4.267  10.340   1.911
 3147W        W 7347   0.643  10.082   0.185
 3148W        W 7348   1.402   9.501  11.021
 3149W        W 7349   8.966   1.076   9.175
 3150W        W 7350   2.878   0.254   0.278
 3151W        W 7351  11.278   8.730   3.310
 3152W        W 7352  11.152   4.549   3.482
 3153W        W 7353  11.158   4.346   9.908
 3154W        W 7354   1.897   1.866   0.029
 3155W        W 7355   6.978   9.792   0.922
 3156W        W 7356   5.317   8.945  10.984
 3157W        W 7357   1.870   3.881   0.858
 3158W        W 7358  10.475   8.463  11.937
 3159W        W 7359   4.401  10.011   9.228
 3160W        W 7360   2.557   1.197   2.364
 3161W        W 7361   8.578   5.560   8.884
 3162W        W 7362   1.554  10.358   0.967
 3163W        W 7363   3.744   1.748  10.430
 3164W        W 7364   5.643   1.660   1.585
 3165W        W 7365   8.164   1.050   2.442
 3166W        W 7366  10.604   9.367   0.176
 3167W        W 7367   6.269   5.102  10.467
 3168W        W 7368   3.588  10.948   9.450
 3169W        W 7369   8.486   2.645   9.988
 3170W        W 7370   2.300   8.654   9.123
 3171W        W 7371  10.895   9.551   3.442
 3172W        W 7372   9.390   4.355   9.598
 3173W        W 7373   5.725   8.031   9.097
 3174W        W 7374   3.156   6.981   1.008
 3175W        W 7375   9.840   4.528  10.136
 3176W        W 7376   2.824   2.797   0.496
 3177W        W 7377   5.509   2.809   3.313
 3178W        W 7378   6.974   0.781  10.246
 3179W        W 7379  11.465  10.961   2.265
 3180W        W 7380   2.056   6.142  11.875
 3181W        W 7381  11.271   7.581   1.627
 3182W        W 7382   1.695   0.688   9.166
 3183W        W 7383  10.607   8.864   1.401
 3184W        W 7384   3.260   8.885   1.989
 3185W        W 7385   6.030   8.283   1.795
 3186W        W 7386   0.337  11.021   1.299
 3187W        W 7387   6.033  10.900  11.383
 3188W        W 7388   9.867   2.195  11.783
 3189W        W 7389   8.882   0.882  10.741
 3190W        W 7390   8.609   3.727   2.657
 3191W        W 7391   1.253   6.520   3.489
 3192W        W 7392   8.871   1.231   9.668
 3193W        W 7393   3.814   7.806  11.430
 3194W        W 7394   8.304   9.582   2.038
 3195W        W 7395   9.328   7.833   1.856
 3196W        W 7396   0.956   9.864   9.387
 3197W        W 7397   8.872   4.561   1.297
 3198W        W 7398   1.103  11.357  11.942
 3199W        W 7399   1.208   1.045   2.563
 3200W        W 7400   5.781   3.237   8.335
 3201W        W 7401   9.945   6.148   9.859
 3202W        W 7402   5.627   0.799   2.222
 3203W        W 7403   2.718   7.188  11.717
 3204W        W 7404   5.749  11.319   0.442
 3205W        W 7405   2.641   2.895   9.454
 3206W        W 7406   3.786   2.663   3.131
 3207W        W 7407  10.963   8.970   9.283
 3208W        W 7408   2.262  11.294   2.666
 3209W        W 7409   9.036   4.725   9.654
 3210W        W 7410   8.071   9.470   1.552
 3211W        W 7411   7.541   8.897   3.071
 3212W        W 7412   2.014   7.633   2.626
 3213W        W 7413   8.701  11.345   0.372
 3214W        W 7414   0.756   1.575  11.334
 3215W        W 7415   8.424   0.574   1.656
 3216W        W 7416   7.526   8.001   0.995
 3217W        W 7417   4.074   2.802   9.523
 3218W        W 7418   0.809   8.841   0.063
 3219W        W 7419  10.785   4.859  11.441
 3220W        W 7420  11.261   8.176   0.379
 3221W        W 7421   2.719   1.547  11.196
 3222W        W 7422   6.586   0.861   2.707
 3223W        W 7423   4.237   0.983   3.352
 3224W        W 7424  10.824  10.790  10.890
 3225W        W 7425   7.274   1.350   9.595
 3226W        W 7426  10.924   2.553   9.726
 3227W        W 7427   9.447   6.633   0.322
 3228W        W 7428   1.871   2.870   2.690
 3229W        W 7429   3.455   4.371   0.457
 3230W        W 7430   9.565   6.539   0.818
 3231W        W 7431  10.213   1.184   3.289
 3232W        W 7432   7.508   9.440  11.288
 3233W        W 7433   9.929   9.566  10.549
 3234W        W 7434   3.898   9.982   9.290
 3235W        W 7435   3.457   7.978   1.762
 3236W        W 7436  10.621   1.871   9.199
 3237W        W 7437  10.797   0.942   3.475
 3238W        W 7438   3.608   8.945   0.552
 3239W        W 7439   6.982   4.235   2.798
 3240W        W 7440   3.128   3.217   0.447
 3241W        W 7441   6.700   9.149   8.577
 3242W        W 7442   5.985   5.069  11.970
 3243W        W 7443   4.302   8.644   2.566
 3244W        W 7444   6.239  11.302   0.310
 3245W        W 7445   3.659   6.497   2.137
 3246W        W 7446   2.797   4.322   0.962
 3247W        W 7447   1.222  10.015   1.226
 3248W        W 7448  11.330  10.290   9.942
 3249W        W 7449   8.114  10.327  11.287
 3250W        W 7450   0.941   5.604   9.981
 3251W        W 7451   8.442   7.082   9.796
 3252W        W 7452   0.789   7.767  10.910
 3253W        W 7453   3.968   3.200   0.838
 3254W        W 7454   6.385   5.732  10.578
 3255W        W 7455  10.377   9.780   0.867
 3256W        W 7456   0.798   9.966   0.667
 3257W        W 7457   0.402  11.034   9.942
 3258W        W 7458   4.659   4.391  10.041
 3259W        W 7459   0.844   1.240  11.704
 3260W        W 7460  11.481   0.157   0.695
 3261W        W 7461  10.843   1.367   3.203
 3262W        W 7462   1.911  10.382   3.120
 3263W        W 7463   6.297   5.992   1.265
 3264W        W 7464   0.325  11.466  10.236
 3265W        W 7465  10.335   0.377   2.766
 3266W        W 7466   5.354  10.078   0.753
 3267W        W 7467   5.986  11.333   2.954
 3268W        W 7468   2.818   9.372   9.162
 3269W        W 7469   8.426   9.222   3.282
 3270W        W 7470   9.952   2.824   0.412
 3271W        W 7471   9.395   0.053   1.415
 3272W        W 7472   5.001  11.481   2.612
 3273W        W 7473   9.675  11.481   0.097
 3274W        W 7474   8.356   8.692   1.961
 3275W        W 7475   3.344   8.425   2.748
 3276W        W 7476   0.369   6.054   0.729
 3277W        W 7477   4.223   6.560   8.590
 3278W        W 7478   5.040   2.379   9.975
 3279W        W 7479   1.157   8.771   2.886
 3280W        W 7480   2.618   8.668   3.263
 3281W        W 7481   0.359  11.002   8.433
 3282W        W 7482   7.487   1.425   1.155
 3283W        W 7483   1.425   2.092   3.256
 3284W        W 7484   9.954   7.166   9.942
 3285W        W 7485   1.285   0.588   2.364
 3286W        W 7486   2.677   3.472   1.060
 3287W        W 7487  11.358   6.921   0.381
 3288W        W 7488   7.452   8.192   0.291
 3289W        W 7489   6.982  10.180   0.052
 3290W        W 7490   0.461   0.440   1.492
 3291W        W 7491   5.632   3.446   0.172
 3292W        W 7492   8.644   6.034  10.004
 3293W        W 7493   2.242   4.117   1.787
 3294W        W 7494   0.402   2.952  11.848
 3295W        W 7495   7.653   0.097   1.690
 3296W        W 7496   1.921   5.176   2.297
 3297W        W 7497   7.466   2.631   2.175
 3298W        W 7498   1.434   6.925   9.524
 3299W        W 7499   8.509   0.248   2.841
 3300W        W 7500   1.550   9.456   0.843
 3301W        W 7501  11.340   1.621   0.408
 3302W        W 7502   6.508   7.139   9.640
 3303W        W 7503   9.058   8.914  11.252
 3304W        W 7504   3.704   4.707   0.752
 3305W        W 7505   1.796   0.458  10.014
 3306W        W 7506   8.381   8.883   9.429
 3307W        W 7507   1.041   8.015  11.761
 3308W        W 7508   0.318   5.599  10.420
 3309W        W 7509   2.945   9.542   9.952
 3310W        W 7510  10.826   0.653   8.936
 3311W        W 7511   3.236   8.192  10.081
 3312W        W 7512   7.448   0.554   0.270
 3313W        W 7513  11.370   6.522  10.454
 3314W        W 7514   3.139   1.189   1.501
 3315W        W 7515   3.177   7.698  10.805
 3316W        W 7516   6.753   9.046   2.444
 3317W        W 7517   7.978   0.497   0.278
 3318W        W 7518   1.884   3.081   1.274
 3319W        W 7519   4.918  10.348   0.519
 3320W        W 7520  10.279   3.710   8.688
 3321W        W 7521   3.891   2.326   0.908
 3322W        W 7522   7.533   5.655   1.585
 3323W        W 7523   1.354   8.918   1.930
 3324W        W 7524   6.202  10.108   1.193
 3325W        W 7525  10.571   6.084   0.668
 3326W        W 7526   4.050   2.143   3.590
 3327W        W 7527   9.784   3.058   1.850
 3328W        W 7528   0.217   4.534   2.964
 3329W        W 7529   0.489   3.991  10.554
 3330W        W 7530   6.062  10.573   1.028
 3331W        W 7531  10.485  11.197   0.478
 3332W        W 7532  10.365  10.482   9.233
 3333W        W 7533   4.364   6.024  11.206
 3334W        W 7534   9.354   1.009   9.550
 3335W        W 7535   3.044   1.458  10.568
 3336W        W 7536   4.761   6.742   9.534
 3337W        W 7537   4.851   1.249   2.866
 3338W        W 7538  10.732   3.628   2.680
 3339W        W 7539   0.620   9.052  10.520
 3340W        W 7540   8.501   1.443   8.487
 3341W        W 7541   0.752   0.474   3.218
 3342W        W 7542   0.407   2.210   8.745
 3343W        W 7543   6.172   0.040   9.825
 3344W        W 7544   4.121   1.582   1.301
 3345W        W 7545   9.951   6.694  11.248
 3346W        W 7546   4.068   5.016   0.032
 3347W        W 7547   8.053  10.528   1.442
 3348W        W 7548   7.239   5.332   1.046
 3349W        W 7549  11.374   6.011   2.387
 3350W        W 7550   9.404   8.386   2.647
 3351W        W 7551   0.574   7.508  11.307
 3352W        W 7552   7.468   6.060   1.919
 3353W        W 7553   3.048   9.678   3.562
 3354W        W 7554   6.782   4.245   2.282
 3355W        W 7555   3.459   6.528   2.629
 3356W        W 7556   4.984   7.572   1.251
 3357W        W 7557   0.790   8.454  11.736
 3358W        W 7558   7.417   9.915  10.014
 3359W        W 7559   0.909   5.735  10.501
 3360W        W 7560   8.016   8.914   3.289
 3361W        W 7561   5.690   3.120  11.180
 3362W        W 7562  11.352   2.855   2.982
 3363W        W 7563   5.165  10.537  11.058
 3364W        W 7564   2.282   8.553   0.771
 3365W        W 7565   0.373   1.776  11.599
 3366W        W 7566   2.903   7.174  10.773
 3367W        W 7567   8.358   5.654   2.776
 3368W        W 7568   0.989   8.034   1.489
 3369W        W 7569   6.733   9.155   4.156
 3370W        W 7570   1.177  11.123   0.403
 3371W        W 7571   6.639   3.026   0.048
 3372W        W 7572   9.164   6.428   1.799
 3373W        W 7573   2.827   2.938   1.940
 3374W        W 7574   6.546   4.368   9.831
 3375W        W 7575   3.217   3.480   3.161
 3376W        W 7576   4.759   0.745  11.309
 3377W        W 7577   9.382   4.121  10.605
 3378W        W 7578   7.801   3.372   8.692
 3379W        W 7579   3.829   6.504   9.474
 3380W        W 7580  10.331   9.494  11.763
 3381W        W 7581   3.744   4.130   2.587
 3382W        W 7582   4.489   7.330   9.498
 3383W        W 7583   6.947   0.487   9.595
 3384W        W 7584   0.992   6.216   8.776
 3385W        W 7585   1.312   2.468  10.891
 3386W        W 7586   4.900   6.555  10.633
 3387W        W 7587   9.378   2.311  11.640
 3388W        W 7588  10.918   6.728   2.649
 3389W        W 7589   4.233   5.263   1.886
 3390W        W 7590   5.000   2.349   1.961
 3391W        W 7591   5.403   4.963   2.560
 3392W        W 7592   9.836   9.978  11.325
 3393W        W 7593   4.417   7.056   0.597
 3394W        W 7594   8.247   6.994   3.352
 3395W        W 7595  10.796  11.055  11.853
 3396W        W 7596  10.483   6.123   3.251
 3397W        W 7597   5.299   2.117   8.998
 3398W        W 7598   7.029   1.020   8.816
 3399W        W 7599   7.021   2.825  11.284
 3400W        W 7600   6.704   7.037  10.215
 3401W        W 7601   5.203   5.655   0.819
 3402W        W 7602  10.010   7.165  10.836
 3403W        W 7603   9.079   6.237   9.801
 3404W        W 7604   4.123   1.934   1.660
 3405W        W 7605   2.946   8.650   9.912
 3406W        W 7606   0.470   9.465   8.515
 3407W        W 7607   9.884   8.667   8.751
 3408W        W 7608   6.481   9.620   9.355
 3409W        W 7609   3.111   1.669   1.849
 3410W        W 7610   8.415   2.527   8.537
 3411W        W 7611   5.275   1.300   9.289
 3412W        W 7612   4.206   3.072   9.954
 3413W        W 7613   9.521  10.274  10.937
 3414W        W 7614   3.042   3.138  10.654
 3415W        W 7615   3.603   8.552   0.239
 3416W        W 7616   1.413   2.599   9.895
 3417W        W 7617   1.817   7.701  10.394
 3418W        W 7618   4.106   6.742  10.846
 3419W        W 7619   7.817   6.957   1.532
 3420W        W 7620   1.901   2.844   1.779
 3421W        W 7621   8.423   6.311   0.840
 3422W        W 7622   6.687  11.248   2.421
 3423W        W 7623   2.644   2.573   9.069
 3424W        W 7624   2.320   6.884   9.482
 3425W        W 7625   4.295   0.456  10.591
 3426W        W 7626   3.100  10.825   9.550
 3427W        W 7627   7.113   4.995   0.060
 3428W        W 7628  10.788   9.007   0.948
 3429W        W 7629   9.580   1.498   2.641
 3430W        W 7630   4.367   9.810   2.844
 3431W        W 7631   0.711   0.942   2.711
 3432W        W 7632   6.678  10.551   3.209
 3433W        W 7633  10.917  10.899   0.326
 3434W        W 7634  10.927   8.048   2.760
 3435W        W 7635   5.828   6.663  10.904
 3436W        W 7636   8.981   4.419  11.377
 3437W        W 7637   2.188   8.363   9.520
 3438W        W 7638   4.165   3.010   3.247
 3439W        W 7639   2.473   2.222   2.276
 3440W        W 7640   4.189   3.564  10.081
 3441W        W 7641   6.569  10.480  10.156
 3442W        W 7642   3.493   8.781   2.428
 3443W        W 7643   6.503   5.219  11.955
 3444W        W 7644   9.889   2.681   9.593
 3445W        W 7645  10.828   8.941  11.241
 3446W        W 7646   1.304   5.136   0.363
 3447W        W 7647   7.224   6.977   0.964
 3448W        W 7648   2.340   1.079   1.916
 3449W        W 7649   8.736   7.782   0.867
 3450W        W 7650   7.012   3.915  11.729
 3451W        W 7651   7.139   8.545   3.361
 3452W        W 7652   9.783   4.573   1.046
 3453W        W 7653   8.637  11.222   1.288
 3454W        W 7654   1.675   0.832   9.646
 3455W        W 7655   8.162   0.911   3.539
 3456W        W 7656   8.222  10.476  10.814
 3457W        W 7657  10.857   5.762   3.111
 3458W        W 7658   2.353   5.092   3.597
 3459W        W 7659   5.287   7.870  10.289
 3460W        W 7660   1.774   2.694   9.574
 3461W        W 7661   0.088   1.757  10.554
 3462W        W 7662   9.380   2.732   3.035
 3463W        W 7663   3.414   1.252   9.282
 3464W        W 7664   7.123   3.936   1.966
 3465W        W 7665   8.785   5.079   8.920
 3466W        W 7666   0.250   8.306   0.278
 3467W        W 7667   7.682   7.954  11.258
 3468W        W 7668   5.200   6.898   2.391
 3469W        W 7669   2.453   9.490  10.146
 3470W        W 7670   6.714   6.906  10.708
 3471W        W 7671   5.088   4.138   2.315
 3472W        W 7672   0.044   9.638  10.913
 3473W        W 7673   5.897   7.520   3.151
 3474W        W 7674  11.408   8.800   9.052
 3475W        W 7675   7.725   8.579  11.910
 3476W        W 7676   5.127   9.361   1.860
 3477W        W 7677   1.731   9.511   3.016
 3478W        W 7678   3.032   5.261   0.619
 3479W        W 7679   6.034   6.044   0.029
 3480W        W 7680  10.858   4.550   9.540
 3481W        W 7681   8.999   6.697   1.407
 3482W        W 7682   0.763  10.758   1.236
 3483W        W 7683   5.992   0.806  10.348
 3484W        W 7684  11.457   1.303  10.820
 3485W        W 7685   9.567   5.412  10.929
 3486W        W 7686   4.338   9.489   9.468
 3487W        W 7687  10.332   2.810   8.935
 3488W        W 7688   4.036   5.553   2.367
 3489W        W 7689  10.832   8.179  10.111
 3490W        W 7690   4.716   0.844   3.187
 3491W        W 7691   1.396   6.131  11.113
 3492W        W 7692   6.014   6.463  11.773
 3493W        W 7693   9.771   4.024  10.273
 3494W        W 7694   8.324   1.488   0.838
 3495W        W 7695   5.681   5.661   0.974
 3496W        W 7696   3.573   8.305   2.200
 3497W        W 7697   8.542   4.702   3.185
 3498W        W 7698   1.197   8.652   0.435
 3499W        W 7699   8.880  10.463   0.447
 3500W        W 7700   0.780   4.775   2.203
 3501W        W 7701   0.522  10.563  10.937
 3502W        W 7702  10.064   1.694   9.573
 3503W        W 7703   4.288   3.763   9.626
 3504W        W 7704   2.360   3.124   3.276
 3505W        W 7705   3.238   9.590   8.797
 3506W        W 7706   2.375   5.323  10.968
 3507W        W 7707   9.474   7.024   0.670
 3508W        W 7708   7.510   4.580   2.758
 3509W        W 7709  11.074  11.393   8.505
 3510W        W 7710   1.597   8.640   3.193
 3511W        W 7711  10.845   8.369   1.311
 3512W        W 7712   6.763   5.270   1.843
 3513W        W 7713  11.309   5.738   1.917
 3514W        W 7714   8.302  11.179  10.519
 3515W        W 7715   2.802   5.051  10.885
 3516W        W 7716   2.283   6.649  11.283
 3517W        W 7717   1.595   8.516   2.303
 3518W        W 7718   3.084  10.543   0.808
 3519W        W 7719   3.245   5.607   8.986
 3520W        W 7720   1.008  10.717  11.004
 3521W        W 7721   1.814   6.667  11.514
 3522W        W 7722   8.179   8.421   3.170
 3523W        W 7723   4.607   9.045   9.402
 3524W        W 7724  11.341   3.347   9.570
 3525W        W 7725   3.167   4.155   0.015
 3526W        W 7726   9.045   2.317   2.272
 3527W        W 7727   1.250   0.712  11.363
 3528W        W 7728   3.150   4.779   9.557
 3529W        W 7729   5.229   1.394   0.430
 3530W        W 7730   9.330   4.680   2.312
 3531W        W 7731   0.466   0.242   2.844
 3532W        W 7732   0.644   6.339  11.235
 3533W        W 7733   3.678   2.705   2.613
 3534W        W 7734   1.111  10.383   0.722
 3535W        W 7735   6.148   7.696   8.945
 3536W        W 7736   0.729   3.321  11.999
 3537W        W 7737   1.719   9.821   8.827
 3538W        W 7738   4.279   1.855   0.390
 3539W        W 7739   3.363   4.562  10.338
 3540W        W 7740  10.361  10.884   0.070
 3541W        W 7741   6.513   9.438  11.341
 3542W        W 7742   8.157   2.179  11.484
 3543W        W 7743   0.966   3.693  11.233
 3544W        W 7744   4.624   1.514  11.921
 3545W        W 7745   5.236  10.633   9.197
 3546W        W 7746   8.876  10.431   2.261
 3547W        W 7747  11.163   5.218   0.013
 3548W        W 7748   8.035  10.393   2.864
 3549W        W 7749   9.364   5.548   2.483
 3550W        W 7750   1.615   1.849  11.600
 3551W        W 7751   6.396   9.404   8.886
 3552W        W 7752   5.916  10.443  10.391
 3553W        W 7753   7.891   8.888   1.763
 3554W        W 7754  10.980   7.403   1.260
 3555W        W 7755   1.865   8.947   2.380
 3556W        W 7756   4.944   8.288  11.735
 3557W        W 7757  10.186  11.409   0.105
 3558W        W 7758   6.690  11.275   1.894
 3559W        W 7759   4.801   9.931   9.521
 3560W        W 7760   8.612  10.334  11.098
 3561W        W 7761   5.378   7.322   3.291
 3562W        W 7762   6.156   3.696   1.339
 3563W        W 7763   2.728   3.042  11.078
 3564W        W 7764  11.405   5.608   0.839
 3565W        W 7765   8.009   3.249   9.594
 3566W        W 7766   5.160  10.813   3.294
 3567W        W 7767   1.265   0.089   2.236
 3568W        W 7768   1.359   9.125   3.217
 3569W        W 7769   7.157   7.394   2.064
 3570W        W 7770   4.093   6.483  11.792
 3571W        W 7771  11.017   1.866   1.748
 3572W        W 7772   9.437   0.104   3.778
 3573W        W 7773   6.192   2.477   8.674
 3574W        W 7774   6.720   9.932   2.516
 3575W        W 7775   3.583   3.544   8.946
 3576W        W 7776   3.124  10.046  10.001
 3577W        W 7777   8.015   0.244   0.779
 3578W        W 7778   9.998  10.341   8.876
 3579W        W 7779   8.692   2.382   2.639
 3580W        W 7780   0.276   2.391   1.224
 3581W        W 7781   3.690   0.340   9.219
 3582W        W 7782  11.432  11.031   8.704
 3583W        W 7783  11.029   2.316   2.293
 3584W        W 7784   1.859   6.035  10.897
 3585W        W 7785   3.437   8.593   9.839
 3586W        W 7786   2.574   7.097   1.926
 3587W        W 7787   9.921   4.801   0.609
 3588W        W 7788   7.691   8.767   2.268
 3589W        W 7789  11.370  10.571   1.961
 3590W        W 7790   0.969   5.396   1.628
 3591W        W 7791   6.936   1.852   0.633
 3592W        W 7792   1.986   2.267  11.719
 3593W        W 7793   6.528   5.614   1.497
 3594W        W 7794   9.171   3.459  11.203
 3595W        W 7795   3.528   7.430   2.623
 3596W        W 7796   3.583   7.086  10.175
 3597W        W 7797   7.246   6.138  11.005
 3598W        W 7798   4.026   9.401   8.545
 3599W        W 7799   6.206   2.832   0.752
 3600W        W 7800   9.531   9.062  11.763
 3601W        W 7801   2.396   9.142   8.957
 3602W        W 7802   9.234   5.767   3.018
 3603W        W 7803   4.976   6.674  11.243
 3604W        W 7804   4.336   4.744  11.196
 3605W        W 7805   5.370   8.852  11.896
 3606W        W 7806   3.233   7.898   2.241
 3607W        W 7807   8.451   1.802   0.432
 3608W        W 7808  11.501   7.857   2.975
 3609W        W 7809   0.964   8.252  10.853
 3610W        W 7810   1.173   4.278  11.240
 3611W        W 7811   6.118   5.280   9.466
 3612W        W 7812   6.683  10.196   0.850
 3613W        W 7813   6.795   0.305  10.061
 3614W        W 7814   5.654   4.072   9.848
 3615W        W 7815   4.560   1.707   2.956
 3616W        W 7816   8.044   8.152   1.008
 3617W        W 7817   1.989  10.352   0.208
 3618W        W 7818   1.266   2.704   9.368
 3619W        W 7819   6.524   2.586   2.417
 3620W        W 7820   4.071   7.617   9.640
 3621W        W 7821   2.286   5.545  10.457
 3622W        W 7822   9.545   8.269  10.737
 3623W        W 7823   1.881   6.977   9.248
 3624W        W 7824   9.952   0.878   0.597
 3625W        W 7825   6.158   8.494   2.254
 3626W        W 7826  11.327   1.107   0.511
 3627W        W 7827   7.464   7.667   0.248
 3628W        W 7828  11.042   6.151   0.899
 3629W        W 7829   2.140   8.975   0.480
 3630W        W 7830   8.382   6.878   2.318
 3631W        W 7831   3.302   4.945   1.951
 3632W        W 7832  10.957   1.414   1.438
 3633W        W 7833   4.691   1.874   0.922
 3634W        W 7834   5.626   0.628   1.750
 3635W        W 7835   3.227   7.610   3.007
 3636W        W 7836   1.072   7.611  11.363
 3637W        W 7837  10.036   9.935   3.206
 3638W        W 7838   5.756   2.194   2.348
 3639W        W 7839   9.026  10.837   1.505
 3640W        W 7840   6.577   8.214   2.928
 3641W        W 7841   1.810  10.402  10.726
 3642W        W 7842   9.971   8.745   0.084
 3643W        W 7843   1.740   4.353   9.897
 3644W        W 7844   4.293   8.495   0.972
 3645W        W 7845   9.895   5.685  11.247
 3646W        W 7846   0.198   1.718   0.065
 3647W        W 7847   3.706  10.443   9.462
 3648W        W 7848   8.501  10.872   0.456
 3649W        W 7849   5.023   3.886   9.237
 3650W        W 7850   8.056   0.062   2.348
 3651W        W 7851   5.484   7.431   0.389
 3652W        W 7852  10.534   0.922  10.989
 3653W        W 7853   8.054   1.945  11.989
 3654W        W 7854   0.674   0.058  11.052
 3655W        W 7855   8.033  10.481   3.358
 3656W        W 7856   8.553   6.635   3.144
 3657W        W 7857  10.971   8.576  10.880
 3658W        W 7858   1.325   0.210   2.731
 3659W        W 7859   5.026   5.251  10.491
 3660W        W 7860   8.548   4.651  11.072
 3661W        W 7861   2.297   5.246   2.700
 3662W        W 7862   9.409   2.262   9.093
 3663W        W 7863   4.008   1.254   9.011
 3664W        W 7864   2.615   6.589   2.264
 3665W        W 7865   7.287   7.986  10.938
 3666W        W 7866   5.088   3.898   2.759
 3667W        W 7867   4.473   9.870   1.816
 3668W        W 7868   8.362  11.450   9.267
 3669W        W 7869   8.448   0.296   8.912
 3670W        W 7870   0.725   2.211   1.510
 3671W        W 7871   2.887  10.527   9.915
 3672W        W 7872   5.052   3.218   0.408
 3673W        W 7873   9.643   3.531   9.476
 3674W        W 7874  10.051   7.182   2.814
 3675W        W 7875  10.613   2.656  11.825
 3676W        W 7876   5.073   3.090   3.200
 3677W        W 7877   6.326   6.585  10.862
 3678W        W 7878   0.412  10.843   0.830
 3679W        W 7879  11.392   3.084   0.081
 3680W        W 7880   1.253   0.331   9.099
 3681W        W 7881  11.237   2.338   1.848
 3682W        W 7882   3.721   5.229   2.126
 3683W        W 7883   2.348   3.074   1.785
 3684W        W 7884   4.303   9.242  10.958
 3685W        W 7885   6.016   5.314  10.868
 3686W        W 7886   5.622   1.370   3.486
 3687W        W 7887   3.284   8.653  10.833
 3688W        W 7888   8.722   5.158   1.951
 3689W        W 7889   6.233   3.998  10.659
 3690W        W 7890   2.339  10.325   1.304
 3691W        W 7891   4.912   4.185   3.148
 3692W        W 7892   8.140  10.765   0.089
 3693W        W 7893   7.300   2.151  10.899
 3694W        W 7894   2.822  11.025   9.941
 3695W        W 7895   6.487   5.704   1.994
 3696W        W 7896   7.139   7.593  11.286
 3697W        W 7897   4.338   5.992   1.526
 3698W        W 7898   9.678   0.328   3.310
 3699W        W 7899   4.184   9.048   1.737
 3700W        W 7900   9.513   4.492   2.782
 3701W        W 7901   3.403   2.252  10.996
 3702W        W 7902   6.056   5.585   9.869
 3703W        W 7903   2.374   7.961  11.515
 3704W        W 7904   2.258   5.677  11.984
 3705W        W 7905   0.402   6.611   9.210
 3706W        W 7906  10.033   1.024  11.033
 3707W        W 7907   0.469  11.337   1.688
 3708W        W 7908  11.397   2.670  10.339
 3709W        W 7909   7.957   6.663   3.735
 3710W        W 7910   2.693   6.658  10.812
 3711W        W 7911   3.093   5.973   1.983
 3712W        W 7912   5.738   6.751   1.655
 3713W        W 7913  11.388   9.047   2.915
 3714W        W 7914   1.124   2.937  11.768
 3715W        W 7915  11.025   7.895   9.319
 3716W        W 7916   5.667   9.420   1.743
 3717W        W 7917   3.813   2.445  11.241
 3718W        W 7918   9.557   5.172   0.738
 3719W        W 7919   8.535   7.447   1.390
 3720W        W 7920   9.532   3.280  11.559
 3721W        W 7921   2.318   3.560  10.528
 3722W        W 7922   9.654   9.639   3.442
 3723W        W 7923   8.579  11.294  10.959
 3724W        W 7924   7.129   2.658  10.315
 3725W        W 7925   3.139   6.191   2.872
 3726W        W 7926   1.140   0.900   0.454
 3727W        W 7927   8.551   5.650   1.842
 3728W        W 7928  10.076   6.146   2.589
 3729W        W 7929   4.158   7.732  10.932
 3730W        W 7930  10.371  11.473   0.898
 3731W        W 7931   0.132   2.635   8.502
 3732W        W 7932   6.106   2.740  11.308
 3733W        W 7933   4.225   0.057   0.474
 3734W        W 7934   6.257   6.920   1.393
 3735W        W 7935   6.157   4.838   1.783
 3736W        W 7936   7.744   5.521   1.135
 3737W        W 7937   7.280   9.376   0.988
 3738W        W 7938   5.124   9.181   0.731
 3739W        W 7939   1.867  10.045   1.813
 3740W        W 7940   5.295   4.666  10.287
 3741W        W 7941   4.283   3.814   0.174
 3742W        W 7942   3.083   2.596   9.429
 3743W        W 7943   6.961   4.723   9.846
 3744W        W 7944   5.070   9.671   0.678
 3745W        W 7945   5.198   0.869   2.980
 3746W        W 7946   9.394   3.570   2.980
 3747W        W 7947   0.352   6.394  10.729
 3748W        W 7948   0.787  11.263   1.299
 3749W        W 7949   3.267   4.245  11.041
 3750W        W 7950   3.997   0.362  10.182
 3751W        W 7951   0.537   5.672   1.539
 3752W        W 7952  10.856   3.249   0.026
 3753W        W 7953   8.029   8.153   2.759
 3754W        W 7954   6.262   8.275  11.823
 3755W        W 7955   9.083   6.510   9.380
 3756W        W 7956   2.398   3.856   2.886
 3757W        W 7957   3.502  10.786   1.217
 3758W        W 7958   9.632   1.883   9.769
 3759W        W 7959   8.267   4.289   2.425
 3760W        W 7960   9.481  10.774   1.839
 3761W        W 7961   9.530   8.553  11.801
 3762W        W 7962   3.329   1.936   0.282
 3763W        W 7963   3.913   9.052   2.546
 3764W        W 7964   9.304   1.335   3.054
 3765W        W 7965   6.148   0.311  10.267
 3766W        W 7966   7.613   4.592  10.909
 3767W        W 7967  10.820  11.040   0.831
 3768W        W 7968   6.025   8.142   0.633
 3769W        W 7969   6.686   4.689  11.260
 3770W        W 7970   2.184   4.195  10.085
 3771W        W 7971   8.491   3.622   9.967
 3772W        W 7972   0.728   9.759   1.168
 3773W        W 7973   3.054   0.431   2.391
 3774W        W 7974   8.395   3.570  10.560
 3775W        W 7975   2.882   5.250   2.107
 3776W        W 7976   6.126   4.114   9.152
 3777W        W 7977   9.325   5.437   3.426
 3778W        W 7978   2.569   5.521   3.121
 3779W        W 7979   6.905  10.665   8.630
 3780W        W 7980   4.181   5.650  10.228
 3781W        W 7981   6.668   3.104   2.339
 3782W        W 7982   0.809  11.213   9.501
 3783W        W 7983   0.296   7.506   8.784
 3784W        W 7984   8.008   1.884   2.415
 3785W        W 7985   9.787   7.891   0.472
 3786W        W 7986   9.778   5.898   9.442
 3787W        W 7987   3.378   3.324  11.578
 3788W        W 7988   5.661   0.848   2.725
 3789W        W 7989  10.934   9.951   3.120
 3790W        W 7990   2.103   8.293   8.753
 3791W        W 7991   8.584  10.099   9.404
 3792W        W 7992   1.852   6.051   9.127
 3793W        W 7993  11.278   7.480   2.121
 3794W        W 7994  10.059   5.359   1.482
 3795W        W 7995   7.955   8.167   9.710
 3796W        W 7996   8.003   1.946   8.923
 3797W        W 7997   9.852   0.924   2.519
 3798W        W 7998   5.682   9.889   0.410
 3799W        W 7999  10.785   2.721  11.273
 3800W        W 8000   9.765   1.555  11.765
 3801W        W 8001   9.024   2.985  11.109
 3802W        W 8002   3.395   5.683   0.568
 3803W        W 8003   0.707   1.160   9.035
 3804W        W 8004   2.616   2.265  10.404
 3805W        W 8005   1.848   3.607   1.294
 3806W        W 8006   3.618   7.898   9.543
 3807W        W 8007   7.906   7.396  10.814
 3808W        W 8008   5.150   3.439  10.556
 3809W        W 8009   4.606  10.007  10.510
 3810W        W 8010   7.968   3.842   9.053
 3811W        W 8011   3.622   8.586   1.199
 3812W        W 8012   6.740   7.458   2.335
 3813W        W 8013   7.624   7.458  11.234
 3814W        W 8014   3.116  10.456  10.362
 3815W        W 8015   0.601   2.867   1.175
 3816W        W 8016   9.783   2.368  10.386
 3817W        W 8017   8.476   9.377  11.137
 3818W        W 8018   8.502  10.578   9.546
 3819W        W 8019   4.487  11.314  10.137
 3820W        W 8020  11.223   9.133  11.532
 3821W        W 8021   1.634   9.429   3.509
 3822W        W 8022   8.088   5.378   8.262
 3823W        W 8023   2.034   8.870   9.530
 3824W        W 8024   8.766   5.339   3.356
 3825W        W 8025   8.423   8.211   1.790
 3826W        W 8026  10.968   1.213   9.664
 3827W        W 8027   9.096   8.058   2.377
 3828W        W 8028   3.964   9.973   1.767
 3829W        W 8029   8.211   5.541   9.428
 3830W        W 8030  10.685   2.250   1.914
 3831W        W 8031   7.514   4.493   1.236
 3832W        W 8032   9.475   6.956  10.819
 3833W        W 8033   0.445   6.852   2.550
 3834W        W 8034  10.380   6.551   0.474
 3835W        W 8035   1.783   4.093  11.817
 3836W        W 8036   4.657   4.085  10.900
 3837W        W 8037   0.501   4.984   3.665
 3838W        W 8038   1.839  10.254   1.363
 3839W        W 8039   7.201  11.415   0.361
 3840W        W 8040   6.229   6.957  10.030
 3841W        W 8041  10.006   9.772   8.798
 3842W        W 8042   2.450  10.455   1.786
 3843W        W 8043   8.951   2.993   0.222
 3844W        W 8044   9.417   0.407   9.360
 3845W        W 8045  10.274   1.305   2.009
 3846W        W 8046   0.764   3.609  10.768
 3847W        W 8047   7.026   1.633   2.667
 3848W        W 8048   8.508  10.446  11.582
 3849W        W 8049  10.976  10.298  10.870
 3850W        W 8050   9.477   1.925  11.980
 3851W        W 8051   3.536   3.256   2.353
 3852W        W 8052   9.993   0.369   0.356
 3853W        W 8053   3.832   8.972  11.948
 3854W        W 8054   8.975  10.361   1.351
 3855W        W 8055   3.745   0.229   0.262
 3856W        W 8056   2.296   1.433  10.047
 3857W        W 8057   9.384   3.637  10.360
 3858W        W 8058   6.947   9.477   9.526
 3859W        W 8059   8.596   5.125   4.113
 3860W        W 8060  10.134   0.838   1.500
 3861W        W 8061   1.424   1.482   2.718
 3862W        W 8062   0.771   9.364   1.510
 3863W        W 8063   7.356  10.936   0.734
 3864W        W 8064   6.352   2.080   2.722
 3865W        W 8065   9.598   1.864   3.005
 3866W        W 8066   4.985   3.318   1.915
 3867W        W 8067   2.505   1.399  11.644
 3868W        W 8068   7.195   3.476   2.216
 3869W        W 8069   8.506  10.964   9.197
 3870W        W 8070  10.477  11.002  10.539
 3871W        W 8071   9.828   3.567   1.824
 3872W        W 8072  11.460   6.638   8.929
 3873W        W 8073   0.318   9.713   3.649
 3874W        W 8074   3.569   5.395   1.367
 3875W        W 8075   6.067   1.821   9.382
 3876W        W 8076   4.642   4.321   0.956
 3877W        W 8077   5.984   1.804   0.477
 3878W        W 8078   3.143   3.483   9.167
 3879W        W 8079   6.083   7.448  10.786
 3880W        W 8080   4.547   8.876  10.597
 3881W        W 8081  11.011   9.294   0.565
 3882W        W 8082   5.070   4.594   0.771
 3883W        W 8083   4.466   8.752   9.008
 3884W        W 8084   5.460   1.833   3.114
 3885W        W 8085  10.355  10.163  11.332
 3886W        W 8086   5.770   4.369   9.427
 3887W        W 8087   9.502   7.404   9.002
 3888W        W 8088   4.774   0.677  10.771
 3889W        W 8089   4.315   4.274   9.620
 3890W        W 8090   7.291   1.845   3.083
 3891W        W 8091   1.354  10.400  11.494
 3892W        W 8092   4.450   1.201   1.464
 3893W        W 8093   4.785   3.650   9.615
 3894W        W 8094   3.374   7.151   3.268
 3895W        W 8095   8.977  10.742  11.692
 3896W        W 8096  11.202   5.607  11.293
 3897W        W 8097   4.831  10.627   0.940
 3898W        W 8098  11.337   0.131   0.197
 3899W        W 8099   4.110   9.857   9.742
 3900W        W 8100   3.524   7.955   2.672
 3901W        W 8101   3.123   9.893   0.011
 3902W        W 8102   2.699   9.094   9.941
 3903W        W 8103   9.457   9.297  10.762
 3904W        W 8104   5.794   4.952   0.482
 3905W        W 8105   8.435   0.465  11.996
 3906W        W 8106  10.825  11.306  11.360
 3907W        W 8107   8.926   5.887  11.460
 3908W        W 8108   9.564   3.592  10.861
 3909W        W 8109   6.295   5.026   2.738
 3910W        W 8110   5.240  10.162   9.427
 3911W        W 8111   0.424   3.267   0.847
 3912W        W 8112  11.348   1.428   3.102
 3913W        W 8113   8.365   1.275  10.564
 3914W        W 8114   4.924  10.833  11.739
 3915W        W 8115   1.758   0.182   9.149
 3916W        W 8116   4.640   8.399  10.730
 3917W        W 8117   5.638  11.158  10.876
 3918W        W 8118   8.502   1.714   2.548
 3919W        W 8119   6.321   7.301   1.022
 3920W        W 8120   0.266   9.007   8.718
 3921W        W 8121  10.523   2.278   2.412
 3922W        W 8122   4.147   9.501   2.001
 3923W        W 8123  10.518   8.525   2.690
 3924W        W 8124  11.305   3.839   9.927
 3925W        W 8125   7.147   0.343  11.624
 3926W        W 8126   2.201   5.814   1.980
 3927W        W 8127   0.506   3.656   1.932
 3928W        W 8128   8.053   2.255   1.176
 3929W        W 8129   7.163   7.831   9.941
 3930W        W 8130   2.730   7.924   2.295
 3931W        W 8131   7.418   5.208   2.199
 3932W        W 8132   8.410   6.436   3.597
 3933W        W 8133   7.639   5.082   2.691
 3934W        W 8134   9.673  10.270   2.026
 3935W        W 8135   6.014   7.760   1.807
 3936W        W 8136  10.491   0.091  10.767
 3937W        W 8137   5.669   1.728  11.184
 3938W        W 8138   7.246   5.216   1.599
 3939W        W 8139   8.529   1.839  11.854
 3940W        W 8140   3.256   2.687   1.808
 3941W        W 8141   0.503   4.457  10.315
 3942W        W 8142   1.190  11.004   1.553
 3943W        W 8143   3.889   4.124   0.327
 3944W        W 8144   9.433   4.766   8.244
 3945W        W 8145   9.044   4.758  11.020
 3946W        W 8146   7.654   1.056   2.514
 3947W        W 8147   4.487  10.894   8.481
 3948W        W 8148   7.195   8.409   0.901
 3949W        W 8149   7.631   8.350   3.137
 3950W        W 8150   5.356   7.789   3.064
 3951W        W 8151   6.292  11.354  11.475
 3952W        W 8152   3.866   2.820   1.660
 3953W        W 8153   7.677   3.138  11.844
 3954W        W 8154   3.262   1.857   1.378
 3955W        W 8155   8.014   3.126   1.683
 3956W        W 8156   2.011   9.456  10.401
 3957W        W 8157   1.036   5.552  10.969
 3958W        W 8158   9.357   2.844   2.058
 3959W        W 8159   2.724   7.591   3.163
 3960W        W 8160   8.421   4.330  11.975
 3961W        W 8161   7.284   7.307   1.583
 3962W        W 8162   7.139   4.637   3.574
 3963W        W 8163   6.701   3.065   1.831
 3964W        W 8164   4.148   3.856   2.841
 3965W        W 8165   4.255   8.951   9.999
 3966W        W 8166   7.999   4.585  11.770
 3967W        W 8167   2.183   7.455  10.852
 3968W        W 8168   9.551   4.585  11.933
 3969W        W 8169   2.116   6.150   2.887
 3970W        W 8170   1.351   8.783  10.606
 3971W        W 8171   8.317   5.147   9.115
 3972W        W 8172   4.679  10.335   1.337
 3973W        W 8173   6.061   3.190   9.864
 3974W        W 8174   9.025   5.530   1.618
 3975W        W 8175   8.502   7.136   1.878
 3976W        W 8176   9.057   4.643   0.366
 3977W        W 8177   5.830   2.664  10.469
 3978W        W 8178   2.094   5.647   2.964
 3979W        W 8179   1.755   8.925  11.847
 3980W        W 8180  11.433   9.019   0.449
 3981W        W 8181   0.725   7.700   2.968
 3982W        W 8182   5.147   9.953   9.918
 3983W        W 8183   8.639   9.298  10.131
 3984W        W 8184   4.782   0.750   9.031
 3985W        W 8185   7.708   2.185   9.271
 3986W        W 8186   4.833   0.823   0.615
 3987W        W 8187   7.649  11.190  11.071
 3988W        W 8188   2.165   3.817   2.250
 3989W        W 8189   8.095   7.222   1.179
 3990W        W 8190   6.727   5.089   0.410
 3991W        W 8191   6.551  10.886   2.814
 3992W        W 8192   1.199   3.700   2.441
 3993W        W 8193   0.734   5.716   0.668
 3994W        W 8194   4.663   1.771   8.885
 3995W        W 8195   8.977   9.554   2.720
 3996W        W 8196   2.030   0.485  10.541
 3997W        W 8197   6.598   1.250   9.073
 3998W        W 8198   6.089   6.987  11.972
 3999W        W 8199   8.937   7.716   0.395
 4000W        W 8200   5.289   8.000  11.990
 4001W        W 8201   2.169   0.892   1.229
 4002W        W 8202   9.462   4.605   3.305
 4003W        W 8203  10.422   0.540   9.755
 4004W        W 8204   7.417   9.257   2.328
 4005W        W 8205  11.364   1.668   1.284
 4006W        W 8206   7.625   8.400  11.005
 4007W        W 8207   1.930  10.819   2.255
 4008W        W 8208   4.290   9.500   3.227
 4009W        W 8209   4.138   2.833   2.776
 4010W        W 8210   9.638   5.991   2.345
 4011W        W 8211   7.961   3.743   9.913
 4012W        W 8212   3.303   5.495   1.984
 4013W        W 8213   4.629   4.341   2.195
 4014W        W 8214   5.899   4.100   3.026
 4015W        W 8215   7.037  11.058   2.819
 4016W        W 8216   9.360   4.613   1.372
 4017W        W 8217   2.654   7.617  10.723
 4018W        W 8218  10.740   2.236  10.618
 4019W        W 8219   1.340   2.248   0.416
 4020W        W 8220   6.084   6.379   0.972
 4021W        W 8221   3.358   1.369   3.343
 4022W        W 8222   6.561   6.913   4.027
 4023W        W 8223   5.721   8.199  10.358
 4024W        W 8224   1.267   5.194   3.348
 4025W        W 8225   2.763   9.410   8.645
 4026W        W 8226   8.268   5.673   3.323
 4027W        W 8227   0.355   2.868   3.403
 4028W        W 8228   2.965   0.723   1.691
 4029W        W 8229   5.704  11.026   8.578
 4030W        W 8230   5.958   1.321  11.296
 4031W        W 8231   6.453   6.159   1.730
 4032W        W 8232   1.281   0.790   8.848
 4033W        W 8233   9.557   4.125   0.864
 4034W        W 8234   3.872   6.869   2.415
 4035W        W 8235   4.325   8.563   9.469
 4036W        W 8236   4.611   8.016   0.482
 4037W        W 8237   3.023   5.099   0.038
 4038W        W 8238   9.372   1.366   9.072
 4039W        W 8239   6.907  10.613   0.523
 4040W        W 8240   5.629   1.150   1.693
 4041W        W 8241  11.308   6.644   1.797
 4042W        W 8242   4.144  10.577   3.289
 4043W        W 8243   3.712   0.251  11.761
 4044W        W 8244   4.060   8.514  11.997
 4045W        W 8245   2.488   0.561   9.657
 4046W        W 8246   2.716  11.411   9.022
 4047W        W 8247   1.798   3.635  11.234
 4048W        W 8248   3.671   6.414   8.595
 4049W        W 8249   1.183   1.923   1.497
 4050W        W 8250  11.294   7.474  10.058
 4051W        W 8251   6.737   7.796   8.307
 4052W        W 8252   0.382  11.270  10.732
 4053W        W 8253   8.750   7.601  11.923
 4054W        W 8254   5.506   3.048  10.689
 4055W        W 8255   6.666   1.906  10.863
 4056W        W 8256  11.386   5.091   9.225
 4057W        W 8257   8.093   9.329  11.935
 4058W        W 8258   7.451   0.521   9.489
 4059W        W 8259   3.232   4.623   0.956
 4060W        W 8260   7.669   9.980   9.537
 4061W        W 8261   4.005   8.521   9.074
 4062W        W 8262   1.824  11.174   0.460
 4063W        W 8263   9.398  11.089   8.734
 4064W        W 8264   0.563   6.161   1.875
 4065W        W 8265   5.035   3.760   1.671
 4066W        W 8266   5.491   5.121  11.756
 4067W        W 8267   2.195   8.403  11.750
 4068W        W 8268   2.353   3.423   8.644
 4069W        W 8269  10.742   5.533  10.430
 4070W        W 8270   3.983   0.929   9.507
 4071W        W 8271   7.613   3.827   1.688
 4072W        W 8272   4.734   9.119  10.185
 4073W        W 8273  10.806   3.916   0.103
 4074W        W 8274   7.936  11.177  11.870
 4075W        W 8275   5.678   0.240  10.473
 4076W        W 8276   3.088   5.147   9.192
 4077W        W 8277   6.706  10.612   0.010
 4078W        W 8278   2.232   9.823  11.793
 4079W        W 8279   4.060   3.146   2.357
 4080W        W 8280   3.130   6.351   4.040
 4081W        W 8281   7.508   0.082   2.606
 4082W        W 8282   3.123  10.001  10.591
 4083W        W 8283   2.916  10.631   1.947
 4084W        W 8284   6.787   2.024   8.423
 4085W        W 8285   8.478   7.440  11.498
 4086W        W 8286   9.522   4.592   8.714
 4087W        W 8287   6.337   8.055  11.375
 4088W        W 8288   1.048   6.283   1.924
 4089W        W 8289  11.020   1.844  11.420
 4090W        W 8290   2.671   7.428   9.515
 4091W        W 8291   8.295   7.766  11.965
 4092W        W 8292   9.510   4.901   0.314
 4093W        W 8293   0.027   2.887  10.782
 4094W        W 8294   6.781  10.270  10.556
 4095W        W 8295   3.805   3.882   8.633
 4096W        W 8296   5.751   8.863   9.435
 4097W        W 8297   3.505   5.351   3.282
 4098W        W 8298   6.652   6.798  11.199
 4099W        W 8299   0.552   9.509   0.748
 4100W        W 8300   3.686   1.678   3.092
 4101W        W 8301   0.534   3.857   0.010
 4102W        W 8302   9.752   1.913  10.820
 4103W        W 8303   5.723   2.124   0.112
 4104W        W 8304   6.526   6.683   2.823
 4105W        W 8305   2.336   4.810  11.853
 4106W        W 8306   0.763   8.475   1.707
 4107W        W 8307  11.037  10.593  11.862
 4108W        W 8308   5.023   4.682   9.833
 4109W        W 8309   3.043   0.816   8.571
 4110W        W 8310   4.516   4.834   9.846
 4111W        W 8311   0.486   7.445   3.745
 4112W        W 8312  10.836   9.540   0.954
 4113W        W 8313   9.820   9.533  11.040
 4114W        W 8314   4.003   0.032   3.193
 4115W        W 8315   9.594   5.996  10.473
 4116W        W 8316   1.952   0.812   1.718
 4117W        W 8317  11.204   2.774   2.346
 4118W        W 8318   3.212   6.679   3.092
 4119W        W 8319   9.957   7.652  10.126
 4120W        W 8320   6.841  11.177   8.592
 4121W        W 8321   2.151   1.342   0.976
 4122W        W 8322   5.177   1.006   1.478
 4123W        W 8323   0.363  10.539   1.465
 4124W        W 8324   8.480   6.171   8.687
 4125W        W 8325  10.844  10.332   9.037
 4126W        W 8326   1.764   8.500   9.243
 4127W        W 8327  10.823   7.875   0.455
 4128W        W 8328   0.070   6.216   1.953
 4129W        W 8329  11.467   7.601   9.589
 4130W        W 8330  10.008   8.501  11.225
 4131W        W 8331  11.318   4.124  11.283
 4132W        W 8332  11.423   9.956   2.925
 4133W        W 8333   5.946   3.809  11.045
 4134W        W 8334   9.762   4.070  10.952
 4135W        W 8335  10.943   6.808  10.624
 4136W        W 8336   2.429  10.515   9.140
 4137W        W 8337   4.371   4.308   0.139
 4138W        W 8338   2.782   0.754  10.992
 4139W        W 8339   6.656   1.336   2.877
 4140W        W 8340   9.413   4.027   8.552
 4141W        W 8341   6.736   2.835   3.189
 4142W        W 8342   6.543  11.061   9.837
 4143W        W 8343   8.799  11.036   0.835
 4144W        W 8344   0.160   2.656  11.513
 4145W        W 8345   6.797   0.830   0.269
 4146W        W 8346   0.245   4.429  11.335
 4147W        W 8347   1.190   4.915   1.890
 4148W        W 8348   6.721  10.362  11.564
 4149W        W 8349   4.052   4.614   0.383
 4150W        W 8350   0.934   3.369   8.911
 4151W        W 8351   0.920  10.860   0.763
 4152W        W 8352   8.191   6.637   1.838
 4153W        W 8353   1.789   9.870   1.036
 4154W        W 8354   7.705   9.590   0.790
 4155W        W 8355  10.109   1.743   0.619
 4156W        W 8356   7.610   3.998   1.174
 4157W        W 8357   9.533   6.197   0.031
 4158W        W 8358   2.809  10.857   9.109
 4159W        W 8359   1.677   4.329  11.320
 4160W        W 8360   7.018   3.284   3.278
 4161W        W 8361   3.646   6.068   2.819
 4162W        W 8362   9.432  11.339   3.320
 4163W        W 8363  10.695   7.085   9.461
 4164W        W 8364   8.177  10.963  10.953
 4165W        W 8365   5.630   7.731   3.534
 4166W        W 8366   2.994   6.540   3.576
 4167W        W 8367  10.503   6.155   0.165
 4168W        W 8368   2.653   3.398   2.028
 4169W        W 8369   6.603   1.723  11.351
 4170W        W 8370  11.279   8.935  10.603
 4171W        W 8371   8.806   6.944   9.021
 4172W        W 8372  10.677  10.338   2.157
 4173W        W 8373  10.037   9.046   3.245
 4174W        W 8374   2.798   6.125  10.845
 4175W        W 8375   9.832   1.080  11.587
 4176W        W 8376   9.500  10.597   8.581
 4177W        W 8377   9.127  10.397   0.876
 4178W        W 8378  10.457   2.166   1.454
 4179W        W 8379   3.482   1.496  11.237
 4180W        W 8380   5.773   1.257   2.420
 4181W        W 8381   4.077   0.628   2.387
 4182W        W 8382  10.845   4.169   8.587
 4183W        W 8383   7.658  10.706  11.907
 4184W        W 8384   7.730   9.040   0.104
 4185W        W 8385  10.818  10.190   8.550
 4186W        W 8386   5.984   4.325  10.964
 4187W        W 8387   8.909   2.762   3.334
 4188W        W 8388  10.037   8.589   2.461
 4189W        W 8389   3.165   3.747  10.845
 4190W        W 8390   2.386   4.683   8.326
 4191W        W 8391   1.949   7.061  11.099
 4192W        W 8392   2.049   1.259   2.303
 4193W        W 8393   2.749   0.477  11.402
 4194W        W 8394   9.919  11.085   1.837
 4195W        W 8395   1.783  10.247  10.211
 4196W        W 8396   9.621   8.583   1.501
 4197W        W 8397  10.711  10.307   9.998
 4198W        W 8398   9.501   6.984   3.275
 4199W        W 8399   5.486   5.292  10.275
 4200W        W 8400   5.708   7.648   8.353
 4201W        W 8401  11.351   6.775  11.370
 4202W        W 8402   9.740   8.304   0.191
 4203W        W 8403   3.764  11.480  11.337
 4204W        W 8404  10.312   8.195  10.590
 4205W        W 8405  10.790   0.907   0.777
 4206W        W 8406   0.818   7.448  10.472
 4207W        W 8407   8.192   6.512   8.396
 4208W        W 8408  10.856   5.178   0.806
 4209W        W 8409   7.624   2.606  10.991
 4210W        W 8410   4.650   7.499  10.792
 4211W        W 8411  10.381   6.432  10.516
 4212W        W 8412   6.083   0.409  10.772
 4213W        W 8413   3.989  11.267   2.690
 4214W        W 8414   2.935   4.733   2.276
 4215W        W 8415   5.047  11.246   8.818
 4216W        W 8416   1.642  11.203   1.365
 4217W        W 8417   2.872   6.149   2.411
 4218W        W 8418   9.910   1.678   2.061
 4219W        W 8419   4.776   1.304   9.134
 4220W        W 8420   4.202   2.743   0.937
 4221W        W 8421   6.552   0.243   2.483
 4222W        W 8422   7.464   0.708   8.689
 4223W        W 8423   7.935   8.292   3.590
 4224W        W 8424   9.511   0.057   2.377
 4225W        W 8425   6.710   5.678   1.030
 4226W        W 8426   9.646   3.419   0.382
 4227W        W 8427  10.849   2.656   2.687
 4228W        W 8428   2.765   9.784   2.163
 4229W        W 8429   8.023   9.415  11.417
 4230W        W 8430   8.368   9.929   3.281
 4231W        W 8431  10.017   3.078   9.263
 4232W        W 8432   5.238   0.083   2.126
 4233W        W 8433   0.047   8.080   0.824
 4234W        W 8434   8.769   6.863   0.972
 4235W        W 8435   3.649   4.464   3.539
 4236W        W 8436  10.299   2.234   9.011
 4237W        W 8437   2.850   7.806  11.190
 4238W        W 8438   3.727   8.444  10.259
 4239W        W 8439   9.135   4.147   1.204
 4240W        W 8440   1.726   5.722   1.605
 4241W        W 8441   8.262   8.390   9.348
 4242W        W 8442  10.888   1.828   0.310
 4243W        W 8443   9.540   7.874   9.908
 4244W        W 8444   7.797   6.097   1.516
 4245W        W 8445   9.705   7.190   1.431
 4246W        W 8446   1.213   4.940   0.979
 4247W        W 8447  10.823   5.015   8.996
 4248W        W 8448   5.053   6.904   1.896
 4249W        W 8449   3.964  11.002   1.294
 4250W        W 8450   4.220   9.596  10.581
 4251W        W 8451  11.041   4.231  10.871
 4252W        W 8452   9.134   0.843   0.332
 4253W        W 8453   0.897   3.163  10.479
 4254W        W 8454   6.813   6.205  11.371
 4255W        W 8455   4.021   1.101   2.542
 4256W        W 8456   8.096   1.135  11.615
 4257W        W 8457   8.425   6.115  11.472
 4258W        W 8458   0.746  10.550   0.377
 4259W        W 8459   0.372   4.676   8.469
 4260W        W 8460   3.843   8.830   8.684
 4261W        W 8461   5.354   9.807   1.647
 4262W        W 8462   0.805   8.107   0.996
 4263W        W 8463   3.441   1.290   1.907
 4264W        W 8464   9.143   1.384   0.514
 4265W        W 8465   8.432   4.349   1.958
 4266W        W 8466  10.281   9.563   9.233
 4267W        W 8467   0.984   8.503   9.818
 4268W        W 8468   7.116   2.188   2.762
 4269W        W 8469   9.495   4.411   0.439
 4270W        W 8470  10.402   6.704  11.476
 4271W        W 8471   2.918   9.119   3.258
 4272W        W 8472   5.878   4.747   2.634
 4273W        W 8473   5.351   3.100   9.297
 4274W        W 8474   0.773   0.116   9.123
 4275W        W 8475   7.236   1.956  10.413
 4276W        W 8476   1.429   7.058   9.024
 4277W        W 8477   4.205   7.446  11.393
 4278W        W 8478  10.961   5.717   2.302
 4279W        W 8479   9.148   9.816   0.104
 4280W        W 8480   7.972   4.102   0.048
 4281W        W 8481  11.044   8.050   1.685
 4282W        W 8482  10.962   5.213   3.007
 4283W        W 8483   1.360   6.811  11.767
 4284W        W 8484   7.972   4.352   9.051
 4285W        W 8485   0.256   8.514   2.446
 4286W        W 8486   0.308   1.838  11.100
 4287W        W 8487   8.904   0.926   0.805
 4288W        W 8488   6.260   2.165   2.231
 4289W        W 8489  10.332   0.894   2.857
 4290W        W 8490   0.077   3.807   9.480
 4291W        W 8491   7.917   7.816   3.764
 4292W        W 8492   9.496   9.115   2.210
 4293W        W 8493  11.251   6.990   2.194
 4294W        W 8494   7.101  10.364   2.007
 4295W        W 8495   7.098  10.132   0.549
 4296W        W 8496   0.935   8.001   1.991
 4297W        W 8497   4.237   8.484   8.618
 4298W        W 8498  10.040   9.043   2.717
 4299W        W 8499   2.409   9.130   3.242
 4300W        W 8500   0.427   0.299   3.608
 4301W        W 8501   8.247   3.261   3.592
 4302W        W 8502   4.091   7.176   1.022
 4303W        W 8503   4.631   6.164   3.521
 4304W        W 8504  10.811   8.573   3.112
 4305W        W 8505   8.187   9.525  10.020
 4306W        W 8506   3.133   6.527   2.147
 4307W        W 8507   0.258   6.577   0.042
 4308W        W 8508   1.642   1.422   0.924
 4309W        W 8509   2.771   8.469   1.000
 4310W        W 8510   7.672   5.145  10.247
 4311W        W 8511   8.152   7.694   2.630
 4312W        W 8512   4.609   0.283  11.492
 4313W        W 8513   6.504   6.252  11.859
 4314W        W 8514   7.053   1.188  10.551
 4315W        W 8515  10.916   1.120   2.728
 4316W        W 8516   0.741   4.683   9.400
 4317W        W 8517   9.455  10.922  11.519
 4318W        W 8518   9.412   9.844   1.918
 4319W        W 8519   9.012   3.571   9.875
 4320W        W 8520   9.986   4.736   2.776
 4321W        W 8521   3.908   5.995   9.532
 4322W        W 8522   8.954   9.001   8.916
 4323W        W 8523   6.665   2.379   2.969
 4324W        W 8524   7.697   6.192   0.443
 4325W        W 8525   4.520   3.427  11.869
 4326W        W 8526   6.456   3.275   3.178
 4327W        W 8527   4.491   1.796   3.484
 4328W        W 8528   7.553   1.880   1.398
 4329W        W 8529   9.787   3.567   2.637
 4330W        W 8530  11.176   9.471   1.952
 4331W        W 8531   9.137   8.574   9.874
 4332W        W 8532   4.484  10.199   0.156
 4333W        W 8533   2.872   4.112   7.877
 4334W        W 8534   2.765  10.675  11.651
 4335W        W 8535  10.417   5.924  10.686
 4336W        W 8536   6.115   3.651   3.602
 4337W        W 8537   6.247   3.669   9.408
 4338W        W 8538   1.223   7.052  10.518
 4339W        W 8539   6.166   0.913  11.560
 4340W        W 8540   7.191  10.547  11.770
 4341W        W 8541   4.779   2.354   1.154
 4342W        W 8542   3.133  11.281  11.098
 4343W        W 8543  10.280   4.214   8.544
 4344W        W 8544   8.396   9.970  11.823
 4345W        W 8545   9.104   3.149  10.228
 4346W        W 8546   6.483   9.798   3.386
 4347W        W 8547   6.238  10.336   3.403
 4348W        W 8548   1.271   5.330   2.854
 4349W        W 8549   9.381   4.747  11.463
 4350W        W 8550   1.760   2.544   0.473
 4351W        W 8551   8.914   4.267  10.879
 4352W        W 8552   2.744   0.288   1.968
 4353W        W 8553   0.685   8.646   2.197
 4354W        W 8554   4.424   0.833   0.283
 4355W        W 8555  10.373   7.937  10.165
 4356W        W 8556   6.967  11.289  10.008
 4357W        W 8557   6.711   0.172  11.458
 4358W        W 8558  10.005   8.388  11.725
 4359W        W 8559   4.086   8.836   0.388
 4360W        W 8560  10.892   6.555   1.168
 4361W        W 8561   8.862   0.526   8.450
 4362W        W 8562   5.045   3.234   9.714
 4363W        W 8563   1.167  10.507   9.114
 4364W        W 8564   3.913  10.343   0.897
 4365W        W 8565   2.988   3.168  11.882
 4366W        W 8566   5.894   6.595   8.949
 4367W        W 8567   8.747   6.802   8.156
 4368W        W 8568   9.847   1.306   9.259
 4369W        W 8569  11.285  10.274   3.331
 4370W        W 8570   2.395   1.994  11.920
 4371W        W 8571   6.131  10.011   9.517
 4372W        W 8572  10.304   2.607   1.254
 4373W        W 8573   5.054   2.594   3.137
 4374W        W 8574   7.597   3.421  11.424
 4375W        W 8575   4.073   7.028  10.362
 4376W        W 8576   4.556   6.602  11.982
 4377W        W 8577   3.888   2.164   2.285
 4378W        W 8578   3.094   0.989   3.063
 4379W        W 8579   6.142   9.019  11.482
 4380W        W 8580   0.787   1.007   3.208
 4381W        W 8581   8.345   5.977   9.138
 4382W        W 8582   2.788  10.524   2.744
 4383W        W 8583   8.101   3.343   9.107
 4384W        W 8584  11.190   9.496   3.018
 4385W        W 8585  11.362   8.426   1.150
 4386W        W 8586   4.404   0.048   1.865
 4387W        W 8587   8.043   7.393   3.031
 4388W        W 8588  11.417   3.252   2.662
 4389W        W 8589   4.755   2.589  10.925
 4390W        W 8590  10.320   7.653   3.220
 4391W        W 8591   9.381   2.691  10.417
 4392W        W 8592  10.976   7.114   1.773
 4393W        W 8593   9.282   8.822   1.835
 4394W        W 8594   0.913   4.159   3.172
 4395W        W 8595   6.053   2.250  11.155
 4396W        W 8596   7.829  10.824   1.072
 4397W        W 8597   7.188  11.373  11.400
 4398W        W 8598   3.058   4.066  10.104
 4399W        W 8599   7.530   7.053  10.932
 4400W        W 8600   9.848   0.040   1.624
 4401W        W 8601  11.458   5.048  11.624
 4402W        W 8602   9.569   6.162   3.874
 4403W        W 8603   3.683   6.786  11.912
 4404W        W 8604  10.942  10.779   2.198
 4405W        W 8605   9.938   6.667   9.846
 4406W        W 8606   4.596   9.391   1.671
 4407W        W 8607   0.553   6.036  10.294
 4408W        W 8608   4.527   2.493   0.286
 4409W        W 8609   5.050   0.454   3.313
 4410W        W 8610   7.739   4.576   9.523
 4411W        W 8611   3.128   1.261   0.998
 4412W        W 8612   8.452   2.227   8.966
 4413W        W 8613   0.813   2.840   0.164
 4414W        W 8614   4.326   9.066   2.874
 4415W        W 8615   8.024   2.869   3.296
 4416W        W 8616   0.337   3.155   1.926
 4417W        W 8617   3.487   6.719   3.539
 4418W        W 8618   0.128   2.565   9.510
 4419W        W 8619   8.900   2.504   8.931
 4420W        W 8620   9.265   8.325   1.863
 4421W        W 8621   9.995   9.988  10.844
 4422W        W 8622  10.360   8.994  10.443
 4423W        W 8623   6.372   8.020   3.756
 4424W        W 8624   5.492   3.268   0.643
 4425W        W 8625   9.923   4.386   3.163
 4426W        W 8626  11.015   3.591   2.258
 4427W        W 8627  10.881   1.999   9.669
 4428W        W 8628   3.483   7.696   1.302
 4429W        W 8629   3.266   1.990  11.716
 4430W        W 8630   9.014   6.158  11.895
 4431W        W 8631   0.819   1.220   1.780
 4432W        W 8632   3.774   9.510   1.677
 4433W        W 8633   5.737   1.433   2.943
 4434W        W 8634  10.713   2.715   2.186
 4435W        W 8635   8.778   9.111   2.907
 4436W        W 8636   1.131   1.514   8.479
 4437W        W 8637  10.273  10.981   9.044
 4438W        W 8638   6.695   0.048   3.331
 4439W        W 8639   1.500   4.867   9.150
 4440W        W 8640   4.580  11.394   8.619
 4441W        W 8641   9.788   3.585   0.860
 4442W        W 8642   2.753   2.448   1.887
 4443W        W 8643   6.829   6.264   9.322
 4444W        W 8644   2.356   8.412  11.260
 4445W        W 8645   3.233   0.026   0.931
 4446W        W 8646   3.062   3.725  11.742
 4447W        W 8647   7.590   0.349   2.154
 4448W        W 8648   0.184   2.830   2.465
 4449W        W 8649   5.115   8.153   2.481
 4450W        W 8650  11.314   0.505   9.065
 4451W        W 8651   1.331   1.787   2.313
 4452W        W 8652   1.358   3.198   9.268
 4453W        W 8653   9.986   4.318   0.358
 4454W        W 8654   9.485   1.576   1.779
 4455W        W 8655   2.651   8.306   0.523
 4456W        W 8656   9.816  10.543   9.938
 4457W        W 8657   1.309   3.300   0.703
 4458W        W 8658   1.611   1.249   3.522
 4459W        W 8659   1.954   9.840   9.295
 4460W        W 8660   2.351   5.825  10.947
 4461W        W 8661   1.127   5.001   9.495
 4462W        W 8662   7.571   3.167   9.128
 4463W        W 8663   0.071   6.044  10.471
 4464W        W 8664   9.274   4.631  10.558
 4465W        W 8665   3.112   0.563   3.362
 4466W        W 8666   9.237   1.169  11.000
 4467W        W 8667  10.411   6.757   2.388
 4468W        W 8668   8.953   1.168   1.311
 4469W        W 8669   4.770   1.734  11.189
 4470W        W 8670   9.416   6.380  10.145
 4471W        W 8671   1.633   3.545   3.411
 4472W        W 8672   9.426   5.026   9.548
 4473W        W 8673  10.846   4.328  11.349
 4474W        W 8674   6.105   9.201   1.562
 4475W        W 8675   4.442   7.843   9.362
 4476W        W 8676   7.001   8.895   8.929
 4477W        W 8677   8.181   0.892  10.254
 4478W        W 8678   8.631   6.654   8.631
 4479W        W 8679   2.890   9.301   2.070
 4480W        W 8680   6.042   6.801   2.684
 4481W        W 8681   3.459   6.218   9.709
 4482W        W 8682   6.784   9.308   0.162
 4483W        W 8683   7.086   3.264  11.564
 4484W        W 8684   1.494   6.045  11.754
 4485W        W 8685   1.130   8.479   3.360
 4486W        W 8686   8.892   6.653   0.037
 4487W        W 8687   3.184   6.131   8.758
 4488W        W 8688   8.086   2.798  10.816
 4489W        W 8689  11.363  10.814   9.176
 4490W        W 8690   1.273   2.216   9.521
 4491W        W 8691   2.557   6.780   3.593
 4492W        W 8692   2.283   3.335   9.147
 4493W        W 8693   0.998   1.802   1.941
 4494W        W 8694   4.131   5.071  11.536
 4495W        W 8695   3.761   0.802   9.978
 4496W        W 8696  10.916   3.986   9.631
 4497W        W 8697   5.666   0.153   9.947
 4498W        W 8698   8.655   1.760   9.858
 4499W        W 8699   7.441   1.792   1.960
 4500W        W 8700  10.764   4.262   3.313
 4501W        W 8701   0.911   2.872   9.013
 4502W        W 8702   4.789   8.029   1.499
 4503W        W 8703   9.133   1.279   2.149
 4504W        W 8704   9.985   5.107  10.807
 4505W        W 8705   5.864   4.111   1.353
 4506W        W 8706   2.198   8.440   0.287
 4507W        W 8707   8.826   3.070   9.787
 4508W        W 8708  10.835   1.849   2.251
 4509W        W 8709   4.320   4.691  10.298
 4510W        W 8710   5.506   5.469  10.946
 4511W        W 8711   1.791   4.350   3.157
 4512W        W 8712   0.425   2.685  11.042
 4513W        W 8713   4.347   0.883   0.808
 4514W        W 8714   4.506  10.564  11.812
 4515W        W 8715  10.364   0.042  11.296
 4516W        W 8716   4.831   6.185   1.498
 4517W        W 8717   8.820   0.682   1.346
 4518W        W 8718  10.820   0.810  11.396
 4519W        W 8719   8.080   2.409   2.389
 4520W        W 8720   7.684  10.859   3.115
 4521W        W 8721   5.672   7.596  11.029
 4522W        W 8722   8.387   2.782   2.556
 4523W        W 8723   4.267   0.750   2.894
 4524W        W 8724   8.538   9.317   9.646
 4525W        W 8725   3.085   1.928  10.352
 4526W        W 8726   8.853   2.941   9.250
 4527W        W 8727   3.384   6.083   0.270
 4528W        W 8728   1.956   9.361   8.700
 4529W        W 8729   3.549   9.031  11.535
 4530W        W 8730   6.094   4.521   8.379
 4531W        W 8731   9.400   5.739   1.979
 4532W        W 8732   4.720  11.336   0.446
 4533W        W 8733   6.324   1.667  10.519
 4534W        W 8734   3.593   1.026  11.367
 4535W        W 8735  11.493   3.164  11.586
 4536W        W 8736   3.983   4.375   8.592
 4537W        W 8737   6.532   2.354   9.831
 4538W        W 8738   5.223   9.143   2.759
 4539W        W 8739   1.863   0.930  11.172
 4540W        W 8740   3.962   0.534   3.323
 4541W        W 8741   6.965   3.647   9.849
 4542W        W 8742   2.119   2.053   1.930
 4543W        W 8743   3.527   4.559   9.847
 4544W        W 8744   6.538   7.283  11.027
 4545W        W 8745   7.179   6.496   9.668
 4546W        W 8746   2.231   3.278  10.997
 4547W        W 8747   7.273   4.864   8.297
 4548W        W 8748   8.557   4.148  11.297
 4549W        W 8749  10.725   9.522  10.595
 4550W        W 8750   4.130   7.064  11.786
 4551W        W 8751   6.880   2.283  10.591
 4552W        W 8752  10.531   1.780  11.363
 4553W        W 8753   3.903   9.321   0.305
 4554W        W 8754   6.506   7.469  10.036
 4555W        W 8755   7.121   0.352   0.636
 4556W        W 8756   4.563   4.158   9.151
 4557W        W 8757   6.931   3.509   1.776
 4558W        W 8758   9.678   4.024   9.309
 4559W        W 8759   9.147  10.911   3.455
 4560W        W 8760   3.681   3.739   3.025
 4561W        W 8761   7.875   3.574   0.711
 4562W        W 8762   4.263   9.924   2.285
 4563W        W 8763   7.239   0.442  10.553
 4564W        W 8764   9.450   6.828   1.654
 4565W        W 8765   2.917   6.533   9.029
 4566W        W 8766   0.032   0.664   0.663
 4567W        W 8767   2.667  10.283   2.265
 4568W        W 8768   3.125   8.613   3.228
 4569W        W 8769   8.586   8.651   9.030
 4570W        W 8770  11.362   7.509  11.093
 4571W        W 8771   4.181   3.352  10.963
 4572W        W 8772   7.161   2.256   1.299
 4573W        W 8773   5.246   3.145   4.029
 4574W        W 8774   6.595   8.788   3.340
 4575W        W 8775   8.908   1.899   0.727
 4576W        W 8776  10.080   7.948  11.950
 4577W        W 8777  11.317   6.832   3.156
 4578W        W 8778   3.337   9.493   9.289
 4579W        W 8779   0.091   7.024   9.319
 4580W        W 8780   4.734  11.236  11.017
 4581W        W 8781   9.990   9.885   2.148
 4582W        W 8782  10.899   3.115  10.422
 4583W        W 8783  10.357  10.337   2.585
 4584W        W 8784   2.382   9.491   1.161
 4585W        W 8785   2.423   7.306   3.505
 4586W        W 8786  10.797   6.763   3.140
 4587W        W 8787  11.234   7.641   3.349
 4588W        W 8788   6.540   4.217  10.318
 4589W        W 8789   9.521   9.449   1.028
 4590W        W 8790   2.137   7.376   9.457
 4591W        W 8791   8.937   1.675   8.366
 4592W        W 8792   0.348   3.099   0.355
 4593W        W 8793   9.063  10.020   2.526
 4594W        W 8794   0.517   3.440   3.625
 4595W        W 8795   8.794   2.902   8.596
 4596W        W 8796  11.416   7.487  10.557
 4597W        W 8797  10.329   2.863   0.809
 4598W        W 8798   5.008   4.734  11.240
 4599W        W 8799   2.843   5.536   9.707
 4600W        W 8800   1.457   2.707   1.989
 4601W        W 8801   6.417   3.490   1.731
 4602W        W 8802   5.175   1.615   8.903
 4603W        W 8803   3.368   3.759   2.615
 4604W        W 8804   9.617  10.405   0.781
 4605W        W 8805   5.628   6.248  10.709
 4606W        W 8806   8.709   8.466  10.161
 4607W        W 8807   1.704   2.282   9.258
 4608W        W 8808  10.492   3.775   9.815
 4609W        W 8809   3.789   4.692   8.947
 4610W        W 8810   5.378   7.405   9.256
 4611W        W 8811   5.550   2.439   1.927
 4612W        W 8812   5.580   0.695  11.206
 4613W        W 8813   6.612   8.598  11.977
 4614W        W 8814   1.898   6.678   0.839
 4615W        W 8815   2.859   9.320  10.408
 4616W        W 8816  10.458   1.152   0.273
 4617W        W 8817   6.959   7.802   9.466
 4618W        W 8818   1.377  10.383  10.986
 4619W        W 8819   3.433   0.920   2.586
 4620W        W 8820  10.813   5.468   0.295
 4621W        W 8821   8.157   3.103   0.663
 4622W        W 8822   3.085   1.395  11.543
 4623W        W 8823   8.320   3.131   9.967
 4624W        W 8824   1.948  10.556  11.733
 4625W        W 8825  10.794   7.496   0.796
 4626W        W 8826   0.020  10.474  10.871
 4627W        W 8827  11.014   2.269  11.086
 4628W        W 8828  11.174   4.237  11.796
 4629W        W 8829   1.468   2.265  11.337
 4630W        W 8830   8.860   0.189  11.850
 4631W        W 8831  10.807   5.757   1.796
 4632W        W 8832   9.212   0.119  10.395
 4633W        W 8833   5.031   7.668   2.640
 4634W        W 8834   9.063   6.781  10.458
 4635W        W 8835   3.548   9.056   9.638
 4636W        W 8836   4.271   6.127  10.353
 4637W        W 8837   2.332   2.582   2.666
 4638W        W 8838   6.655   9.321   3.347
 4639W        W 8839   6.062   8.824   9.845
 4640W        W 8840   8.134   4.139  11.571
 4641W        W 8841   1.378  10.888   0.985
 4642W        W 8842   3.250   2.994   9.052
 4643W        W 8843   6.975   0.136  10.967
 4644W        W 8844   3.818   1.982   0.133
 4645W        W 8845   5.736   2.645  10.965
 4646W        W 8846   3.558   4.931   8.551
 4647W        W 8847  10.325   3.377   9.533
 4648W        W 8848  10.486   7.397   1.188
 4649W        W 8849   2.692   9.639  11.918
 4650W        W 8850  10.473   3.327  10.024
 4651W        W 8851   9.900   2.516   0.965
 4652W        W 8852   6.449   6.598  10.364
 4653W        W 8853  10.758  10.537  10.446
 4654W        W 8854   3.594  10.107  11.962
 4655W        W 8855   4.797   4.073   0.469
 4656W        W 8856  11.247   7.667   2.597
 4657W        W 8857   7.253   9.621   0.530
 4658W        W 8858  10.659   3.360   3.360
 4659W        W 8859  10.284   9.342  10.843
 4660W        W 8860   1.783   6.088   1.957
 4661W        W 8861   8.953   3.735   1.947
 4662W        W 8862  10.285  10.892   1.483
 4663W        W 8863   0.325   6.348   2.393
 4664W        W 8864   5.201   0.678  11.806
 4665W        W 8865   5.717   5.345   1.803
 4666W        W 8866   3.453   1.221   0.342
 4667W        W 8867   9.525   7.779  10.950
 4668W        W 8868   9.998   6.584   9.331
 4669W        W 8869   9.943   0.614  11.416
 4670W        W 8870   2.292   8.861   0.010
 4671W        W 8871  10.003   5.226   0.981
 4672W        W 8872  10.090   6.110   0.471
 4673W        W 8873   9.533   9.876   9.036
 4674W        W 8874   7.731   0.260   9.842
 4675W        W 8875   8.007   0.804   2.869
 4676W        W 8876   4.307   5.379   2.757
 4677W        W 8877   1.376   4.835  10.572
 4678W        W 8878   2.741   4.234   3.042
 4679W        W 8879   1.027   4.640   9.854
 4680W        W 8880   4.793   1.219   1.860
 4681W        W 8881  11.029   9.085   0.112
 4682W        W 8882   9.690   7.170  11.258
 4683W        W 8883   2.663   6.399   8.608
 4684W        W 8884   6.224   7.686   8.366
 4685W        W 8885  10.500   6.606   9.499
 4686W        W 8886   4.857   8.807  11.811
 4687W        W 8887   5.181   2.654   4.173
 4688W        W 8888   5.677   2.744   9.491
 4689W        W 8889   5.972   9.965   2.714
 4690W        W 8890   9.602   6.903   2.792
 4691W        W 8891   5.184   3.327  11.927
 4692W        W 8892   8.933   0.329  10.799
 4693W        W 8893  11.318   8.353   9.945
 4694W        W 8894   1.050   9.244  10.734
 4695W        W 8895   2.630   7.437   0.190
 4696W        W 8896   4.045   3.312   9.521
 4697W        W 8897   5.648   7.594   8.861
 4698W        W 8898   2.525   3.041  11.589
 4699W        W 8899   6.597  11.106   0.002
 4700W        W 8900   8.150   9.613  10.531
 4701W        W 8901  10.213   7.970   1.680
 4702W        W 8902   0.767   0.952   9.515
 4703W        W 8903   7.576   4.835   0.346
 4704W        W 8904   6.468   1.039  11.954
 4705W        W 8905   4.611   3.062  11.048
 4706W        W 8906  10.475   4.215   9.557
 4707W        W 8907   1.420  10.850  11.256
 4708W        W 8908   5.245   0.945   3.490
 4709W        W 8909   9.085  10.319  11.999
 4710W        W 8910  10.005   3.841   2.256
 4711W        W 8911   0.244   6.619   2.964
 4712W        W 8912   3.540   3.398   9.463
 4713W        W 8913   3.756   3.309   3.321
 4714W        W 8914   8.354   4.680   8.889
 4715W        W 8915   3.759   4.119  11.028
 4716W        W 8916   6.848   3.171   2.812
 4717W        W 8917   0.999   1.591   8.970
 4718W        W 8918   8.459   6.387   2.212
 4719W        W 8919   5.297   4.247   9.538
 4720W        W 8920   3.369  10.092   8.653
 4721W        W 8921   5.746   6.564   0.629
 4722W        W 8922   0.287   8.546   1.905
 4723W        W 8923   8.118   8.410   8.459
 4724W        W 8924   1.433   4.330  10.771
 4725W        W 8925   3.565   1.218   9.778
 4726W        W 8926   5.243   8.935   3.601
 4727W        W 8927  10.906   4.406   1.831
 4728W        W 8928  10.608   4.979   9.795
 4729W        W 8929  11.297   7.728  11.563
 4730W        W 8930   0.811   0.885   2.218
 4731W        W 8931   5.576   4.543  10.716
 4732W        W 8932   8.205  11.443   1.132
 4733W        W 8933  11.215   0.868  10.482
 4734W        W 8934   7.000   1.094  11.050
 4735W        W 8935   0.785   0.185  10.041
 4736W        W 8936   2.047  11.316   3.141
 4737W        W 8937   9.043   1.687   1.289
 4738W        W 8938   4.739   2.292   9.547
 4739W        W 8939   9.820   2.842   3.365
 4740W        W 8940   3.789   3.648   0.233
 4741W        W 8941   7.535   0.304   1.215
 4742W        W 8942   8.207   9.015   9.991
 4743W        W 8943  10.100   9.184   8.640
 4744W        W 8944   7.394  10.881   9.546
 4745W        W 8945  11.447   1.186   2.658
 4746W        W 8946  10.955   5.979   0.317
 4747W        W 8947   5.649   2.175   1.481
 4748W        W 8948   4.602   3.257   3.192
 4749W        W 8949   8.609   5.278   0.964
 4750W        W 8950   8.352   7.136   8.851
 4751W        W 8951   3.331  10.472   0.261
 4752W        W 8952  10.358   6.555   1.466
 4753W        W 8953   7.891   2.885   2.437
 4754W        W 8954   3.172   3.872   8.827
 4755W        W 8955   5.525   5.765  10.504
 4756W        W 8956   3.213   8.183   8.641
 4757W        W 8957   9.016   0.185  11.318
 4758W        W 8958   4.205   6.756   1.279
 4759W        W 8959   0.782   0.047  10.547
 4760W        W 8960  10.869   4.677   2.630
 4761W        W 8961  11.104   6.848   9.241
 4762W        W 8962  11.494   3.979   8.993
 4763W        W 8963  10.907   5.357   1.480
 4764W        W 8964  11.443   6.526   9.449
 4765W        W 8965   9.989   1.359   0.277
 4766W        W 8966   4.117   7.024   9.291
 4767W        W 8967   1.843   3.334   1.736
 4768W        W 8968  10.101  10.493   0.738
 4769W        W 8969   8.374   2.206   9.741
 4770W        W 8970   6.770   4.548   9.404
 4771W        W 8971  10.547   2.730   1.685
 4772W        W 8972   4.966   7.004   3.124
 4773W        W 8973   0.264   2.160   9.763
 4774W        W 8974   7.820   8.050   2.278
 4775W        W 8975   3.943   6.017  11.513
 4776W        W 8976  11.331   4.678   1.810
 4777W        W 8977   4.608   7.515   0.335
 4778W        W 8978   5.600   4.579   2.238
 4779W        W 8979  10.447   7.532   9.361
 4780W        W 8980   7.474   4.337  11.405
 4781W        W 8981   8.270   8.988   2.831
 4782W        W 8982   3.586   3.213   1.837
 4783W        W 8983   2.064   6.982  10.262
 4784W        W 8984  10.385   1.706   1.256
 4785W        W 8985  11.295   8.553   8.611
 4786W        W 8986  10.156   2.178   1.923
 4787W        W 8987   7.190   9.903   2.735
 4788W        W 8988   0.122   6.336  11.213
 4789W        W 8989   1.256   0.967   1.997
 4790W        W 8990  10.462   9.911   2.919
 4791W        W 8991   8.703   0.005  10.489
 4792W        W 8992   9.389   2.164  11.121
 4793W        W 8993   8.507   3.380   1.297
 4794W        W 8994   9.135   5.176  10.780
 4795W        W 8995   4.776   7.892   0.016
 4796W        W 8996  11.415  11.429  10.832
 4797W        W 8997   0.664   9.424   3.396
 4798W        W 8998   0.460   0.008   9.700
 4799W        W 8999   1.947   7.949  11.823
 4800W        W 9000  10.396   8.549   8.895
 4801W        W 9001   3.833   2.842  10.319
 4802W        W 9002   4.829   4.961   1.433
 4803W        W 9003   1.171   2.810   0.580
 4804W        W 9004   7.404   3.782   0.732
 4805W        W 9005   8.532   6.770  10.712
 4806W        W 9006   2.146   4.737   0.315
 4807W        W 9007   4.718   1.573  10.720
 4808W        W 9008   1.555   2.844   0.926
 4809W        W 9009   9.007  10.957   0.367
 4810W        W 9010   0.772   7.067   2.223
 4811W        W 9011   1.224   2.819  11.265
 4812W        W 9012  11.010  10.115   1.802
 4813W        W 9013   4.850   1.266   2.366
 4814W        W 9014   9.602   9.815   2.942
 4815W        W 9015  10.781   4.601   0.706
 4816W        W 9016   5.901   6.064   9.741
 4817W        W 9017   9.942   5.294   0.426
 4818W        W 9018   9.161   4.753   9.110
 4819W        W 9019   9.112   7.674  10.145
 4820W        W 9020   0.244   2.321   1.754
 4821W        W 9021   9.964  11.127  11.220
 4822W        W 9022   9.530  10.124   9.488
 4823W        W 9023   9.455   6.592  11.242
 4824W        W 9024   1.156   9.583   3.371
 4825W        W 9025  10.017   8.587   1.912
 4826W        W 9026   8.010   4.533   0.289
 4827W        W 9027   9.953   1.865   0.159
 4828W        W 9028   6.556   7.482   8.720
 4829W        W 9029   7.139   4.589   8.705
 4830W        W 9030   0.510   7.955   9.605
 4831W        W 9031   3.443   6.094   1.240
 4832W        W 9032   1.586   6.160  10.071
 4833W        W 9033   1.715   0.840   2.202
 4834W        W 9034   6.259   1.268   2.231
 4835W        W 9035   1.109   8.507   2.422
 4836W        W 9036   1.868   4.050  10.921
 4837W        W 9037   6.663   2.311   3.473
 4838W        W 9038   6.559   8.526   1.640
 4839W        W 9039   0.919   3.682   0.765
 4840W        W 9040   6.777  11.052   3.268
 4841W        W 9041   1.170   5.526   9.479
 4842W        W 9042   6.654   1.292   1.803
 4843W        W 9043  10.373  10.003  11.813
 4844W        W 9044   6.711   4.685   0.082
 4845W        W 9045   1.632   7.951   0.803
 4846W        W 9046   0.256   3.579  10.801
 4847W        W 9047  10.007   7.585  11.119
 4848W        W 9048   7.173  10.264  11.333
 4849W        W 9049   8.077   5.003   0.434
 4850W        W 9050   5.627   1.342   8.827
 4851W        W 9051   8.871   6.000   8.985
 4852W        W 9052   2.251   4.217   8.540
 4853W        W 9053   5.107   5.630  11.252
 4854W        W 9054   4.744   8.552  10.254
 4855W        W 9055   7.801   1.840   3.004
 4856W        W 9056   0.181   9.464   9.488
 4857W        W 9057   7.678   1.315  11.398
 4858W        W 9058   6.336   4.049   2.226
 4859W        W 9059   0.631   2.218  10.127
 4860W        W 9060   7.593   6.082  11.924
 4861W        W 9061   0.724   5.283  10.350
 4862W        W 9062   7.989   2.481   8.862
 4863W        W 9063   7.421   4.293   0.778
 4864W        W 9064   8.325   3.352  11.790
 4865W        W 9065   8.556   4.613   9.791
 4866W        W 9066   0.345   0.306  11.523
 4867W        W 9067   3.059   3.472   2.319
 4868W        W 9068   8.998   0.421   0.880
 4869W        W 9069   0.335   8.329  11.482
 4870W        W 9070   3.058   5.613   3.301
 4871W        W 9071   1.962   1.022  11.672
 4872W        W 9072  10.522   8.373  11.031
 4873W        W 9073   5.716  10.068   8.907
 4874W        W 9074   2.622   5.995   9.542
 4875W        W 9075   4.079   0.531   0.511
 4876W        W 9076   4.296   8.154   2.765
 4877W        W 9077   8.732   7.135   3.164
 4878W        W 9078   8.074   1.863  11.023
 4879W        W 9079   3.939   8.673   2.182
 4880W        W 9080   2.633  10.966   3.021
 4881W        W 9081   9.653   4.259   2.283
 4882W        W 9082   5.634   1.765   9.115
 4883W        W 9083   3.841   4.631  11.190
 4884W        W 9084   0.417   5.299  11.658
 4885W        W 9085   5.723   4.734   0.940
 4886W        W 9086   7.902   8.753   9.521
 4887W        W 9087   0.746   3.034   8.545
 4888W        W 9088   2.897   7.048   1.463
 4889W        W 9089   5.771  10.917  10.405
 4890W        W 9090   1.280  11.365   9.312
 4891W        W 9091   2.476   2.576   3.216
 4892W        W 9092   0.604   2.726   9.405
 4893W        W 9093   9.750   9.011   1.754
 4894W        W 9094   1.381   6.100   2.253
 4895W        W 9095   9.353   2.838  11.814
 4896W        W 9096   6.057  11.050   9.679
 4897W        W 9097   1.822   3.588  10.735
 4898W        W 9098   1.738   9.897  10.576
 4899W        W 9099   4.368  10.437  10.062
 4900W        W 9100   7.690   0.871  11.927
 4901W        W 9101   5.198   8.533   1.088
 4902W        W 9102   3.159   2.170   1.766
 4903W        W 9103   0.651   9.136  11.061
 4904W        W 9104   9.506   2.350   9.611
 4905W        W 9105   9.955   2.205   1.401
 4906W        W 9106   9.306  11.420  11.700
 4907W        W 9107   7.890   5.512  10.534
 4908W        W 9108  10.607   3.095   0.447
 4909W        W 9109   5.638   8.483   0.722
 4910W        W 9110   5.132   6.358   2.420
 4911W        W 9111   7.478   1.317   8.764
 4912W        W 9112   6.559   1.167  10.349
 4913W        W 9113   7.588   6.490   1.262
 4914W        W 9114   0.623  10.381   0.911
 4915W        W 9115   4.005   7.623   1.389
 4916W        W 9116   5.781   9.962  10.306
 4917W        W 9117   8.487   2.608  10.520
 4918W        W 9118   9.338   7.972   0.235
 4919W        W 9119   3.037   9.112   1.591
 4920W        W 9120   1.766   4.502   3.651
 4921W        W 9121   1.719   0.158   1.178
 4922W        W 9122   7.479   0.910  10.447
 4923W        W 9123   7.397   7.350  10.071
 4924W        W 9124   1.851   1.337   3.099
 4925W        W 9125   9.499   7.641  11.458
 4926W        W 9126   6.549   3.981   2.680
 4927W        W 9127   1.105   5.085  11.866
 4928W        W 9128  11.404   7.158   8.860
 4929W        W 9129   2.103   5.976   9.619
 4930W        W 9130   9.421   9.792  10.853
 4931W        W 9131   1.731   4.892   0.996
 4932W        W 9132   2.780  11.013   2.535
 4933W        W 9133   0.456   1.759   9.525
 4934W        W 9134  10.381   2.212  11.966
 4935W        W 9135   7.012   9.446  11.180
 4936W        W 9136  11.307   6.689   0.849
 4937W        W 9137   6.983   6.152  10.023
 4938W        W 9138   4.539   4.558   3.184
 4939W        W 9139   3.328   3.240   3.598
 4940W        W 9140   5.140   8.897   9.966
 4941W        W 9141   3.880  10.834  10.743
 4942W        W 9142   4.362   0.963  10.803
 4943W        W 9143   4.700   2.774   0.702
 4944W        W 9144   9.835   7.678   1.905
 4945W        W 9145   2.778  11.479  11.388
 4946W        W 9146   7.236  11.363   1.877
 4947W        W 9147  10.884   2.623  10.269
 4948W        W 9148   9.908   6.377  10.316
 4949W        W 9149   2.716   3.086   2.438
 4950W        W 9150   6.390   8.837   8.316
 4951W        W 9151  10.995   9.615  11.921
 4952W        W 9152   0.859   2.414   0.427
 4953W        W 9153   5.463   4.120   9.069
 4954W        W 9154   2.900  10.913  10.803
 4955W        W 9155   8.583   6.429   1.304
 4956W        W 9156   5.062   9.424   2.388
 4957W        W 9157   5.836   6.695   2.221
 4958W        W 9158   9.963   1.935   3.377
 4959W        W 9159   0.778   6.160   0.982
 4960W        W 9160   0.711  10.851   1.744
 4961W        W 9161   5.778   9.149  11.826
 4962W        W 9162   2.644   2.259   9.500
 4963W        W 9163   0.190   1.388   3.499
 4964W        W 9164   9.959   4.209   2.688
 4965W        W 9165   3.821   8.107  11.833
 4966W        W 9166   2.977   5.678   8.554
 4967W        W 9167  10.000   6.196  10.820
 4968W        W 9168   5.593   0.922   9.112
 4969W        W 9169  11.347   2.645   0.486
 4970W        W 9170   9.807  10.874   0.952
 4971W        W 9171  10.084  10.747   2.702
 4972W        W 9172   2.723   7.951   9.482
 4973W        W 9173  10.765   7.629   2.413
 4974W        W 9174   4.679   7.588   1.702
 4975W        W 9175  10.758   4.914   3.601
 4976W        W 9176  10.261   1.902  10.959
 4977W        W 9177   1.593   6.267   0.850
 4978W        W 9178  10.357   6.937   9.053
 4979W        W 9179   8.115   9.929   0.300
 4980W        W 9180   6.924   4.410   1.821
 4981W        W 9181   4.718   4.719   3.640
 4982W        W 9182   6.537   5.634   0.498
 4983W        W 9183   7.924   9.969   9.999
 4984W        W 9184   5.072   4.641   4.021
 4985W        W 9185   2.214   3.256   2.258
 4986W        W 9186   5.671   9.076   3.058
 4987W        W 9187   5.595   4.186   2.600
 4988W        W 9188   2.536   2.660   0.881
 4989W        W 9189  10.250   7.244   2.330
 4990W        W 9190   5.734   3.242   8.863
 4991W        W 9191   8.439  10.973  11.740
 4992W        W 9192   1.048   4.113   0.500
 4993W        W 9193   3.411   6.589  10.315
 4994W        W 9194  10.311   6.579  11.954
 4995W        W 9195   4.118   9.121   9.007
 4996W        W 9196   9.960   5.629   9.855
 4997W        W 9197   3.452   8.547   8.940
 4998W        W 9198   4.326  11.040  10.782
 4999W        W 9199   9.996   1.657  10.069
 5000W        W 9200  10.061   1.322   8.772
 5001W        W 9201  10.062   0.861   0.063
 5002W        W 9202   6.049   5.835   1.712
 5003W        W 9203   1.278   9.451   9.998
 5004W        W 9204   2.517   7.754   2.724
 5005W        W 9205   9.927   0.818   8.898
 5006W        W 9206   3.973   1.384  11.457
 5007W        W 9207   2.296   1.825   3.426
 5008W        W 9208   8.577   3.110  10.396
 5009W        W 9209  10.307  10.823   3.558
 5010W        W 9210   2.197   9.328  11.284
 5011W        W 9211   8.453   2.651   2.049
 5012W        W 9212   7.304  11.327   8.821
 5013W        W 9213   8.159   0.806   8.455
 5014W        W 9214   0.176   6.088   2.796
 5015W        W 9215   8.709   9.987   2.899
 5016W        W 9216   4.624   5.284   9.642
 5017W        W 9217   5.963   6.295   2.767
 5018W        W 9218   3.748  10.814   2.864
 5019W        W 9219   1.648   5.508   3.208
 5020W        W 9220   4.678   4.545   2.672
 5021W        W 9221   8.121   4.634   3.545
 5022W        W 9222   6.826   9.371   0.674
 5023W        W 9223   0.027   5.647  10.835
 5024W        W 9224   0.621   1.458   0.799
 5025W        W 9225   2.327   0.846   0.727
 5026W        W 9226   8.381   2.203   3.713
 5027W        W 9227   4.936   6.045   0.982
 5028W        W 9228  10.218  11.419   9.396
 5029W        W 9229   7.116   2.639   9.794
 5030W        W 9230  10.872   7.518   9.658
 5031W        W 9231   5.544   6.418  11.269
 5032W        W 9232   0.872   2.366   9.100
 5033W        W 9233   5.460   0.069   0.021
 5034W        W 9234   1.592   3.336  10.358
 5035W        W 9235   4.817   2.835   2.020
 5036W        W 9236   4.967   8.021   2.006
 5037W        W 9237   8.512   5.561   9.843
 5038W        W 9238   0.762   4.097  10.993
 5039W        W 9239  11.273   2.213   9.433
 5040W        W 9240   9.608   8.367   9.921
 5041W        W 9241   5.768   9.876   2.012
 5042W        W 9242   6.981   4.478   0.985
 5043W        W 9243   4.778   1.674   0.405
 5044W        W 9244   2.250  11.231  11.393
 5045W        W 9245   1.289   0.471   1.865
 5046W        W 9246   4.062   2.331   0.412
 5047W        W 9247   7.254   4.446   9.538
 5048W        W 9248   9.895  10.485   9.413
 5049W        W 9249   1.940   6.372  10.504
 5050W        W 9250   6.988   8.310   9.704
 5051W        W 9251   0.748   8.410   0.398
 5052W        W 9252   9.359   3.916   1.686
 5053W        W 9253   9.876   2.671   2.866
 5054W        W 9254   6.738  10.724   1.883
 5055W        W 9255   5.532   8.101   1.982
 5056W        W 9256   9.401   0.937  11.874
 5057W        W 9257   5.488  11.073   9.053
 5058W        W 9258   6.228   2.730   9.908
 5059W        W 9259   2.334   7.058   0.042
 5060W        W 9260  11.280  11.389   9.370
 5061W        W 9261   5.651   0.695  10.707
 5062W        W 9262  10.865   8.301   9.596
 5063W        W 9263  10.340   5.964  11.190
 5064W        W 9264   7.035   3.155   1.415
 5065W        W 9265   2.706   8.484   9.470
 5066W        W 9266  10.824   7.606   1.895
 5067W        W 9267   9.400   4.405  11.041
 5068W        W 9268   7.495  11.336   9.308
 5069W        W 9269  10.806   3.916   1.927
 5070W        W 9270   2.607   6.279   9.992
 5071W        W 9271  10.586   7.909  11.991
 5072W        W 9272   0.448  11.382   0.735
 5073W        W 9273  11.416   5.034   2.152
 5074W        W 9274   4.626  11.430   9.153
 5075W        W 9275   8.913   5.359   8.520
 5076W        W 9276   8.899   2.810   2.830
 5077W        W 9277   0.464   3.618  11.523
 5078W        W 9278   8.474   2.916   1.578
 5079W        W 9279   8.027   4.011   1.989
 5080W        W 9280   0.503   5.365  10.833
 5081W        W 9281   2.434   2.528  11.872
 5082W        W 9282   2.768   3.105   1.452
 5083W        W 9283   6.131  10.575   9.494
 5084W        W 9284   4.738  10.931   1.358
 5085W        W 9285   1.047   9.518   0.754
 5086W        W 9286   4.698   6.821   2.288
 5087W        W 9287   5.237   9.821   9.050
 5088W        W 9288   0.299   9.964   0.873
 5089W        W 9289   5.830   7.031   0.427
 5090W        W 9290   7.888   6.910   2.968
 5091W        W 9291   3.853  10.781   9.885
 5092W        W 9292   2.570   6.213  11.912
 5093W        W 9293   1.318   2.035   8.980
 5094W        W 9294   0.825   1.871  10.913
 5095W        W 9295   4.095   0.910  11.287
 5096W        W 9296   1.996  11.104  10.071
 5097W        W 9297   1.180   7.880   8.749
 5098W        W 9298   2.258   4.965   1.581
 5099W        W 9299   2.652   9.792  10.521
 5100W        W 9300  10.438  11.324   2.259
 5101W        W 9301   6.049   0.629   3.430
 5102W        W 9302   3.870   7.340   2.242
 5103W        W 9303   3.844   8.425   2.655
 5104W        W 9304  10.025   3.299   1.430
 5105W        W 9305   3.487   2.203  10.490
 5106W        W 9306   0.324   9.580   1.627
 5107W        W 9307   8.967   4.101   9.861
 5108W        W 9308   0.223   3.652   2.784
 5109W        W 9309   0.468   3.122  10.733
 5110W        W 9310   4.065  10.808   1.910
 5111W        W 9311   4.162  10.916  10.306
 5112W        W 9312   5.354   9.453   0.310
 5113W        W 9313   0.157  10.581   3.152
 5114W        W 9314  10.577   0.875  11.867
 5115W        W 9315   2.864   8.541   2.792
 5116W        W 9316   9.371   2.685   3.532
 5117W        W 9317   5.701   7.703  10.030
 5118W        W 9318   8.525   1.490   1.328
 5119W        W 9319   8.100   9.397   1.043
 5120W        W 9320   9.358   2.683  11.316
 5121W        W 9321   6.672   7.928   9.883
 5122W        W 9322   5.783   4.829  10.290
 5123W        W 9323   7.690  10.293  10.792
 5124W        W 9324   5.081   5.727  10.752
 5125W        W 9325   9.149   3.747   0.221
 5126W        W 9326   2.193   0.821   8.913
 5127W        W 9327   0.313   7.564   3.272
 5128W        W 9328   6.887   8.669   2.918
 5129W        W 9329   0.672  10.341   2.349
 5130W        W 9330   2.942   0.272  10.962
 5131W        W 9331   2.990   4.564  10.006
 5132W        W 9332   6.558   4.076   0.866
 5133W        W 9333   3.807   4.672   8.187
 5134W        W 9334   4.791   2.699   1.547
 5135W        W 9335   8.162   1.804   9.977
 5136W        W 9336   3.332   2.382   0.019
 5137W        W 9337   8.527   1.874  11.333
 5138W        W 9338   3.752  10.324   8.936
 5139W        W 9339   9.615   0.663   0.245
 5140W        W 9340   8.558   5.016  10.124
 5141W        W 9341   6.680  10.325  11.052
 5142W        W 9342   9.554   2.361   2.220
 5143W        W 9343  10.692   1.318  11.534
 5144W        W 9344   1.409   3.880  11.492
 5145W        W 9345   8.012   2.678   0.435
 5146W        W 9346   0.440   5.668   9.930
 5147W        W 9347   4.170   7.492   9.096
 5148W        W 9348  10.367   4.561  11.442
 5149W        W 9349   4.699   3.577   0.312
 5150W        W 9350   6.792   3.133   9.178
 5151W        W 9351   7.742   5.759   8.363
 5152W        W 9352   4.615   6.366   2.493
 5153W        W 9353   5.562   8.961   0.397
 5154W        W 9354   2.777   3.397  10.299
 5155W        W 9355   2.844   2.363   2.919
 5156W        W 9356   5.556   2.452   2.744
 5157W        W 9357   6.713   2.805   0.506
 5158W        W 9358   3.151   0.849   9.110
 5159W        W 9359   8.967  10.039  10.141
 5160W        W 9360  11.389   5.623   0.250
 5161W        W 9361   4.544   3.179   9.554
 5162W        W 9362   8.058   1.870   3.462
 5163W        W 9363   8.482   6.975   0.487
 5164W        W 9364  10.356   8.100   2.964
 5165W        W 9365   7.684   0.769   3.463
 5166W        W 9366   4.051  11.422  10.450
 5167W        W 9367   1.913   5.238  11.241
 5168W        W 9368   4.533   5.447   2.277
 5169W        W 9369   5.620   3.700   3.750
 5170W        W 9370   7.351   4.792  10.496
 5171W        W 9371  11.311   6.430   2.796
 5172W        W 9372   1.712   2.315   0.928
 5173W        W 9373   5.147   9.848   2.123
 5174W        W 9374  11.463  11.430   2.022
 5175W        W 9375   9.157   9.529   2.250
 5176W        W 9376   0.788   7.182   9.965
 5177W        W 9377   6.928   1.228  11.939
 5178W        W 9378   0.767   7.557   1.772
 5179W        W 9379   0.844   9.163   1.042
 5180W        W 9380   5.155   5.560  11.786
 5181W        W 9381  10.056   5.007  10.275
 5182W        W 9382  10.111   1.956  10.463
 5183W        W 9383   4.958   1.477  10.136
 5184W        W 9384   8.861   6.930   9.530
 5185W        W 9385   0.828   2.019  11.585
 5186W        W 9386   0.728   5.499   2.995
 5187W        W 9387   6.236   5.188   0.416
 5188W        W 9388   1.206   5.311  10.485
 5189W        W 9389   5.331   6.712  10.865
 5190W        W 9390   1.600   5.057  11.944
 5191W        W 9391   0.330  11.439   0.225
 5192W        W 9392   0.434   4.458  10.844
 5193W        W 9393  11.398   8.906   1.903
 5194W        W 9394   8.715  11.269   9.585
 5195W        W 9395  10.477   7.377  10.959
 5196W        W 9396   9.083   9.061   2.506
 5197W        W 9397  11.264   4.810   0.804
 5198W        W 9398   3.247   2.628   0.867
 5199W        W 9399   8.536   0.941   9.408
 5200W        W 9400   7.001   8.378   1.910
 5201W        W 9401   5.049  11.453   3.116
 5202W        W 9402   3.140   3.726   4.134
 5203W        W 9403   1.192   8.209   0.697
 5204W        W 9404   1.364   9.569   0.360
 5205W        W 9405   0.731   0.919  10.405
 5206W        W 9406  10.336   2.579   9.386
 5207W        W 9407  10.571   1.584   9.629
 5208W        W 9408  10.237   8.450   0.408
 5209W        W 9409   2.317  10.292   2.742
 5210W        W 9410   9.970   8.076  10.944
 5211W        W 9411   2.336  11.300   0.443
 5212W        W 9412   7.621   2.399   3.160
 5213W        W 9413   9.989   0.384  10.122
 5214W        W 9414   8.435  11.301   3.101
 5215W        W 9415   9.453   6.685   2.135
 5216W        W 9416   4.103   8.136   9.639
 5217W        W 9417   9.789   0.799   9.404
 5218W        W 9418   7.141  10.420   3.421
 5219W        W 9419   0.731   6.936  10.408
 5220W        W 9420  11.304   1.826  10.974
 5221W        W 9421   2.144   2.965   8.788
 5222W        W 9422   7.668   7.777   9.888
 5223W        W 9423   8.649   5.997  11.008
 5224W        W 9424   7.479   6.953   1.928
 5225W        W 9425   1.822  10.993   2.784
 5226W        W 9426   1.804  10.500  11.248
 5227W        W 9427   2.961   7.844  10.364
 5228W        W 9428   1.697   3.802   2.476
 5229W        W 9429   9.483   8.813   0.233
 5230W        W 9430   0.338   6.107   0.225
 5231W        W 9431   0.477   3.885   2.422
 5232W        W 9432   4.622   2.785   2.930
 5233W        W 9433   0.730   0.683   9.951
 5234W        W 9434  10.393   7.450   9.871
 5235W        W 9435   3.221   0.151   9.130
 5236W        W 9436   3.771   0.641   2.842
 5237W        W 9437   1.215   5.637   2.378
 5238W        W 9438   7.513   1.027   1.962
 5239W        W 9439   7.376   8.310   2.274
 5240W        W 9440   8.609   6.484   0.417
 5241W        W 9441  10.227   2.123   0.953
 5242W        W 9442   6.663   9.839   2.022
 5243W        W 9443   3.668  11.434   9.572
 5244W        W 9444   4.655   4.600  10.818
 5245W        W 9445   4.808   9.040   3.078
 5246W        W 9446   2.666   1.104   1.240
 5247W        W 9447   4.769   7.019  10.004
 5248W        W 9448   1.499   9.444  11.881
 5249W        W 9449   2.393   3.800   9.484
 5250W        W 9450   4.666   4.727   1.859
 5251W        W 9451   2.866  10.023  11.549
 5252W        W 9452   9.238   7.345  11.070
 5253W        W 9453   8.784   8.659   0.750
 5254W        W 9454   8.051   1.453   8.749
 5255W        W 9455   9.620   9.598   1.506
 5256W        W 9456   0.750   4.570  11.288
 5257W        W 9457   8.143   8.843  11.754
 5258W        W 9458   1.822   7.455  11.821
 5259W        W 9459   4.701   8.502   0.667
 5260W        W 9460   6.361   7.465   1.509
 5261W        W 9461   3.720   8.841  10.596
 5262W        W 9462  10.338   5.029  11.199
 5263W        W 9463   1.412   5.134   2.363
 5264W        W 9464   1.970   0.482   0.813
 5265W        W 9465   2.826   7.054   2.371
 5266W        W 9466   7.914   5.219  11.468
 5267W        W 9467   1.768   5.194   2.784
 5268W        W 9468   6.105   1.344   1.743
 5269W        W 9469   1.646   3.033   0.438
 5270W        W 9470  11.047   0.897   1.232
 5271W        W 9471   1.451   0.041   0.327
 5272W        W 9472   4.042   3.556  11.792
 5273W        W 9473   5.164   0.746   1.951
 5274W        W 9474  10.098   8.952   9.112
 5275W        W 9475   2.010  10.381   9.394
 5276W        W 9476   2.753   4.567   1.402
 5277W        W 9477   4.561   5.203  11.266
 5278W        W 9478   8.988   5.738   9.778
 5279W        W 9479   4.690   4.001   1.361
 5280W        W 9480   7.844   9.529  10.929
 5281W        W 9481   4.342   1.253   2.920
 5282W        W 9482   9.595   8.598   2.177
 5283W        W 9483   1.400   5.538  11.866
 5284W        W 9484   3.821   1.162   3.012
 5285W        W 9485   9.995   2.723  10.081
 5286W        W 9486   1.191   7.332   2.837
 5287W        W 9487   5.941   5.576   9.047
 5288W        W 9488   6.580   2.743   3.724
 5289W        W 9489   9.785   1.132   2.970
 5290W        W 9490   4.110  11.323   0.905
 5291W        W 9491   0.876  11.045  10.644
 5292W        W 9492   8.268   6.797   0.935
 5293W        W 9493   7.125   6.966  11.985
 5294W        W 9494   9.857  10.997  11.990
 5295W        W 9495   3.745   6.940  11.165
 5296W        W 9496   2.199   8.024   0.581
 5297W        W 9497   9.639   4.193   1.360
 5298W        W 9498  10.611   0.698   1.386
 5299W        W 9499   7.591   7.296   2.278
 5300W        W 9500   2.025   5.363   1.828
 5301W        W 9501  10.525  10.514  11.716
 5302W        W 9502   1.584   7.011   1.919
 5303W        W 9503   8.354   4.016  10.313
 5304W        W 9504   5.624   3.228   2.578
 5305W        W 9505   6.063   0.369   2.179
 5306W        W 9506   9.556   7.675   1.443
 5307W        W 9507   9.920   3.171   9.778
 5308W        W 9508   9.611   4.889   1.745
 5309W        W 9509   8.220   3.709   9.490
 5310W        W 9510   6.644   3.948   1.771
 5311W        W 9511   9.972   8.562  10.718
 5312W        W 9512   8.472  10.246  10.034
 5313W        W 9513   0.298  11.432   9.225
 5314W        W 9514   3.706   3.633  10.889
 5315W        W 9515  11.458  10.739   9.690
 5316W        W 9516   0.171   7.197  11.357
 5317W        W 9517   8.945   9.386  11.425
 5318W        W 9518   2.608   0.835   9.238
 5319W        W 9519   0.520   3.487  10.322
 5320W        W 9520  10.203   2.723   2.080
 5321W        W 9521   5.619   8.568   1.783
 5322W        W 9522   3.974   7.984   1.784
 5323W        W 9523   8.209   3.803   3.983
 5324W        W 9524   1.252   4.058   9.167
 5325W        W 9525   2.285   1.888   9.773
 5326W        W 9526   9.863  10.757   2.220
 5327W        W 9527   5.220   9.803   3.322
 5328W        W 9528   1.979   2.227  11.218
 5329W        W 9529   8.056  10.523   2.361
 5330W        W 9530   1.783   3.274   8.455
 5331W        W 9531   0.382  10.033  10.933
 5332W        W 9532   8.608   3.593   3.146
 5333W        W 9533   9.895   7.700   2.420
 5334W        W 9534   6.482  10.935   9.348
 5335W        W 9535   2.796   5.319  11.333
 5336W        W 9536   5.210   2.443   8.635
 5337W        W 9537   6.719   8.619   0.819
 5338W        W 9538   1.868   6.981   8.732
 5339W        W 9539   3.647   0.143   2.743
 5340W        W 9540   5.001   8.310   8.929
 5341W        W 9541   7.165   9.347   8.535
 5342W        W 9542   1.253   7.593   2.048
 5343W        W 9543   7.989   5.902   0.795
 5344W        W 9544   5.625  10.914   0.928
 5345W        W 9545   0.655   8.782  10.086
 5346W        W 9546   3.996   6.192   1.854
 5347W        W 9547  10.710   7.475   3.497
 5348W        W 9548   1.663   6.658   8.345
 5349W        W 9549   0.323  10.980   9.449
 5350W        W 9550   5.165   4.691   1.698
 5351W        W 9551   2.798   4.827  11.609
 5352W        W 9552   3.110   3.348   1.803
 5353W        W 9553   0.135   7.900   9.984
 5354W        W 9554   6.319   6.521   2.353
 5355W        W 9555   2.197  10.995   1.842
 5356W        W 9556   0.450   0.511   2.404
 5357W        W 9557   9.742   7.042   0.229
 5358W        W 9558   0.830   7.038   1.426
 5359W        W 9559   5.183   1.494   1.702
 5360W        W 9560   1.774   4.760  10.264
 5361W        W 9561   5.609   5.338   0.203
 5362W        W 9562   1.739   8.131   9.652
 5363W        W 9563   1.203   1.828  11.255
 5364W        W 9564  10.980   9.953   9.754
 5365W        W 9565   3.830   9.348   3.397
 5366W        W 9566   6.955   2.682   2.692
 5367W        W 9567   6.347   2.531  10.371
 5368W        W 9568   2.179   1.459   0.014
 5369W        W 9569   1.101   1.285   3.550
 5370W        W 9570   7.861   0.379   3.776
 5371W        W 9571   2.317   5.828   9.176
 5372W        W 9572   8.898   7.575   2.210
 5373W        W 9573  11.247   5.225   1.143
 5374W        W 9574   1.416  10.346   2.839
 5375W        W 9575   2.839   3.200   3.448
 5376W        W 9576  10.466   8.957   2.962
 5377W        W 9577   8.630   7.378   9.434
 5378W        W 9578   1.901   4.543  10.889
 5379W        W 9579  10.093   1.295   1.224
 5380W        W 9580   7.592   1.780   9.600
 5381W        W 9581   3.147   5.615   0.098
 5382W        W 9582   4.084   5.171  11.038
 5383W        W 9583   2.723   3.105   8.987
 5384W        W 9584   0.281   1.874   1.522
 5385W        W 9585   9.784   1.347   0.796
 5386W        W 9586   8.937   0.810   1.853
 5387W        W 9587   7.603   5.024   1.271
 5388W        W 9588   6.709  10.402   2.710
 5389W        W 9589   0.865  10.284  10.087
 5390W        W 9590   0.084   9.369   0.752
 5391W        W 9591   7.665   1.016   9.584
 5392W        W 9592   7.698   6.513   1.791
 5393W        W 9593   8.153   6.660   9.886
 5394W        W 9594   3.765   9.128   2.051
 5395W        W 9595   1.746   8.929  10.885
 5396W        W 9596   6.958   6.005  11.893
 5397W        W 9597   6.124   0.803   2.437
 5398W        W 9598   8.097  10.905   2.821
 5399W        W 9599   0.232   5.460   1.904
 5400W        W 9600   8.066   3.628   1.512
 5401W        W 9601  10.863   1.370   0.023
 5402W        W 9602   8.958   8.613   2.784
 5403W        W 9603   8.444   1.466   9.481
 5404W        W 9604   0.292   7.601  11.745
 5405W        W 9605   7.135   6.691  11.330
 5406W        W 9606   2.330   7.951  10.992
 5407W        W 9607   0.351   1.280  11.819
 5408W        W 9608   3.962   6.296   1.297
 5409W        W 9609   6.644   7.574   3.701
 5410W        W 9610  11.332   8.477   2.173
 5411W        W 9611   9.125  11.420   0.710
 5412W        W 9612   0.185   5.144   0.921
 5413W        W 9613   9.859   0.396  11.860
 5414W        W 9614   5.031   0.224   0.245
 5415W        W 9615   6.244   3.542   2.209
 5416W        W 9616  10.788  10.414   3.344
 5417W        W 9617  11.232   5.256   8.762
 5418W        W 9618   5.719   8.620   3.301
 5419W        W 9619   9.041   3.659   3.415
 5420W        W 9620  11.196   1.505   8.848
 5421W        W 9621   2.800  11.198   0.227
 5422W        W 9622   5.778   2.385   1.034
 5423W        W 9623   5.038   7.725  11.621
 5424W        W 9624   1.316   8.218   0.197
 5425W        W 9625  10.640   7.839   1.431
 5426W        W 9626   7.657   3.110   0.753
 5427W        W 9627  11.424   3.764   3.162
 5428W        W 9628   4.311   5.012   1.434
 5429W        W 9629   0.185   9.256  10.339
 5430W        W 9630   8.743   7.985  10.386
 5431W        W 9631   1.708  10.823   9.415
 5432W        W 9632   9.335   6.612  11.791
 5433W        W 9633   9.154   7.334   9.528
 5434W        W 9634  11.496  11.353   9.829
 5435W        W 9635  10.778   0.204   9.896
 5436W        W 9636   1.966  10.698   8.972
 5437W        W 9637   7.750   6.275   8.251
 5438W        W 9638   0.229   5.487   9.486
 5439W        W 9639  10.829   7.136   8.928
 5440W        W 9640   6.444   2.805   8.993
 5441W        W 9641  10.133   0.772  10.585
 5442W        W 9642   6.781   6.099   1.330
 5443W        W 9643   9.509   3.284   2.270
 5444W        W 9644   5.249   5.846   2.356
 5445W        W 9645   7.299   0.436  10.048
 5446W        W 9646   8.965   0.796   2.366
 5447W        W 9647   3.627   3.583   0.749
 5448W        W 9648   0.217   3.074  10.263
 5449W        W 9649   0.409   8.694  10.885
 5450W        W 9650   7.581   6.398   3.490
 5451W        W 9651   1.291   7.839  10.856
 5452W        W 9652   3.958   1.027   0.476
 5453W        W 9653   9.496   2.791   9.935
 5454W        W 9654   7.250   1.032   0.319
 5455W        W 9655   6.797   0.788   8.385
 5456W        W 9656   5.602   3.819   1.749
 5457W        W 9657   9.583   1.408   1.305
 5458W        W 9658   0.507   7.076   9.006
 5459W        W 9659   0.223   8.737  10.389
 5460W        W 9660   0.292   3.948  11.155
 5461W        W 9661   1.359  10.831  11.787
 5462W        W 9662  10.759   9.342   2.246
 5463W        W 9663   2.082   8.448   3.235
 5464W        W 9664   1.645  10.314   2.182
 5465W        W 9665   4.619   8.189   9.702
 5466W        W 9666   9.446   6.866   9.839
 5467W        W 9667   3.692   5.469  10.310
 5468W        W 9668  11.373   6.054   0.011
 5469W        W 9669   3.362   7.220  10.956
 5470W        W 9670  10.788   8.647   8.583
 5471W        W 9671  10.740   6.993   0.413
 5472W        W 9672   3.297   9.104  11.084
 5473W        W 9673   1.687   9.632  11.437
 5474W        W 9674   5.923   1.520   9.822
 5475W        W 9675   4.879  10.289  10.182
 5476W        W 9676   1.308   5.645   0.358
 5477W        W 9677   2.119   1.748  11.553
 5478W        W 9678   9.908   0.626   2.949
 5479W        W 9679   7.688   9.034   9.924
 5480W        W 9680   7.167   7.084  10.512
 5481W        W 9681  11.455   9.866   8.667
 5482W        W 9682   1.355  10.456   9.972
 5483W        W 9683   5.519  10.822   2.486
 5484W        W 9684   4.967   7.985   3.375
 5485W        W 9685   3.251   0.208  11.466
 5486W        W 9686   2.292   7.493  10.343
 5487W        W 9687   1.359   4.181   2.399
 5488W        W 9688  10.480   2.447   9.944
 5489W        W 9689   4.984   6.405  11.718
 5490W        W 9690   7.103   1.801   1.095
 5491W        W 9691   0.417   0.359   0.512
 5492W        W 9692   8.393   7.193  10.997
 5493W        W 9693   2.317   3.091   2.762
 5494W        W 9694  10.574   6.025   2.178
 5495W        W 9695   4.278  11.364  11.566
 5496W        W 9696   2.386  10.241  11.538
 5497W        W 9697   0.946  11.472   8.613
 5498W        W 9698   9.419   0.826   2.096
 5499W        W 9699   7.740   6.625   8.640
 5500W        W 9700   6.577   8.586   3.836
 5501W        W 9701   2.373   0.390   9.157
 5502W        W 9702   8.499   5.106   9.601
 5503W        W 9703   3.742   0.919   2.126
 5504W        W 9704   1.722   0.363   1.641
 5505W        W 9705   4.262   2.237   9.328
 5506W        W 9706   0.362   8.063   9.125
 5507W        W 9707   9.855   9.895   0.684
 5508W        W 9708   0.448   3.360   1.454
 5509W        W 9709   4.294   0.012  11.085
 5510W        W 9710  11.120   1.427   2.330
 5511W        W 9711   5.088   7.007   1.061
 5512W        W 9712   0.019   5.631   1.429
 5513W        W 9713   1.402   7.039   0.209
 5514W        W 9714   1.392   3.728   1.018
 5515W        W 9715   3.319   7.631   0.792
 5516W        W 9716   5.916   1.826   3.314
 5517W        W 9717   8.437   8.511   3.621
 5518W        W 9718  10.058  10.376   3.486
 5519W        W 9719   9.541   7.724  10.430
 5520W        W 9720   8.050  10.987  10.109
 5521W        W 9721  10.886   8.670   9.947
 5522W        W 9722   2.268   4.311   2.358
 5523W        W 9723   8.670   8.537  11.752
 5524W        W 9724   2.410   6.047  10.475
 5525W        W 9725   2.872   8.972  10.787
 5526W        W 9726   7.073   5.735  11.272
 5527W        W 9727   2.879   9.340   0.292
 5528W        W 9728   5.105   9.080  11.444
 5529W        W 9729   3.433   0.185  10.987
 5530W        W 9730   4.608   4.558   0.520
 5531W        W 9731   0.639   0.517  10.855
 5532W        W 9732   8.463   7.968   3.047
 5533W        W 9733  10.398   5.575   0.897
 5534W        W 9734   1.871   5.704  11.643
 5535W        W 9735   2.101   4.716   9.857
 5536W        W 9736  11.003   5.308   1.986
 5537W        W 9737   4.794  10.441  11.409
 5538W        W 9738   4.427   4.061   3.207
 5539W        W 9739   7.269   2.267   8.808
 5540W        W 9740   3.640   1.796   1.702
 5541W        W 9741   8.429   4.174   9.277
 5542W        W 9742   7.869   3.300   0.281
 5543W        W 9743   4.392   3.263   3.647
 5544W        W 9744   9.002   5.023   1.468
 5545W        W 9745   4.268   7.044   8.794
 5546W        W 9746   7.788   0.922   0.450
 5547W        W 9747   6.051   4.617   1.335
 5548W        W 9748  10.363   6.407  10.000
 5549W        W 9749   5.862   9.391   0.346
 5550W        W 9750   4.167   1.371   0.819
 5551W        W 9751  11.260   9.845  10.186
 5552W        W 9752   7.275   9.514  10.311
 5553W        W 9753   6.114   4.287   2.616
 5554W        W 9754   4.895   2.497   2.606
 5555W        W 9755  10.353   9.466  10.272
 5556W        W 9756   2.598   9.949  11.056
 5557W        W 9757   1.405   1.607   3.202
 5558W        W 9758   5.533   5.396   2.279
 5559W        W 9759   4.881   7.163   1.497
 5560W        W 9760   0.333   1.296  11.278
 5561W        W 9761   5.613   4.648   9.034
 5562W        W 9762   5.894   6.495   9.459
 5563W        W 9763   0.242   6.763   2.084
 5564W        W 9764   9.931  10.433   1.229
 5565W        W 9765   2.297   3.349   1.368
 5566W        W 9766   4.901   9.098   8.533
 5567W        W 9767   8.489   3.887   1.761
 5568W        W 9768   1.591   4.705   2.766
 5569W        W 9769   6.196  11.469   1.412
 5570W        W 9770   1.840   6.907   3.159
 5571W        W 9771   3.127   3.574   0.802
 5572W        W 9772   7.679   9.198   1.293
 5573W        W 9773   7.899   8.068  10.218
 5574W        W 9774   9.580  11.330   0.952
 5575W        W 9775   6.715   6.594   9.927
 5576W        W 9776   3.059   5.653   2.421
 5577W        W 9777   7.362   8.573   2.710
 5578W        W 9778   3.397  10.947  10.799
 5579W        W 9779   8.014   1.351   1.239
 5580W        W 9780   5.906   3.066   0.386
 5581W        W 9781  11.305   1.037   3.582
 5582W        W 9782  10.315   3.709   1.727
 5583W        W 9783   4.643   3.352  10.032
 5584W        W 9784   8.518   7.672   9.038
 5585W        W 9785   7.597   5.246   8.390
 5586W        W 9786   1.719   3.088   2.228
 5587W        W 9787   3.128   7.053   9.879
 5588W        W 9788   2.267   2.491   1.716
 5589W        W 9789   9.491   7.376   9.952
 5590W        W 9790   7.468   0.247  11.150
 5591W        W 9791   6.684   2.335   1.405
 5592W        W 9792   8.645   7.639   9.884
 5593W        W 9793  10.979   3.601   0.491
 5594W        W 9794   3.567   2.339   0.478
 5595W        W 9795   8.116   6.596  11.280
 5596W        W 9796   6.991   0.297   1.134
 5597W        W 9797   0.946   5.705   9.013
 5598W        W 9798  10.297   5.665   2.421
 5599W        W 9799   4.227   6.933  11.307
 5600W        W 9800   0.051   0.783  10.863
 5601W        W 9801   1.504  11.362   0.812
 5602W        W 9802   9.959   0.310   9.112
 5603W        W 9803   2.239   1.912   8.718
 5604W        W 9804   1.322   1.435   1.806
 5605W        W 9805   9.160   9.951   3.155
 5606W        W 9806   8.608   1.158  11.038
 5607W        W 9807   9.317   2.708   2.540
 5608W        W 9808   9.175  11.451   0.207
 5609W        W 9809   7.519   8.766   9.145
 5610W        W 9810   2.762   1.563   1.482
 5611W        W 9811  10.765  10.580   2.851
 5612W        W 9812  10.376   8.271   3.461
 5613W        W 9813   8.347   7.922   1.366
 5614W        W 9814   2.164   0.701   2.777
 5615W        W 9815   6.449   1.166  11.207
 5616W        W 9816   7.177   6.480   1.796
 5617W        W 9817   5.220   5.304   9.452
 5618W        W 9818   0.140   1.651   2.747
 5619W        W 9819   3.208   2.840   9.937
 5620W        W 9820   3.015   4.687   3.045
 5621W        W 9821   2.065   5.116   0.684
 5622W        W 9822   6.029   9.450   9.567
 5623W        W 9823   9.041   5.129   2.399
 5624W        W 9824   8.447   0.395   1.169
 5625W        W 9825  10.385   6.448  11.033
 5626W        W 9826   7.059   8.470  11.072
 5627W        W 9827   4.071   4.789  10.714
 5628W        W 9828   2.325   7.685   9.038
 5629W        W 9829   6.567   3.051   4.151
 5630W        W 9830  11.205  11.049  11.128
 5631W        W 9831   0.031   3.457   9.094
 5632W        W 9832   2.992   8.362   9.072
 5633W        W 9833   6.197   9.447  11.964
 5634W        W 9834   2.245   2.810   9.797
 5635W        W 9835   9.921   6.180  11.397
 5636W        W 9836   8.684   6.611   1.793
 5637W        W 9837  10.398  10.387  10.797
 5638W        W 9838  10.073   4.151   0.853
 5639W        W 9839   6.989   0.865   3.196
 5640W        W 9840  10.425   4.481   2.835
 5641W        W 9841   8.773   2.282   1.835
 5642W        W 9842   9.217   3.874   9.442
 5643W        W 9843   5.608   5.200   9.789
 5644W        W 9844   6.922  10.766   2.395
 5645W        W 9845   3.507   7.740  11.958
 5646W        W 9846   0.311   2.795   1.561
 5647W        W 9847   1.867   8.184   1.984
 5648W        W 9848   9.125   9.092   9.791
 5649W        W 9849   1.214   4.769  11.464
 5650W        W 9850  11.412   9.826   9.205
 5651W        W 9851   8.596   9.338  10.640
 5652W        W 9852   7.987   2.307  10.778
 5653W        W 9853   0.515   8.040  11.899
 5654W        W 9854   4.333   2.836  10.681
 5655W        W 9855   8.913   1.559  11.198
 5656W        W 9856   3.480   3.830   1.205
 5657W        W 9857   6.401   3.574   0.858
 5658W        W 9858   6.618   2.835   1.383
 5659W        W 9859  10.445   3.290  10.609
 5660W        W 9860   3.701   8.295  11.282
 5661W        W 9861   4.155   6.588   0.775
 5662W        W 9862   4.724   0.327  10.336
 5663W        W 9863   9.896   0.130  11.131
 5664W        W 9864  10.999  11.232   9.941
 5665W        W 9865   0.760   5.055   3.230
 5666W        W 9866  10.083   1.390   2.488
 5667W        W 9867   8.850   4.196   0.227
 5668W        W 9868   0.773   9.945   3.248
 5669W        W 9869  10.840   9.632   2.683
 5670W        W 9870   3.416   3.124   0.876
 5671W        W 9871  11.015   6.959   3.578
 5672W        W 9872   1.295   2.386   2.876
 5673W        W 9873   2.152  10.803   1.367
 5674W        W 9874   7.176  10.335   2.499
 5675W        W 9875   3.416  11.058   9.922
 5676W        W 9876   2.294   3.306   9.656
 5677W        W 9877   3.482   4.041  10.582
 5678W        W 9878   1.886   5.596   9.356
 5679W        W 9879   8.673   5.169   2.867
 5680W        W 9880   5.547   7.326   9.725
 5681W        W 9881   4.304   7.535   0.750
 5682W        W 9882   0.955   2.716   2.685
 5683W        W 9883   0.240   6.877  10.518
 5684W        W 9884   5.446   4.085   4.019
 5685W        W 9885   8.189   8.080   8.963
 5686W        W 9886   8.862   5.512  10.239
 5687W        W 9887   7.512   2.384  10.507
 5688W        W 9888   7.713  11.238   9.782
 5689W        W 9889   0.302   5.243   9.003
 5690W        W 9890   1.893   6.993   1.456
 5691W        W 9891   0.956   5.259   2.159
 5692W        W 9892   7.686   0.620   1.699
 5693W        W 9893  11.435   5.694   9.988
 5694W        W 9894   2.623  11.250   9.509
 5695W        W 9895  10.854   7.142  10.008
 5696W        W 9896   3.715   4.713   2.209
 5697W        W 9897   4.657   9.907   0.528
 5698W        W 9898   7.879   1.470  11.912
 5699W        W 9899   0.683   0.421   8.613
 5700W        W 9900  11.324   0.039  11.323
 5701W        W 9901   0.502   7.989   0.585
 5702W        W 9902  10.233  11.400  10.299
 5703W        W 9903   1.471   4.228   0.225
 5704W        W 9904   4.711   1.355   3.329
 5705W        W 9905   7.664   8.924  10.875
 5706W        W 9906   7.082   8.838   8.390
 5707W        W 9907   3.713   5.501  10.845
 5708W        W 9908   4.955   4.313  10.493
 5709W        W 9909   0.386   8.785   0.364
 5710W        W 9910   6.935   4.544  10.315
 5711W        W 9911   8.223   9.606   8.823
 5712W        W 9912   5.007   2.926  10.622
 5713W        W 9913   9.815   4.638  10.617
 5714W        W 9914  11.138   8.494  10.391
 5715W        W 9915   4.466   8.013   1.903
 5716W        W 9916   6.413   1.336   1.331
 5717W        W 9917   1.441   9.074   1.203
 5718W        W 9918   9.922   6.464   3.579
 5719W        W 9919   1.284   7.180   2.330
 5720W        W 9920   8.074   4.207   1.055
 5721W        W 9921   4.788   5.235   1.879
 5722W        W 9922   0.458   3.468   9.432
 5723W        W 9923   6.932   1.710   2.140
 5724W        W 9924   4.444  10.281   0.871
 5725W        W 9925  10.028   8.082   9.830
 5726W        W 9926  10.294   3.973   0.002
 5727W        W 9927   8.427   6.150   1.723
 5728W        W 9928  11.292   3.395   0.872
 5729W        W 9929   4.473   6.331   1.167
 5730W        W 9930  11.495   8.567   0.665
 5731W        W 9931   8.833   1.000   3.364
 5732W        W 9932   3.888   7.121   1.500
 5733W        W 9933   9.063   4.230   0.696
 5734W        W 9934   7.665   1.424   1.648
 5735W        W 9935  11.286  10.073  11.648
 5736W        W 9936   4.145   5.064   2.357
 5737W        W 9937   8.954   7.511   1.710
 5738W        W 9938   3.162   7.721   9.384
 5739W        W 9939   2.296   4.796   1.037
 5740W        W 9940   1.428  11.411   8.814
 5741W        W 9941   1.409  11.293  11.536
 5742W        W 9942   7.160   2.955   8.827
 5743W        W 9943  11.187   9.267  11.002
 5744W        W 9944   0.446   3.752   3.249
 5745W        W 9945   1.009   8.510  10.348
 5746W        W 9946   8.893   5.959   8.474
 5747W        W 9947   6.383   0.829  10.699
 5748W        W 9948   5.517   3.677   8.167
 5749W        W 9949   9.592   8.578   3.101
 5750W        W 9950   5.914   3.412   1.833
 5751W        W 9951   2.271   8.476  10.293
 5752W        W 9952   5.730   9.101   3.585
 5753W        W 9953   3.641   1.904   9.491
 5754W        W 9954   1.460   4.627   2.190
 5755W        W 9955   6.064   8.330   2.718
 5756W        W 9956  10.377   6.614   3.363
 5757W        W 9957   0.302  10.549   9.133
 5758W        W 9958   9.598   5.540   1.144
 5759W        W 9959   8.495   0.815   2.113
 5760W        W 9960   2.896   7.884   1.322
 5761W        W 9961   0.039  10.529  11.794
 5762W        W 9962   5.190   0.979  11.396
 5763W        W 9963   9.044   7.600   2.697
 5764W        W 9964   2.260   0.858  10.855
 5765W        W 9965   6.361  10.525  10.644
 5766W        W 9966   3.543   3.724   3.549
 5767W        W 9967  10.545   9.904  10.915
 5768W        W 9968   6.170   1.754  10.997
 5769W        W 9969   8.122   7.650  11.196
 5770W        W 9970   2.264   8.886  11.020
 5771W        W 9971   8.964   6.022   0.793
 5772W        W 9972  10.121   4.191  10.615
 5773W        W 9973   3.227   9.067   9.015
 5774W        W 9974  10.557   9.034   8.886
 5775W        W 9975  10.000   9.030   2.200
 5776W        W 9976  10.260   5.414  10.505
 5777W        W 9977   1.759   3.846   2.997
 5778W        W 9978  11.290  10.287   0.662
 5779W        W 9979   1.937  11.437   1.790
 5780W        W 9980   4.527  10.917  11.398
 5781W        W 9981   2.787   2.072   9.052
 5782W        W 9982   6.204   9.015   2.346
 5783W        W 9983   8.949   0.321   2.573
 5784W        W 9984   9.553   6.390   9.610
 5785W        W 9985   1.388   3.865  10.980
 5786W        W 9986   7.457   7.642  11.695
 5787W        W 9987   0.979   3.695  10.294
 5788W        W 9988   4.970   7.233   0.598
 5789W        W 9989  10.539  10.893   2.514
 5790W        W 9990   3.299   3.788   9.736
 5791W        W 9991   1.786  11.416   3.554
 5792W        W 9992   7.250   7.510   0.827
 5793W        W 9993   3.137  10.799  11.283
 5794W        W 9994   0.296  10.031   1.381
 5795W        W 9995   8.641   1.974   1.442
 5796W        W 9996   5.175   1.926  10.921
 5797W        W 9997   4.675   6.077  10.744
 5798W        W 9998  10.042   7.583   1.343
 5799W        W 9999   2.374   9.864   2.495
 5800W        W10000  10.337   4.982   8.830
 5801W        W10001   4.715  10.546   1.795
 5802W        W10002   6.972   0.370   0.138
 5803W        W10003   0.603  11.306  11.765
 5804W        W10004   9.239   5.207  11.298
 5805W        W10005   8.103   5.665   8.731
 5806W        W10006   8.552  11.002   1.757
 5807W        W10007   2.632   4.637   2.709
 5808W        W10008   3.785   3.089   9.111
 5809W        W10009   3.439   9.401   3.720
 5810W        W10010   2.588   9.350   0.711
 5811W        W10011   2.633   4.290  10.279
 5812W        W10012   3.725   4.189   2.068
 5813W        W10013   8.461   9.565   0.173
 5814W        W10014   7.724   6.479   9.136
 5815W        W10015   1.845   0.993   0.730
 5816W        W10016   9.001  10.897   2.490
 5817W        W10017   2.827   5.576  10.804
 5818W        W10018  10.875  10.532   0.856
 5819W        W10019   5.644  10.148   9.815
 5820W        W10020   5.675   9.550   3.264
 5821W        W10021   6.763   1.208   2.332
 5822W        W10022   6.103   1.490   8.989
 5823W        W10023   0.877   4.846   8.487
 5824W        W10024   8.683   4.746   9.285
 5825W        W10025   6.257   1.660   2.979
 5826W        W10026   6.656   0.576  11.769
 5827W        W10027   4.680   1.319   0.768
 5828W        W10028   9.484   8.782  10.836
 5829W        W10029   2.671   9.127  11.223
 5830W        W10030   3.624   2.330   1.875
 5831W        W10031  11.472   8.929   2.413
 5832W        W10032   1.798   8.693   1.880
 5833W        W10033   8.937   8.476  11.043
 5834W        W10034   8.145   4.794   1.691
 5835W        W10035   7.063   6.505   1.182
 5836W        W10036   5.937   8.562   0.298
 5837W        W10037   9.868   1.893   2.524
 5838W        W10038   8.622   6.452   9.139
 5839W        W10039   6.266   3.756   3.100
 5840W        W10040   2.620   8.829   1.356
 5841W        W10041   3.686   9.917   1.352
 5842W        W10042   0.891   4.618  11.797
 5843W        W10043  11.431   3.656  11.443
 5844W        W10044  10.496   5.711  11.929
 5845W        W10045   7.531   4.078   9.807
 5846W        W10046   7.973   7.907   3.217
 5847W        W10047   1.455   9.875   9.287
 5848W        W10048  10.303  11.358   2.785
 5849W        W10049   2.261  10.632   0.880
 5850W        W10050   2.887   3.405  11.389
 5851W        W10051  11.376   1.062  11.325
 5852W        W10052   8.310   3.821   0.789
 5853W        W10053   5.220   9.657   1.164
 5854W        W10054   0.366   7.506   9.288
 5855W        W10055  10.412   4.219   1.795
 5856W        W10056   8.920   0.124   8.780
 5857W        W10057   0.336   8.376   1.398
 5858W        W10058  10.873   1.892   1.258
 5859W        W10059   1.174  10.317   2.349
 5860W        W10060  10.051   3.233  11.400
 5861W        W10061   6.433   7.816  10.887
 5862W        W10062   6.109   4.338   0.917
 5863W        W10063   6.667   1.307   0.462
 5864W        W10064   7.975   4.271  11.101
 5865W        W10065   8.673   5.909  10.507
 5866W        W10066   7.404   8.265  10.052
 5867W        W10067   8.947   8.082   9.899
 5868W        W10068   6.713  11.408   1.358
 5869W        W10069   1.620   6.117   9.565
 5870W        W10070   1.681   0.938  10.141
 5871W        W10071   1.622   2.504   3.435
 5872W        W10072   6.908   1.425   1.347
 5873W        W10073   5.269   2.160  11.833
 5874W        W10074  11.348   0.389  11.734
 5875W        W10075   2.097   9.081   1.968
 5876W        W10076   9.094   8.596   2.276
 5877W        W10077   3.917   7.011   3.234
 5878W        W10078  10.764   5.872   3.599
 5879W        W10079   2.521   7.048  10.475
 5880W        W10080  10.495   5.639   1.396
 5881W        W10081   3.171   5.629  11.548
 5882W        W10082   7.972   6.968   9.552
 5883W        W10083   6.670   0.422   2.955
 5884W        W10084   9.388   3.285   8.450
 5885W        W10085   4.681   7.065   9.124
 5886W        W10086   5.093   7.150  10.977
 5887W        W10087   8.350   4.841   2.178
 5888W        W10088  11.350   4.790   0.284
 5889W        W10089   2.367   8.606   2.826
 5890W        W10090   6.463   8.025   8.663
 5891W        W10091  11.039   2.811   1.794
 5892W        W10092   6.517   8.488   9.881
 5893W        W10093   5.560   3.252   9.759
 5894W        W10094  10.333   5.502  10.992
 5895W        W10095  10.317   0.256   1.331
 5896W        W10096   3.479  10.172   0.636
 5897W        W10097   4.905   1.139  10.532
 5898W        W10098   2.678  10.997  11.252
 5899W        W10099   7.528  10.186  11.945
 5900W        W10100   2.099   6.673   0.316
 5901W        W10101  10.451   1.067   9.699
 5902W        W10102   7.313   8.301   1.406
 5903W        W10103   2.608   8.856  10.368
 5904W        W10104   2.714   5.845   1.600
 5905W        W10105   7.540   9.539   2.791
 5906W        W10106   8.622   3.218   2.662
 5907W        W10107   6.503  11.393   2.880
 5908W        W10108   5.343   4.786   9.441
 5909W        W10109   1.697   9.734  10.101
 5910W        W10110   0.305   7.540   2.711
 5911W        W10111   2.852  10.420   1.413
 5912W        W10112  10.418   3.792   1.234
 5913W        W10113   6.205   8.185   9.074
 5914W        W10114   9.494   0.232   0.505
 5915W        W10115   5.997   7.194   1.772
 5916W        W10116   4.475  10.536  10.557
 5917W        W10117   0.412  11.013   8.948
 5918W        W10118  11.096   1.821   0.805
 5919W        W10119   3.375   9.785   0.962
 5920W        W10120   5.419   1.058  10.435
 5921W        W10121   6.567   9.515   1.641
 5922W        W10122   6.194   1.930   8.427
 5923W        W10123   0.278   8.483   8.817
 5924W        W10124   1.649   3.112  11.930
 5925W        W10125   9.103   8.594   3.302
 5926W        W10126   4.675   8.740   9.797
 5927W        W10127   9.316   2.790   9.066
 5928W        W10128   7.240  11.407   1.339
 5929W        W10129   6.225   8.942   0.051
 5930W        W10130   9.356   6.101   8.794
 5931W        W10131  10.008   4.563   1.788
 5932W        W10132   1.794   1.994   3.648
 5933W        W10133   1.110   2.297   3.630
 5934W        W10134  11.236   9.451  10.513
 5935W        W10135   2.634   1.096   8.800
 5936W        W10136  10.727   4.572  10.056
 5937W        W10137   2.155   6.792  10.738
 5938W        W10138   7.128   7.946  11.944
 5939W        W10139   1.428  10.880  10.745
 5940W        W10140   9.241   7.517  11.959
 5941W        W10141   4.248   8.475   1.828
 5942W        W10142  10.037   5.798   1.212
 5943W        W10143   4.497  10.684   2.242
 5944W        W10144  10.078   2.639  11.936
 5945W        W10145   2.746   8.571   1.980
 5946W        W10146  10.309   4.573  10.333
 5947W        W10147   7.443   9.880  11.002
 5948W        W10148   4.247  11.148   2.254
 5949W        W10149   8.243   8.565   0.756
 5950W        W10150   9.008   6.821   0.523
 5951W        W10151   6.721   1.871   9.801
 5952W        W10152   1.620   0.638   0.419
 5953W        W10153   9.149   6.707   2.711
 5954W        W10154   9.010   7.317   0.745
 5955W        W10155   7.157   5.640   9.859
 5956W        W10156   2.639   9.908   1.373
 5957W        W10157  11.318   0.645   0.180
 5958W        W10158   7.127   2.560   0.290
 5959W        W10159   5.272   5.231   1.520
 5960W        W10160   5.221   0.216  10.210
 5961W        W10161  10.979   8.863   2.289
 5962W        W10162   0.706   9.229   8.905
 5963W        W10163   7.490   1.770   2.480
 5964W        W10164  10.919   5.998   8.913
 5965W        W10165   2.685  11.466   2.903
 5966W        W10166   0.687   4.098  11.502
 5967W        W10167   8.963   5.582  11.043
 5968W        W10168  11.174   7.228  11.507
 5969W        W10169   5.737   7.054  10.122
 5970W        W10170   9.177   2.232   3.456
 5971W        W10171   1.785  11.317   2.270
 5972W        W10172   6.947   2.232  10.090
 5973W        W10173  10.407   7.443   8.853
 5974W        W10174   0.905   0.182   1.635
 5975W        W10175   8.604   8.987  11.479
 5976W        W10176   1.423   9.813   1.987
 5977W        W10177   4.207   4.347   2.832
 5978W        W10178  10.051   5.086   1.933
 5979W        W10179  10.357  11.083  11.571
 5980W        W10180  10.566   3.178   2.849
 5981W        W10181  10.996   7.681  10.782
 5982W        W10182   7.039   7.137  11.056
 5983W        W10183   9.364   9.540  11.721
 5984W        W10184  10.604   7.985   0.911
 5985W        W10185   5.011   5.213  10.992
 5986W        W10186   1.591   1.987   2.706
 5987W        W10187   1.465   4.478   1.141
 5988W        W10188   9.242   7.008  11.469
 5989W        W10189   0.181   9.416   2.643
 5990W        W10190   1.135   6.562   0.159
 5991W        W10191  11.425   1.529  11.539
 5992W        W10192   6.251   9.004   9.412
 5993W        W10193   3.786  10.815   2.349
 5994W        W10194   6.047   5.563  11.768
 5995W        W10195   5.521   1.783   2.592
 5996W        W10196   2.528   8.983   9.462
 5997W        W10197  10.041  10.946   0.486
 5998W        W10198   9.943   8.589   3.480
 5999W        W10199   6.902   7.123   3.693
 6000W        W10200   4.157   9.984  10.261
 6001W        W10201   3.316  10.335  11.349
 6002W        W10202   3.011   6.261   1.576
 6003W        W10203   2.735   0.489   3.023
 6004W        W10204   6.114  10.985  11.891
 6005W        W10205   7.996   6.108   2.002
 6006W        W10206   4.647   4.365  11.335
 6007W        W10207   5.040   0.191   0.759
 6008W        W10208   4.024   9.682  11.057
 6009W        W10209  10.103   8.571   2.990
 6010W        W10210   5.177   3.608   3.222
 6011W        W10211  10.451   1.922  10.052
 6012W        W10212   2.695   5.467   3.620
 6013W        W10213   7.686   9.839  10.519
 6014W        W10214   8.247   5.581   1.156
 6015W        W10215   3.872   0.752  11.737
 6016W        W10216   1.007   6.936   3.599
 6017W        W10217   2.259   7.930   3.272
 6018W        W10218   0.642   7.876   3.563
 6019W        W10219   7.951   1.416   9.719
 6020W        W10220   1.294   2.556   8.854
 6021W        W10221   8.259   8.077  10.577
 6022W        W10222  10.856   0.978   2.221
 6023W        W10223   0.516   1.916   1.059
 6024W        W10224   9.355   9.621   9.457
 6025W        W10225   7.924   5.167   2.263
 6026W        W10226   8.806   4.598   2.261
 6027W        W10227   5.209   3.731   0.288
 6028W        W10228   9.276   7.109   2.377
 6029W        W10229   8.345   0.458   9.429
 6030W        W10230   7.876  11.239   0.770
 6031W        W10231   1.012   7.292  10.933
 6032W        W10232   8.948   5.204   9.840
 6033W        W10233   6.545  10.281   0.377
 6034W        W10234   7.074   3.752   2.640
 6035W        W10235   6.183  11.422   1.930
 6036W        W10236   6.104   9.488   3.557
 6037W        W10237   1.726   8.937   3.697
 6038W        W10238   5.540   9.475   0.769
 6039W        W10239  11.033   3.248   9.136
 6040W        W10240   0.718   6.506   3.496
 6041W        W10241   0.140   5.337  11.232
 6042W        W10242   2.731   4.154   2.515
 6043W        W10243   9.789   3.094  11.987
 6044W        W10244   7.110   4.417  10.787
 6045W        W10245   3.825   6.973   0.622
 6046W        W10246   7.433   6.527   2.252
 6047W        W10247  11.015  10.953   9.528
 6048W        W10248   6.963   8.719  11.556
 6049W        W10249   4.634   7.236   1.025
 6050W        W10250   1.712   0.324   2.152
 6051W        W10251   5.548   4.578   9.863
 6052W        W10252  10.418   3.052  11.078
 6053W        W10253  10.184   7.049   1.408
 6054W        W10254   2.429   8.662   9.860
 6055W        W10255   8.453   0.305  10.999
 6056W        W10256  10.883   5.392   3.470
 6057W        W10257  10.606   1.398   2.400
 6058W        W10258   9.580   8.212   0.873
 6059W        W10259   3.607   9.481  11.311
 6060W        W10260   6.584   0.332  10.564
 6061W        W10261   3.620   5.734   9.870
 6062W        W10262   7.015   1.727  11.774
 6063W        W10263   9.855   8.135  10.334
 6064W        W10264  10.401   3.998   2.556
 6065W        W10265   8.247   2.138   2.792
 6066W        W10266  10.225   2.180  11.425
 6067W        W10267   2.437  10.401   3.230
 6068W        W10268   3.725   9.796  10.085
 6069W        W10269   8.645   0.957   8.606
 6070W        W10270   2.740   4.879   1.803
 6071W        W10271   6.018   3.351   2.887
 6072W        W10272   2.715   3.405   9.418
 6073W        W10273  10.037   7.681  10.622
 6074W        W10274   6.871   5.819  10.807
 6075W        W10275   5.928  10.812   2.186
 6076W        W10276   4.478   7.690   1.224
 6077W        W10277   9.595  11.082   1.431
 6078W        W10278   5.908   5.043   2.201
 6079W        W10279   9.928   2.186   9.371
 6080W        W10280   4.555   4.474   4.061
 6081W        W10281   9.066   8.241   0.978
 6082W        W10282   6.054   8.453  10.758
 6083W        W10283  10.177  10.345   2.105
 6084W        W10284   6.222   8.476   8.635
 6085W        W10285   7.650   3.498   1.161
 6086W        W10286   1.839   1.736   2.207
 6087W        W10287   3.120  11.343   9.611
 6088W        W10288   8.999   0.654  11.684
 6089W        W10289   0.789   9.267   9.875
 6090W        W10290   9.310   4.709   0.835
 6091W        W10291   2.225   5.734   1.466
 6092W        W10292   0.816   4.322   9.037
 6093W        W10293   8.916   3.933   9.018
 6094W        W10294   0.272   9.799   0.386
 6095W        W10295   1.928   7.795   8.683
 6096W        W10296   4.836   8.877   1.006
 6097W        W10297  10.976   5.072   9.488
 6098W        W10298   7.361   9.637   9.292
 6099W        W10299   4.240   9.454   2.503
 6100W        W10300  11.085   4.331   1.059
 6101W        W10301   0.888   4.019   2.171
 6102W        W10302   5.767   6.145  10.228
 6103W        W10303   3.418   9.515   9.796
 6104W        W10304   9.973   1.716   1.569
 6105W        W10305   9.448   5.387   0.224
 6106W        W10306   2.859   5.729   0.716
 6107W        W10307   7.060   4.657  11.621
 6108W        W10308   8.814   8.553   1.800
 6109W        W10309   3.886   9.827   0.895
 6110W        W10310   9.583   3.763  11.364
 6111W        W10311   3.620   0.249  10.520
 6112W        W10312   4.621   6.990  10.990
 6113W        W10313   7.824   0.848  11.242
 6114W        W10314   8.481  11.311  10.066
 6115W        W10315   2.840  10.625   0.179
 6116W        W10316   8.939   2.833  10.616
 6117W        W10317   4.541  10.893   3.490
 6118W        W10318  10.397  10.670  11.244
 6119W        W10319   3.779   8.094   0.358
 6120W        W10320   2.823   8.216  11.497
 6121W        W10321   4.625   3.261  10.541
 6122W        W10322   1.177   8.965   9.736
 6123W        W10323  10.141   1.448  11.348
 6124W        W10324   6.269   1.333   9.476
 6125W        W10325   0.456   7.842  10.407
 6126W        W10326   3.114   8.927   0.470
 6127W        W10327   3.333   0.421   0.494
 6128W        W10328   5.197   8.171   9.416
 6129W        W10329  11.198   2.796   9.362
 6130W        W10330   9.361  10.537   2.318
 6131W        W10331   9.000  10.439   3.297
 6132W        W10332   0.328   8.829  11.378
 6133W        W10333   2.145   2.347   9.519
 6134W        W10334   8.005   0.354   1.395
 6135W        W10335   9.696  11.465   9.441
 6136W        W10336   1.720   4.838  11.507
 6137W        W10337   1.934  10.546   1.798
 6138W        W10338   8.160   8.906   0.327
 6139W        W10339   6.208   6.718   1.878
 6140W        W10340   4.223   4.588  11.737
 6141W        W10341   7.079   8.947   0.592
 6142W        W10342   4.224   2.685   3.624
 6143W        W10343   3.026   3.651   3.642
 6144W        W10344   3.693   8.903   9.194
 6145W        W10345   6.406   0.506   0.211
 6146W        W10346   6.154  11.322   2.438
 6147W        W10347   5.250   6.647   0.675
 6148W        W10348   5.142  11.028   2.785
 6149W        W10349   2.705   0.196  10.446
 6150W        W10350   7.657  10.792   2.198
 6151W        W10351   8.136  11.044   1.440
 6152W        W10352   5.470   8.019  10.777
 6153W        W10353  10.286   1.285   0.718
 6154W        W10354   5.565   8.571   3.779
 6155W        W10355   9.569   2.521   0.602
 6156W        W10356   5.176   4.441   2.755
 6157W        W10357   0.961   3.199   3.637
 6158W        W10358   2.396  11.125   0.942
 6159W        W10359   3.664   6.923  10.653
 6160W        W10360   6.471   5.456  10.144
 6161W        W10361   6.469   2.396  11.412
 6162W        W10362   1.954   8.465  10.950
 6163W        W10363   1.201   9.428   9.502
 6164W        W10364   6.340   7.157   0.515
 6165W        W10365   8.906   1.696   0.206
 6166W        W10366   9.793   2.846   2.366
 6167W        W10367   4.017   4.604   1.398
 6168W        W10368   5.522  10.030   2.975
 6169W        W10369   6.181  10.262   9.064
 6170W        W10370   7.044  10.936   9.055
 6171W        W10371   5.831   2.871   2.902
 6172W        W10372   1.162   1.647  11.741
 6173W        W10373   0.004   9.072  11.951
 6174W        W10374   7.753   5.577  11.836
 6175W        W10375   5.568   7.103  11.175
 6176W        W10376   4.339   2.241   8.824
 6177W        W10377   6.089   6.420   1.479
 6178W        W10378   3.439   9.831   2.777
 6179W        W10379   0.719   1.145   0.183
 6180W        W10380   0.299  10.057   8.982
 6181W        W10381   7.134   9.985   9.588
 6182W        W10382  10.921   6.232   2.495
 6183W        W10383   6.603  10.335   2.202
 6184W        W10384  10.844   3.448   9.622
 6185W        W10385   7.966   1.381  10.242
 6186W        W10386   9.833   4.172   9.782
 6187W        W10387   7.248   0.772   2.331
 6188W        W10388   0.883   8.045   2.523
 6189W        W10389  10.425   9.870   9.958
 6190W        W10390   3.735   6.486   0.348
 6191W        W10391   5.364   5.511   2.756
 6192W        W10392   1.852   4.133   1.332
 6193W        W10393   9.104  10.736   8.978
 6194W        W10394  10.144   1.725   9.086
 6195W        W10395  10.335   0.660   3.311
 6196W        W10396   1.335   6.599  11.312
 6197W        W10397   6.557   1.732   9.274
 6198W        W10398   9.313   0.464   8.732
 6199W        W10399   6.620  10.544   9.660
 6200W        W10400   1.792   8.572  10.464
 6201W        W10401   6.630   4.197   0.213
 6202W        W10402   0.633   4.550   3.395
 6203W        W10403   9.310   4.146  11.988
 6204W        W10404   6.709   9.438   1.167
 6205W        W10405   9.950  10.593   1.722
 6206W        W10406   2.127   7.580   0.247
 6207W        W10407   8.912   1.018   2.838
 6208W        W10408   8.500  10.412   3.113
 6209W        W10409   6.968  11.438  11.884
 6210W        W10410   3.416   9.908   1.795
 6211W        W10411   6.193   8.581   0.863
 6212W        W10412  11.212   7.917  10.342
 6213W        W10413  11.298   0.896   3.073
 6214W        W10414   7.724   0.751  10.016
 6215W        W10415   8.124   5.442   0.678
 6216W        W10416   9.090   5.669   1.132
 6217W        W10417   6.118   7.565   3.613
 6218W        W10418   8.823   1.428   0.905
 6219W        W10419   5.970  11.341  10.252
 6220W        W10420   5.942   8.040   8.623
 6221W        W10421   8.449   7.393   2.342
 6222W        W10422   4.570   0.066  11.988
 6223W        W10423  10.011   3.325   2.242
 6224W        W10424   8.708   8.402   9.591
 6225W        W10425  11.347   3.221   2.148
 6226W        W10426   0.700   1.653  11.979
 6227W        W10427   4.938   2.320   0.619
 6228W        W10428   9.466   8.490   3.656
 6229W        W10429  10.287   2.684  11.445
 6230W        W10430  10.582   8.134   9.183
 6231W        W10431   8.604   8.717   3.177
 6232W        W10432   1.028  10.362  11.896
 6233W        W10433   8.158   5.951  10.548
 6234W        W10434   2.126  10.148   3.562
 6235W        W10435   3.606   7.250   0.078
 6236W        W10436   4.747   9.903  11.389
 6237W        W10437   0.345  10.305  10.498
 6238W        W10438   9.299   0.663  10.889
 6239W        W10439   5.035   1.714   2.765
 6240W        W10440   1.997  10.236   0.715
 6241W        W10441   0.962   6.100  10.857
 6242W        W10442   4.865   7.517   3.095
 6243W        W10443   5.533   0.439   3.499
 6244W        W10444   7.918   0.477  10.880
 6245W        W10445   4.560   3.183   1.650
 6246W        W10446   2.263   6.721   1.779
 6247W        W10447   9.333   1.434   0.023
 6248W        W10448   3.806   0.405   1.904
 6249W        W10449   7.471   3.562   9.960
 6250W        W10450   4.532   7.505  11.795
 6251W        W10451   4.592   3.889  10.033
 6252W        W10452   5.707   5.622   9.507
 6253W        W10453   9.011  10.282  11.478
 6254W        W10454   5.485   1.365  11.491
 6255W        W10455   5.230   0.459   9.747
 6256W        W10456  11.454   6.914   2.655
 6257W        W10457   1.910   8.118  11.334
 6258W        W10458   5.968   5.235   0.893
 6259W        W10459  10.913   7.295  10.484
 6260W        W10460   5.673   8.038   1.486
 6261W        W10461   0.937  11.048   2.680
 6262W        W10462   0.707   6.340  11.937
 6263W        W10463   1.399  11.234   2.605
 6264W        W10464   7.311   6.842   1.455
 6265W        W10465   4.754   9.344  11.178
 6266W        W10466   8.844   8.997   2.058
 6267W        W10467   8.555   4.667   0.326
 6268W        W10468   8.883   4.213   1.681
 6269W        W10469   7.841   3.576   3.645
 6270W        W10470   5.628   8.015   0.954
 6271W        W10471   0.895   9.659  11.025
 6272W        W10472   9.969   0.006   2.131
 6273W        W10473   1.769   0.302   3.179
 6274W        W10474   9.070   6.264  11.152
 6275W        W10475   9.877  10.440  10.615
 6276W        W10476   7.858   5.596   2.593
 6277W        W10477  11.334   6.511   2.302
 6278W        W10478   0.173   2.211  10.314
 6279W        W10479   3.585   4.257  11.480
 6280W        W10480  10.467   0.370  10.312
 6281W        W10481   9.646   0.771   1.630
 6282W        W10482   3.975   3.653   1.142
 6283W        W10483   2.636   6.185   0.761
 6284W        W10484  11.067   4.745  11.860
 6285W        W10485   1.668   4.785   0.478
 6286W        W10486   4.217  10.567  11.025
 6287W        W10487   1.718   1.842   8.537
 6288W        W10488   3.641   8.393   9.404
 6289W        W10489   1.439  10.735   2.457
 6290W        W10490   4.229  10.357   9.568
 6291W        W10491   7.298   3.731   3.164
 6292W        W10492   1.215   4.582   0.623
 6293W        W10493   7.641  10.378  11.485
 6294W        W10494   8.997   9.833   9.156
 6295W        W10495   3.317   2.100   0.886
 6296W        W10496   4.345   1.964   2.124
 6297W        W10497   3.376   1.781  10.789
 6298W        W10498   1.344   8.051   2.285
 6299W        W10499   3.089   4.284   9.115
 6300W        W10500   7.187   3.048   1.918
 6301W        W10501   2.673   9.023   2.820
 6302W        W10502   7.686   3.647   9.475
 6303W        W10503  10.926  10.972   3.151
 6304W        W10504   7.728   0.386  10.390
 6305W        W10505   2.256   4.335   2.875
 6306W        W10506   8.413   2.861   9.521
 6307W        W10507   3.343   4.466   8.456
 6308W        W10508   9.127   6.836   3.951
 6309W        W10509   6.707   2.814  10.061
 6310W        W10510   7.869   0.987   8.856
 6311W        W10511   3.884   6.481  10.456
 6312W        W10512   5.634   1.855   1.098
 6313W        W10513   9.619   1.797   9.237
 6314W        W10514   8.950  11.223   9.112
 6315W        W10515   1.259   0.680   2.912
 6316W        W10516   2.629   8.702  11.579
 6317W        W10517   6.897  10.084   3.111
 6318W        W10518   6.945   1.906   8.980
 6319W        W10519   3.732   9.378  10.367
 6320W        W10520   9.201   0.461   3.404
 6321W        W10521   5.030   4.592   8.250
 6322W        W10522  10.002   2.324   0.352
 6323W        W10523   2.133   4.591   1.908
 6324W        W10524   6.723   8.448   8.472
 6325W        W10525  10.676   6.073  10.277
 6326W        W10526   7.520   1.253  10.026
 6327W        W10527   4.141   1.860   9.627
 6328W        W10528   5.962   9.168   9.029
 6329W        W10529   1.373   3.604   8.957
 6330W        W10530   9.557   6.078  11.032
 6331W        W10531   1.114   4.596   2.564
 6332W        W10532   1.751   3.933   8.919
 6333W        W10533   1.902   2.099   1.377
 6334W        W10534   3.711   3.123  10.824
 6335W        W10535   5.642   1.043   0.843
 6336W        W10536   9.418   0.821  11.362
 6337W        W10537   5.380   7.085   1.493
 6338W        W10538   3.635   9.550  11.888
 6339W        W10539  10.412   7.122   3.235
 6340W        W10540   0.049   2.403   3.192
 6341W        W10541  10.356   4.048   3.085
 6342W        W10542   9.418   3.161   3.292
 6343W        W10543   0.920   4.116   2.663
 6344W        W10544   8.211   3.846   2.942
 6345W        W10545   7.882   7.994   0.091
 6346W        W10546   0.818   4.618   0.953
 6347W        W10547   8.157   2.410   9.349
 6348W        W10548   5.644   4.842   1.791
 6349W        W10549   3.911   8.949   0.963
 6350W        W10550   8.929   5.987   1.821
 6351W        W10551   6.716   0.908   9.810
 6352W        W10552   8.799   3.464  11.967
 6353W        W10553   6.590   2.574   0.951
 6354W        W10554   6.932   6.014   1.821
 6355W        W10555   9.538   8.639   9.434
 6356W        W10556   1.257  10.635   0.286
 6357W        W10557   3.723   8.374  10.778
 6358W        W10558   0.830   1.794   9.873
 6359W        W10559   1.831   9.350   0.271
 6360W        W10560   2.355   5.228  10.009
 6361W        W10561   9.381   1.696   0.892
 6362W        W10562   9.813   0.159   2.779
 6363W        W10563   9.431  11.050   9.263
 6364W        W10564   1.997   2.774   3.206
 6365W        W10565   9.300   1.126   1.673
 6366W        W10566  10.382   5.915   9.014
 6367W        W10567   3.083   1.125   9.691
 6368W        W10568   8.450   7.521   0.421
 6369W        W10569   5.580  10.101   3.496
 6370W        W10570   9.130   1.829   3.161
 6371W        W10571   9.466   3.322   9.926
 6372W        W10572   9.384   5.694  11.319
 6373W        W10573   0.503   6.989   3.507
 6374W        W10574  10.205   3.133   3.538
 6375W        W10575   3.698   3.146   9.901
 6376W        W10576   1.394   8.059   9.246
 6377W        W10577   0.435   9.800   2.869
 6378W        W10578   1.252   0.289   3.230
 6379W        W10579   6.578   7.191   2.746
 6380W        W10580   7.375   3.546  11.890
 6381W        W10581   7.638  11.048   0.308
 6382W        W10582   4.785   8.976   2.015
 6383W        W10583   4.235   4.420   3.614
 6384W        W10584   5.447   8.449   0.232
 6385W        W10585   1.728   2.199   9.799
 6386W        W10586   8.630   5.916   2.268
 6387W        W10587   1.216   9.921  10.253
 6388W        W10588   3.052   7.435   1.179
 6389W        W10589   9.845   2.831   1.369
 6390W        W10590   6.129   0.421   1.183
 6391W        W10591   4.386  11.335   1.368
 6392W        W10592   6.024   6.263   1.993
 6393W        W10593   0.828  10.493  11.427
 6394W        W10594   7.074   2.736   1.118
 6395W        W10595   5.326   4.135   8.333
 6396W        W10596   1.408  10.936   9.010
 6397W        W10597   4.608   9.233   8.921
 6398W        W10598   1.148  10.017   0.252
 6399W        W10599   4.988   3.164   0.908
 6400W        W10600  11.144   1.597   3.544
 6401W        W10601   4.951   2.785   9.444
 6402W        W10602  10.136   7.953   9.342
 6403W        W10603   5.199  10.075  11.241
 6404W        W10604   2.750   3.854  10.505
 6405W        W10605   7.228   3.023   2.432
 6406W        W10606   2.869   6.038   0.305
 6407W        W10607   9.581   5.687   9.013
 6408W        W10608   8.420   4.131   8.771
 6409W        W10609  10.998   2.269   0.514
 6410W        W10610   5.245   2.347   9.465
 6411W        W10611   2.161   9.073  10.025
 6412W        W10612   4.074  10.393   2.388
 6413W        W10613   0.361   7.040   0.219
 6414W        W10614   9.588   5.039   1.239
 6415W        W10615   3.320  10.413   1.640
 6416W        W10616   3.395   6.670   0.682
 6417W        W10617   3.301   1.610   0.666
 6418W        W10618   4.629   8.421  11.233
 6419W        W10619   7.959   2.860   9.245
 6420W        W10620  10.405   1.676   3.295
 6421W        W10621   3.666   1.293   0.837
 6422W        W10622   1.668   9.082   9.851
 6423W        W10623   4.608   5.227  10.192
 6424W        W10624   5.160   0.431  11.278
 6425W        W10625   8.093  10.791   1.894
 6426W        W10626   2.412   9.324  10.733
 6427W        W10627  10.456   3.993  11.474
 6428W        W10628   6.163   2.877   9.419
 6429W        W10629   1.387   7.482   0.706
 6430W        W10630   3.952   2.933   8.646
 6431W        W10631  10.096   3.802   0.479
 6432W        W10632  11.319   1.361  10.302
 6433W        W10633   7.986   7.023   0.221
 6434W        W10634   1.160   9.510  11.470
 6435W        W10635  11.370   9.840   2.438
 6436W        W10636   9.588  11.174  10.754
 6437W        W10637   4.165   8.180  11.442
 6438W        W10638   9.385   6.879   1.146
 6439W        W10639   4.753   5.754   1.787
 6440W        W10640   3.133  10.963  10.347
 6441W        W10641   7.186   2.925   0.651
 6442W        W10642   6.672   0.029   9.633
 6443W        W10643   7.160  10.481   0.949
 6444W        W10644   9.654   1.266   2.181
 6445W        W10645   3.802  11.258   0.460
 6446W        W10646   6.707   7.931   4.136
 6447W        W10647   1.242   9.384   1.747
 6448W        W10648   4.228   6.601   3.127
 6449W        W10649   9.534   8.735  11.337
 6450W        W10650   1.191   5.935   0.771
 6451W        W10651   0.001   0.505   2.159
 6452W        W10652   2.915   7.980   1.829
 6453W        W10653   4.745   4.448   8.696
 6454W        W10654  10.434   3.744  10.327
 6455W        W10655   6.097   4.561   8.900
 6456W        W10656   3.453   0.021   8.662
 6457W        W10657   0.930   5.066  10.850
 6458W        W10658   0.243  10.563  10.075
 6459W        W10659   9.204  10.824  10.707
 6460W        W10660   7.576   6.025   1.044
 6461W        W10661   9.546   9.035   3.405
 6462W        W10662   7.708   2.146  11.212
 6463W        W10663   0.459   9.124  11.782
 6464W        W10664  10.408   5.413  10.033
 6465W        W10665   8.798   3.307   2.176
 6466W        W10666   0.366   8.941   2.735
 6467W        W10667   9.194   3.272  10.713
 6468W        W10668   4.813   8.517   9.356
 6469W        W10669  11.262   4.763   2.964
 6470W        W10670   7.192  11.227   2.367
 6471W        W10671   6.193   4.092   0.460
 6472W        W10672   1.882   3.869   9.784
 6473W        W10673  11.181   8.614   2.730
 6474W        W10674   1.505   8.229  11.678
 6475W        W10675   7.983  11.458   8.899
 6476W        W10676   0.779   5.238   8.811
 6477W        W10677   3.785   9.266  10.871
 6478W        W10678   2.770   6.963   9.267
 6479W        W10679   8.119   5.941  11.924
 6480W        W10680   3.909   2.344  10.288
 6481W        W10681   8.418   1.295   9.980
 6482W        W10682   0.480  11.081   2.173
 6483W        W10683   0.909   2.334  11.165
 6484W        W10684   9.634   6.086   3.371
 6485W        W10685   2.574   5.002   3.089
 6486W        W10686   1.776   8.988   0.826
 6487W        W10687   6.956  10.724  11.239
 6488W        W10688  11.045   7.219   2.639
 6489W        W10689   9.783   5.505  10.312
 6490W        W10690   1.255   3.259   3.216
 6491W        W10691   7.570   2.880   0.297
 6492W        W10692   4.369   0.530  11.083
 6493W        W10693   0.892  10.016   2.696
 6494W        W10694  10.297   0.864   1.003
 6495W        W10695   5.528   6.875   9.497
 6496W        W10696   0.240   6.582   3.724
 6497W        W10697   6.454   8.071   2.468
 6498W        W10698   5.574   3.701   2.776
 6499W        W10699   5.295   3.151  10.179
 6500W        W10700   1.407   5.838   1.221
 6501W        W10701   8.404   7.918   9.491
 6502W        W10702   5.701   0.863   8.622
 6503W        W10703   7.436  11.499  10.705
 6504W        W10704   9.001   2.053  11.867
 6505W        W10705   8.775   9.921   1.568
 6506W        W10706   4.188   8.232  10.932
 6507W        W10707  10.082   8.608  10.214
 6508W        W10708   6.429   0.477   9.715
 6509W        W10709   5.155  11.115   2.270
 6510W        W10710   2.842   6.977   0.360
 6511W        W10711   1.834   1.772   9.529
 6512W        W10712   7.883   0.181   9.349
 6513W        W10713   9.320   1.686  10.946
 6514W        W10714   4.008  11.288   1.718
 6515W        W10715   0.452   0.568   0.975
 6516W        W10716  11.370   9.502   0.264
 6517W        W10717   2.160  11.016  11.904
 6518W        W10718  10.417   0.860  10.162
 6519W        W10719   8.793   9.496   8.818
 6520W        W10720   0.014   8.111   9.522
 6521W        W10721   9.579   1.653   0.424
 6522W        W10722   5.306   4.224   0.503
 6523W        W10723   0.641   4.989   0.059
 6524W        W10724   3.483   7.803  10.357
 6525W        W10725  10.061   6.993  11.783
 6526W        W10726   4.064  11.383   0.025
 6527W        W10727   4.177   0.327   0.996
 6528W        W10728   1.727   8.156  10.167
 6529W        W10729   7.613   8.692   3.531
 6530W        W10730  10.446   9.873   2.394
 6531W        W10731   6.147   7.102   2.253
 6532W        W10732  10.302   4.666   0.946
 6533W        W10733  10.482   5.127   1.188
 6534W        W10734   7.872   9.946   3.164
 6535W        W10735  11.493   7.126   1.741
 6536W        W10736   6.123  10.310   9.937
 6537W        W10737   7.577   0.358   3.103
 6538W        W10738   2.894   6.626   0.744
 6539W        W10739   2.760  10.431  11.206
 6540W        W10740   4.205   3.596   3.291
 6541W        W10741  10.454   8.453   1.676
 6542W        W10742   0.203   0.834   9.217
 6543W        W10743   5.579   8.801  11.428
 6544W        W10744   5.991   8.320   9.922
 6545W        W10745   7.329   2.079   0.425
 6546W        W10746   3.163   1.766   3.048
 6547W        W10747   1.461   5.324   1.780
 6548W        W10748   5.959   8.639   9.039
 6549W        W10749   0.335   1.816   0.552
 6550W        W10750   0.292   4.689   2.059
 6551W        W10751   1.698   9.919   3.362
 6552W        W10752   1.246   6.692   2.159
 6553W        W10753   0.512   4.404   2.457
 6554W        W10754   5.705   0.798   1.282
 6555W        W10755   1.566   6.140   2.889
 6556W        W10756   0.401   8.069   2.698
 6557W        W10757   8.978   7.196   1.305
 6558W        W10758   1.696  10.884   3.324
 6559W        W10759   9.801   5.526   8.535
 6560W        W10760   0.642   7.618   2.283
 6561W        W10761   6.264   7.944   3.250
 6562W        W10762   4.344   5.394   0.275
 6563W        W10763   4.992   5.115   0.017
 6564W        W10764   6.608   0.345   9.224
 6565W        W10765   0.752   6.728  10.884
 6566W        W10766   6.510   9.131   1.949
 6567W        W10767   2.746   2.032   9.958
 6568W        W10768   5.058   8.396   9.859
 6569W        W10769   9.292   3.301   0.024
 6570W        W10770   8.379   7.998   3.557
 6571W        W10771   1.175   6.790   1.128
 6572W        W10772   8.952   2.146  11.375
 6573W        W10773   8.455   3.900   1.261
 6574W        W10774  10.127   5.901  10.277
 6575W        W10775   1.731   1.057   2.684
 6576W        W10776   4.209   4.352  10.886
 6577W        W10777   6.006  11.462   0.915
 6578W        W10778   1.066   6.247  11.558
 6579W        W10779   8.899   6.620  11.514
 6580W        W10780   5.507   6.154   0.838
 6581W        W10781   0.794   0.487  11.352
 6582W        W10782   2.742   0.290   1.454
 6583W        W10783   6.892   2.564   9.035
 6584W        W10784   7.842   9.332   2.032
 6585W        W10785   9.468   7.898   2.720
 6586W        W10786   5.539   5.704   1.505
 6587W        W10787   4.219   8.328   0.460
 6588W        W10788   7.745   6.872   0.921
 6589W        W10789   1.276   1.778   3.662
 6590W        W10790   6.155   6.212  10.566
 6591W        W10791   9.487   1.929   1.356
 6592W        W10792   2.320   3.130   0.915
 6593W        W10793   2.221   9.129   1.487
 6594W        W10794   7.140   3.833   0.252
 6595W        W10795   3.996   4.216   9.105
 6596W        W10796   2.850   0.669  11.855
 6597W        W10797   4.301  10.317   2.861
 6598W        W10798   9.537   4.898  10.974
 6599W        W10799   8.999   9.466  10.936
 6600W        W10800  11.416   2.128   8.568
 6601W        W10801   8.047  11.467  10.887
 6602W        W10802   8.659   1.763  10.401
 6603W        W10803   4.761   8.474   1.802
 6604W        W10804   8.623   0.227   9.794
 6605W        W10805   4.072   5.096   9.064
 6606W        W10806   3.192   7.226   9.407
 6607W        W10807   3.705   7.289  11.576
 6608W        W10808   5.519   7.118   0.826
 6609W        W10809   4.902   1.429   1.249
 6610W        W10810   9.558   7.040   3.762
 6611W        W10811   0.909   0.046   3.520
 6612W        W10812   3.844   9.452   9.323
 6613W        W10813  11.342   0.169   1.186
 6614W        W10814   0.905   8.750  10.815
 6615W        W10815   1.484  10.375   9.493
 6616W        W10816   6.149  10.406   2.448
 6617W        W10817   9.344  11.011   0.003
 6618W        W10818   0.403   2.212   9.261
 6619W        W10819   7.377   3.374   0.416
 6620W        W10820   2.440   4.602   8.826
 6621W        W10821   9.897   7.232   0.960
 6622W        W10822   0.480   3.766   9.013
 6623W        W10823   9.467   3.837   9.882
 6624W        W10824   8.645   1.312   0.441
 6625W        W10825   0.298   9.062   9.844
 6626W        W10826   8.037  10.330  11.813
 6627W        W10827   6.186   7.868  10.021
 6628W        W10828   2.834   0.917   0.748
 6629W        W10829   2.614   4.419   2.001
 6630W        W10830   6.044  10.139  10.767
 6631W        W10831  10.459   1.764   1.776
 6632W        W10832   0.472  11.226   2.793
 6633W        W10833   2.129   6.418   2.154
 6634W        W10834   5.400   4.069   3.102
 6635W        W10835   3.112   0.829   0.276
 6636W        W10836   7.730  10.890   3.719
 6637W        W10837   4.558   7.088   0.087
 6638W        W10838  10.823   6.574   1.671
 6639W        W10839   2.431  10.775   8.686
 6640W        W10840   6.978   6.967   1.830
 6641W        W10841   0.335   1.926   2.361
 6642W        W10842   2.653   7.043   0.979
 6643W        W10843   1.518   6.209   8.757
 6644W        W10844   6.045   9.271  10.065
 6645W        W10845   6.101   0.853   0.932
 6646W        W10846   6.158  10.175   0.693
 6647W        W10847   3.647   7.888  10.905
 6648W        W10848   7.500   4.634  11.880
 6649W        W10849   9.780   0.584  10.945
 6650W        W10850   7.071   7.889   0.507
 6651W        W10851   1.352   3.087   8.776
 6652W        W10852  10.898   9.048   1.824
 6653W        W10853   8.583   8.889  10.949
 6654W        W10854   9.051   8.897  11.779
 6655W        W10855   1.743   6.714   2.302
 6656W        W10856   7.434  10.873  11.428
 6657W        W10857   1.808   3.851   1.764
 6658W        W10858   1.522   5.692   8.934
 6659W        W10859   5.433   8.196   3.450
 6660W        W10860   9.385   9.627   0.568
 6661W        W10861   0.824   1.957   0.626
 6662W        W10862   4.819   3.878  11.344
 6663W        W10863  10.160   4.326   2.223
 6664W        W10864   8.541   0.897  11.707
 6665W        W10865   2.203   4.575  10.481
 6666W        W10866   1.091   9.034  10.248
 6667W        W10867   7.943   2.723   0.942
 6668W        W10868   2.211  11.493  10.397
 6669W        W10869   7.095   1.426   9.126
 6670W        W10870   1.033   8.482   1.263
 6671W        W10871   7.423   0.712  10.939
 6672W        W10872   6.479   8.623   2.622
 6673W        W10873  10.250   4.147  10.070
 6674W        W10874   1.490   1.504   8.850
 6675W        W10875   2.272  10.713  11.373
 6676W        W10876   0.967   0.017  11.454
 6677W        W10877   1.232   8.144  10.072
 6678W        W10878   1.880   3.996   3.530
 6679W        W10879   1.625   6.596   1.271
 6680W        W10880   1.294   6.679   8.698
 6681W        W10881   9.278   2.414   1.795
 6682W        W10882   8.427   4.117   9.811
 6683W        W10883   5.072   5.231   9.954
 6684W        W10884   0.235   4.014   0.442
 6685W        W10885   4.172   1.873   0.879
 6686W        W10886   7.067   4.254   9.088
 6687W        W10887   2.392   6.631   0.821
 6688W        W10888   7.014   4.047  10.425
 6689W        W10889   8.866   2.661  11.477
 6690W        W10890   8.980   2.680  10.106
 6691W        W10891  10.509   3.557   0.282
 6692W        W10892   4.008   4.072  11.825
 6693W        W10893   9.868   5.566   2.134
 6694W        W10894   8.006   7.140  11.305
 6695W        W10895   8.251   8.177   4.016
 6696W        W10896   8.723   5.585   9.364
 6697W        W10897   7.552   9.173   0.567
 6698W        W10898   8.028   6.519   3.242
 6699W        W10899   5.439   8.150   8.653
 6700W        W10900   0.090   4.232   1.127
 6701W        W10901   1.199   2.229   0.901
 6702W        W10902   9.933   9.240   1.329
 6703W        W10903   1.350   8.970   2.423
 6704W        W10904   3.726   1.898   0.652
 6705W        W10905   5.110   8.594  11.365
 6706W        W10906  10.894  10.384   0.346
 6707W        W10907   6.244   7.192   9.091
 6708W        W10908   0.838   6.146   0.414
 6709W        W10909   6.207   8.475   3.192
 6710W        W10910  11.282   0.785   9.519
 6711W        W10911   0.911   0.768   1.111
 6712W        W10912   7.474   8.053   1.847
 6713W        W10913   7.592  10.022   9.022
 6714W        W10914   5.317   8.779   4.174
 6715W        W10915  11.150   0.491   3.364
 6716W        W10916   6.044   3.590   0.440
 6717W        W10917   5.171  10.515   1.536
 6718W        W10918   8.503  11.296   8.789
 6719W        W10919   6.747   3.272  11.145
 6720W        W10920  10.936   3.840  11.606
 6721W        W10921   9.824  10.104  10.247
 6722W        W10922   0.435   5.743   9.075
 6723W        W10923   8.589   9.315   1.292
 6724W        W10924   7.582   2.584   9.555
 6725W        W10925   0.819   4.036   1.667
 6726W        W10926   8.721   3.640  11.469
 6727W        W10927   3.982   7.728   2.685
 6728W        W10928   5.767  11.359  11.347
 6729W        W10929   7.066   7.343   0.360
 6730W        W10930   7.443   1.820   9.049
 6731W        W10931   8.818   0.207   9.294
 6732W        W10932   7.419   9.241   8.969
 6733W        W10933   4.242  10.805   2.683
 6734W        W10934  11.203   2.398   0.973
 6735W        W10935   3.140   2.201   3.323
 6736W        W10936  10.933   9.279   1.372
 6737W        W10937   1.394   3.788  11.994
 6738W        W10938   1.510   1.181   8.400
 6739W        W10939   2.797   0.217   9.424
 6740W        W10940   8.439   2.726   9.032
 6741W        W10941   7.025  10.770   9.910
 6742W        W10942   2.406   2.745   2.174
 6743W        W10943   9.123   1.927   1.751
 6744W        W10944   1.576   5.653   9.773
 6745W        W10945   2.036   8.125  10.583
 6746W        W10946   1.059   6.118  10.180
 6747W        W10947  11.180   4.032   3.499
 6748W        W10948   7.463   5.666  10.285
 6749W        W10949   7.922   6.061   2.947
 6750W        W10950   7.695   4.702   8.627
 6751W        W10951   9.414   9.052   1.355
 6752W        W10952   4.007   4.639   3.204
 6753W        W10953   3.172   6.706   9.458
 6754W        W10954   7.815   1.824   0.428
 6755W        W10955   9.300   3.715   0.712
 6756W        W10956  10.544   1.684  10.518
 6757W        W10957   4.149   4.720   1.892
 6758W        W10958   8.068  11.053   2.332
 6759W        W10959   4.683   2.213   3.014
 6760W        W10960   1.720  10.686   0.610
 6761W        W10961   1.970   2.735   0.012
 6762W        W10962  10.675   9.509   1.754
 6763W        W10963  10.924   5.494   9.138
 6764W        W10964   9.846   5.615   2.643
 6765W        W10965   2.788   4.636   8.001
 6766W        W10966  10.148   5.124   9.693
 6767W        W10967   4.335   7.330  10.007
 6768W        W10968   4.259   3.720   1.564
 6769W        W10969   7.951   2.648   1.955
 6770W        W10970   6.130   4.570   2.212
 6771W        W10971   2.923   4.892  10.393
 6772W        W10972   0.685   6.173   9.807
 6773W        W10973   5.173   8.174   0.688
 6774W        W10974   5.219   9.635   9.543
 6775W        W10975   3.815   4.157   9.612
 6776W        W10976  11.043   9.773  10.893
 6777W        W10977   7.024   6.908   2.805
 6778W        W10978   3.358   7.420   2.150
 6779W        W10979   3.729   5.775   0.972
 6780W        W10980   8.726   5.971   0.321
 6781W        W10981   0.279  10.335   0.486
 6782W        W10982   0.239   6.199  11.696
 6783W        W10983   1.683   7.641   9.488
 6784W        W10984   5.124   8.433  10.877
 6785W        W10985   7.528   5.652   0.689
 6786W        W10986  10.823   8.143  10.617
 6787W        W10987   5.713   2.859   0.877
 6788W        W10988  10.664   4.353   2.278
 6789W        W10989  11.033   1.405  11.150
 6790W        W10990   3.741   7.430  10.600
 6791W        W10991   1.325   1.973  10.755
 6792W        W10992   6.728  11.205  11.251
 6793W        W10993   4.109   1.216   9.925
 6794W        W10994   5.816   2.555   0.471
 6795W        W10995   0.015   0.336   2.650
 6796W        W10996   4.304  10.652   1.474
 6797W        W10997   6.970   7.528  10.310
 6798W        W10998   5.776   5.725   3.021
 6799W        W10999   6.820   1.653  10.360
 6800W        W11000   8.854  11.035  10.388
 6801W        W11001   8.437   9.017   0.914
 6802W        W11002  10.936   3.160   2.508
 6803W        W11003   1.825   3.152  11.450
 6804W        W11004   6.238  11.426   9.334
 6805W        W11005   0.853   5.410   0.271
 6806W        W11006   9.959   7.966  11.441
 6807W        W11007   9.707   5.632   3.127
 6808W        W11008   5.651   7.657  11.973
 6809W        W11009   5.135   9.691   2.826
 6810W        W11010   5.253   0.606   8.690
 6811W        W11011   4.089   9.021   9.509
 6812W        W11012   5.161   9.946   0.262
 6813W        W11013  10.808   6.124   1.436
 6814W        W11014   9.620   3.930   0.361
 6815W        W11015   9.879   5.799   1.690
 6816W        W11016   9.117   4.666   1.840
 6817W        W11017   5.415   3.269   3.561
 6818W        W11018   4.113   5.511   1.241
 6819W        W11019   1.706   2.794   9.061
 6820W        W11020   7.848   1.327   0.766
 6821W        W11021  11.057   0.276   2.360
 6822W        W11022   0.385  10.489   1.968
 6823W        W11023   2.135   8.940  10.531
 6824W        W11024   9.968   9.127  10.100
 6825W        W11025   0.842   8.193   3.022
 6826W        W11026   2.409   4.831   2.294
 6827W        W11027   6.954   5.280  11.044
 6828W        W11028   5.782   8.111   3.092
 6829W        W11029   1.813   4.258   2.646
 6830W        W11030   9.872   9.047  10.590
 6831W        W11031  10.911   2.380   1.459
 6832W        W11032   8.840   0.663  11.188
 6833W        W11033   2.250   6.179   8.819
 6834W        W11034   0.661   0.940   0.658
 6835W        W11035  10.054   3.234  10.278
 6836W        W11036   8.036   2.684   1.442
 6837W        W11037   0.155   9.311  11.329
 6838W        W11038   4.984   9.267   8.056
 6839W        W11039   6.181   2.844  10.784
 6840W        W11040   8.442   2.184  10.229
 6841W        W11041   8.409  11.445  11.949
 6842W        W11042   6.711  10.241   1.698
 6843W        W11043   6.434   7.641   9.527
 6844W        W11044   8.441   2.903   1.056
 6845W        W11045   7.483   1.413   2.854
 6846W        W11046   9.708   5.793  11.718
 6847W        W11047   3.189   3.849   1.658
 6848W        W11048   4.544   9.785  11.862
 6849W        W11049   2.310   4.360   1.322
 6850W        W11050   8.858   7.163  10.740
 6851W        W11051   5.398   1.461   9.750
 6852W        W11052   4.263   0.708   9.916
 6853W        W11053   6.128   0.736   2.941
 6854W        W11054   1.874   8.557   2.740
 6855W        W11055   7.076   1.390   3.175
 6856W        W11056   8.484   2.145   2.243
 6857W        W11057   7.242   6.653  10.828
 6858W        W11058  11.347  10.319   8.954
 6859W        W11059   4.433   2.310   0.761
 6860W        W11060   8.741   6.077   9.469
 6861W        W11061   1.441   3.667   9.475
 6862W        W11062  11.215   5.722   8.524
 6863W        W11063   7.448  10.006   0.925
 6864W        W11064  11.451   1.759   9.613
 6865W        W11065   1.676   5.622   2.146
 6866W        W11066   0.946   8.966   3.458
 6867W        W11067  11.362   1.247   9.301
 6868W        W11068  10.873   7.597  11.277
 6869W        W11069   0.714   5.757   9.504
 6870W        W11070   4.473   6.102  11.750
 6871W        W11071   9.319   1.187   0.942
 6872W        W11072   1.435   8.479  11.003
 6873W        W11073   1.312   1.135   3.094
 6874W        W11074   9.851  11.007   8.480
 6875W        W11075   0.795   7.494   8.945
 6876W        W11076   8.998   3.896   2.943
 6877W        W11077  10.524   3.567  11.777
 6878W        W11078   7.104   4.645   0.457
 6879W        W11079  10.856   6.647   2.157
 6880W        W11080   1.342  11.163   3.550
 6881W        W11081   8.475   4.851   1.265
 6882W        W11082   8.723   3.810   9.508
 6883W        W11083   1.832   1.833   9.032
 6884W        W11084   8.092  10.951   8.840
 6885W        W11085   7.857   9.585   9.201
 6886W        W11086   5.973   6.079   0.582
 6887W        W11087   9.365  10.159  10.455
 6888W        W11088   0.852   7.378   3.355
 6889W        W11089   2.792   8.828   9.067
 6890W        W11090   9.542   8.212  11.267
 6891W        W11091   1.214   7.572   1.519
 6892W        W11092   1.349   3.348  11.182
 6893W        W11093   6.151   8.625   1.374
 6894W        W11094   1.491  11.342   3.103
 6895W        W11095   8.654   0.470  10.288
 6896W        W11096  10.477   2.129   0.474
 6897W        W11097   9.414   5.896   1.502
 6898W        W11098  10.884   6.687  11.614
 6899W        W11099   1.841   3.181   9.456
 6900W        W11100   5.945  10.717  10.893
 6901W        W11101   2.155  10.313   2.226
 6902W        W11102   2.282   2.703  10.381
 6903W        W11103   8.526   9.802  10.828
 6904W        W11104   6.427   1.508   9.998
 6905W        W11105  11.453   0.813   1.700
 6906W        W11106   0.439   2.265  11.359
 6907W        W11107   8.130   1.291  11.132
 6908W        W11108   9.641   6.046   2.854
 6909W        W11109   7.061   2.740   3.554
 6910W        W11110   9.620   1.901  10.288
 6911W        W11111   1.845   7.069   0.504
 6912W        W11112   5.106   2.770   3.656
 6913W        W11113   4.819   6.180   9.723
 6914W        W11114   8.010   3.833   2.476
 6915W        W11115   4.620   1.113   9.898
 6916W        W11116   8.341   2.721  11.494
 6917W        W11117   2.761   5.823  11.267
 6918W        W11118   8.410   0.057   1.592
 6919W        W11119   3.810   0.011   1.269
 6920W        W11120  11.373  10.628   0.276
 6921W        W11121   5.810   0.698   0.499
 6922W        W11122   1.801   4.263  10.427
 6923W        W11123   5.124   4.782  10.748
 6924W        W11124  10.593   1.745   0.791
 6925W        W11125   3.617  11.176   0.917
 6926W        W11126   0.036   4.717  10.448
 6927W        W11127   6.223   9.600   1.267
 6928W        W11128  11.452   7.748   9.089
 6929W        W11129   4.539   6.488  10.994
 6930W        W11130   5.193  10.361   2.036
 6931W        W11131   1.503   7.614   2.548
 6932W        W11132   5.998   7.691   1.256
 6933W        W11133   7.323   5.811   0.247
 6934W        W11134   0.235   7.253   2.273
 6935W        W11135   6.099   7.037  11.071
 6936W        W11136   9.590   0.942  10.160
 6937W        W11137   9.933   9.653  10.054
 6938W        W11138   0.946   3.882   8.791
 6939W        W11139   0.752  10.744   9.304
 6940W        W11140   8.646   7.905   2.571
 6941W        W11141  11.188   9.631  11.365
 6942W        W11142   3.354   3.794  11.316
 6943W        W11143  10.438   2.625   0.319
 6944W        W11144   5.707   7.056   2.990
 6945W        W11145   7.223   2.169   2.267
 6946W        W11146   2.492   5.048   7.923
 6947W        W11147  10.016   2.369   2.424
 6948W        W11148   9.596   5.161   2.202
 6949W        W11149   5.250  10.974   1.308
 6950W        W11150   4.447   2.777   8.726
 6951W        W11151   0.048   4.576  11.848
 6952W        W11152   8.973   3.384   0.522
 6953W        W11153   7.551  10.828  10.105
 6954W        W11154   8.916   4.300   9.387
 6955W        W11155  10.304   3.193   1.848
 6956W        W11156   7.400   6.480   0.770
 6957W        W11157  11.070   5.746   1.216
 6958W        W11158   3.282   5.212  10.529
 6959W        W11159  10.706   5.512   2.685
 6960W        W11160  11.429   9.372   8.582
 6961W        W11161   5.077   4.068   0.940
 6962W        W11162   9.066   6.929   8.583
 6963W        W11163   7.343   4.815   0.890
 6964W        W11164   3.135   1.865  11.240
 6965W        W11165  11.041   5.176   2.496
 6966W        W11166   3.596   4.559   1.700
 6967W        W11167   0.739   2.387   1.008
 6968W        W11168   2.690   6.611   1.262
 6969W        W11169   2.148   3.618   3.274
 6970W        W11170   5.720   1.067   9.974
 6971W        W11171   9.587   8.089   2.250
 6972W        W11172   8.059   1.675  11.496
 6973W        W11173  10.434   8.395   9.901
 6974W        W11174   0.415   7.497   9.821
 6975W        W11175   7.218   8.486  10.529
 6976W        W11176  11.422   9.261   1.552
 6977W        W11177  10.433  11.475   8.915
 6978W        W11178   5.133   1.668  11.969
 6979W        W11179  11.030   2.427   3.121
 6980W        W11180   7.863  10.751   9.660
 6981W        W11181   7.433   5.307  11.257
 6982W        W11182   1.716  10.001  11.070
 6983W        W11183  10.483   3.613   2.205
 6984W        W11184  11.263   6.064   9.614
 6985W        W11185   4.188   4.087   2.328
 6986W        W11186   7.965   5.167   8.720
 6987W        W11187   3.234   5.821  11.060
 6988W        W11188   5.994  10.969   9.153
 6989W        W11189   7.340   6.242  11.502
 6990W        W11190   3.242   5.633   1.045
 6991W        W11191   0.749   1.675   1.510
 6992W        W11192   7.472   4.585   9.090
 6993W        W11193   1.165   0.757   3.439
 6994W        W11194   6.903   8.380   2.466
 6995W        W11195   5.603   9.141   9.830
 6996W        W11196   3.008   2.854  11.463
 6997W        W11197   8.588   8.313   8.641
 6998W        W11198   6.013   3.339  10.772
 6999W        W11199  11.493   9.853   9.736
 7000W        W11200   8.477   3.699   9.061
 7001W        W11201   2.311   0.752  11.354
 7002W        W11202   0.289  11.336  11.312
 7003W        W11203   5.329   2.651  10.307
 7004W        W11204   7.962   8.435   0.345
 7005W        W11205   8.839   8.166   3.380
 7006W        W11206   0.039   5.126  10.765
 7007W        W11207   0.552   7.062   9.527
 7008W        W11208   0.790   6.216   9.274
 7009W        W11209   9.356   2.196  10.622
 7010W        W11210   8.620  10.581   0.044
 7011W        W11211   4.191   5.723  10.780
 7012W        W11212   4.829   1.166   0.246
 7013W        W11213  10.938   8.362   3.568
 7014W        W11214   1.542   8.974   9.372
 7015W        W11215   6.081   4.446  10.457
 7016W        W11216  10.448  10.017   8.961
 7017W        W11217  10.434   9.971   1.356
 7018W        W11218   0.401   3.152  11.261
 7019W        W11219   7.624   0.812   1.214
 7020W        W11220   3.361   2.179   2.797
 7021W        W11221   0.591   1.842  10.459
 7022W        W11222   4.696   4.201   3.614
 7023W        W11223   3.062  11.449  11.867
 7024W        W11224   1.140   6.321   2.626
 7025W        W11225   4.748   6.774   8.702
 7026W        W11226   2.565   8.372   2.426
 7027W        W11227   2.353   5.533   9.591
 7028W        W11228   1.355   4.053   1.414
 7029W        W11229   0.006   4.825   8.784
 7030W        W11230   2.390   3.582   0.257
 7031W        W11231   6.993   3.626  10.824
 7032W        W11232   2.643   7.502   1.621
 7033W        W11233   4.579   2.248   1.669
 7034W        W11234   3.668   9.011   1.526
 7035W        W11235   3.928   8.607   9.777
 7036W        W11236  11.407   6.498   1.308
 7037W        W11237   6.945   0.213   1.689
 7038W        W11238   7.218   3.651   1.385
 7039W        W11239  11.056   1.767  10.509
 7040W        W11240   9.616   0.507  10.451
 7041W        W11241   5.461   4.836   3.412
 7042W        W11242   5.755   0.408   3.045
 7043W        W11243   4.166   7.778   0.340
 7044W        W11244   8.002   0.286   2.801
 7045W        W11245   9.375   8.666   0.973
 7046W        W11246   6.005   9.499   2.459
 7047W        W11247   9.272   7.231  10.392
 7048W        W11248   4.647  10.455   3.278
 7049W        W11249   3.112   1.277   2.350
 7050W        W11250  10.914   9.798   1.386
 7051W        W11251   8.413   7.517   3.361
 7052W        W11252  10.704   2.283   0.968
 7053W        W11253   8.124   1.416   0.351
 7054W        W11254   8.517  10.803   2.252
 7055W        W11255   0.188   9.476   3.170
 7056W        W11256   8.903   3.239   1.604
 7057W        W11257   6.005   2.493   1.655
 7058W        W11258   4.300   1.936  11.060
 7059W        W11259   6.714   6.593   0.228
 7060W        W11260   1.400   0.675   3.876
 7061W        W11261   2.540   5.303   0.745
 7062W        W11262   3.943   4.058   3.350
 7063W        W11263   3.749   3.646  10.334
 7064W        W11264   5.231  10.466   9.829
 7065W        W11265   0.693   9.999  11.377
 7066W        W11266   9.100  10.684  11.186
 7067W        W11267   7.953   7.481  11.695
 7068W        W11268   8.219   8.346  11.908
 7069W        W11269  10.835   1.919   3.195
 7070W        W11270  11.381   7.047  10.816
 7071W        W11271   4.330   8.937  11.869
 7072W        W11272   5.013  11.247  10.124
 7073W        W11273   5.223   0.401  10.743
 7074W        W11274   3.711   5.472   9.401
 7075W        W11275   6.872   8.036   1.538
 7076W        W11276   2.935   8.186   3.454
 7077W        W11277   1.890   9.846   2.267
 7078W        W11278   2.928   6.016   1.149
 7079W        W11279   1.851   1.337   1.830
 7080W        W11280   6.049   9.097  10.564
 7081W        W11281   6.074   1.766  11.980
 7082W        W11282   7.574   3.816   2.207
 7083W        W11283   7.584   2.648  10.062
 7084W        W11284   1.804   4.225   2.117
 7085W        W11285  11.007   3.356  11.424
 7086W        W11286  10.739  11.423  10.335
 7087W        W11287   2.586   6.513   0.344
 7088W        W11288  10.542   7.711  10.579
 7089W        W11289   2.276   3.610   0.759
 7090W        W11290   5.936   3.717   8.466
 7091W        W11291   5.277   2.243   1.001
 7092W        W11292   6.931   9.512   8.985
 7093W        W11293  10.583   3.754   9.302
 7094W        W11294   3.384   6.102   2.369
 7095W        W11295   7.225   6.370   0.216
 7096W        W11296   2.916   6.402  10.408
 7097W        W11297   2.714   6.561   3.132
 7098W        W11298   6.778   3.696   3.059
 7099W        W11299   5.159   4.185  10.027
 7100W        W11300   9.659   0.991  10.680
 7101W        W11301   9.035  10.338  10.814
 7102W        W11302   0.978   4.151  11.999
 7103W        W11303   8.010   6.088   3.503
 7104W        W11304   9.292   6.959   9.174
 7105W        W11305   9.480   0.542   2.541
 7106W        W11306   4.978   8.865   9.029
 7107W        W11307   3.361   0.898   0.713
 7108W        W11308   6.671   6.143  10.446
 7109W        W11309   5.709   9.420   1.237
 7110W        W11310   3.820  10.299  11.359
 7111W        W11311   2.570   0.465   2.540
 7112W        W11312   9.478  11.339  11.222
 7113W        W11313   9.577   5.084   3.170
 7114W        W11314   7.578   7.279   1.188
 7115W        W11315   6.554   8.998   1.418
 7116W        W11316   1.371   9.847   2.489
 7117W        W11317  11.384   9.057   9.554
 7118W        W11318   6.590   1.587   0.040
 7119W        W11319   0.376   9.941   2.377
 7120W        W11320   3.337   8.092  11.606
 7121W        W11321   2.759   5.554   9.194
 7122W        W11322  10.130   3.282   0.505
 7123W        W11323   3.508   4.814   3.135
 7124W        W11324   7.927   2.235   0.689
 7125W        W11325   2.203  11.496   8.856
 7126W        W11326   1.288   4.497   9.427
 7127W        W11327   1.862   1.289   9.796
 7128W        W11328   8.172   6.218  10.118
 7129W        W11329   4.091   8.685   1.389
 7130W        W11330   1.514   4.794   9.800
 7131W        W11331   6.139   4.106   9.659
 7132W        W11332   7.211   5.147   0.544
 7133W        W11333   9.894   7.314   3.294
 7134W        W11334   3.052   8.078   0.837
 7135W        W11335   8.460   8.488  11.269
 7136W        W11336   3.699   6.310   0.854
 7137W        W11337   8.372   6.999   2.830
 7138W        W11338  10.887   8.369   2.376
 7139W        W11339   0.498   7.993   1.686
 7140W        W11340  10.254   1.298  11.834
 7141W        W11341   5.263   2.798  11.070
 7142W        W11342  11.416   3.141   1.653
 7143W        W11343   7.636   7.424   9.098
 7144W        W11344   7.586  10.892   9.050
 7145W        W11345   4.808   1.845   1.907
 7146W        W11346   2.352  10.743  10.016
 7147W        W11347   2.821   6.290  11.476
 7148W        W11348  11.287   3.752  10.915
 7149W        W11349   8.465   2.635   3.033
 7150W        W11350   8.624   8.704   1.290
 7151W        W11351   5.626   8.579   2.810
 7152W        W11352   1.730   0.339  11.976
 7153W        W11353   2.381   7.425   2.316
 7154W        W11354   2.153   8.874  11.517
 7155W        W11355   5.658   7.075  10.639
 7156W        W11356   0.975   1.347  10.939
 7157W        W11357   0.273   8.973   3.262
 7158W        W11358   1.305   9.947   9.763
 7159W        W11359   2.218   9.905   0.302
 7160W        W11360  10.545   7.922   9.687
 7161W        W11361   2.664   2.640  10.775
 7162W        W11362   6.124   6.176   8.733
 7163W        W11363   0.073   2.345   2.259
 7164W        W11364  11.408   4.742   1.294
 7165W        W11365   9.869  11.308   8.980
 7166W        W11366   6.200   9.845   0.298
 7167W        W11367   6.012   7.000   9.515
 7168W        W11368   4.647   4.936   2.331
 7169W        W11369   7.959  11.135   9.312
 7170W        W11370   8.942   1.567  11.703
 7171W        W11371   5.275  10.552   2.844
 7172W        W11372   3.883   5.110   0.492
 7173W        W11373   3.064   0.024   3.280
 7174W        W11374   6.935   8.885   1.763
 7175W        W11375  10.446   2.889  10.259
 7176W        W11376   4.464   7.964  10.544
 7177W        W11377  11.021  10.687   8.704
 7178W        W11378   9.498   3.782   2.162
 7179W        W11379   0.112   3.290   3.205
 7180W        W11380   0.415   6.124   1.366
 7181W        W11381   4.343  10.906   9.827
 7182W        W11382   2.853   1.161  11.952
 7183W        W11383   7.375   9.888   3.216
 7184W        W11384   5.241   7.851   9.027
 7185W        W11385   6.702   8.606  10.554
 7186W        W11386   9.097  10.908   2.973
 7187W        W11387   2.120   9.529   3.378
 7188W        W11388  10.069   4.857   1.381
 7189W        W11389  10.481   8.061   2.473
 7190W        W11390   6.169   4.701  11.266
 7191W        W11391   6.553  10.017   9.885
 7192W        W11392   4.651   6.737   0.914
 7193W        W11393   2.999   1.757   3.539
 7194W        W11394   1.690   1.821  11.089
 7195W        W11395   3.790  10.317   3.020
 7196W        W11396   1.296   7.343  11.799
 7197W        W11397   3.900   6.060   2.340
 7198W        W11398   8.621   2.932  11.856
 7199W        W11399   9.043   9.402  10.423
 7200W        W11400   8.524   8.548   0.287
 7201W        W11401   0.264   8.545   9.338
 7202W        W11402   0.842   3.232   0.498
 7203W        W11403   9.117   2.671   9.596
 7204W        W11404   9.304   0.225   2.945
 7205W        W11405   6.500   9.455   9.834
 7206W        W11406   9.339   1.003   3.444
 7207W        W11407   7.010   8.456   0.424
 7208W        W11408   5.604   9.498   2.768
 7209W        W11409  11.396   8.126   3.631
 7210W        W11410   1.449   5.716  10.730
 7211W        W11411   6.987   0.065   2.740
 7212W        W11412   0.503  10.766   2.577
 7213W        W11413   8.689   2.293   3.316
 7214W        W11414  11.414   7.973  10.830
 7215W        W11415   9.134  11.203   1.180
 7216W        W11416   5.266   3.225   8.243
 7217W        W11417  10.263   4.604   9.813
 7218W        W11418   4.665   6.707   3.430
 7219W        W11419   8.525   7.295   0.899
 7220W        W11420   5.550   4.519   1.397
 7221W        W11421   2.795   2.089   1.387
 7222W        W11422   9.554   9.363   9.868
 7223W        W11423   3.284   0.421  11.970
 7224W        W11424   9.377   3.201   0.762
 7225W        W11425   7.807   3.164  10.073
 7226W        W11426   7.001   7.945   1.040
 7227W        W11427   9.445   0.743   0.724
 7228W        W11428   5.684  10.601   8.894
 7229W        W11429  10.760   4.115   1.434
 7230W        W11430   9.943   6.235   0.937
 7231W        W11431   5.266   4.862   1.168
 7232W        W11432   1.339   1.180  11.548
 7233W        W11433   9.821  10.337   2.488
 7234W        W11434   3.644   6.546  11.460
 7235W        W11435  10.151   4.265   1.348
 7236W        W11436   3.155   0.024   2.746
 7237W        W11437   0.687   9.417   9.384
 7238W        W11438   2.118  11.446  10.917
 7239W        W11439  10.430   1.393  10.093
 7240W        W11440   5.223   8.371  10.349
 7241W        W11441   6.182  10.805  10.107
 7242W        W11442   7.631  10.445   9.324
 7243W        W11443   0.404   9.053   1.720
 7244W        W11444  10.448   1.879   2.782
 7245W        W11445   8.522   1.995   8.498
 7246W        W11446   4.733   0.546  11.986
 7247W        W11447  10.289   9.463   2.111
 7248W        W11448   4.771   0.949   1.139
 7249W        W11449   8.476   3.250   0.293
 7250W        W11450   8.305   7.977   2.220
 7251W        W11451   0.645   8.618   3.214
 7252W        W11452   3.797   8.552   3.986
 7253W        W11453   5.867   4.978   3.098
 7254W        W11454   2.302   2.142   2.919
 7255W        W11455   5.247  10.821   0.118
 7256W        W11456  10.419   6.916   9.900
 7257W        W11457   3.209   6.541  11.723
 7258W        W11458   3.609   7.004   1.941
 7259W        W11459   6.475   5.264   0.867
 7260W        W11460   4.649   7.684   9.807
 7261W        W11461   2.033   2.730   0.871
 7262W        W11462   1.700   9.149   1.639
 7263W        W11463   5.119   4.314  10.982
 7264W        W11464   6.387   7.114   3.584
 7265W        W11465   0.511   7.195  10.815
 7266W        W11466   5.628   2.109   0.641
 7267W        W11467   5.485   8.983   9.001
 7268W        W11468   8.633   0.832   0.274
 7269W        W11469   0.740   6.740   0.871
 7270W        W11470   1.209   6.977   0.663
 7271W        W11471   9.680   8.152   9.467
 7272W        W11472   0.106   3.074   1.191
 7273W        W11473   2.775   1.637   2.235
 7274W        W11474   8.508   5.635   8.389
 7275W        W11475   8.599   8.451  10.664
 7276W        W11476   0.615   7.213   1.009
 7277W        W11477   2.144   9.693   9.781
 7278W        W11478   7.707   6.362  11.065
 7279W        W11479   5.151   0.006   1.257
 7280W        W11480   2.372   6.073   2.415
 7281W        W11481  10.000   9.484   2.977
 7282W        W11482   5.532   7.067   2.001
 7283W        W11483   3.613   6.939   9.342
 7284W        W11484   7.093   0.363   3.280
 7285W        W11485   4.806   2.237   9.047
 7286W        W11486   2.336   3.848   1.305
 7287W        W11487  10.948   3.760   1.064
 7288W        W11488   0.370   4.971   0.491
 7289W        W11489   4.103  10.678  11.513
 7290W        W11490   0.800   0.994  11.278
 7291W        W11491   6.338   2.592   8.197
 7292W        W11492   3.676   7.511   1.769
 7293W        W11493   0.828   5.099  11.393
 7294W        W11494   3.169  10.925   0.452
 7295W        W11495   4.349   4.980   0.578
 7296W        W11496   1.524  10.962   9.904
 7297W        W11497   3.893   2.787  11.612
 7298W        W11498   5.296   3.919  10.451
 7299W        W11499   6.629   4.743   2.144
 7300W        W11500   6.581   7.695   2.792
 7301W        W11501   8.978   6.700   9.970
 7302W        W11502   8.119  11.247  11.375
 7303W        W11503   7.548   3.283   3.311
 7304W        W11504   9.375   1.781   8.740
 7305W        W11505   3.052   0.948  10.605
 7306W        W11506   1.815   5.218   1.393
 7307W        W11507   8.835   5.368  11.622
 7308W        W11508   6.217   1.950   9.839
 7309W        W11509   2.894   7.886   8.968
 7310W        W11510   9.561   2.293   2.719
 7311W        W11511   8.630   6.299   8.196
 7312W        W11512   7.891   4.852   9.095
 7313W        W11513   4.732   8.507   2.316
 7314W        W11514   9.556   3.722   3.460
 7315W        W11515   0.389  10.079   9.994
 7316W        W11516   4.837   1.084   3.769
 7317W        W11517   6.398   2.919   2.790
 7318W        W11518   2.060   3.521   2.689
 7319W        W11519   1.436   7.974   1.768
 7320W        W11520   3.108   6.519   0.253
 7321W        W11521   4.324   0.546   1.939
 7322W        W11522   7.046   2.345   0.785
 7323W        W11523   1.668   8.410   0.546
 7324W        W11524   0.042   2.026   0.925
 7325W        W11525   5.572   2.799   3.838
 7326W        W11526   6.576   3.396  11.611
 7327W        W11527   5.579   4.585   8.286
 7328W        W11528   7.432   8.865   0.942
 7329W        W11529   0.460   9.609  11.929
 7330W        W11530   5.768   1.349   9.367
 7331W        W11531   5.547   2.363   9.876
 7332W        W11532   0.866   5.501  11.760
 7333W        W11533   3.625  10.870   0.196
 7334W        W11534   5.289   9.805  10.380
 7335W        W11535   8.881   9.385  11.924
 7336W        W11536  10.795   3.703   8.843
 7337W        W11537   4.250   7.711   2.263
 7338W        W11538   9.563   6.446   2.560
 7339W        W11539   4.478   8.481  11.699
 7340W        W11540   4.085   5.547   0.698
 7341W        W11541  11.307   8.993   0.966
 7342W        W11542   3.033   9.807   8.373
 7343W        W11543   4.151   1.972   3.121
 7344W        W11544  11.309   1.965   2.980
 7345W        W11545   0.497   3.590   0.448
 7346W        W11546   8.915   3.731   1.432
 7347W        W11547   0.850  10.526  10.538
 7348W        W11548   7.688   1.925  10.642
 7349W        W11549   3.127  11.028   0.954
 7350W        W11550   0.736   4.110   3.648
 7351W        W11551   1.713  11.332   9.590
 7352W        W11552   1.116   1.306   0.817
 7353W        W11553   4.317   4.604   8.931
 7354W        W11554   3.659   3.184   0.413
 7355W        W11555   8.138   7.573   9.747
 7356W        W11556   2.217  10.286  11.027
 7357W        W11557   1.897   3.787   0.255
 7358W        W11558  10.862   3.584  10.662
 7359W        W11559   3.649  10.814   3.381
 7360W        W11560   9.429   1.809   2.231
 7361W        W11561   3.286   0.630  10.010
 7362W        W11562  11.489  11.314   1.512
 7363W        W11563   2.289   2.721   0.426
 7364W        W11564  11.352   8.869  10.055
 7365W        W11565   4.706   6.051   4.034
 7366W        W11566   6.441  10.839  11.041
 7367W        W11567   6.704   5.602  11.595
 7368W        W11568   7.874   2.209   9.763
 7369W        W11569  11.117   3.734   9.253
 7370W        W11570  10.847   4.951   0.334
 7371W        W11571   2.514   9.206  11.711
 7372W        W11572   1.768   5.363   8.488
 7373W        W11573   0.884   9.563   2.940
 7374W        W11574   1.877   7.881   1.541
 7375W        W11575   1.880   5.642   1.092
 7376W        W11576   1.905   7.522   0.731
 7377W        W11577   3.845   3.610   2.524
 7378W        W11578   6.143   9.515   1.959
 7379W        W11579   7.635   4.561   3.742
 7380W        W11580   1.243   6.664   1.629
 7381W        W11581   9.874  10.516   0.270
 7382W        W11582   1.903   4.652   1.408
 7383W        W11583   1.614   5.675  11.212
 7384W        W11584   9.358  10.331   9.964
 7385W        W11585   2.765   5.525   1.202
 7386W        W11586   5.633   7.585   2.681
 7387W        W11587   0.997   4.146  10.548
 7388W        W11588   9.529   4.391   1.814
 7389W        W11589   2.675  10.272   9.531
 7390W        W11590   5.390   4.263   1.889
 7391W        W11591   0.515   1.653   1.972
 7392W        W11592   3.696   1.817   2.607
 7393W        W11593   0.867   0.706   1.673
 7394W        W11594   2.330   7.064   8.544
 7395W        W11595   8.268   5.396  11.841
 7396W        W11596  10.386   2.105   9.574
 7397W        W11597   1.151   5.832   2.856
 7398W        W11598   6.107   2.644   2.124
 7399W        W11599   3.559   5.192   8.979
 7400W        W11600   8.036   5.709   3.848
 7401W        W11601   2.378   5.975   3.304
 7402W        W11602  11.017   8.277   0.805
 7403W        W11603   4.431   0.376   3.235
 7404W        W11604   9.232   0.465   1.638
 7405W        W11605   5.551   4.065  10.860
 7406W        W11606   9.592   7.387   2.695
 7407W        W11607  11.492  10.280   9.448
 7408W        W11608   5.950  10.311   0.229
 7409W        W11609   3.003  10.051   2.579
 7410W        W11610   1.812   7.244   2.328
 7411W        W11611   1.430   8.648  10.088
 7412W        W11612   8.991   5.165   9.352
 7413W        W11613   4.075  10.820   9.407
 7414W        W11614   6.363   8.007   1.542
 7415W        W11615  10.375   4.678   0.374
 7416W        W11616   7.344   5.650   2.455
 7417W        W11617   3.277   8.201  10.593
 7418W        W11618   2.708   0.906   3.415
 7419W        W11619  10.532   9.443   3.113
 7420W        W11620   6.621   3.730  10.440
 7421W        W11621   3.248   6.949   8.979
 7422W        W11622   8.368   0.297   8.401
 7423W        W11623   3.733   2.761   0.672
 7424W        W11624   2.540  11.344   3.379
 7425W        W11625  11.135   7.907   9.820
 7426W        W11626   5.017   3.112   2.382
 7427W        W11627   6.738   9.798  10.422
 7428W        W11628   3.528   4.462   9.332
 7429W        W11629  11.111   8.808   1.418
 7430W        W11630   3.107  10.883   1.533
 7431W        W11631   6.954  11.130   9.512
 7432W        W11632   6.371   9.377   0.442
 7433W        W11633   8.297   9.961   1.692
 7434W        W11634   4.928   3.758  11.835
 7435W        W11635   7.672   1.816  10.122
 7436W        W11636   3.618  10.938   1.693
 7437W        W11637   0.353   4.291   8.805
 7438W        W11638   4.708   5.697   0.054
 7439W        W11639  10.771   0.785   9.421
 7440W        W11640   1.194  11.340   9.822
 7441W        W11641   2.415   8.959   2.357
 7442W        W11642  10.566   4.222   0.980
 7443W        W11643   0.178   2.202  11.840
 7444W        W11644   2.915   2.672   0.012
 7445W        W11645  10.794   5.249   8.505
 7446W        W11646   7.599   8.138  11.727
 7447W        W11647   0.593   5.109   1.839
 7448W        W11648   2.226   3.829  11.850
 7449W        W11649  10.318   0.972  11.444
 7450W        W11650  11.365  10.079  11.146
 7451W        W11651  10.515  11.296   3.407
 7452W        W11652   6.974   1.856   3.521
 7453W        W11653   2.974   2.109   2.237
 7454W        W11654   8.200   9.922   2.783
 7455W        W11655   3.291   9.615  10.311
 7456W        W11656  10.664   0.264   3.202
 7457W        W11657   3.258   4.107   0.847
 7458W        W11658   4.121   6.955   1.948
 7459W        W11659  11.049  10.703   9.987
 7460W        W11660   5.134   7.234  11.490
 7461W        W11661   8.117  10.999   3.361
 7462W        W11662   2.211   5.110   8.657
 7463W        W11663  10.712   0.272   8.546
 7464W        W11664   5.570   7.234   3.767
 7465W        W11665  10.512   5.461   8.855
 7466W        W11666   2.959   2.684   3.378
 7467W        W11667  10.757   9.283  11.623
 7468W        W11668  10.366   5.575   3.077
 7469W        W11669   8.095  10.273   9.603
 7470W        W11670   1.799  10.065   9.732
 7471W        W11671   5.572   4.559   3.856
 7472W        W11672   4.700   9.304  11.740
 7473W        W11673   7.528   4.712   2.245
 7474W        W11674   7.118   8.445   9.230
 7475W        W11675   1.020   4.847   3.612
 7476W        W11676   1.576   8.184   3.482
 7477W        W11677   4.015   7.601  11.872
 7478W        W11678   9.177   3.679  11.684
 7479W        W11679   5.663   0.394   9.474
 7480W        W11680   8.609   7.968  11.523
 7481W        W11681  11.335  10.041   1.134
 7482W        W11682  11.364   8.275   9.065
 7483W        W11683   3.436  10.304   1.120
 7484W        W11684   1.870   8.363   1.005
 7485W        W11685   1.264   8.985  11.123
 7486W        W11686   2.679   9.780   0.423
 7487W        W11687   5.026   5.333   2.386
 7488W        W11688   7.716   2.318   0.219
 7489W        W11689  10.377   9.025   1.844
 7490W        W11690   8.937  10.456   2.785
 7491W        W11691   1.126   4.390   8.623
 7492W        W11692   2.916   8.863   2.383
 7493W        W11693   1.673   1.408  11.890
 7494W        W11694   3.560   2.597   8.996
 7495W        W11695   7.158   8.791   2.239
 7496W        W11696   6.930   7.448   1.210
 7497W        W11697   2.695   0.322   3.523
 7498W        W11698   1.191   9.509   1.246
 7499W        W11699   7.807   8.558  10.009
 7500W        W11700   6.074   7.321   2.714
 7501W        W11701   2.625   0.717   0.321
 7502W        W11702   3.131   1.694   9.143
 7503W        W11703   8.079   4.732  11.283
 7504W        W11704   4.719   8.481   1.294
 7505W        W11705   5.185   6.079   1.864
 7506W        W11706   4.650   4.840   0.975
 7507W        W11707   1.223   0.735   9.413
 7508W        W11708   7.528   2.629   9.056
 7509W        W11709   6.563   9.085  10.705
 7510W        W11710   1.828   6.570   9.541
 7511W        W11711  10.461   0.195   0.462
 7512W        W11712   8.207   8.488  10.312
 7513W        W11713   4.534   5.270  11.806
 7514W        W11714   0.914   3.217   0.999
 7515W        W11715   9.973   6.808   0.681
 7516W        W11716   2.434   7.972   0.071
 7517W        W11717   0.745   5.682   1.993
 7518W        W11718   8.717   1.959   2.919
 7519W        W11719   5.131   4.257  11.502
 7520W        W11720   9.278   8.432   0.519
 7521W        W11721   8.897   2.284  10.435
 7522W        W11722   3.901   2.416   8.583
 7523W        W11723  10.960   5.278  10.029
 7524W        W11724   6.803   5.059  10.211
 7525W        W11725   9.086   2.570   0.485
 7526W        W11726   8.825   4.439   8.889
 7527W        W11727   3.204   8.420   1.783
 7528W        W11728   3.610   4.891   1.217
 7529W        W11729  10.539   3.747   0.746
 7530W        W11730   6.641   3.326  10.096
 7531W        W11731   1.036   4.787   8.988
 7532W        W11732   5.449   8.384  11.702
 7533W        W11733   1.928   3.668   9.321
 7534W        W11734   3.894   2.131  10.795
 7535W        W11735  10.440   1.182  10.559
 7536W        W11736   3.629   5.279   4.041
 7537W        W11737   6.227   2.782   3.249
 7538W        W11738   4.022   9.177  11.376
 7539W        W11739   6.008   4.810  10.797
 7540W        W11740   8.210   8.446   1.403
 7541W        W11741   9.339   1.815  11.489
 7542W        W11742   1.717   6.429   3.280
 7543W        W11743   8.141   7.367   9.279
 7544W        W11744   8.283   1.664   3.021
 7545W        W11745   8.596  10.844   2.789
 7546W        W11746   2.316   4.189   3.347
 7547W        W11747  11.484   9.566  11.772
 7548W        W11748   0.404   2.659   2.908
 7549W        W11749   6.286   5.075   1.311
 7550W        W11750   6.531   9.055   2.909
 7551W        W11751   7.672  11.459  11.522
 7552W        W11752   6.318   0.921   0.481
 7553W        W11753   0.834   8.941  11.501
 7554W        W11754   2.149   9.833  11.283
 7555W        W11755   5.022   7.392   0.030
 7556W        W11756  10.769  10.816   1.291
 7557W        W11757   3.973   8.002   9.173
 7558W        W11758   5.044   4.038   8.759
 7559W        W11759   9.088   3.254   8.892
 7560W        W11760   4.347   9.566   0.312
 7561W        W11761   2.403   6.678   8.968
 7562W        W11762   6.170   6.005   2.392
 7563W        W11763   6.187   4.564   3.033
 7564W        W11764   0.901   5.654   1.158
 7565W        W11765   0.370   9.562   9.957
 7566W        W11766   8.574   5.216   8.085
 7567W        W11767   3.369   2.414   2.321
 7568W        W11768  10.341   0.493   8.821
 7569W        W11769   8.597   3.770  10.982
 7570W        W11770  11.382   8.277  11.266
 7571W        W11771  10.155   0.168   3.202
 7572W        W11772   6.295   6.490  11.364
 7573W        W11773  10.813   3.246   1.939
 7574W        W11774   5.179   7.393  10.085
 7575W        W11775   0.426  10.837  10.463
 7576W        W11776   5.167   8.648   2.597
 7577W        W11777  10.072  11.305  10.763
 7578W        W11778   7.109   9.315   1.491
 7579W        W11779   9.177   8.264   9.439
 7580W        W11780   5.234   1.919   0.407
 7581W        W11781   4.222   4.580   2.382
 7582W        W11782   8.969   8.918  10.244
 7583W        W11783   0.538   2.331   3.326
 7584W        W11784   7.576   6.379   4.007
 7585W        W11785   9.032   6.460   7.857
 7586W        W11786   8.003   6.879  10.856
 7587W        W11787   2.819  11.290   1.269
 7588W        W11788   9.624   4.616   9.212
 7589W        W11789   6.905   7.613  10.820
 7590W        W11790   5.605   9.826  10.800
 7591W        W11791   0.395   6.588   9.711
 7592W        W11792   2.164   0.364   1.368
 7593W        W11793   3.043   2.345  10.643
 7594W        W11794  10.855  10.798  11.415
 7595W        W11795   1.212   7.866   2.878
 7596W        W11796   0.372   7.106   3.025
 7597W        W11797   5.063   8.831  10.536
 7598W        W11798   7.416   1.640   0.700
 7599W        W11799   5.634   0.220  10.996
 7600W        W11800   7.880   7.810   9.353
 7601W        W11801   6.432   9.784  10.923
 7602W        W11802   5.286   2.881   2.768
 7603W        W11803   5.186   6.155  10.473
 7604W        W11804   5.053   1.968   8.554
 7605W        W11805   1.447   0.212  11.244
 7606W        W11806   2.674   1.609   0.111
 7607W        W11807   0.845   6.880   3.106
 7608W        W11808   8.239   3.664   8.617
 7609W        W11809   0.872   9.057   1.971
 7610W        W11810   6.130  11.256  10.992
 7611W        W11811   5.656   9.459  10.322
 7612W        W11812   3.556   0.133  10.029
 7613W        W11813  11.267  10.453   2.808
 7614W        W11814   6.589   8.910   0.419
 7615W        W11815   0.420   4.167   9.334
 7616W        W11816   1.494   7.446  11.101
 7617W        W11817   8.560   2.825  10.986
 7618W        W11818   2.825   9.845   8.975
 7619W        W11819   4.787   2.485  10.423
 7620W        W11820   3.498   1.249  10.740
 7621W        W11821   4.790   7.662   0.795
 7622W        W11822   1.584   5.217   9.498
 7623W        W11823   3.460   5.466   8.498
 7624W        W11824  10.325   5.600   1.911
 7625W        W11825   2.722   5.744  11.777
 7626W        W11826   9.209   5.163   1.911
 7627W        W11827   2.713   3.629   8.955
 7628W        W11828   6.016  10.348   8.561
 7629W        W11829   6.647  10.105   9.393
 7630W        W11830   2.164   2.376   9.004
 7631W        W11831   6.345   8.190   8.202
 7632W        W11832   6.979   0.023  10.455
 7633W        W11833   8.668  10.851   9.949
 7634W        W11834   6.051   4.526   9.933
 7635W        W11835   5.611   2.702  11.466
 7636W        W11836   4.053  10.625   8.579
 7637W        W11837   5.838   3.244   3.870
 7638W        W11838   5.069   0.694  10.345
 7639W        W11839   2.663   4.577  10.692
 7640W        W11840  11.089  11.457  11.772
 7641W        W11841   7.409   1.288  11.843
 7642W        W11842   5.552   5.930  11.105
 7643W        W11843   1.675   6.468  11.992
 7644W        W11844   5.441  11.293  10.411
 7645W        W11845   2.841   8.327   8.309
 7646W        W11846   4.186   5.572  11.311
 7647W        W11847   4.747   7.542   2.224
 7648W        W11848   6.049   2.137  10.626
 7649W        W11849   9.296   8.154  10.278
 7650W        W11850   2.839   1.220   1.911
 7651W        W11851   8.920   1.136  11.971
 7652W        W11852   4.696   9.356  10.660
 7653W        W11853   0.896  11.302   1.965
 7654W        W11854   1.101   2.734   1.115
 7655W        W11855   8.210   6.074   1.235
 7656W        W11856   9.967   0.367   9.610
 7657W        W11857   0.198   7.030   9.918
 7658W        W11858   2.593   8.493   8.723
 7659W        W11859   2.670   5.085   8.411
 7660W        W11860   2.746   4.275   8.352
 7661W        W11861  11.175   4.829  10.070
 7662W        W11862   4.318   2.655  10.212
 7663W        W11863   5.025   4.411   9.145
 7664W        W11864   5.652   9.850   9.378
 7665W        W11865   5.654   3.644   1.244
 7666W        W11866   9.500  10.405   9.071
 7667W        W11867   6.280   5.565   2.628
 7668W        W11868  10.454   5.191   9.291
 7669W        W11869   9.255   7.413   8.545
 7670W        W11870  11.233   8.252   3.139
 7671W        W11871   0.005   6.042   1.081
 7672W        W11872  11.336   4.710   9.577
 7673W        W11873  11.341   1.868  10.099
 7674W        W11874   3.009   6.906  10.349
 7675W        W11875   6.842   7.073  11.572
 7676W        W11876   6.386   6.652   9.545
 7677W        W11877   5.170   2.338  11.286
 7678W        W11878   7.712   5.082  10.782
 7679W        W11879   6.692   3.705   1.287
 7680W        W11880   2.631   1.406   0.812
 7681W        W11881   2.825   2.568   2.437
 7682W        W11882   7.144  10.582   2.943
 7683W        W11883   9.798   9.381   9.089
 7684W        W11884  10.579   4.791  11.921
 7685W        W11885   7.570  10.358   3.134
 7686W        W11886   0.890   1.438   9.487
 7687W        W11887   3.573   4.082  10.076
 7688W        W11888  10.494   5.175   1.703
 7689W        W11889   0.666   9.523   2.486
 7690W        W11890   1.829   5.170   9.952
 7691W        W11891   3.833   3.292  11.350
 7692W        W11892   9.982  10.080   9.759
 7693W        W11893  10.316  11.409   1.752
 7694W        W11894   7.161   2.659  10.824
 7695W        W11895   4.812   9.512   9.266
 7696W        W11896   5.154   9.582  11.366
 7697W        W11897  10.033   2.169   2.917
 7698W        W11898   8.070   5.712  11.480
 7699W        W11899   9.970   4.896   0.094
 7700W        W11900   1.194  10.846  10.281
 7701W        W11901   7.595   0.534   0.760
 7702W        W11902   6.791   6.970   1.353
 7703W        W11903  10.279   0.777   9.279
 7704W        W11904   0.040   6.975  11.812
 7705W        W11905   6.614   4.550   0.605
 7706W        W11906   8.163   0.005   9.724
 7707W        W11907   0.654   2.989   2.392
 7708W        W11908   5.175   8.027   1.168
 7709W        W11909  10.350   0.925   2.358
 7710W        W11910   0.219   9.812  11.389
 7711W        W11911   8.477   9.483  11.643
 7712W        W11912   2.228   0.702   3.287
 7713W        W11913   2.387  10.565  11.970
 7714W        W11914   0.078   1.517   0.849
 7715W        W11915   2.323   8.395   1.248
 7716W        W11916   3.702   3.167   2.831
 7717W        W11917   4.428   9.689   3.668
 7718W        W11918   2.304  11.372   2.165
 7719W        W11919   3.688   7.585   0.436
 7720W        W11920   2.652   4.959   0.357
 7721W        W11921   1.368   9.926  11.746
 7722W        W11922   7.892   1.473  10.739
 7723W        W11923  10.490   1.215   1.554
 7724W        W11924   0.875   3.175   9.434
 7725W        W11925   7.110   1.632  10.822
 7726W        W11926   6.259   7.606   2.358
 7727W        W11927   6.541   6.537   1.157
 7728W        W11928   1.779   2.009   0.501
 7729W        W11929   9.376   1.317  11.510
 7730W        W11930   3.710   3.657   1.627
 7731W        W11931   7.509   4.276   1.946
 7732W        W11932   1.949   1.506   0.499
 7733W        W11933   1.125   9.425   2.253
 7734W        W11934   9.942   6.601   8.758
 7735W        W11935   6.054  10.829   3.232
 7736W        W11936   0.269   9.516   8.982
 7737W        W11937   7.884   5.512  11.041
 7738W        W11938   8.166   9.034   2.298
 7739W        W11939   0.995   3.224   2.765
 7740W        W11940   3.050   4.207  11.511
 7741W        W11941  10.184   4.471  11.912
 7742W        W11942   7.599  10.306  10.293
 7743W        W11943   1.645   9.009   2.826
 7744W        W11944  10.851   6.545   0.645
 7745W        W11945   6.653   0.101   0.446
 7746W        W11946  11.295   6.080   1.549
 7747W        W11947   9.615   3.670  11.911
 7748W        W11948   2.038  11.471   0.840
 7749W        W11949   3.739   7.821   2.213
 7750W        W11950   1.695   5.813   0.649
 7751W        W11951   8.826   8.162   1.443
 7752W        W11952   4.931   6.500   9.114
 7753W        W11953   0.019   2.751   1.963
 7754W        W11954  10.472  11.127  11.038
 7755W        W11955   6.705   2.210   9.370
 7756W        W11956   4.369   1.466   2.378
 7757W        W11957   3.540   4.248   8.869
 7758W        W11958   4.781   0.233  11.002
 7759W        W11959   2.851   7.061   3.266
 7760W        W11960   5.711  10.638   9.957
 7761W        W11961  11.016   4.786   8.587
 7762W        W11962   9.261   9.068   0.656
 7763W        W11963  10.577   2.747  10.718
 7764W        W11964   6.137   1.803   0.964
 7765W        W11965   6.497  10.677   0.809
 7766W        W11966   3.221   4.143   2.265
 7767W        W11967   5.300   6.690   8.724
 7768W        W11968   0.438   5.648   0.035
 7769W        W11969  11.398   6.142   9.098
 7770W        W11970  10.799   5.808  10.984
 7771W        W11971   4.175  10.108  10.785
 7772W        W11972   8.975   9.007   1.073
 7773W        W11973   5.028  11.110   9.290
 7774W        W11974   8.535   5.321   2.387
 7775W        W11975   3.217   3.343   9.956
 7776W        W11976   8.169   0.946   0.096
 7777W        W11977   1.348  10.379  10.479
 7778W        W11978   1.937   4.280   0.424
 7779W        W11979   6.552   3.702   0.364
 7780W        W11980   6.421  10.822   2.317
 7781W        W11981   0.712   9.754   8.950
 7782W        W11982   6.186   4.269  11.954
 7783W        W11983   9.586  11.080   9.807
 7784W        W11984   2.418   5.052  10.523
 7785W        W11985   8.223   5.119  10.976
 7786W        W11986   9.408   3.724   1.211
 7787W        W11987   7.134   6.946   2.308
 7788W        W11988   1.777   7.718   2.137
 7789W        W11989  11.346   9.382   9.974
 7790W        W11990   2.521   3.096  10.617
 7791W        W11991   8.874   9.836  11.667
 7792W        W11992   5.329   1.974   1.857
 7793W        W11993   4.864  11.398   1.678
 7794W        W11994   2.904   3.648   0.242
 7795W        W11995   5.404   2.640   9.065
 7796W        W11996   7.971   0.193  11.869
 7797W        W11997   6.408   9.094   3.735
 7798W        W11998   8.447   3.382   1.793
 7799W        W11999   5.961   0.244   0.250
 7800W        W12000   6.504  10.833  11.557
 7801W        W12001  10.637   2.338   3.458
 7802W        W12002   0.770   6.709   1.830
 7803W        W12003   8.450   1.353  11.971
 7804W        W12004   1.851   1.738  10.033
 7805W        W12005   3.274   8.673  10.326
 7806W        W12006   6.536   6.114   0.834
 7807W        W12007   9.372   8.116   3.249
 7808W        W12008   1.526   3.543   2.084
 7809W        W12009   6.309   8.818  11.032
 7810W        W12010   8.896   6.247   3.208
 7811W        W12011   8.792   9.574   3.188
 7812W        W12012   5.660   5.169   9.227
 7813W        W12013   9.358   3.383   1.773
 7814W        W12014   7.656   5.409   9.780
 7815W        W12015   3.146   2.123   9.655
 7816W        W12016   0.917   1.957   3.293
 7817W        W12017   8.890   0.546   3.023
 7818W        W12018  10.390   6.452   1.971
 7819W        W12019   7.948   4.247  10.070
 7820W        W12020   6.581   2.485  11.939
 7821W        W12021   4.521   5.804   1.090
 7822W        W12022  10.839   6.995   0.914
 7823W        W12023   4.499   3.303   0.746
 7824W        W12024  10.666   9.590   9.580
 7825W        W12025  11.323   5.538   3.263
 7826W        W12026   6.672   2.737   9.501
 7827W        W12027   5.541  10.125  11.922
 7828W        W12028   2.789   4.849   0.849
 7829W        W12029   2.487   9.509   1.683
 7830W        W12030   5.060   6.503   1.105
 7831W        W12031   1.810   3.348   0.838
 7832W        W12032  10.484   9.116   9.412
 7833W        W12033   4.241   8.685   3.765
 7834W        W12034   0.820   0.258   1.140
 7835W        W12035   5.934   8.203   3.571
 7836W        W12036   7.682   6.560  10.587
 7837W        W12037   4.442   4.198  10.450
 7838W        W12038   8.959  10.839   9.475
 7839W        W12039   7.885   6.973   9.050
 7840W        W12040   8.479   6.926   1.407
 7841W        W12041   2.711  10.775   1.103
 7842W        W12042   9.877  11.249   3.066
 7843W        W12043   3.095   7.045   1.930
 7844W        W12044   3.740   5.985  11.030
 7845W        W12045   4.828   6.128  11.322
 7846W        W12046   9.584   8.621  10.358
 7847W        W12047   3.362  10.000   9.155
 7848W        W12048   2.224   7.859   9.523
 7849W        W12049   3.358   3.453   0.072
 7850W        W12050   1.437   7.793  11.970
 7851W        W12051   4.531   2.705   9.754
 7852W        W12052   8.601   9.129   0.464
 7853W        W12053   9.086  11.318  10.830
 7854W        W12054   7.129   2.312   3.270
 7855W        W12055   2.545   2.619  11.288
 7856W        W12056   0.421   4.777   1.224
 7857W        W12057   4.780   0.363   2.874
 7858W        W12058   5.884   4.401   1.771
 7859W        W12059   6.629   6.131   2.226
 7860W        W12060   5.898   2.761   8.988
 7861W        W12061   8.280   5.177   3.204
 7862W        W12062   6.922   5.151   2.337
 7863W        W12063   9.123   8.425  11.514
 7864W        W12064   2.272   5.328   9.118
 7865W        W12065   1.331   4.086   9.772
 7866W        W12066   0.859   0.385   2.118
 7867W        W12067   7.456  11.457  10.187
 7868W        W12068   0.673   2.179   2.036
 7869W        W12069   7.166   0.779  11.879
 7870W        W12070   8.345   4.543  10.296
 7871W        W12071  11.090   4.084   2.328
 7872W        W12072   9.918   3.781   1.335
 7873W        W12073   3.113   9.361   0.762
 7874W        W12074   3.802   1.634   9.927
 7875W        W12075  10.848   4.693  10.953
 7876W        W12076   8.175   6.402  10.785
 7877W        W12077  10.111   3.854   9.495
 7878W        W12078  10.631   4.216  10.561
 7879W        W12079   5.143   7.487  10.598
 7880W        W12080   0.047  10.924   2.771
 7881W        W12081   0.333   5.230   1.411
 7882W        W12082  10.212   3.661   3.394
 7883W        W12083   6.339   3.942   8.190
 7884W        W12084   3.204   5.413   3.756
 7885W        W12085   8.442   0.747   3.142
 7886W        W12086   1.880   6.536   8.985
 7887W        W12087   2.321   1.846   0.430
 7888W        W12088  10.832   3.850  11.119
 7889W        W12089   5.235   1.838  11.418
 7890W        W12090   5.494   8.147   9.908
 7891W        W12091   5.894   2.011   1.892
 7892W        W12092   2.319   7.531  11.784
 7893W        W12093   3.243   0.292   1.415
 7894W        W12094   7.737   3.120  10.986
 7895W        W12095   2.442  10.717  10.881
 7896W        W12096   4.083   3.245  10.466
 7897W        W12097   8.585   4.224   2.837
 7898W        W12098   1.404   0.391   0.836
 7899W        W12099   0.279   0.406   0.017
 7900W        W12100   7.045   0.227   2.233
 7901W        W12101   9.058   6.504   8.875
 7902W        W12102   4.184   7.465   1.842
 7903W        W12103   8.598   1.806   3.391
 7904W        W12104   1.511   0.322   9.581
 7905W        W12105   1.503   2.789   8.396
 7906W        W12106   7.404   6.482  10.140
 7907W        W12107  10.561   7.113   2.746
 7908W        W12108  11.356   9.774   3.432
 7909W        W12109   6.457   9.743   0.809
 7910W        W12110   1.840   7.718   3.447
 7911W        W12111   2.847   1.858   0.532
 7912W        W12112   7.056   4.869   9.146
 7913W        W12113   3.305   6.213  10.711
 7914W        W12114   9.576   3.116   2.779
 7915W        W12115   6.447   6.059  10.975
 7916W        W12116  10.371  10.370   0.180
 7917W        W12117   3.110   6.064  11.846
 7918W        W12118   5.377   1.907  10.039
 7919W        W12119   7.697   5.938  10.793
 7920W        W12120   7.547   5.339   0.233
 7921W        W12121   9.406  10.273   2.804
 7922W        W12122   0.991   9.832   1.663
 7923W        W12123   4.587   1.784   1.436
 7924W        W12124   6.171   2.265   0.721
 7925W        W12125   1.732   2.315   8.734
 7926W        W12126   2.182   7.092  11.550
 7927W        W12127   9.443   9.135   9.403
 7928W        W12128   4.635   1.846  10.311
 7929W        W12129   1.336   7.043   3.226
 7930W        W12130   9.978   3.246  10.829
 7931W        W12131   8.965   5.078   3.746
 7932W        W12132   6.494  10.080  11.927
 7933W        W12133   5.213   8.331   1.581
 7934W        W12134   6.627   2.315   0.490
 7935W        W12135  11.292  10.522  10.408
 7936W        W12136   4.734   0.761   1.632
 7937W        W12137   7.735   8.989  11.465
 7938W        W12138   5.506   7.615  11.495
 7939W        W12139   7.668   3.074   2.039
 7940W        W12140   7.946   6.885  11.740
 7941W        W12141   4.624   9.469   2.165
 7942W        W12142   2.352   6.047   0.348
 7943W        W12143   3.920   0.452   8.778
 7944W        W12144   5.961   0.896   9.485
 7945W        W12145   7.565   4.116   9.274
 7946W        W12146   9.518   1.855   3.601
 7947W        W12147   4.511  11.039   1.818
 7948W        W12148   5.690   1.161   0.338
 7949W        W12149   5.487  10.619  10.677
 7950W        W12150   7.021   4.185   9.928
 7951W        W12151   7.697   7.063  10.440
 7952W        W12152   3.669   6.484  10.938
 7953W        W12153   9.949   8.267   8.429
 7954W        W12154  10.988   0.389  10.332
 7955W        W12155  10.834   4.160   2.779
 7956W        W12156   1.350   6.607   2.981
 7957W        W12157   2.309   4.725   9.292
 7958W        W12158   2.374   1.639   2.949
 7959W        W12159   2.990   7.538   2.559
 7960W        W12160   5.477  11.438   0.860
 7961W        W12161   9.568   5.393   1.639
 7962W        W12162   0.950   7.078   8.672
 7963W        W12163   7.171   3.074   0.054
 7964W        W12164   1.767   5.350   0.315
 7965W        W12165   6.859   3.185   3.750
 7966W        W12166   6.697   5.350  10.618
 7967W        W12167   3.576   1.439   1.334
 7968W        W12168   4.174   8.018   0.873
 7969W        W12169   4.299   4.864   2.817
 7970W        W12170   2.213   0.353   1.917
 7971W        W12171   8.335  10.394   0.443
 7972W        W12172   5.225   9.377  11.834
 7973W        W12173   7.540   2.649  11.849
 7974W        W12174   2.763   2.871   2.910
 7975W        W12175   4.856   2.886  10.109
 7976W        W12176   0.781   7.629   1.253
 7977W        W12177   8.663  10.862   3.295
 7978W        W12178   0.892   4.173   9.529
 7979W        W12179   6.112   0.418   1.682
 7980W        W12180  10.511  10.704   0.544
 7981W        W12181   5.001  10.659   2.386
 7982W        W12182   5.633   9.649   9.852
 7983W        W12183   8.088   7.386   1.663
 7984W        W12184   3.041   9.169   9.569
 7985W        W12185  10.255   3.591   2.871
 7986W        W12186   5.168   1.692   0.865
 7987W        W12187   5.163   1.081   8.845
 7988W        W12188   9.956  10.778   3.196
 7989W        W12189   8.535   0.405  11.505
 7990W        W12190   8.553   7.484   2.850
 7991W        W12191   4.522   0.352   2.408
 7992W        W12192   7.533   3.073   9.658
 7993W        W12193   7.219  10.865   1.980
 7994W        W12194   0.005   5.597  11.730
 7995W        W12195   5.147  10.293   3.243
 7996W        W12196   8.643   9.342   2.363
 7997W        W12197   9.554   1.135   0.386
 7998W        W12198   6.641   9.620  11.803
 7999W        W12199   1.761   5.819   0.136
 8000W        W12200   5.733   3.679   3.260
 8001W        W12201   8.658   1.221   2.406
 8002W        W12202   9.008   4.554  11.867
 8003W        W12203  11.060   9.043   8.756
 8004W        W12204   2.478   7.065  11.041
 8005W        W12205   0.925   9.906   2.188
 8006W        W12206   9.662  10.916   3.594
 8007W        W12207   8.802   7.096  11.258
 8008W        W12208   6.563   2.201   8.855
 8009W        W12209   3.205   6.463  11.195
 8010W        W12210   0.789   3.719   9.795
 8011W        W12211   8.108   6.225   3.986
 8012W        W12212  10.473   8.603   9.420
 8013W        W12213  10.780   9.042  10.750
 8014W        W12214   6.643   4.812   1.623
 8015W        W12215   7.974   4.152   3.666
 8016W        W12216   7.489   2.927  11.411
 8017W        W12217   3.325   2.777   0.343
 8018W        W12218   2.694   6.525   9.543
 8019W        W12219   7.149   6.631   3.734
 8020W        W12220   1.490   2.834   3.042
 8021W        W12221   1.385   6.028   3.359
 8022W        W12222   0.708   5.174   1.028
 8023W        W12223   8.376   5.585  10.830
 8024W        W12224   8.698  10.498   1.759
 8025W        W12225   2.508   7.987   8.602
 8026W        W12226   6.904   9.860  11.452
 8027W        W12227   9.167   1.756  10.448
 8028W        W12228   2.739   6.042   8.998
 8029W        W12229   2.237   6.614  11.807
 8030W        W12230   5.282   6.002  11.522
 8031W        W12231   5.840   2.689   8.362
 8032W        W12232   0.349   7.424   1.404
 8033W        W12233  10.803   7.657  10.141
 8034W        W12234   3.427   5.243   0.319
 8035W        W12235   9.299   9.328   1.799
 8036W        W12236   7.004   9.792   1.660
 8037W        W12237   5.934   8.667  10.309
 8038W        W12238   5.841  11.456   8.987
 8039W        W12239  10.769   7.988   3.249
 8040W        W12240   3.240  10.264   2.158
 8041W        W12241   6.495  11.412  10.242
 8042W        W12242   5.452   9.543   3.709
 8043W        W12243   4.483   1.602   9.892
 8044W        W12244   2.439   2.133  11.415
 8045W        W12245   6.162   8.782   1.849
 8046W        W12246   0.266  10.075   3.277
 8047W        W12247   3.407  10.515   9.914
 8048W        W12248   9.075  10.226   8.817
 8049W        W12249   6.969  10.985  11.668
 8050W        W12250   8.737   5.775   3.123
 8051W        W12251  10.304   2.421  10.415
 8052W        W12252   4.987   6.540  10.117
 8053W        W12253   6.898   8.967   3.702
 8054W        W12254   9.913   4.061   1.796
 8055W        W12255   9.273   6.033   9.328
 8056W        W12256   0.346   1.352  10.348
 8057W        W12257  11.274   4.243   3.034
 8058W        W12258   7.201  11.072  10.417
 8059W        W12259  10.331   1.820   2.282
 8060W        W12260   8.640   5.197  10.603
 8061W        W12261   7.599   4.822  11.398
 8062W        W12262   3.134   4.772   0.438
 8063W        W12263   3.428   8.034   9.084
 8064W        W12264   7.805   3.905   3.252
 8065W        W12265   2.476   7.492  11.300
 8066W        W12266   4.195   3.863  10.997
 8067W        W12267   0.360   0.842   8.728
 8068W        W12268   7.900   0.685   9.280
 8069W        W12269   9.789   2.823  11.556
 8070W        W12270  11.357   8.622   0.152
 8071W        W12271   3.374   9.871  11.560
 8072W        W12272   1.777   4.582  11.976
 8073W        W12273   0.909   0.022   2.957
 8074W        W12274   5.212   5.562   1.906
 8075W        W12275   6.569   0.518   3.444
 8076W        W12276   2.371   7.069   0.543
 8077W        W12277   9.550  11.141   0.454
 8078W        W12278   2.787   6.939   8.741
 8079W        W12279  10.389   5.075   3.288
 8080W        W12280   1.436   3.741   0.498
 8081W        W12281  10.378   5.101   0.660
 8082W        W12282  11.368   8.447   1.655
 8083W        W12283   4.104   4.074  10.048
 8084W        W12284   4.715   0.813   2.662
 8085W        W12285   9.632   2.331   3.222
 8086W        W12286   7.625   7.563   1.834
 8087W        W12287   6.610   2.072   0.952
 8088W        W12288  10.126   8.989   0.503
 8089W        W12289   6.579   0.451   1.423
 8090W        W12290   3.313   6.666   1.650
 8091W        W12291   3.562   8.090   0.845
 8092W        W12292   3.164   3.193   2.741
 8093W        W12293   0.786   2.272   2.881
 8094W        W12294   5.969   3.795  11.899
 8095W        W12295   0.483   3.071   9.790
 8096W        W12296  10.483  10.063   9.492
 8097W        W12297   9.050   5.036  10.308
 8098W        W12298   5.542   9.442   2.235
 8099W        W12299   3.106   5.163   8.680
 8100W        W12300   3.594   9.945  11.094
 8101W        W12301   4.292   2.653   1.440
 8102W        W12302   8.477  10.346   2.596
 8103W        W12303   2.190   2.264   0.731
 8104W        W12304   4.737   0.315   8.357
 8105W        W12305   9.797   7.014   2.341
 8106W        W12306   0.158   4.700   9.961
 8107W        W12307   3.793   5.947  10.511
 8108W        W12308  11.057   2.907  11.698
 8109W        W12309   2.801   0.810  10.032
 8110W        W12310   0.518   9.516  10.723
 8111W        W12311   6.932  11.382   0.836
 8112W        W12312   6.891   6.034   0.418
 8113W        W12313   0.828  11.196  10.163
 8114W        W12314   7.355   8.946  11.771
 8115W        W12315  10.444   8.786   3.434
 8116W        W12316   3.842   2.131   9.024
 8117W        W12317   4.155   1.930  10.135
 8118W        W12318   6.302   6.281   9.209
 8119W        W12319   5.150   1.151   0.866
 8120W        W12320   0.715   5.264   9.326
 8121W        W12321   8.065   5.682   1.651
 8122W        W12322   9.102   8.539  10.544
 8123W        W12323  10.908   9.087  10.264
 8124W        W12324   6.314  10.067  10.353
 8125W        W12325   8.198   6.600   8.905
 8126W        W12326   2.082   7.080   2.731
 8127W        W12327   7.121  10.549   1.539
 8128W        W12328   6.115   9.770   9.978
 8129W        W12329  10.907   4.888   1.651
 8130W        W12330   0.408   2.645  10.509
 8131W        W12331  10.006   0.830   9.868
 8132W        W12332   1.822  10.994  11.519
 8133W        W12333   0.115   4.244   9.736
 8134W        W12334   2.453   6.160   1.258
 8135W        W12335   7.477   9.704   1.355
 8136W        W12336  11.109   7.846   0.033
 8137W        W12337   4.358   8.997   8.542
 8138W        W12338   8.038   3.209  10.524
 8139W        W12339   1.232   9.965  11.262
 8140W        W12340   4.019  10.839   0.796
 8141W        W12341   6.251  11.017  10.561
 8142W        W12342   5.035   9.705  10.872
 8143W        W12343   5.235   2.673   2.269
 8144W        W12344   3.625   4.349  11.972
 8145W        W12345   2.683  11.200  10.413
 8146W        W12346   7.509   4.043  11.827
 8147W        W12347   9.022   9.476   0.890
 8148W        W12348   7.949   8.482  11.433
 8149W        W12349   2.230  10.961  10.494
 8150W        W12350   2.819   3.654   9.852
 8151W        W12351   7.450  10.783  10.741
 8152W        W12352   1.254   1.006  10.429
 8153W        W12353   5.961   3.856   0.879
 8154W        W12354   5.728   4.251   8.663
 8155W        W12355   2.911   3.029   0.954
 8156W        W12356  10.452   7.876  11.059
 8157W        W12357   1.556  10.241   0.447
 8158W        W12358   6.065   8.976   0.567
 8159W        W12359   2.705   0.764   2.132
 8160W        W12360   1.003   1.380   2.243
 8161W        W12361   5.564   1.483  10.224
 8162W        W12362   2.548  11.450   9.988
 8163W        W12363   7.273  10.477   8.957
 8164W        W12364  10.415   8.916   9.909
 8165W        W12365   1.672   9.070  10.351
 8166W        W12366   9.567   6.127   0.532
 8167W        W12367   3.599   6.969   2.841
 8168W        W12368   7.804   5.369   9.162
 8169W        W12369   8.502   1.241   8.999
 8170W        W12370  11.248   6.550  10.939
 8171W        W12371   3.661   2.799   2.120
 8172W        W12372  11.388   2.590  11.975
 8173W        W12373   3.541  10.197  10.333
 8174W        W12374  10.760   7.593   2.925
 8175W        W12375  10.253   9.665  11.277
 8176W        W12376   3.692   7.446   9.324
 8177W        W12377  11.447  10.976  10.166
 8178W        W12378   3.184   6.977  11.988
 8179W        W12379   5.545   4.699   0.107
 8180W        W12380   4.728  11.035   3.065
 8181W        W12381   4.599   6.274   0.676
 8182W        W12382   5.835   7.199   1.273
 8183W        W12383   5.628   6.624   3.686
 8184W        W12384   2.078   0.069   9.868
 8185W        W12385   3.813   5.037   1.660
 8186W        W12386   6.667   8.293   3.423
 8187W        W12387   8.925   7.801   9.461
 8188W        W12388   3.359   1.358   2.826
 8189W        W12389  10.694   5.469   9.627
 8190W        W12390   1.131   6.459   0.693
 8191W        W12391   8.108   6.610   0.481
 8192W        W12392   6.709  10.202   3.596
 8193W        W12393   3.410   8.510   3.626
 8194W        W12394   6.207   7.000  10.568
 8195W        W12395   0.176  10.879  11.125
 8196W        W12396   7.506   0.292   9.022
 8197W        W12397  11.211   2.899   0.938
 8198W        W12398   8.070   0.331   1.915
 8199W        W12399   0.317   8.456   9.851
 8200W        W12400   1.489   1.290   0.457
 8201W        W12401   7.700   8.459   0.782
 8202W        W12402   8.279   2.254   1.751
 8203W        W12403  11.135   1.312   0.955
 8204W        W12404   6.909  10.918   1.045
 8205W        W12405  11.449   0.559   3.792
 8206W        W12406   1.886   9.434  10.897
 8207W        W12407   9.938   6.512   2.215
 8208W        W12408   8.003   2.741   9.777
 8209W        W12409   2.195   9.931  10.255
 8210W        W12410   6.650   1.393  10.804
 8211W        W12411   8.668   6.603   2.650
 8212W        W12412   2.086   5.185   3.180
 8213W        W12413   8.119   8.618  10.815
 8214W        W12414   7.469   8.570   1.832
 8215W        W12415   5.159   6.232  10.967
 8216W        W12416   6.034  10.885   2.688
 8217W        W12417   5.311   6.117   1.318
 8218W        W12418  10.021   5.449  11.933
 8219W        W12419   7.159  10.564  10.366
 8220W        W12420   3.136  11.009   2.936
 8221W        W12421   4.494   3.584   9.182
 8222W        W12422   2.137  10.152   8.933
 8223W        W12423   7.210   3.336   0.950
 8224W        W12424   7.412   9.073   1.866
 8225W        W12425   2.141  11.012   9.597
 8226W        W12426   7.614   0.570   2.630
 8227W        W12427   8.926   4.561  10.137
 8228W        W12428   3.361   9.572  10.837
 8229W        W12429   7.167   5.590   1.966
 8230W        W12430   0.467   4.109   2.897
 8231W        W12431  10.316   7.620   2.690
 8232W        W12432   0.656  11.054  11.103
 8233W        W12433   2.380   2.236  10.886
 8234W        W12434   7.107   1.544   0.282
 8235W        W12435   2.187  10.804   0.394
 8236W        W12436   3.264   9.739   2.268
 8237W        W12437  11.072   7.916   1.159
 8238W        W12438   6.574   7.864  10.379
 8239W        W12439   0.097   3.776   3.646
 8240W        W12440  10.924   3.144  10.949
 8241W        W12441  10.928   0.158   8.996
 8242W        W12442   5.452   3.778  11.828
 8243W        W12443   6.177   4.147   3.447
 8244W        W12444   2.403   4.071   0.360
 8245W        W12445   2.097   2.716  11.494
 8246W        W12446  10.321   4.111   9.049
 8247W        W12447   1.388   2.692   0.128
 8248W        W12448   8.272   1.011   0.615
 8249W        W12449   7.989   4.146   9.552
 8250W        W12450   5.794   7.613   4.027
 8251W        W12451   8.058   4.735   9.909
 8252W        W12452   4.100   5.269  10.549
 8253W        W12453   1.048   4.431   1.925
 8254W        W12454  11.376  10.056  10.629
 8255W        W12455  11.268   6.070  11.507
 8256W        W12456   7.072   6.193   4.013
 8257W        W12457   5.030   4.617   0.238
 8258W        W12458   9.944   9.244   0.001
 8259W        W12459   0.956   3.676   3.383
 8260W        W12460   5.265   4.502   8.698
 8261W        W12461  11.485   3.514   0.406
 8262W        W12462   1.394  11.461   1.749
 8263W        W12463   1.318  11.101   2.129
 8264W        W12464   9.594   6.804  10.339
 8265W        W12465   5.650   6.545   9.906
 8266W        W12466   3.390   7.146   1.480
 8267W        W12467   1.272   6.039   9.205
 8268W        W12468   1.336   9.920   0.752
 8269W        W12469   0.297   0.003   2.402
 8270W        W12470   6.493   2.060  10.265
 8271W        W12471  10.256  10.532  10.278
 8272W        W12472   7.932   0.969  10.727
 8273W        W12473   6.622   7.839   9.089
 8274W        W12474   1.697   7.247   3.512
 8275W        W12475   4.087  10.765   0.027
 8276W        W12476   8.539  10.734   1.329
 8277W        W12477   6.470   5.759   0.012
 8278W        W12478   6.725   6.980   0.833
 8279W        W12479   6.597   3.265  10.637
 8280W        W12480   7.916   6.389   0.890
 8281W        W12481  10.094   5.860   3.409
 8282W        W12482   4.567   9.955   9.960
 8283W        W12483   9.414  10.656   1.217
 8284W        W12484   9.064   4.280   2.603
 8285W        W12485   8.962   5.562   2.144
 8286W        W12486   9.958   6.810   3.175
 8287W        W12487  11.082   0.934  11.799
 8288W        W12488   3.864   4.452  10.297
 8289W        W12489   9.215   5.841   0.258
 8290W        W12490   5.634   6.245   1.684
 8291W        W12491  11.426   7.336   2.975
 8292W        W12492  10.385   9.421   2.629
 8293W        W12493   6.549   8.285   1.161
 8294W        W12494   9.782   7.267  10.407
 8295W        W12495   4.352   7.216   2.352
 8296W        W12496  11.091   6.295   8.387
 8297W        W12497   4.077   4.910   8.572
 8298W        W12498  11.112   3.116   0.493
 8299W        W12499   1.561   6.631   0.465
 8300W        W12500   8.109   9.376   0.519
 8301W        W12501   8.048   9.996   2.304
 8302W        W12502   4.755  10.807   0.296
 8303W        W12503   8.683   8.860   9.833
 8304W        W12504   3.842  10.395   0.321
 8305W        W12505   9.593   8.849   2.627
 8306W        W12506   6.057   3.792   2.621
 8307W        W12507   0.728  10.254   9.149
 8308W        W12508   1.772   6.564   1.767
 8309W        W12509  11.372   5.169   1.646
 8310W        W12510   3.916   9.368   9.849
 8311W        W12511   1.672  11.271  11.093
 8312W        W12512   3.558   5.630   2.438
 8313W        W12513   2.194   0.220   3.462
 8314W        W12514   9.431   9.263  11.272
 8315W        W12515   6.402   1.710   1.997
 8316W        W12516  10.406   5.477   3.616
 8317W        W12517   2.022   3.144  10.534
 8318W        W12518   1.803   0.028   2.743
 8319W        W12519   6.890   8.256  10.202
 8320W        W12520   9.288   9.275   0.177
 8321W        W12521   2.482   7.996  10.386
 8322W        W12522   2.327   1.846   1.471
 8323W        W12523   4.788   8.031   2.893
 8324W        W12524  11.361  10.099   0.173
 8325W        W12525   7.729   5.206   1.781
 8326W        W12526   2.617   0.699  10.506
 8327W        W12527   3.436   6.470   9.082
 8328W        W12528   5.651  11.026   3.511
 8329W        W12529   4.746   9.829   2.503
 8330W        W12530   2.145   3.253  11.904
 8331W        W12531   3.875   7.141   9.749
 8332W        W12532   3.785   7.435  11.099
 8333W        W12533   7.723   8.436  10.511
 8334W        W12534   0.110   7.826   0.201
 8335W        W12535   1.631   5.677   2.685
 8336W        W12536  10.433   4.685   9.295
 8337W        W12537   6.094   1.261   3.267
 8338W        W12538   1.722   9.134  11.355
 8339W        W12539   8.541   2.722   0.354
 8340W        W12540   3.872  10.275   9.937
 8341W        W12541   9.028   9.987   0.593
 8342W        W12542   2.322   3.183  10.146
 8343W        W12543   8.633   0.037   0.850
 8344W        W12544   7.774   7.927  10.737
 8345W        W12545   1.588   9.731   1.498
 8346W        W12546  10.358   4.562   3.394
 8347W        W12547   6.151   9.046   3.280
 8348W        W12548   7.925  10.010   1.331
 8349W        W12549   8.863   5.449   0.134
 8350W        W12550  11.038   6.191   1.986
 8351W        W12551  11.248   7.717   0.677
 8352W        W12552   5.545   3.633  10.108
 8353W        W12553   8.466   2.141  10.740
 8354W        W12554   3.188   4.794   1.478
 8355W        W12555   1.479   4.754  11.054
 8356W        W12556   3.105   7.113   2.818
 8357W        W12557  10.830   6.293  10.745
 8358W        W12558   3.286  10.494   3.599
 8359W        W12559   6.281   9.956   1.699
 8360W        W12560   1.775   1.402  11.381
 8361W        W12561  10.897   6.583   8.839
 8362W        W12562   6.943   4.657   3.076
 8363W        W12563  10.336   8.282   1.230
 8364W        W12564   2.418   1.212   0.386
 8365W        W12565   0.561   2.447   2.456
 8366W        W12566   6.592   2.884  11.567
 8367W        W12567  10.901   2.963   3.635
 8368W        W12568   2.609   9.895   9.860
 8369W        W12569   2.181   0.503  11.779
 8370W        W12570   7.784   8.161   1.442
 8371W        W12571   0.281   1.238   1.776
 8372W        W12572  10.966  10.430   9.533
 8373W        W12573   5.451   6.077   9.506
 8374W        W12574   3.661   2.165   3.235
 8375W        W12575   0.490   7.128   1.804
 8376W        W12576   3.869   1.513   0.376
 8377W        W12577   5.550   7.812   9.524
 8378W        W12578   9.066   7.730   1.257
 8379W        W12579   7.469   8.696   0.369
 8380W        W12580  10.440  10.414   1.649
 8381W        W12581   4.161   8.581   3.067
 8382W        W12582   4.232   9.040   3.397
 8383W        W12583   8.492   8.399   2.758
 8384W        W12584   5.671   0.275   1.387
 8385W        W12585  11.059   3.331   3.007
 8386W        W12586   5.693  10.618  11.899
 8387W        W12587   4.548   4.839   0.103
 8388W        W12588   1.662   4.872   3.259
 8389W        W12589   8.092   1.855   9.441
 8390W        W12590   9.875   3.342   3.158
 8391W        W12591   7.899   1.791   0.971
 8392W        W12592  11.437  10.998  11.581
 8393W        W12593   5.179   6.494   0.181
 8394W        W12594   2.181  11.476   9.378
 8395W        W12595   0.651  11.071   0.382
 8396W        W12596   5.161   1.877   1.358
 8397W        W12597   6.452   5.035  10.949
 8398W        W12598   3.180   4.282   1.360
 8399W        W12599   1.798   9.977   2.766
 8400W        W12600   4.627   8.343   3.747
 8401W        W12601   7.004   8.859   0.105
 8402W        W12602   5.154   1.820   9.393
 8403W        W12603   1.996  11.076   8.592
 8404W        W12604   7.520   3.320   1.629
 8405W        W12605   0.240   1.050   0.925
 8406W        W12606   0.979  11.000  11.484
 8407W        W12607   4.499  11.067  11.920
 8408W        W12608   1.157  10.033   8.910
 8409W        W12609   5.573   9.837  11.494
 8410W        W12610   5.293   0.357   2.848
 8411W        W12611   3.288   3.300  11.073
 8412W        W12612  10.076   6.037   2.089
 8413W        W12613   0.537  10.488  11.886
 8414W        W12614   2.148   4.685   3.309
 8415W        W12615   3.332   2.443  11.462
 8416W        W12616   4.300   2.181   1.244
 8417W        W12617   5.896   8.633  11.789
 8418W        W12618   6.039   0.339  11.294
 8419W        W12619   4.138   0.282   2.765
 8420W        W12620   0.787   4.529   0.315
 8421W        W12621   9.910   8.547   1.075
 8422W        W12622   6.032   0.848  11.064
 8423W        W12623   5.233   0.568   9.221
 8424W        W12624   8.982   2.547  11.981
 8425W        W12625   7.719   6.120  10.326
 8426W        W12626   2.080   5.106   9.523
 8427W        W12627   2.439   0.365  10.870
 8428W        W12628   9.967   5.339   3.410
 8429W        W12629   5.114   9.145   9.478
 8430W        W12630   4.379   7.213   1.455
 8431W        W12631   8.365   0.202   0.417
 8432W        W12632   0.886  10.210  10.956
 8433W        W12633   2.074   9.425   0.737
 8434W        W12634   4.803   3.807  10.496
 8435W        W12635   3.570   5.275   0.848
 8436W        W12636   1.199   3.149   2.306
 8437W        W12637   7.214   0.580   1.495
 8438W        W12638   0.290   3.912   1.517
 8439W        W12639   8.859   2.250   9.874
 8440W        W12640   0.133  11.042   0.470
 8441W        W12641   9.494   9.859   9.904
 8442W        W12642  10.426   6.201  11.626
 8443W        W12643   1.387   6.534   9.202
 8444W        W12644   8.895   4.098  10.386
 8445W        W12645   7.952   7.529   0.292
 8446W        W12646   0.732   2.765  11.440
 8447W        W12647   6.297   7.618   4.093
 8448W        W12648   0.527   4.781   8.943
 8449W        W12649   5.019   0.436   2.403
 8450W        W12650   7.003  10.236  10.014
 8451W        W12651   3.809   8.808   3.520
 8452W        W12652   4.515   8.939  11.404
 8453W        W12653   4.549   2.415   2.166
 8454W        W12654   0.584   4.258   1.254
 8455W        W12655   3.756   7.164   8.896
 8456W        W12656   0.374   6.511  10.213
 8457W        W12657   0.292   0.879   9.719
 8458W        W12658   5.803   8.148   0.010
 8459W        W12659   5.641   9.317  10.809
 8460W        W12660   1.905   1.074   0.212
 8461W        W12661   2.819   4.697   9.174
 8462W        W12662  10.747   7.149   2.233
 8463W        W12663  10.367   7.148   0.756
 8464W        W12664  10.635   1.291   1.071
 8465W        W12665   6.187   0.402   0.669
 8466W        W12666  11.397   8.171   2.580
 8467W        W12667   2.608   1.599   8.969
 8468W        W12668   4.412   6.599  10.482
 8469W        W12669   8.606  10.239  10.556
 8470W        W12670   3.321   0.305   9.609
 8471W        W12671   3.224   3.660  10.349
 8472W        W12672   7.082   6.036   0.915
 8473W        W12673   7.064   7.618   8.935
 8474W        W12674   8.161   1.817  10.489
 8475W        W12675  11.388   4.165   1.906
 8476W        W12676   4.814   1.937  11.668
 8477W        W12677   6.920   5.699  10.311
 8478W        W12678   6.058   9.631  10.595
 8479W        W12679   5.125   7.824   9.802
 8480W        W12680   3.793   3.682   9.801
 8481W        W12681   1.049   8.941   1.504
 8482W        W12682   5.169   8.688   0.598
 8483W        W12683   7.978   7.050   2.039
 8484W        W12684   9.088   5.123   0.487
 8485W        W12685   4.740  10.403   9.690
 8486W        W12686   8.360   5.529  10.324
 8487W        W12687   2.667  10.851   0.601
 8488W        W12688   9.303   0.766   1.230
 8489W        W12689   9.833   2.620   9.085
 8490W        W12690  10.879   3.026   9.915
 8491W        W12691  11.311   0.565  11.268
 8492W        W12692   2.750   1.009  11.442
 8493W        W12693   2.085   2.292   3.362
 8494W        W12694   9.446   1.442  10.091
 8495W        W12695   5.926   1.829  10.232
 8496W        W12696   4.505   7.618   2.701
 8497W        W12697   5.461   6.113   2.805
 8498W        W12698   4.722   8.549   2.878
 8499W        W12699   4.322   2.840   1.931
 8500W        W12700   6.078  10.985   0.702
 8501W        W12701   7.884   4.200  10.593
 8502W        W12702   4.279  11.064   0.394
 8503W        W12703   5.214  11.435  11.102
 8504W        W12704   7.211   9.223   9.887
 8505W        W12705   9.397   6.163  11.535
 8506W        W12706  10.690   3.831   3.650
 8507W        W12707   3.955   7.993  10.492
 8508W        W12708   6.853  10.750  10.743
 8509W        W12709   4.899  10.064   0.967
 8510W        W12710   1.713   0.821   3.168
 8511W        W12711   7.091  10.477   9.450
 8512W        W12712   9.790  10.804   8.974
 8513W        W12713   2.123   0.263   2.439
 8514W        W12714   2.342   6.102  11.421
 8515W        W12715   4.178   1.743   9.127
 8516W        W12716  10.438   4.260  11.035
 8517W        W12717   9.848   0.440   1.324
 8518W        W12718   0.872   4.972   0.566
 8519W        W12719   1.307   5.238   9.967
 8520W        W12720   8.487   5.812   0.772
 8521W        W12721   1.206   8.102  11.280
 8522W        W12722   0.236   3.447  11.956
 8523W        W12723   2.728   3.850   0.690
 8524W        W12724   2.624   5.113   9.441
 8525W        W12725   9.892   5.708   0.738
 8526W        W12726   8.552   8.251   1.009
 8527W        W12727   5.992   9.343   8.538
 8528W        W12728   9.596   3.154  10.443
 8529W        W12729   6.357   2.133   1.730
 8530W        W12730   5.835   9.850   1.491
 8531W        W12731   7.145   9.888   2.190
 8532W        W12732   4.697  11.221   9.656
 8533W        W12733   5.689   8.352   9.492
 8534W        W12734   5.635   5.842   2.009
 8535ION    NA+12735   2.746   6.703  11.889
 8536ION    NA+12736   4.254   1.061   2.054
 8537ION    NA+12737   1.204  10.672   3.390
 8538ION    NA+12738   6.809   0.932   1.411
 8539ION    NA+12739   7.218   3.405   9.442
 8540ION    NA+12740  10.166   9.523   3.478
 8541ION    NA+12741  11.472   2.047  11.411
 8542ION    NA+12742   5.797   4.433   0.498
 8543ION    NA+12743  11.236   7.141   9.662
 8544ION    NA+12744   8.221   4.626   9.414
 8545ION    NA+12745   6.810   6.401  10.874
 8546ION    NA+12746   7.800   2.256   1.627
 8547ION    NA+12747   8.161   5.014   0.932
 8548ION    NA+12748   8.133   2.329   3.248
 8549ION    NA+12749   1.889  10.999   0.968
 8550ION    NA+12750   0.915   9.323  11.874
 8551ION    NA+12751   7.893   6.205  11.527
 8552ION    NA+12752   5.221   1.406   3.174
 8553ION    NA+12753   3.993  10.437  10.425
 8554ION    NA+12754   1.875   3.380   9.936
 8555ION    NA+12755   9.851   4.731   2.271
 8556ION    NA+12756   0.873   8.690   0.827
 8557ION    NA+12757   6.341   7.428  11.900
 8558ION    NA+12758   8.029   3.417   3.147
 8559ION    NA+12759   8.884   6.362  10.676
 8560ION    NA+12760   9.712   7.725   0.937
 8561ION    NA+12761   6.290  11.250   3.395
 8562ION    NA+12762   8.293   2.273   0.315
 8563ION    NA+12763   0.951   2.785   9.777
 8564ION    NA+12764   2.123   0.628   0.283
 8565ION    NA+12765   3.393   2.842  11.805
 8566ION    NA+12766   6.509   7.718   1.949
 8567ION    NA+12767   3.161   4.895   8.232
 8568ION    NA+12768   4.673  11.080   2.564
 8569ION    NA+12769   5.708  10.260   1.213
 8570ION    NA+12770   3.182   4.721  10.810
 8571ION    NA+12771  10.436   0.487  11.531
 8572ION    NA+12772   7.236   7.708   2.981
 8573ION    NA+12773   7.651   3.778   0.268
 8574ION    NA+12774  10.234   7.447  11.966
 8575ION    NA+12775   3.721   9.986   2.211
 8576ION    NA+12776   3.216   1.132  10.174
 8577ION    NA+12777   1.495   7.726   9.969
 8578ION    NA+12778   1.462   8.733   8.871
 8579ION    NA+12779   3.141   9.393  11.846
 8580ION    NA+12780   8.891   0.169   1.326
 8581ION    NA+12781   0.595   4.983   9.945
 8582ION    NA+12782   5.667   7.103   2.486
 8583ION    NA+12783   2.909   3.882   9.382
 8584ION    NA+12784   7.023   5.595   0.638
 8585ION    NA+12785   3.537  11.485   1.719
 8586ION    NA+12786   0.920  10.780   2.232
 8587ION    NA+12787   4.841   6.455   1.955
 8588ION    NA+12788   0.999   6.256   3.123
 8589ION    NA+12789   9.909   1.985   8.733
 8590ION    NA+12790   6.720   6.998   3.210
 8591ION    NA+12791   9.190  10.338   1.828
 8592ION    NA+12792   1.503   4.186   0.734
 8593ION    NA+12793   1.522   4.466   1.694
 8594ION    NA+12794   3.345   6.250   3.375
 8595ION    NA+12795   9.638   7.719   3.479
 8596ION    NA+12796   5.793   8.060  11.491
 8597ION    NA+12797   1.153   5.984   9.704
 8598ION    NA+12798   8.401   3.655   2.211
 8599ION    NA+12799   9.663   2.310   3.724
 8600ION    NA+12800   7.476   1.777   0.021
 8601ION    NA+12801   8.649   8.350   2.262
 8602ION    NA+12802   0.018  11.069   3.268
 8603ION    NA+12803   6.736   7.382   4.192
 8604ION    NA+12804   5.323  11.281  11.596
 8605ION    NA+12805   6.071   2.501   2.641
 8606ION    NA+12806   8.282   8.548   9.823
 8607ION    NA+12807   7.323   8.846   1.428
 8608ION    NA+12808   4.718  10.171   2.150
 8609ION    NA+12809   4.258   5.772   1.976
 8610ION    NA+12810   0.045   8.060   1.957
 8611ION    NA+12811   4.190  10.125   1.302
 8612ION    NA+12812   8.138   0.900   9.732
 8613ION    NA+12813   4.333   5.909   0.394
 8614ION    NA+12814  10.061   0.411   0.858
 8615ION    NA+12815   9.725   7.889   9.023
 8616ION    NA+12816   6.092   3.924   1.812
 8617ION    NA+12817   7.371   9.360  10.792
 8618ION    NA+12818   5.901   3.177   3.359
 8619ION    NA+12819   1.732   1.132   1.353
 8620ION    NA+12820   7.657   2.857   8.626
 8621ION    NA+12821   6.176   8.498   9.476
 8622ION    NA+12822   0.624   4.645   1.651
 8623ION    NA+12823   3.185   6.617   8.577
 8624ION    NA+12824   4.140   6.803   0.243
 8625ION    CL-12825   5.631   1.628   2.101
 8626ION    CL-12826   0.201   7.865  11.308
 8627ION    CL-12827  11.345   4.340   8.646
 8628ION    CL-12828   2.125   8.526   2.253
 8629ION    CL-12829   6.922   7.870   2.038
 8630ION    CL-12830   4.675   8.925   1.510
 8631ION    CL-12831   8.213   3.654  11.383
 8632ION    CL-12832   0.144   7.807   2.310
 8633ION    CL-12833   9.182   5.912   3.518
 8634ION    CL-12834   0.269   0.868   0.236
 8635ION    CL-12835   7.433  11.480   0.835
 8636ION    CL-12836   3.365  11.279   1.362
 8637ION    CL-12837   6.968   3.145   9.704
 8638ION    CL-12838   5.090   0.540   1.252
 8639ION    CL-12839   0.026  11.427   2.989
 8640ION    CL-12840   4.783   1.174  11.041
 8641ION    CL-12841   5.792   9.887   0.962
 8642ION    CL-12842  11.156   7.352   9.276
 8643ION    CL-12843   0.221   4.451   1.599
 8644ION    CL-12844   6.078   7.780  11.735
 8645ION    CL-12845  10.591  10.872  10.057
 8646ION    CL-12846   3.540  11.332  11.999
 8647ION    CL-12847   7.238   1.066   1.423
 8648ION    CL-12848   9.120   1.575   3.591
 8649ION    CL-12849   3.221  11.144   9.145
 8650ION    CL-12850   0.983  10.347   9.588
 8651ION    CL-12851   3.382   2.950   3.188
 8652ION    CL-12852   6.953   7.363   3.072
 8653ION    CL-12853   6.711   2.775  10.597
 8654ION    CL-12854  11.460   3.534   1.319
 8655ION    CL-12855   2.356   0.438  10.135
 8656ION    CL-12856   9.500  10.646  10.338
 8657ION    CL-12857   1.098   7.961   3.389
 8658ION    CL-12858   6.374   7.206   4.407
 8659ION    CL-12859   8.476   4.984   3.624
 8660ION    CL-12860   5.455   2.906   8.611
 8661ION    CL-12861   8.189   6.508   2.758
 8662ION    CL-12862   7.002   9.493   2.509
 8663ION    CL-12863   5.156   3.388   2.774
 8664ION    CL-12864  11.237   3.574  11.930
 8665ION    CL-12865  10.527   3.180   1.381
 8666ION    CL-12866   7.668   7.357   9.615
 8667ION    CL-12867   0.993   1.541   0.381
 8668ION    CL-12868   3.337   1.558  10.131
 8669ION    CL-12869  10.889   3.588  10.136
 8670ION    CL-12870   1.354   1.237   9.657
 8671ION    CL-12871  11.436   5.493   2.345
 8672ION    CL-12872   2.666   6.816   9.986
 8673ION    CL-12873   6.941   9.423  10.685
 8674ION    CL-12874   8.585   4.320   0.966
 8675ION    CL-12875   4.249   8.734  11.008
 8676ION    CL-12876   4.972   3.625   0.724
 8677ION    CL-12877   0.255   5.145  10.190
 8678ION    CL-12878   5.841   4.086   2.151
 8679ION    CL-12879   9.114   9.546   3.569
 8680ION    CL-12880  10.971   5.522   8.086
 8681ION    CL-12881   3.026   7.756   9.870
 8682ION    CL-12882   5.306   1.185  11.938
 8683ION    CL-12883   9.882   6.704   1.196
 8684ION    CL-12884   9.187   7.165   2.925
 8685ION    CL-12885   4.091   7.258   0.264
 8686ION    CL-12886   9.330   6.420  10.696
 8687ION    CL-12887   0.717   4.608   2.889
 8688ION    CL-12888  10.441  10.448   1.124
 8689ION    CL-12889   7.115  10.114   1.293
 8690ION    CL-12890   5.318   3.714   9.637
 8691ION    CL-12891   4.519   6.142   2.011
 8692ION    CL-12892   4.232   6.346   0.309
 8693ION    CL-12893  10.905   0.920   8.508
 8694ION    CL-12894   5.543   8.312  11.200
 8695ION    CL-12895   5.258   3.092  11.486
 8696ION    CL-12896   4.300   3.099   9.108
 8697ION    CL-12897   9.963   7.487  11.615
 8698ION    CL-12898   0.707   5.973   3.368
 8699ION    CL-12899  10.076   3.132   2.717
 8700ION    CL-12900   9.294   7.802   0.789
 8701ION    CL-12901   7.505   1.754  11.578
 8702ION    CL-12902   2.676   5.727   2.107
 8703ION    CL-12903   5.676  10.673   1.407
 8704ION    CL-12904   1.188   2.282   1.868
 8705ION    CL-12905   1.152  11.263  11.035
 8706ION    CL-12906   4.903   1.901   9.846
 8707ION    CL-12907   8.065  11.312   1.874
 8708ION    CL-12908   1.305   9.378   2.741
 8709ION    CL-12909   6.629   7.125   0.079
 8710ION    CL-12910   1.733  10.743  10.340
 8711ION    CL-12911   0.947   4.906   1.459
 8712ION    CL-12912   6.015   9.526  11.505
 8713ION    CL-12913   5.239  10.269   8.797
 8714ION    CL-12914   9.543  10.322   1.555
  11.50000  11.50000  12.00000
