Protein in INSANE! Membrane UpperLeaflet>POPC=1.0 LowerLeaflet>POPC=1.0
11530
    1AU     AUC    1   9.635   5.562   5.548  0.0080  0.0112 -0.0005
    1AU     AUC    2   9.745   5.266   5.652 -0.0564  0.0083  0.0753
    1AU     AUC    3   9.949   5.535   5.671  0.0426 -0.0426 -0.0378
    1AU     AUC    4   9.330   5.588   5.405 -0.0942  0.0495 -0.0137
    1AU     AUC    5   9.569   5.855   5.498 -0.0092 -0.0324  0.0518
    1AU     AUC    6   9.620   5.631   5.271 -0.0519  0.0338  0.0506
    1AU     AUC    7   9.855   5.433   5.400 -0.0030 -0.0094  0.0284
    1AU     AUC    8   9.414   5.695   5.747  0.0282  0.1316  0.0721
    1AU     AUC    9   9.667   5.508   5.872  0.0828  0.0938  0.0402
    1AU     AUC   10   9.743   5.797   5.765 -0.0541  0.1385  0.0005
    1AU     AUC   11   9.892   5.776   5.441 -0.0057  0.0148  0.0465
    1AU     AUC   12   9.424   5.355   5.661 -0.0177  0.0099  0.0824
    1AU     AUC   13   9.583   5.308   5.366  0.0414  0.0074 -0.0645
    1AU     AUC   14   9.903   4.972   5.772 -0.0558 -0.0301 -0.0811
    1AU     AUC   15  10.098   5.202   5.815  0.0384 -0.0528 -0.0409
    1AU     AUC   16  10.250   5.522   5.829 -0.0353  0.0148  0.0910
    1AU     AUC   17   9.039   5.649   5.273 -0.0639 -0.0570 -0.0066
    1AU     AUC   18   9.251   5.930   5.303  0.0300 -0.0651  0.0428
    1AU     AUC   19   9.501   6.163   5.375  0.0120  0.0290 -0.0663
    1AU     AUC   20   9.618   5.612   4.910 -0.0172 -0.0190  0.0097
    1AU     AUC   21   9.855   5.408   5.012  0.0566 -0.0152  0.0264
    1AU     AUC   22  10.098   5.243   5.183  0.0428 -0.0907 -0.0455
    1AU     AUC   23   9.174   5.860   5.932  0.0768 -0.0214  0.0741
    1AU     AUC   24   9.339   5.624   6.065 -0.0766  0.0978 -0.0312
    1AU     AUC   25   9.654   5.427   6.190  0.0741  0.0120  0.1136
    1AU     AUC   26   9.838   6.067   5.964  0.0224  0.0508 -0.0271
    1AU     AUC   27  10.003   6.042   5.630  0.0209 -0.0809  0.0314
    1AU     AUC   28  10.147   5.958   5.297 -0.0243  0.0307 -0.0554
    1AU     AUC   29   9.159   5.142   5.806  0.0644 -0.0381 -0.0475
    1AU     AUC   30   9.314   5.071   5.510  0.0242  0.0444  0.0074
    1AU     AUC   31   9.474   4.996   5.223 -0.0142  0.1298  0.0409
    1AU     AUC   32  10.064   5.804   5.917 -0.0561  0.0245 -0.0134
    1AU     AUC   33  10.232   5.802   5.621  0.0101  0.0645  0.0648
    1AU     AUC   34   9.496   5.037   5.809  0.0107 -0.1201  0.1232
    1AU     AUC   35   9.651   4.919   5.499 -0.0263 -0.1043  0.0262
    1AU     AUC   36   9.690   6.141   5.658  0.0553 -0.0199  0.0481
    1AU     AUC   37   9.806   6.075   5.285 -0.0789  0.0447 -0.0356
    1AU     AUC   38   9.065   5.430   5.537 -0.0305  0.0367  0.0306
    1AU     AUC   39   9.207   5.339   5.212  0.0473  0.0360 -0.0371
    1AU     AUC   40  10.046   5.102   5.488  0.0049 -0.0978 -0.0022
    1AU     AUC   41  10.190   5.389   5.519 -0.0258  0.0509 -0.0906
    1AU     AUC   42   9.322   5.650   5.083  0.0534  0.0366  0.0617
    1AU     AUC   43   9.575   5.923   5.104  0.0468 -0.0239 -0.0102
    1AU     AUC   44   9.777   5.182   5.999 -0.0443 -0.0426 -0.0621
    1AU     AUC   45   9.962   5.431   6.056 -0.0296 -0.0385  0.0665
    1AU     AUC   46   9.092   5.818   5.567  0.0869 -0.0894  0.0103
    1AU     AUC   47   9.309   6.042   5.680 -0.0643 -0.0116 -0.0023
    1AU     AUC   48   9.889   5.777   5.050 -0.0947 -0.0293 -0.0723
    1AU     AUC   49  10.116   5.632   5.244 -0.0571  0.0249 -0.0676
    1AU     AUC   50   9.503   5.965   5.968 -0.0680  0.0490  0.0438
    1AU     AUC   51   9.737   5.729   6.117 -0.0124  0.0559  0.0432
    1AU     AUC   52   9.506   5.303   5.059 -0.1453 -0.0741  0.0448
    1AU     AUC   53   9.778   5.087   5.226  0.0155  0.0588 -0.0409
    1AU     AUC   54   9.104   5.565   5.836 -0.1150  0.1339  0.1180
    1AU     AUC   55   9.382   5.283   6.011 -0.0597  0.1239  0.0802
    1AU    AUSL   56  10.440   5.843   5.946 -0.1010  0.0226  0.0068
    1AU    AUSL   57  10.089   5.936   6.270  0.0342  0.0333 -0.0222
    1AU     AUL   58  10.466   5.862   6.312  0.0370  0.0063  0.0450
    1AU       S   59  10.218   5.809   6.683 -0.2207 -0.0392 -0.1777
    1AU     LIG   60  10.386   6.235   6.648 -0.1652  0.0433  0.0943
    1AU     LIG   61  10.259   6.559   6.769 -0.0375 -0.0856 -0.2897
    1AU       S   62  10.582   6.262   6.080 -0.0459 -0.1968  0.0051
    1AU     LIG   63  11.030   6.331   6.007  0.1005  0.4068 -0.0686
    1AU     LIG   64  11.374   6.518   5.679 -0.2913 -0.1720 -0.2111
    1AU    AUSL   65  10.125   6.159   5.907  0.0455 -0.0141 -0.0439
    1AU    AUSL   66  10.073   6.229   5.450  0.0964  0.0473  0.0099
    1AU     AUL   67  10.315   6.505   5.636 -0.0082  0.0403  0.0236
    1AU       S   68  10.268   6.317   6.033 -0.1486 -0.1108  0.0496
    1AU     LIG   69   9.993   6.559   6.288 -0.1356  0.2812  0.0735
    1AU     LIG   70   9.866   6.790   6.516 -0.0519  0.0584 -0.0495
    1AU       S   71   9.965   6.955   5.644 -0.0525  0.3608  0.1289
    1AU     LIG   72   9.961   7.405   5.716  0.1183 -0.5945  0.0413
    1AU     LIG   73  10.097   7.679   5.952  0.1665 -0.3038  0.3443
    1AU    AUSL   74  10.441   6.097   5.595 -0.0101  0.0181 -0.1391
    1AU    AUSL   75  10.574   5.667   5.548  0.0104 -0.1557 -0.0133
    1AU     AUL   76  10.746   5.873   5.802 -0.0417 -0.0186 -0.0054
    1AU       S   77  10.689   6.247   5.547  0.1493  0.0965  0.3019
    1AU     LIG   78  10.914   6.553   5.421  0.2779  0.0854  0.2247
    1AU     LIG   79  10.917   6.624   4.993 -0.0404 -0.5060 -0.0094
    1AU       S   80  10.835   5.769   5.365 -0.1262  0.2947  0.2585
    1AU     LIG   81  11.123   5.542   5.593 -0.2326 -0.0252  0.0872
    1AU     LIG   82  11.349   5.398   5.854 -0.1733 -0.3857 -0.2427
    1AU    AUSL   83   9.628   4.643   5.705  0.0152 -0.0624  0.0266
    1AU    AUSL   84   9.760   4.657   5.273  0.0478  0.0585 -0.1350
    1AU     AUL   85   9.617   4.371   5.462 -0.0259  0.0359  0.0043
    1AU       S   86   9.254   4.372   5.781  0.2245  0.0630 -0.1641
    1AU     LIG   87   9.417   3.944   5.696 -0.1665 -0.0048 -0.0738
    1AU     LIG   88   9.218   3.549   5.793  0.3090 -0.0673  0.1874
    1AU       S   89  10.059   4.356   5.366  0.5220  0.0589 -0.3334
    1AU     LIG   90  10.377   4.030   5.453 -0.0986  0.3814 -0.0314
    1AU     LIG   91  10.816   4.131   5.235 -0.0098  0.0105 -0.2272
    1AU    AUSL   92   9.272   4.867   5.762 -0.0183  0.0150 -0.0422
    1AU    AUSL   93   9.671   4.962   5.996  0.0923  0.0050 -0.1489
    1AU     AUL   94   9.594   4.590   5.992  0.0173 -0.0430 -0.1526
    1AU       S   95   9.355   4.703   6.646 -0.1875 -0.3165  0.3439
    1AU     LIG   96   9.686   4.361   6.615 -0.0053  0.0289 -0.1462
    1AU     LIG   97   9.925   4.055   6.755 -0.2996  0.3449  0.2381
    1AU       S   98   9.136   4.639   5.862 -0.2886  0.1133 -0.3006
    1AU     LIG   99   8.653   4.817   5.978 -0.4372 -0.0997  0.1617
    1AU     LIG  100   8.268   4.626   6.000  0.1112  0.2684  0.1635
    1AU    AUSL  101   9.343   4.720   5.345  0.0880 -0.0276 -0.0015
    1AU    AUSL  102   8.904   5.004   5.582 -0.0339  0.0264 -0.0109
    1AU     AUL  103   9.020   4.681   5.426 -0.0591  0.0209 -0.0466
    1AU       S  104   8.544   4.852   5.458  0.1325  0.0293 -0.1034
    1AU     LIG  105   8.229   4.540   5.427 -0.2181 -0.0058 -0.0131
    1AU     LIG  106   8.268   4.034   5.402  0.2039 -0.0737  0.1978
    1AU       S  107   9.115   4.430   5.964 -0.3341  0.2226 -0.3637
    1AU     LIG  108   8.726   4.430   5.716 -0.0651  0.0118 -0.2215
    1AU     LIG  109   8.708   4.379   5.263 -0.0033  0.0695 -0.1549
    1AU    AUSL  110   9.702   6.431   5.346  0.0180  0.0508  0.0873
    1AU    AUSL  111  10.069   6.165   5.029  0.0122  0.0465  0.0134
    1AU     AUL  112  10.044   6.489   5.221  0.0401 -0.0662  0.0018
    1AU       S  113   9.884   6.881   5.409 -0.1343 -0.0183 -0.4792
    1AU     LIG  114   9.717   7.299   5.267  0.0227  0.2006  0.2420
    1AU     LIG  115   9.850   7.730   5.317 -0.2469  0.0310  0.1134
    1AU       S  116  10.013   6.409   4.706  0.1073  0.3949  0.3438
    1AU     LIG  117  10.247   6.678   4.545  0.1473 -0.0952 -0.1143
    1AU     LIG  118  10.541   6.914   4.751 -0.1740 -0.1665 -0.2667
    1AU    AUSL  119   9.866   6.456   5.737 -0.0122  0.0729  0.0410
    1AU    AUSL  120   9.478   6.275   5.673  0.0481 -0.0056  0.0448
    1AU     AUL  121   9.534   6.622   5.566 -0.0587  0.0312 -0.0485
    1AU       S  122   9.438   6.690   5.996  0.0049 -0.0661  0.0079
    1AU     LIG  123   9.553   7.092   5.850 -0.2154  0.0661 -0.1567
    1AU     LIG  124   9.385   7.509   5.787  0.1894  0.1678 -0.2883
    1AU       S  125   9.932   6.729   5.806  0.2572 -0.4017  0.1407
    1AU     LIG  126  10.312   6.827   6.007 -0.2491  0.3364 -0.1501
    1AU     LIG  127  10.788   6.843   5.878  0.2612  0.2526  0.0698
    1AU    AUSL  128   8.794   5.308   5.317  0.1167 -0.0837  0.0589
    1AU    AUSL  129   8.977   5.406   5.705  0.0322  0.0620 -0.0522
    1AU     AUL  130   8.625   5.265   5.664  0.0109 -0.1233  0.0820
    1AU       S  131   8.452   5.244   5.246 -0.0616 -0.0444 -0.1731
    1AU     LIG  132   8.186   5.652   4.957  0.3410  0.2829  0.1849
    1AU     LIG  133   7.955   5.780   4.565 -0.1126  0.1151 -0.2774
    1AU       S  134   8.323   5.711   5.522  0.1266 -0.0812  0.0566
    1AU     LIG  135   8.223   5.348   5.850  0.5374 -0.4128  0.1536
    1AU     LIG  136   8.007   5.017   6.149  0.3883  0.1717  0.2289
    1AU    AUSL  137   9.198   5.104   5.265  0.0553 -0.0202 -0.0614
    1AU    AUSL  138   9.046   5.449   5.025 -0.0100  0.0075  0.0535
    1AU     AUL  139   8.865   4.999   5.110  0.0828  0.0597  0.0563
    1AU       S  140   8.797   5.377   4.844  0.0853 -0.4485 -0.0557
    1AU     LIG  141   8.414   5.203   4.784 -0.0976  0.1054  0.3415
    1AU     LIG  142   8.075   4.907   4.632 -0.2312 -0.1093  0.2696
    1AU       S  143   8.329   5.052   5.271  0.0627 -0.3831 -0.1710
    1AU     LIG  144   8.032   4.962   5.615 -0.0240  0.0689 -0.2255
    1AU     LIG  145   7.624   4.942   5.830  0.1221 -0.0356 -0.1491
    1AU    AUSL  146  10.389   5.085   5.326 -0.0843  0.0545  0.0042
    1AU    AUSL  147  10.019   4.804   5.576 -0.0603 -0.0190 -0.0782
    1AU     AUL  148  10.350   4.732   5.294 -0.0096  0.0945 -0.0545
    1AU       S  149  10.085   4.504   5.615 -0.0480 -0.3142 -0.1616
    1AU     LIG  150  10.614   4.474   5.596 -0.0344  0.1050 -0.0288
    1AU     LIG  151  11.055   4.382   5.659  0.1546  0.3371  0.0979
    1AU       S  152  10.866   5.202   5.773  0.2755  0.0883  0.0284
    1AU     LIG  153  11.312   4.910   5.693  0.2429 -0.0227 -0.3996
    1AU     LIG  154  11.421   4.599   5.850  0.4707 -0.0865  0.1543
    1AU    AUSL  155  10.381   4.926   5.734  0.0840 -0.0259  0.0159
    1AU    AUSL  156  10.371   5.204   6.106 -0.0437 -0.0550  0.0248
    1AU     AUL  157  10.591   4.889   6.047  0.0559  0.1014  0.0507
    1AU       S  158  10.777   5.003   5.614  0.2526  0.2824 -0.0883
    1AU     LIG  159  11.099   5.230   5.192 -0.0108  0.1109 -0.1625
    1AU     LIG  160  11.119   5.559   4.951  0.0078  0.2602  0.1629
    1AU       S  161  10.366   4.981   6.457  0.1292  0.0834 -0.4460
    1AU     LIG  162  10.821   5.110   6.418 -0.1172 -0.5172  0.0121
    1AU     LIG  163  11.166   5.058   6.184 -0.0195 -0.0548  0.1163
    1AU    AUSL  164  10.370   5.346   5.714  0.0642  0.0388  0.0304
    1AU    AUSL  165  10.292   5.496   5.306  0.0440 -0.0822  0.0198
    1AU     AUL  166  10.623   5.360   5.382 -0.0385 -0.0052  0.1060
    1AU       S  167  10.854   5.974   5.194 -0.5252 -0.1048 -0.1360
    1AU     LIG  168  10.818   5.873   4.737  0.0982  0.2148  0.0192
    1AU     LIG  169  11.166   5.770   4.402  0.3782  0.0211 -0.2053
    1AU       S  170  10.728   5.268   5.820  0.3505 -0.0648  0.0582
    1AU     LIG  171  10.770   5.517   6.161 -0.0106 -0.3048 -0.4307
    1AU     LIG  172  10.763   5.597   6.608 -0.0267 -0.0927  0.1323
    1AU    AUSL  173   9.425   5.859   4.851 -0.0809 -0.0483  0.0034
    1AU    AUSL  174   9.634   6.250   4.979 -0.0505 -0.0419  0.0139
    1AU     AUL  175   9.370   6.214   4.670 -0.0231  0.0435 -0.0925
    1AU       S  176   9.776   6.538   4.837  0.1573  0.1535  0.2271
    1AU     LIG  177  10.055   6.952   4.894 -0.3323 -0.1848 -0.1495
    1AU     LIG  178  10.224   7.373   5.075 -0.1450 -0.2866 -0.0284
    1AU       S  179   9.518   5.841   4.420 -0.3366  0.1267 -0.1030
    1AU     LIG  180   9.381   6.106   4.037  0.1026 -0.1508 -0.0577
    1AU     LIG  181   8.929   6.251   3.849 -0.0918 -0.0154 -0.0062
    1AU    AUSL  182   9.010   5.857   5.017 -0.0175  0.0828 -0.0009
    1AU    AUSL  183   9.323   5.495   4.672  0.0110 -0.0315 -0.0423
    1AU     AUL  184   9.083   5.758   4.728 -0.0163 -0.0430 -0.0481
    1AU       S  185   8.654   5.819   4.964 -0.2247  0.1103 -0.1524
    1AU     LIG  186   8.568   5.790   4.630  0.2383 -0.4951 -0.2710
    1AU     LIG  187   8.346   5.992   4.253  0.4319 -0.5318  0.3744
    1AU       S  188   9.184   5.432   4.415  0.0940  0.2079 -0.2229
    1AU     LIG  189   8.696   5.313   4.335  0.0793  0.3880  0.0845
    1AU     LIG  190   8.346   5.090   4.241  0.2612  0.1953 -0.0815
    1AU    AUSL  191   9.314   6.102   5.188 -0.0138  0.0381 -0.1142
    1AU    AUSL  192   8.878   6.112   5.318 -0.0150 -0.0396 -0.0020
    1AU     AUL  193   9.006   6.218   5.014 -0.0297 -0.0248  0.0633
    1AU       S  194   8.675   6.526   5.216  0.1992  0.5104 -0.0287
    1AU     LIG  195   8.871   6.793   4.863 -0.1476 -0.1739  0.2082
    1AU     LIG  196   8.817   7.240   4.797 -0.1552 -0.1321 -0.1629
    1AU       S  197   9.290   6.572   5.029  0.1408 -0.3170  0.2035
    1AU     LIG  198   9.382   6.920   5.157  0.0146 -0.2121 -0.1064
    1AU     LIG  199   9.218   7.402   5.112  0.2660  0.0327 -0.0240
    1AU    AUSL  200   9.975   5.208   6.278  0.0963  0.0286  0.0107
    1AU    AUSL  201  10.150   5.574   6.071 -0.0495 -0.0606 -0.0374
    1AU     AUL  202  10.353   5.430   6.329  0.0604  0.0408  0.0114
    1AU       S  203  10.113   5.094   6.543 -0.4842  0.0193 -0.2677
    1AU     LIG  204  10.405   5.329   6.802 -0.0866  0.0501 -0.1080
    1AU     LIG  205  10.822   5.246   7.070  0.3336 -0.1315 -0.0899
    1AU       S  206  10.081   5.690   6.923 -0.1149  0.0591  0.0138
    1AU     LIG  207   9.638   5.766   6.907  0.1056  0.0129  0.1188
    1AU     LIG  208   9.271   6.052   6.912 -0.2174  0.1802 -0.0616
    1AU    AUSL  209  10.071   4.868   6.029 -0.0838  0.0737 -0.0410
    1AU    AUSL  210   9.585   5.153   6.412 -0.0960 -0.0926  0.0276
    1AU     AUL  211   9.812   4.840   6.303  0.0839 -0.0598  0.0037
    1AU       S  212  10.270   4.778   6.352 -0.2334 -0.3047 -0.2868
    1AU     LIG  213  10.019   4.411   6.198 -0.3678 -0.0651 -0.0024
    1AU     LIG  214   9.991   3.967   6.259  0.0412 -0.1018  0.2559
    1AU       S  215   9.508   4.927   6.647 -0.1315 -0.0831 -0.0152
    1AU     LIG  216   9.337   5.256   6.919 -0.0974 -0.3332  0.1890
    1AU     LIG  217   9.113   5.597   7.172  0.0639  0.2679 -0.3307
    1AU    AUSL  218   9.059   6.062   5.706 -0.1457  0.0400  0.0000
    1AU    AUSL  219   8.803   5.708   5.455  0.0245  0.0218 -0.0214
    1AU     AUL  220   8.723   6.138   5.573  0.0861 -0.0271  0.0115
    1AU       S  221   8.517   5.703   5.463  0.2905  0.3457  0.2354
    1AU     LIG  222   8.309   6.086   5.254 -0.2082  0.5015 -0.2010
    1AU     LIG  223   8.209   6.452   5.297 -0.0052 -0.3038 -0.0749
    1AU       S  224   8.725   6.609   5.432 -0.0742  0.1322  0.1366
    1AU     LIG  225   8.449   6.592   5.803  0.1298 -0.1711  0.2229
    1AU     LIG  226   8.196   6.969   6.031 -0.1793 -0.0277 -0.2368
    1AU    AUSL  227   9.153   6.407   5.442 -0.0204 -0.0341 -0.0766
    1AU    AUSL  228   9.225   6.294   6.028  0.0084  0.0263  0.0658
    1AU     AUL  229   9.057   6.420   5.742  0.0324 -0.0035 -0.0228
    1AU       S  230   9.203   6.596   6.175  0.0920 -0.2467 -0.3643
    1AU     LIG  231   8.803   6.690   6.128 -0.2406  0.0662 -0.0309
    1AU     LIG  232   8.594   6.751   6.536  0.2257  0.0815 -0.0279
    1AU       S  233   8.913   6.614   5.329  0.1392 -0.0290 -0.3090
    1AU     LIG  234   9.036   6.886   5.644 -0.1732  0.1952  0.3287
    1AU     LIG  235   8.991   7.184   6.056  0.2853 -0.1033 -0.2199
    1AU    AUSL  236  10.168   5.743   4.917 -0.0051 -0.0096  0.0156
    1AU    AUSL  237   9.828   5.937   4.759  0.0503 -0.0264  0.0167
    1AU     AUL  238  10.246   6.021   4.798 -0.0648  0.0201 -0.0088
    1AU       S  239   9.840   6.176   4.531 -0.3611 -0.0964 -0.0385
    1AU     LIG  240  10.087   6.381   4.128 -0.1763  0.0751 -0.4191
    1AU     LIG  241  10.264   6.622   3.798  0.1924  0.1026  0.0343
    1AU       S  242  10.333   5.635   4.573 -0.0663 -0.2735  0.2214
    1AU     LIG  243  10.058   5.844   4.254  0.1045 -0.0156  0.3684
    1AU     LIG  244   9.904   5.967   3.872  0.0028  0.1268  0.0439
    1AU    AUSL  245   9.898   5.524   4.661  0.0231 -0.1136  0.0192
    1AU    AUSL  246   9.915   5.060   4.814  0.0346 -0.0179 -0.0310
    1AU     AUL  247   9.944   5.180   4.471  0.0142 -0.0292 -0.0213
    1AU       S  248  10.391   5.441   4.479 -0.0435  0.0130 -0.2853
    1AU     LIG  249  10.809   5.409   4.474  0.1132 -0.1259  0.3268
    1AU     LIG  250  11.056   5.161   4.586  0.0503 -0.0836  0.1959
    1AU       S  251   9.747   4.723   4.593  0.3219 -0.2368  0.1173
    1AU     LIG  252   9.782   4.727   4.150  0.1926  0.4508  0.0022
    1AU     LIG  253   9.619   4.758   3.686  0.1233 -0.0924  0.5660
    1AU    AUSL  254  10.240   5.325   4.928  0.0581  0.1061 -0.0834
    1AU    AUSL  255  10.390   5.904   5.223 -0.0313 -0.0285 -0.0249
    1AU     AUL  256  10.531   5.596   5.017 -0.0602 -0.0398  0.0319
    1AU       S  257  10.641   6.046   5.136  0.3052  0.3167 -0.1186
    1AU     LIG  258  10.486   6.451   5.047  0.2446  0.0755  0.1196
    1AU     LIG  259  10.396   6.849   5.220  0.0704  0.0467 -0.3195
    1AU       S  260  10.373   5.261   4.712 -0.2459 -0.0466  0.1972
    1AU     LIG  261  10.653   5.037   4.920 -0.3787  0.0626  0.1080
    1AU     LIG  262  11.003   4.747   5.235 -0.3568 -0.1560  0.0484
    1AU    AUSL  263   9.689   5.921   6.201  0.0371  0.0862  0.0213
    1AU    AUSL  264   9.861   5.589   6.423 -0.0043  0.0255  0.0939
    1AU     AUL  265   9.836   5.990   6.503  0.0178 -0.0390 -0.0020
    1AU       S  266   8.707   6.067   6.298  0.2646  0.1020  0.2652
    1AU     LIG  267   8.340   6.009   6.595 -0.0629  0.2299  0.1565
    1AU     LIG  268   7.955   6.038   6.784  0.1029 -0.0416  0.4292
    1AU       S  269   9.980   5.561   6.603  0.3188 -0.5572 -0.1699
    1AU     LIG  270   9.826   5.294   6.935 -0.0648  0.1568  0.1697
    1AU     LIG  271   9.655   4.817   7.081 -0.3246  0.2411 -0.0345
    1AU    AUSL  272   9.264   5.901   6.152 -0.0744  0.0079 -0.0621
    1AU    AUSL  273   9.662   6.299   6.076 -0.0716  0.0430  0.0669
    1AU     AUL  274   9.452   6.178   6.360 -0.0611  0.0122  0.0306
    1AU       S  275   8.914   6.090   6.284  0.0525 -0.1004 -0.1087
    1AU     LIG  276   9.064   6.437   6.571  0.0198 -0.5101 -0.1762
    1AU     LIG  277   9.339   6.739   6.738 -0.1431  0.3470  0.1292
    1AU       S  278   9.464   6.668   6.264  0.2992 -0.5018 -0.2222
    1AU     LIG  279   9.405   7.073   6.358 -0.0267 -0.2398  0.0210
    1AU     LIG  280   9.573   7.432   6.253  0.4107  0.1119  0.1703
    1AU    AUSL  281   9.457   5.628   6.464  0.0332  0.0248 -0.0312
    1AU    AUSL  282   8.988   5.608   6.232 -0.0344  0.0087 -0.0560
    1AU     AUL  283   9.198   5.759   6.499  0.0549 -0.0432 -0.0065
    1AU       S  284   8.752   5.590   6.480  0.0013  0.2003 -0.1274
    1AU     LIG  285   8.305   5.661   6.247 -0.1159 -0.3234  0.1973
    1AU     LIG  286   7.950   5.884   6.324  0.1145  0.0113  0.0391
    1AU       S  287   8.701   6.242   6.100  0.1221 -0.1439 -0.1064
    1AU     LIG  288   8.262   6.519   6.266 -0.0701 -0.2392  0.0427
    1AU     LIG  289   7.841   6.425   6.440 -0.0864 -0.1030  0.3390
    1AU    AUSL  290   9.566   4.926   5.004  0.0821 -0.0953 -0.0236
    1AU    AUSL  291   9.977   5.028   5.227 -0.0494  0.0484 -0.0302
    1AU     AUL  292   9.968   4.732   5.005  0.0493 -0.0032 -0.0312
    1AU       S  293   9.511   4.697   4.853 -0.4602 -0.1382 -0.0163
    1AU     LIG  294   9.302   4.352   5.013 -0.1103 -0.0423  0.0268
    1AU     LIG  295   9.094   4.080   4.877 -0.1967  0.2948  0.0051
    1AU       S  296  10.116   4.311   5.734 -0.1388  0.1190  0.0633
    1AU     LIG  297   9.906   3.986   5.739 -0.4136  0.2107 -0.2795
    1AU     LIG  298   9.621   3.500   5.562  0.2051 -0.3149 -0.3596
    1AU    AUSL  299   9.609   5.356   4.919 -0.0096 -0.0887 -0.0435
    1AU    AUSL  300   9.229   5.100   4.850  0.0036  0.0682  0.0335
    1AU     AUL  301   9.488   5.151   4.614  0.0068  0.0597  0.0626
    1AU       S  302   9.654   4.514   4.725 -0.0594 -0.1213  0.1369
    1AU     LIG  303   9.812   4.268   4.959 -0.2287  0.0335 -0.2864
    1AU     LIG  304   9.620   3.913   5.231 -0.1241  0.2276 -0.2204
    1AU       S  305   8.997   5.116   4.667  0.1746 -0.0040  0.2887
    1AU     LIG  306   8.973   4.681   4.746  0.2389  0.0161 -0.5459
    1AU     LIG  307   8.624   4.266   4.724 -0.4407 -0.3531 -0.0924
    1AU    AUSL  308   8.974   5.191   6.058  0.0745 -0.0353 -0.0525
    1AU    AUSL  309   8.811   5.773   5.884  0.0240 -0.0246 -0.0722
    1AU     AUL  310   8.721   5.397   6.061  0.0400  0.0470  0.0527
    1AU       S  311   8.506   5.757   5.820  0.0100  0.1301 -0.3270
    1AU     LIG  312   8.222   6.034   5.935  0.1837 -0.0705  0.1196
    1AU     LIG  313   7.976   6.394   5.793  0.1691 -0.0859  0.2161
    1AU       S  314   8.878   5.449   6.757 -0.1209 -0.0931  0.3138
    1AU     LIG  315   8.936   4.911   6.799 -0.0191  0.0225 -0.3541
    1AU     LIG  316   9.073   4.574   7.049  0.0931  0.0155 -0.0234
    1AU    AUSL  317   9.364   5.399   6.147  0.0352 -0.0276 -0.0285
    1AU    AUSL  318   9.293   4.932   6.183 -0.0454  0.0021  0.0354
    1AU     AUL  319   9.188   5.208   6.407  0.0363  0.0226  0.0709
    1AU       S  320   8.608   5.566   6.748 -0.2049  0.3595  0.0316
    1AU     LIG  321   8.166   5.541   6.961  0.1829 -0.0444  0.4886
    1AU     LIG  322   7.928   5.252   6.676  0.1271  0.0933  0.5302
    1AU       S  323   9.321   4.749   6.347  0.2459  0.2960  0.1580
    1AU     LIG  324   8.939   4.629   6.342  0.1846 -0.4499  0.2403
    1AU     LIG  325   8.609   4.344   6.243  0.1658 -0.2207 -0.3695
    2POPC   NC3  326  10.280   8.146   7.862  0.0514  0.0117  0.2210
    2POPC   PO4  327  10.100   8.452   7.503 -0.4765  0.2612 -0.4845
    2POPC   GL1  328  10.178   8.359   7.029  0.0154 -0.2069 -0.0988
    2POPC   GL2  329  10.433   8.532   6.960 -0.0068 -0.0120 -0.2237
    2POPC   C1A  330  10.188   8.059   6.721 -0.0825  0.1069 -0.2973
    2POPC   D2A  331  10.373   7.943   6.324  0.1992 -0.0024  0.5241
    2POPC   C3A  332  10.540   8.112   6.039  0.0353  0.0665  0.0700
    2POPC   C4A  333  10.915   8.203   5.858 -0.0679 -0.4068 -0.1623
    2POPC   C1B  334  10.541   8.554   6.531 -0.2924  0.0200  0.4194
    2POPC   C2B  335  10.789   8.617   6.131 -0.1925  0.0980 -0.0965
    2POPC   C3B  336  10.869   8.724   5.679 -0.0275  0.0778 -0.0218
    2POPC   C4B  337  10.680   8.644   5.229 -0.0086  0.0346 -0.2782
    3POPC   NC3  338   5.197   3.395   7.230  0.0602 -0.1563 -0.1080
    3POPC   PO4  339   4.816   3.473   7.446  0.2357  0.2684 -0.1269
    3POPC   GL1  340   4.723   3.500   6.999 -0.3644 -0.1638  0.1024
    3POPC   GL2  341   4.938   3.553   6.799  0.0449 -0.0069 -0.0217
    3POPC   C1A  342   4.525   3.648   6.633  0.3766  0.0295  0.1407
    3POPC   D2A  343   4.320   3.745   6.331 -0.0786  0.0351  0.3092
    3POPC   C3A  344   4.480   4.074   6.207 -0.0337 -0.1996 -0.4160
    3POPC   C4A  345   4.718   4.380   6.089 -0.0877 -0.1819  0.0515
    3POPC   C1B  346   4.974   3.572   6.444  0.2984 -0.1879  0.2390
    3POPC   C2B  347   4.870   3.730   6.194 -0.0824 -0.1931  0.1298
    3POPC   C3B  348   4.855   4.006   5.788  0.1291 -0.0153  0.0975
    3POPC   C4B  349   4.832   4.389   5.579  0.1253 -0.0675  0.0261
    4POPC   NC3  350   9.827   4.372   8.333  0.0617 -0.3283  0.4675
    4POPC   PO4  351  10.252   4.589   8.110 -0.2246  0.1214 -0.0590
    4POPC   GL1  352  10.195   4.781   7.679 -0.1613 -0.0087 -0.1928
    4POPC   GL2  353  10.406   5.031   7.581  0.2630  0.0168  0.2531
    4POPC   C1A  354  10.432   4.652   7.297 -0.1644 -0.0496 -0.0706
    4POPC   D2A  355  10.509   4.780   6.902  0.0850  0.3013  0.2518
    4POPC   C3A  356  10.740   4.681   6.562 -0.2096  0.1188  0.0379
    4POPC   C4A  357  10.960   4.498   6.157 -0.0739  0.0336  0.4896
    4POPC   C1B  358  10.356   5.448   7.294  0.0353  0.0124 -0.1188
    4POPC   C2B  359  10.481   5.878   7.180 -0.2021 -0.0701 -0.0922
    4POPC   C3B  360  10.477   6.253   7.139  0.1224 -0.1944  0.2569
    4POPC   C4B  361  10.186   6.509   7.255 -0.0864 -0.0038  0.1451
    5POPC   NC3  362   9.662   9.694   7.791  0.1146 -0.0451  0.3601
    5POPC   PO4  363   9.916   9.332   7.560 -0.2695  0.0197 -0.2371
    5POPC   GL1  364   9.753   9.161   7.187 -0.0146  0.0269  0.0734
    5POPC   GL2  365   9.381   8.968   7.228 -0.0893 -0.0745 -0.0387
    5POPC   C1A  366   9.931   9.331   6.792  0.1293 -0.0750 -0.1136
    5POPC   D2A  367   9.973   9.291   6.330  0.0544 -0.0577  0.0474
    5POPC   C3A  368   9.788   8.993   6.146 -0.0007  0.3481  0.0699
    5POPC   C4A  369   9.676   8.864   5.814  0.0159 -0.2991  0.0708
    5POPC   C1B  370   9.496   8.928   6.819  0.1952 -0.2358  0.1187
    5POPC   C2B  371   9.506   8.730   6.522  0.1534  0.2329 -0.0424
    5POPC   C3B  372   9.056   8.587   6.290  0.1061 -0.1142 -0.2582
    5POPC   C4B  373   8.981   8.209   6.151  0.3436 -0.0231 -0.1251
    6POPC   NC3  374   8.127   5.625   9.086 -0.0943 -0.3912 -0.2271
    6POPC   PO4  375   7.956   5.368   8.704  0.1462  0.2067 -0.0762
    6POPC   GL1  376   7.928   5.670   8.367 -0.5147 -0.1648  0.2133
    6POPC   GL2  377   7.684   5.658   8.095 -0.1305  0.1569 -0.0459
    6POPC   C1A  378   8.188   5.861   8.136  0.0792 -0.5233 -0.1068
    6POPC   D2A  379   8.271   6.050   7.749  0.2223  0.1723  0.2572
    6POPC   C3A  380   8.087   6.555   7.674  0.4114 -0.0978  0.1256
    6POPC   C4A  381   8.181   6.959   7.591  0.0979  0.2667  0.2949
    6POPC   C1B  382   7.739   5.712   7.593  0.1484  0.3049  0.0784
    6POPC   C2B  383   7.772   5.592   7.234  0.0568 -0.0482  0.0618
    6POPC   C3B  384   7.660   5.517   6.931  0.1880 -0.1865 -0.0431
    6POPC   C4B  385   7.338   5.463   6.604 -0.0067 -0.1064  0.1953
    7POPC   NC3  386   6.158   4.592   7.849 -0.0625 -0.1565 -0.3779
    7POPC   PO4  387   5.938   4.526   7.394 -0.0104 -0.2342 -0.2751
    7POPC   GL1  388   5.822   4.520   6.994 -0.2382  0.1898 -0.2192
    7POPC   GL2  389   5.467   4.415   6.943  0.5218 -0.1224  0.1829
    7POPC   C1A  390   5.810   4.723   6.551  0.0912 -0.0572  0.0595
    7POPC   D2A  391   6.069   4.790   6.229 -0.1570  0.1410 -0.0224
    7POPC   C3A  392   6.341   5.108   6.095 -0.3142 -0.0721  0.0195
    7POPC   C4A  393   6.804   5.034   5.947  0.4433  0.0469  0.2996
    7POPC   C1B  394   5.557   4.232   6.558 -0.2161 -0.1212  0.0611
    7POPC   C2B  395   5.710   4.367   6.204  0.0832  0.2192  0.4023
    7POPC   C3B  396   5.776   4.459   5.778  0.3330 -0.1416 -0.1234
    7POPC   C4B  397   5.833   4.474   5.353  0.0034  0.2420  0.2831
    8POPC   NC3  398   8.149   9.873   7.612 -0.1694 -0.3807 -0.1764
    8POPC   PO4  399   8.528   9.749   7.778  0.2101  0.2194  0.1310
    8POPC   GL1  400   8.744   9.583   7.316  0.2520 -0.1367 -0.0358
    8POPC   GL2  401   8.948   9.750   7.188 -0.3151 -0.2199  0.1845
    8POPC   C1A  402   8.575   9.465   6.940  0.0977  0.4564  0.0861
    8POPC   D2A  403   8.524   9.622   6.536  0.1306  0.2733 -0.3753
    8POPC   C3A  404   8.371   9.515   6.082 -0.0415  0.0519  0.2099
    8POPC   C4A  405   8.459   9.624   5.616  0.3181 -0.1340 -0.1812
    8POPC   C1B  406   8.905   9.857   6.777  0.3382  0.0347 -0.1064
    8POPC   C2B  407   8.746  10.166   6.406 -0.1044 -0.1988  0.1877
    8POPC   C3B  408   8.512  10.485   6.114 -0.0711 -0.2512  0.1772
    8POPC   C4B  409   8.056  10.517   5.993  0.0078 -0.1455  0.2474
    9POPC   NC3  410   9.104   1.709   7.689 -0.2821  0.0255  0.0258
    9POPC   PO4  411   9.440   1.995   7.465 -0.0473  0.1362  0.3290
    9POPC   GL1  412   9.325   1.686   7.170 -0.1676 -0.1858 -0.2989
    9POPC   GL2  413   9.660   1.658   7.059 -0.6025 -0.0850 -0.2079
    9POPC   C1A  414   9.221   1.672   6.689 -0.0650 -0.3467 -0.0390
    9POPC   D2A  415   9.062   1.581   6.344  0.2681 -0.0148  0.0242
    9POPC   C3A  416   9.279   1.180   6.136 -0.0079 -0.2441  0.1466
    9POPC   C4A  417   9.263   0.734   5.925  0.2126  0.1182  0.2435
    9POPC   C1B  418   9.898   1.844   6.917 -0.0464  0.0224 -0.2222
    9POPC   C2B  419  10.188   2.116   6.633  0.1395  0.3132  0.2757
    9POPC   C3B  420  10.261   2.306   6.241  0.1716 -0.1513  0.4539
    9POPC   C4B  421  10.166   2.732   6.232  0.3611  0.0176  0.3753
   10POPC   NC3  422   7.589   6.062   8.456  0.2154  0.0731  0.1568
   10POPC   PO4  423   7.256   6.040   8.181 -0.1554  0.4030 -0.5873
   10POPC   GL1  424   7.441   6.016   7.835  0.2462 -0.0550 -0.0226
   10POPC   GL2  425   7.774   6.137   7.926  0.0232 -0.4426 -0.3576
   10POPC   C1A  426   7.290   6.127   7.368 -0.4520 -0.4918  0.0327
   10POPC   D2A  427   7.523   5.994   7.035  0.1295  0.0061  0.0129
   10POPC   C3A  428   7.482   5.968   6.625 -0.0595 -0.0857 -0.1923
   10POPC   C4A  429   7.488   6.151   6.184 -0.2764  0.0187 -0.2521
   10POPC   C1B  430   7.843   6.155   7.444  0.1086 -0.0629 -0.1387
   10POPC   C2B  431   8.102   5.933   7.269 -0.2498 -0.0126  0.4224
   10POPC   C3B  432   8.464   5.967   7.062 -0.0362 -0.0288 -0.1913
   10POPC   C4B  433   8.813   6.041   6.783 -0.0078 -0.3768  0.0940
   11POPC   NC3  434   2.947   3.776   7.876 -0.0242  0.0632 -0.4054
   11POPC   PO4  435   2.700   3.877   7.520  0.5040 -0.2845  0.2432
   11POPC   GL1  436   2.768   4.141   7.281 -0.1976  0.0693  0.3464
   11POPC   GL2  437   3.112   4.309   7.245  0.1652  0.0030 -0.1070
   11POPC   C1A  438   2.598   4.319   6.953 -0.0568  0.0033 -0.3030
   11POPC   D2A  439   2.753   4.626   6.739 -0.3709 -0.0342 -0.1815
   11POPC   C3A  440   2.446   4.675   6.365  0.0472 -0.1763  0.0638
   11POPC   C4A  441   2.080   4.872   6.187 -0.1740 -0.1286  0.2242
   11POPC   C1B  442   3.265   4.033   6.958 -0.2601 -0.2853  0.1747
   11POPC   C2B  443   3.592   4.046   6.638  0.0546 -0.0163 -0.1948
   11POPC   C3B  444   3.674   3.833   6.268  0.2317 -0.0882 -0.0930
   11POPC   C4B  445   3.888   3.784   5.966  0.2380 -0.0787 -0.0412
   12POPC   NC3  446   8.420   9.219   7.962 -0.0026  0.2793  0.2354
   12POPC   PO4  447   8.671   9.186   7.558  0.2604  0.1571  0.1589
   12POPC   GL1  448   8.731   9.011   7.189 -0.0702 -0.0997 -0.1785
   12POPC   GL2  449   8.929   9.188   7.050  0.3509 -0.2679  0.2312
   12POPC   C1A  450   8.984   8.721   6.814 -0.1152 -0.2213  0.1300
   12POPC   D2A  451   9.313   8.409   6.899  0.0138  0.0082 -0.0400
   12POPC   C3A  452   9.342   8.260   6.603 -0.1956  0.0860  0.2194
   12POPC   C4A  453   9.511   8.313   6.148  0.0893 -0.0575  0.2325
   12POPC   C1B  454   9.009   9.240   6.713 -0.0858 -0.1790 -0.2167
   12POPC   C2B  455   9.156   9.045   6.378  0.0141 -0.1651  0.1720
   12POPC   C3B  456   9.261   9.221   5.990  0.1789  0.1085  0.0853
   12POPC   C4B  457   9.190   9.094   5.619  0.3109  0.2594  0.0634
   13POPC   NC3  458   9.920  10.638   7.872 -0.0941 -0.0234 -0.0534
   13POPC   PO4  459  10.230  10.313   7.695  0.1635  0.1542 -0.4834
   13POPC   GL1  460  10.081  10.308   7.248 -0.0889  0.0983  0.0459
   13POPC   GL2  461  10.351  10.093   7.035 -0.0471  0.1179  0.0884
   13POPC   C1A  462  10.142  10.518   6.953  0.0967  0.0078  0.2425
   13POPC   D2A  463   9.973  10.716   6.576  0.0672 -0.2645 -0.1595
   13POPC   C3A  464   9.848  10.600   6.206  0.1640  0.0126  0.1473
   13POPC   C4A  465  10.029  10.751   5.753 -0.0540 -0.1439 -0.0705
   13POPC   C1B  466  10.549  10.316   6.722  0.3242 -0.1115 -0.0029
   13POPC   C2B  467  10.752  10.306   6.351 -0.0589 -0.1609 -0.0978
   13POPC   C3B  468  10.555  10.204   5.985 -0.0598  0.1474  0.0791
   13POPC   C4B  469  10.044  10.243   5.906 -0.2787 -0.2813  0.2926
   14POPC   NC3  470   9.031   3.598   7.888 -0.1383  0.1186 -0.1598
   14POPC   PO4  471   9.058   3.240   7.637 -0.1018 -0.0557 -0.0343
   14POPC   GL1  472   9.087   3.119   7.103 -0.4427 -0.0657 -0.2461
   14POPC   GL2  473   8.994   2.892   7.025 -0.1081  0.2175  0.1630
   14POPC   C1A  474   9.296   3.203   6.701 -0.1505 -0.1055 -0.2333
   14POPC   D2A  475   9.442   3.312   6.370  0.0389 -0.0879  0.0049
   14POPC   C3A  476   9.604   3.693   6.163  0.0189 -0.3214  0.0180
   14POPC   C4A  477   9.487   4.176   6.179 -0.2371  0.0187 -0.3070
   14POPC   C1B  478   8.851   3.302   6.731  0.5688 -0.2054 -0.0928
   14POPC   C2B  479   8.617   3.486   6.508  0.3590 -0.2079 -0.2135
   14POPC   C3B  480   8.464   3.818   6.161  0.1055 -0.0981  0.1501
   14POPC   C4B  481   8.334   4.128   5.885  0.0552 -0.2244 -0.1448
   15POPC   NC3  482   1.135   9.692   8.160 -0.2686 -0.0145 -0.1291
   15POPC   PO4  483   1.368   9.903   7.828 -0.0614 -0.2561 -0.2079
   15POPC   GL1  484   1.535   9.930   7.353  0.1233 -0.0661 -0.1783
   15POPC   GL2  485   1.479   9.576   7.415 -0.0500 -0.1264 -0.1135
   15POPC   C1A  486   1.693   9.876   6.861  0.0292  0.2471 -0.2964
   15POPC   D2A  487   1.622   9.915   6.459 -0.1415 -0.1350 -0.1844
   15POPC   C3A  488   1.381  10.110   6.191  0.0172 -0.2882  0.1133
   15POPC   C4A  489   1.254  10.232   5.757 -0.0068 -0.0508  0.1826
   15POPC   C1B  490   1.213   9.669   6.967 -0.0667  0.4067  0.0245
   15POPC   C2B  491   0.864   9.498   6.536 -0.2120  0.2686 -0.2380
   15POPC   C3B  492   0.491   9.475   6.329  0.2800 -0.1978  0.2968
   15POPC   C4B  493   0.122   9.733   6.204 -0.3269 -0.0004  0.0069
   16POPC   NC3  494   5.947   6.662   7.568  0.0257  0.2653 -0.3543
   16POPC   PO4  495   5.690   6.388   7.714 -0.2534 -0.2723  0.0213
   16POPC   GL1  496   5.609   6.316   7.313 -0.0218 -0.0895 -0.1580
   16POPC   GL2  497   5.365   6.172   7.344  0.0595 -0.2085  0.0296
   16POPC   C1A  498   5.477   6.228   6.762  0.0145 -0.1401  0.1670
   16POPC   D2A  499   5.398   6.139   6.344  0.1542 -0.4382 -0.0387
   16POPC   C3A  500   5.635   5.892   6.035  0.0054 -0.3781  0.0286
   16POPC   C4A  501   5.592   5.421   5.917  0.2628 -0.1851 -0.0754
   16POPC   C1B  502   5.232   6.588   7.065  0.1276  0.0777 -0.1538
   16POPC   C2B  503   4.866   6.508   6.982  0.0998  0.2748  0.3413
   16POPC   C3B  504   4.587   6.223   6.883  0.2696  0.0940 -0.0458
   16POPC   C4B  505   4.333   5.838   6.817  0.0249  0.1275 -0.0662
   17POPC   NC3  506   1.217   7.995   7.714  0.2527 -0.0520  0.0837
   17POPC   PO4  507   1.578   8.120   7.802  0.3009  0.0510  0.1612
   17POPC   GL1  508   1.367   8.474   7.512  0.0693  0.1494 -0.0819
   17POPC   GL2  509   1.637   8.596   7.396  0.1161 -0.4024  0.2946
   17POPC   C1A  510   1.093   8.625   7.084 -0.1581  0.1217 -0.0122
   17POPC   D2A  511   1.022   8.613   6.602 -0.1600 -0.4053  0.1789
   17POPC   C3A  512   1.117   8.345   6.199 -0.2369 -0.1398  0.1979
   17POPC   C4A  513   1.391   8.036   5.901 -0.0979 -0.3503  0.0338
   17POPC   C1B  514   1.775   8.815   7.013  0.2546 -0.4562  0.0158
   17POPC   C2B  515   1.732   8.995   6.596  0.1043  0.1747  0.0738
   17POPC   C3B  516   1.702   9.289   6.211 -0.2069 -0.1210  0.2329
   17POPC   C4B  517   1.721   9.721   5.912  0.0315  0.2256 -0.1506
   18POPC   NC3  518   6.711   5.359   8.082 -0.1346  0.0233  0.1019
   18POPC   PO4  519   7.039   5.234   8.299  0.1658  0.0296  0.0395
   18POPC   GL1  520   7.205   5.423   8.027 -0.0975 -0.0025  0.2315
   18POPC   GL2  521   6.950   5.748   7.913 -0.0932 -0.0494  0.0084
   18POPC   C1A  522   7.233   5.483   7.634 -0.2052  0.0668 -0.0434
   18POPC   D2A  523   7.246   5.589   7.243 -0.2634 -0.0637  0.1802
   18POPC   C3A  524   6.971   5.431   6.939 -0.0726  0.0259  0.2987
   18POPC   C4A  525   6.796   4.963   6.907  0.0529  0.2273  0.0301
   18POPC   C1B  526   6.935   5.864   7.523  0.1848 -0.0406 -0.2214
   18POPC   C2B  527   6.664   5.753   7.136  0.1479 -0.3203 -0.0059
   18POPC   C3B  528   6.472   6.020   6.812  0.0483 -0.2124 -0.0392
   18POPC   C4B  529   6.551   6.162   6.453 -0.1348  0.0754 -0.0840
   19POPC   NC3  530   1.952   7.781   7.628  0.2753 -0.0245  0.2656
   19POPC   PO4  531   2.330   7.495   7.713 -0.0317 -0.0498 -0.0151
   19POPC   GL1  532   2.138   7.303   7.238 -0.5216 -0.2401 -0.2686
   19POPC   GL2  533   2.162   7.555   7.059 -0.1118  0.1292  0.0551
   19POPC   C1A  534   2.435   7.112   7.082 -0.0684  0.0310 -0.1670
   19POPC   D2A  535   2.693   7.257   6.775 -0.1062 -0.3968  0.0980
   19POPC   C3A  536   2.559   7.586   6.406 -0.2134  0.1212  0.1551
   19POPC   C4A  537   2.677   7.497   5.903  0.1806  0.0412 -0.0578
   19POPC   C1B  538   2.161   7.563   6.700 -0.2446  0.0697  0.0659
   19POPC   C2B  539   1.870   7.543   6.323 -0.1233  0.1704 -0.1198
   19POPC   C3B  540   1.983   7.391   5.910  0.0831  0.2647  0.0109
   19POPC   C4B  541   1.929   7.346   5.515  0.1716  0.0643 -0.0053
   20POPC   NC3  542   7.710   4.683   8.460 -0.0351 -0.0764  0.2370
   20POPC   PO4  543   7.488   4.407   8.108  0.4221  0.3224 -0.1874
   20POPC   GL1  544   7.479   4.408   7.679 -0.1167 -0.1732 -0.1261
   20POPC   GL2  545   7.752   4.442   7.625 -0.1938  0.1226 -0.1811
   20POPC   C1A  546   7.526   4.596   7.234 -0.0489  0.0451 -0.1012
   20POPC   D2A  547   7.626   4.997   6.965 -0.0974  0.1969  0.0523
   20POPC   C3A  548   7.575   4.966   6.465  0.1382  0.1251  0.2168
   20POPC   C4A  549   7.722   5.434   6.215 -0.0570  0.0819  0.1447
   20POPC   C1B  550   8.011   4.725   7.273 -0.0560  0.2373 -0.0259
   20POPC   C2B  551   8.129   5.141   7.319  0.1879  0.0095 -0.1804
   20POPC   C3B  552   8.223   5.468   7.490 -0.1006  0.0935  0.1053
   20POPC   C4B  553   8.609   5.724   7.488  0.1897  0.2411  0.0438
   21POPC   NC3  554   9.805   3.263   7.862 -0.1183 -0.3340 -0.4114
   21POPC   PO4  555   9.979   2.922   7.714 -0.2447  0.1174  0.2121
   21POPC   GL1  556   9.950   2.841   7.278 -0.0952  0.1107  0.3011
   21POPC   GL2  557   9.677   2.787   7.050 -0.0841  0.1190  0.2715
   21POPC   C1A  558  10.178   2.919   6.988 -0.0118 -0.3034  0.0495
   21POPC   D2A  559  10.395   3.007   6.552 -0.3512  0.0971 -0.2209
   21POPC   C3A  560  10.484   3.109   6.089  0.1725  0.3470  0.2499
   21POPC   C4A  561  10.533   3.389   5.779  0.0879  0.0162  0.2190
   21POPC   C1B  562   9.793   3.078   6.695 -0.0834  0.2385  0.2130
   21POPC   C2B  563   9.937   3.136   6.327  0.1398 -0.3388  0.1726
   21POPC   C3B  564   9.829   3.026   5.919 -0.1461  0.0881 -0.0895
   21POPC   C4B  565  10.261   2.912   5.685  0.1453 -0.2339 -0.0468
   22POPC   NC3  566   8.806   8.716   7.593  0.0223 -0.0335 -0.0762
   22POPC   PO4  567   8.319   8.762   7.836 -0.1380  0.3162  0.1836
   22POPC   GL1  568   8.369   8.689   7.396  0.1021 -0.0003 -0.1599
   22POPC   GL2  569   8.183   8.631   7.289 -0.2269 -0.2540 -0.2120
   22POPC   C1A  570   8.391   8.244   7.080 -0.2216 -0.0877  0.4846
   22POPC   D2A  571   8.565   7.798   6.996 -0.0471 -0.2714  0.3015
   22POPC   C3A  572   8.668   7.513   6.738 -0.2369 -0.2198 -0.0942
   22POPC   C4A  573   8.506   7.246   6.367 -0.1542  0.1725  0.1869
   22POPC   C1B  574   8.191   8.643   6.912 -0.3028  0.1281  0.2976
   22POPC   C2B  575   8.571   8.991   6.686  0.2152 -0.2935  0.0265
   22POPC   C3B  576   8.653   9.108   6.277 -0.1529 -0.1228 -0.0955
   22POPC   C4B  577   8.680   9.199   5.804 -0.4264 -0.1044  0.1778
   23POPC   NC3  578   0.874   6.470   8.085 -0.1165 -0.3582  0.0505
   23POPC   PO4  579   1.197   6.656   7.988 -0.0932 -0.1127  0.4386
   23POPC   GL1  580   1.001   6.776   7.586 -0.1535 -0.1084 -0.0401
   23POPC   GL2  581   0.830   7.068   7.636 -0.2004  0.1264  0.0618
   23POPC   C1A  582   1.089   6.565   7.214  0.0429 -0.3492 -0.2448
   23POPC   D2A  583   1.223   6.314   6.849 -0.0929  0.0125 -0.0817
   23POPC   C3A  584   1.224   6.396   6.416  0.1262  0.3488 -0.0934
   23POPC   C4A  585   0.992   6.447   6.048  0.1087  0.3709  0.1189
   23POPC   C1B  586   1.039   7.186   7.186 -0.1372 -0.1000 -0.3101
   23POPC   C2B  587   1.009   7.063   6.770 -0.2404 -0.1858 -0.3310
   23POPC   C3B  588   1.205   7.019   6.264 -0.1039  0.1303 -0.1452
   23POPC   C4B  589   1.191   6.874   5.888  0.0044  0.1271  0.0541
   24POPC   NC3  590   6.942   6.978   8.395  0.1281 -0.1247  0.1424
   24POPC   PO4  591   7.176   6.551   8.433  0.1796  0.1709 -0.2207
   24POPC   GL1  592   7.097   6.482   7.945 -0.1865 -0.1554 -0.0186
   24POPC   GL2  593   7.362   6.515   7.776  0.0362 -0.1498 -0.0585
   24POPC   C1A  594   6.839   6.414   7.609 -0.0465 -0.0200 -0.0106
   24POPC   D2A  595   6.851   6.219   7.147 -0.0230  0.0943  0.1519
   24POPC   C3A  596   7.048   5.985   6.906  0.3792 -0.0088 -0.1554
   24POPC   C4A  597   6.988   5.787   6.579  0.3885 -0.0467  0.1187
   24POPC   C1B  598   7.610   6.632   7.489 -0.3062  0.1532 -0.0670
   24POPC   C2B  599   7.825   6.862   7.244 -0.0227 -0.0107 -0.1334
   24POPC   C3B  600   7.874   7.201   6.950  0.1306  0.2576  0.2596
   24POPC   C4B  601   7.988   7.213   6.514  0.0281  0.0085  0.0382
   25POPC   NC3  602   3.050   0.698   7.579  0.1559  0.0482 -0.1536
   25POPC   PO4  603   2.638   0.696   7.609 -0.1481  0.1603 -0.0530
   25POPC   GL1  604   2.780   0.533   7.154 -0.0725 -0.0693 -0.0598
   25POPC   GL2  605   2.960   0.870   7.082 -0.0637  0.1559 -0.2468
   25POPC   C1A  606   2.669   0.586   6.713  0.2166  0.2573  0.2056
   25POPC   D2A  607   2.296   0.558   6.428 -0.2070 -0.0856  0.2531
   25POPC   C3A  608   2.398   0.534   6.013  0.1473  0.1375  0.1403
   25POPC   C4A  609   2.344   0.345   5.581  0.3255  0.3720  0.0500
   25POPC   C1B  610   3.070   1.081   6.651 -0.1071 -0.4042  0.0199
   25POPC   C2B  611   3.135   1.235   6.287  0.0910  0.2357  0.1617
   25POPC   C3B  612   2.922   1.001   5.879 -0.1401 -0.0049  0.0779
   25POPC   C4B  613   2.650   1.336   5.672  0.2021 -0.1484 -0.2704
   26POPC   NC3  614   7.659   2.680   7.905 -0.0597 -0.0924 -0.1052
   26POPC   PO4  615   7.731   2.317   7.596 -0.1608 -0.2798  0.0327
   26POPC   GL1  616   7.844   2.267   7.190  0.0391  0.3472 -0.1029
   26POPC   GL2  617   7.470   2.105   7.125  0.1375 -0.1364 -0.1308
   26POPC   C1A  618   8.041   2.290   6.843 -0.1278  0.4595 -0.2133
   26POPC   D2A  619   8.439   2.429   6.515 -0.1394 -0.0155 -0.1381
   26POPC   C3A  620   8.313   2.346   6.055 -0.0963 -0.2547 -0.0158
   26POPC   C4A  621   8.059   2.047   5.804  0.0923  0.1310  0.3827
   26POPC   C1B  622   7.506   2.378   6.731 -0.0421  0.0480  0.1006
   26POPC   C2B  623   7.373   2.205   6.304  0.0552  0.0182 -0.0154
   26POPC   C3B  624   7.222   2.311   5.905  0.0374 -0.2705 -0.1967
   26POPC   C4B  625   7.223   2.673   5.614  0.1666 -0.0907 -0.0451
   27POPC   NC3  626   3.757  10.216   7.837 -0.0722  0.1610 -0.1074
   27POPC   PO4  627   3.463  10.333   7.568  0.2963  0.1588  0.2662
   27POPC   GL1  628   3.285  10.369   7.145  0.1451 -0.2015  0.0724
   27POPC   GL2  629   3.429  10.112   7.022 -0.0733  0.0777  0.2535
   27POPC   C1A  630   3.083  10.768   6.865  0.0174 -0.2029  0.2378
   27POPC   D2A  631   3.165  11.231   6.710 -0.1566  0.1484 -0.1867
   27POPC   C3A  632   2.937  11.400   6.290 -0.1134 -0.3255 -0.5585
   27POPC   C4A  633   2.651  11.573   6.295  0.2134 -0.4090  0.3318
   27POPC   C1B  634   3.497  10.525   6.676 -0.1682  0.2084  0.0850
   27POPC   C2B  635   3.674  10.564   6.285  0.0408 -0.1778  0.1047
   27POPC   C3B  636   3.685  10.536   5.842  0.2777 -0.0279 -0.0292
   27POPC   C4B  637   3.591  10.691   5.455 -0.2045  0.1466  0.2157
   28POPC   NC3  638   1.825   4.761   7.933  0.2931  0.3393 -0.0968
   28POPC   PO4  639   1.753   5.093   7.637  0.1048 -0.0456  0.0172
   28POPC   GL1  640   1.728   5.302   7.288 -0.1782 -0.0586  0.2311
   28POPC   GL2  641   1.509   5.388   7.293 -0.0014  0.0362  0.0985
   28POPC   C1A  642   1.644   5.469   6.777 -0.1897 -0.1348  0.0355
   28POPC   D2A  643   1.461   5.426   6.447 -0.2569 -0.1356  0.2648
   28POPC   C3A  644   1.590   5.690   6.145  0.4481 -0.0504  0.2332
   28POPC   C4A  645   1.904   5.695   5.761 -0.0559  0.4210 -0.3212
   28POPC   C1B  646   1.193   5.370   6.982 -0.4978  0.1093  0.2618
   28POPC   C2B  647   1.157   5.697   6.657 -0.2867 -0.2569 -0.1709
   28POPC   C3B  648   1.203   5.915   6.285 -0.0938  0.0651  0.2217
   28POPC   C4B  649   0.931   5.957   5.867  0.0372 -0.0484  0.1845
   29POPC   NC3  650   5.007   8.054   7.677  0.3020  0.0805 -0.1838
   29POPC   PO4  651   4.617   7.833   7.719  0.2624 -0.2751 -0.0208
   29POPC   GL1  652   4.620   7.861   7.278  0.2722 -0.5766  0.1672
   29POPC   GL2  653   4.368   7.648   7.110 -0.0265 -0.1021  0.2908
   29POPC   C1A  654   4.699   8.012   6.920 -0.0033 -0.2205  0.0693
   29POPC   D2A  655   4.573   8.250   6.505 -0.1881 -0.1191 -0.1518
   29POPC   C3A  656   4.152   8.390   6.648 -0.0794 -0.0804 -0.0997
   29POPC   C4A  657   3.731   8.545   6.691 -0.1373  0.1078 -0.2134
   29POPC   C1B  658   4.260   7.908   6.655  0.1185 -0.2651  0.2113
   29POPC   C2B  659   4.343   7.854   6.218 -0.0018  0.2798 -0.4187
   29POPC   C3B  660   4.484   7.542   5.953 -0.0011  0.0541 -0.1035
   29POPC   C4B  661   4.647   7.111   5.901  0.0786 -0.0273  0.1405
   30POPC   NC3  662   2.556   1.642   7.742 -0.1008 -0.0606  0.2598
   30POPC   PO4  663   2.913   1.718   7.492  0.0639  0.0015  0.0776
   30POPC   GL1  664   2.817   1.624   7.102 -0.0014 -0.0427  0.0184
   30POPC   GL2  665   3.010   1.352   7.129  0.3215  0.2015 -0.0200
   30POPC   C1A  666   2.458   1.626   6.848 -0.1174  0.1443 -0.1589
   30POPC   D2A  667   2.199   1.971   6.896 -0.1140 -0.0887 -0.1949
   30POPC   C3A  668   2.232   2.222   6.589 -0.1307 -0.3743  0.2686
   30POPC   C4A  669   2.558   2.419   6.335  0.0096  0.4177  0.2271
   30POPC   C1B  670   3.405   1.386   6.955  0.0723  0.1091 -0.0403
   30POPC   C2B  671   3.547   1.313   6.610 -0.2572 -0.0260 -0.1796
   30POPC   C3B  672   3.817   1.118   6.341 -0.1712  0.2297 -0.1561
   30POPC   C4B  673   3.878   0.879   6.040 -0.1083 -0.0351 -0.1463
   31POPC   NC3  674   9.052   4.279   8.180 -0.1192 -0.0638  0.1163
   31POPC   PO4  675   9.415   4.203   8.001 -0.2202 -0.0287 -0.1655
   31POPC   GL1  676   9.547   4.093   7.585  0.2615 -0.1721  0.1794
   31POPC   GL2  677   9.219   3.902   7.501 -0.0231 -0.1430  0.2411
   31POPC   C1A  678   9.610   3.851   7.167 -0.1940 -0.2734  0.0001
   31POPC   D2A  679   9.607   3.703   6.729  0.0472 -0.0830  0.1980
   31POPC   C3A  680   9.231   3.703   6.511 -0.3424 -0.0010  0.1245
   31POPC   C4A  681   8.966   3.531   6.180 -0.0861  0.1190 -0.0684
   31POPC   C1B  682   9.112   4.088   7.157 -0.0526 -0.2725 -0.0949
   31POPC   C2B  683   9.182   4.176   6.735 -0.1660 -0.1871 -0.1203
   31POPC   C3B  684   9.041   4.141   6.377  0.0152 -0.0417 -0.0241
   31POPC   C4B  685   8.898   3.963   5.930 -0.2496  0.0895  0.1438
   32POPC   NC3  686   5.054   0.856   8.002  0.2158  0.0659  0.1122
   32POPC   PO4  687   4.976   1.219   7.810 -0.1043 -0.3525  0.1236
   32POPC   GL1  688   4.811   1.318   7.361 -0.3599 -0.1235 -0.1693
   32POPC   GL2  689   5.032   1.198   7.081 -0.1198  0.4308 -0.2508
   32POPC   C1A  690   4.466   1.107   7.090 -0.0222 -0.1671  0.1719
   32POPC   D2A  691   4.546   0.879   6.723  0.1403  0.2115 -0.2958
   32POPC   C3A  692   4.431   0.991   6.301  0.0403 -0.1139 -0.0896
   32POPC   C4A  693   4.207   1.315   5.980 -0.0439  0.4240 -0.1772
   32POPC   C1B  694   4.729   1.342   6.768 -0.1767 -0.1361 -0.1303
   32POPC   C2B  695   4.766   1.392   6.339 -0.0071 -0.1194  0.0370
   32POPC   C3B  696   4.709   1.394   5.944 -0.0714  0.2041  0.0602
   32POPC   C4B  697   4.509   1.359   5.507  0.1485 -0.0340 -0.2654
   33POPC   NC3  698   6.134   6.140   8.355  0.1801  0.3270  0.2688
   33POPC   PO4  699   5.893   6.029   8.000  0.3359  0.0777  0.0208
   33POPC   GL1  700   6.160   6.184   7.759  0.0201 -0.0432 -0.2537
   33POPC   GL2  701   5.937   5.971   7.471  0.2526  0.2763  0.0111
   33POPC   C1A  702   6.338   6.166   7.371  0.2158  0.0148 -0.2470
   33POPC   D2A  703   6.340   6.461   7.151 -0.2839  0.1613 -0.1093
   33POPC   C3A  704   6.114   6.453   6.787  0.1293 -0.0432 -0.1508
   33POPC   C4A  705   6.311   6.557   6.309 -0.0836  0.1417  0.2726
   33POPC   C1B  706   5.987   6.012   7.028  0.0195  0.2470  0.1702
   33POPC   C2B  707   5.927   5.968   6.676 -0.0043 -0.0321 -0.0448
   33POPC   C3B  708   5.856   6.317   6.337 -0.0584  0.0195  0.1315
   33POPC   C4B  709   6.022   6.525   5.919  0.2695  0.0417 -0.0653
   34POPC   NC3  710   1.695   1.694   7.605  0.3649 -0.1880 -0.3049
   34POPC   PO4  711   2.076   1.552   7.697 -0.2718 -0.3278 -0.1283
   34POPC   GL1  712   2.028   1.532   7.211  0.0976  0.0973  0.1004
   34POPC   GL2  713   1.782   1.822   7.106 -0.1006 -0.0293  0.2598
   34POPC   C1A  714   2.036   1.377   6.770  0.1854  0.1712 -0.2882
   34POPC   D2A  715   2.073   1.171   6.328 -0.4474  0.1228  0.0762
   34POPC   C3A  716   1.964   0.770   6.099  0.0920  0.1567 -0.4673
   34POPC   C4A  717   1.903   0.292   5.908  0.0450 -0.0259  0.1241
   34POPC   C1B  718   1.751   1.783   6.646  0.1503  0.2446 -0.1468
   34POPC   C2B  719   1.753   1.560   6.288  0.0258 -0.0416 -0.0556
   34POPC   C3B  720   1.798   1.595   5.887 -0.0661  0.1491 -0.1523
   34POPC   C4B  721   2.037   1.754   5.460  0.4580 -0.0268 -0.0595
   35POPC   NC3  722   1.686   3.183   8.099 -0.3754  0.1036  0.1612
   35POPC   PO4  723   1.450   3.474   7.805 -0.0202  0.1892  0.0855
   35POPC   GL1  724   1.257   3.349   7.504  0.2852 -0.0527 -0.1183
   35POPC   GL2  725   1.263   3.113   7.340  0.1372 -0.1021  0.0656
   35POPC   C1A  726   1.312   3.483   7.016 -0.3534 -0.2925 -0.1217
   35POPC   D2A  727   1.098   3.676   6.669 -0.0638  0.2245  0.1198
   35POPC   C3A  728   0.812   3.977   6.675  0.1979 -0.0135 -0.2013
   35POPC   C4A  729   0.708   4.215   6.397 -0.0967  0.1695  0.0545
   35POPC   C1B  730   0.890   3.144   7.055 -0.1957 -0.2147 -0.1817
   35POPC   C2B  731   0.624   3.383   6.741 -0.0154  0.0665  0.1087
   35POPC   C3B  732   0.555   3.672   6.318  0.1970 -0.0518 -0.0877
   35POPC   C4B  733   0.422   3.970   6.077 -0.0201  0.1477  0.1389
   36POPC   NC3  734   5.297   9.334   7.478 -0.0557 -0.0268 -0.0915
   36POPC   PO4  735   4.856   9.493   7.488 -0.1591 -0.0971 -0.0251
   36POPC   GL1  736   4.969   9.351   7.093 -0.3115 -0.3203  0.1494
   36POPC   GL2  737   5.056   9.651   6.900  0.0250  0.0594  0.3765
   36POPC   C1A  738   5.009   9.145   6.752 -0.0512  0.1623  0.0249
   36POPC   D2A  739   5.043   9.103   6.298 -0.2131 -0.0681 -0.1375
   36POPC   C3A  740   4.802   9.410   6.079 -0.2411  0.0067 -0.2843
   36POPC   C4A  741   4.442   9.569   5.994 -0.0692  0.1858  0.2265
   36POPC   C1B  742   4.793   9.716   6.590  0.0349 -0.1290 -0.0167
   36POPC   C2B  743   4.712   9.939   6.260 -0.2648 -0.2742  0.0195
   36POPC   C3B  744   4.585  10.239   5.951 -0.2481  0.1620  0.0536
   36POPC   C4B  745   4.669  10.472   5.488  0.0834  0.0090  0.0468
   37POPC   NC3  746   2.053   2.109   8.235  0.0735 -0.2499  0.2391
   37POPC   PO4  747   2.143   2.046   7.802  0.1419  0.2466 -0.2644
   37POPC   GL1  748   1.945   2.207   7.430 -0.1330  0.0280 -0.1045
   37POPC   GL2  749   1.713   2.496   7.486 -0.3184 -0.1203  0.1399
   37POPC   C1A  750   2.075   2.449   7.102 -0.0107 -0.2381  0.1066
   37POPC   D2A  751   2.514   2.568   6.990 -0.0010  0.0574  0.1105
   37POPC   C3A  752   2.765   2.778   6.684  0.0740 -0.0812  0.0518
   37POPC   C4A  753   2.875   2.816   6.228 -0.1837 -0.0437 -0.3895
   37POPC   C1B  754   1.667   2.730   7.129  0.3983 -0.0428  0.0972
   37POPC   C2B  755   1.699   3.116   6.882 -0.1338 -0.1118  0.2213
   37POPC   C3B  756   1.554   3.514   6.547  0.0476  0.1726  0.0388
   37POPC   C4B  757   1.617   3.550   6.029 -0.0912 -0.0261 -0.0624
   38POPC   NC3  758   3.594   6.960   7.980 -0.1922 -0.1356 -0.0680
   38POPC   PO4  759   3.946   6.659   7.769  0.2827 -0.0969 -0.1265
   38POPC   GL1  760   3.761   6.475   7.374 -0.1273  0.1151 -0.2986
   38POPC   GL2  761   3.661   6.149   7.466 -0.0281  0.1332  0.0741
   38POPC   C1A  762   3.867   6.445   6.971  0.0621 -0.2323  0.3395
   38POPC   D2A  763   3.861   6.113   6.694 -0.0586  0.0164  0.0399
   38POPC   C3A  764   3.526   6.149   6.363  0.0381  0.0548 -0.1908
   38POPC   C4A  765   3.367   6.142   5.967  0.1086 -0.2878  0.1114
   38POPC   C1B  766   3.467   6.107   7.055 -0.0773 -0.3011  0.2639
   38POPC   C2B  767   3.141   6.034   6.734  0.0467  0.0617  0.1484
   38POPC   C3B  768   3.016   6.155   6.359 -0.1514  0.2751 -0.1478
   38POPC   C4B  769   2.751   5.948   6.009  0.2260 -0.2233  0.0171
   39POPC   NC3  770   4.350   3.260   7.438 -0.1667  0.1163 -0.0445
   39POPC   PO4  771   4.433   3.772   7.370 -0.3650  0.4096  0.0233
   39POPC   GL1  772   4.219   3.656   6.981  0.0716 -0.3800  0.0554
   39POPC   GL2  773   4.279   3.291   6.891 -0.0737 -0.3933 -0.0282
   39POPC   C1A  774   3.929   3.581   6.657 -0.3795 -0.3301  0.1819
   39POPC   D2A  775   3.949   3.338   6.245  0.2694  0.1912 -0.0575
   39POPC   C3A  776   4.340   3.373   5.958  0.1979  0.0921 -0.4729
   39POPC   C4A  777   4.709   3.541   5.721 -0.5013 -0.0788  0.0897
   39POPC   C1B  778   4.133   2.969   6.693  0.0705  0.2667  0.0265
   39POPC   C2B  779   3.972   2.546   6.622  0.2173  0.1450  0.0665
   39POPC   C3B  780   3.565   2.331   6.875 -0.1108  0.1277 -0.2642
   39POPC   C4B  781   3.111   2.415   6.810  0.3329 -0.0171 -0.1079
   40POPC   NC3  782   1.996   0.426   7.403  0.1497 -0.0111  0.4099
   40POPC   PO4  783   1.540   0.226   7.482  0.1139 -0.0023 -0.2787
   40POPC   GL1  784   1.126   0.263   7.209  0.3860  0.1293  0.1467
   40POPC   GL2  785   0.838   0.126   7.350  0.3859  0.3272  0.1078
   40POPC   C1A  786   0.995   0.039   6.826  0.1460 -0.0938  0.4387
   40POPC   D2A  787   1.084  -0.192   6.412 -0.4433 -0.1860  0.1921
   40POPC   C3A  788   1.380  -0.011   6.045  0.0218  0.0545 -0.0977
   40POPC   C4A  789   1.444   0.182   5.686 -0.0850  0.1216 -0.1525
   40POPC   C1B  790   0.631   0.315   7.036  0.1462  0.0473 -0.0916
   40POPC   C2B  791   0.753   0.460   6.669  0.2012  0.1290 -0.0635
   40POPC   C3B  792   0.709   0.612   6.260 -0.0149  0.0268  0.0312
   40POPC   C4B  793   0.884   0.549   5.881 -0.1284 -0.3511  0.1610
   41POPC   NC3  794   7.420   7.493   7.866  0.3607 -0.3499  0.0826
   41POPC   PO4  795   6.928   7.375   8.029 -0.1903 -0.2188 -0.1533
   41POPC   GL1  796   7.021   7.211   7.639  0.1127 -0.1620 -0.2621
   41POPC   GL2  797   7.090   7.444   7.437 -0.1408 -0.1050 -0.3207
   41POPC   C1A  798   7.094   6.827   7.465  0.2187  0.3235  0.0538
   41POPC   D2A  799   7.244   6.608   7.172 -0.0744 -0.0062  0.2069
   41POPC   C3A  800   7.272   6.384   6.817  0.2061  0.0397  0.5324
   41POPC   C4A  801   7.064   6.251   6.474 -0.1690  0.0103  0.0216
   41POPC   C1B  802   6.773   7.258   7.158  0.1098  0.1529  0.2285
   41POPC   C2B  803   6.766   6.767   7.085  0.2343 -0.0088  0.0217
   41POPC   C3B  804   6.767   6.548   6.709 -0.1493  0.0724  0.2520
   41POPC   C4B  805   6.757   6.801   6.363 -0.0212 -0.0556  0.0550
   42POPC   NC3  806   3.975   3.592   7.497 -0.4422  0.1850  0.0016
   42POPC   PO4  807   3.824   3.197   7.549  0.0379 -0.0211 -0.1249
   42POPC   GL1  808   3.626   3.355   7.209 -0.1156  0.0078 -0.2534
   42POPC   GL2  809   3.772   3.017   7.069 -0.1693  0.1075 -0.1236
   42POPC   C1A  810   3.409   3.537   6.914  0.4569 -0.1613 -0.1617
   42POPC   D2A  811   3.166   3.619   6.511  0.1354 -0.3481 -0.1759
   42POPC   C3A  812   3.119   3.990   6.404  0.0843  0.1441  0.2000
   42POPC   C4A  813   2.716   4.228   6.373  0.1422  0.2058 -0.2680
   42POPC   C1B  814   3.615   3.182   6.654 -0.0813 -0.0196  0.3184
   42POPC   C2B  815   3.432   3.195   6.293 -0.0600  0.2865 -0.1527
   42POPC   C3B  816   3.565   3.131   5.919  0.1014  0.1840 -0.0401
   42POPC   C4B  817   3.910   3.231   5.719  0.1944  0.3368 -0.0877
   43POPC   NC3  818   9.005   8.157   8.275  0.1004 -0.1212  0.2118
   43POPC   PO4  819   9.056   8.171   7.765  0.2060  0.0713 -0.2577
   43POPC   GL1  820   8.866   8.224   7.390  0.0082  0.0056  0.1497
   43POPC   GL2  821   8.837   8.460   7.187 -0.1246 -0.0988 -0.2614
   43POPC   C1A  822   9.024   8.003   6.940 -0.1365  0.1938 -0.0968
   43POPC   D2A  823   8.899   7.992   6.555  0.0601 -0.0023  0.0376
   43POPC   C3A  824   8.486   8.007   6.525 -0.1530  0.0772  0.1233
   43POPC   C4A  825   8.409   8.077   6.069 -0.0447 -0.0331 -0.0893
   43POPC   C1B  826   8.620   8.473   6.706  0.2290 -0.0782 -0.1080
   43POPC   C2B  827   8.492   8.584   6.303  0.2192  0.1234  0.2751
   43POPC   C3B  828   8.732   8.684   5.958 -0.0581 -0.1481  0.1402
   43POPC   C4B  829   8.818   8.726   5.515 -0.3071 -0.2142  0.1518
   44POPC   NC3  830   0.880   4.402   8.517  0.1905 -0.0170  0.1216
   44POPC   PO4  831   1.091   4.354   8.165 -0.1560  0.0516  0.1015
   44POPC   GL1  832   0.999   4.410   7.745 -0.2377 -0.2293 -0.0149
   44POPC   GL2  833   0.839   4.698   7.661  0.1558 -0.1937  0.1051
   44POPC   C1A  834   1.198   4.476   7.336 -0.1742 -0.0724 -0.0957
   44POPC   D2A  835   1.336   4.887   7.251  0.1055 -0.2426 -0.0504
   44POPC   C3A  836   1.525   4.957   6.852  0.4479  0.2311 -0.3622
   44POPC   C4A  837   1.677   5.006   6.456  0.0883 -0.0340 -0.1640
   44POPC   C1B  838   0.801   4.883   7.195 -0.1336 -0.2893 -0.0003
   44POPC   C2B  839   1.010   4.854   6.874  0.0979  0.1847  0.1422
   44POPC   C3B  840   1.144   4.932   6.453  0.0066  0.2761  0.0142
   44POPC   C4B  841   1.026   4.991   6.044  0.1934  0.0031  0.1267
   45POPC   NC3  842   2.482   0.233   7.484 -0.1747 -0.2008  0.2348
   45POPC   PO4  843   2.063  -0.040   7.532  0.0480  0.2345  0.0118
   45POPC   GL1  844   1.766  -0.149   7.162 -0.2334  0.1795 -0.0226
   45POPC   GL2  845   1.762  -0.388   7.070  0.1862  0.0583 -0.2255
   45POPC   C1A  846   1.497   0.083   6.830  0.0505  0.2454 -0.0219
   45POPC   D2A  847   1.284   0.338   6.471 -0.0060 -0.1014 -0.2959
   45POPC   C3A  848   1.483   0.517   6.067  0.1983  0.0799 -0.2045
   45POPC   C4A  849   1.692   0.641   5.646  0.0455 -0.2553 -0.0430
   45POPC   C1B  850   1.989  -0.459   6.648  0.0367  0.0115  0.2899
   45POPC   C2B  851   2.137  -0.603   6.242  0.0621  0.3329 -0.0114
   45POPC   C3B  852   2.142  -0.667   5.811 -0.0880  0.1417 -0.0723
   45POPC   C4B  853   2.180  -0.391   5.452  0.1003 -0.0358 -0.0928
   46POPC   NC3  854   5.149   1.672   7.581  0.0139 -0.0170 -0.2394
   46POPC   PO4  855   4.892   2.062   7.674  0.1951 -0.1457  0.0082
   46POPC   GL1  856   4.776   1.867   7.292  0.1775  0.0637 -0.0627
   46POPC   GL2  857   5.038   1.706   7.055  0.1102  0.1981 -0.0962
   46POPC   C1A  858   4.751   2.096   6.881  0.0800 -0.1144 -0.1069
   46POPC   D2A  859   4.413   2.412   6.783 -0.0956  0.1493 -0.1779
   46POPC   C3A  860   4.536   2.672   6.438 -0.2506  0.4365  0.1620
   46POPC   C4A  861   4.249   2.851   6.159  0.0301 -0.0835 -0.2223
   46POPC   C1B  862   5.078   1.767   6.615 -0.5066 -0.5635 -0.2151
   46POPC   C2B  863   5.021   1.806   6.209 -0.1102 -0.0169  0.0980
   46POPC   C3B  864   5.381   1.798   5.899  0.0735 -0.0122  0.1781
   46POPC   C4B  865   5.420   1.764   5.612  0.2766 -0.0570 -0.0921
   47POPC   NC3  866   6.078   2.650   7.633  0.4624  0.0345 -0.1871
   47POPC   PO4  867   6.014   2.440   7.232  0.1002 -0.2292 -0.0593
   47POPC   GL1  868   6.322   2.262   6.843  0.2929 -0.0490  0.1279
   47POPC   GL2  869   6.431   2.370   6.681  0.1016 -0.2460  0.0097
   47POPC   C1A  870   6.384   2.034   6.383  0.0616 -0.0296  0.1729
   47POPC   D2A  871   6.330   1.841   6.017  0.2281  0.2364 -0.0480
   47POPC   C3A  872   6.642   2.032   5.777  0.0765  0.1379 -0.0095
   47POPC   C4A  873   6.904   2.199   5.434  0.1028  0.2852  0.0075
   47POPC   C1B  874   6.667   2.666   6.488  0.4170 -0.4708  0.1941
   47POPC   C2B  875   7.047   2.669   6.381  0.0717 -0.1139 -0.2252
   47POPC   C3B  876   7.415   2.683   6.126  0.0262 -0.1162  0.3156
   47POPC   C4B  877   7.678   2.372   5.749 -0.1160  0.0107 -0.1399
   48POPC   NC3  878   2.593   6.686   8.003 -0.0402  0.0809  0.0199
   48POPC   PO4  879   2.198   6.417   7.962  0.1036 -0.4018  0.1475
   48POPC   GL1  880   2.033   6.461   7.528 -0.2581 -0.1981 -0.2097
   48POPC   GL2  881   2.180   6.275   7.302  0.0183  0.3263  0.1365
   48POPC   C1A  882   2.020   6.850   7.255  0.0462  0.1115 -0.1277
   48POPC   D2A  883   1.941   7.027   6.894  0.0870 -0.0781 -0.1813
   48POPC   C3A  884   1.697   7.376   6.931 -0.0636  0.1708  0.0371
   48POPC   C4A  885   1.403   7.426   6.646 -0.2991  0.0878  0.0447
   48POPC   C1B  886   2.192   6.505   6.917 -0.2552 -0.0741  0.1275
   48POPC   C2B  887   2.188   6.702   6.479  0.1215 -0.1509 -0.0465
   48POPC   C3B  888   2.104   6.654   6.083  0.0548 -0.1186 -0.1192
   48POPC   C4B  889   2.433   6.620   5.749  0.2937 -0.1261  0.0248
   49POPC   NC3  890   0.582   2.208   7.512  0.0378  0.0191  0.0961
   49POPC   PO4  891   1.069   2.268   7.696  0.0147  0.1262  0.0142
   49POPC   GL1  892   1.429   2.060   7.391  0.0369  0.1197 -0.0851
   49POPC   GL2  893   1.181   1.831   7.216  0.3093 -0.0762  0.1521
   49POPC   C1A  894   1.546   2.276   6.895 -0.0684  0.2158  0.0014
   49POPC   D2A  895   1.719   2.413   6.593  0.1762  0.0188  0.0776
   49POPC   C3A  896   1.732   2.781   6.534  0.3120 -0.3255  0.0145
   49POPC   C4A  897   1.838   3.138   6.370  0.0360 -0.1096  0.1622
   49POPC   C1B  898   1.259   1.870   6.832 -0.3593  0.2299  0.0286
   49POPC   C2B  899   1.408   1.989   6.417 -0.1062  0.0285 -0.0200
   49POPC   C3B  900   1.781   2.074   6.195 -0.0009  0.0958  0.0247
   49POPC   C4B  901   2.168   1.788   6.368 -0.0519 -0.0064 -0.1176
   50POPC   NC3  902   0.528   5.967   8.655 -0.2377  0.1216  0.3179
   50POPC   PO4  903   0.329   6.021   8.248  0.1209  0.1509  0.0791
   50POPC   GL1  904   0.035   6.099   7.924 -0.0226 -0.1350 -0.3349
   50POPC   GL2  905   0.077   5.772   7.629  0.2496 -0.0277 -0.1147
   50POPC   C1A  906  -0.268   6.143   7.651 -0.0117  0.0529  0.0769
   50POPC   D2A  907  -0.596   6.010   7.432 -0.1840  0.2052 -0.3177
   50POPC   C3A  908  -0.664   6.147   7.020  0.0684 -0.0998 -0.1013
   50POPC   C4A  909  -0.910   6.394   6.774  0.0169 -0.2532  0.3347
   50POPC   C1B  910   0.246   6.199   7.460  0.2847 -0.2980  0.1538
   50POPC   C2B  911   0.287   6.477   7.036 -0.2125  0.2980 -0.0474
   50POPC   C3B  912   0.097   6.620   6.732  0.1583  0.0475  0.1632
   50POPC   C4B  913   0.088   6.628   6.323  0.2305 -0.0997 -0.1050
   51POPC   NC3  914   5.861  10.125   7.398  0.0945  0.1502 -0.2149
   51POPC   PO4  915   6.222   9.899   7.596 -0.0116 -0.1657  0.5745
   51POPC   GL1  916   6.317   9.994   7.197  0.0686  0.0555  0.1775
   51POPC   GL2  917   6.006   9.753   7.044 -0.1513 -0.2158 -0.0333
   51POPC   C1A  918   6.440   9.783   6.800 -0.0556 -0.2232 -0.0036
   51POPC   D2A  919   6.221   9.425   6.458 -0.1515 -0.1034 -0.1048
   51POPC   C3A  920   5.852   9.575   6.253  0.1682 -0.2672  0.2956
   51POPC   C4A  921   5.609   9.849   6.138 -0.1003 -0.2434 -0.1567
   51POPC   C1B  922   5.914   9.905   6.660  0.1430  0.1249 -0.0087
   51POPC   C2B  923   6.227   9.936   6.259  0.3319 -0.1120  0.1158
   51POPC   C3B  924   6.103  10.044   5.901  0.1686 -0.3611 -0.0256
   51POPC   C4B  925   6.139  10.373   5.871  0.1093  0.1432  0.1325
   52POPC   NC3  926   6.013   1.319   7.586  0.3186 -0.0172 -0.3516
   52POPC   PO4  927   5.776   1.700   7.427  0.1193  0.2957 -0.1182
   52POPC   GL1  928   5.919   1.979   7.169  0.1638  0.2766  0.0628
   52POPC   GL2  929   5.660   2.183   6.991  0.0485  0.2211 -0.2144
   52POPC   C1A  930   5.978   1.921   6.647  0.2351 -0.0716  0.1172
   52POPC   D2A  931   5.858   1.972   6.174 -0.2587 -0.1329  0.1725
   52POPC   C3A  932   5.902   1.699   5.828 -0.3098 -0.0881 -0.0024
   52POPC   C4A  933   6.163   1.525   5.459 -0.0310  0.1571 -0.1064
   52POPC   C1B  934   5.831   2.380   6.507  0.1438  0.0783  0.0619
   52POPC   C2B  935   6.015   2.509   6.165 -0.1941 -0.1101  0.3666
   52POPC   C3B  936   6.305   2.343   6.011  0.0515  0.2647 -0.1779
   52POPC   C4B  937   6.410   2.467   5.599  0.0746 -0.0345 -0.3879
   53POPC   NC3  938   8.503   1.211   7.422 -0.0280 -0.0899 -0.2367
   53POPC   PO4  939   8.307   1.628   7.539  0.0853  0.2579  0.0164
   53POPC   GL1  940   8.351   1.583   7.126  0.4001  0.2655 -0.3414
   53POPC   GL2  941   8.074   1.787   7.027 -0.2943 -0.0343 -0.0302
   53POPC   C1A  942   8.640   1.545   6.633  0.1130  0.0217 -0.1654
   53POPC   D2A  943   8.370   1.502   6.174  0.0140  0.2216 -0.0254
   53POPC   C3A  944   8.577   1.885   5.990  0.1290  0.2922  0.3508
   53POPC   C4A  945   8.891   2.067   5.863 -0.1485  0.2283  0.3337
   53POPC   C1B  946   7.989   1.477   6.622 -0.0733  0.0743  0.0516
   53POPC   C2B  947   7.488   1.560   6.452 -0.0910  0.2087 -0.0130
   53POPC   C3B  948   7.179   1.730   6.251  0.2398 -0.0238 -0.1542
   53POPC   C4B  949   6.763   1.653   6.132  0.0452  0.0132 -0.3935
   54POPC   NC3  950   1.446   7.525   8.110 -0.2998  0.1168 -0.1892
   54POPC   PO4  951   1.516   7.582   7.664 -0.0304  0.1649  0.2591
   54POPC   GL1  952   1.502   7.774   7.302  0.0439 -0.0027  0.3057
   54POPC   GL2  953   1.708   8.095   7.253  0.0657 -0.4239 -0.1195
   54POPC   C1A  954   1.603   7.849   6.707  0.2090  0.0477  0.1899
   54POPC   D2A  955   1.677   8.041   6.314 -0.0735  0.0394 -0.0824
   54POPC   C3A  956   1.848   7.870   5.923  0.1455 -0.2411 -0.2421
   54POPC   C4A  957   1.654   7.800   5.547 -0.0670 -0.0930  0.1016
   54POPC   C1B  958   1.712   8.348   6.896  0.0524 -0.0818  0.1613
   54POPC   C2B  959   1.489   8.577   6.472  0.2457 -0.2338 -0.2497
   54POPC   C3B  960   1.514   8.547   5.986  0.1161  0.1578 -0.0097
   54POPC   C4B  961   1.261   8.664   5.665 -0.1544  0.1993 -0.0812
   55POPC   NC3  962   6.007   0.704   6.847  0.1040 -0.1416 -0.2780
   55POPC   PO4  963   5.695   0.693   7.119  0.1923 -0.0138  0.1740
   55POPC   GL1  964   5.440   0.934   6.883  0.3405 -0.0695  0.1119
   55POPC   GL2  965   5.614   0.974   6.599  0.2290  0.4367 -0.1443
   55POPC   C1A  966   5.180   1.203   6.540 -0.1593  0.0452  0.3093
   55POPC   D2A  967   5.214   1.331   6.033 -0.1725 -0.0530 -0.1110
   55POPC   C3A  968   5.604   1.163   5.921 -0.1805  0.3043  0.1124
   55POPC   C4A  969   5.767   0.842   5.736 -0.1260 -0.1936 -0.0380
   55POPC   C1B  970   5.475   0.789   6.216  0.3522  0.0926 -0.0465
   55POPC   C2B  971   5.372   0.518   5.843 -0.0469 -0.2955 -0.3177
   55POPC   C3B  972   5.553   0.383   5.422 -0.0806 -0.2962 -0.0897
   55POPC   C4B  973   5.773   0.179   5.057 -0.0490  0.2090 -0.1891
   56POPC   NC3  974   0.038   5.300   7.852 -0.1397 -0.0924 -0.0128
   56POPC   PO4  975  -0.023   5.637   8.131  0.2674  0.0615 -0.2414
   56POPC   GL1  976  -0.343   5.687   7.881  0.3196 -0.0387 -0.3046
   56POPC   GL2  977  -0.425   5.433   7.774 -0.2200 -0.1668  0.0666
   56POPC   C1A  978  -0.774   5.809   7.844 -0.2339  0.0856 -0.2899
   56POPC   D2A  979  -1.088   5.899   7.458 -0.1537  0.1303 -0.0024
   56POPC   C3A  980  -1.480   6.180   7.456 -0.2909 -0.2398 -0.0870
   56POPC   C4A  981  -1.972   6.199   7.440  0.1337 -0.3261  0.1183
   56POPC   C1B  982  -0.745   5.479   7.408  0.0617 -0.2011  0.2275
   56POPC   C2B  983  -1.090   5.328   7.354 -0.0094  0.1260  0.4601
   56POPC   C3B  984  -1.393   5.056   7.377 -0.0802  0.1224  0.1199
   56POPC   C4B  985  -1.728   4.766   7.540 -0.2841  0.0697  0.0645
   57POPC   NC3  986   5.279   4.675   7.719  0.1574  0.2014  0.0752
   57POPC   PO4  987   5.420   4.695   7.368 -0.4548  0.3303  0.2047
   57POPC   GL1  988   5.722   5.027   7.291  0.4779  0.0763 -0.1345
   57POPC   GL2  989   5.573   5.188   7.153  0.3756  0.2783 -0.0849
   57POPC   C1A  990   6.146   5.071   7.191 -0.2138 -0.1865 -0.2609
   57POPC   D2A  991   6.486   5.318   6.947  0.1180 -0.1282 -0.0913
   57POPC   C3A  992   6.374   5.435   6.663  0.0053 -0.0898 -0.0459
   57POPC   C4A  993   6.522   5.735   6.325  0.1957  0.2288 -0.2077
   57POPC   C1B  994   5.470   5.176   6.738 -0.1638 -0.1930  0.0535
   57POPC   C2B  995   5.480   5.090   6.343  0.2199  0.1428  0.0576
   57POPC   C3B  996   5.059   5.009   6.116 -0.0868  0.0685  0.3517
   57POPC   C4B  997   4.803   4.858   5.651 -0.1285  0.1975  0.0280
   58POPC   NC3  998   6.656   1.262   7.346 -0.0323  0.0674  0.0796
   58POPC   PO4  999   6.790   1.762   7.536 -0.2706 -0.1270 -0.1312
   58POPC   GL1 1000   6.817   1.707   7.069 -0.0813 -0.2263 -0.0587
   58POPC   GL2 1001   6.911   1.350   6.957 -0.1620 -0.0832 -0.3513
   58POPC   C1A 1002   6.627   1.822   6.811 -0.3864  0.2045  0.0709
   58POPC   D2A 1003   6.398   1.568   6.695  0.0903 -0.3099 -0.3548
   58POPC   C3A 1004   6.288   1.516   6.390 -0.0829  0.2479 -0.0245
   58POPC   C4A 1005   6.167   1.329   5.917  0.2035 -0.2469 -0.0192
   58POPC   C1B 1006   6.882   1.310   6.562 -0.3253 -0.0459  0.0487
   58POPC   C2B 1007   7.129   1.253   6.188 -0.2822  0.0771 -0.1787
   58POPC   C3B 1008   7.410   1.344   5.870  0.1027 -0.1554 -0.1224
   58POPC   C4B 1009   7.891   1.426   5.744 -0.2893 -0.2968 -0.0772
   59POPC   NC3 1010  10.570   9.872   7.436  0.0387 -0.3089 -0.0447
   59POPC   PO4 1011  10.417   9.367   7.474 -0.1942 -0.1846  0.1368
   59POPC   GL1 1012  10.414   9.162   7.082 -0.2605  0.0442 -0.1451
   59POPC   GL2 1013  10.226   8.929   7.054 -0.1767 -0.3982  0.1408
   59POPC   C1A 1014  10.402   9.186   6.629  0.0415  0.5063  0.0517
   59POPC   D2A 1015  10.453   9.388   6.266  0.2870  0.2953  0.0479
   59POPC   C3A 1016  10.162   9.211   5.893  0.2835 -0.0307  0.3357
   59POPC   C4A 1017   9.736   9.341   5.827 -0.0298 -0.1020 -0.4145
   59POPC   C1B 1018  10.018   8.852   6.611  0.1223 -0.1351 -0.0535
   59POPC   C2B 1019  10.286   8.858   6.204  0.1198  0.0935  0.1160
   59POPC   C3B 1020  10.631   9.098   5.870  0.3480  0.2071 -0.3484
   59POPC   C4B 1021  10.943   9.353   5.938  0.1473 -0.3235  0.0915
   60POPC   NC3 1022   5.562   2.915   7.829  0.1615 -0.0117  0.0387
   60POPC   PO4 1023   5.591   3.306   7.613 -0.5345  0.1231  0.3576
   60POPC   GL1 1024   5.759   3.430   7.158  0.1943  0.1114 -0.0430
   60POPC   GL2 1025   5.600   3.260   6.931  0.0429  0.0552  0.2569
   60POPC   C1A 1026   5.952   3.545   6.691 -0.0403  0.4316  0.1341
   60POPC   D2A 1027   6.187   3.467   6.341  0.0535 -0.0169 -0.1002
   60POPC   C3A 1028   6.121   3.113   6.066  0.2368  0.0378 -0.0924
   60POPC   C4A 1029   6.389   2.961   5.710  0.4556 -0.2351 -0.2123
   60POPC   C1B 1030   5.481   3.242   6.555  0.2367  0.1091  0.2222
   60POPC   C2B 1031   5.353   3.355   6.192  0.2083  0.2298 -0.1676
   60POPC   C3B 1032   5.252   3.550   5.894  0.1950 -0.0591 -0.1334
   60POPC   C4B 1033   5.170   3.816   5.490  0.2494 -0.0651  0.0839
   61POPC   NC3 1034   6.917   4.511   7.745 -0.0912  0.0525 -0.1882
   61POPC   PO4 1035   6.624   4.244   7.938  0.0468  0.1685  0.0540
   61POPC   GL1 1036   6.740   4.100   7.485 -0.2655  0.4596  0.2856
   61POPC   GL2 1037   7.050   4.175   7.425 -0.1727 -0.0224  0.3790
   61POPC   C1A 1038   6.799   3.925   7.082 -0.0927 -0.2719 -0.0739
   61POPC   D2A 1039   6.790   3.807   6.630  0.1255 -0.0354  0.0719
   61POPC   C3A 1040   6.792   4.186   6.349 -0.2085 -0.2089  0.0890
   61POPC   C4A 1041   6.675   4.674   6.277 -0.2063  0.0415  0.2910
   61POPC   C1B 1042   7.022   4.500   7.176  0.1132 -0.0927  0.0507
   61POPC   C2B 1043   7.246   4.712   6.855  0.1803 -0.0628  0.0441
   61POPC   C3B 1044   7.068   4.940   6.514  0.0158  0.1609 -0.1394
   61POPC   C4B 1045   6.830   5.328   6.397 -0.1813 -0.0369  0.1504
   62POPC   NC3 1046   5.050   3.676   7.813  0.0941  0.1065  0.2136
   62POPC   PO4 1047   5.346   3.742   7.546  0.2185 -0.0043 -0.2573
   62POPC   GL1 1048   5.424   3.802   7.128 -0.0394  0.0666 -0.1268
   62POPC   GL2 1049   5.236   3.964   6.903 -0.0705 -0.0232 -0.2292
   62POPC   C1A 1050   5.756   3.991   6.930 -0.0707  0.0494  0.0698
   62POPC   D2A 1051   6.184   4.194   7.047 -0.2294 -0.2455  0.0922
   62POPC   C3A 1052   6.533   4.251   6.833 -0.0714 -0.1048 -0.1346
   62POPC   C4A 1053   6.828   4.498   6.747  0.2593 -0.0561  0.0849
   62POPC   C1B 1054   5.515   3.734   6.510  0.3028  0.1044  0.2998
   62POPC   C2B 1055   5.871   3.875   6.321 -0.3264  0.2113 -0.3646
   62POPC   C3B 1056   6.092   3.912   5.949 -0.0699  0.0701 -0.1294
   62POPC   C4B 1057   6.081   4.117   5.567  0.1278  0.1266 -0.3332
   63POPC   NC3 1058   3.305   7.868   7.480  0.0246  0.2038 -0.2525
   63POPC   PO4 1059   3.723   8.038   7.578 -0.2119  0.1867 -0.2354
   63POPC   GL1 1060   3.715   7.853   7.174  0.0955 -0.0232 -0.0545
   63POPC   GL2 1061   3.910   7.663   7.088 -0.0883 -0.0378  0.0776
   63POPC   C1A 1062   3.792   7.968   6.761  0.0955 -0.1519  0.1185
   63POPC   D2A 1063   3.850   8.016   6.318 -0.1198 -0.0669 -0.2373
   63POPC   C3A 1064   3.454   8.366   6.197  0.2743  0.2918 -0.0672
   63POPC   C4A 1065   3.091   8.381   6.457 -0.2327 -0.1363  0.0136
   63POPC   C1B 1066   4.038   7.483   6.727  0.1844 -0.1294  0.2703
   63POPC   C2B 1067   4.080   7.442   6.313  0.0550 -0.2125 -0.1814
   63POPC   C3B 1068   4.000   7.366   5.902 -0.1221 -0.0572 -0.1140
   63POPC   C4B 1069   4.018   7.189   5.518  0.0168 -0.0510  0.0716
   64POPC   NC3 1070   6.315   9.476   7.361  0.0055 -0.2746  0.2729
   64POPC   PO4 1071   6.780   9.174   7.362  0.3306  0.1044 -0.0804
   64POPC   GL1 1072   6.746   9.308   6.978  0.1829 -0.2428 -0.1259
   64POPC   GL2 1073   7.019   9.407   6.955  0.0395  0.2927 -0.0532
   64POPC   C1A 1074   6.829   9.139   6.574  0.1407 -0.2246 -0.3214
   64POPC   D2A 1075   6.786   8.851   6.094  0.1552  0.3224 -0.0536
   64POPC   C3A 1076   6.552   8.416   5.869 -0.0377  0.0239 -0.3007
   64POPC   C4A 1077   6.234   8.323   5.673  0.0103 -0.1089 -0.0920
   64POPC   C1B 1078   7.071   9.681   6.667  0.2116 -0.2195  0.0645
   64POPC   C2B 1079   7.089   9.885   6.325  0.0364 -0.0341 -0.0467
   64POPC   C3B 1080   7.353   9.810   5.992 -0.1471  0.2665  0.2535
   64POPC   C4B 1081   7.444   9.337   5.938  0.0873  0.2369  0.1609
   65POPC   NC3 1082   1.769   6.360   8.184  0.1510 -0.0606  0.0928
   65POPC   PO4 1083   1.688   6.593   7.900 -0.0388 -0.4511  0.0991
   65POPC   GL1 1084   1.588   6.670   7.434  0.1940  0.0916 -0.0518
   65POPC   GL2 1085   1.534   6.205   7.318 -0.1651  0.0820  0.0051
   65POPC   C1A 1086   1.470   6.925   7.106  0.3930  0.2282 -0.0823
   65POPC   D2A 1087   1.413   6.805   6.686 -0.2213 -0.0630 -0.1706
   65POPC   C3A 1088   1.719   7.011   6.384 -0.0589  0.3723  0.2335
   65POPC   C4A 1089   2.220   7.169   6.303 -0.0924 -0.0360  0.0125
   65POPC   C1B 1090   1.683   6.480   6.983  0.1907 -0.2642  0.1087
   65POPC   C2B 1091   1.760   6.511   6.515  0.0243  0.3498  0.2009
   65POPC   C3B 1092   1.574   6.530   6.114 -0.0486  0.1323  0.2956
   65POPC   C4B 1093   1.670   6.915   5.839  0.0238  0.1382 -0.2719
   66POPC   NC3 1094   0.766  10.495   7.746 -0.0187 -0.0381 -0.0030
   66POPC   PO4 1095   0.553  10.225   7.595 -0.2073  0.1918 -0.0124
   66POPC   GL1 1096   0.338  10.213   7.181 -0.0087  0.0127  0.2012
   66POPC   GL2 1097   0.218   9.966   7.002  0.0010  0.1860 -0.2097
   66POPC   C1A 1098   0.245  10.529   6.925 -0.2361 -0.2450  0.2853
   66POPC   D2A 1099   0.251  11.051   6.725  0.1524  0.1385  0.1799
   66POPC   C3A 1100   0.211  11.141   6.376  0.1457 -0.3177 -0.2028
   66POPC   C4A 1101   0.241  11.268   5.924  0.0158 -0.0438  0.0479
   66POPC   C1B 1102   0.526   9.766   6.756  0.1918  0.2925 -0.1622
   66POPC   C2B 1103   0.551  10.008   6.329  0.0414 -0.2298 -0.2204
   66POPC   C3B 1104   0.426  10.322   5.991 -0.2002  0.0078 -0.3511
   66POPC   C4B 1105   0.242  10.289   5.649  0.0525  0.0826 -0.5940
   67POPC   NC3 1106   6.335   3.128   7.963 -0.0809 -0.0880 -0.1918
   67POPC   PO4 1107   6.440   3.568   7.745  0.0857  0.0188  0.2203
   67POPC   GL1 1108   6.500   3.592   7.371  0.2772  0.1588  0.1552
   67POPC   GL2 1109   6.601   3.377   7.230  0.0227  0.2342  0.0034
   67POPC   C1A 1110   6.300   3.702   7.008  0.1612 -0.1808 -0.4073
   67POPC   D2A 1111   6.300   3.936   6.585 -0.0452 -0.1474  0.0546
   67POPC   C3A 1112   6.099   4.282   6.520 -0.4193  0.1133  0.1850
   67POPC   C4A 1113   6.278   4.294   6.160 -0.0083  0.2632 -0.1262
   67POPC   C1B 1114   6.791   3.359   6.831  0.2448  0.0277  0.0345
   67POPC   C2B 1115   7.037   3.356   6.566  0.1493  0.0547 -0.0031
   67POPC   C3B 1116   7.309   3.204   6.338  0.0492 -0.1808  0.0732
   67POPC   C4B 1117   7.389   3.520   5.966 -0.1619  0.0228  0.6235
   68POPC   NC3 1118   5.678   0.179   7.092 -0.1832  0.0896  0.3006
   68POPC   PO4 1119   6.184   0.170   7.018 -0.0258  0.3252  0.0505
   68POPC   GL1 1120   6.231   0.292   6.546  0.1227  0.2153 -0.2335
   68POPC   GL2 1121   6.346   0.606   6.459  0.1044 -0.0186 -0.0307
   68POPC   C1A 1122   6.253   0.150   6.136  0.0148 -0.0927  0.1694
   68POPC   D2A 1123   6.497   0.111   5.701  0.1887  0.1183 -0.0022
   68POPC   C3A 1124   6.460  -0.326   5.542  0.1230  0.0108  0.1297
   68POPC   C4A 1125   6.494  -0.687   5.574  0.1568  0.1764 -0.0718
   68POPC   C1B 1126   6.329   0.646   5.986  0.1955  0.1195  0.1880
   68POPC   C2B 1127   6.468   0.610   5.540  0.3858  0.2418 -0.0863
   68POPC   C3B 1128   6.900   0.754   5.468  0.0497  0.3909  0.2677
   68POPC   C4B 1129   7.237   1.002   5.622  0.0611 -0.0154 -0.0475
   69POPC   NC3 1130   3.399   9.493   7.747 -0.0309 -0.0388 -0.1798
   69POPC   PO4 1131   3.493   9.082   7.720 -0.2374  0.4611  0.1564
   69POPC   GL1 1132   3.555   8.875   7.289 -0.3159 -0.0884 -0.1190
   69POPC   GL2 1133   3.483   9.134   6.988 -0.0424  0.1438  0.2029
   69POPC   C1A 1134   3.955   8.835   6.985  0.2289  0.0114 -0.1816
   69POPC   D2A 1135   4.189   8.853   6.559  0.2943  0.0806  0.2243
   69POPC   C3A 1136   4.100   9.272   6.181 -0.0894 -0.1732  0.0530
   69POPC   C4A 1137   4.000   9.759   6.066  0.0807 -0.0531 -0.0842
   69POPC   C1B 1138   3.714   9.039   6.516  0.1711 -0.1943 -0.0990
   69POPC   C2B 1139   3.832   8.727   6.238 -0.2061 -0.2855  0.3361
   69POPC   C3B 1140   3.937   8.362   5.962 -0.1987  0.1913 -0.2581
   69POPC   C4B 1141   4.030   7.916   5.833 -0.3954  0.4228  0.1147
   70POPC   NC3 1142   2.553   2.985   7.340 -0.1488 -0.2714  0.1154
   70POPC   PO4 1143   2.190   3.056   7.563  0.1350  0.0185 -0.0727
   70POPC   GL1 1144   2.058   3.061   7.183  0.0917  0.1205  0.0346
   70POPC   GL2 1145   2.146   3.319   7.092  0.3249 -0.0887  0.2765
   70POPC   C1A 1146   2.184   2.916   6.818 -0.0017 -0.1828 -0.1989
   70POPC   D2A 1147   2.259   2.718   6.541  0.1215 -0.0966  0.2297
   70POPC   C3A 1148   2.113   2.607   6.153  0.0767  0.0728  0.0032
   70POPC   C4A 1149   2.182   2.214   5.935 -0.0438 -0.1557 -0.1667
   70POPC   C1B 1150   1.968   3.555   6.800 -0.1044 -0.2720  0.3338
   70POPC   C2B 1151   1.970   3.640   6.391 -0.0529  0.1975  0.1139
   70POPC   C3B 1152   2.168   3.605   5.999  0.0129  0.1996 -0.2618
   70POPC   C4B 1153   2.388   3.901   5.701  0.3694 -0.0529  0.1324
   71POPC   NC3 1154   7.624   1.413   7.617  0.1269 -0.1216  0.1785
   71POPC   PO4 1155   7.818   1.719   7.408 -0.0516  0.0542 -0.1730
   71POPC   GL1 1156   7.511   1.633   7.106  0.0450 -0.1273  0.0583
   71POPC   GL2 1157   7.682   1.466   7.017  0.0196  0.1174  0.3492
   71POPC   C1A 1158   7.210   1.901   6.738  0.2232  0.0157  0.1187
   71POPC   D2A 1159   6.864   2.006   6.466  0.0322 -0.0872 -0.0054
   71POPC   C3A 1160   6.799   2.307   6.189 -0.1276 -0.0307 -0.0488
   71POPC   C4A 1161   6.752   2.622   5.893 -0.1415  0.1841 -0.1300
   71POPC   C1B 1162   7.771   1.042   6.909 -0.2074 -0.1312  0.0970
   71POPC   C2B 1163   7.796   0.737   6.633  0.2120  0.2296  0.1277
   71POPC   C3B 1164   7.885   0.561   6.392  0.1739 -0.2199  0.2070
   71POPC   C4B 1165   8.188   0.416   6.024 -0.0479 -0.2012 -0.4340
   72POPC   NC3 1166   9.777   2.137   7.968  0.3387 -0.1768 -0.4786
   72POPC   PO4 1167   9.807   2.410   7.556 -0.2378 -0.0955 -0.0710
   72POPC   GL1 1168   9.722   2.280   7.114 -0.2350 -0.2213 -0.0836
   72POPC   GL2 1169   9.994   2.403   7.062 -0.1243  0.2498 -0.0860
   72POPC   C1A 1170   9.513   2.236   6.714 -0.3194 -0.0673  0.3680
   72POPC   D2A 1171   9.282   2.231   6.431 -0.0026  0.0548  0.1757
   72POPC   C3A 1172   9.253   2.407   6.007 -0.1535 -0.1487 -0.3486
   72POPC   C4A 1173   9.131   2.661   5.760 -0.2878 -0.2875  0.1348
   72POPC   C1B 1174   9.869   2.603   6.611  0.0996 -0.1483  0.1577
   72POPC   C2B 1175   9.572   2.729   6.253  0.4010  0.1627  0.1410
   72POPC   C3B 1176   9.326   3.096   5.960 -0.0860 -0.0502  0.0402
   72POPC   C4B 1177   9.457   3.021   5.566 -0.0574  0.0743 -0.0864
   73POPC   NC3 1178   6.482   4.576   8.273  0.2514 -0.0285  0.0940
   73POPC   PO4 1179   6.446   4.932   8.087 -0.1774 -0.1680 -0.1250
   73POPC   GL1 1180   6.451   5.078   7.730 -0.1217 -0.3253 -0.1542
   73POPC   GL2 1181   6.774   5.408   7.566  0.2484  0.1309 -0.2931
   73POPC   C1A 1182   6.606   4.902   7.336  0.4059 -0.2169  0.1118
   73POPC   D2A 1183   6.535   4.525   7.252  0.2279  0.3046 -0.1556
   73POPC   C3A 1184   6.296   4.680   6.876  0.2545  0.0095  0.0599
   73POPC   C4A 1185   6.387   4.922   6.567  0.0142  0.0871 -0.0132
   73POPC   C1B 1186   6.383   5.591   7.482  0.0918  0.1531 -0.0244
   73POPC   C2B 1187   6.095   5.544   7.139  0.0172  0.2709 -0.1750
   73POPC   C3B 1188   5.919   5.504   6.855  0.0932  0.0004 -0.0547
   73POPC   C4B 1189   5.942   5.203   6.580 -0.1012  0.0002  0.0240
   74POPC   NC3 1190   2.121   8.292   7.567 -0.1274 -0.0302  0.1622
   74POPC   PO4 1191   2.400   7.981   7.713 -0.4880 -0.1029  0.1401
   74POPC   GL1 1192   2.375   7.871   7.342  0.2253 -0.2799  0.0444
   74POPC   GL2 1193   2.200   8.058   7.060 -0.1380  0.5125  0.0846
   74POPC   C1A 1194   2.604   7.733   6.857  0.0466  0.5781  0.0180
   74POPC   D2A 1195   2.893   7.950   6.533 -0.0286  0.0240 -0.1792
   74POPC   C3A 1196   2.850   8.058   6.167  0.0320 -0.3567  0.2406
   74POPC   C4A 1197   2.760   7.970   5.683  0.1200  0.0861  0.0610
   74POPC   C1B 1198   2.098   8.114   6.729  0.0533 -0.2753  0.2089
   74POPC   C2B 1199   2.164   7.948   6.356  0.0450  0.0486 -0.1952
   74POPC   C3B 1200   2.331   7.787   6.023  0.0356  0.3940  0.0064
   74POPC   C4B 1201   2.347   7.644   5.517  0.5197 -0.0199 -0.1579
   75POPC   NC3 1202   5.209   0.038   7.532  0.1920 -0.1637  0.0146
   75POPC   PO4 1203   5.451  -0.225   7.271  0.1448  0.0737  0.2408
   75POPC   GL1 1204   5.070  -0.138   7.028 -0.1584 -0.0342  0.0656
   75POPC   GL2 1205   4.974  -0.466   6.928 -0.0944 -0.0218 -0.4269
   75POPC   C1A 1206   5.109  -0.056   6.572  0.0729  0.3377 -0.1879
   75POPC   D2A 1207   5.016  -0.155   6.104  0.1654  0.0001  0.0091
   75POPC   C3A 1208   4.962   0.121   5.713 -0.1648 -0.0416  0.0517
   75POPC   C4A 1209   5.100   0.544   5.457  0.1581  0.1631 -0.0200
   75POPC   C1B 1210   4.638  -0.368   6.594 -0.1738  0.2192 -0.3408
   75POPC   C2B 1211   4.540  -0.049   6.275 -0.3729  0.1571  0.1669
   75POPC   C3B 1212   4.536   0.094   5.902  0.1468  0.2054  0.2361
   75POPC   C4B 1213   4.589   0.336   5.444 -0.1000 -0.1200 -0.0940
   76POPC   NC3 1214   8.933   0.795   8.101 -0.1433  0.1373 -0.2333
   76POPC   PO4 1215   8.953   0.848   7.606 -0.0077 -0.2288  0.2802
   76POPC   GL1 1216   8.817   0.926   7.195  0.0810  0.1476 -0.0237
   76POPC   GL2 1217   9.043   0.640   7.065  0.0990  0.0137 -0.1050
   76POPC   C1A 1218   9.125   1.224   6.925 -0.0316 -0.0831 -0.1289
   76POPC   D2A 1219   9.554   1.348   6.623 -0.1527  0.1646 -0.5354
   76POPC   C3A 1220   9.765   1.734   6.457  0.1051 -0.1219 -0.0430
   76POPC   C4A 1221   9.766   2.125   6.249  0.1716 -0.1813 -0.0054
   76POPC   C1B 1222   8.969   0.363   6.684  0.2519 -0.2651  0.0123
   76POPC   C2B 1223   8.965   0.052   6.231  0.4079  0.0878  0.1180
   76POPC   C3B 1224   8.938  -0.102   5.767 -0.1848 -0.1050 -0.0466
   76POPC   C4B 1225   8.901  -0.287   5.338 -0.0020 -0.1082 -0.4764
   77POPC   NC3 1226   6.345   7.318   7.980 -0.0901 -0.0785  0.1928
   77POPC   PO4 1227   6.088   7.154   7.584  0.1736 -0.1694 -0.0376
   77POPC   GL1 1228   6.039   7.003   7.159  0.1460 -0.4649  0.0870
   77POPC   GL2 1229   6.324   6.955   7.083 -0.2222  0.1884 -0.0772
   77POPC   C1A 1230   5.842   6.817   6.872 -0.2374 -0.3854 -0.1359
   77POPC   D2A 1231   5.890   6.822   6.499  0.1532  0.2681  0.1647
   77POPC   C3A 1232   6.070   6.981   6.242  0.0720 -0.0037 -0.0838
   77POPC   C4A 1233   5.888   7.046   5.831 -0.0557  0.0585 -0.2615
   77POPC   C1B 1234   6.620   7.137   6.715 -0.1786  0.0298 -0.3660
   77POPC   C2B 1235   6.550   7.469   6.495 -0.1044 -0.0957  0.1470
   77POPC   C3B 1236   6.212   7.501   6.283  0.0373 -0.0057 -0.4211
   77POPC   C4B 1237   5.786   7.694   6.101 -0.1970  0.0387  0.0718
   78POPC   NC3 1238   5.171   5.105   7.466  0.0752 -0.0408 -0.1233
   78POPC   PO4 1239   5.260   5.400   7.772 -0.2470  0.0067  0.0233
   78POPC   GL1 1240   5.269   5.655   7.349  0.3346 -0.0821  0.2853
   78POPC   GL2 1241   5.607   5.797   7.192  0.0682 -0.0963  0.0145
   78POPC   C1A 1242   5.023   6.000   7.111  0.1722 -0.1849 -0.4082
   78POPC   D2A 1243   5.045   6.041   6.732  0.7039  0.1186  0.1197
   78POPC   C3A 1244   4.689   5.879   6.464 -0.0874  0.1375 -0.2160
   78POPC   C4A 1245   4.321   5.812   6.124  0.0768 -0.0530 -0.2595
   78POPC   C1B 1246   5.476   5.712   6.809 -0.1124 -0.1546  0.2594
   78POPC   C2B 1247   5.657   5.583   6.413  0.0193 -0.4998  0.0561
   78POPC   C3B 1248   6.089   5.538   6.217  0.1058 -0.0071 -0.1926
   78POPC   C4B 1249   6.303   5.573   5.847 -0.3893 -0.3062 -0.1313
   79POPC   NC3 1250   2.618   2.235   7.670 -0.0801  0.1494 -0.2235
   79POPC   PO4 1251   2.846   2.624   7.374 -0.0691  0.0356 -0.1229
   79POPC   GL1 1252   3.020   2.910   7.117  0.0636 -0.0915  0.2298
   79POPC   GL2 1253   3.270   2.864   6.904 -0.0219  0.2414 -0.0251
   79POPC   C1A 1254   2.960   3.216   6.696  0.0197  0.4060 -0.0521
   79POPC   D2A 1255   2.866   3.330   6.264  0.0693 -0.1194 -0.0089
   79POPC   C3A 1256   3.135   3.549   6.028 -0.2405  0.0088 -0.2918
   79POPC   C4A 1257   3.505   3.589   5.733 -0.0525  0.0780 -0.1467
   79POPC   C1B 1258   3.274   2.813   6.509  0.0715  0.1874  0.1733
   79POPC   C2B 1259   3.151   2.406   6.333 -0.1446  0.3940  0.1785
   79POPC   C3B 1260   3.082   2.014   6.106 -0.1166 -0.1030 -0.0554
   79POPC   C4B 1261   3.014   1.629   5.873  0.1717 -0.0861  0.3831
   80POPC   NC3 1262   7.579   0.457   7.770  0.0314 -0.2951  0.0048
   80POPC   PO4 1263   7.956   0.198   7.711 -0.1025 -0.0110  0.1183
   80POPC   GL1 1264   8.094   0.146   7.267  0.3920 -0.0763  0.0406
   80POPC   GL2 1265   8.292  -0.132   7.271  0.0362 -0.1197 -0.0455
   80POPC   C1A 1266   8.319   0.213   6.945  0.2138  0.0965  0.0445
   80POPC   D2A 1267   8.297   0.542   6.696  0.0228 -0.3249  0.2204
   80POPC   C3A 1268   8.659   0.752   6.735 -0.3018 -0.0523 -0.0389
   80POPC   C4A 1269   8.796   1.119   6.505  0.0038 -0.0880 -0.0444
   80POPC   C1B 1270   8.290  -0.361   6.889 -0.1550  0.1685  0.1481
   80POPC   C2B 1271   8.178  -0.481   6.390  0.0654 -0.0910 -0.2651
   80POPC   C3B 1272   8.255  -0.643   5.963 -0.0964 -0.0419 -0.0869
   80POPC   C4B 1273   8.474  -0.349   5.635 -0.2716  0.0783 -0.4873
   81POPC   NC3 1274   8.396   4.750   8.531 -0.5373  0.1061 -0.0877
   81POPC   PO4 1275   8.159   4.449   8.416 -0.2498 -0.1959  0.0065
   81POPC   GL1 1276   8.081   4.428   8.055  0.0224 -0.0972  0.3323
   81POPC   GL2 1277   8.202   4.220   7.816 -0.1782  0.3338 -0.0094
   81POPC   C1A 1278   8.052   4.790   7.782  0.0604  0.1721 -0.0718
   81POPC   D2A 1279   7.837   5.146   7.801  0.0954 -0.0322  0.1378
   81POPC   C3A 1280   7.619   5.146   7.421  0.1617 -0.0167 -0.1772
   81POPC   C4A 1281   7.177   5.029   7.295 -0.0892  0.0531 -0.2497
   81POPC   C1B 1282   8.462   4.505   7.536 -0.0356  0.1897  0.2183
   81POPC   C2B 1283   8.501   4.751   7.178 -0.0673 -0.0024  0.0581
   81POPC   C3B 1284   8.401   5.041   6.812  0.0419 -0.2352 -0.1049
   81POPC   C4B 1285   8.473   5.154   6.385 -0.1949  0.0951 -0.1170
   82POPC   NC3 1286   5.126   9.998   7.384 -0.0655 -0.1512 -0.1065
   82POPC   PO4 1287   5.430   9.848   7.367  0.0965  0.0209  0.1177
   82POPC   GL1 1288   5.529  10.002   6.973 -0.0774  0.1309 -0.0406
   82POPC   GL2 1289   5.485  10.234   6.798 -0.2304  0.1147 -0.2892
   82POPC   C1A 1290   5.470   9.701   6.587  0.0667  0.0793  0.0302
   82POPC   D2A 1291   5.199   9.568   6.348 -0.1906  0.1264 -0.1877
   82POPC   C3A 1292   5.308   9.504   5.833 -0.1902 -0.0489 -0.0464
   82POPC   C4A 1293   5.069   9.699   5.542  0.1747 -0.0818 -0.2281
   82POPC   C1B 1294   5.171  10.069   6.438 -0.0215  0.2401 -0.1127
   82POPC   C2B 1295   5.122   9.950   5.988  0.1998  0.1264 -0.2217
   82POPC   C3B 1296   5.028  10.164   5.666  0.1150  0.0023  0.1945
   82POPC   C4B 1297   4.984  10.208   5.214  0.3264 -0.3401 -0.1668
   83POPC   NC3 1298   9.360   8.656   7.643 -0.0815 -0.2219  0.1494
   83POPC   PO4 1299   9.526   8.305   7.877  0.1636  0.2136  0.1784
   83POPC   GL1 1300   9.574   8.227   7.340 -0.2978 -0.1751 -0.0718
   83POPC   GL2 1301   9.819   8.049   7.437  0.1846 -0.2956 -0.0138
   83POPC   C1A 1302   9.760   8.170   6.934  0.3282 -0.0026  0.0784
   83POPC   D2A 1303   9.852   8.354   6.496  0.0512 -0.2195 -0.0054
   83POPC   C3A 1304  10.014   8.384   6.074  0.0263  0.2515  0.2714
   83POPC   C4A 1305  10.069   8.255   5.670 -0.0886 -0.0791 -0.2274
   83POPC   C1B 1306  10.193   7.889   7.213 -0.3631 -0.3904  0.0806
   83POPC   C2B 1307  10.203   7.588   6.877  0.1693 -0.2607 -0.1444
   83POPC   C3B 1308  10.077   7.393   6.379 -0.2296 -0.0142 -0.1651
   83POPC   C4B 1309   9.931   7.104   6.141 -0.1912  0.2163  0.1043
   84POPC   NC3 1310   5.423   2.066   7.475  0.1278  0.1458  0.0030
   84POPC   PO4 1311   5.610   2.462   7.535  0.1609 -0.4319  0.2464
   84POPC   GL1 1312   5.389   2.594   7.159 -0.0097 -0.5634 -0.0323
   84POPC   GL2 1313   5.571   2.644   6.853 -0.1843 -0.0532 -0.0193
   84POPC   C1A 1314   5.238   2.225   6.840 -0.0919  0.0862 -0.2281
   84POPC   D2A 1315   5.417   2.126   6.413  0.2201 -0.0349  0.1451
   84POPC   C3A 1316   5.524   1.674   6.369  0.0999  0.0686  0.1445
   84POPC   C4A 1317   5.828   1.462   6.260 -0.0955  0.0677 -0.0554
   84POPC   C1B 1318   5.405   2.601   6.531 -0.0879  0.1393 -0.0287
   84POPC   C2B 1319   5.140   2.803   6.354 -0.1089 -0.2409  0.1296
   84POPC   C3B 1320   4.869   2.701   5.978  0.1006  0.0368 -0.2113
   84POPC   C4B 1321   4.547   2.318   5.795 -0.1682 -0.0774  0.2724
   85POPC   NC3 1322   7.185   3.638   8.329 -0.3255 -0.2633  0.1479
   85POPC   PO4 1323   7.266   3.164   8.024  0.0521  0.0760 -0.2178
   85POPC   GL1 1324   7.280   3.429   7.753 -0.2464 -0.1368  0.1078
   85POPC   GL2 1325   7.087   3.523   7.421  0.2903  0.1041  0.2390
   85POPC   C1A 1326   7.610   3.513   7.368 -0.0737  0.0639  0.1840
   85POPC   D2A 1327   7.816   3.639   7.071 -0.1424  0.0299  0.1327
   85POPC   C3A 1328   7.761   4.019   6.713 -0.1684 -0.4157 -0.1297
   85POPC   C4A 1329   7.646   4.426   6.758  0.1475 -0.2406 -0.4155
   85POPC   C1B 1330   7.178   3.568   7.041  0.3165 -0.4510  0.0282
   85POPC   C2B 1331   7.394   3.678   6.695  0.1168 -0.3551  0.0310
   85POPC   C3B 1332   7.498   3.959   6.324  0.3078 -0.2675  0.1948
   85POPC   C4B 1333   7.704   3.981   6.008 -0.2231 -0.1701  0.3174
   86POPC   NC3 1334   7.236   8.954   7.465  0.0855 -0.0957 -0.0772
   86POPC   PO4 1335   7.595   8.780   7.402  0.0391  0.1765  0.0615
   86POPC   GL1 1336   7.503   8.635   7.006 -0.3558  0.2175 -0.0423
   86POPC   GL2 1337   7.258   8.508   7.047 -0.0898  0.0015  0.2623
   86POPC   C1A 1338   7.615   8.555   6.536  0.3706  0.2204  0.3972
   86POPC   D2A 1339   7.690   8.894   6.174 -0.0117  0.0185  0.2938
   86POPC   C3A 1340   7.721   8.833   5.711 -0.0059 -0.4804 -0.3155
   86POPC   C4A 1341   7.602   9.200   5.464  0.1045 -0.2523  0.2549
   86POPC   C1B 1342   7.213   8.211   6.730  0.0209  0.4633  0.1952
   86POPC   C2B 1343   7.343   8.043   6.360 -0.3853  0.1287 -0.0642
   86POPC   C3B 1344   7.358   7.925   5.879  0.1881 -0.3219  0.4089
   86POPC   C4B 1345   6.944   8.002   5.751  0.0480 -0.1838 -0.1498
   87POPC   NC3 1346   7.893   8.511   7.709  0.0955  0.3495  0.1815
   87POPC   PO4 1347   7.616   8.209   7.592 -0.0388 -0.1633  0.0854
   87POPC   GL1 1348   7.593   8.061   7.178  0.2255 -0.1180  0.0133
   87POPC   GL2 1349   7.850   8.257   7.093 -0.0977  0.1676 -0.1058
   87POPC   C1A 1350   7.601   7.898   6.771  0.0008  0.0998 -0.1490
   87POPC   D2A 1351   7.638   7.667   6.434  0.2298 -0.1593  0.1188
   87POPC   C3A 1352   7.486   7.263   6.603  0.2928 -0.1746  0.1127
   87POPC   C4A 1353   7.614   6.839   6.733  0.0540 -0.4343 -0.0933
   87POPC   C1B 1354   7.968   8.234   6.684 -0.0252 -0.0461 -0.0310
   87POPC   C2B 1355   7.963   8.080   6.358  0.3781  0.0832 -0.2477
   87POPC   C3B 1356   7.885   7.833   5.959  0.1223  0.0461 -0.1871
   87POPC   C4B 1357   7.945   7.357   5.902  0.1384 -0.2965 -0.0986
   88POPC   NC3 1358   0.374   3.143   8.504  0.1324 -0.0262 -0.2007
   88POPC   PO4 1359   0.079   3.123   8.166  0.1385 -0.0932  0.1358
   88POPC   GL1 1360   0.231   3.213   7.679 -0.1403  0.1752 -0.0432
   88POPC   GL2 1361  -0.107   3.293   7.449  0.1591  0.0673 -0.2420
   88POPC   C1A 1362   0.429   3.382   7.295 -0.0238 -0.1867  0.0696
   88POPC   D2A 1363   0.568   3.878   7.261  0.1417  0.0410  0.3665
   88POPC   C3A 1364   1.026   3.892   7.109  0.2861  0.2089 -0.1263
   88POPC   C4A 1365   1.390   3.957   6.971 -0.2149 -0.2363 -0.3487
   88POPC   C1B 1366  -0.050   3.206   7.004  0.1217 -0.1371 -0.3448
   88POPC   C2B 1367  -0.041   3.406   6.552  0.2615 -0.3610 -0.0584
   88POPC   C3B 1368   0.024   3.668   6.202  0.1749 -0.0949 -0.1533
   88POPC   C4B 1369  -0.194   3.909   5.995  0.1480  0.3004  0.2725
   89POPC   NC3 1370   2.798   7.198   7.713 -0.2016  0.1478 -0.1569
   89POPC   PO4 1371   3.213   7.334   7.831 -0.0939 -0.3057 -0.1035
   89POPC   GL1 1372   3.263   7.367   7.363  0.1485 -0.0629  0.1790
   89POPC   GL2 1373   3.126   7.620   7.061 -0.0246  0.0885  0.0854
   89POPC   C1A 1374   3.520   7.229   7.055 -0.0761 -0.1359  0.2936
   89POPC   D2A 1375   3.574   7.392   6.641 -0.0619 -0.0047 -0.0813
   89POPC   C3A 1376   3.705   7.164   6.289 -0.0426 -0.1238  0.2152
   89POPC   C4A 1377   3.781   6.877   5.872 -0.0017 -0.0816 -0.0296
   89POPC   C1B 1378   3.104   7.511   6.605 -0.1851  0.2990 -0.1166
   89POPC   C2B 1379   3.106   7.568   6.164 -0.0448 -0.1973  0.3646
   89POPC   C3B 1380   3.253   7.904   5.958 -0.0079 -0.1887  0.0893
   89POPC   C4B 1381   3.189   8.036   5.520 -0.4063  0.0835 -0.2078
   90POPC   NC3 1382   0.388   8.227   7.524  0.1594 -0.0881  0.0272
   90POPC   PO4 1383  -0.008   8.334   7.601 -0.1172 -0.2273  0.1490
   90POPC   GL1 1384   0.019   8.135   7.088  0.0504  0.1071  0.3685
   90POPC   GL2 1385   0.242   8.277   6.883  0.0084 -0.0613 -0.0514
   90POPC   C1A 1386  -0.009   7.833   6.752  0.1410 -0.0638 -0.2517
   90POPC   D2A 1387  -0.112   7.488   6.529 -0.0463 -0.0336 -0.0713
   90POPC   C3A 1388  -0.165   7.469   6.136  0.1373  0.1209 -0.0065
   90POPC   C4A 1389  -0.188   7.214   5.619  0.1716 -0.3842  0.1657
   90POPC   C1B 1390   0.207   8.143   6.375 -0.1675  0.1663 -0.3039
   90POPC   C2B 1391   0.209   7.767   6.219  0.0851 -0.3260 -0.0210
   90POPC   C3B 1392   0.041   7.737   5.744  0.1952  0.1757 -0.0551
   90POPC   C4B 1393  -0.334   7.694   5.487 -0.0295  0.0741 -0.3152
   91POPC   NC3 1394   3.913   1.478   8.203 -0.4117  0.0737 -0.2825
   91POPC   PO4 1395   3.942   1.702   7.837 -0.2370  0.2566 -0.1758
   91POPC   GL1 1396   3.969   1.590   7.469  0.0669  0.0705  0.2988
   91POPC   GL2 1397   4.274   1.502   7.374 -0.1373  0.1805 -0.2535
   91POPC   C1A 1398   3.913   1.399   7.060  0.2403 -0.0826  0.1020
   91POPC   D2A 1399   4.094   1.156   6.772  0.4208 -0.4251  0.1511
   91POPC   C3A 1400   4.268   1.417   6.491 -0.0437 -0.0207  0.0307
   91POPC   C4A 1401   3.962   1.727   6.241 -0.0102  0.1016  0.0383
   91POPC   C1B 1402   4.456   1.668   6.967  0.1255  0.0395 -0.0549
   91POPC   C2B 1403   4.592   1.833   6.521  0.3843 -0.0505 -0.1359
   91POPC   C3B 1404   4.577   1.890   6.094  0.1798 -0.2304  0.1712
   91POPC   C4B 1405   4.308   1.754   5.726  0.1597  0.1065 -0.0402
   92POPC   NC3 1406   9.382   6.739   8.876 -0.1062  0.3535  0.1030
   92POPC   PO4 1407   9.356   6.278   8.727 -0.0141 -0.1535  0.1456
   92POPC   GL1 1408   9.231   5.974   8.525 -0.2840 -0.2977 -0.0985
   92POPC   GL2 1409   8.894   5.917   8.363 -0.0262  0.1117 -0.0115
   92POPC   C1A 1410   9.416   5.699   8.219 -0.0060 -0.1420  0.3450
   92POPC   D2A 1411   9.457   5.515   7.834  0.0516 -0.1037 -0.1635
   92POPC   C3A 1412   8.971   5.417   7.656  0.0149 -0.1130 -0.0084
   92POPC   C4A 1413   8.720   5.274   7.225 -0.0149 -0.0928 -0.0450
   92POPC   C1B 1414   8.626   5.761   8.215 -0.0995 -0.2681  0.1324
   92POPC   C2B 1415   8.448   5.440   7.942  0.0146 -0.1470  0.1898
   92POPC   C3B 1416   8.504   5.067   7.662 -0.1362  0.0102 -0.2006
   92POPC   C4B 1417   8.621   4.782   7.916  0.2212 -0.0401 -0.1841
   93POPC   NC3 1418   4.935   0.686   7.155  0.2453 -0.0300  0.2419
   93POPC   PO4 1419   5.251   0.371   7.130  0.0759 -0.0692 -0.2196
   93POPC   GL1 1420   5.241   0.433   6.810 -0.0507  0.1876  0.1043
   93POPC   GL2 1421   5.540   0.416   6.640 -0.0247 -0.1040  0.0773
   93POPC   C1A 1422   5.036   0.640   6.505  0.1328 -0.0994 -0.2182
   93POPC   D2A 1423   4.902   0.924   6.175 -0.0557  0.0348  0.2023
   93POPC   C3A 1424   5.083   0.918   5.820  0.2715 -0.1331  0.1457
   93POPC   C4A 1425   5.329   1.008   5.518 -0.2834 -0.1955  0.3361
   93POPC   C1B 1426   5.372   0.216   6.214  0.0038 -0.1111 -0.0828
   93POPC   C2B 1427   5.507   0.036   5.814  0.1169 -0.0391 -0.0222
   93POPC   C3B 1428   5.351  -0.045   5.299  0.0417  0.1082  0.0125
   93POPC   C4B 1429   5.403  -0.299   5.048  0.0959 -0.7230 -0.0919
   94POPC   NC3 1430   0.928   2.657   8.060  0.0569  0.0481  0.2575
   94POPC   PO4 1431   0.957   2.768   7.607 -0.1660 -0.2194  0.0812
   94POPC   GL1 1432   1.217   2.619   7.293  0.1673 -0.0101 -0.1554
   94POPC   GL2 1433   1.104   2.371   7.181  0.4900 -0.1233  0.1922
   94POPC   C1A 1434   1.271   2.762   6.848  0.3502 -0.3340  0.1560
   94POPC   D2A 1435   1.248   3.153   6.644  0.2939  0.0282 -0.1568
   94POPC   C3A 1436   1.375   3.148   6.179  0.0185 -0.1085 -0.3013
   94POPC   C4A 1437   1.398   2.957   5.800 -0.2423  0.1838  0.0275
   94POPC   C1B 1438   0.800   2.638   7.021  0.1897 -0.1795 -0.1781
   94POPC   C2B 1439   0.843   2.854   6.572 -0.3428  0.1768 -0.1408
   94POPC   C3B 1440   0.853   2.880   6.229 -0.0191 -0.2736  0.1318
   94POPC   C4B 1441   0.768   3.000   5.784 -0.2444  0.2123  0.1025
   95POPC   NC3 1442   0.403   8.641   7.796 -0.0619 -0.3056 -0.0871
   95POPC   PO4 1443   0.810   8.468   7.680  0.3034  0.2277  0.1915
   95POPC   GL1 1444   0.843   8.210   7.310  0.3404  0.0872  0.1669
   95POPC   GL2 1445   1.177   8.135   7.189 -0.0453  0.1239 -0.2961
   95POPC   C1A 1446   0.725   8.144   6.770  0.0942  0.3943  0.4207
   95POPC   D2A 1447   0.696   7.851   6.402  0.0623 -0.1139 -0.0242
   95POPC   C3A 1448   0.886   7.878   5.997 -0.2584 -0.0744  0.0314
   95POPC   C4A 1449   1.121   7.664   5.696 -0.3474 -0.0207 -0.0371
   95POPC   C1B 1450   1.229   8.171   6.757  0.0181 -0.0034  0.3864
   95POPC   C2B 1451   1.207   7.854   6.417  0.1980  0.0404  0.0455
   95POPC   C3B 1452   1.272   7.623   6.168  0.1061  0.2520 -0.6819
   95POPC   C4B 1453   1.526   7.428   5.872  0.1862 -0.3128  0.0425
   96POPC   NC3 1454   9.341   2.534   7.442 -0.0945  0.2300  0.1582
   96POPC   PO4 1455   8.966   2.301   7.513  0.1378 -0.1416 -0.0238
   96POPC   GL1 1456   8.994   2.409   7.112 -0.0864  0.1254  0.1609
   96POPC   GL2 1457   8.659   2.339   7.139 -0.0515 -0.4269  0.1087
   96POPC   C1A 1458   9.008   2.146   6.808  0.1552  0.2561  0.2199
   96POPC   D2A 1459   8.785   2.088   6.387  0.0343 -0.1708 -0.1569
   96POPC   C3A 1460   8.772   2.532   6.129  0.0515 -0.1667  0.1922
   96POPC   C4A 1461   8.652   2.581   5.760 -0.2409  0.2948 -0.1601
   96POPC   C1B 1462   8.500   2.031   6.837 -0.0800  0.1202 -0.0926
   96POPC   C2B 1463   8.308   1.927   6.453  0.0642 -0.0939 -0.1424
   96POPC   C3B 1464   7.970   1.790   6.197 -0.1783  0.3859  0.1068
   96POPC   C4B 1465   7.603   1.834   6.016 -0.5144  0.2400  0.0849
   97POPC   NC3 1466   0.117   9.145   7.842  0.1626  0.1057 -0.0246
   97POPC   PO4 1467   0.504   9.032   7.550 -0.2408 -0.1204  0.2948
   97POPC   GL1 1468   0.601   8.863   7.332 -0.3165  0.2068  0.3669
   97POPC   GL2 1469   0.181   8.767   7.241  0.0159  0.2956  0.2375
   97POPC   C1A 1470   0.637   8.709   6.869  0.0328 -0.3076 -0.1310
   97POPC   D2A 1471   0.510   8.614   6.552 -0.0389 -0.0044 -0.1682
   97POPC   C3A 1472   0.649   8.379   6.134  0.2372  0.0094  0.2504
   97POPC   C4A 1473   0.782   8.375   5.687 -0.0948 -0.0553  0.4452
   97POPC   C1B 1474   0.131   8.909   6.823  0.1639 -0.1576  0.0165
   97POPC   C2B 1475   0.210   9.063   6.417  0.1010 -0.1444 -0.1535
   97POPC   C3B 1476   0.538   8.943   6.091 -0.2164  0.0897  0.2595
   97POPC   C4B 1477   0.919   8.750   6.075 -0.0933 -0.0637  0.1411
   98POPC   NC3 1478   9.780   7.851   7.900 -0.0295 -0.1717  0.1606
   98POPC   PO4 1479   9.500   7.535   8.045  0.2408 -0.1257 -0.0429
   98POPC   GL1 1480   9.695   7.450   7.551 -0.0093  0.0346 -0.0722
   98POPC   GL2 1481   9.387   7.727   7.478 -0.0524 -0.1640  0.1580
   98POPC   C1A 1482   9.989   7.382   7.291 -0.1713 -0.1425  0.2257
   98POPC   D2A 1483  10.444   7.273   7.338  0.1118 -0.0104 -0.1641
   98POPC   C3A 1484  10.719   7.564   7.242 -0.1172 -0.3264  0.2162
   98POPC   C4A 1485  11.167   7.328   7.211  0.1227 -0.0073  0.1892
   98POPC   C1B 1486   9.474   7.729   6.971 -0.2650 -0.0929  0.2814
   98POPC   C2B 1487   9.732   7.762   6.676 -0.2272  0.1959  0.1776
   98POPC   C3B 1488   9.804   7.875   6.303  0.0036 -0.2546 -0.2401
   98POPC   C4B 1489   9.677   7.934   5.896  0.1856  0.0827 -0.3303
   99POPC   NC3 1490   4.585   2.461   7.861  0.2635 -0.1498 -0.2436
   99POPC   PO4 1491   4.667   2.788   7.499  0.1743  0.1357  0.2016
   99POPC   GL1 1492   4.890   3.025   7.147 -0.2946  0.1440  0.2414
   99POPC   GL2 1493   5.137   2.960   6.937  0.2662 -0.1662  0.1586
   99POPC   C1A 1494   4.729   3.112   6.726  0.3735  0.1090  0.1605
   99POPC   D2A 1495   4.552   3.179   6.399 -0.1562 -0.1405  0.0662
   99POPC   C3A 1496   4.818   3.215   6.057 -0.0241 -0.1685 -0.0858
   99POPC   C4A 1497   5.081   3.120   5.777  0.1911 -0.3435  0.1611
   99POPC   C1B 1498   4.894   2.617   6.841  0.0656  0.0520  0.3152
   99POPC   C2B 1499   4.920   2.305   6.444 -0.2036 -0.0365  0.1377
   99POPC   C3B 1500   5.123   2.229   6.060  0.2510 -0.2188 -0.0514
   99POPC   C4B 1501   5.541   2.415   6.028  0.1746 -0.1874 -0.1565
  100POPC   NC3 1502   4.378   9.625   7.481  0.1569 -0.1350  0.0234
  100POPC   PO4 1503   4.622   9.859   7.241  0.1096 -0.3220 -0.0429
  100POPC   GL1 1504   4.382  10.082   6.970  0.0003 -0.1999  0.1995
  100POPC   GL2 1505   4.301  10.376   7.035 -0.1145  0.0966 -0.1368
  100POPC   C1A 1506   3.966  10.085   6.781  0.0374  0.0058 -0.1785
  100POPC   D2A 1507   3.583  10.051   6.438  0.1200  0.0130  0.2155
  100POPC   C3A 1508   3.572  10.018   6.029 -0.1615 -0.3154 -0.0144
  100POPC   C4A 1509   3.489   9.666   5.703  0.0065 -0.0258 -0.2868
  100POPC   C1B 1510   4.530  10.659   6.895  0.0798  0.1055 -0.2768
  100POPC   C2B 1511   4.772  10.925   6.686 -0.0264 -0.2579  0.3501
  100POPC   C3B 1512   4.670  11.082   6.263 -0.2079  0.1528  0.0980
  100POPC   C4B 1513   4.760  11.250   5.905  0.3075 -0.1385  0.0592
  101POPC   NC3 1514   1.354   5.774   7.636  0.2371 -0.0103  0.2862
  101POPC   PO4 1515   1.005   5.771   7.812  0.0855  0.0734  0.1401
  101POPC   GL1 1516   0.806   5.751   7.465 -0.3899  0.0683  0.2168
  101POPC   GL2 1517   1.099   5.860   7.221  0.3016  0.3962 -0.1073
  101POPC   C1A 1518   0.343   5.738   7.207 -0.0084 -0.0924 -0.0986
  101POPC   D2A 1519   0.142   6.025   6.842  0.0609  0.0974 -0.1343
  101POPC   C3A 1520   0.330   6.232   6.479  0.0310  0.1088  0.0461
  101POPC   C4A 1521   0.746   6.210   6.424  0.0528 -0.4575 -0.0562
  101POPC   C1B 1522   1.447   5.880   7.014 -0.0235  0.2076 -0.0398
  101POPC   C2B 1523   1.613   5.984   6.585 -0.1584  0.1659  0.0227
  101POPC   C3B 1524   1.974   5.679   6.444  0.2284 -0.0026  0.0225
  101POPC   C4B 1525   2.303   5.690   6.112  0.0510  0.0073  0.0899
  102POPC   NC3 1526  10.551   1.459   7.872  0.2382 -0.0531 -0.0761
  102POPC   PO4 1527  10.245   1.189   8.013  0.1821 -0.0005  0.2820
  102POPC   GL1 1528  10.181   1.393   7.544  0.0831  0.2796 -0.0803
  102POPC   GL2 1529  10.377   1.743   7.490 -0.1514 -0.0744 -0.4440
  102POPC   C1A 1530  10.285   1.278   7.104  0.2983  0.2918  0.2049
  102POPC   D2A 1531  10.060   1.331   6.719  0.2241 -0.0481  0.1605
  102POPC   C3A 1532  10.196   1.047   6.417 -0.0861 -0.0903 -0.0869
  102POPC   C4A 1533  10.478   0.891   6.111  0.1966 -0.0815 -0.2332
  102POPC   C1B 1534  10.486   1.723   7.106 -0.2136  0.0351 -0.0260
  102POPC   C2B 1535  10.413   1.581   6.625  0.1260 -0.1391  0.0092
  102POPC   C3B 1536  10.269   1.683   6.206  0.0887 -0.0317  0.2545
  102POPC   C4B 1537   9.897   1.398   6.124  0.0033 -0.2454  0.0031
  103POPC   NC3 1538   2.673   6.314   7.503  0.1883  0.0203 -0.1133
  103POPC   PO4 1539   3.001   6.228   7.622  0.0955  0.3268  0.0434
  103POPC   GL1 1540   3.104   6.433   7.320 -0.3177  0.2223  0.0313
  103POPC   GL2 1541   2.957   6.389   7.055  0.2530 -0.3975  0.1282
  103POPC   C1A 1542   3.407   6.693   7.063  0.0612 -0.2635 -0.1903
  103POPC   D2A 1543   3.620   6.877   6.693  0.1499  0.1522  0.3538
  103POPC   C3A 1544   3.845   6.659   6.353  0.0084 -0.0259  0.6563
  103POPC   C4A 1545   4.094   6.437   6.035 -0.0328 -0.2944  0.0711
  103POPC   C1B 1546   3.137   6.526   6.624 -0.2883 -0.2514  0.0065
  103POPC   C2B 1547   3.387   6.666   6.157 -0.0544 -0.0152  0.4428
  103POPC   C3B 1548   3.321   6.689   5.741 -0.1174 -0.3383 -0.2462
  103POPC   C4B 1549   3.003   6.369   5.620 -0.0989 -0.0916  0.4243
  104POPC   NC3 1550   8.164   3.164   8.255 -0.1211  0.0423 -0.0325
  104POPC   PO4 1551   8.268   3.006   7.775 -0.3880 -0.2566 -0.3718
  104POPC   GL1 1552   8.264   3.083   7.442 -0.1954  0.2033 -0.0333
  104POPC   GL2 1553   8.128   3.436   7.387 -0.1364  0.1180 -0.0828
  104POPC   C1A 1554   8.593   3.212   7.155  0.1672 -0.1190 -0.0475
  104POPC   D2A 1555   8.801   3.597   7.208  0.1134  0.1364 -0.0710
  104POPC   C3A 1556   9.192   3.614   7.045 -0.1191 -0.2654  0.1323
  104POPC   C4A 1557   9.602   3.339   7.100 -0.1875 -0.0408  0.1502
  104POPC   C1B 1558   8.147   3.239   6.934  0.0693 -0.0634  0.0130
  104POPC   C2B 1559   8.241   3.157   6.545  0.2594 -0.1134  0.0566
  104POPC   C3B 1560   8.600   3.025   6.271  0.1854  0.0900  0.1623
  104POPC   C4B 1561   9.029   3.007   6.358  0.1532 -0.1470  0.0852
  105POPC   NC3 1562   8.302   3.963   8.279 -0.2409  0.1909  0.0805
  105POPC   PO4 1563   8.603   3.952   7.931  0.0109  0.3221 -0.2993
  105POPC   GL1 1564   8.631   3.978   7.505  0.1047  0.2686  0.1706
  105POPC   GL2 1565   8.359   3.934   7.381 -0.1932  0.1480  0.1765
  105POPC   C1A 1566   8.614   4.259   7.107 -0.1132 -0.0652 -0.2956
  105POPC   D2A 1567   8.697   4.462   6.793  0.2276 -0.2327 -0.1493
  105POPC   C3A 1568   8.440   4.677   6.524  0.1971 -0.3200  0.2720
  105POPC   C4A 1569   8.023   4.767   6.628 -0.0103  0.1356  0.1079
  105POPC   C1B 1570   8.341   3.685   6.975 -0.1052  0.4618 -0.2419
  105POPC   C2B 1571   8.143   3.671   6.608 -0.0054 -0.1296 -0.1302
  105POPC   C3B 1572   8.058   4.113   6.318  0.0784  0.0850  0.0262
  105POPC   C4B 1573   7.792   4.522   6.239  0.1520  0.3142  0.0716
  106POPC   NC3 1574   3.936  10.615   7.521 -0.0340  0.0974  0.0314
  106POPC   PO4 1575   4.001  11.079   7.408  0.0002  0.1742  0.0237
  106POPC   GL1 1576   4.051  10.826   7.029  0.2935 -0.1576  0.0785
  106POPC   GL2 1577   3.863  10.544   6.982 -0.1364  0.0743 -0.0425
  106POPC   C1A 1578   4.239  11.036   6.706 -0.3149  0.0107  0.0762
  106POPC   D2A 1579   4.154  11.283   6.400 -0.0802  0.0964  0.0326
  106POPC   C3A 1580   4.270  11.272   5.949  0.1946  0.2257  0.0629
  106POPC   C4A 1581   4.086  11.127   5.652 -0.2797 -0.0280  0.2058
  106POPC   C1B 1582   4.116  10.500   6.526 -0.0763  0.0504  0.0462
  106POPC   C2B 1583   4.079  10.765   6.192 -0.2726  0.0151  0.2999
  106POPC   C3B 1584   3.769  11.019   6.047 -0.1792 -0.3332  0.2113
  106POPC   C4B 1585   3.542  11.212   5.688  0.2415 -0.0758  0.1498
  107POPC   NC3 1586   7.840   0.772   8.085 -0.1074  0.0115  0.2608
  107POPC   PO4 1587   7.558   0.966   7.755  0.0169 -0.2702  0.2247
  107POPC   GL1 1588   7.593   0.882   7.322 -0.1405 -0.0267 -0.1948
  107POPC   GL2 1589   7.411   0.593   7.295 -0.3434 -0.2399  0.1126
  107POPC   C1A 1590   7.844   0.552   7.107  0.1277  0.1169  0.0476
  107POPC   D2A 1591   7.863   0.215   6.757 -0.0801  0.1038  0.0258
  107POPC   C3A 1592   8.020  -0.042   6.480  0.0560 -0.0039 -0.1138
  107POPC   C4A 1593   7.698   0.062   6.224  0.4036 -0.1627  0.2479
  107POPC   C1B 1594   7.404   0.463   6.911 -0.1116 -0.2894  0.2514
  107POPC   C2B 1595   7.370   0.379   6.444  0.3716 -0.0845 -0.2784
  107POPC   C3B 1596   7.225   0.123   6.111 -0.0904  0.1703  0.2787
  107POPC   C4B 1597   7.519   0.137   5.781  0.1659 -0.2251 -0.0413
  108POPC   NC3 1598   7.637   6.673   8.192 -0.1754  0.1665 -0.0721
  108POPC   PO4 1599   7.891   7.004   8.175 -0.1857 -0.0771 -0.0086
  108POPC   GL1 1600   7.742   7.105   7.758  0.0562 -0.2398  0.1260
  108POPC   GL2 1601   7.506   7.163   7.509  0.4981 -0.1521  0.1735
  108POPC   C1A 1602   7.997   7.381   7.417 -0.4169 -0.3584  0.1979
  108POPC   D2A 1603   8.403   7.247   7.177  0.3124  0.3109 -0.2923
  108POPC   C3A 1604   8.323   7.054   6.873 -0.0143 -0.2220 -0.1070
  108POPC   C4A 1605   8.113   6.709   6.804  0.0078 -0.0719  0.2198
  108POPC   C1B 1606   7.329   7.136   7.133  0.0138 -0.0325  0.0849
  108POPC   C2B 1607   7.086   6.965   6.796 -0.3169  0.0741  0.0968
  108POPC   C3B 1608   7.242   6.768   6.351  0.1096 -0.1362  0.0979
  108POPC   C4B 1609   7.667   6.857   6.224  0.1579  0.0855  0.1137
  109POPC   NC3 1610   0.008   6.894   8.146 -0.0797 -0.3070 -0.0640
  109POPC   PO4 1611   0.262   7.005   7.790  0.4436  0.2470  0.1702
  109POPC   GL1 1612   0.347   6.738   7.536  0.2633 -0.1125  0.2643
  109POPC   GL2 1613   0.560   6.588   7.638  0.1441  0.0496 -0.1988
  109POPC   C1A 1614   0.633   6.880   7.192  0.2813  0.2466  0.0076
  109POPC   D2A 1615   0.734   6.617   6.840 -0.5575  0.1488  0.0792
  109POPC   C3A 1616   0.807   6.721   6.421  0.0410 -0.2469 -0.1128
  109POPC   C4A 1617   0.624   6.875   6.014 -0.2925  0.0537  0.2248
  109POPC   C1B 1618   0.725   6.295   7.362  0.0845  0.3377 -0.0452
  109POPC   C2B 1619   0.658   6.122   6.924  0.1452  0.0247 -0.0287
  109POPC   C3B 1620   0.575   5.757   6.612  0.0609  0.3329  0.0979
  109POPC   C4B 1621   0.599   5.769   6.219  0.3490 -0.0008  0.0761
  110POPC   NC3 1622   7.007   2.212   7.340 -0.0948  0.1090  0.0731
  110POPC   PO4 1623   7.291   2.529   7.381  0.5854  0.2057 -0.0142
  110POPC   GL1 1624   7.528   2.692   7.098 -0.1590  0.2012  0.3113
  110POPC   GL2 1625   7.246   2.841   6.939 -0.2014  0.1604  0.0317
  110POPC   C1A 1626   7.941   2.780   6.875  0.0148  0.0042  0.0577
  110POPC   D2A 1627   8.018   2.698   6.481 -0.0961 -0.1115 -0.0846
  110POPC   C3A 1628   7.861   2.280   6.369  0.1702  0.1066  0.1239
  110POPC   C4A 1629   7.721   1.940   6.679  0.4496 -0.1240  0.0342
  110POPC   C1B 1630   7.552   2.845   6.591  0.1791 -0.0132 -0.1477
  110POPC   C2B 1631   7.741   2.993   6.278  0.1110  0.0738 -0.1452
  110POPC   C3B 1632   8.077   2.960   5.998  0.1937  0.0687  0.0499
  110POPC   C4B 1633   8.171   2.689   5.645  0.3453  0.2794 -0.2161
  111POPC   NC3 1634  10.298   2.086   7.877 -0.1890 -0.2944 -0.1630
  111POPC   PO4 1635  10.800   2.053   7.728 -0.4160  0.0313  0.3476
  111POPC   GL1 1636  10.708   2.147   7.291 -0.1354 -0.0465  0.0116
  111POPC   GL2 1637  10.921   2.032   7.127 -0.1894 -0.0318  0.1150
  111POPC   C1A 1638  10.947   2.509   6.900 -0.0512  0.1753 -0.0994
  111POPC   D2A 1639  11.229   2.434   6.514  0.2576 -0.1428  0.0565
  111POPC   C3A 1640  11.383   2.020   6.423  0.2598 -0.3065  0.0635
  111POPC   C4A 1641  11.620   1.793   6.295 -0.0592 -0.3010  0.1092
  111POPC   C1B 1642  11.356   2.150   6.925 -0.2800  0.0411 -0.0388
  111POPC   C2B 1643  11.709   2.324   6.690 -0.2790  0.2634  0.2696
  111POPC   C3B 1644  11.929   2.573   6.379  0.1614 -0.0230  0.2256
  111POPC   C4B 1645  12.259   2.578   6.040 -0.3125  0.0017 -0.5553
  112POPC   NC3 1646   4.247   9.285   8.179  0.1770  0.0123  0.0221
  112POPC   PO4 1647   4.470   9.313   7.771  0.0333 -0.3904  0.1974
  112POPC   GL1 1648   4.440   9.071   7.361 -0.0204  0.1359 -0.3656
  112POPC   GL2 1649   4.310   8.822   7.286 -0.0016  0.1362 -0.0263
  112POPC   C1A 1650   4.457   9.162   6.957 -0.1882  0.0477 -0.0838
  112POPC   D2A 1651   4.566   9.246   6.451 -0.1893  0.1624  0.0459
  112POPC   C3A 1652   4.554   8.873   6.245  0.0945 -0.0390 -0.0703
  112POPC   C4A 1653   4.346   8.561   6.169  0.1434 -0.1630  0.2683
  112POPC   C1B 1654   4.587   8.716   6.966  0.1551  0.0799  0.0477
  112POPC   C2B 1655   4.721   8.686   6.662 -0.3492  0.4156  0.5402
  112POPC   C3B 1656   4.899   8.516   6.182  0.0382 -0.2981 -0.1630
  112POPC   C4B 1657   4.885   8.558   5.805  0.3214  0.0061 -0.0219
  113POPC   NC3 1658  10.564   6.362   8.286 -0.1074  0.1176 -0.3970
  113POPC   PO4 1659  10.238   6.712   8.273  0.1536  0.3743 -0.2049
  113POPC   GL1 1660   9.777   6.504   8.075  0.0227 -0.1982 -0.1969
  113POPC   GL2 1661  10.033   6.472   7.801  0.2161 -0.0160  0.0930
  113POPC   C1A 1662   9.411   6.137   7.941  0.2842  0.1334  0.2419
  113POPC   D2A 1663   9.060   5.858   7.838 -0.1065  0.2390  0.0086
  113POPC   C3A 1664   8.767   6.124   7.930 -0.0901 -0.1393 -0.0743
  113POPC   C4A 1665   8.570   6.307   8.223  0.2059 -0.0410 -0.0723
  113POPC   C1B 1666   9.628   6.384   7.524 -0.3114  0.0308 -0.0039
  113POPC   C2B 1667   9.440   6.509   7.190 -0.0423  0.0667  0.2980
  113POPC   C3B 1668   8.957   6.531   7.111  0.2987  0.1735 -0.3103
  113POPC   C4B 1669   8.554   6.421   6.891  0.1108  0.4003 -0.1552
  114POPC   NC3 1670  10.016   7.722   8.578  0.0991 -0.0362  0.1060
  114POPC   PO4 1671   9.977   7.546   8.210 -0.1903  0.1571 -0.3494
  114POPC   GL1 1672  10.024   7.153   7.960 -0.0857 -0.2354 -0.0244
  114POPC   GL2 1673   9.676   7.083   7.938  0.0355 -0.4521  0.5352
  114POPC   C1A 1674  10.164   6.871   7.573 -0.4708 -0.1166 -0.0165
  114POPC   D2A 1675  10.614   6.775   7.231 -0.3501  0.0495  0.1696
  114POPC   C3A 1676  10.694   7.057   6.961  0.1774  0.0429 -0.3791
  114POPC   C4A 1677  11.108   7.024   6.721  0.0231  0.0305  0.1754
  114POPC   C1B 1678   9.692   6.894   7.565 -0.0101  0.1790  0.0860
  114POPC   C2B 1679   9.829   6.851   7.149 -0.2953  0.1806 -0.0554
  114POPC   C3B 1680  10.162   7.010   6.940  0.0400 -0.0450  0.1712
  114POPC   C4B 1681  10.455   6.984   6.544  0.0950 -0.0083 -0.0333
  115POPC   NC3 1682   5.037   7.035   7.820 -0.0712 -0.0197 -0.2840
  115POPC   PO4 1683   5.193   7.425   7.687 -0.0350  0.1662 -0.2195
  115POPC   GL1 1684   5.267   7.246   7.243  0.4366 -0.2134 -0.0313
  115POPC   GL2 1685   5.550   7.071   7.183  0.0426  0.1147 -0.1477
  115POPC   C1A 1686   5.019   7.267   6.970 -0.2456  0.2100 -0.4651
  115POPC   D2A 1687   4.702   7.486   6.787 -0.1633 -0.0120 -0.0831
  115POPC   C3A 1688   4.831   7.742   6.397  0.0210  0.1360  0.1036
  115POPC   C4A 1689   4.833   8.025   6.080  0.2364 -0.3175 -0.1519
  115POPC   C1B 1690   5.405   7.033   6.702 -0.1921 -0.0526  0.1731
  115POPC   C2B 1691   5.442   6.620   6.467  0.1032 -0.0850  0.1666
  115POPC   C3B 1692   5.533   6.519   6.015 -0.2758 -0.1552  0.1877
  115POPC   C4B 1693   5.774   6.225   5.658 -0.0440 -0.1822  0.2328
  116POPC   NC3 1694   3.624   9.435   7.345 -0.0354 -0.0530 -0.1767
  116POPC   PO4 1695   3.370   9.713   7.270 -0.2389 -0.0173 -0.1663
  116POPC   GL1 1696   3.650   9.603   6.802  0.0313  0.0578 -0.0929
  116POPC   GL2 1697   4.019   9.337   6.751 -0.0437  0.3976  0.1544
  116POPC   C1A 1698   3.758   9.568   6.397 -0.1448 -0.2548 -0.1420
  116POPC   D2A 1699   3.635   9.296   5.970 -0.1863 -0.0027 -0.3186
  116POPC   C3A 1700   3.953   8.992   5.805  0.1759  0.0539  0.2140
  116POPC   C4A 1701   4.450   9.127   5.840  0.0226  0.3955  0.0546
  116POPC   C1B 1702   4.296   9.666   6.635  0.0904  0.5705  0.0265
  116POPC   C2B 1703   4.229  10.009   6.390  0.3059  0.3520 -0.0546
  116POPC   C3B 1704   4.054  10.271   6.090 -0.1639  0.2799  0.0595
  116POPC   C4B 1705   4.160  10.521   5.600  0.1567 -0.0547  0.3199
  117POPC   NC3 1706   2.832   8.031   8.156 -0.0431  0.0746  0.0340
  117POPC   PO4 1707   3.071   8.258   7.729 -0.3327 -0.2199 -0.0403
  117POPC   GL1 1708   3.322   8.385   7.305 -0.2313  0.3003 -0.2054
  117POPC   GL2 1709   3.653   8.334   7.190 -0.1146  0.0335 -0.1390
  117POPC   C1A 1710   3.295   8.609   6.907 -0.0142  0.0457  0.2115
  117POPC   D2A 1711   3.232   8.851   6.587  0.2030 -0.3329 -0.2187
  117POPC   C3A 1712   3.315   8.822   6.130 -0.0588 -0.0277  0.0368
  117POPC   C4A 1713   3.146   8.961   5.760  0.1337 -0.2683 -0.2150
  117POPC   C1B 1714   3.334   8.134   6.869  0.0743 -0.1168  0.3480
  117POPC   C2B 1715   3.394   7.893   6.446 -0.2167  0.0434  0.0430
  117POPC   C3B 1716   3.581   7.628   6.183  0.0733  0.0953 -0.0745
  117POPC   C4B 1717   3.603   7.586   5.707  0.1346 -0.0876  0.3287
  118POPC   NC3 1718   3.090   8.777   7.484 -0.1124  0.0474 -0.0820
  118POPC   PO4 1719   3.176   9.240   7.355 -0.2514 -0.1081  0.1427
  118POPC   GL1 1720   2.914   9.541   7.094  0.1710 -0.2636 -0.1885
  118POPC   GL2 1721   2.965   9.869   6.911 -0.0051 -0.2088 -0.4311
  118POPC   C1A 1722   2.630   9.554   6.728  0.2598 -0.0369  0.0279
  118POPC   D2A 1723   2.311   9.577   6.475 -0.1940  0.0031 -0.4207
  118POPC   C3A 1724   2.013   9.446   6.659 -0.0515  0.0540  0.3338
  118POPC   C4A 1725   1.504   9.454   6.622 -0.0829  0.2858  0.2173
  118POPC   C1B 1726   3.138   9.890   6.593 -0.0803 -0.1072  0.2065
  118POPC   C2B 1727   2.806   9.781   6.283  0.0660 -0.1546 -0.0572
  118POPC   C3B 1728   2.465   9.681   6.007  0.0235  0.1789  0.0015
  118POPC   C4B 1729   2.161   9.481   5.742  0.0173 -0.2210 -0.4266
  119POPC   NC3 1730   3.401   6.495   7.793  0.1278 -0.4479 -0.0011
  119POPC   PO4 1731   3.082   6.770   7.756 -0.0677 -0.2696 -0.1481
  119POPC   GL1 1732   2.799   6.824   7.367  0.0393 -0.0701 -0.1818
  119POPC   GL2 1733   3.055   6.956   7.286 -0.0348  0.1513  0.0438
  119POPC   C1A 1734   2.686   6.732   6.830  0.0597 -0.3823 -0.0178
  119POPC   D2A 1735   2.677   6.783   6.475 -0.0434  0.2658  0.0613
  119POPC   C3A 1736   2.634   7.017   6.090 -0.0583 -0.0309  0.1053
  119POPC   C4A 1737   2.354   7.100   5.673 -0.1659  0.0577 -0.1055
  119POPC   C1B 1738   3.098   6.980   6.806  0.0324  0.0222 -0.0945
  119POPC   C2B 1739   3.155   7.092   6.378 -0.0311  0.3681 -0.0384
  119POPC   C3B 1740   3.375   7.181   5.924 -0.3585 -0.1490  0.1432
  119POPC   C4B 1741   3.405   7.180   5.560  0.1646  0.0425 -0.0618
  120POPC   NC3 1742   1.150   0.496   7.631  0.0816  0.3672 -0.2043
  120POPC   PO4 1743   1.353   0.920   7.686  0.1217 -0.1590 -0.0331
  120POPC   GL1 1744   1.179   0.932   7.251 -0.0496 -0.4850 -0.0274
  120POPC   GL2 1745   0.934   0.739   7.153 -0.0856 -0.1116 -0.1302
  120POPC   C1A 1746   1.035   1.210   6.905  0.0011  0.0041 -0.2609
  120POPC   D2A 1747   0.876   1.516   6.650 -0.0002  0.2243 -0.0782
  120POPC   C3A 1748   0.787   1.266   6.249 -0.0083 -0.3196 -0.0204
  120POPC   C4A 1749   0.665   1.018   5.871 -0.1138 -0.1036  0.0173
  120POPC   C1B 1750   1.239   0.752   6.755  0.0703  0.1966 -0.2287
  120POPC   C2B 1751   1.141   0.883   6.377  0.0993  0.0758  0.2005
  120POPC   C3B 1752   1.152   1.007   5.937 -0.2752 -0.1736 -0.0408
  120POPC   C4B 1753   1.102   1.121   5.537  0.1461  0.0916  0.1616
  121POPC   NC3 1754   3.328   3.166   7.578 -0.1960  0.0506  0.0036
  121POPC   PO4 1755   2.823   3.258   7.649 -0.1523 -0.1891  0.0958
  121POPC   GL1 1756   2.860   3.342   7.161  0.2408 -0.3685 -0.1979
  121POPC   GL2 1757   2.807   3.603   7.098 -0.1446  0.0808 -0.0379
  121POPC   C1A 1758   2.498   3.395   6.764 -0.0755  0.0292  0.0916
  121POPC   D2A 1759   2.308   3.277   6.448  0.2606 -0.0264 -0.0577
  121POPC   C3A 1760   2.447   3.040   6.091  0.0724 -0.3485 -0.0489
  121POPC   C4A 1761   2.522   2.620   5.796 -0.2588  0.1778  0.1322
  121POPC   C1B 1762   2.800   3.831   6.761  0.2468  0.3695  0.0460
  121POPC   C2B 1763   2.493   3.764   6.395  0.2008 -0.3912 -0.1454
  121POPC   C3B 1764   2.721   3.852   6.063 -0.0954 -0.2390 -0.0448
  121POPC   C4B 1765   2.846   4.188   5.932 -0.4032 -0.0682 -0.0243
  122POPC   NC3 1766   9.587   5.948   8.953  0.3456  0.0573 -0.1127
  122POPC   PO4 1767   9.214   5.746   8.996  0.0743  0.0329  0.0043
  122POPC   GL1 1768   9.380   5.466   8.723 -0.1060 -0.0284  0.4886
  122POPC   GL2 1769   9.033   5.429   8.556 -0.0334  0.1446 -0.1918
  122POPC   C1A 1770   9.475   5.199   8.278 -0.0315  0.2088  0.0166
  122POPC   D2A 1771   9.778   5.145   7.951 -0.2630  0.0684  0.0340
  122POPC   C3A 1772   9.709   4.904   7.554  0.0796 -0.2303  0.4527
  122POPC   C4A 1773  10.079   4.994   7.226  0.0013 -0.1167  0.1779
  122POPC   C1B 1774   9.010   5.161   8.067  0.1642 -0.0079 -0.3349
  122POPC   C2B 1775   9.310   4.862   7.839  0.0797  0.0138 -0.0489
  122POPC   C3B 1776   9.332   4.520   7.463 -0.1637 -0.2363 -0.1762
  122POPC   C4B 1777   9.539   4.329   7.071  0.1765  0.1009  0.1835
  123POPC   NC3 1778   0.767   4.015   7.714 -0.0165  0.0198 -0.2136
  123POPC   PO4 1779   0.311   3.950   7.860 -0.7385 -0.2719 -0.0447
  123POPC   GL1 1780   0.172   3.781   7.640  0.0897  0.0171 -0.2517
  123POPC   GL2 1781  -0.122   3.927   7.586 -0.0733  0.2520 -0.0236
  123POPC   C1A 1782   0.015   3.706   7.135  0.1238 -0.0784 -0.1748
  123POPC   D2A 1783   0.300   3.780   6.769  0.2575 -0.2433  0.0810
  123POPC   C3A 1784   0.171   4.151   6.484  0.0115 -0.1711 -0.0085
  123POPC   C4A 1785  -0.177   4.354   6.109 -0.0708 -0.1503  0.1783
  123POPC   C1B 1786  -0.195   4.142   7.184 -0.0154  0.0360 -0.0536
  123POPC   C2B 1787   0.123   4.287   7.029  0.3499 -0.0315  0.1298
  123POPC   C3B 1788   0.470   4.254   6.859  0.0033 -0.0743 -0.0416
  123POPC   C4B 1789   0.974   4.379   6.857  0.0098 -0.0259 -0.1654
  124POPC   NC3 1790   1.667  10.271   7.669 -0.1744 -0.0601 -0.0660
  124POPC   PO4 1791   1.306  10.385   7.429 -0.2334  0.0743 -0.0656
  124POPC   GL1 1792   1.253  10.328   7.066  0.1368 -0.2484 -0.4050
  124POPC   GL2 1793   0.857  10.236   7.067  0.0071  0.1061 -0.0152
  124POPC   C1A 1794   1.234  10.145   6.794 -0.1642  0.0196  0.2356
  124POPC   D2A 1795   1.028   9.935   6.548  0.1020  0.2562  0.0049
  124POPC   C3A 1796   0.918   9.950   6.033 -0.1708 -0.0272  0.2700
  124POPC   C4A 1797   0.808  10.192   5.637  0.1862 -0.0230  0.1452
  124POPC   C1B 1798   0.614  10.233   6.767  0.1564  0.1824 -0.0103
  124POPC   C2B 1799   0.571  10.516   6.488  0.1342  0.1312  0.0311
  124POPC   C3B 1800   0.427  10.731   6.288 -0.1303  0.0662  0.1744
  124POPC   C4B 1801   0.154  10.742   5.944 -0.0513 -0.2108  0.0441
  125POPC   NC3 1802   5.835   8.598   7.549  0.0601  0.1600 -0.1880
  125POPC   PO4 1803   5.922   9.011   7.658 -0.1402  0.0213 -0.0515
  125POPC   GL1 1804   5.985   8.992   7.155 -0.2071  0.0941 -0.2966
  125POPC   GL2 1805   5.984   9.256   7.043  0.2835  0.2316  0.0372
  125POPC   C1A 1806   6.329   8.879   6.830  0.0654 -0.0821  0.2407
  125POPC   D2A 1807   6.296   8.940   6.430 -0.1541 -0.0423  0.1262
  125POPC   C3A 1808   6.288   9.132   6.039  0.1431  0.3230 -0.0438
  125POPC   C4A 1809   6.242   9.488   5.809 -0.1611  0.1773  0.1940
  125POPC   C1B 1810   5.802   9.071   6.652 -0.3560  0.1402  0.1680
  125POPC   C2B 1811   5.559   9.188   6.240  0.1859 -0.3353 -0.0331
  125POPC   C3B 1812   5.713   9.222   5.804  0.0723 -0.1785 -0.2537
  125POPC   C4B 1813   5.889   9.139   5.419 -0.0198  0.0835 -0.1538
  126POPC   NC3 1814   2.990  10.096   7.460  0.4351 -0.2281  0.0050
  126POPC   PO4 1815   2.582  10.375   7.571 -0.3060  0.0020  0.1787
  126POPC   GL1 1816   2.408  10.500   7.126  0.2517 -0.1711 -0.0690
  126POPC   GL2 1817   2.761  10.352   7.087 -0.0727  0.0038  0.1660
  126POPC   C1A 1818   2.302  10.574   6.713 -0.0667  0.0768  0.1562
  126POPC   D2A 1819   2.327  10.738   6.258 -0.4770  0.0219 -0.0827
  126POPC   C3A 1820   2.135  10.519   5.960 -0.2376  0.2035  0.2007
  126POPC   C4A 1821   1.746  10.303   5.990  0.0813 -0.2215 -0.1035
  126POPC   C1B 1822   2.974  10.350   6.657  0.0472  0.1049  0.1264
  126POPC   C2B 1823   3.113  10.337   6.298 -0.0743 -0.3611 -0.2173
  126POPC   C3B 1824   3.180  10.600   5.938  0.1310  0.0692  0.1855
  126POPC   C4B 1825   3.197  11.077   5.981  0.1801  0.2102 -0.1392
  127POPC   NC3 1826   8.631   2.476   7.881 -0.2465 -0.0432  0.1864
  127POPC   PO4 1827   8.167   2.509   7.817  0.0081  0.2570 -0.2526
  127POPC   GL1 1828   8.209   2.609   7.358  0.0941 -0.0575  0.1855
  127POPC   GL2 1829   7.917   2.760   7.424  0.1755  0.1442 -0.2279
  127POPC   C1A 1830   8.392   2.701   6.983 -0.2453  0.0879 -0.2780
  127POPC   D2A 1831   8.571   2.873   6.731 -0.0274  0.1996 -0.2486
  127POPC   C3A 1832   8.890   2.635   6.601  0.0300  0.0911 -0.0054
  127POPC   C4A 1833   9.324   2.685   6.697 -0.0366 -0.1937  0.1231
  127POPC   C1B 1834   7.828   3.052   7.235 -0.1466 -0.2377 -0.3142
  127POPC   C2B 1835   7.605   3.240   6.948  0.2059 -0.0582 -0.1896
  127POPC   C3B 1836   7.741   3.404   6.565 -0.1403 -0.1306  0.0305
  127POPC   C4B 1837   8.007   3.468   6.125  0.0887  0.2827 -0.0085
  128POPC   NC3 1838   5.869   1.195   6.949 -0.2740 -0.0560 -0.2447
  128POPC   PO4 1839   6.223   0.996   7.241 -0.0113 -0.0123  0.2317
  128POPC   GL1 1840   6.451   0.974   6.802  0.2520  0.3303  0.0648
  128POPC   GL2 1841   6.205   1.095   6.599 -0.3609 -0.0987 -0.1101
  128POPC   C1A 1842   6.624   1.019   6.278 -0.3750  0.0459 -0.0603
  128POPC   D2A 1843   6.664   1.016   5.815  0.0785  0.0886  0.0659
  128POPC   C3A 1844   6.869   1.322   5.738 -0.0835  0.0674  0.0558
  128POPC   C4A 1845   7.160   1.765   5.756  0.5879  0.2176  0.2962
  128POPC   C1B 1846   5.958   0.900   6.205 -0.1020  0.1542 -0.0808
  128POPC   C2B 1847   5.835   0.409   6.196  0.0173  0.0854  0.3414
  128POPC   C3B 1848   5.806   0.038   6.390 -0.0317 -0.0089 -0.2320
  128POPC   C4B 1849   5.625  -0.332   6.369  0.0176  0.2464  0.1546
  129POPC   NC3 1850   4.488   6.865   7.815 -0.1044  0.0185 -0.2485
  129POPC   PO4 1851   4.508   7.347   7.769  0.1045 -0.0660  0.1756
  129POPC   GL1 1852   4.257   7.135   7.453  0.0587 -0.0579 -0.1162
  129POPC   GL2 1853   3.932   7.164   7.459 -0.0458  0.1134  0.1676
  129POPC   C1A 1854   4.347   7.173   7.065 -0.0608 -0.0220 -0.1878
  129POPC   D2A 1855   4.686   6.888   6.766  0.3766  0.1644 -0.0744
  129POPC   C3A 1856   4.740   7.099   6.413  0.1073  0.1278 -0.0374
  129POPC   C4A 1857   5.087   7.321   6.189 -0.2568  0.2792  0.2387
  129POPC   C1B 1858   3.947   6.949   7.149  0.1853 -0.1655 -0.0825
  129POPC   C2B 1859   4.152   6.964   6.627 -0.1696 -0.3410  0.0699
  129POPC   C3B 1860   4.206   7.000   6.156 -0.1347 -0.2466  0.3758
  129POPC   C4B 1861   4.278   6.796   5.728  0.2063  0.0388  0.1242
  130POPC   NC3 1862   6.121   3.294   7.507  0.1584  0.4504  0.1645
  130POPC   PO4 1863   6.335   2.931   7.374  0.0815 -0.1679  0.0799
  130POPC   GL1 1864   6.176   2.892   6.963  0.0622  0.4493 -0.4769
  130POPC   GL2 1865   6.135   3.141   6.934  0.0380 -0.1109 -0.0666
  130POPC   C1A 1866   5.910   2.883   6.564  0.1628 -0.2546  0.0225
  130POPC   D2A 1867   5.648   2.960   6.137  0.0232 -0.1570 -0.3329
  130POPC   C3A 1868   5.816   2.765   5.797  0.0265 -0.1901  0.2454
  130POPC   C4A 1869   5.848   2.393   5.570 -0.3249 -0.1770 -0.0222
  130POPC   C1B 1870   6.415   3.072   6.557 -0.0571  0.1812 -0.2970
  130POPC   C2B 1871   6.666   3.460   6.279  0.1554 -0.0104 -0.3218
  130POPC   C3B 1872   6.990   3.789   6.181 -0.0454 -0.1812  0.0702
  130POPC   C4B 1873   7.211   4.154   5.965  0.0023 -0.1502  0.0021
  131POPC   NC3 1874   8.758   7.196   8.601 -0.0979  0.1939 -0.1372
  131POPC   PO4 1875   8.937   6.662   8.711  0.0118  0.1057  0.0322
  131POPC   GL1 1876   8.868   6.686   8.318 -0.2028  0.2468 -0.2189
  131POPC   GL2 1877   9.099   6.469   8.204 -0.0188 -0.0090  0.0227
  131POPC   C1A 1878   8.711   6.571   7.797 -0.0388 -0.0872 -0.2770
  131POPC   D2A 1879   8.494   6.656   7.404  0.1224  0.2183 -0.0112
  131POPC   C3A 1880   8.165   6.418   7.220  0.0675  0.3140  0.0698
  131POPC   C4A 1881   7.746   6.423   7.032 -0.0119  0.0500  0.0639
  131POPC   C1B 1882   9.244   6.727   7.924 -0.2606  0.2726  0.0198
  131POPC   C2B 1883   9.170   6.673   7.546  0.0915  0.1292 -0.2168
  131POPC   C3B 1884   9.294   7.007   7.214 -0.0799 -0.0917 -0.2253
  131POPC   C4B 1885   9.573   7.264   6.833 -0.1593  0.1762 -0.6375
  132POPC   NC3 1886   3.543   4.492   7.592  0.3606  0.0155 -0.0908
  132POPC   PO4 1887   3.501   4.027   7.619  0.0282  0.0940  0.3590
  132POPC   GL1 1888   3.619   4.168   7.215 -0.0038 -0.1636 -0.1295
  132POPC   GL2 1889   3.725   3.871   7.095  0.0975 -0.1599 -0.3108
  132POPC   C1A 1890   3.619   4.478   6.886  0.1481  0.1461  0.0960
  132POPC   D2A 1891   3.636   4.611   6.419 -0.5954  0.0032 -0.1701
  132POPC   C3A 1892   3.456   4.318   6.203  0.2293  0.0341  0.4461
  132POPC   C4A 1893   3.378   4.151   5.819 -0.0541  0.1548 -0.2496
  132POPC   C1B 1894   4.044   4.127   6.799 -0.2114 -0.2529  0.2002
  132POPC   C2B 1895   4.004   4.169   6.408  0.1700  0.1614 -0.0545
  132POPC   C3B 1896   3.907   4.314   5.976  0.0163 -0.1912 -0.1647
  132POPC   C4B 1897   3.872   4.205   5.529 -0.2843  0.1763 -0.0075
  133POPC   NC3 1898   2.814   8.075   7.389  0.1420  0.0745  0.0101
  133POPC   PO4 1899   2.629   8.465   7.531  0.3027  0.0565  0.2103
  133POPC   GL1 1900   2.652   8.483   7.083  0.0027 -0.0151 -0.0671
  133POPC   GL2 1901   2.720   8.256   6.876 -0.0749  0.1445 -0.0913
  133POPC   C1A 1902   2.833   8.716   6.780  0.2782 -0.2500 -0.1067
  133POPC   D2A 1903   2.976   9.198   6.789 -0.1739 -0.3206  0.1388
  133POPC   C3A 1904   3.280   9.350   6.499  0.1672 -0.0536 -0.1158
  133POPC   C4A 1905   3.305   9.634   6.163 -0.0702 -0.3419  0.0617
  133POPC   C1B 1906   2.500   8.398   6.466  0.0515 -0.0517  0.0230
  133POPC   C2B 1907   2.449   8.252   5.958  0.1644  0.0153 -0.2349
  133POPC   C3B 1908   2.276   8.129   5.532 -0.0918 -0.1921  0.0188
  133POPC   C4B 1909   2.310   8.326   5.113  0.1723  0.0483 -0.3085
  134POPC   NC3 1910   0.061   2.247   8.152 -0.0280  0.0166 -0.2029
  134POPC   PO4 1911   0.181   2.605   7.943 -0.1637  0.3573 -0.4356
  134POPC   GL1 1912   0.272   2.608   7.527 -0.3487 -0.0875 -0.0531
  134POPC   GL2 1913   0.499   2.807   7.452 -0.0959 -0.2301 -0.0051
  134POPC   C1A 1914  -0.104   2.666   7.206 -0.2655  0.1132  0.1357
  134POPC   D2A 1915  -0.218   2.561   6.689  0.0938  0.3718  0.1160
  134POPC   C3A 1916   0.016   2.690   6.219  0.0846 -0.1336  0.0044
  134POPC   C4A 1917   0.375   2.786   6.060 -0.2199  0.1263 -0.0474
  134POPC   C1B 1918   0.387   2.978   6.996 -0.0006 -0.3256  0.3951
  134POPC   C2B 1919   0.323   2.957   6.551 -0.1217 -0.0474  0.1089
  134POPC   C3B 1920   0.403   3.187   6.303 -0.0628 -0.3988 -0.2067
  134POPC   C4B 1921   0.918   3.319   6.306 -0.1862 -0.2505 -0.0611
  135POPC   NC3 1922   2.753   5.081   7.605 -0.0817  0.1808  0.2207
  135POPC   PO4 1923   3.096   4.845   7.894 -0.1375  0.0326  0.0311
  135POPC   GL1 1924   3.185   4.775   7.530  0.2703  0.1019  0.2636
  135POPC   GL2 1925   3.190   5.186   7.475 -0.0983  0.0560 -0.2924
  135POPC   C1A 1926   3.222   4.709   7.025 -0.1155  0.2057  0.3964
  135POPC   D2A 1927   3.209   4.426   6.630 -0.1216  0.0522  0.0993
  135POPC   C3A 1928   2.979   4.577   6.231  0.0919 -0.0143  0.0679
  135POPC   C4A 1929   3.083   4.801   5.849  0.2434  0.0601 -0.0467
  135POPC   C1B 1930   3.293   5.217   7.080  0.3317 -0.2303  0.0660
  135POPC   C2B 1931   2.980   5.061   6.753  0.0046 -0.0156 -0.2788
  135POPC   C3B 1932   2.487   5.126   6.773 -0.1805  0.1988 -0.0223
  135POPC   C4B 1933   1.996   5.094   6.904 -0.2302 -0.2071  0.3609
  136POPC   NC3 1934   3.883   4.900   7.857  0.1906 -0.0582  0.0556
  136POPC   PO4 1935   3.561   5.195   7.817  0.1116 -0.0745  0.2702
  136POPC   GL1 1936   3.724   5.054   7.429 -0.2354 -0.1363 -0.0163
  136POPC   GL2 1937   3.585   4.874   7.258  0.2044 -0.2862  0.3373
  136POPC   C1A 1938   3.980   5.201   7.016  0.0206 -0.0652  0.2044
  136POPC   D2A 1939   4.038   5.429   6.634  0.0523  0.2565  0.1626
  136POPC   C3A 1940   3.879   5.739   6.337  0.1431  0.2849  0.3655
  136POPC   C4A 1941   3.800   5.895   6.000 -0.1730  0.2918  0.0216
  136POPC   C1B 1942   3.598   5.010   6.766 -0.0078 -0.1997 -0.2343
  136POPC   C2B 1943   3.835   5.075   6.351 -0.1743 -0.0477 -0.4241
  136POPC   C3B 1944   3.632   5.254   6.041 -0.0756 -0.1255 -0.4368
  136POPC   C4B 1945   3.375   5.125   5.755 -0.1273 -0.5268 -0.0850
  137POPC   NC3 1946   4.186   8.203   7.325 -0.3482  0.0746  0.0297
  137POPC   PO4 1947   4.549   8.326   7.510 -0.1723 -0.0215 -0.2251
  137POPC   GL1 1948   4.958   8.279   7.212  0.2277 -0.4128  0.0602
  137POPC   GL2 1949   5.277   8.356   7.419  0.0896 -0.2247  0.1343
  137POPC   C1A 1950   5.046   8.309   6.699  0.1353 -0.1012  0.1397
  137POPC   D2A 1951   5.238   8.188   6.376 -0.0219 -0.3123  0.0687
  137POPC   C3A 1952   5.577   8.348   6.229  0.0158  0.3908 -0.1416
  137POPC   C4A 1953   5.825   8.664   6.312  0.1466 -0.0712  0.0802
  137POPC   C1B 1954   5.274   8.630   7.040  0.1541 -0.1694 -0.0920
  137POPC   C2B 1955   5.274   8.692   6.540 -0.1109  0.0361 -0.1154
  137POPC   C3B 1956   5.352   8.764   6.069  0.0960  0.1777  0.1006
  137POPC   C4B 1957   4.969   9.026   5.767  0.0721 -0.1947  0.1004
  138POPC   NC3 1958   0.522   7.448   7.929  0.0761 -0.1519  0.0474
  138POPC   PO4 1959   0.628   7.906   7.903 -0.0784 -0.0405  0.1913
  138POPC   GL1 1960   0.646   7.755   7.470 -0.1740  0.2415  0.0751
  138POPC   GL2 1961   0.973   7.706   7.371  0.0138 -0.0815 -0.4424
  138POPC   C1A 1962   0.525   7.794   7.049  0.2364 -0.1259 -0.1092
  138POPC   D2A 1963   0.424   7.520   6.658  0.0086  0.2618 -0.3801
  138POPC   C3A 1964   0.310   7.252   6.261  0.0391  0.0518  0.1479
  138POPC   C4A 1965   0.424   7.442   5.942 -0.1078  0.0346  0.1079
  138POPC   C1B 1966   0.905   7.600   6.859  0.1015 -0.3433  0.1251
  138POPC   C2B 1967   0.825   7.366   6.396 -0.0473  0.0813  0.0716
  138POPC   C3B 1968   0.899   7.312   5.978 -0.0322  0.0985  0.0191
  138POPC   C4B 1969   0.806   7.356   5.506  0.3385  0.0018 -0.1785
  139POPC   NC3 1970   0.932   5.293   8.052  0.0754 -0.0652 -0.1225
  139POPC   PO4 1971   0.546   5.080   8.118  0.1871  0.1472  0.0616
  139POPC   GL1 1972   0.492   5.123   7.743 -0.4548  0.0138  0.2390
  139POPC   GL2 1973   0.316   4.868   7.677  0.1876  0.2743  0.0525
  139POPC   C1A 1974   0.621   5.340   7.300 -0.2951  0.1549 -0.2959
  139POPC   D2A 1975   0.635   5.231   6.754  0.0474 -0.0823 -0.0820
  139POPC   C3A 1976   0.872   5.372   6.456  0.1665  0.1915  0.1149
  139POPC   C4A 1977   1.135   5.485   6.095 -0.0576 -0.0166 -0.0803
  139POPC   C1B 1978   0.281   4.757   7.303 -0.1719 -0.0169 -0.0086
  139POPC   C2B 1979   0.459   4.755   6.874  0.0283 -0.0951  0.2655
  139POPC   C3B 1980   0.701   4.707   6.509  0.1212  0.1768  0.0087
  139POPC   C4B 1981   1.049   4.519   6.213  0.3308  0.1298  0.2606
  140POPC   NC3 1982   7.818   7.472   8.154  0.0835  0.2961 -0.1352
  140POPC   PO4 1983   7.690   7.977   8.048 -0.1432  0.4612 -0.0044
  140POPC   GL1 1984   7.793   7.732   7.687 -0.1479 -0.0865  0.0679
  140POPC   GL2 1985   7.905   7.849   7.527 -0.3007 -0.0174  0.1716
  140POPC   C1A 1986   7.547   7.564   7.240 -0.0355 -0.4244 -0.1457
  140POPC   D2A 1987   7.197   7.678   6.994  0.0004  0.2515  0.1834
  140POPC   C3A 1988   7.052   7.652   6.593  0.0208 -0.2174 -0.0009
  140POPC   C4A 1989   6.924   7.656   6.092  0.0395 -0.0738 -0.1975
  140POPC   C1B 1990   8.035   7.820   7.195  0.1420  0.1259  0.0124
  140POPC   C2B 1991   8.143   7.629   6.783  0.1335 -0.0511 -0.0007
  140POPC   C3B 1992   8.217   7.666   6.336  0.0617  0.2264  0.1743
  140POPC   C4B 1993   8.733   7.599   6.185 -0.0989 -0.0194  0.0691
  141POPC   NC3 1994   6.218  10.484   7.477  0.0249 -0.0336  0.1776
  141POPC   PO4 1995   6.488  10.497   7.254  0.0794  0.0512 -0.5733
  141POPC   GL1 1996   6.711  10.659   6.950 -0.2233  0.1616  0.3332
  141POPC   GL2 1997   6.507  10.555   6.720 -0.2407  0.0050  0.0134
  141POPC   C1A 1998   6.964  10.853   6.639 -0.0842  0.3982 -0.0168
  141POPC   D2A 1999   6.685  10.870   6.284  0.0819 -0.1309 -0.0258
  141POPC   C3A 2000   6.807  11.133   5.967  0.3443  0.1469 -0.2018
  141POPC   C4A 2001   7.056  10.980   5.655  0.0561 -0.1563  0.0612
  141POPC   C1B 2002   6.506  10.378   6.371  0.0495 -0.0155  0.1594
  141POPC   C2B 2003   6.676  10.116   6.003  0.3734  0.0677  0.1758
  141POPC   C3B 2004   6.789   9.678   5.933  0.1246  0.2634  0.0729
  141POPC   C4B 2005   6.991   9.406   6.176 -0.0631  0.1353 -0.0787
  142POPC   NC3 2006   4.897   4.036   7.323  0.1527 -0.0112  0.1860
  142POPC   PO4 2007   4.991   4.366   7.411 -0.2241  0.0109  0.2592
  142POPC   GL1 2008   4.977   4.514   7.065 -0.0177  0.0410 -0.3738
  142POPC   GL2 2009   5.081   4.850   7.001  0.3256  0.2517 -0.1638
  142POPC   C1A 2010   4.822   4.572   6.690  0.0970  0.0658  0.3078
  142POPC   D2A 2011   4.469   4.473   6.593 -0.0923 -0.1478 -0.3100
  142POPC   C3A 2012   4.250   4.579   6.216 -0.1737  0.0609  0.0056
  142POPC   C4A 2013   4.085   4.856   5.962  0.0514 -0.2402 -0.2089
  142POPC   C1B 2014   5.316   4.718   6.627  0.2580 -0.0095  0.1965
  142POPC   C2B 2015   5.256   4.575   6.238  0.2910  0.2777  0.0801
  142POPC   C3B 2016   5.353   4.782   5.807 -0.2436  0.0785 -0.1539
  142POPC   C4B 2017   5.171   5.150   5.532  0.0079 -0.0762  0.0239
  143POPC   NC3 2018   3.453   1.717   7.571 -0.1782 -0.3669 -0.0604
  143POPC   PO4 2019   3.691   2.097   7.569 -0.0126 -0.0530  0.1757
  143POPC   GL1 2020   3.799   2.035   7.160  0.2440 -0.1151 -0.2091
  143POPC   GL2 2021   4.125   1.998   7.096  0.0882 -0.0274 -0.0413
  143POPC   C1A 2022   3.686   1.784   6.814  0.0135  0.4492  0.2644
  143POPC   D2A 2023   3.501   1.855   6.307  0.1725 -0.1538 -0.0854
  143POPC   C3A 2024   3.669   2.228   6.315 -0.0261 -0.1331  0.0346
  143POPC   C4A 2025   3.642   2.599   6.121  0.0510  0.1941  0.1941
  143POPC   C1B 2026   4.121   1.992   6.737 -0.3296 -0.2310  0.1511
  143POPC   C2B 2027   4.235   2.193   6.382 -0.3249  0.2267  0.2004
  143POPC   C3B 2028   4.081   2.207   5.977 -0.0246 -0.1084 -0.0545
  143POPC   C4B 2029   3.723   1.945   5.850 -0.1349  0.0079  0.1581
  144POPC   NC3 2030   1.781   3.877   7.858  0.0700  0.1469 -0.1998
  144POPC   PO4 2031   1.808   4.035   7.424  0.1574  0.4976  0.1134
  144POPC   GL1 2032   2.014   3.951   7.091  0.2868  0.0940  0.0060
  144POPC   GL2 2033   2.373   3.876   7.024 -0.2810 -0.0630 -0.2154
  144POPC   C1A 2034   1.797   4.026   6.671  0.3416 -0.0199 -0.1490
  144POPC   D2A 2035   1.741   4.062   6.262  0.0631 -0.2688 -0.0119
  144POPC   C3A 2036   1.397   4.175   5.999  0.1304  0.0408  0.0629
  144POPC   C4A 2037   0.909   4.147   5.868 -0.2596  0.1345  0.0185
  144POPC   C1B 2038   2.254   4.159   6.661  0.4405 -0.0151 -0.1411
  144POPC   C2B 2039   2.248   4.204   6.184  0.0263 -0.0758 -0.2162
  144POPC   C3B 2040   2.374   4.375   5.841  0.1451 -0.2857  0.1035
  144POPC   C4B 2041   2.172   4.809   5.710  0.1315  0.0476  0.3109
  145POPC   NC3 2042   9.010   9.640   7.715 -0.2968  0.1323  0.2115
  145POPC   PO4 2043   9.187  10.028   7.630  0.4864 -0.2179 -0.2723
  145POPC   GL1 2044   9.144  10.258   7.236 -0.2615 -0.1052 -0.1315
  145POPC   GL2 2045   8.813  10.341   7.103  0.2552  0.3589 -0.0962
  145POPC   C1A 2046   9.202  10.459   6.770  0.2978 -0.0154 -0.2743
  145POPC   D2A 2047   9.413  10.469   6.384  0.3975 -0.0339  0.0580
  145POPC   C3A 2048   9.163  10.127   6.156 -0.1011  0.1206  0.1352
  145POPC   C4A 2049   8.930  10.043   5.724  0.1800  0.1228 -0.1815
  145POPC   C1B 2050   8.721  10.542   6.728  0.2293 -0.1692 -0.0118
  145POPC   C2B 2051   8.516  10.792   6.461  0.1827 -0.2991  0.0801
  145POPC   C3B 2052   8.629  11.110   6.290 -0.0032 -0.0276  0.0205
  145POPC   C4B 2053   8.595  11.446   6.046  0.1838 -0.1772 -0.0490
  146POPC   NC3 2054   6.880   3.794   7.822 -0.2022  0.2295  0.1789
  146POPC   PO4 2055   7.299   3.947   7.934 -0.1213  0.2167  0.1572
  146POPC   GL1 2056   7.571   3.938   7.606  0.0353 -0.1495  0.0972
  146POPC   GL2 2057   7.927   3.896   7.553  0.3580  0.2569 -0.0388
  146POPC   C1A 2058   7.444   3.986   7.120  0.1405  0.2248 -0.1466
  146POPC   D2A 2059   7.187   4.102   6.792 -0.2084  0.1319 -0.1056
  146POPC   C3A 2060   7.303   4.469   6.381 -0.3694 -0.2205 -0.3505
  146POPC   C4A 2061   7.245   4.666   5.980 -0.2237  0.0900  0.0628
  146POPC   C1B 2062   7.958   4.146   7.225 -0.0758  0.1175 -0.3258
  146POPC   C2B 2063   8.192   4.271   6.860  0.2964  0.0886  0.0105
  146POPC   C3B 2064   8.558   4.032   6.641 -0.0133 -0.0714  0.1051
  146POPC   C4B 2065   8.851   3.857   6.774  0.0505 -0.0433 -0.3710
  147POPC   NC3 2066   9.164   0.318   8.059 -0.2103 -0.1131 -0.3953
  147POPC   PO4 2067   8.769   0.375   7.888 -0.1417  0.2088  0.1307
  147POPC   GL1 2068   8.611   0.518   7.506  0.0824 -0.3209 -0.0562
  147POPC   GL2 2069   8.686   0.349   7.294 -0.0902  0.0404  0.0671
  147POPC   C1A 2070   8.328   0.677   7.204  0.1016  0.0154  0.1740
  147POPC   D2A 2071   8.353   1.101   6.890  0.1786  0.1988  0.1412
  147POPC   C3A 2072   8.225   1.031   6.435  0.2444  0.3763  0.0948
  147POPC   C4A 2073   8.117   1.003   5.997  0.0828 -0.3551  0.1814
  147POPC   C1B 2074   9.152   0.180   7.099  0.0120  0.3704  0.0974
  147POPC   C2B 2075   9.513   0.232   6.874 -0.1901  0.4470  0.0958
  147POPC   C3B 2076   9.581   0.349   6.472 -0.1461 -0.0045 -0.2830
  147POPC   C4B 2077   9.835   0.438   6.207 -0.0387 -0.2211  0.0252
  148POPC   NC3 2078   4.105   0.694   7.856 -0.3530 -0.3069  0.1090
  148POPC   PO4 2079   3.649   0.791   7.649 -0.1168 -0.2609  0.3143
  148POPC   GL1 2080   3.537   0.656   7.243 -0.0155  0.2459 -0.0610
  148POPC   GL2 2081   3.613   0.921   7.066  0.1566  0.0485 -0.0216
  148POPC   C1A 2082   3.559   0.401   6.993  0.0631 -0.0159 -0.1189
  148POPC   D2A 2083   3.687   0.350   6.601 -0.0632  0.4274 -0.0410
  148POPC   C3A 2084   3.329   0.236   6.374  0.2399 -0.1411 -0.1691
  148POPC   C4A 2085   2.767   0.161   6.396 -0.1979 -0.3017 -0.1547
  148POPC   C1B 2086   3.658   0.829   6.695  0.4098 -0.3659 -0.0742
  148POPC   C2B 2087   3.453   0.752   6.249  0.1662  0.1257 -0.0647
  148POPC   C3B 2088   3.414   1.083   5.914 -0.2485  0.1434 -0.1789
  148POPC   C4B 2089   3.476   1.467   5.955 -0.3747  0.1221 -0.0126
  149POPC   NC3 2090   2.376   8.850   8.105  0.2349 -0.0465 -0.1118
  149POPC   PO4 2091   2.110   8.827   7.690  0.2985 -0.2382 -0.0682
  149POPC   GL1 2092   2.198   8.898   7.239  0.0962 -0.0597  0.0623
  149POPC   GL2 2093   2.202   9.278   7.100 -0.0161  0.1788 -0.2667
  149POPC   C1A 2094   2.181   8.640   6.812  0.0191 -0.0589  0.0036
  149POPC   D2A 2095   2.018   8.436   6.416  0.1726 -0.0675 -0.3689
  149POPC   C3A 2096   2.083   8.760   6.264  0.0875  0.1906  0.1381
  149POPC   C4A 2097   2.279   9.196   6.166 -0.1034  0.2156  0.3244
  149POPC   C1B 2098   2.431   9.070   6.830  0.0461  0.2702  0.2826
  149POPC   C2B 2099   2.521   8.890   6.505  0.1470 -0.2439 -0.1538
  149POPC   C3B 2100   2.811   8.804   6.272 -0.4092 -0.1763 -0.0616
  149POPC   C4B 2101   2.895   8.593   5.965 -0.2142 -0.0351  0.2835
  150POPC   NC3 2102   6.436   8.739   7.987 -0.3129  0.1753 -0.1516
  150POPC   PO4 2103   6.846   8.818   7.662 -0.3074  0.0347  0.0220
  150POPC   GL1 2104   6.755   8.678   7.176  0.0541 -0.2313 -0.2955
  150POPC   GL2 2105   6.979   8.891   6.991 -0.1910  0.1098 -0.0175
  150POPC   C1A 2106   6.402   8.466   7.042  0.0752 -0.0580  0.1534
  150POPC   D2A 2107   6.070   8.479   6.695 -0.3062  0.0082  0.1097
  150POPC   C3A 2108   5.631   8.294   6.785 -0.1252 -0.0904  0.2522
  150POPC   C4A 2109   5.790   7.913   6.528 -0.2060  0.3023  0.3730
  150POPC   C1B 2110   6.739   8.619   6.662  0.2372 -0.1166  0.4610
  150POPC   C2B 2111   6.427   8.439   6.315 -0.1578  0.1927 -0.3718
  150POPC   C3B 2112   6.048   8.229   6.177 -0.0661  0.1670  0.1144
  150POPC   C4B 2113   5.789   8.156   5.814 -0.0992  0.1670 -0.0511
  151POPC   NC3 2114   6.490   0.501   6.913 -0.3158 -0.1829  0.4509
  151POPC   PO4 2115   6.694   0.754   7.194 -0.0889 -0.1760  0.1741
  151POPC   GL1 2116   7.038   0.845   6.978 -0.0708  0.3591  0.0319
  151POPC   GL2 2117   7.306   0.981   6.941  0.0828 -0.1227  0.1216
  151POPC   C1A 2118   7.045   0.734   6.519 -0.0994  0.0125 -0.0723
  151POPC   D2A 2119   7.175   0.771   6.062 -0.1285  0.1347 -0.2163
  151POPC   C3A 2120   7.542   0.572   5.940  0.1997  0.2399  0.1300
  151POPC   C4A 2121   7.864   0.481   5.647  0.0821  0.0099  0.1706
  151POPC   C1B 2122   7.468   1.028   6.453  0.1798 -0.2179 -0.2445
  151POPC   C2B 2123   7.647   1.032   6.158 -0.0178 -0.0798  0.2018
  151POPC   C3B 2124   7.740   0.967   5.673  0.1838  0.0360 -0.1773
  151POPC   C4B 2125   7.451   0.612   5.404  0.2059  0.0842 -0.0454
  152POPC   NC3 2126   3.359   2.334   7.848  0.0936 -0.3399 -0.1373
  152POPC   PO4 2127   3.087   2.094   7.755 -0.1912 -0.0072  0.0552
  152POPC   GL1 2128   3.246   2.046   7.307  0.2414  0.1037 -0.2873
  152POPC   GL2 2129   2.948   2.120   7.174  0.1216 -0.2206 -0.0989
  152POPC   C1A 2130   3.213   1.930   6.865  0.0205 -0.0652  0.0519
  152POPC   D2A 2131   3.083   1.627   6.543 -0.0119 -0.3014 -0.1934
  152POPC   C3A 2132   2.670   1.392   6.494 -0.0416  0.0741  0.0880
  152POPC   C4A 2133   2.414   1.080   6.806  0.1210  0.2817  0.1420
  152POPC   C1B 2134   2.684   2.071   6.982  0.3380  0.0037 -0.0391
  152POPC   C2B 2135   2.708   2.002   6.585 -0.0722 -0.0597 -0.0739
  152POPC   C3B 2136   2.594   1.896   6.162 -0.5287  0.1645  0.0735
  152POPC   C4B 2137   2.508   1.827   5.712  0.1319  0.0292 -0.1468
  153POPC   NC3 2138   7.199   8.442   7.550 -0.0350 -0.0910  0.2180
  153POPC   PO4 2139   6.828   8.274   7.612 -0.3086  0.1021 -0.3751
  153POPC   GL1 2140   6.914   8.111   7.233  0.0319 -0.0991 -0.0631
  153POPC   GL2 2141   6.753   7.736   7.271  0.0106  0.0174 -0.0297
  153POPC   C1A 2142   6.735   8.161   6.849  0.4580 -0.0024  0.2599
  153POPC   D2A 2143   6.783   8.137   6.435  0.1227  0.1774  0.2190
  153POPC   C3A 2144   7.068   8.398   6.202  0.4393 -0.0411 -0.0212
  153POPC   C4A 2145   7.564   8.382   5.989 -0.0130 -0.3238 -0.1814
  153POPC   C1B 2146   6.495   7.603   6.952  0.0601 -0.0355 -0.1239
  153POPC   C2B 2147   6.196   7.354   6.801 -0.0204  0.0878 -0.0966
  153POPC   C3B 2148   5.806   7.341   6.583  0.2721 -0.0620 -0.0240
  153POPC   C4B 2149   5.571   7.127   6.199 -0.0558  0.4777 -0.1039
  154POPC   NC3 2150  10.311   0.528   8.741  0.1041  0.3975 -0.0944
  154POPC   PO4 2151  10.294   0.416   8.241 -0.2382  0.0389 -0.2803
  154POPC   GL1 2152  10.247   0.739   7.858  0.0720  0.1110 -0.1268
  154POPC   GL2 2153  10.060   0.480   7.793 -0.1213 -0.0151 -0.2886
  154POPC   C1A 2154  10.046   0.916   7.348  0.0373  0.0022  0.0221
  154POPC   D2A 2155   9.752   1.076   7.064 -0.0725 -0.1389  0.1829
  154POPC   C3A 2156   9.430   0.801   6.907 -0.0914 -0.3742 -0.1080
  154POPC   C4A 2157   9.195   0.813   6.504 -0.1207 -0.0985  0.1924
  154POPC   C1B 2158  10.284   0.394   7.325 -0.0655  0.2406 -0.2619
  154POPC   C2B 2159  10.490   0.179   6.916  0.0292 -0.3075 -0.0817
  154POPC   C3B 2160  10.548   0.120   6.430 -0.1296 -0.0597  0.1860
  154POPC   C4B 2161  10.345  -0.007   6.148 -0.2582  0.0884 -0.0508
  155POPC   NC3 2162   1.911   1.246   8.121 -0.0989 -0.2962  0.0264
  155POPC   PO4 2163   1.715   1.221   7.738  0.2109 -0.0836  0.1258
  155POPC   GL1 2164   1.681   1.058   7.286  0.0238 -0.0395  0.0715
  155POPC   GL2 2165   1.492   1.387   7.184  0.2204 -0.2040  0.2444
  155POPC   C1A 2166   1.882   0.919   6.938 -0.0961  0.0481 -0.3434
  155POPC   D2A 2167   1.756   0.746   6.627 -0.1294 -0.1646  0.1611
  155POPC   C3A 2168   1.811   0.315   6.460  0.1272  0.1210 -0.1301
  155POPC   C4A 2169   1.846  -0.011   6.470 -0.0988  0.2356 -0.1124
  155POPC   C1B 2170   1.499   1.342   6.683 -0.2132 -0.0662  0.0443
  155POPC   C2B 2171   1.275   1.414   6.320 -0.2962  0.1903  0.5317
  155POPC   C3B 2172   1.343   1.478   5.910  0.0794  0.0401 -0.0930
  155POPC   C4B 2173   1.223   1.953   5.740 -0.1012  0.0463 -0.2118
  156POPC   NC3 2174   5.698   7.482   7.527 -0.2232  0.0249  0.0155
  156POPC   PO4 2175   5.796   7.955   7.553  0.0216 -0.1662  0.0522
  156POPC   GL1 2176   5.606   8.009   7.213 -0.1049 -0.0885 -0.3600
  156POPC   GL2 2177   5.708   7.704   7.076 -0.2956  0.0550 -0.0648
  156POPC   C1A 2178   5.381   7.872   6.829 -0.0241 -0.2903 -0.1573
  156POPC   D2A 2179   5.327   7.655   6.419 -0.2246 -0.0562 -0.0388
  156POPC   C3A 2180   5.350   7.908   5.962  0.2700  0.0386  0.3002
  156POPC   C4A 2181   5.363   8.371   5.741  0.2092  0.0335 -0.0297
  156POPC   C1B 2182   6.080   7.952   6.936 -0.1511 -0.3216 -0.1154
  156POPC   C2B 2183   6.313   7.904   6.538 -0.4569  0.1466  0.1336
  156POPC   C3B 2184   6.441   7.878   6.075 -0.3355 -0.2115 -0.2043
  156POPC   C4B 2185   6.243   7.561   5.810 -0.0467  0.4208  0.1720
  157POPC   NC3 2186   7.302   9.514   7.415 -0.0676  0.5112  0.1330
  157POPC   PO4 2187   7.744   9.624   7.461  0.0055  0.4058  0.4957
  157POPC   GL1 2188   7.709   9.252   7.157  0.3772  0.0320 -0.1284
  157POPC   GL2 2189   7.425   9.163   7.063  0.1623 -0.1744 -0.0801
  157POPC   C1A 2190   8.172   9.114   7.059  0.1331 -0.0339 -0.0241
  157POPC   D2A 2191   8.145   9.326   6.688  0.2454  0.1986  0.0110
  157POPC   C3A 2192   8.123   9.222   6.332  0.4247  0.1327  0.1154
  157POPC   C4A 2193   7.933   9.235   5.950 -0.1161 -0.2737  0.0932
  157POPC   C1B 2194   7.754   9.002   6.720  0.1143 -0.0654  0.1052
  157POPC   C2B 2195   8.038   8.712   6.416  0.1353  0.1725  0.0353
  157POPC   C3B 2196   8.078   8.480   5.998  0.1277 -0.1021  0.0142
  157POPC   C4B 2197   8.381   8.541   5.619 -0.2209 -0.0235 -0.0456
  158POPC   NC3 2198   4.500   4.412   7.484  0.1490 -0.1074 -0.0152
  158POPC   PO4 2199   4.073   4.558   7.576 -0.0843  0.0247  0.3862
  158POPC   GL1 2200   4.037   4.533   7.170  0.4322 -0.3618  0.3057
  158POPC   GL2 2201   4.387   4.339   7.051  0.0307  0.2170  0.0447
  158POPC   C1A 2202   4.074   4.695   6.764  0.3504  0.0804  0.2849
  158POPC   D2A 2203   4.293   4.972   6.509  0.2387 -0.2741  0.0162
  158POPC   C3A 2204   4.592   4.954   6.118  0.2285 -0.2787 -0.4326
  158POPC   C4A 2205   4.770   5.329   5.932 -0.0969 -0.1623  0.1648
  158POPC   C1B 2206   4.634   4.063   6.783  0.1213  0.2112  0.1526
  158POPC   C2B 2207   5.009   4.163   6.519  0.0477  0.0661  0.0920
  158POPC   C3B 2208   5.207   4.064   6.116 -0.2118 -0.1186 -0.0140
  158POPC   C4B 2209   5.556   3.929   5.938 -0.0420 -0.0914  0.0150
  159POPC   NC3 2210   4.442   5.672   7.841 -0.1345  0.1475 -0.0845
  159POPC   PO4 2211   4.616   5.300   7.920  0.1580 -0.4319 -0.0719
  159POPC   GL1 2212   4.412   5.169   7.492 -0.0835 -0.1173  0.1187
  159POPC   GL2 2213   4.242   4.976   7.372  0.2562  0.1318 -0.1680
  159POPC   C1A 2214   4.521   5.457   7.124 -0.3605 -0.0457 -0.3010
  159POPC   D2A 2215   4.803   5.565   6.900 -0.2061  0.1485 -0.0475
  159POPC   C3A 2216   5.022   5.480   6.426 -0.1506 -0.0813 -0.1283
  159POPC   C4A 2217   5.167   5.689   6.005 -0.1378  0.1385 -0.2097
  159POPC   C1B 2218   4.565   4.975   7.002  0.2080  0.1992 -0.2822
  159POPC   C2B 2219   4.797   5.080   6.593 -0.0509  0.0516  0.1698
  159POPC   C3B 2220   4.509   5.388   6.416 -0.1164  0.0233 -0.0484
  159POPC   C4B 2221   4.195   5.339   6.033  0.0011  0.1489 -0.0402
  160POPC   NC3 2222   0.330   0.112   8.106 -0.0078 -0.1080 -0.0373
  160POPC   PO4 2223   0.712   0.364   7.867  0.0742  0.1219 -0.3091
  160POPC   GL1 2224   0.543   0.553   7.486  0.1215 -0.1827  0.0878
  160POPC   GL2 2225   0.170   0.510   7.407 -0.0661 -0.0274 -0.0814
  160POPC   C1A 2226   0.473   0.772   7.046  0.0050 -0.0741 -0.1105
  160POPC   D2A 2227   0.680   0.947   6.673 -0.1274  0.0696  0.0672
  160POPC   C3A 2228   0.360   1.014   6.244  0.0312 -0.0967  0.1083
  160POPC   C4A 2229   0.208   1.153   5.857 -0.1159 -0.2452  0.0079
  160POPC   C1B 2230  -0.143   0.859   7.271 -0.2079 -0.0379 -0.1808
  160POPC   C2B 2231  -0.338   0.829   6.860  0.1952  0.1028 -0.0434
  160POPC   C3B 2232  -0.316   0.543   6.420 -0.4137 -0.2207  0.1099
  160POPC   C4B 2233  -0.327   0.462   5.987  0.1167  0.3508 -0.4410
  161POPC   NC3 2234   0.814   1.387   7.862  0.0771 -0.0704 -0.2584
  161POPC   PO4 2235   0.384   1.264   7.917  0.3142  0.1424  0.1934
  161POPC   GL1 2236   0.418   1.144   7.531 -0.0407 -0.1171 -0.1271
  161POPC   GL2 2237   0.698   1.220   7.264 -0.0122 -0.0310 -0.2624
  161POPC   C1A 2238   0.236   1.258   7.087  0.1285  0.3237  0.0908
  161POPC   D2A 2239   0.030   1.210   6.678 -0.2372 -0.2957 -0.5588
  161POPC   C3A 2240   0.038   1.438   6.265 -0.0237  0.1658 -0.4236
  161POPC   C4A 2241   0.442   1.752   6.153 -0.2871  0.0491 -0.2564
  161POPC   C1B 2242   0.661   1.666   7.104 -0.1435 -0.1100  0.1913
  161POPC   C2B 2243   0.417   1.658   6.761  0.1163 -0.0869 -0.2460
  161POPC   C3B 2244   0.077   1.923   6.655  0.0367 -0.0689  0.1492
  161POPC   C4B 2245   0.101   2.255   6.470 -0.0605  0.5112  0.2039
  162POPC   NC3 2246   2.346   9.830   7.727  0.0508  0.0803 -0.1070
  162POPC   PO4 2247   1.881   9.786   7.729  0.0341  0.0481  0.1543
  162POPC   GL1 2248   1.913   9.657   7.248 -0.0050  0.0146 -0.0347
  162POPC   GL2 2249   2.179   9.800   6.977  0.0984  0.1470 -0.0411
  162POPC   C1A 2250   1.642   9.323   7.035  0.1313 -0.0527 -0.0299
  162POPC   D2A 2251   1.253   9.081   6.797  0.1825 -0.0808 -0.0271
  162POPC   C3A 2252   1.250   9.072   6.381 -0.1282  0.0294  0.2238
  162POPC   C4A 2253   1.329   9.103   5.894 -0.4014  0.2463 -0.0806
  162POPC   C1B 2254   2.442   9.992   6.704  0.2891 -0.2419  0.1149
  162POPC   C2B 2255   2.609  10.234   6.337  0.1126 -0.0057  0.0731
  162POPC   C3B 2256   2.664  10.431   5.994  0.1451 -0.1392 -0.0369
  162POPC   C4B 2257   2.701  10.827   5.905 -0.1115  0.1423  0.0112
  163POPC   NC3 2258   7.665  10.034   7.718 -0.2214 -0.0844  0.1140
  163POPC   PO4 2259   8.071  10.327   7.758 -0.2070  0.1006  0.1058
  163POPC   GL1 2260   7.841  10.307   7.324 -0.0824  0.3424 -0.0496
  163POPC   GL2 2261   7.834   9.940   7.106  0.0883  0.1220 -0.2824
  163POPC   C1A 2262   7.748  10.376   6.879 -0.2472 -0.2029 -0.0090
  163POPC   D2A 2263   7.453  10.520   6.547 -0.1524 -0.0470  0.1265
  163POPC   C3A 2264   7.053  10.385   6.439  0.1468 -0.1764  0.1556
  163POPC   C4A 2265   6.767  10.113   6.824  0.0905 -0.0489 -0.1424
  163POPC   C1B 2266   8.071   9.796   6.849 -0.2249 -0.2457  0.1498
  163POPC   C2B 2267   8.048   9.711   6.396 -0.0533  0.2154 -0.2571
  163POPC   C3B 2268   7.862   9.711   5.889  0.1988 -0.1270 -0.2888
  163POPC   C4B 2269   7.557   9.690   5.536  0.2681 -0.0371 -0.2054
  164POPC   NC3 2270   4.959   6.008   7.702  0.0786  0.1533  0.4092
  164POPC   PO4 2271   4.626   6.105   8.041 -0.5827  0.0621 -0.0210
  164POPC   GL1 2272   4.493   6.361   7.666  0.1771  0.0323  0.2550
  164POPC   GL2 2273   4.617   6.425   7.447 -0.0869  0.0730 -0.1342
  164POPC   C1A 2274   4.155   6.186   7.239 -0.0415 -0.0642  0.1728
  164POPC   D2A 2275   3.886   5.795   7.070  0.2277  0.0011 -0.2257
  164POPC   C3A 2276   3.528   5.720   6.724  0.0136  0.1233  0.0495
  164POPC   C4A 2277   3.397   5.465   6.476 -0.0138 -0.0531  0.0562
  164POPC   C1B 2278   4.328   6.622   7.091 -0.0451  0.3858 -0.0527
  164POPC   C2B 2279   4.238   6.464   6.689 -0.0046 -0.3093 -0.0833
  164POPC   C3B 2280   4.308   6.178   6.430  0.0729 -0.0450  0.0336
  164POPC   C4B 2281   4.620   6.186   6.122 -0.1308 -0.3222 -0.2783
  165POPC   NC3 2282   9.932   8.892   7.619  0.4512  0.2112  0.0741
  165POPC   PO4 2283   9.480   9.167   7.736 -0.0482 -0.2694 -0.1579
  165POPC   GL1 2284   9.335   9.469   7.348  0.0329 -0.0822 -0.3816
  165POPC   GL2 2285   9.496   9.736   7.267 -0.1370 -0.0624  0.2538
  165POPC   C1A 2286   9.398   9.446   6.907 -0.1215 -0.0877 -0.2618
  165POPC   D2A 2287   9.556   9.351   6.512  0.0211 -0.0011 -0.0064
  165POPC   C3A 2288   9.636   9.626   6.221 -0.0542  0.1025  0.0607
  165POPC   C4A 2289   9.688  10.020   6.180  0.0839 -0.1188  0.1283
  165POPC   C1B 2290   9.740   9.859   6.912  0.1561 -0.1063 -0.1921
  165POPC   C2B 2291   9.411   9.836   6.600  0.2361 -0.2586 -0.4547
  165POPC   C3B 2292   9.100   9.597   6.397 -0.3165 -0.0695  0.0375
  165POPC   C4B 2293   8.853   9.640   6.105 -0.1846 -0.1256 -0.2858
  166POPC   NC3 2294   6.681  10.171   7.553  0.1514  0.0729  0.2218
  166POPC   PO4 2295   7.154   9.970   7.510 -0.1078 -0.1435  0.1453
  166POPC   GL1 2296   7.307   9.854   7.098  0.0789  0.0523  0.1142
  166POPC   GL2 2297   7.308  10.103   6.916  0.0327 -0.2119  0.0175
  166POPC   C1A 2298   7.554   9.654   6.843  0.1315 -0.0895 -0.1682
  166POPC   D2A 2299   7.599   9.471   6.409  0.4102 -0.0149 -0.0169
  166POPC   C3A 2300   7.374   9.185   6.406 -0.2271  0.0528 -0.0829
  166POPC   C4A 2301   7.189   8.793   6.489  0.4618 -0.0568  0.2783
  166POPC   C1B 2302   7.611  10.022   6.494 -0.2154  0.2145  0.1261
  166POPC   C2B 2303   7.722  10.162   6.201  0.1270 -0.0720  0.2963
  166POPC   C3B 2304   7.369  10.309   6.007  0.1186 -0.3493 -0.2845
  166POPC   C4B 2305   7.179  10.415   5.615  0.0055  0.1299 -0.0214
  167POPC   NC3 2306   3.266   5.803   7.793 -0.2241  0.2423 -0.0075
  167POPC   PO4 2307   2.810   5.729   7.723 -0.0430 -0.3042 -0.1366
  167POPC   GL1 2308   3.001   5.625   7.359 -0.2342  0.0381 -0.0534
  167POPC   GL2 2309   3.077   5.879   7.223 -0.2066 -0.0937 -0.1807
  167POPC   C1A 2310   2.932   5.608   6.885 -0.2156 -0.2578 -0.0272
  167POPC   D2A 2311   2.940   5.667   6.424 -0.0599  0.2199  0.0183
  167POPC   C3A 2312   3.273   5.593   6.026 -0.0274  0.2552  0.1617
  167POPC   C4A 2313   3.611   5.555   5.617 -0.0885  0.0625 -0.3437
  167POPC   C1B 2314   2.654   6.032   6.930  0.1495 -0.0570 -0.0733
  167POPC   C2B 2315   2.596   6.286   6.615 -0.2271  0.0046 -0.0092
  167POPC   C3B 2316   2.575   6.388   6.177 -0.1019  0.0575 -0.1729
  167POPC   C4B 2317   2.877   6.593   6.047  0.3424  0.2828  0.0537
  168POPC   NC3 2318   1.974   5.534   8.019 -0.2213 -0.0665 -0.1687
  168POPC   PO4 2319   1.815   5.589   7.681 -0.0356 -0.3302  0.1026
  168POPC   GL1 2320   1.898   5.823   7.297 -0.0207  0.0822  0.1628
  168POPC   GL2 2321   2.070   5.557   7.107 -0.0796  0.2552 -0.0695
  168POPC   C1A 2322   1.999   6.056   6.895 -0.2270 -0.0471  0.1372
  168POPC   D2A 2323   2.163   6.150   6.397  0.1805 -0.1180 -0.0786
  168POPC   C3A 2324   1.829   6.087   6.119  0.1261  0.0761  0.0063
  168POPC   C4A 2325   1.422   6.055   5.861 -0.0631  0.0932 -0.1287
  168POPC   C1B 2326   2.418   5.687   6.675  0.1647  0.2713 -0.1529
  168POPC   C2B 2327   2.575   5.331   6.340 -0.3982 -0.1231  0.2884
  168POPC   C3B 2328   2.927   5.257   6.065  0.2211  0.1558  0.2191
  168POPC   C4B 2329   3.234   4.985   6.254  0.2830 -0.3746 -0.1314
  169POPC   NC3 2330   2.281   4.091   7.483 -0.4080  0.0012 -0.2819
  169POPC   PO4 2331   2.059   4.288   7.878  0.1515 -0.0285  0.0453
  169POPC   GL1 2332   1.964   4.532   7.520 -0.3421  0.0444  0.0748
  169POPC   GL2 2333   2.203   4.479   7.222  0.0375 -0.0450  0.0952
  169POPC   C1A 2334   1.744   4.581   7.126 -0.1056  0.3446  0.1144
  169POPC   D2A 2335   1.456   4.518   6.711  0.1549  0.0320  0.1361
  169POPC   C3A 2336   1.321   4.133   6.501 -0.1380 -0.0818  0.0427
  169POPC   C4A 2337   1.217   3.768   6.226  0.1674  0.1409 -0.0581
  169POPC   C1B 2338   2.202   4.644   6.809 -0.1000 -0.0728  0.0779
  169POPC   C2B 2339   1.941   4.525   6.535 -0.0545 -0.0217 -0.0635
  169POPC   C3B 2340   1.605   4.543   6.256  0.0293 -0.3681  0.3345
  169POPC   C4B 2341   1.676   4.809   5.896  0.0669  0.0148  0.2653
  170POPC   NC3 2342  10.295   3.931   8.108  0.1910 -0.0264  0.0692
  170POPC   PO4 2343   9.861   3.959   8.014 -0.0372 -0.0831  0.1476
  170POPC   GL1 2344  10.053   4.095   7.644  0.3304 -0.1012  0.1403
  170POPC   GL2 2345  10.030   3.817   7.405 -0.4094 -0.0820 -0.0150
  170POPC   C1A 2346   9.972   4.491   7.267 -0.1591  0.2120  0.0736
  170POPC   D2A 2347  10.039   4.659   6.810  0.1998 -0.2575 -0.0215
  170POPC   C3A 2348  10.338   4.323   6.610  0.0591 -0.1838 -0.1074
  170POPC   C4A 2349  10.445   3.892   6.736  0.0688  0.6136  0.0183
  170POPC   C1B 2350  10.057   3.602   6.975  0.0237  0.2186 -0.1481
  170POPC   C2B 2351  10.060   3.543   6.561  0.1819  0.3659 -0.1642
  170POPC   C3B 2352  10.241   3.520   6.262 -0.0723 -0.2316 -0.0749
  170POPC   C4B 2353  10.054   3.490   5.890  0.1416 -0.4126  0.1951
  171POPC   NC3 2354   9.014   7.702   7.973  0.0730  0.1722 -0.2597
  171POPC   PO4 2355   8.614   7.933   8.064  0.0245  0.2460  0.3600
  171POPC   GL1 2356   8.679   7.832   7.591  0.0938  0.0511 -0.0077
  171POPC   GL2 2357   8.407   7.743   7.518 -0.1376  0.3632  0.0335
  171POPC   C1A 2358   8.934   7.587   7.360  0.2347  0.0941  0.0599
  171POPC   D2A 2359   9.093   7.379   6.955  0.0013  0.0799 -0.1081
  171POPC   C3A 2360   9.201   7.576   6.589 -0.1915  0.0936 -0.1021
  171POPC   C4A 2361   9.226   7.764   6.151  0.0183 -0.2679  0.0639
  171POPC   C1B 2362   8.512   7.334   7.677  0.0334 -0.2174 -0.0454
  171POPC   C2B 2363   8.802   7.108   7.504 -0.0734 -0.0805 -0.0473
  171POPC   C3B 2364   8.783   6.975   7.037 -0.1041 -0.1471  0.3246
  171POPC   C4B 2365   8.954   7.077   6.584 -0.2681  0.0554 -0.0262
  172POPC   NC3 2366   9.837   0.637   8.207  0.0484 -0.3277  0.1747
  172POPC   PO4 2367   9.654   0.323   8.106 -0.0546  0.1327 -0.1714
  172POPC   GL1 2368   9.644   0.399   7.613  0.2124 -0.1188 -0.1461
  172POPC   GL2 2369   9.645   0.577   7.275 -0.0834 -0.0233 -0.1789
  172POPC   C1A 2370   9.795   0.074   7.217  0.4084  0.1773 -0.0180
  172POPC   D2A 2371   9.636  -0.200   7.085  0.0011  0.0454  0.2743
  172POPC   C3A 2372   9.806  -0.394   6.692 -0.0780 -0.0200  0.0929
  172POPC   C4A 2373  10.155  -0.405   6.426 -0.3042  0.1560 -0.2363
  172POPC   C1B 2374   9.913   0.513   6.897 -0.2172 -0.0272 -0.1638
  172POPC   C2B 2375   9.815   0.804   6.601 -0.0582 -0.3052 -0.0792
  172POPC   C3B 2376   9.682   0.925   6.229  0.2182  0.1793  0.0682
  172POPC   C4B 2377   9.899   0.889   5.793 -0.1827  0.2157  0.3047
  173POPC   NC3 2378   0.780   9.450   7.364  0.0105  0.1221 -0.0838
  173POPC   PO4 2379   0.449   9.666   7.484 -0.0613  0.0721  0.1567
  173POPC   GL1 2380   0.281   9.539   7.222 -0.2903 -0.0599 -0.1883
  173POPC   GL2 2381   0.197   9.293   7.217 -0.2996 -0.1127 -0.4289
  173POPC   C1A 2382   0.080   9.549   6.766  0.4941 -0.1134  0.2142
  173POPC   D2A 2383  -0.414   9.740   6.611  0.0530 -0.0028  0.1934
  173POPC   C3A 2384  -0.441   9.833   6.199  0.0856  0.0042  0.1359
  173POPC   C4A 2385  -0.722   9.790   5.809 -0.2028 -0.0630 -0.1811
  173POPC   C1B 2386   0.539   9.237   6.824  0.2065 -0.2109  0.0345
  173POPC   C2B 2387   0.773   9.022   6.513 -0.3519  0.0241  0.1144
  173POPC   C3B 2388   0.886   9.288   6.078 -0.0561  0.0014  0.0715
  173POPC   C4B 2389   0.716   9.367   5.623 -0.1385 -0.0078 -0.0994
  174POPC   NC3 2390   2.249   3.273   4.039  0.0286  0.0357 -0.1443
  174POPC   PO4 2391   1.965   2.981   3.963 -0.0362 -0.4780 -0.0421
  174POPC   GL1 2392   1.901   3.128   4.439 -0.0305  0.0134  0.0262
  174POPC   GL2 2393   2.170   3.308   4.547 -0.3050  0.0877 -0.0183
  174POPC   C1A 2394   1.764   3.360   4.838  0.1767  0.0183  0.2264
  174POPC   D2A 2395   1.808   3.520   5.227 -0.1199 -0.3122 -0.5062
  174POPC   C3A 2396   1.710   3.335   5.619  0.0146 -0.1415 -0.0947
  174POPC   C4A 2397   1.897   3.095   5.883 -0.0022 -0.2542 -0.3393
  174POPC   C1B 2398   2.302   3.449   4.925  0.1946  0.3684  0.2656
  174POPC   C2B 2399   2.394   3.588   5.333  0.3014 -0.1530 -0.0418
  174POPC   C3B 2400   2.629   3.464   5.694  0.0161  0.3994 -0.2949
  174POPC   C4B 2401   2.786   3.068   5.736  0.1739 -0.0321 -0.0454
  175POPC   NC3 2402   2.739   8.091   3.810  0.0086 -0.0686  0.1583
  175POPC   PO4 2403   3.007   7.791   3.634 -0.2102  0.0955 -0.1439
  175POPC   GL1 2404   2.978   7.703   4.049  0.1755 -0.1380 -0.2134
  175POPC   GL2 2405   3.037   7.456   4.233  0.1853 -0.3237  0.3553
  175POPC   C1A 2406   2.720   7.750   4.463 -0.0358 -0.4104  0.1207
  175POPC   D2A 2407   2.496   7.902   4.849 -0.1816  0.1406  0.1017
  175POPC   C3A 2408   2.839   7.822   5.189 -0.2576 -0.0506  0.1544
  175POPC   C4A 2409   2.995   7.515   5.559  0.0147 -0.0195  0.0926
  175POPC   C1B 2410   3.282   7.405   4.542 -0.0153  0.0264  0.1570
  175POPC   C2B 2411   3.647   7.594   4.761  0.1179 -0.2892 -0.0420
  175POPC   C3B 2412   4.006   7.854   4.873 -0.0555  0.2323 -0.1290
  175POPC   C4B 2413   4.107   8.313   4.914 -0.2460  0.0451  0.2833
  176POPC   NC3 2414  10.346   0.760   3.804  0.1348  0.0366  0.0026
  176POPC   PO4 2415  10.746   0.847   4.063 -0.3211 -0.0230 -0.0513
  176POPC   GL1 2416  10.630   0.682   4.585  0.0644 -0.0234 -0.0059
  176POPC   GL2 2417  10.413   0.370   4.559  0.0300  0.0462 -0.2677
  176POPC   C1A 2418  10.191   0.778   4.752  0.2160  0.1943 -0.0159
  176POPC   D2A 2419   9.883   0.414   4.832 -0.0914  0.1592 -0.0117
  176POPC   C3A 2420   9.485   0.396   5.090  0.3959  0.4077  0.2128
  176POPC   C4A 2421   9.502  -0.009   5.411  0.1660  0.0723  0.2043
  176POPC   C1B 2422  10.399   0.359   4.999 -0.0063  0.3001 -0.0492
  176POPC   C2B 2423   9.983   0.313   5.313  0.1872  0.1517 -0.1169
  176POPC   C3B 2424   9.618   0.418   5.636  0.1750 -0.0015 -0.0376
  176POPC   C4B 2425   9.425   0.258   6.011 -0.0548  0.3144  0.4123
  177POPC   NC3 2426   9.430   7.631   2.883  0.0155  0.3179  0.3630
  177POPC   PO4 2427   9.148   7.563   3.134 -0.2523  0.0906 -0.0806
  177POPC   GL1 2428   9.143   7.633   3.557  0.0379  0.0597  0.0391
  177POPC   GL2 2429   9.060   7.844   3.759 -0.0190 -0.1012  0.2828
  177POPC   C1A 2430   9.096   7.327   3.865  0.2313  0.0149  0.0248
  177POPC   D2A 2431   8.962   7.437   4.325 -0.4210  0.3828 -0.1234
  177POPC   C3A 2432   9.334   7.403   4.572  0.1699 -0.0592 -0.0637
  177POPC   C4A 2433   9.717   7.258   4.793  0.2890  0.0525 -0.0697
  177POPC   C1B 2434   9.382   7.710   4.083  0.0902 -0.1630 -0.1249
  177POPC   C2B 2435   9.637   7.875   4.444 -0.3217  0.1453  0.2596
  177POPC   C3B 2436   9.991   7.715   4.682 -0.0606  0.1753  0.0470
  177POPC   C4B 2437  10.243   7.868   5.055 -0.3229  0.2071  0.2090
  178POPC   NC3 2438   4.465   3.140   3.960 -0.3492 -0.0475  0.1611
  178POPC   PO4 2439   4.478   3.477   3.868 -0.0126 -0.1101  0.1122
  178POPC   GL1 2440   4.071   3.489   4.240  0.1434 -0.0379  0.2158
  178POPC   GL2 2441   4.016   3.119   4.379 -0.4001 -0.1378  0.0444
  178POPC   C1A 2442   4.043   3.678   4.666 -0.1472 -0.0069  0.2904
  178POPC   D2A 2443   4.062   3.358   4.848  0.2004 -0.2158 -0.3380
  178POPC   C3A 2444   4.341   2.953   4.795  0.2192  0.0372  0.1864
  178POPC   C4A 2445   4.669   2.624   4.762 -0.2744 -0.1265  0.0779
  178POPC   C1B 2446   3.809   2.895   4.691 -0.4084 -0.2639 -0.0647
  178POPC   C2B 2447   3.859   2.915   5.099 -0.2198 -0.0261 -0.4118
  178POPC   C3B 2448   4.126   2.947   5.346 -0.1595  0.0962  0.0522
  178POPC   C4B 2449   4.207   2.653   5.732 -0.0123 -0.2448  0.2515
  179POPC   NC3 2450   4.952   0.343   3.245  0.0501 -0.0950 -0.0295
  179POPC   PO4 2451   4.587   0.758   3.523  0.1571  0.4203 -0.0074
  179POPC   GL1 2452   4.518   0.975   3.991 -0.2737 -0.1198 -0.1780
  179POPC   GL2 2453   4.534   1.377   4.031  0.0245 -0.5157  0.0649
  179POPC   C1A 2454   4.362   0.884   4.467  0.1422  0.0577 -0.1294
  179POPC   D2A 2455   4.231   0.722   4.849 -0.0657  0.0586 -0.3128
  179POPC   C3A 2456   4.344   0.751   5.335 -0.1661  0.2178 -0.2687
  179POPC   C4A 2457   4.574   0.891   5.563  0.0815 -0.0097  0.0395
  179POPC   C1B 2458   4.427   1.341   4.440 -0.1461 -0.1604 -0.0464
  179POPC   C2B 2459   4.378   1.274   4.861 -0.1884  0.1891 -0.2354
  179POPC   C3B 2460   4.193   1.620   5.137  0.0760 -0.0199  0.1434
  179POPC   C4B 2461   4.061   2.016   5.403  0.1020 -0.2155 -0.0058
  180POPC   NC3 2462   6.040   4.524   4.201  0.2210 -0.2567  0.3872
  180POPC   PO4 2463   6.375   4.840   3.966 -0.0266 -0.0516 -0.1532
  180POPC   GL1 2464   6.532   4.799   4.327 -0.1242 -0.2274  0.1561
  180POPC   GL2 2465   6.779   4.517   4.410  0.2129 -0.0944  0.3170
  180POPC   C1A 2466   6.514   4.694   4.740  0.0059 -0.2611 -0.0100
  180POPC   D2A 2467   6.599   4.354   4.854  0.4956  0.1815 -0.1836
  180POPC   C3A 2468   6.647   4.162   5.322  0.1173 -0.2986 -0.1603
  180POPC   C4A 2469   6.563   4.049   5.834 -0.0221 -0.2413  0.0747
  180POPC   C1B 2470   7.011   4.590   4.807  0.2239 -0.1997 -0.0947
  180POPC   C2B 2471   7.173   4.842   5.131 -0.1500  0.0766  0.4480
  180POPC   C3B 2472   7.153   4.961   5.615 -0.0578  0.0585 -0.1824
  180POPC   C4B 2473   7.241   5.153   6.083 -0.1768  0.0906  0.0067
  181POPC   NC3 2474   7.673   2.717   2.970  0.2151 -0.0331 -0.0491
  181POPC   PO4 2475   7.661   2.683   3.362 -0.5094  0.0761  0.0609
  181POPC   GL1 2476   7.605   2.546   3.848  0.1378 -0.1110 -0.2689
  181POPC   GL2 2477   7.178   2.498   3.793 -0.2534  0.0858 -0.1429
  181POPC   C1A 2478   7.426   2.647   4.179  0.1317 -0.2045  0.0310
  181POPC   D2A 2479   7.466   2.598   4.649  0.1873 -0.1317 -0.1024
  181POPC   C3A 2480   7.603   2.757   5.022  0.1669  0.0612 -0.0561
  181POPC   C4A 2481   7.681   2.865   5.433 -0.2021  0.0952  0.1313
  181POPC   C1B 2482   6.898   2.249   4.044  0.2860 -0.3778 -0.1100
  181POPC   C2B 2483   6.613   1.998   4.302  0.2719 -0.2898  0.2713
  181POPC   C3B 2484   6.435   1.932   4.646  0.0338 -0.2187  0.2331
  181POPC   C4B 2485   6.279   1.982   5.080  0.4063  0.1630  0.1355
  182POPC   NC3 2486   8.750   9.210   3.494  0.0312  0.0429  0.1136
  182POPC   PO4 2487   8.981   9.509   3.841 -0.1385  0.0523 -0.1520
  182POPC   GL1 2488   9.257   9.559   4.283  0.0106 -0.0153  0.0136
  182POPC   GL2 2489   9.475   9.517   4.183  0.0164 -0.1262  0.1122
  182POPC   C1A 2490   9.360   9.653   4.705  0.0719  0.1861  0.0882
  182POPC   D2A 2491   9.676   9.688   5.123 -0.0500  0.0248 -0.1731
  182POPC   C3A 2492   9.532   9.636   5.457 -0.1057 -0.1712 -0.1588
  182POPC   C4A 2493   9.327   9.716   5.816  0.0183 -0.1111  0.1850
  182POPC   C1B 2494   9.781   9.463   4.595 -0.0565 -0.0153  0.1440
  182POPC   C2B 2495  10.157   9.503   5.004  0.0888  0.2130  0.2283
  182POPC   C3B 2496  10.081   9.534   5.431  0.1258 -0.1019 -0.0329
  182POPC   C4B 2497  10.377   9.651   5.775  0.2734  0.0403 -0.3280
  183POPC   NC3 2498   3.813  10.314   3.702  0.2564  0.2568  0.0221
  183POPC   PO4 2499   3.427  10.051   3.809  0.1451  0.0652  0.0477
  183POPC   GL1 2500   3.695  10.046   4.177  0.0231  0.0973 -0.2135
  183POPC   GL2 2501   3.539   9.963   4.529 -0.0320 -0.0592 -0.0106
  183POPC   C1A 2502   3.980  10.013   4.446 -0.2045 -0.2280  0.1581
  183POPC   D2A 2503   4.123  10.254   4.719 -0.6215 -0.2318 -0.1632
  183POPC   C3A 2504   4.317  10.545   4.497 -0.3158 -0.2225 -0.4268
  183POPC   C4A 2505   4.506  10.953   4.688 -0.0489  0.3308  0.1902
  183POPC   C1B 2506   3.733   9.906   4.979  0.1692  0.0503 -0.0113
  183POPC   C2B 2507   3.795   9.752   5.267  0.1964  0.2760  0.0365
  183POPC   C3B 2508   3.947   9.467   5.659  0.0197  0.0237  0.0456
  183POPC   C4B 2509   4.208   9.141   5.409  0.0414  0.3703  0.1194
  184POPC   NC3 2510   7.582   3.100   3.638 -0.1141  0.2931 -0.0786
  184POPC   PO4 2511   8.043   3.148   3.807  0.0535 -0.0018 -0.1750
  184POPC   GL1 2512   7.778   3.011   4.117  0.0384  0.2413 -0.1583
  184POPC   GL2 2513   7.431   3.177   4.158  0.2922  0.3090 -0.0216
  184POPC   C1A 2514   7.937   2.948   4.477 -0.0443 -0.0075 -0.1130
  184POPC   D2A 2515   8.168   2.758   4.800 -0.0532 -0.0014  0.2450
  184POPC   C3A 2516   8.089   2.549   5.158 -0.2323  0.1991 -0.1200
  184POPC   C4A 2517   8.298   2.143   5.171 -0.2332 -0.2207 -0.0023
  184POPC   C1B 2518   7.342   3.157   4.628  0.1931 -0.1880  0.2258
  184POPC   C2B 2519   7.195   3.156   5.043 -0.1157 -0.2162 -0.5912
  184POPC   C3B 2520   7.109   3.151   5.519 -0.0684  0.0999  0.1427
  184POPC   C4B 2521   6.777   3.132   5.934  0.1136 -0.0821 -0.1616
  185POPC   NC3 2522   6.273   0.790   3.408  0.0729 -0.2446 -0.0390
  185POPC   PO4 2523   5.901   0.524   3.532 -0.0904  0.1352 -0.0082
  185POPC   GL1 2524   6.014   0.705   3.916  0.0861 -0.1866 -0.0988
  185POPC   GL2 2525   5.666   0.767   3.958 -0.1059 -0.1261  0.2265
  185POPC   C1A 2526   6.281   0.573   4.239  0.1318 -0.0077  0.1405
  185POPC   D2A 2527   6.735   0.629   4.507  0.0864  0.1063 -0.3585
  185POPC   C3A 2528   7.146   0.287   4.496 -0.2373  0.0954  0.1265
  185POPC   C4A 2529   7.489  -0.017   4.606 -0.1632  0.5310 -0.1979
  185POPC   C1B 2530   5.360   0.983   4.330  0.0958  0.1153 -0.0742
  185POPC   C2B 2531   5.279   0.822   4.681  0.0310 -0.0951  0.0097
  185POPC   C3B 2532   5.152   0.973   5.019 -0.0374 -0.0356  0.1994
  185POPC   C4B 2533   4.778   1.187   5.099 -0.0533 -0.1591  0.0697
  186POPC   NC3 2534   8.969   5.376   2.812  0.1007 -0.4104 -0.0838
  186POPC   PO4 2535   9.438   5.622   2.756 -0.1286  0.1023  0.0633
  186POPC   GL1 2536   9.433   5.408   3.109 -0.0769 -0.0679  0.1869
  186POPC   GL2 2537   9.235   5.458   3.231  0.1568  0.0502  0.1681
  186POPC   C1A 2538   9.538   5.261   3.560 -0.1650  0.1002 -0.1741
  186POPC   D2A 2539   9.462   5.043   4.039  0.0810 -0.1935 -0.0858
  186POPC   C3A 2540   9.337   4.739   4.348 -0.0437  0.0797  0.0901
  186POPC   C4A 2541   9.201   4.356   4.438 -0.1405 -0.0166 -0.2136
  186POPC   C1B 2542   9.051   5.182   3.613  0.0308 -0.0341  0.1295
  186POPC   C2B 2543   8.992   5.354   3.933 -0.0859 -0.0724  0.2664
  186POPC   C3B 2544   8.880   5.671   4.096 -0.2034 -0.0183 -0.1319
  186POPC   C4B 2545   8.957   6.147   4.365  0.2956 -0.2483  0.0492
  187POPC   NC3 2546   9.680   8.457   3.476 -0.0107  0.2508 -0.0940
  187POPC   PO4 2547   9.624   8.912   3.727  0.1582  0.1776 -0.1078
  187POPC   GL1 2548   9.950   8.873   4.085  0.0283  0.1541  0.5256
  187POPC   GL2 2549   9.902   8.978   4.285 -0.2036 -0.2942 -0.0075
  187POPC   C1A 2550  10.308   8.741   4.419  0.0965 -0.0986  0.2544
  187POPC   D2A 2551  10.683   8.534   4.560 -0.3122 -0.1028  0.0963
  187POPC   C3A 2552  10.636   8.235   4.942  0.4883  0.0457 -0.3363
  187POPC   C4A 2553  11.003   8.217   5.298 -0.0120  0.0998 -0.1439
  187POPC   C1B 2554   9.849   8.748   4.531 -0.0075  0.0050 -0.1366
  187POPC   C2B 2555   9.551   8.722   4.901  0.1040 -0.2398 -0.0191
  187POPC   C3B 2556   9.454   8.771   5.326  0.0958 -0.0546  0.1543
  187POPC   C4B 2557   9.247   8.605   5.742 -0.2749  0.0611 -0.1031
  188POPC   NC3 2558   8.234   3.625   3.786  0.2580  0.0355 -0.3652
  188POPC   PO4 2559   7.702   3.535   3.889  0.0989 -0.0249  0.0938
  188POPC   GL1 2560   7.954   3.502   4.264 -0.2202  0.2515 -0.1289
  188POPC   GL2 2561   7.746   3.408   4.464 -0.1648  0.0747 -0.0410
  188POPC   C1A 2562   8.232   3.574   4.471 -0.2474 -0.0157 -0.1825
  188POPC   D2A 2563   8.348   3.878   4.830 -0.3113  0.0726 -0.1676
  188POPC   C3A 2564   8.671   3.800   5.159 -0.0234  0.1623  0.0696
  188POPC   C4A 2565   8.784   3.590   5.505  0.0290  0.0231 -0.2389
  188POPC   C1B 2566   7.936   3.305   4.799  0.0429 -0.0080 -0.0047
  188POPC   C2B 2567   7.827   3.191   5.104  0.0716 -0.3593 -0.2272
  188POPC   C3B 2568   7.983   3.255   5.553  0.2337  0.1138 -0.3127
  188POPC   C4B 2569   8.326   3.548   5.742  0.1096 -0.0604  0.1751
  189POPC   NC3 2570   8.391   0.066   3.829  0.1174  0.1170 -0.2429
  189POPC   PO4 2571   8.851   0.067   3.735  0.0793  0.2108  0.4699
  189POPC   GL1 2572   8.870   0.392   4.056 -0.2457  0.2365 -0.0215
  189POPC   GL2 2573   8.683   0.268   4.249 -0.2601 -0.2277 -0.4600
  189POPC   C1A 2574   8.876   0.722   4.431 -0.0718  0.1155 -0.1273
  189POPC   D2A 2575   8.790   0.855   4.805 -0.0329  0.0821 -0.1361
  189POPC   C3A 2576   8.747   0.860   5.301 -0.2132  0.2603  0.0654
  189POPC   C4A 2577   8.889   0.937   5.683  0.0156 -0.0994  0.1279
  189POPC   C1B 2578   8.366   0.464   4.393 -0.3163 -0.0135  0.1469
  189POPC   C2B 2579   8.121   0.648   4.790 -0.1099  0.3381  0.1823
  189POPC   C3B 2580   7.877   1.034   4.813 -0.0043 -0.0483 -0.0598
  189POPC   C4B 2581   8.011   1.402   5.046 -0.3224 -0.0455 -0.0557
  190POPC   NC3 2582   3.057   7.250   3.784 -0.0447  0.2285 -0.1215
  190POPC   PO4 2583   2.619   7.320   3.893  0.1412 -0.0031  0.3819
  190POPC   GL1 2584   2.376   7.160   4.308  0.1674  0.0826  0.1391
  190POPC   GL2 2585   2.380   7.349   4.546 -0.3667  0.1013 -0.1521
  190POPC   C1A 2586   1.990   7.009   4.580 -0.3508 -0.0529  0.0639
  190POPC   D2A 2587   1.941   6.632   4.939  0.0414 -0.0535  0.1313
  190POPC   C3A 2588   2.332   6.724   5.206  0.2972 -0.1834  0.0421
  190POPC   C4A 2589   2.680   6.636   5.311 -0.1357 -0.0584 -0.0198
  190POPC   C1B 2590   2.808   7.283   4.700  0.3950 -0.2130 -0.4389
  190POPC   C2B 2591   3.052   7.312   5.045  0.0554 -0.1323 -0.0876
  190POPC   C3B 2592   3.419   7.399   5.144  0.1299  0.0937 -0.1723
  190POPC   C4B 2593   3.882   7.324   5.053 -0.1119  0.0903  0.1507
  191POPC   NC3 2594   0.793   3.405   3.845 -0.2893  0.1373 -0.0259
  191POPC   PO4 2595   0.658   3.685   3.548  0.2170  0.0274 -0.2648
  191POPC   GL1 2596   0.650   3.929   3.832 -0.1871  0.1639  0.2257
  191POPC   GL2 2597   0.704   3.828   4.095 -0.0368 -0.1645  0.0276
  191POPC   C1A 2598   0.676   4.293   4.021 -0.1123  0.0704 -0.1258
  191POPC   D2A 2599   0.540   4.646   4.126  0.2803 -0.3879 -0.5479
  191POPC   C3A 2600   0.493   4.649   4.538 -0.2199 -0.1020  0.1049
  191POPC   C4A 2601   0.139   4.539   4.854  0.3608  0.2830  0.0717
  191POPC   C1B 2602   0.998   3.967   4.336 -0.0611 -0.1035  0.0166
  191POPC   C2B 2603   0.882   3.799   4.762  0.0573  0.2941  0.0149
  191POPC   C3B 2604   0.905   3.572   5.067 -0.1589 -0.1721  0.3703
  191POPC   C4B 2605   0.745   3.266   5.309  0.0750  0.0366  0.0663
  192POPC   NC3 2606   4.157   1.073   3.619 -0.0638 -0.0737  0.1768
  192POPC   PO4 2607   4.089   0.643   3.614 -0.2269  0.1224 -0.2089
  192POPC   GL1 2608   3.980   0.658   4.075 -0.1744  0.2634 -0.3082
  192POPC   GL2 2609   4.058   0.398   4.293 -0.3879 -0.0239 -0.3550
  192POPC   C1A 2610   3.720   0.672   4.500 -0.0660  0.0249 -0.0244
  192POPC   D2A 2611   3.776   0.515   5.031  0.0599  0.1159  0.0302
  192POPC   C3A 2612   4.200   0.299   5.156  0.1448 -0.1711  0.3408
  192POPC   C4A 2613   4.393  -0.039   5.104  0.1977 -0.0764  0.1538
  192POPC   C1B 2614   3.914   0.236   4.670  0.2297 -0.0271  0.0621
  192POPC   C2B 2615   3.801  -0.032   5.027  0.1689  0.2385  0.2020
  192POPC   C3B 2616   3.959  -0.381   5.205 -0.2069 -0.0247 -0.2757
  192POPC   C4B 2617   4.003  -0.612   5.628  0.3820 -0.1696  0.1246
  193POPC   NC3 2618   2.178   9.913   3.518  0.0663  0.3071 -0.4776
  193POPC   PO4 2619   2.187   9.474   3.715 -0.0230 -0.0113  0.1809
  193POPC   GL1 2620   2.265   9.364   4.104  0.1361 -0.5091  0.1080
  193POPC   GL2 2621   1.959   9.426   4.257  0.0941  0.1177  0.2954
  193POPC   C1A 2622   2.538   9.300   4.463  0.3719  0.0422 -0.0778
  193POPC   D2A 2623   2.806   9.374   4.820  0.0682 -0.1381  0.0513
  193POPC   C3A 2624   2.695   9.641   5.251  0.1505  0.4664  0.3313
  193POPC   C4A 2625   2.680   9.927   5.612  0.3293  0.1307  0.1167
  193POPC   C1B 2626   1.774   9.509   4.743  0.0322  0.5167 -0.0740
  193POPC   C2B 2627   1.711   9.509   5.256  0.1871  0.0135  0.0135
  193POPC   C3B 2628   1.831   9.183   5.469 -0.0762 -0.0883  0.0046
  193POPC   C4B 2629   1.807   8.908   5.873 -0.1612 -0.2944  0.1039
  194POPC   NC3 2630   5.132   4.588   4.154  0.1367  0.5364 -0.1409
  194POPC   PO4 2631   4.850   4.893   4.147 -0.1718  0.0816  0.1327
  194POPC   GL1 2632   4.578   4.881   4.459  0.0093  0.1975  0.2143
  194POPC   GL2 2633   4.357   4.882   4.356 -0.2487  0.0454 -0.0728
  194POPC   C1A 2634   4.636   4.798   4.798 -0.0133 -0.0670  0.0176
  194POPC   D2A 2635   4.668   4.620   5.144 -0.1035  0.1090 -0.0812
  194POPC   C3A 2636   5.133   4.661   5.259  0.2019 -0.2746 -0.3637
  194POPC   C4A 2637   5.375   4.381   5.453  0.0445  0.3345 -0.0972
  194POPC   C1B 2638   4.239   5.121   4.775 -0.1425 -0.0407 -0.3365
  194POPC   C2B 2639   4.260   4.909   5.149 -0.0861  0.1691 -0.0253
  194POPC   C3B 2640   4.164   4.615   5.484  0.0043 -0.0639 -0.0278
  194POPC   C4B 2641   4.367   4.396   5.730 -0.0662  0.0342 -0.0711
  195POPC   NC3 2642   2.134   3.552   3.368  0.2598  0.1105  0.3667
  195POPC   PO4 2643   2.010   3.934   3.639 -0.3618 -0.0620 -0.0633
  195POPC   GL1 2644   1.912   3.945   4.119  0.4017  0.1855 -0.1518
  195POPC   GL2 2645   1.911   3.596   4.225  0.0242  0.1007 -0.1178
  195POPC   C1A 2646   1.906   4.229   4.459  0.0380 -0.4595 -0.0504
  195POPC   D2A 2647   2.205   4.540   4.598 -0.2098 -0.1029  0.1389
  195POPC   C3A 2648   2.376   4.679   4.978  0.4041  0.2085  0.1609
  195POPC   C4A 2649   2.509   4.729   5.290  0.0665  0.0331 -0.1546
  195POPC   C1B 2650   1.897   3.719   4.573 -0.2090  0.3511  0.1256
  195POPC   C2B 2651   1.772   3.875   4.890  0.0867 -0.0499 -0.3692
  195POPC   C3B 2652   1.751   4.064   5.285  0.1479 -0.0948  0.4850
  195POPC   C4B 2653   1.880   3.879   5.689  0.2918 -0.1811  0.0348
  196POPC   NC3 2654  10.048   8.080   2.594 -0.2086 -0.0692  0.1406
  196POPC   PO4 2655   9.795   7.963   2.960  0.2539  0.1297  0.4727
  196POPC   GL1 2656  10.083   7.921   3.285 -0.3203  0.4472  0.3345
  196POPC   GL2 2657   9.951   8.016   3.526  0.3554 -0.0097  0.1286
  196POPC   C1A 2658  10.154   7.563   3.568 -0.0568  0.0272 -0.0448
  196POPC   D2A 2659  10.325   7.404   3.973  0.3134  0.1293  0.0240
  196POPC   C3A 2660  10.592   7.552   4.226 -0.0494  0.0453 -0.3899
  196POPC   C4A 2661  10.916   7.654   4.417 -0.0929 -0.0459 -0.0977
  196POPC   C1B 2662   9.656   7.731   3.583  0.0818  0.1364  0.1753
  196POPC   C2B 2663   9.618   7.405   3.814  0.0949 -0.1811  0.2240
  196POPC   C3B 2664   9.439   7.071   4.157 -0.0037 -0.0914  0.1667
  196POPC   C4B 2665   9.323   6.855   4.670 -0.1849  0.4598  0.0319
  197POPC   NC3 2666   6.278   9.042   3.481  0.0341  0.2349  0.1923
  197POPC   PO4 2667   6.039   8.744   3.850 -0.0390 -0.1967  0.0848
  197POPC   GL1 2668   5.963   8.688   4.250  0.3252  0.0481 -0.5259
  197POPC   GL2 2669   5.710   8.322   4.276  0.0046  0.1231  0.4758
  197POPC   C1A 2670   6.167   8.850   4.504 -0.2015  0.0463 -0.0937
  197POPC   D2A 2671   6.178   9.125   4.781  0.2262 -0.0944  0.1860
  197POPC   C3A 2672   6.244   9.006   5.102  0.5039  0.2940 -0.0952
  197POPC   C4A 2673   6.274   8.890   5.600  0.1772  0.1458  0.1311
  197POPC   C1B 2674   5.400   8.481   4.548  0.2457  0.3313  0.0618
  197POPC   C2B 2675   5.262   8.306   4.931  0.0999 -0.1044  0.2022
  197POPC   C3B 2676   5.456   8.238   5.283 -0.1991 -0.2386 -0.0385
  197POPC   C4B 2677   5.514   7.901   5.468 -0.2914 -0.0272  0.0446
  198POPC   NC3 2678   8.832   6.889   2.889 -0.2631  0.3045 -0.0449
  198POPC   PO4 2679   9.314   6.875   3.038 -0.3618 -0.1053  0.1189
  198POPC   GL1 2680   9.805   6.792   3.205  0.0203 -0.1975 -0.1713
  198POPC   GL2 2681  10.085   7.023   3.268 -0.0030  0.1036  0.1243
  198POPC   C1A 2682  10.128   6.551   3.288  0.3378 -0.0602 -0.0348
  198POPC   D2A 2683  10.048   6.185   3.433  0.1255  0.2351 -0.2805
  198POPC   C3A 2684  10.371   5.924   3.385  0.1000 -0.0772  0.2305
  198POPC   C4A 2685  10.493   5.486   3.334 -0.0821  0.3974 -0.0554
  198POPC   C1B 2686  10.363   7.052   3.607  0.1790  0.1664  0.2436
  198POPC   C2B 2687  10.698   6.792   3.822  0.2784  0.0767  0.2842
  198POPC   C3B 2688  10.635   6.504   4.118 -0.1584 -0.2755  0.1051
  198POPC   C4B 2689  10.729   6.376   4.557  0.2037 -0.0946  0.0752
  199POPC   NC3 2690   5.957   8.183   3.852 -0.0887 -0.0872 -0.2076
  199POPC   PO4 2691   6.223   7.888   3.990 -0.0791  0.1528  0.0890
  199POPC   GL1 2692   6.292   8.211   4.257 -0.0786  0.1823  0.3122
  199POPC   GL2 2693   6.610   8.319   4.355  0.0166 -0.2602 -0.2649
  199POPC   C1A 2694   6.121   8.367   4.573  0.2197  0.1504  0.0354
  199POPC   D2A 2695   6.016   8.640   4.875 -0.2646 -0.0040 -0.1285
  199POPC   C3A 2696   5.891   8.568   5.322  0.0972 -0.2120 -0.0971
  199POPC   C4A 2697   5.796   8.667   5.788 -0.1984  0.1930 -0.2350
  199POPC   C1B 2698   6.567   8.626   4.680  0.0072  0.2983 -0.1071
  199POPC   C2B 2699   6.780   8.821   4.923 -0.2561  0.2566 -0.0644
  199POPC   C3B 2700   6.677   9.044   5.276  0.1159 -0.0391  0.2327
  199POPC   C4B 2701   6.645   9.225   5.666  0.1041  0.2296  0.0583
  200POPC   NC3 2702   9.116   4.284   2.796  0.2507 -0.0977 -0.1156
  200POPC   PO4 2703   9.018   4.438   3.149 -0.0849  0.1217 -0.1021
  200POPC   GL1 2704   9.015   4.515   3.448  0.5073 -0.1436 -0.0468
  200POPC   GL2 2705   9.088   4.286   3.657  0.2847 -0.0475 -0.0586
  200POPC   C1A 2706   9.055   4.750   3.894  0.0633  0.1462  0.2519
  200POPC   D2A 2707   8.906   4.903   4.249 -0.1983  0.0774 -0.1211
  200POPC   C3A 2708   8.573   4.719   4.525  0.1441 -0.0760  0.1633
  200POPC   C4A 2709   8.518   4.739   4.938  0.0490 -0.0193 -0.0845
  200POPC   C1B 2710   9.400   4.385   3.918  0.3224  0.1120 -0.2060
  200POPC   C2B 2711   9.597   4.219   4.224  0.1438 -0.0939 -0.1097
  200POPC   C3B 2712   9.580   3.974   4.569  0.3523  0.0288  0.1608
  200POPC   C4B 2713   9.325   3.638   4.473  0.3262 -0.0558 -0.0159
  201POPC   NC3 2714   2.214   8.814   3.381  0.1936  0.1161  0.2091
  201POPC   PO4 2715   1.845   8.763   3.452 -0.0715  0.0145  0.1776
  201POPC   GL1 2716   1.615   8.880   3.776  0.0267 -0.2051 -0.0472
  201POPC   GL2 2717   1.626   8.641   4.042  0.1114  0.1222  0.0377
  201POPC   C1A 2718   1.491   9.024   4.245 -0.3024 -0.0715  0.0718
  201POPC   D2A 2719   1.257   8.776   4.486 -0.0890  0.0844  0.1181
  201POPC   C3A 2720   1.573   8.661   4.735 -0.0673  0.2534 -0.0151
  201POPC   C4A 2721   1.940   8.624   4.885 -0.2656  0.1059  0.0133
  201POPC   C1B 2722   1.551   8.362   4.331  0.0636 -0.0638 -0.0438
  201POPC   C2B 2723   1.441   8.194   4.633 -0.1584  0.0670 -0.2607
  201POPC   C3B 2724   1.303   7.940   4.904  0.0784  0.0835  0.1456
  201POPC   C4B 2725   1.184   7.616   5.229  0.0056 -0.1028  0.0014
  202POPC   NC3 2726   9.941   2.054   3.776 -0.0424  0.0033  0.2748
  202POPC   PO4 2727   9.590   1.863   3.941  0.0133 -0.0288  0.2228
  202POPC   GL1 2728   9.571   1.726   4.255  0.0556 -0.1492 -0.1902
  202POPC   GL2 2729   9.226   1.549   4.258 -0.3429 -0.0403  0.1252
  202POPC   C1A 2730   9.394   1.812   4.742  0.1132  0.0161  0.2043
  202POPC   D2A 2731   9.146   1.835   5.056 -0.2658 -0.4781 -0.1927
  202POPC   C3A 2732   8.806   2.035   4.868 -0.0400 -0.1612  0.1074
  202POPC   C4A 2733   8.542   2.402   4.711 -0.1723 -0.2316 -0.2566
  202POPC   C1B 2734   9.112   1.416   4.800 -0.0113 -0.0789  0.1141
  202POPC   C2B 2735   8.808   1.319   5.080 -0.0332  0.1272 -0.3499
  202POPC   C3B 2736   8.643   1.317   5.496 -0.0392 -0.1087  0.3882
  202POPC   C4B 2737   8.341   1.568   5.633  0.0621 -0.0873 -0.1042
  203POPC   NC3 2738  10.140   2.232   4.257  0.0200 -0.0170  0.0652
  203POPC   PO4 2739  10.163   1.880   4.183 -0.1590  0.1715  0.0653
  203POPC   GL1 2740   9.989   1.737   4.551  0.0357  0.0226  0.3380
  203POPC   GL2 2741  10.143   1.484   4.575  0.0140 -0.1518 -0.2449
  203POPC   C1A 2742   9.940   1.690   5.047  0.1135 -0.2901  0.0977
  203POPC   D2A 2743   9.613   1.859   5.262  0.0049 -0.2861 -0.0256
  203POPC   C3A 2744   9.784   1.962   5.701 -0.1180 -0.1567 -0.2120
  203POPC   C4A 2745  10.099   2.014   5.846 -0.2589  0.2625 -0.0022
  203POPC   C1B 2746  10.105   1.245   5.048 -0.1954 -0.0406  0.2987
  203POPC   C2B 2747   9.902   1.324   5.452  0.0897  0.0511 -0.1001
  203POPC   C3B 2748  10.121   1.523   5.735 -0.1479  0.0616 -0.1843
  203POPC   C4B 2749  10.618   1.616   5.763  0.4652  0.1615 -0.2049
  204POPC   NC3 2750   5.416   7.377   3.639  0.0951 -0.2742  0.0740
  204POPC   PO4 2751   5.296   7.744   3.809  0.3274 -0.3421 -0.1877
  204POPC   GL1 2752   5.477   7.719   4.196  0.1803  0.0197 -0.2996
  204POPC   GL2 2753   5.765   7.826   4.284 -0.0116  0.1746  0.0434
  204POPC   C1A 2754   5.249   7.855   4.563 -0.3391  0.0021  0.0678
  204POPC   D2A 2755   5.347   7.781   4.963 -0.0110 -0.1791 -0.2149
  204POPC   C3A 2756   5.614   7.480   5.208  0.2215 -0.1395 -0.0799
  204POPC   C4A 2757   5.602   7.257   5.483  0.1638  0.1234  0.1601
  204POPC   C1B 2758   5.741   7.991   4.721  0.0669  0.2675 -0.1963
  204POPC   C2B 2759   6.087   8.094   5.063 -0.1298  0.1982 -0.1232
  204POPC   C3B 2760   6.423   8.388   5.085 -0.0813  0.0688  0.1283
  204POPC   C4B 2761   6.803   8.554   5.336 -0.0438  0.0038  0.0879
  205POPC   NC3 2762   9.898   2.545   3.349  0.3714  0.3183 -0.3928
  205POPC   PO4 2763   9.901   2.567   3.767  0.1750  0.0934  0.1776
  205POPC   GL1 2764   9.719   2.468   4.165 -0.0189 -0.0067 -0.1459
  205POPC   GL2 2765   9.725   2.117   4.511  0.0402 -0.0773  0.1076
  205POPC   C1A 2766   9.563   2.646   4.641 -0.1261  0.0356  0.0241
  205POPC   D2A 2767   9.526   2.891   5.018 -0.0404 -0.0603 -0.0819
  205POPC   C3A 2768   9.724   3.202   5.139 -0.1426 -0.0608  0.0321
  205POPC   C4A 2769   9.661   3.548   4.870  0.1712 -0.1638 -0.0914
  205POPC   C1B 2770   9.829   2.176   4.963  0.3742 -0.2603  0.4189
  205POPC   C2B 2771   9.985   2.244   5.370 -0.0951 -0.0302  0.1628
  205POPC   C3B 2772  10.269   2.428   5.610  0.1816 -0.1771 -0.0703
  205POPC   C4B 2773  10.723   2.602   5.698 -0.0264 -0.0253 -0.2094
  206POPC   NC3 2774   6.669   6.670   4.218 -0.0495 -0.3137 -0.1481
  206POPC   PO4 2775   6.286   6.837   4.258 -0.3802  0.0096 -0.0717
  206POPC   GL1 2776   6.363   6.587   4.621  0.0318 -0.0125 -0.2111
  206POPC   GL2 2777   6.133   6.387   4.704 -0.2036  0.1219 -0.0476
  206POPC   C1A 2778   6.557   6.388   4.971 -0.0412 -0.1506  0.0057
  206POPC   D2A 2779   6.795   6.329   5.375 -0.0108 -0.0855 -0.0244
  206POPC   C3A 2780   6.996   6.616   5.567  0.1100 -0.0989 -0.3814
  206POPC   C4A 2781   7.464   6.516   5.678  0.1869  0.0527  0.0290
  206POPC   C1B 2782   6.145   6.667   5.043  0.0473 -0.1171  0.0743
  206POPC   C2B 2783   6.081   7.160   5.253  0.2382  0.0773  0.2166
  206POPC   C3B 2784   6.122   7.639   5.349  0.0747  0.1192  0.2601
  206POPC   C4B 2785   6.428   7.940   5.410 -0.0676 -0.0190  0.2688
  207POPC   NC3 2786   6.753   4.469   3.886  0.0841 -0.2623  0.0669
  207POPC   PO4 2787   6.774   4.023   3.737  0.0669  0.0410 -0.1285
  207POPC   GL1 2788   6.861   3.719   4.116 -0.1928 -0.1201  0.0357
  207POPC   GL2 2789   7.201   3.599   4.215  0.0586 -0.1150 -0.0813
  207POPC   C1A 2790   6.854   3.447   4.529  0.0138 -0.2423 -0.0913
  207POPC   D2A 2791   6.744   3.313   4.924  0.1396  0.0627  0.0043
  207POPC   C3A 2792   6.680   3.163   5.235  0.1201  0.1138  0.3957
  207POPC   C4A 2793   6.815   2.765   5.405  0.1545 -0.2466 -0.0347
  207POPC   C1B 2794   7.320   3.693   4.613 -0.1663  0.0273 -0.2295
  207POPC   C2B 2795   7.459   3.568   5.031  0.1370  0.2357 -0.0369
  207POPC   C3B 2796   7.503   3.382   5.453  0.0427 -0.1238 -0.2135
  207POPC   C4B 2797   7.530   3.088   5.808  0.0430 -0.2380 -0.0137
  208POPC   NC3 2798   6.927   5.724   3.363 -0.2155  0.3903 -0.2548
  208POPC   PO4 2799   6.931   5.743   3.863 -0.0310 -0.1107 -0.2068
  208POPC   GL1 2800   7.201   5.838   4.073 -0.2959 -0.1734 -0.0707
  208POPC   GL2 2801   6.969   5.896   4.443 -0.1139  0.0489  0.2604
  208POPC   C1A 2802   7.448   5.607   4.373 -0.0019  0.2340 -0.3622
  208POPC   D2A 2803   7.432   5.773   4.839 -0.0667 -0.3379  0.1168
  208POPC   C3A 2804   7.679   5.659   5.225  0.1619 -0.0643 -0.0858
  208POPC   C4A 2805   7.958   5.436   5.435 -0.1950  0.1331 -0.0858
  208POPC   C1B 2806   7.018   6.126   4.855  0.2085 -0.1618 -0.0663
  208POPC   C2B 2807   7.295   6.373   5.169  0.3291  0.1374  0.0162
  208POPC   C3B 2808   7.296   6.836   5.237  0.0442  0.0953 -0.1056
  208POPC   C4B 2809   7.078   7.100   4.922  0.1898 -0.0671  0.1078
  209POPC   NC3 2810  10.495   4.636   2.779 -0.3397 -0.2087 -0.1078
  209POPC   PO4 2811  10.810   4.857   3.025  0.0973 -0.1457 -0.3527
  209POPC   GL1 2812  10.507   4.758   3.269 -0.0428 -0.1613  0.2707
  209POPC   GL2 2813  10.297   4.982   3.172  0.0612 -0.3128 -0.2172
  209POPC   C1A 2814  10.471   5.028   3.628  0.0123 -0.1762 -0.1426
  209POPC   D2A 2815  10.799   5.279   3.639 -0.0216  0.0373  0.0828
  209POPC   C3A 2816  10.747   5.639   3.844  0.1663 -0.2683  0.1385
  209POPC   C4A 2817  10.622   5.888   4.257 -0.1534  0.0072  0.1197
  209POPC   C1B 2818  10.051   5.285   3.431  0.1974 -0.2232 -0.1918
  209POPC   C2B 2819   9.756   5.697   3.502  0.2319 -0.2478 -0.1096
  209POPC   C3B 2820   9.517   6.076   3.549 -0.3230 -0.0122  0.1125
  209POPC   C4B 2821   9.307   6.467   3.506  0.1355  0.0612 -0.0449
  210POPC   NC3 2822   3.951   6.077   3.960 -0.0592 -0.3248  0.2886
  210POPC   PO4 2823   3.615   6.196   3.809  0.0995  0.2211 -0.0748
  210POPC   GL1 2824   3.569   6.370   4.098  0.0650 -0.4152  0.0196
  210POPC   GL2 2825   3.306   6.484   4.320 -0.0964  0.0059 -0.2803
  210POPC   C1A 2826   3.827   6.428   4.484 -0.2113  0.1550 -0.0231
  210POPC   D2A 2827   4.091   6.498   4.769 -0.1673  0.3583 -0.3147
  210POPC   C3A 2828   3.939   6.451   5.207 -0.0648  0.1879  0.1641
  210POPC   C4A 2829   3.772   6.411   5.676 -0.3983 -0.0125 -0.0169
  210POPC   C1B 2830   3.357   6.052   4.388  0.1640  0.0325  0.0149
  210POPC   C2B 2831   3.388   5.663   4.688  0.0606  0.0225 -0.3815
  210POPC   C3B 2832   3.194   5.489   5.013  0.2395  0.4083 -0.3548
  210POPC   C4B 2833   3.325   5.101   5.257 -0.0301  0.1469  0.0323
  211POPC   NC3 2834   5.050   4.661   3.637 -0.0701 -0.0526 -0.0980
  211POPC   PO4 2835   5.499   4.801   3.852 -0.2082 -0.3076 -0.0085
  211POPC   GL1 2836   5.518   4.969   4.295  0.1405  0.1958  0.3893
  211POPC   GL2 2837   5.222   5.132   4.300 -0.0988 -0.2315 -0.1836
  211POPC   C1A 2838   5.559   4.699   4.661  0.0200 -0.1954  0.0434
  211POPC   D2A 2839   5.530   4.487   4.946 -0.1045  0.0313  0.0064
  211POPC   C3A 2840   5.155   4.225   5.012 -0.0455 -0.0817  0.0221
  211POPC   C4A 2841   4.747   4.073   5.059  0.2622  0.0714  0.2067
  211POPC   C1B 2842   5.199   5.457   4.612  0.0368 -0.1172  0.1132
  211POPC   C2B 2843   5.435   5.701   4.809  0.1053 -0.0317 -0.2331
  211POPC   C3B 2844   5.719   5.927   5.105  0.2683 -0.0109  0.1769
  211POPC   C4B 2845   6.091   6.102   5.101  0.0141  0.1122  0.0795
  212POPC   NC3 2846   5.625   5.347   3.708  0.0065 -0.0729  0.1200
  212POPC   PO4 2847   5.368   5.516   4.017 -0.1081  0.0552  0.2714
  212POPC   GL1 2848   5.648   5.456   4.440  0.0195  0.0954 -0.0485
  212POPC   GL2 2849   5.947   5.549   4.472 -0.0914  0.0689  0.1805
  212POPC   C1A 2850   5.674   5.190   4.783  0.3403 -0.4638 -0.0535
  212POPC   D2A 2851   5.613   4.936   5.141  0.1206 -0.4334 -0.0061
  212POPC   C3A 2852   5.849   5.021   5.489 -0.1820 -0.1209 -0.2386
  212POPC   C4A 2853   5.915   5.056   5.853  0.1528 -0.0556 -0.1028
  212POPC   C1B 2854   6.046   5.653   4.822 -0.3247 -0.1065 -0.0670
  212POPC   C2B 2855   6.261   5.558   5.301 -0.0659  0.0999 -0.2744
  212POPC   C3B 2856   6.365   5.088   5.550  0.0448 -0.1285  0.1474
  212POPC   C4B 2857   6.263   4.667   5.648  0.1086 -0.0404  0.0488
  213POPC   NC3 2858   6.751   9.228   3.754 -0.1500  0.3177 -0.0535
  213POPC   PO4 2859   6.713   8.843   3.641 -0.0528  0.4421 -0.0544
  213POPC   GL1 2860   6.598   8.899   4.087  0.1673 -0.0666 -0.1101
  213POPC   GL2 2861   6.887   8.717   4.233 -0.0103  0.0428 -0.2990
  213POPC   C1A 2862   6.629   9.092   4.513  0.1353  0.0785  0.0402
  213POPC   D2A 2863   6.578   9.355   4.916  0.0403 -0.2657 -0.1933
  213POPC   C3A 2864   6.883   9.523   5.297  0.3462  0.1183  0.1694
  213POPC   C4A 2865   7.095   9.407   5.441 -0.2692  0.1304  0.0273
  213POPC   C1B 2866   7.151   8.678   4.677 -0.1493  0.2485 -0.1449
  213POPC   C2B 2867   7.376   8.446   4.966 -0.1126  0.0661 -0.3606
  213POPC   C3B 2868   7.409   8.493   5.387  0.1313 -0.0863 -0.3602
  213POPC   C4B 2869   7.176   8.438   5.707  0.0141 -0.1611 -0.0789
  214POPC   NC3 2870   0.513   5.213   2.982 -0.0807  0.2180 -0.0045
  214POPC   PO4 2871   0.511   5.577   3.124  0.0472 -0.2516 -0.1589
  214POPC   GL1 2872   0.590   5.459   3.630 -0.1419 -0.0492 -0.2603
  214POPC   GL2 2873   0.831   5.395   3.826 -0.0230  0.0014  0.3098
  214POPC   C1A 2874   0.361   5.156   4.043  0.0854 -0.1102  0.0381
  214POPC   D2A 2875   0.117   4.867   4.321  0.1270 -0.2548  0.0576
  214POPC   C3A 2876   0.010   4.394   4.303  0.3811 -0.0191 -0.1372
  214POPC   C4A 2877   0.054   4.069   4.682  0.1209  0.0769  0.1175
  214POPC   C1B 2878   0.821   5.438   4.133  0.0275 -0.1213  0.0720
  214POPC   C2B 2879   0.939   5.511   4.583 -0.3267  0.4348 -0.0835
  214POPC   C3B 2880   0.949   5.386   4.995 -0.0219  0.3143  0.2307
  214POPC   C4B 2881   0.944   5.296   5.417  0.1254 -0.0724  0.1274
  215POPC   NC3 2882   4.069   3.751   3.790 -0.2275  0.0293 -0.0861
  215POPC   PO4 2883   3.912   4.119   3.965  0.2679  0.0858 -0.0477
  215POPC   GL1 2884   4.042   4.153   4.454 -0.0047  0.1088  0.3392
  215POPC   GL2 2885   4.217   4.355   4.398 -0.0871  0.1403 -0.0370
  215POPC   C1A 2886   3.925   4.127   4.838  0.1889  0.0974 -0.2081
  215POPC   D2A 2887   4.027   3.839   5.174 -0.0389 -0.1488  0.2463
  215POPC   C3A 2888   3.776   3.427   5.295 -0.2556 -0.0339 -0.2193
  215POPC   C4A 2889   3.472   3.119   5.446 -0.1145  0.1605  0.0890
  215POPC   C1B 2890   4.383   4.413   4.759  0.2268  0.1718  0.0671
  215POPC   C2B 2891   4.341   4.270   5.116  0.0010 -0.1415  0.2277
  215POPC   C3B 2892   4.467   4.018   5.427  0.0625 -0.0564  0.1502
  215POPC   C4B 2893   4.377   3.903   5.753  0.1761  0.2118 -0.0170
  216POPC   NC3 2894   3.491   9.544   3.635  0.2690 -0.0102 -0.2016
  216POPC   PO4 2895   3.722   9.608   3.931 -0.0792 -0.0332  0.1643
  216POPC   GL1 2896   3.704   9.512   4.336  0.4747 -0.3023  0.1759
  216POPC   GL2 2897   3.260   9.439   4.484 -0.0401  0.3261 -0.1995
  216POPC   C1A 2898   3.962   9.526   4.726 -0.0779 -0.4798  0.1469
  216POPC   D2A 2899   4.288   9.402   4.988  0.0459 -0.1071 -0.0733
  216POPC   C3A 2900   4.310   9.718   5.410  0.2004  0.0483  0.2962
  216POPC   C4A 2901   4.590   9.936   5.503 -0.0765  0.2440 -0.2095
  216POPC   C1B 2902   3.279   9.721   4.846  0.0911 -0.1568 -0.3707
  216POPC   C2B 2903   3.130   9.849   5.271  0.0483 -0.1014  0.2053
  216POPC   C3B 2904   2.995   9.543   5.698  0.1324 -0.0561  0.0322
  216POPC   C4B 2905   2.779   9.309   6.072  0.1311 -0.0742  0.2597
  217POPC   NC3 2906   7.668   9.165   3.360 -0.2485  0.0333  0.0023
  217POPC   PO4 2907   7.638   8.766   3.580 -0.1273 -0.1550  0.0915
  217POPC   GL1 2908   7.765   8.622   4.072  0.0087 -0.1306  0.2478
  217POPC   GL2 2909   7.916   8.901   4.337 -0.1103  0.0030 -0.0565
  217POPC   C1A 2910   7.728   8.395   4.550  0.0344  0.0065  0.2183
  217POPC   D2A 2911   7.934   8.366   4.884 -0.0509 -0.2207 -0.0399
  217POPC   C3A 2912   7.737   8.079   5.146 -0.4278 -0.1048 -0.2433
  217POPC   C4A 2913   7.685   7.782   5.500 -0.2245  0.0693  0.4417
  217POPC   C1B 2914   8.124   8.853   4.646  0.1836  0.2541 -0.0783
  217POPC   C2B 2915   8.277   8.698   5.042  0.1852  0.3907  0.3080
  217POPC   C3B 2916   8.225   8.966   5.500 -0.2040 -0.0857  0.1347
  217POPC   C4B 2917   8.303   8.929   5.905 -0.1048 -0.1168  0.0056
  218POPC   NC3 2918   8.714   8.655   3.653  0.4845  0.3151 -0.1723
  218POPC   PO4 2919   8.721   8.205   3.791  0.0272  0.2988 -0.2052
  218POPC   GL1 2920   8.604   8.145   4.146  0.0854  0.0318 -0.4219
  218POPC   GL2 2921   8.917   7.897   4.192 -0.1310  0.0802 -0.0607
  218POPC   C1A 2922   8.793   8.252   4.627  0.3748  0.1633 -0.0062
  218POPC   D2A 2923   8.526   8.244   4.976  0.0440  0.0761 -0.0733
  218POPC   C3A 2924   8.383   7.879   5.232 -0.2253  0.2848  0.2931
  218POPC   C4A 2925   8.389   7.710   5.630 -0.1865  0.0975  0.2331
  218POPC   C1B 2926   9.195   7.859   4.560 -0.1451 -0.1983 -0.0416
  218POPC   C2B 2927   9.567   7.751   4.926 -0.0485  0.0138 -0.1056
  218POPC   C3B 2928   9.384   7.838   5.321  0.2742 -0.0045 -0.5388
  218POPC   C4B 2929   9.207   7.986   5.713  0.0698 -0.4686 -0.1725
  219POPC   NC3 2930   8.314   7.836   3.122 -0.3325 -0.5701 -0.2081
  219POPC   PO4 2931   8.194   7.521   3.364  0.0505 -0.1137  0.1908
  219POPC   GL1 2932   8.555   7.404   3.654  0.0998  0.0710  0.1055
  219POPC   GL2 2933   8.590   7.636   3.945 -0.1944 -0.0115  0.2086
  219POPC   C1A 2934   8.650   7.065   3.920 -0.1186 -0.0768 -0.2320
  219POPC   D2A 2935   8.928   6.958   4.287 -0.1397  0.1234  0.0495
  219POPC   C3A 2936   9.182   6.550   4.255 -0.1758  0.2009  0.1798
  219POPC   C4A 2937   9.628   6.510   4.224 -0.0810 -0.1351 -0.0677
  219POPC   C1B 2938   8.487   7.431   4.283  0.0163  0.2931  0.0568
  219POPC   C2B 2939   8.340   7.337   4.671 -0.0290  0.1515 -0.0900
  219POPC   C3B 2940   8.452   7.330   5.144  0.0544 -0.2472 -0.0795
  219POPC   C4B 2941   8.845   7.126   5.285 -0.1275 -0.2804 -0.0973
  220POPC   NC3 2942   4.021   5.006   3.941 -0.0173 -0.2581 -0.2032
  220POPC   PO4 2943   4.374   5.241   4.036  0.0925  0.1747 -0.1497
  220POPC   GL1 2944   4.543   5.421   4.472 -0.0776 -0.2081  0.0166
  220POPC   GL2 2945   4.739   5.765   4.444 -0.0745  0.0813  0.1200
  220POPC   C1A 2946   4.707   5.255   4.854  0.0399 -0.2575  0.2115
  220POPC   D2A 2947   4.685   5.192   5.240  0.3694  0.0261 -0.3709
  220POPC   C3A 2948   4.382   5.084   5.637  0.3358  0.1166  0.0247
  220POPC   C4A 2949   3.885   5.069   5.576  0.0277  0.3480 -0.0422
  220POPC   C1B 2950   4.939   5.774   4.848 -0.0578  0.1490 -0.2212
  220POPC   C2B 2951   4.699   5.751   5.186  0.1025 -0.0760 -0.3919
  220POPC   C3B 2952   4.399   5.580   5.410 -0.0616 -0.2261  0.1036
  220POPC   C4B 2953   4.084   5.585   5.608 -0.0244 -0.0008 -0.2043
  221POPC   NC3 2954  10.045   4.410   2.483  0.2377  0.1942  0.1877
  221POPC   PO4 2955   9.941   4.623   2.826 -0.1159  0.3122 -0.1029
  221POPC   GL1 2956   9.921   4.612   3.295  0.2249  0.0414 -0.4821
  221POPC   GL2 2957   9.862   4.272   3.377  0.0044  0.1115 -0.1373
  221POPC   C1A 2958  10.103   4.734   3.648  0.1993 -0.0178  0.2512
  221POPC   D2A 2959  10.318   4.710   3.933 -0.0081 -0.2019 -0.1345
  221POPC   C3A 2960  10.251   4.866   4.327  0.1389 -0.0805 -0.1361
  221POPC   C4A 2961  10.339   4.765   4.663 -0.0915 -0.3412  0.1871
  221POPC   C1B 2962   9.877   4.328   3.798 -0.0249 -0.0191  0.0630
  221POPC   C2B 2963  10.117   4.319   4.069 -0.0005  0.1349 -0.1014
  221POPC   C3B 2964  10.165   4.368   4.494  0.5367 -0.2456  0.1853
  221POPC   C4B 2965  10.323   4.308   4.946  0.2229 -0.3030 -0.0550
  222POPC   NC3 2966   7.118   2.612   3.197  0.0924 -0.1204  0.0596
  222POPC   PO4 2967   7.439   2.274   3.381  0.2332 -0.0850 -0.2139
  222POPC   GL1 2968   7.118   1.963   3.723  0.0400 -0.1246 -0.1999
  222POPC   GL2 2969   6.948   1.578   3.622  0.0500 -0.1743  0.0504
  222POPC   C1A 2970   6.999   1.780   4.147  0.0525 -0.0756  0.0356
  222POPC   D2A 2971   7.109   1.751   4.577  0.1278 -0.1912 -0.1153
  222POPC   C3A 2972   6.951   1.937   4.939  0.0303  0.0267 -0.1131
  222POPC   C4A 2973   6.591   2.354   5.111 -0.1205 -0.0704 -0.1322
  222POPC   C1B 2974   7.229   1.494   3.869 -0.0650 -0.1396  0.0862
  222POPC   C2B 2975   7.480   1.436   4.173  0.0682  0.2129 -0.2366
  222POPC   C3B 2976   7.604   1.144   4.430 -0.1811 -0.0288  0.2801
  222POPC   C4B 2977   8.022   0.808   4.288  0.0755  0.1308 -0.3206
  223POPC   NC3 2978   1.837   0.119   3.985 -0.0074  0.4839  0.0667
  223POPC   PO4 2979   1.905   0.558   4.203 -0.3999  0.1067 -0.2229
  223POPC   GL1 2980   1.958   0.610   4.572 -0.0772 -0.1473 -0.0187
  223POPC   GL2 2981   2.264   0.605   4.734  0.1529 -0.3985  0.3799
  223POPC   C1A 2982   1.855   0.765   5.021  0.0416  0.0115 -0.3727
  223POPC   D2A 2983   1.563   0.977   5.307 -0.1878 -0.1392  0.0422
  223POPC   C3A 2984   1.481   1.399   5.470 -0.1895 -0.0300 -0.1899
  223POPC   C4A 2985   1.111   1.665   5.334  0.0963 -0.1244 -0.1794
  223POPC   C1B 2986   2.328   0.579   5.087  0.0844  0.2051 -0.1067
  223POPC   C2B 2987   2.103   0.776   5.462  0.0385 -0.0343 -0.0715
  223POPC   C3B 2988   2.342   1.029   5.844 -0.0883 -0.0130 -0.1346
  223POPC   C4B 2989   2.387   1.438   6.061 -0.0823 -0.0386 -0.1089
  224POPC   NC3 2990   7.002   7.446   4.099  0.0879 -0.1078  0.0456
  224POPC   PO4 2991   6.684   7.118   4.025  0.1882 -0.2624 -0.2014
  224POPC   GL1 2992   6.594   7.224   4.435  0.1882  0.2782  0.1832
  224POPC   GL2 2993   6.632   7.022   4.705  0.1368 -0.1254 -0.1128
  224POPC   C1A 2994   6.682   7.481   4.768 -0.1558  0.2081 -0.2197
  224POPC   D2A 2995   6.508   7.418   5.189 -0.1616  0.0903  0.0690
  224POPC   C3A 2996   6.411   7.156   5.646 -0.1278  0.0752  0.2467
  224POPC   C4A 2997   6.623   7.136   6.027 -0.1061  0.0572  0.1865
  224POPC   C1B 2998   6.653   6.862   5.158  0.3159  0.2131 -0.0739
  224POPC   C2B 2999   6.914   7.114   5.515 -0.0946 -0.0292 -0.1992
  224POPC   C3B 3000   7.133   7.001   5.974  0.0866 -0.2583  0.2108
  224POPC   C4B 3001   7.009   7.223   6.363  0.1830  0.0828  0.1806
  225POPC   NC3 3002   4.777   2.241   3.451 -0.1077 -0.0390  0.3544
  225POPC   PO4 3003   4.548   2.450   3.885 -0.2405 -0.3162 -0.2314
  225POPC   GL1 3004   4.751   2.376   4.217  0.4450  0.2423  0.0877
  225POPC   GL2 3005   4.938   2.053   4.151  0.0359  0.2969 -0.0946
  225POPC   C1A 3006   4.822   2.170   4.579  0.3511 -0.0631  0.0747
  225POPC   D2A 3007   4.998   2.051   5.005  0.2248 -0.0627 -0.0892
  225POPC   C3A 3008   4.614   2.252   5.221 -0.0151 -0.1294 -0.1757
  225POPC   C4A 3009   4.434   2.574   5.236  0.1879 -0.2000  0.2234
  225POPC   C1B 3010   5.219   2.010   4.392  0.3791  0.2368  0.2782
  225POPC   C2B 3011   5.340   1.825   4.668 -0.1112 -0.1597 -0.2259
  225POPC   C3B 3012   5.521   1.955   5.017 -0.2254  0.0174 -0.1275
  225POPC   C4B 3013   5.805   1.905   5.337  0.1071  0.0173  0.1763
  226POPC   NC3 3014   8.925   8.229   3.338 -0.1802  0.0424 -0.0810
  226POPC   PO4 3015   9.210   8.513   3.549 -0.2646  0.1719 -0.3088
  226POPC   GL1 3016   9.073   8.511   3.987 -0.1067  0.0745  0.1583
  226POPC   GL2 3017   8.972   8.668   4.191  0.0424 -0.0764 -0.2986
  226POPC   C1A 3018   9.302   8.286   4.331  0.2038  0.1099 -0.0019
  226POPC   D2A 3019   9.634   8.308   4.697  0.1725 -0.1446 -0.1435
  226POPC   C3A 3020   9.676   8.304   5.116 -0.1150  0.0215 -0.1250
  226POPC   C4A 3021   9.614   8.346   5.595  0.1924  0.1235  0.1364
  226POPC   C1B 3022   9.113   8.667   4.643  0.2349 -0.0224  0.4508
  226POPC   C2B 3023   9.207   8.392   5.051  0.1631 -0.1873  0.0043
  226POPC   C3B 3024   8.866   8.211   5.376  0.0262 -0.1223 -0.2373
  226POPC   C4B 3025   8.621   8.142   5.638  0.1605  0.1361  0.1718
  227POPC   NC3 3026  10.052   9.367   3.847 -0.1554  0.2188 -0.0964
  227POPC   PO4 3027   9.858   9.854   3.989 -0.0302  0.3803  0.1569
  227POPC   GL1 3028   9.620   9.953   4.411  0.0560 -0.1839  0.0683
  227POPC   GL2 3029   9.225  10.174   4.486  0.1039  0.1241  0.0358
  227POPC   C1A 3030   9.581  10.215   4.888  0.0523  0.1647 -0.0311
  227POPC   D2A 3031   9.323  10.131   5.277  0.0123  0.1554 -0.2784
  227POPC   C3A 3032   9.444  10.111   5.609 -0.1365 -0.1888 -0.4400
  227POPC   C4A 3033   9.543  10.397   5.844  0.0684  0.0080  0.2443
  227POPC   C1B 3034   8.926  10.167   4.812 -0.0779 -0.4049 -0.2014
  227POPC   C2B 3035   8.542  10.047   5.150  0.1279 -0.1718 -0.4333
  227POPC   C3B 3036   8.133   9.944   5.407  0.2034 -0.0187  0.2603
  227POPC   C4B 3037   7.739  10.248   5.533  0.0515 -0.2611  0.2227
  228POPC   NC3 3038   1.216   6.706   3.109  0.1065  0.2020 -0.0140
  228POPC   PO4 3039   1.028   6.354   3.364 -0.1983  0.1752 -0.3721
  228POPC   GL1 3040   1.020   6.274   3.751 -0.0104  0.1385  0.1120
  228POPC   GL2 3041   1.068   6.687   3.796 -0.2616 -0.0552 -0.2044
  228POPC   C1A 3042   0.741   6.063   3.959  0.2125 -0.1451 -0.1827
  228POPC   D2A 3043   0.495   6.287   4.254 -0.0982  0.0049  0.1994
  228POPC   C3A 3044   0.619   6.322   4.661 -0.1749 -0.0144 -0.1283
  228POPC   C4A 3045   0.635   6.332   5.180 -0.2398 -0.2276  0.2210
  228POPC   C1B 3046   0.933   6.603   4.213 -0.0269  0.1876  0.1340
  228POPC   C2B 3047   1.146   6.516   4.621 -0.2258  0.1439 -0.0603
  228POPC   C3B 3048   0.996   6.599   4.924 -0.0704  0.1296  0.0937
  228POPC   C4B 3049   1.039   6.744   5.401 -0.1796 -0.2627 -0.0276
  229POPC   NC3 3050   1.380   8.564   3.317  0.0151  0.2051 -0.2767
  229POPC   PO4 3051   1.059   8.066   3.396 -0.0055  0.2390  0.0448
  229POPC   GL1 3052   0.802   7.979   3.720  0.0588 -0.3513 -0.0098
  229POPC   GL2 3053   1.017   7.895   3.932 -0.2010 -0.2234 -0.0986
  229POPC   C1A 3054   0.551   8.102   4.198  0.1709  0.1262 -0.2239
  229POPC   D2A 3055   0.532   8.110   4.626 -0.2236  0.0454 -0.2134
  229POPC   C3A 3056   0.325   7.861   4.863  0.0743  0.0446  0.1994
  229POPC   C4A 3057   0.112   7.735   5.239 -0.0967  0.0738 -0.1880
  229POPC   C1B 3058   1.462   7.923   4.165  0.3302 -0.0432  0.2266
  229POPC   C2B 3059   1.653   7.706   4.401  0.1084 -0.0620 -0.0744
  229POPC   C3B 3060   1.874   7.482   4.707  0.0981 -0.2712  0.0495
  229POPC   C4B 3061   2.121   7.231   5.057 -0.2938 -0.3002  0.1553
  230POPC   NC3 3062   4.356   0.395   3.917 -0.1813  0.2230  0.1322
  230POPC   PO4 3063   4.846   0.343   3.783 -0.0955 -0.1431  0.0219
  230POPC   GL1 3064   5.086   0.558   4.081 -0.0632 -0.2737  0.0241
  230POPC   GL2 3065   4.839   0.664   4.228 -0.4101  0.2145  0.0231
  230POPC   C1A 3066   5.462   0.458   4.277  0.2093 -0.1773  0.3023
  230POPC   D2A 3067   5.702   0.515   4.658 -0.1028 -0.0245  0.1978
  230POPC   C3A 3068   6.125   0.513   4.756 -0.2426 -0.1895  0.3081
  230POPC   C4A 3069   6.565   0.598   5.045 -0.0075 -0.0300  0.0174
  230POPC   C1B 3070   5.003   0.400   4.542 -0.1972 -0.1985  0.0796
  230POPC   C2B 3071   4.896   0.006   4.688  0.1619  0.2679  0.0956
  230POPC   C3B 3072   4.656  -0.343   4.834  0.0549 -0.0416 -0.0779
  230POPC   C4B 3073   4.415  -0.604   5.070 -0.1285  0.0074 -0.0616
  231POPC   NC3 3074   3.502   4.370   3.669  0.0429 -0.1723 -0.0026
  231POPC   PO4 3075   3.768   4.613   3.748  0.2149 -0.0711 -0.1884
  231POPC   GL1 3076   3.859   4.599   4.175 -0.0517 -0.4484  0.0978
  231POPC   GL2 3077   3.839   4.865   4.383  0.0300 -0.0735  0.1637
  231POPC   C1A 3078   3.643   4.408   4.500  0.1741  0.0861 -0.2830
  231POPC   D2A 3079   3.509   3.993   4.512 -0.0666  0.2106  0.2998
  231POPC   C3A 3080   3.167   3.805   4.403  0.5800  0.2626 -0.1740
  231POPC   C4A 3081   2.803   4.118   4.532 -0.1441 -0.0677  0.2037
  231POPC   C1B 3082   3.890   4.712   4.869  0.0718  0.5798 -0.1881
  231POPC   C2B 3083   3.718   4.676   5.219 -0.1115 -0.0855  0.2698
  231POPC   C3B 3084   3.509   4.696   5.498 -0.0477 -0.3119  0.1530
  231POPC   C4B 3085   3.579   4.708   5.950 -0.1630  0.0472 -0.1547
  232POPC   NC3 3086   3.983   0.284   3.306 -0.1519  0.0498  0.0711
  232POPC   PO4 3087   4.030   0.110   3.688  0.0173 -0.2044 -0.0956
  232POPC   GL1 3088   3.898  -0.024   4.060  0.1100  0.0734 -0.1294
  232POPC   GL2 3089   3.513  -0.142   4.072  0.1895  0.1597 -0.0270
  232POPC   C1A 3090   3.781  -0.159   4.453 -0.4513 -0.0806 -0.0532
  232POPC   D2A 3091   3.422  -0.272   4.776  0.0895  0.3349  0.0490
  232POPC   C3A 3092   3.373  -0.355   5.201  0.0680  0.6605  0.3012
  232POPC   C4A 3093   3.499  -0.501   5.573 -0.0305  0.2645 -0.2638
  232POPC   C1B 3094   3.430   0.146   4.335 -0.0832  0.0111 -0.1098
  232POPC   C2B 3095   3.382   0.243   4.855  0.2548  0.2901  0.0008
  232POPC   C3B 3096   3.319   0.590   5.168  0.1485  0.2968  0.0876
  232POPC   C4B 3097   3.208   0.859   5.456 -0.0825  0.2199 -0.0124
  233POPC   NC3 3098   8.392   3.380   3.407  0.1990 -0.3695  0.1474
  233POPC   PO4 3099   8.672   3.861   3.638 -0.1671 -0.2551  0.1741
  233POPC   GL1 3100   8.455   3.978   4.051 -0.2434 -0.0157  0.0690
  233POPC   GL2 3101   8.061   3.989   4.072 -0.1561 -0.1583 -0.1617
  233POPC   C1A 3102   8.717   3.870   4.445 -0.1686 -0.1041 -0.1104
  233POPC   D2A 3103   8.881   3.567   4.665 -0.0221  0.1167  0.1806
  233POPC   C3A 3104   8.828   3.299   5.066 -0.0705 -0.0206 -0.2119
  233POPC   C4A 3105   9.005   2.877   5.281 -0.3338  0.0497  0.2170
  233POPC   C1B 3106   8.212   4.263   4.452  0.0263 -0.2499  0.3726
  233POPC   C2B 3107   8.126   4.360   4.882 -0.2892 -0.1574  0.1676
  233POPC   C3B 3108   7.804   4.269   5.213  0.1649  0.1070  0.4460
  233POPC   C4B 3109   7.454   3.956   5.508 -0.0679  0.2701 -0.3361
  234POPC   NC3 3110   1.522   6.652   3.576 -0.2478 -0.0015 -0.3322
  234POPC   PO4 3111   1.501   6.278   3.325  0.1049 -0.1197  0.3640
  234POPC   GL1 3112   1.580   6.154   3.766  0.0512  0.0079  0.1097
  234POPC   GL2 3113   1.682   5.866   3.881  0.0449  0.4279  0.1484
  234POPC   C1A 3114   1.558   6.255   4.177  0.1878  0.0177 -0.0027
  234POPC   D2A 3115   1.566   6.241   4.657  0.3388  0.1878 -0.0546
  234POPC   C3A 3116   1.192   6.138   5.035  0.2109 -0.2171 -0.2274
  234POPC   C4A 3117   1.063   6.164   5.417 -0.0345  0.0520  0.4073
  234POPC   C1B 3118   1.569   5.746   4.324  0.0598 -0.1497  0.0132
  234POPC   C2B 3119   1.339   5.748   4.687 -0.3550 -0.2189  0.1438
  234POPC   C3B 3120   1.276   5.690   5.182 -0.0827  0.0276  0.0278
  234POPC   C4B 3121   1.360   5.634   5.608 -0.0186 -0.1800  0.4133
  235POPC   NC3 3122   4.745  10.513   3.848  0.3280 -0.2767 -0.1027
  235POPC   PO4 3123   5.216  10.594   4.042 -0.1117  0.0679 -0.2609
  235POPC   GL1 3124   5.118  10.349   4.291  0.3430  0.2496 -0.0703
  235POPC   GL2 3125   4.779  10.288   4.262  0.2931 -0.0089 -0.2366
  235POPC   C1A 3126   5.093  10.174   4.676  0.2748  0.2113  0.1192
  235POPC   D2A 3127   5.207   9.909   4.939 -0.0596 -0.0598 -0.2107
  235POPC   C3A 3128   5.523   9.801   5.280 -0.0133 -0.1050 -0.1879
  235POPC   C4A 3129   5.753   9.656   5.592 -0.0369 -0.0266  0.0059
  235POPC   C1B 3130   4.498   9.979   4.475 -0.0335 -0.0288 -0.1740
  235POPC   C2B 3131   4.682   9.696   4.796  0.1320 -0.1357 -0.0324
  235POPC   C3B 3132   4.762   9.582   5.170  0.3582 -0.1980 -0.0111
  235POPC   C4B 3133   4.651   9.391   5.461  0.2740  0.3741  0.0798
  236POPC   NC3 3134   7.909   4.554   3.817  0.0356  0.1848 -0.2645
  236POPC   PO4 3135   7.605   4.210   3.864  0.0770  0.0507 -0.3068
  236POPC   GL1 3136   7.620   4.413   4.203 -0.0566 -0.0224 -0.0116
  236POPC   GL2 3137   7.336   4.576   4.262  0.0563  0.1006 -0.0704
  236POPC   C1A 3138   7.729   4.263   4.556  0.0648  0.3068 -0.1724
  236POPC   D2A 3139   7.863   3.819   4.736 -0.1929 -0.1321 -0.0546
  236POPC   C3A 3140   7.882   3.712   5.169  0.0346  0.3090  0.1313
  236POPC   C4A 3141   7.879   3.736   5.595 -0.0855  0.0142 -0.0072
  236POPC   C1B 3142   7.495   4.732   4.691  0.2439 -0.0183 -0.1353
  236POPC   C2B 3143   7.626   4.689   5.031  0.0965  0.0855 -0.2313
  236POPC   C3B 3144   7.827   5.029   5.073 -0.1282  0.1260 -0.0712
  236POPC   C4B 3145   7.841   5.355   4.787 -0.0444  0.4183  0.2023
  237POPC   NC3 3146   8.268   1.814   3.389  0.1871 -0.1889 -0.0492
  237POPC   PO4 3147   8.152   1.332   3.298 -0.0234 -0.0795 -0.5891
  237POPC   GL1 3148   8.138   1.391   3.681 -0.1719 -0.0982 -0.0450
  237POPC   GL2 3149   8.061   1.105   3.873 -0.0888  0.0389 -0.0642
  237POPC   C1A 3150   8.040   1.749   4.068  0.2041 -0.0821  0.3909
  237POPC   D2A 3151   7.822   1.920   4.324  0.0929  0.0785  0.1107
  237POPC   C3A 3152   7.632   1.698   4.554  0.0883 -0.0339 -0.0301
  237POPC   C4A 3153   7.431   1.414   4.838 -0.0984 -0.1586  0.1354
  237POPC   C1B 3154   8.404   1.282   4.081 -0.2290 -0.1232  0.1149
  237POPC   C2B 3155   8.582   1.601   4.326 -0.0403 -0.0122  0.1196
  237POPC   C3B 3156   8.707   1.614   4.660  0.0559  0.0240  0.0626
  237POPC   C4B 3157   8.472   1.692   5.090  0.1006  0.1441 -0.0047
  238POPC   NC3 3158   4.150   2.181   3.813  0.0226 -0.1691 -0.0332
  238POPC   PO4 3159   4.180   1.669   3.733  0.1689 -0.1871  0.0769
  238POPC   GL1 3160   4.215   1.737   4.163  0.2761  0.0170  0.0837
  238POPC   GL2 3161   4.516   1.856   4.351  0.1983 -0.1050 -0.0575
  238POPC   C1A 3162   4.033   1.648   4.554 -0.1598 -0.2772  0.1267
  238POPC   D2A 3163   3.684   1.526   4.840 -0.1410 -0.1030  0.0117
  238POPC   C3A 3164   3.652   1.803   5.184  0.7322  0.2760 -0.1234
  238POPC   C4A 3165   3.433   1.735   5.452  0.0759  0.2014  0.2125
  238POPC   C1B 3166   4.215   2.210   4.492 -0.1407  0.0765  0.0222
  238POPC   C2B 3167   4.116   2.509   4.823 -0.1036  0.0345 -0.0137
  238POPC   C3B 3168   3.938   2.478   5.248  0.0741  0.0515 -0.0303
  238POPC   C4B 3169   3.703   2.710   5.583  0.1631  0.0721 -0.3525
  239POPC   NC3 3170   6.818   9.869   3.622  0.1262  0.0515  0.3976
  239POPC   PO4 3171   6.421   9.546   3.904 -0.1239  0.1438 -0.1006
  239POPC   GL1 3172   6.226   9.741   4.293  0.0860 -0.0062 -0.3319
  239POPC   GL2 3173   5.959   9.913   4.231  0.3643 -0.1464 -0.0215
  239POPC   C1A 3174   6.235   9.680   4.732  0.3121 -0.1529  0.1133
  239POPC   D2A 3175   6.285   9.997   5.088 -0.0882  0.0285 -0.1909
  239POPC   C3A 3176   6.025  10.010   5.421  0.1284 -0.0104  0.1305
  239POPC   C4A 3177   5.608  10.175   5.651 -0.2438  0.1277 -0.1230
  239POPC   C1B 3178   5.812   9.560   4.480 -0.0154  0.1897  0.1394
  239POPC   C2B 3179   5.621   9.370   4.910  0.1535 -0.0726  0.2474
  239POPC   C3B 3180   5.441   9.269   5.268 -0.2067  0.0748 -0.0108
  239POPC   C4B 3181   5.014   9.181   5.241 -0.2724  0.5046 -0.0297
  240POPC   NC3 3182   5.748   4.021   3.487 -0.1498  0.0151 -0.0731
  240POPC   PO4 3183   5.775   4.271   3.812  0.0484  0.0463 -0.3568
  240POPC   GL1 3184   5.592   4.331   4.229  0.0270 -0.1858 -0.1955
  240POPC   GL2 3185   5.330   4.141   4.364  0.1470 -0.4942 -0.2589
  240POPC   C1A 3186   5.703   4.095   4.670 -0.0454  0.1652 -0.0832
  240POPC   D2A 3187   5.575   4.025   5.124 -0.0843 -0.2922  0.2111
  240POPC   C3A 3188   5.716   3.729   5.529  0.2292  0.1400 -0.2642
  240POPC   C4A 3189   5.693   3.367   5.827 -0.1814 -0.0752 -0.0747
  240POPC   C1B 3190   5.248   3.831   4.691 -0.2453  0.2991 -0.3129
  240POPC   C2B 3191   5.404   3.589   5.114  0.0778 -0.3743  0.1972
  240POPC   C3B 3192   5.501   3.268   5.342  0.1235  0.1676  0.1058
  240POPC   C4B 3193   5.409   2.834   5.497 -0.1211 -0.1312  0.3600
  241POPC   NC3 3194   6.708   3.556   3.612 -0.3614  0.2056 -0.2170
  241POPC   PO4 3195   6.412   3.682   3.895 -0.1362  0.2104 -0.0709
  241POPC   GL1 3196   6.214   3.630   4.136  0.0888 -0.0461 -0.3363
  241POPC   GL2 3197   6.029   3.899   4.144 -0.0371 -0.0187 -0.0051
  241POPC   C1A 3198   6.304   3.505   4.505  0.0297  0.2441 -0.0194
  241POPC   D2A 3199   6.281   3.259   4.899  0.0431  0.0343 -0.0755
  241POPC   C3A 3200   5.786   3.137   4.922  0.3171  0.2162 -0.0704
  241POPC   C4A 3201   5.360   2.918   5.031  0.2984 -0.1040 -0.0120
  241POPC   C1B 3202   6.244   4.016   4.565 -0.0291 -0.0931 -0.1621
  241POPC   C2B 3203   6.470   3.750   4.925  0.0656  0.1372 -0.0315
  241POPC   C3B 3204   6.385   3.600   5.327 -0.0861  0.0701  0.1303
  241POPC   C4B 3205   6.112   3.259   5.460  0.0737  0.0677 -0.0476
  242POPC   NC3 3206   2.113   1.680   3.488 -0.1486  0.1788  0.3817
  242POPC   PO4 3207   2.426   2.002   3.712 -0.0185  0.2106  0.4708
  242POPC   GL1 3208   2.407   2.034   4.207  0.1292  0.2944  0.0022
  242POPC   GL2 3209   2.193   2.184   4.295 -0.2748 -0.0360  0.1343
  242POPC   C1A 3210   2.334   2.027   4.722 -0.3860  0.0501 -0.0043
  242POPC   D2A 3211   2.418   1.971   5.232  0.2648  0.1850  0.2881
  242POPC   C3A 3212   2.348   2.283   5.494  0.1781  0.0106 -0.0360
  242POPC   C4A 3213   2.068   2.660   5.621  0.1923 -0.0092  0.1328
  242POPC   C1B 3214   2.264   2.529   4.533 -0.0038 -0.0011 -0.0397
  242POPC   C2B 3215   2.263   2.846   4.790  0.0130 -0.1511  0.1408
  242POPC   C3B 3216   2.022   3.030   5.221 -0.1375 -0.0477  0.0453
  242POPC   C4B 3217   2.232   3.181   5.593  0.1845  0.0084 -0.0957
  243POPC   NC3 3218   6.501   0.753   2.808  0.0679  0.4579  0.2697
  243POPC   PO4 3219   6.701   0.666   3.242 -0.4993  0.2490  0.1665
  243POPC   GL1 3220   6.764   0.905   3.611  0.2056 -0.0805  0.1172
  243POPC   GL2 3221   6.524   0.846   3.858  0.1156  0.0575 -0.2448
  243POPC   C1A 3222   6.933   1.125   4.040 -0.1341  0.1609 -0.1965
  243POPC   D2A 3223   7.107   1.225   4.408 -0.1182 -0.1226 -0.3337
  243POPC   C3A 3224   6.799   1.052   4.740  0.1242  0.1526  0.0039
  243POPC   C4A 3225   6.681   1.172   5.268 -0.1858  0.0124  0.0349
  243POPC   C1B 3226   6.516   0.996   4.255  0.2604  0.3788 -0.0044
  243POPC   C2B 3227   6.345   0.956   4.623  0.1499 -0.1485  0.2706
  243POPC   C3B 3228   6.255   1.056   5.059  0.1443  0.2328  0.1596
  243POPC   C4B 3229   6.193   1.051   5.496  0.0073 -0.0302 -0.2626
  244POPC   NC3 3230  10.035   8.821   3.446 -0.2554 -0.0053 -0.0541
  244POPC   PO4 3231  10.260   8.465   3.419  0.1801  0.0582  0.1589
  244POPC   GL1 3232  10.474   8.349   3.804  0.2236  0.0460 -0.0922
  244POPC   GL2 3233  10.357   8.573   3.980 -0.5175  0.2505  0.0651
  244POPC   C1A 3234  10.621   8.162   4.265  0.3953 -0.1333  0.1740
  244POPC   D2A 3235  10.538   7.926   4.562  0.1749  0.0050  0.3295
  244POPC   C3A 3236  10.493   7.542   4.733  0.1942 -0.1037  0.1094
  244POPC   C4A 3237  10.216   7.297   4.595  0.2512  0.3458  0.2637
  244POPC   C1B 3238  10.125   8.261   4.296  0.2247  0.1009 -0.2463
  244POPC   C2B 3239  10.156   8.317   4.767 -0.0464  0.0863  0.0350
  244POPC   C3B 3240  10.217   8.435   5.201  0.0053 -0.2733 -0.2353
  244POPC   C4B 3241  10.546   8.240   5.484 -0.0269  0.0818 -0.0705
  245POPC   NC3 3242   4.904   9.435   3.547  0.0233 -0.1023  0.1512
  245POPC   PO4 3243   4.692   9.811   3.840  0.2709  0.1416 -0.3378
  245POPC   GL1 3244   4.903   9.759   4.186  0.2547  0.4460  0.2755
  245POPC   GL2 3245   5.083   9.458   4.015  0.1209 -0.5471 -0.1989
  245POPC   C1A 3246   5.128   9.674   4.488 -0.3176 -0.1657 -0.2380
  245POPC   D2A 3247   5.170   9.364   4.778  0.0677 -0.0516  0.0174
  245POPC   C3A 3248   4.700   9.142   4.798 -0.2179 -0.1636 -0.2247
  245POPC   C4A 3249   4.374   9.137   4.388  0.2280 -0.1754 -0.2805
  245POPC   C1B 3250   4.886   9.272   4.306 -0.0222  0.1487 -0.0329
  245POPC   C2B 3251   5.051   8.878   4.491  0.1438  0.0616  0.0178
  245POPC   C3B 3252   5.011   8.738   4.944 -0.0993  0.1352  0.1335
  245POPC   C4B 3253   4.984   8.538   5.311  0.1277 -0.0215 -0.0164
  246POPC   NC3 3254   1.676   0.953   3.960  0.1044 -0.1359 -0.2256
  246POPC   PO4 3255   1.199   1.067   3.963 -0.3115 -0.0597  0.3320
  246POPC   GL1 3256   1.161   0.978   4.341  0.0415 -0.0434 -0.0813
  246POPC   GL2 3257   1.015   0.702   4.302  0.1545  0.0173 -0.0704
  246POPC   C1A 3258   0.863   1.263   4.718  0.1309  0.1061  0.0234
  246POPC   D2A 3259   0.781   1.360   5.197  0.0291 -0.1114 -0.1574
  246POPC   C3A 3260   0.613   1.160   5.386  0.2935 -0.0403 -0.0375
  246POPC   C4A 3261   0.104   0.917   5.444 -0.1774 -0.3101 -0.2286
  246POPC   C1B 3262   0.657   0.458   4.536 -0.1162  0.4001  0.1263
  246POPC   C2B 3263   0.375   0.201   4.591  0.3419 -0.2651 -0.1795
  246POPC   C3B 3264   0.268  -0.128   4.818 -0.3232 -0.0977  0.0010
  246POPC   C4B 3265   0.108   0.026   5.161 -0.0768 -0.1285  0.3016
  247POPC   NC3 3266   8.621   9.767   3.594  0.0870 -0.1288  0.0466
  247POPC   PO4 3267   8.356   9.386   3.658  0.1240 -0.2971 -0.1290
  247POPC   GL1 3268   8.375   9.154   3.987  0.0812 -0.0530  0.1138
  247POPC   GL2 3269   8.673   9.087   3.976  0.2270 -0.2274 -0.1303
  247POPC   C1A 3270   8.392   9.254   4.388  0.0219  0.1447  0.0012
  247POPC   D2A 3271   8.602   9.257   4.784  0.1383  0.1524 -0.0203
  247POPC   C3A 3272   8.368   9.517   5.165  0.1259  0.4751 -0.1057
  247POPC   C4A 3273   8.019   9.472   5.483 -0.0301 -0.0643  0.2681
  247POPC   C1B 3274   8.849   9.135   4.359 -0.1550 -0.1778 -0.1976
  247POPC   C2B 3275   9.141   9.208   4.687 -0.0540 -0.0722  0.1183
  247POPC   C3B 3276   9.477   9.213   5.076 -0.0567  0.3096  0.3582
  247POPC   C4B 3277   9.802   9.152   5.390  0.4690  0.1976  0.1311
  248POPC   NC3 3278   1.192   1.669   3.520  0.0181 -0.0099  0.3245
  248POPC   PO4 3279   1.486   1.404   3.739  0.1392  0.3050  0.0662
  248POPC   GL1 3280   1.445   1.423   4.173  0.0984 -0.1680 -0.3819
  248POPC   GL2 3281   1.705   1.193   4.428  0.1554  0.0939 -0.0480
  248POPC   C1A 3282   1.121   1.668   4.436 -0.0720  0.1159  0.0552
  248POPC   D2A 3283   1.217   2.090   4.536 -0.1659  0.0253  0.3031
  248POPC   C3A 3284   0.878   2.303   4.755 -0.1312  0.1792 -0.2269
  248POPC   C4A 3285   0.534   2.314   5.088  0.1211 -0.2983 -0.1183
  248POPC   C1B 3286   1.367   1.315   4.658 -0.5945  0.0767 -0.1339
  248POPC   C2B 3287   1.488   1.592   4.984 -0.3980 -0.0288  0.0117
  248POPC   C3B 3288   1.494   1.917   5.339 -0.1290 -0.0458  0.2614
  248POPC   C4B 3289   1.777   2.227   5.617  0.1333  0.0648  0.1481
  249POPC   NC3 3290   6.034  10.204   3.807  0.0169 -0.1421 -0.0669
  249POPC   PO4 3291   6.074  10.662   3.600 -0.1361 -0.1196 -0.1111
  249POPC   GL1 3292   6.085  10.703   4.053 -0.1314 -0.0639 -0.1256
  249POPC   GL2 3293   6.221  10.410   4.258  0.0355  0.3150 -0.1039
  249POPC   C1A 3294   5.928  10.714   4.445  0.1996 -0.1623  0.2443
  249POPC   D2A 3295   5.731  10.493   4.677  0.0300 -0.1274 -0.1636
  249POPC   C3A 3296   5.409  10.758   4.757  0.0761  0.0576  0.0283
  249POPC   C4A 3297   5.344  11.068   4.975 -0.1063  0.0918  0.0021
  249POPC   C1B 3298   6.108  10.197   4.641 -0.0316  0.1176 -0.2556
  249POPC   C2B 3299   5.952  10.375   5.074 -0.4496  0.1022 -0.1069
  249POPC   C3B 3300   5.918  10.598   5.479  0.4735  0.3252  0.3602
  249POPC   C4B 3301   5.987  10.991   5.694  0.0485 -0.0281 -0.2326
  250POPC   NC3 3302   1.042   7.551   3.584 -0.2030  0.1526 -0.4059
  250POPC   PO4 3303   1.265   7.170   3.533  0.0605 -0.3681 -0.1581
  250POPC   GL1 3304   1.286   7.264   3.966 -0.1980  0.0181  0.0246
  250POPC   GL2 3305   1.406   6.974   4.071  0.2376  0.2294 -0.3241
  250POPC   C1A 3306   1.150   7.532   4.286 -0.0049  0.0958 -0.3062
  250POPC   D2A 3307   0.924   7.859   4.493 -0.1051 -0.0018 -0.2045
  250POPC   C3A 3308   0.823   7.726   4.864 -0.4676 -0.1023 -0.0159
  250POPC   C4A 3309   0.511   7.497   5.146 -0.0078 -0.0552  0.0097
  250POPC   C1B 3310   1.559   6.733   4.494 -0.0924 -0.0125 -0.0345
  250POPC   C2B 3311   1.563   6.843   4.813 -0.0096  0.0425 -0.0501
  250POPC   C3B 3312   1.494   6.547   5.131 -0.0144  0.1367 -0.2015
  250POPC   C4B 3313   1.380   6.463   5.606 -0.0100 -0.3271  0.0282
  251POPC   NC3 3314   4.612   7.088   4.126  0.0975  0.1433 -0.2215
  251POPC   PO4 3315   4.328   6.760   4.172 -0.1606 -0.3257  0.0830
  251POPC   GL1 3316   4.528   6.635   4.522 -0.0244 -0.0620  0.1205
  251POPC   GL2 3317   4.751   6.364   4.609 -0.1222 -0.0048  0.1853
  251POPC   C1A 3318   4.665   6.917   4.839 -0.1531  0.2813 -0.5562
  251POPC   D2A 3319   4.760   7.264   4.945 -0.1078 -0.2593  0.2367
  251POPC   C3A 3320   4.360   7.503   5.103 -0.0981 -0.1350 -0.1256
  251POPC   C4A 3321   4.155   7.673   5.369  0.0738  0.3530 -0.2263
  251POPC   C1B 3322   4.895   6.459   4.970 -0.2909  0.0701  0.1219
  251POPC   C2B 3323   4.894   6.643   5.425  0.2415  0.1016 -0.0257
  251POPC   C3B 3324   4.799   6.601   5.856  0.2333  0.0982 -0.0804
  251POPC   C4B 3325   4.527   6.694   6.235 -0.0663  0.2218  0.2025
  252POPC   NC3 3326   6.223   7.379   4.179  0.0983 -0.0788 -0.1004
  252POPC   PO4 3327   5.827   7.144   3.872 -0.1801  0.1480  0.2674
  252POPC   GL1 3328   5.743   7.108   4.332 -0.3964  0.1590  0.3407
  252POPC   GL2 3329   5.875   6.902   4.504  0.0144  0.1881  0.2278
  252POPC   C1A 3330   5.634   7.342   4.543 -0.3022 -0.1721  0.0214
  252POPC   D2A 3331   5.217   7.345   4.839 -0.0483 -0.1601  0.3427
  252POPC   C3A 3332   5.123   7.480   5.288  0.2005 -0.3557  0.0102
  252POPC   C4A 3333   5.200   7.530   5.730  0.1540  0.1047  0.0911
  252POPC   C1B 3334   6.133   7.155   4.782 -0.0751 -0.1670  0.1921
  252POPC   C2B 3335   6.179   7.545   4.814 -0.2322 -0.3813 -0.0590
  252POPC   C3B 3336   6.457   7.954   4.770 -0.2063  0.1760 -0.2953
  252POPC   C4B 3337   6.825   8.060   5.083 -0.0533 -0.0033  0.3472
  253POPC   NC3 3338   7.345   6.242   3.851 -0.0968 -0.1014 -0.0715
  253POPC   PO4 3339   7.208   6.697   4.012  0.1529  0.3187 -0.4740
  253POPC   GL1 3340   7.256   6.452   4.381 -0.0705  0.2109  0.0390
  253POPC   GL2 3341   6.920   6.355   4.476 -0.0352  0.0867  0.0608
  253POPC   C1A 3342   7.518   6.291   4.711  0.0143 -0.2369 -0.1693
  253POPC   D2A 3343   7.820   6.058   4.947 -0.0781  0.2158 -0.0456
  253POPC   C3A 3344   7.802   6.121   5.403  0.0759  0.0447 -0.0589
  253POPC   C4A 3345   7.756   5.800   5.693  0.0985 -0.1876  0.1684
  253POPC   C1B 3346   7.039   6.691   4.740 -0.0997 -0.0774  0.1577
  253POPC   C2B 3347   7.482   6.865   4.731  0.0619  0.1069  0.0294
  253POPC   C3B 3348   7.747   7.151   4.847 -0.0436  0.1964  0.3963
  253POPC   C4B 3349   7.983   7.061   5.082 -0.1256 -0.2208  0.1310
  254POPC   NC3 3350   0.207   3.661   3.334 -0.0506  0.1222  0.0289
  254POPC   PO4 3351   0.292   3.338   3.638 -0.1633  0.0285  0.1482
  254POPC   GL1 3352   0.329   3.483   4.096 -0.1086  0.0476  0.2006
  254POPC   GL2 3353   0.074   3.350   4.171  0.0643  0.0150  0.0021
  254POPC   C1A 3354   0.434   3.688   4.513 -0.3955 -0.1509  0.1723
  254POPC   D2A 3355   0.375   3.730   5.011  0.1875  0.0913  0.0512
  254POPC   C3A 3356   0.578   3.706   5.443 -0.0535  0.1677 -0.0214
  254POPC   C4A 3357   0.797   3.682   5.844 -0.0179  0.1709  0.2214
  254POPC   C1B 3358   0.033   3.418   4.558  0.1444 -0.4744 -0.0862
  254POPC   C2B 3359  -0.134   3.665   4.955  0.0637 -0.2016  0.0892
  254POPC   C3B 3360   0.008   3.621   5.301 -0.0518 -0.0131 -0.1188
  254POPC   C4B 3361   0.160   3.815   5.683  0.0036  0.1443  0.0948
  255POPC   NC3 3362   3.181   3.045   3.848 -0.2144  0.2057 -0.0432
  255POPC   PO4 3363   2.710   3.287   3.831 -0.1029 -0.2126  0.0768
  255POPC   GL1 3364   2.703   3.348   4.339 -0.0834  0.0785 -0.0934
  255POPC   GL2 3365   2.547   3.676   4.414  0.3471 -0.2138 -0.3041
  255POPC   C1A 3366   2.682   3.116   4.731  0.0438 -0.1295  0.2231
  255POPC   D2A 3367   2.691   3.255   5.175 -0.1305 -0.4189  0.3495
  255POPC   C3A 3368   3.094   3.355   5.224 -0.1256  0.0725  0.0627
  255POPC   C4A 3369   3.414   3.144   4.967 -0.2350  0.1279  0.1021
  255POPC   C1B 3370   2.367   3.939   4.700  0.2237  0.0715 -0.0310
  255POPC   C2B 3371   2.209   4.120   5.064  0.0950 -0.1673 -0.1997
  255POPC   C3B 3372   2.067   4.396   5.429  0.2467 -0.0745  0.0516
  255POPC   C4B 3373   1.890   4.377   5.858  0.2951 -0.1048  0.1925
  256POPC   NC3 3374   3.172   7.781   3.095 -0.0614  0.3365  0.2712
  256POPC   PO4 3375   3.495   7.933   3.365 -0.1260  0.0420  0.0994
  256POPC   GL1 3376   3.560   7.864   3.800 -0.1276 -0.0504  0.1757
  256POPC   GL2 3377   3.848   7.633   3.945  0.1641  0.3726 -0.3797
  256POPC   C1A 3378   3.487   7.802   4.229  0.2253  0.0636  0.0799
  256POPC   D2A 3379   3.143   7.880   4.604 -0.0653  0.0430  0.2305
  256POPC   C3A 3380   3.307   7.886   4.972  0.0230 -0.0796 -0.0938
  256POPC   C4A 3381   3.686   7.840   5.263 -0.2981 -0.0131 -0.1429
  256POPC   C1B 3382   3.933   7.394   4.306  0.2628 -0.0758 -0.2893
  256POPC   C2B 3383   3.859   6.989   4.621  0.0848 -0.2447  0.0799
  256POPC   C3B 3384   3.626   6.697   4.844  0.0997  0.1218 -0.2391
  256POPC   C4B 3385   3.399   6.341   4.795  0.0279 -0.0858 -0.2687
  257POPC   NC3 3386   4.900   7.622   3.552  0.2269 -0.0204 -0.1626
  257POPC   PO4 3387   4.921   7.451   3.963 -0.1663  0.0021  0.2361
  257POPC   GL1 3388   4.875   7.524   4.491 -0.0300  0.0668  0.1044
  257POPC   GL2 3389   4.548   7.526   4.463 -0.0103 -0.2484 -0.1016
  257POPC   C1A 3390   4.876   7.739   4.885 -0.1473  0.2192 -0.2792
  257POPC   D2A 3391   5.048   7.977   5.263 -0.2858  0.0688  0.1274
  257POPC   C3A 3392   4.872   8.112   5.581 -0.0605 -0.1895  0.0315
  257POPC   C4A 3393   4.432   8.172   5.736  0.1436  0.1733  0.1727
  257POPC   C1B 3394   4.281   7.236   4.674  0.0039  0.1689 -0.2475
  257POPC   C2B 3395   4.208   6.912   5.103 -0.0295  0.1303  0.0881
  257POPC   C3B 3396   4.432   6.591   5.272 -0.3036  0.0200 -0.0981
  257POPC   C4B 3397   4.391   6.319   5.620 -0.2328 -0.0407  0.1725
  258POPC   NC3 3398   5.315   6.372   4.202  0.0614  0.2657 -0.0268
  258POPC   PO4 3399   5.045   6.717   4.248 -0.0584  0.2569  0.2526
  258POPC   GL1 3400   5.374   6.844   4.594 -0.1497  0.1902  0.4491
  258POPC   GL2 3401   5.142   6.872   4.826  0.0697  0.2565  0.1674
  258POPC   C1A 3402   5.634   6.951   5.023 -0.3572  0.1962 -0.4937
  258POPC   D2A 3403   5.751   6.699   5.412 -0.1991  0.2198 -0.1837
  258POPC   C3A 3404   6.258   6.510   5.480 -0.0653  0.0638  0.0057
  258POPC   C4A 3405   6.600   6.602   5.817  0.2035  0.2231 -0.5112
  258POPC   C1B 3406   5.200   7.005   5.269 -0.1650 -0.1387  0.0281
  258POPC   C2B 3407   5.270   6.880   5.761 -0.1758  0.0867  0.0650
  258POPC   C3B 3408   5.084   6.793   6.187  0.0054  0.2891  0.0285
  258POPC   C4B 3409   4.950   6.426   6.451 -0.0254  0.0413 -0.1492
  259POPC   NC3 3410   1.000   0.668   3.795  0.0094  0.1260  0.0198
  259POPC   PO4 3411   0.801   0.246   3.703 -0.1179  0.0826  0.1587
  259POPC   GL1 3412   0.969   0.143   4.194 -0.3704  0.3492  0.2058
  259POPC   GL2 3413   0.767  -0.069   4.401 -0.0218  0.2903 -0.0077
  259POPC   C1A 3414   1.114   0.216   4.572  0.2213 -0.1461 -0.3463
  259POPC   D2A 3415   1.073   0.262   4.967 -0.2749 -0.1502  0.1838
  259POPC   C3A 3416   0.695   0.353   5.126 -0.1239 -0.0178 -0.2158
  259POPC   C4A 3417   0.287   0.524   4.984  0.1914 -0.3051 -0.2223
  259POPC   C1B 3418   0.754  -0.206   4.867 -0.0378  0.2595  0.3397
  259POPC   C2B 3419   0.608  -0.219   5.241  0.1738  0.2539 -0.0120
  259POPC   C3B 3420   0.454   0.145   5.565 -0.2574 -0.0156 -0.0127
  259POPC   C4B 3421   0.590   0.648   5.490 -0.0794 -0.1184  0.1591
  260POPC   NC3 3422   4.937   2.736   3.545 -0.0599 -0.0259 -0.2478
  260POPC   PO4 3423   5.072   2.406   3.820 -0.0005 -0.0540 -0.1153
  260POPC   GL1 3424   5.455   2.407   4.163 -0.1045  0.0347  0.0851
  260POPC   GL2 3425   5.284   2.543   4.404  0.1952  0.0601  0.0269
  260POPC   C1A 3426   5.761   2.697   4.236 -0.3412 -0.2268 -0.0029
  260POPC   D2A 3427   6.159   2.809   4.114  0.2718 -0.5146  0.2049
  260POPC   C3A 3428   6.520   2.601   4.354 -0.1855  0.1155 -0.2628
  260POPC   C4A 3429   6.861   2.300   4.593 -0.2388  0.0112  0.0154
  260POPC   C1B 3430   5.146   2.475   4.772  0.2021  0.2939 -0.1370
  260POPC   C2B 3431   4.990   2.561   5.143 -0.1849 -0.2713 -0.0701
  260POPC   C3B 3432   4.880   2.818   5.375 -0.3275 -0.0902 -0.6425
  260POPC   C4B 3433   4.574   3.058   5.625 -0.0480 -0.1301  0.2151
  261POPC   NC3 3434   3.139   8.319   3.430 -0.2061 -0.0867 -0.0113
  261POPC   PO4 3435   3.291   8.622   3.822 -0.2311  0.2752  0.1490
  261POPC   GL1 3436   3.471   8.585   4.190 -0.2133 -0.1966  0.0437
  261POPC   GL2 3437   3.809   8.672   4.321 -0.0213 -0.2024 -0.0868
  261POPC   C1A 3438   3.358   8.524   4.524 -0.0946  0.0321 -0.1873
  261POPC   D2A 3439   3.582   8.728   4.843  0.3412  0.3516  0.0960
  261POPC   C3A 3440   3.966   8.695   5.235  0.3554 -0.1568  0.0173
  261POPC   C4A 3441   4.243   8.629   5.656  0.3243 -0.0034  0.0436
  261POPC   C1B 3442   4.034   8.808   4.644  0.2767  0.0752  0.0113
  261POPC   C2B 3443   3.937   9.068   4.853  0.1678  0.0028 -0.0969
  261POPC   C3B 3444   3.585   9.329   4.985 -0.2181  0.0230 -0.1407
  261POPC   C4B 3445   3.274   9.427   5.267  0.1565 -0.2058  0.0060
  262POPC   NC3 3446   1.898   7.466   3.681  0.1005 -0.0021  0.1620
  262POPC   PO4 3447   1.730   7.087   3.695  0.2179 -0.0192 -0.4203
  262POPC   GL1 3448   1.888   7.202   4.117  0.1465 -0.1641 -0.0408
  262POPC   GL2 3449   2.038   7.560   4.159 -0.0411  0.1134 -0.2058
  262POPC   C1A 3450   1.578   7.220   4.435  0.0525  0.0341 -0.0565
  262POPC   D2A 3451   1.417   7.395   4.804  0.0844  0.1897 -0.1244
  262POPC   C3A 3452   1.661   7.451   5.145  0.1040 -0.0264  0.0722
  262POPC   C4A 3453   2.016   7.723   5.178  0.1510 -0.0355  0.0933
  262POPC   C1B 3454   2.161   7.827   4.425 -0.1205 -0.2976  0.0567
  262POPC   C2B 3455   2.041   8.164   4.720 -0.3088 -0.2813  0.1696
  262POPC   C3B 3456   1.766   8.173   5.077 -0.2145 -0.3591  0.0417
  262POPC   C4B 3457   1.675   8.309   5.573  0.2033 -0.0950 -0.1332
  263POPC   NC3 3458   0.436  10.198   3.540  0.2246  0.2590  0.2980
  263POPC   PO4 3459   0.055  10.140   3.364  0.2003 -0.0205 -0.1463
  263POPC   GL1 3460   0.027  10.002   3.910 -0.1952  0.1091 -0.0604
  263POPC   GL2 3461   0.328  10.033   4.042 -0.1268 -0.1476 -0.1320
  263POPC   C1A 3462  -0.128   9.967   4.344  0.2271  0.1030  0.3524
  263POPC   D2A 3463  -0.546   9.854   4.640  0.0014  0.1173 -0.2134
  263POPC   C3A 3464  -0.538  10.046   5.071 -0.0499 -0.0139 -0.0580
  263POPC   C4A 3465  -0.770  10.294   5.399 -0.2764 -0.3401  0.0377
  263POPC   C1B 3466   0.330  10.096   4.511  0.1012  0.0144  0.0597
  263POPC   C2B 3467   0.376  10.075   4.983  0.3561 -0.1220  0.2107
  263POPC   C3B 3468   0.536   9.821   5.417 -0.2267 -0.0606  0.0865
  263POPC   C4B 3469   0.464   9.845   5.863  0.3831  0.3912  0.0509
  264POPC   NC3 3470   8.563   4.329   3.288  0.2878  0.0302 -0.1297
  264POPC   PO4 3471   8.210   4.249   3.587 -0.2155 -0.2748  0.1916
  264POPC   GL1 3472   8.553   4.509   3.735  0.2216 -0.0076  0.0526
  264POPC   GL2 3473   8.379   4.547   4.011 -0.1090 -0.2096  0.1299
  264POPC   C1A 3474   8.631   4.930   3.762 -0.0480  0.3080 -0.0310
  264POPC   D2A 3475   8.511   5.385   3.839  0.0649 -0.0808  0.0390
  264POPC   C3A 3476   8.255   5.544   4.164 -0.0698  0.0030 -0.1029
  264POPC   C4A 3477   7.882   5.308   4.334 -0.2385 -0.2469  0.1321
  264POPC   C1B 3478   8.772   4.385   4.228  0.1285  0.1070  0.0957
  264POPC   C2B 3479   9.034   4.092   4.082 -0.2416  0.1921 -0.0178
  264POPC   C3B 3480   9.401   3.825   4.016  0.2353  0.2408  0.2259
  264POPC   C4B 3481   9.496   3.471   3.949  0.0274 -0.1139  0.1807
  265POPC   NC3 3482   4.259   8.641   3.305  0.1378  0.0566 -0.1305
  265POPC   PO4 3483   4.164   8.476   3.621  0.0043  0.4205  0.0646
  265POPC   GL1 3484   4.021   8.377   3.921 -0.1520  0.0014  0.2061
  265POPC   GL2 3485   3.797   8.169   4.112  0.1647 -0.2496  0.2623
  265POPC   C1A 3486   4.180   8.347   4.359  0.3196 -0.1407  0.3166
  265POPC   D2A 3487   4.525   8.669   4.643  0.0377 -0.0577 -0.0049
  265POPC   C3A 3488   4.373   8.882   5.020 -0.1142 -0.0192 -0.1264
  265POPC   C4A 3489   4.567   8.837   5.442 -0.0915 -0.0617  0.0016
  265POPC   C1B 3490   3.718   8.131   4.573 -0.0357 -0.0239 -0.2305
  265POPC   C2B 3491   3.655   8.258   5.035 -0.1586 -0.2965 -0.0757
  265POPC   C3B 3492   3.497   8.508   5.372 -0.0535  0.1218  0.0411
  265POPC   C4B 3493   3.578   8.594   5.751 -0.1220  0.1603 -0.4206
  266POPC   NC3 3494   1.789   4.872   3.309  0.1113  0.1849  0.1374
  266POPC   PO4 3495   1.622   4.945   3.722 -0.2913  0.1493  0.0182
  266POPC   GL1 3496   1.614   4.786   4.100  0.0991  0.2141 -0.0604
  266POPC   GL2 3497   1.956   4.739   4.247  0.3511  0.0509  0.2632
  266POPC   C1A 3498   1.473   4.714   4.475 -0.0454  0.1190  0.1159
  266POPC   D2A 3499   1.718   4.471   4.909  0.1503  0.0004  0.2037
  266POPC   C3A 3500   1.568   4.674   5.381 -0.0827  0.1905 -0.1018
  266POPC   C4A 3501   1.238   4.633   5.716 -0.0651 -0.2183  0.2946
  266POPC   C1B 3502   1.895   4.919   4.668 -0.1303 -0.0200  0.0972
  266POPC   C2B 3503   1.882   4.955   5.126  0.1231 -0.0794 -0.0564
  266POPC   C3B 3504   1.817   5.130   5.455  0.0905  0.2427 -0.1363
  266POPC   C4B 3505   1.797   5.272   5.943  0.1479  0.1726  0.3153
  267POPC   NC3 3506   9.095   2.808   3.895 -0.1328  0.2610 -0.1462
  267POPC   PO4 3507   8.652   2.809   4.128 -0.0053  0.1064 -0.1993
  267POPC   GL1 3508   8.524   2.895   4.461 -0.3385 -0.5046 -0.3396
  267POPC   GL2 3509   8.687   3.141   4.503  0.4138 -0.0317 -0.3206
  267POPC   C1A 3510   8.574   2.815   5.003 -0.2816 -0.5672  0.0363
  267POPC   D2A 3511   8.563   2.593   5.240 -0.0076  0.0064 -0.0491
  267POPC   C3A 3512   8.781   2.226   5.320  0.0186  0.0838 -0.0094
  267POPC   C4A 3513   8.719   1.826   5.439 -0.0393  0.0919 -0.2130
  267POPC   C1B 3514   8.439   3.263   4.796  0.2805  0.2186  0.1529
  267POPC   C2B 3515   8.313   3.369   5.190  0.1007  0.1162 -0.0680
  267POPC   C3B 3516   8.536   3.103   5.507  0.0513  0.0659  0.3514
  267POPC   C4B 3517   8.848   3.187   5.841 -0.2573  0.0923  0.3305
  268POPC   NC3 3518   5.770   2.386   3.327  0.2394  0.1811 -0.4360
  268POPC   PO4 3519   5.414   2.664   3.538  0.0056 -0.1095 -0.1673
  268POPC   GL1 3520   5.289   2.858   3.981 -0.2417  0.0401 -0.0841
  268POPC   GL2 3521   4.927   2.799   4.090 -0.0984 -0.1471 -0.1358
  268POPC   C1A 3522   5.449   3.020   4.378 -0.1657 -0.2280  0.1469
  268POPC   D2A 3523   5.300   3.308   4.720  0.3174  0.0890  0.1863
  268POPC   C3A 3524   4.893   3.473   4.690  0.3073  0.2439  0.0537
  268POPC   C4A 3525   4.471   3.479   4.511  0.2302  0.0717  0.0802
  268POPC   C1B 3526   4.973   2.976   4.515  0.1994 -0.2482  0.3635
  268POPC   C2B 3527   4.859   3.029   4.927 -0.1555 -0.3907 -0.4242
  268POPC   C3B 3528   4.538   3.260   5.135 -0.1842 -0.0122 -0.3711
  268POPC   C4B 3529   4.252   3.488   5.437 -0.3920 -0.1398  0.3294
  269POPC   NC3 3530   6.288   3.274   3.609 -0.2270 -0.1504  0.0399
  269POPC   PO4 3531   6.474   2.804   3.662 -0.0705 -0.0342 -0.1059
  269POPC   GL1 3532   6.717   2.907   4.000 -0.2856 -0.2733  0.3403
  269POPC   GL2 3533   6.508   3.214   4.148  0.1857 -0.0356  0.2054
  269POPC   C1A 3534   6.972   2.905   4.432 -0.2266 -0.2976  0.0086
  269POPC   D2A 3535   6.882   2.784   4.904  0.1463 -0.1619 -0.4298
  269POPC   C3A 3536   7.186   2.509   5.075 -0.1383  0.1387  0.0003
  269POPC   C4A 3537   7.649   2.308   5.276  0.4426 -0.0912  0.2153
  269POPC   C1B 3538   6.517   3.059   4.461 -0.2485  0.0566 -0.0927
  269POPC   C2B 3539   6.338   2.781   4.789 -0.3425  0.0767 -0.2012
  269POPC   C3B 3540   6.293   2.805   5.235 -0.0321 -0.2560  0.2375
  269POPC   C4B 3541   5.874   2.811   5.279 -0.1857 -0.0611  0.1277
  270POPC   NC3 3542   2.908   2.071   3.827  0.2272 -0.1066 -0.0339
  270POPC   PO4 3543   3.334   2.202   3.892  0.4038 -0.1420  0.2817
  270POPC   GL1 3544   3.080   2.235   4.280 -0.0239  0.1273 -0.2244
  270POPC   GL2 3545   2.782   2.379   4.388  0.1471 -0.4131  0.0836
  270POPC   C1A 3546   3.097   2.215   4.720 -0.1646  0.1459  0.1845
  270POPC   D2A 3547   3.094   2.179   5.108  0.4728  0.1342  0.1650
  270POPC   C3A 3548   2.735   2.487   5.295  0.2224  0.4654  0.1732
  270POPC   C4A 3549   2.451   2.760   5.276 -0.2690  0.1436  0.1387
  270POPC   C1B 3550   2.687   2.441   4.754 -0.3067 -0.1234  0.1428
  270POPC   C2B 3551   2.215   2.429   5.029  0.0365  0.0862 -0.0609
  270POPC   C3B 3552   1.869   2.456   5.206  0.1724 -0.0311  0.3139
  270POPC   C4B 3553   1.655   2.779   5.455 -0.2569  0.0206  0.1482
  271POPC   NC3 3554   1.346   4.497   3.677 -0.2883 -0.0046 -0.0388
  271POPC   PO4 3555   1.316   4.691   3.274 -0.2666 -0.1513 -0.1432
  271POPC   GL1 3556   1.094   5.065   3.548  0.0278  0.0069  0.2698
  271POPC   GL2 3557   0.788   5.004   3.336 -0.0406 -0.0409  0.2913
  271POPC   C1A 3558   0.939   4.931   3.936  0.0496 -0.1949  0.5730
  271POPC   D2A 3559   1.069   4.598   4.083 -0.1337  0.1211  0.3285
  271POPC   C3A 3560   1.017   4.562   4.426  0.2213 -0.1843 -0.1179
  271POPC   C4A 3561   1.231   4.652   4.892  0.0114  0.2916 -0.0042
  271POPC   C1B 3562   0.522   4.912   3.650 -0.1879 -0.3024  0.0414
  271POPC   C2B 3563   0.194   4.705   3.674 -0.0630  0.1898 -0.1855
  271POPC   C3B 3564  -0.117   4.273   3.630  0.2456 -0.0170 -0.0267
  271POPC   C4B 3565  -0.439   4.037   3.578  0.0742  0.1623 -0.2159
  272POPC   NC3 3566   7.228   3.865   3.800  0.2939 -0.3246  0.0169
  272POPC   PO4 3567   7.137   4.130   4.069 -0.2009 -0.0951  0.0581
  272POPC   GL1 3568   7.065   4.122   4.375  0.2428  0.0008  0.1571
  272POPC   GL2 3569   6.868   4.077   4.596  0.1570  0.3441  0.0765
  272POPC   C1A 3570   7.302   4.206   4.852  0.2063  0.2348 -0.3676
  272POPC   D2A 3571   7.153   4.266   5.246 -0.2016  0.0290 -0.0478
  272POPC   C3A 3572   7.398   4.503   5.498  0.0957  0.1755 -0.2356
  272POPC   C4A 3573   7.839   4.402   5.687 -0.2531  0.2460 -0.0070
  272POPC   C1B 3574   6.934   3.849   4.968 -0.2290  0.0990 -0.3556
  272POPC   C2B 3575   7.061   3.600   5.350 -0.0234  0.4777  0.0973
  272POPC   C3B 3576   6.796   3.513   5.670  0.2914  0.3471 -0.2101
  272POPC   C4B 3577   6.406   3.552   5.799  0.1958 -0.0089  0.2251
  273POPC   NC3 3578   1.130   2.456   3.961  0.1290  0.1679 -0.2284
  273POPC   PO4 3579   0.656   2.531   3.990 -0.0857  0.1518 -0.1132
  273POPC   GL1 3580   0.720   2.636   4.379  0.2188  0.0666  0.3023
  273POPC   GL2 3581   0.471   2.407   4.476 -0.2148 -0.0607  0.0068
  273POPC   C1A 3582   0.926   2.788   4.747  0.1126 -0.1750  0.3311
  273POPC   D2A 3583   0.859   2.814   5.058 -0.2860  0.1206  0.2275
  273POPC   C3A 3584   1.053   2.732   5.440 -0.0238 -0.0203 -0.1147
  273POPC   C4A 3585   1.326   2.429   5.589 -0.2007  0.2345 -0.0466
  273POPC   C1B 3586   0.171   2.355   4.714 -0.1408 -0.0520  0.0285
  273POPC   C2B 3587   0.193   1.997   5.014  0.0699 -0.3040 -0.3334
  273POPC   C3B 3588   0.246   2.018   5.508 -0.0796  0.2454 -0.0053
  273POPC   C4B 3589   0.015   2.082   5.825  0.1712 -0.1033 -0.0394
  274POPC   NC3 3590   7.727  10.011   3.784  0.2707  0.0616  0.1088
  274POPC   PO4 3591   7.286   9.798   3.820 -0.1154  0.2700  0.0484
  274POPC   GL1 3592   6.986   9.717   4.119 -0.1463 -0.0734  0.0180
  274POPC   GL2 3593   6.822   9.400   4.223  0.2010 -0.2512 -0.3223
  274POPC   C1A 3594   6.643   9.879   4.457  0.0408  0.2010  0.1238
  274POPC   D2A 3595   6.898   9.882   4.928 -0.0903 -0.1110 -0.1486
  274POPC   C3A 3596   6.828  10.203   5.209  0.1725 -0.0160 -0.3053
  274POPC   C4A 3597   6.806  10.623   5.293 -0.0601  0.0055  0.2589
  274POPC   C1B 3598   7.132   9.620   4.566  0.0573  0.1699 -0.1106
  274POPC   C2B 3599   7.489   9.834   4.633  0.0740  0.1827 -0.0635
  274POPC   C3B 3600   7.925   9.865   4.838 -0.3806 -0.0407  0.2693
  274POPC   C4B 3601   8.331   9.708   4.641  0.0259  0.4015  0.1258
  275POPC   NC3 3602   0.058   8.267   3.271  0.0358  0.0512 -0.2351
  275POPC   PO4 3603   0.397   8.336   3.619  0.0885 -0.1578  0.2605
  275POPC   GL1 3604   0.814   8.501   3.936  0.1245  0.0573  0.2852
  275POPC   GL2 3605   1.060   8.716   4.058  0.2457  0.0989 -0.0342
  275POPC   C1A 3606   1.028   8.234   4.259 -0.2332  0.0982  0.0452
  275POPC   D2A 3607   0.999   8.387   4.701 -0.3718 -0.0558 -0.0288
  275POPC   C3A 3608   0.833   8.277   5.048  0.0459  0.0931 -0.1582
  275POPC   C4A 3609   0.780   7.924   5.381  0.2053 -0.1500 -0.1210
  275POPC   C1B 3610   0.655   8.558   4.382 -0.0537  0.1059 -0.1765
  275POPC   C2B 3611   0.505   8.591   4.833 -0.2071  0.0017  0.4816
  275POPC   C3B 3612   0.634   8.672   5.205 -0.3363 -0.0413  0.2731
  275POPC   C4B 3613   0.863   8.885   5.554  0.0308 -0.0292  0.0350
  276POPC   NC3 3614   0.608   6.282   3.178  0.0587  0.0544 -0.0079
  276POPC   PO4 3615   0.408   6.641   3.161 -0.1322 -0.1611 -0.0831
  276POPC   GL1 3616   0.252   6.495   3.456  0.0401 -0.2131 -0.0442
  276POPC   GL2 3617   0.478   6.528   3.688 -0.1056 -0.1654  0.0662
  276POPC   C1A 3618   0.174   6.166   3.838  0.0574  0.0686 -0.0396
  276POPC   D2A 3619  -0.243   6.057   3.848 -0.1328  0.4042 -0.0439
  276POPC   C3A 3620  -0.412   5.559   3.847 -0.0123 -0.0681  0.1871
  276POPC   C4A 3621  -0.155   5.254   4.068 -0.2110  0.1036 -0.1285
  276POPC   C1B 3622   0.471   6.767   4.049 -0.1762 -0.0168 -0.1631
  276POPC   C2B 3623   0.579   6.823   4.610  0.0116  0.1051  0.2201
  276POPC   C3B 3624   0.620   6.999   5.030  0.0981  0.2350 -0.3572
  276POPC   C4B 3625   0.349   7.041   5.424  0.0970 -0.1781  0.0184
  277POPC   NC3 3626   2.349   6.571   3.588 -0.0905  0.3442 -0.3477
  277POPC   PO4 3627   2.087   6.197   3.732  0.0714  0.2129  0.1002
  277POPC   GL1 3628   2.048   6.127   4.125 -0.3462  0.4003  0.0797
  277POPC   GL2 3629   2.077   5.813   4.213  0.0104 -0.0120 -0.1483
  277POPC   C1A 3630   2.275   6.242   4.469  0.4697  0.0569  0.2002
  277POPC   D2A 3631   2.302   6.609   4.529 -0.3166  0.3346  0.3645
  277POPC   C3A 3632   2.451   6.916   4.771  0.2389  0.0160  0.0339
  277POPC   C4A 3633   2.571   7.183   5.241 -0.0150 -0.1764 -0.0622
  277POPC   C1B 3634   1.944   5.939   4.657 -0.0015  0.1230  0.0270
  277POPC   C2B 3635   1.962   6.073   5.050 -0.0768 -0.2188  0.3362
  277POPC   C3B 3636   1.908   6.489   5.449  0.0971  0.1428 -0.1744
  277POPC   C4B 3637   1.781   6.907   5.342  0.0330  0.3997 -0.0737
  278POPC   NC3 3638   5.100   1.907   3.707  0.2104  0.0759  0.0663
  278POPC   PO4 3639   5.459   2.154   3.648  0.0306  0.1410 -0.0436
  278POPC   GL1 3640   5.681   1.976   3.946  0.3097 -0.0091  0.2546
  278POPC   GL2 3641   5.710   1.701   3.987  0.0191 -0.1573  0.0063
  278POPC   C1A 3642   5.743   1.910   4.413 -0.1079  0.0488 -0.2440
  278POPC   D2A 3643   5.955   1.708   4.825  0.1723 -0.0477 -0.0158
  278POPC   C3A 3644   5.689   1.472   5.046  0.2315  0.1925  0.0203
  278POPC   C4A 3645   5.693   1.340   5.455 -0.1301  0.0452  0.1261
  278POPC   C1B 3646   5.598   1.442   4.344  0.0915 -0.1324  0.2143
  278POPC   C2B 3647   5.305   1.325   4.625  0.0685  0.0591 -0.0434
  278POPC   C3B 3648   5.200   1.505   5.066 -0.4011 -0.0169 -0.0508
  278POPC   C4B 3649   5.029   1.371   5.517  0.1406  0.0825 -0.0992
  279POPC   NC3 3650   6.141   5.963   4.344  0.0501  0.1190  0.1126
  279POPC   PO4 3651   6.461   6.170   4.350 -0.2300 -0.0340 -0.0720
  279POPC   GL1 3652   6.510   5.946   4.679 -0.0265 -0.0135  0.1347
  279POPC   GL2 3653   6.551   5.600   4.652 -0.2158 -0.1500  0.0315
  279POPC   C1A 3654   6.661   5.914   5.167 -0.0958  0.3577 -0.0055
  279POPC   D2A 3655   6.756   5.809   5.573  0.3363 -0.2307 -0.0742
  279POPC   C3A 3656   6.581   6.101   5.880  0.2121  0.1544  0.0821
  279POPC   C4A 3657   6.144   6.014   6.100 -0.2523  0.0163  0.2709
  279POPC   C1B 3658   6.950   5.591   4.897  0.0674  0.0395  0.0729
  279POPC   C2B 3659   7.160   5.852   5.265 -0.3305 -0.1942 -0.0002
  279POPC   C3B 3660   7.102   6.145   5.687  0.1240 -0.1773  0.1548
  279POPC   C4B 3661   7.059   6.396   6.012 -0.2206 -0.1037 -0.0089
  280POPC   NC3 3662   0.784   6.880   3.431  0.1752  0.0573  0.4228
  280POPC   PO4 3663   0.712   7.268   3.266 -0.1495  0.2984  0.1170
  280POPC   GL1 3664   0.620   7.340   3.679  0.0739  0.1378 -0.0722
  280POPC   GL2 3665   0.804   7.136   3.879 -0.1350  0.0273 -0.0024
  280POPC   C1A 3666   0.693   7.547   4.165 -0.3070  0.2406 -0.2196
  280POPC   D2A 3667   0.690   7.359   4.532 -0.0363 -0.0935  0.1073
  280POPC   C3A 3668   0.271   7.211   4.702 -0.0554  0.2375 -0.0441
  280POPC   C4A 3669   0.016   7.250   5.072 -0.0373 -0.1088  0.0351
  280POPC   C1B 3670   0.918   7.120   4.214  0.1039 -0.0375 -0.2526
  280POPC   C2B 3671   1.082   7.026   4.627  0.1912 -0.0121  0.1025
  280POPC   C3B 3672   1.154   7.086   5.077  0.3690  0.2184  0.0037
  280POPC   C4B 3673   1.355   7.136   5.474  0.1437  0.0826 -0.0858
  281POPC   NC3 3674   2.275   0.296   3.902  0.4101  0.2375  0.0895
  281POPC   PO4 3675   2.627   0.622   3.941 -0.2158  0.1363 -0.2509
  281POPC   GL1 3676   2.697   0.897   4.332  0.1829 -0.0823 -0.1073
  281POPC   GL2 3677   2.977   1.099   4.279 -0.1048 -0.2920 -0.2674
  281POPC   C1A 3678   2.741   0.962   4.718 -0.0301 -0.1936  0.1146
  281POPC   D2A 3679   2.808   1.042   5.155 -0.1033  0.0015  0.0157
  281POPC   C3A 3680   2.634   0.815   5.433  0.3293  0.0122 -0.1903
  281POPC   C4A 3681   2.809   0.534   5.654 -0.1268  0.0966  0.0153
  281POPC   C1B 3682   3.103   1.420   4.521  0.0117 -0.1737  0.1020
  281POPC   C2B 3683   3.401   1.853   4.591 -0.0885 -0.2588 -0.0106
  281POPC   C3B 3684   3.745   2.112   4.805 -0.0052 -0.4860  0.1871
  281POPC   C4B 3685   4.255   2.047   4.925 -0.0077 -0.1373 -0.2165
  282POPC   NC3 3686   3.706   2.480   3.869 -0.1612 -0.2561  0.0899
  282POPC   PO4 3687   3.696   2.949   3.928 -0.2440 -0.2084  0.0866
  282POPC   GL1 3688   3.548   3.229   4.166  0.0542  0.1691 -0.0518
  282POPC   GL2 3689   3.320   3.151   4.353 -0.2734 -0.1157 -0.4064
  282POPC   C1A 3690   3.632   3.475   4.565 -0.0812 -0.0488 -0.0045
  282POPC   D2A 3691   3.597   3.715   4.953  0.0796  0.1503 -0.0405
  282POPC   C3A 3692   3.350   3.798   5.210 -0.0988  0.1161 -0.0322
  282POPC   C4A 3693   2.984   3.760   5.526 -0.0474 -0.1446 -0.3815
  282POPC   C1B 3694   3.124   3.371   4.664  0.0924  0.0328 -0.5520
  282POPC   C2B 3695   2.837   3.644   4.821  0.1745  0.1106 -0.0954
  282POPC   C3B 3696   2.683   3.921   5.171  0.1353  0.2067 -0.2501
  282POPC   C4B 3697   2.616   4.241   5.412 -0.3819 -0.1286 -0.2444
  283POPC   NC3 3698  10.638   2.651   3.588  0.0512  0.0875  0.1728
  283POPC   PO4 3699  10.707   2.928   3.858 -0.0305 -0.1114  0.2368
  283POPC   GL1 3700  10.753   2.905   4.385 -0.1760 -0.1102  0.3798
  283POPC   GL2 3701  11.054   2.966   4.505  0.2324  0.4015  0.2972
  283POPC   C1A 3702  10.589   2.981   4.738  0.0966  0.0855  0.1037
  283POPC   D2A 3703  10.536   2.765   5.208  0.1114 -0.0047  0.0907
  283POPC   C3A 3704  10.586   2.343   5.254  0.2656  0.2195 -0.2223
  283POPC   C4A 3705  10.418   1.962   5.376 -0.0280 -0.1286 -0.0084
  283POPC   C1B 3706  11.052   2.796   4.861  0.1645 -0.1414  0.0190
  283POPC   C2B 3707  11.147   2.827   5.332  0.2863  0.0205  0.0416
  283POPC   C3B 3708  11.200   2.550   5.633 -0.0243  0.2272 -0.0082
  283POPC   C4B 3709  11.057   2.284   6.001  0.1539  0.0493  0.2151
  284POPC   NC3 3710   7.613   6.890   3.665 -0.0247 -0.0541 -0.0151
  284POPC   PO4 3711   7.669   6.553   3.952 -0.1407  0.1464 -0.1142
  284POPC   GL1 3712   7.861   6.752   4.326 -0.1462  0.1759 -0.1916
  284POPC   GL2 3713   8.082   6.897   4.254  0.4115 -0.2993 -0.0253
  284POPC   C1A 3714   7.976   6.593   4.773 -0.2824  0.0729 -0.0508
  284POPC   D2A 3715   7.747   6.608   5.093  0.0284 -0.1016 -0.2869
  284POPC   C3A 3716   7.843   6.828   5.496 -0.1248  0.1471  0.1811
  284POPC   C4A 3717   7.555   6.968   5.719  0.2011 -0.5451  0.0330
  284POPC   C1B 3718   8.323   6.882   4.497  0.0208  0.0906  0.2626
  284POPC   C2B 3719   8.375   6.846   4.933 -0.2465 -0.0230  0.0592
  284POPC   C3B 3720   8.316   6.946   5.433  0.0789 -0.2542  0.3446
  284POPC   C4B 3721   8.578   7.085   5.757 -0.3141 -0.4339  0.0646
  285POPC   NC3 3722   2.589   9.144   3.724 -0.1338 -0.0590 -0.1919
  285POPC   PO4 3723   2.605   8.695   3.847  0.0473 -0.1661  0.1583
  285POPC   GL1 3724   2.844   8.565   4.192  0.0071  0.0754  0.1806
  285POPC   GL2 3725   2.925   8.269   4.373 -0.0723  0.1388  0.0404
  285POPC   C1A 3726   2.916   8.831   4.566  0.0346  0.5301  0.2125
  285POPC   D2A 3727   3.200   9.062   4.820 -0.0384 -0.2651  0.2138
  285POPC   C3A 3728   3.279   8.900   5.168  0.1010 -0.1256 -0.1718
  285POPC   C4A 3729   3.639   9.092   5.397  0.2596  0.1225  0.0295
  285POPC   C1B 3730   2.984   8.271   4.818  0.1075  0.0815  0.0455
  285POPC   C2B 3731   3.017   8.421   5.235  0.0370  0.1193 -0.0543
  285POPC   C3B 3732   2.620   8.577   5.476 -0.2983  0.1265  0.0126
  285POPC   C4B 3733   2.488   8.808   5.819 -0.1873 -0.0803 -0.0675
  286POPC   NC3 3734   8.307   7.980   3.695  0.3765  0.2338 -0.3214
  286POPC   PO4 3735   8.122   8.424   3.748  0.0515 -0.0628  0.0556
  286POPC   GL1 3736   8.083   8.216   4.132 -0.1662  0.3711 -0.0713
  286POPC   GL2 3737   8.146   7.948   4.171 -0.0754 -0.2951  0.0037
  286POPC   C1A 3738   8.292   8.413   4.488 -0.0552 -0.1814  0.1066
  286POPC   D2A 3739   8.587   8.769   4.594  0.1126  0.1411  0.4194
  286POPC   C3A 3740   8.829   8.800   5.015 -0.0746 -0.3983  0.1996
  286POPC   C4A 3741   8.967   9.217   5.169 -0.0370  0.3040 -0.2837
  286POPC   C1B 3742   8.416   7.854   4.565 -0.2162 -0.0728 -0.2007
  286POPC   C2B 3743   8.749   7.752   4.841 -0.2187 -0.1273 -0.2013
  286POPC   C3B 3744   8.897   7.759   5.339  0.2177  0.0674 -0.1218
  286POPC   C4B 3745   8.883   7.500   5.639  0.0897  0.0722 -0.2547
  287POPC   NC3 3746   6.236   2.372   3.466  0.1206 -0.0135  0.0891
  287POPC   PO4 3747   5.984   2.017   3.540  0.2256  0.1099 -0.1952
  287POPC   GL1 3748   6.207   1.880   3.937  0.1652  0.1685 -0.0680
  287POPC   GL2 3749   6.071   2.226   4.141  0.0364 -0.2376 -0.0422
  287POPC   C1A 3750   6.172   1.617   4.246 -0.1057 -0.0739  0.0069
  287POPC   D2A 3751   6.166   1.382   4.555  0.0648 -0.0324  0.0521
  287POPC   C3A 3752   6.399   1.520   4.944  0.0164 -0.0034  0.1141
  287POPC   C4A 3753   6.673   1.660   5.342 -0.0716 -0.1485  0.2109
  287POPC   C1B 3754   6.139   2.334   4.609 -0.2052  0.1770  0.0065
  287POPC   C2B 3755   5.989   2.397   5.025  0.0752 -0.1290 -0.3998
  287POPC   C3B 3756   5.542   2.430   5.145  0.2025 -0.0307 -0.1728
  287POPC   C4B 3757   5.270   2.343   5.567  0.0194  0.1066  0.3664
  288POPC   NC3 3758   7.923   0.245   3.345 -0.3166  0.2490  0.1530
  288POPC   PO4 3759   7.913   0.114   3.698  0.0807  0.1359 -0.1563
  288POPC   GL1 3760   7.986  -0.059   4.128 -0.2884  0.2562  0.1366
  288POPC   GL2 3761   8.031  -0.293   4.000  0.1043  0.2046  0.1006
  288POPC   C1A 3762   8.061   0.144   4.554 -0.1579  0.2278  0.2478
  288POPC   D2A 3763   7.934   0.085   4.835 -0.2659  0.2415 -0.1944
  288POPC   C3A 3764   8.012   0.356   5.141  0.3450  0.2313 -0.5513
  288POPC   C4A 3765   7.901   0.748   5.268  0.1938 -0.0437 -0.0265
  288POPC   C1B 3766   8.306  -0.505   4.338 -0.1126  0.0174 -0.3930
  288POPC   C2B 3767   8.175  -0.369   4.818  0.0338 -0.2175  0.1576
  288POPC   C3B 3768   8.107  -0.262   5.223  0.4156  0.4530 -0.0626
  288POPC   C4B 3769   8.091   0.086   5.531 -0.0064  0.1223 -0.1674
  289POPC   NC3 3770   5.916   6.647   3.778  0.0280  0.2939 -0.0732
  289POPC   PO4 3771   5.951   6.494   4.211  0.2378 -0.1500 -0.0628
  289POPC   GL1 3772   5.681   6.337   4.508 -0.1845  0.2794 -0.0183
  289POPC   GL2 3773   5.712   6.067   4.592  0.0706  0.0657 -0.0606
  289POPC   C1A 3774   5.653   6.479   4.885  0.1435 -0.1028  0.0923
  289POPC   D2A 3775   5.333   6.529   5.181 -0.0944  0.0597 -0.0748
  289POPC   C3A 3776   5.309   6.412   5.554 -0.0883  0.1437 -0.1650
  289POPC   C4A 3777   5.098   6.175   5.890  0.2096  0.1141  0.2328
  289POPC   C1B 3778   5.266   6.165   4.793 -0.1610  0.0611  0.3576
  289POPC   C2B 3779   5.119   6.075   5.180 -0.2106 -0.1417  0.1093
  289POPC   C3B 3780   4.790   6.143   5.440 -0.3539 -0.0688  0.0688
  289POPC   C4B 3781   4.710   5.798   5.740  0.0288 -0.0851  0.0910
  290POPC   NC3 3782   7.578   8.203   3.947  0.3199  0.0938  0.1163
  290POPC   PO4 3783   7.186   7.895   4.121  0.0975 -0.0381  0.1827
  290POPC   GL1 3784   7.160   7.790   4.515  0.0892 -0.0155 -0.0225
  290POPC   GL2 3785   7.304   7.404   4.510  0.0314 -0.0960  0.3408
  290POPC   C1A 3786   7.276   7.988   4.830  0.2212  0.0653  0.2494
  290POPC   D2A 3787   7.277   7.919   5.239 -0.0070  0.1831 -0.2013
  290POPC   C3A 3788   7.021   7.594   5.209 -0.1798 -0.3461  0.0468
  290POPC   C4A 3789   6.741   7.558   5.621  0.1457  0.0591 -0.2262
  290POPC   C1B 3790   7.497   7.548   4.905 -0.0822 -0.0030  0.0561
  290POPC   C2B 3791   7.543   7.276   5.284 -0.0502 -0.0825  0.5429
  290POPC   C3B 3792   7.313   7.400   5.647 -0.0016  0.0663  0.2540
  290POPC   C4B 3793   7.481   7.358   6.073 -0.4294  0.3869 -0.1484
  291POPC   NC3 3794   6.715   5.473   4.212 -0.1971  0.2930  0.0245
  291POPC   PO4 3795   6.358   5.287   4.238  0.0119  0.0238 -0.3188
  291POPC   GL1 3796   6.221   5.152   4.614 -0.3161  0.1331 -0.0765
  291POPC   GL2 3797   6.046   4.906   4.554  0.0797  0.1911  0.3425
  291POPC   C1A 3798   6.063   5.187   5.080 -0.0536  0.2452 -0.3588
  291POPC   D2A 3799   5.756   5.476   5.185  0.0061  0.4690 -0.1248
  291POPC   C3A 3800   5.878   5.761   5.560  0.0634  0.3692  0.0599
  291POPC   C4A 3801   6.204   6.013   5.608 -0.3121 -0.1430  0.3226
  291POPC   C1B 3802   6.084   4.561   4.829 -0.0741  0.1017  0.1259
  291POPC   C2B 3803   6.308   4.565   5.151 -0.2509  0.2420  0.1547
  291POPC   C3B 3804   6.640   4.759   5.368 -0.0336 -0.4227  0.1851
  291POPC   C4B 3805   6.803   4.588   5.703 -0.1179  0.0024  0.0017
  292POPC   NC3 3806   5.989   9.211   3.814 -0.1840 -0.1820  0.0076
  292POPC   PO4 3807   5.827   9.750   3.725  0.0056 -0.1810  0.0518
  292POPC   GL1 3808   5.604   9.585   3.980  0.0149  0.2120  0.3984
  292POPC   GL2 3809   5.433   9.851   4.139  0.1770  0.1560 -0.3488
  292POPC   C1A 3810   5.417   9.258   4.314 -0.0713  0.1557 -0.0302
  292POPC   D2A 3811   5.655   8.996   4.572  0.2202  0.2092 -0.2771
  292POPC   C3A 3812   5.534   8.828   5.038  0.2227 -0.1267 -0.2612
  292POPC   C4A 3813   5.416   8.807   5.517 -0.0569  0.2295  0.0500
  292POPC   C1B 3814   5.555   9.995   4.524  0.0926  0.2481 -0.2035
  292POPC   C2B 3815   5.805   9.904   4.890  0.0586 -0.1902 -0.0279
  292POPC   C3B 3816   6.006   9.549   5.128  0.0052  0.0880  0.0747
  292POPC   C4B 3817   6.324   9.433   5.334 -0.0264 -0.1383 -0.0625
  293POPC   NC3 3818   7.924   2.242   3.541 -0.2304  0.1026  0.1591
  293POPC   PO4 3819   8.394   2.326   3.524  0.1978 -0.2093  0.0646
  293POPC   GL1 3820   8.229   2.130   3.901 -0.0143 -0.2314 -0.1801
  293POPC   GL2 3821   7.969   2.295   4.056  0.2387  0.1165 -0.1823
  293POPC   C1A 3822   8.381   2.086   4.308  0.3517  0.1135  0.1405
  293POPC   D2A 3823   8.342   1.920   4.690 -0.1357 -0.1823 -0.1423
  293POPC   C3A 3824   8.127   1.633   4.570  0.3736  0.1072 -0.1868
  293POPC   C4A 3825   7.999   1.375   4.356 -0.1562 -0.3646 -0.2301
  293POPC   C1B 3826   7.905   2.422   4.457 -0.0606  0.1430  0.1946
  293POPC   C2B 3827   7.846   2.224   4.705 -0.0503 -0.0900  0.1637
  293POPC   C3B 3828   7.936   1.902   4.926 -0.0524  0.0535  0.0605
  293POPC   C4B 3829   7.912   1.765   5.402  0.0069  0.2452  0.2952
  294POPC   NC3 3830   1.114   8.988   3.634  0.2343 -0.3539 -0.2477
  294POPC   PO4 3831   0.651   8.968   3.738 -0.1226  0.0273 -0.4553
  294POPC   GL1 3832   0.602   9.333   4.018 -0.0874  0.0317 -0.2194
  294POPC   GL2 3833   0.612   9.648   4.052 -0.0254 -0.0989  0.2243
  294POPC   C1A 3834   0.475   9.194   4.467  0.1631  0.1170  0.0617
  294POPC   D2A 3835   0.726   9.046   4.803 -0.0067 -0.1468  0.2239
  294POPC   C3A 3836   0.967   9.407   5.085 -0.0267 -0.0811 -0.0012
  294POPC   C4A 3837   1.264   9.302   5.414 -0.0791  0.0217  0.0628
  294POPC   C1B 3838   0.218   9.600   4.354  0.1579 -0.0549 -0.0013
  294POPC   C2B 3839  -0.067   9.521   4.704 -0.0552 -0.1723  0.0985
  294POPC   C3B 3840  -0.054   9.674   5.146  0.0156  0.0171  0.0436
  294POPC   C4B 3841   0.165   9.559   5.510  0.1480 -0.2909  0.0218
  295POPC   NC3 3842   7.743   9.172   3.906  0.1816  0.1031  0.1996
  295POPC   PO4 3843   7.752   9.552   3.668  0.1535 -0.0954  0.1892
  295POPC   GL1 3844   8.024   9.580   4.055 -0.1385  0.0868 -0.1667
  295POPC   GL2 3845   7.875   9.932   4.241  0.1731 -0.1182 -0.1953
  295POPC   C1A 3846   7.962   9.483   4.465  0.0915 -0.1434 -0.1042
  295POPC   D2A 3847   8.007   9.348   4.843 -0.3332  0.4670 -0.4497
  295POPC   C3A 3848   7.681   9.452   5.054  0.1388 -0.1029 -0.0539
  295POPC   C4A 3849   7.291   9.580   5.030  0.2042 -0.3825  0.2769
  295POPC   C1B 3850   7.766  10.224   4.462  0.0215  0.2026  0.0065
  295POPC   C2B 3851   7.687  10.257   4.963 -0.2704  0.2291 -0.0050
  295POPC   C3B 3852   7.362  10.005   5.255  0.1964 -0.1697  0.0778
  295POPC   C4B 3853   7.044   9.954   5.564  0.1727  0.1805  0.0333
  296POPC   NC3 3854   2.767   1.119   3.846  0.2817  0.0032 -0.3330
  296POPC   PO4 3855   2.471   1.462   3.941  0.0213 -0.0042 -0.0287
  296POPC   GL1 3856   2.472   1.317   4.397  0.1996 -0.2436  0.0781
  296POPC   GL2 3857   2.243   1.110   4.562  0.0100  0.1120  0.0158
  296POPC   C1A 3858   2.572   1.461   4.797  0.0013 -0.2977  0.1445
  296POPC   D2A 3859   2.688   1.509   5.219  0.1177 -0.1204 -0.1271
  296POPC   C3A 3860   2.887   1.877   5.424  0.0499  0.3393 -0.1712
  296POPC   C4A 3861   2.855   2.227   5.743  0.2639 -0.1291 -0.1857
  296POPC   C1B 3862   2.269   1.103   5.016 -0.1485  0.2678 -0.0760
  296POPC   C2B 3863   2.008   1.252   5.349  0.0461 -0.0917 -0.0721
  296POPC   C3B 3864   1.879   1.109   5.769  0.1024  0.0516  0.0236
  296POPC   C4B 3865   1.588   1.095   6.099 -0.0696  0.1419  0.1015
  297POPC   NC3 3866   0.267   1.290   4.091  0.0392 -0.2367 -0.1947
  297POPC   PO4 3867   0.540   1.589   4.087  0.0377 -0.1681  0.0819
  297POPC   GL1 3868   0.306   1.636   4.486 -0.4020  0.0810 -0.2947
  297POPC   GL2 3869   0.559   1.927   4.620 -0.0208  0.1104  0.0356
  297POPC   C1A 3870   0.373   1.522   4.972  0.2422 -0.1963 -0.2383
  297POPC   D2A 3871   0.184   1.412   5.381 -0.0790 -0.1095  0.2756
  297POPC   C3A 3872   0.495   1.537   5.714  0.0357  0.4355  0.2324
  297POPC   C4A 3873   0.884   1.516   5.876  0.0264 -0.0411 -0.2218
  297POPC   C1B 3874   0.826   1.825   4.924  0.1698  0.1508  0.1029
  297POPC   C2B 3875   0.661   1.833   5.363  0.0175  0.2864 -0.1802
  297POPC   C3B 3876   0.711   2.042   5.731  0.0835  0.2583  0.0532
  297POPC   C4B 3877   0.906   2.341   5.908 -0.0107 -0.4351  0.0034
  298POPC   NC3 3878   3.592   6.579   3.499 -0.3671  0.1914 -0.0069
  298POPC   PO4 3879   3.314   6.796   3.750 -0.1755 -0.2437 -0.0403
  298POPC   GL1 3880   3.195   6.943   4.238 -0.0731 -0.4511  0.0919
  298POPC   GL2 3881   2.885   6.963   4.288  0.0290  0.1264 -0.2027
  298POPC   C1A 3882   3.225   6.945   4.696 -0.0010  0.0142 -0.1396
  298POPC   D2A 3883   2.950   6.801   4.996  0.2837 -0.1864  0.3185
  298POPC   C3A 3884   3.132   6.869   5.243  0.1402 -0.4838 -0.0758
  298POPC   C4A 3885   2.904   6.971   5.626  0.1781  0.1648  0.0940
  298POPC   C1B 3886   2.898   6.564   4.551 -0.2474 -0.1191 -0.0050
  298POPC   C2B 3887   2.597   6.441   4.839  0.0850 -0.0562  0.0670
  298POPC   C3B 3888   2.491   6.119   5.145 -0.3065 -0.1339 -0.1124
  298POPC   C4B 3889   2.706   5.957   5.485 -0.3449 -0.0241 -0.2555
  299POPC   NC3 3890   9.099   1.980   3.824 -0.3208  0.1126 -0.3180
  299POPC   PO4 3891   9.278   2.344   3.948  0.2637  0.1985 -0.2140
  299POPC   GL1 3892   9.123   2.567   4.396  0.2389 -0.1123  0.0764
  299POPC   GL2 3893   9.168   2.367   4.653  0.0065  0.1279 -0.0787
  299POPC   C1A 3894   9.033   2.761   4.801 -0.3645  0.1800  0.0799
  299POPC   D2A 3895   9.208   3.257   4.819  0.0461  0.3153 -0.1540
  299POPC   C3A 3896   9.164   3.645   5.084  0.0385 -0.2872 -0.3243
  299POPC   C4A 3897   9.023   4.017   5.449 -0.5488  0.4368  0.1376
  299POPC   C1B 3898   9.339   2.392   5.088  0.0166  0.1630 -0.0632
  299POPC   C2B 3899   9.474   2.408   5.439 -0.0418  0.0983 -0.5903
  299POPC   C3B 3900   9.311   2.031   5.629  0.1873 -0.1841  0.0447
  299POPC   C4B 3901   9.434   1.830   6.080  0.0852 -0.0519  0.0153
  300POPC   NC3 3902  10.490   1.492   4.229  0.2393  0.1790  0.3245
  300POPC   PO4 3903   9.978   1.407   4.112 -0.1195  0.5349  0.1354
  300POPC   GL1 3904   9.729   1.105   4.462 -0.1301  0.0496  0.1157
  300POPC   GL2 3905   9.686   1.341   4.647  0.2458  0.2010  0.0953
  300POPC   C1A 3906   9.677   0.861   4.926 -0.2909  0.1010  0.2646
  300POPC   D2A 3907   9.706   0.857   5.342  0.2273 -0.1431 -0.3087
  300POPC   C3A 3908   9.445   1.077   5.535  0.0625  0.0449  0.7147
  300POPC   C4A 3909   9.536   1.379   5.770 -0.0302 -0.0916  0.0436
  300POPC   C1B 3910   9.567   1.387   5.105  0.0744 -0.2467  0.3062
  300POPC   C2B 3911   9.214   1.473   5.371 -0.2544  0.1811  0.4215
  300POPC   C3B 3912   9.067   1.569   5.729 -0.2699 -0.0539  0.2059
  300POPC   C4B 3913   8.810   1.329   5.974  0.2321 -0.3579 -0.4603
  301POPC   NC3 3914   0.391   2.036   4.149 -0.1782  0.2884 -0.4143
  301POPC   PO4 3915  -0.013   1.959   4.086  0.2370  0.2691 -0.1622
  301POPC   GL1 3916  -0.151   1.983   4.553 -0.0535 -0.0153 -0.2719
  301POPC   GL2 3917  -0.116   1.796   4.731  0.1331  0.0280  0.0708
  301POPC   C1A 3918  -0.383   2.296   4.841 -0.2074  0.0859  0.0526
  301POPC   D2A 3919  -0.583   2.707   5.041 -0.2599  0.4658 -0.1052
  301POPC   C3A 3920  -0.776   2.727   5.467 -0.1320 -0.3160  0.0014
  301POPC   C4A 3921  -0.814   2.479   5.835  0.2782 -0.2669 -0.1298
  301POPC   C1B 3922  -0.131   1.499   5.028  0.2030  0.1608 -0.0614
  301POPC   C2B 3923  -0.239   1.238   5.479  0.0522 -0.2713  0.3361
  301POPC   C3B 3924  -0.446   0.869   5.403  0.0919 -0.0804 -0.3070
  301POPC   C4B 3925  -0.224   0.460   5.531  0.0738  0.0155  0.1009
  302POPC   NC3 3926   7.777   7.445   3.033  0.0726 -0.0383  0.3379
  302POPC   PO4 3927   7.729   7.350   3.467  0.0099 -0.2653 -0.1063
  302POPC   GL1 3928   8.027   7.220   3.748  0.0887 -0.0987  0.1045
  302POPC   GL2 3929   8.076   7.331   3.982 -0.0650  0.2528 -0.0101
  302POPC   C1A 3930   8.229   6.813   3.761 -0.4424  0.1167  0.3982
  302POPC   D2A 3931   8.589   6.579   4.050  0.2316  0.3918 -0.1247
  302POPC   C3A 3932   8.565   6.443   4.476  0.1903 -0.0568 -0.2714
  302POPC   C4A 3933   8.361   6.285   4.834 -0.0438 -0.0724 -0.0381
  302POPC   C1B 3934   7.879   7.440   4.294  0.0189  0.0295 -0.0792
  302POPC   C2B 3935   7.935   7.641   4.647  0.2045  0.1061 -0.2335
  302POPC   C3B 3936   8.069   7.616   4.992 -0.0872  0.1205  0.0860
  302POPC   C4B 3937   8.036   7.385   5.443  0.0484 -0.0898 -0.0769
  303POPC   NC3 3938   1.227   3.641   3.358  0.0785  0.0584 -0.0099
  303POPC   PO4 3939   1.297   3.468   3.727 -0.1866 -0.1054 -0.1256
  303POPC   GL1 3940   1.360   3.589   4.086 -0.1951 -0.2560  0.0133
  303POPC   GL2 3941   1.508   3.312   4.221 -0.2781 -0.0545  0.3990
  303POPC   C1A 3942   1.420   3.773   4.467 -0.4030 -0.0642 -0.1748
  303POPC   D2A 3943   1.275   4.168   4.691  0.1923  0.1741  0.4271
  303POPC   C3A 3944   1.212   4.075   5.024 -0.4591  0.1496  0.0990
  303POPC   C4A 3945   1.319   4.237   5.384 -0.0201 -0.1833 -0.1203
  303POPC   C1B 3946   1.341   2.933   4.452  0.0120  0.1820  0.1058
  303POPC   C2B 3947   1.371   2.539   4.593  0.3190  0.0659  0.2196
  303POPC   C3B 3948   1.287   2.405   5.051 -0.0795  0.1459 -0.1602
  303POPC   C4B 3949   0.951   2.227   5.281  0.0791  0.2298 -0.1729
  304POPC   NC3 3950   0.593   7.746   3.378  0.1146  0.2275 -0.1281
  304POPC   PO4 3951   0.258   7.513   3.356 -0.0685  0.0598  0.0564
  304POPC   GL1 3952   0.291   7.653   3.799 -0.1132 -0.1475  0.0590
  304POPC   GL2 3953   0.140   7.973   3.881  0.1470 -0.2527 -0.1432
  304POPC   C1A 3954   0.336   7.240   4.094 -0.0801 -0.2306  0.0720
  304POPC   D2A 3955   0.101   7.035   4.305  0.1889 -0.1987  0.0751
  304POPC   C3A 3956  -0.319   6.959   4.116 -0.3728  0.1006 -0.0089
  304POPC   C4A 3957  -0.731   7.014   3.949 -0.3199 -0.0078  0.0978
  304POPC   C1B 3958  -0.345   7.917   3.895  0.2411 -0.1118 -0.5238
  304POPC   C2B 3959  -0.731   7.789   4.015 -0.0642  0.0874 -0.0720
  304POPC   C3B 3960  -0.851   7.407   4.274 -0.0261  0.1283  0.2165
  304POPC   C4B 3961  -0.823   6.910   4.451 -0.0616  0.1148  0.1912
  305POPC   NC3 3962   8.869   0.447   3.316 -0.0073  0.1820  0.0614
  305POPC   PO4 3963   8.973   0.768   3.696  0.2321  0.1303 -0.1101
  305POPC   GL1 3964   8.794   0.966   3.993  0.0376 -0.0920 -0.1166
  305POPC   GL2 3965   8.488   0.766   4.054  0.1425 -0.0435  0.0090
  305POPC   C1A 3966   8.922   1.200   4.397 -0.0030  0.5452 -0.1811
  305POPC   D2A 3967   9.265   0.965   4.651 -0.4800  0.0057  0.1490
  305POPC   C3A 3968   9.205   0.958   5.064 -0.0308 -0.2920 -0.1554
  305POPC   C4A 3969   9.207   0.710   5.334  0.0984  0.2307 -0.0146
  305POPC   C1B 3970   8.481   0.987   4.435 -0.0648  0.0651  0.1861
  305POPC   C2B 3971   8.450   1.229   4.746  0.1783 -0.1973 -0.3158
  305POPC   C3B 3972   8.333   1.061   5.104  0.0778 -0.1400  0.2279
  305POPC   C4B 3973   8.231   1.052   5.501  0.0138 -0.0064 -0.2698
  306POPC   NC3 3974   9.316   0.366   3.766  0.0399 -0.4859 -0.0587
  306POPC   PO4 3975   9.800   0.415   3.834  0.1163 -0.2684  0.2336
  306POPC   GL1 3976   9.567   0.351   4.221 -0.4216 -0.0883 -0.0915
  306POPC   GL2 3977   9.618   0.564   4.514 -0.1624  0.0074  0.2161
  306POPC   C1A 3978   9.566   0.086   4.601  0.0527  0.0093  0.1503
  306POPC   D2A 3979   9.186  -0.004   4.821 -0.2961 -0.0064 -0.2233
  306POPC   C3A 3980   8.997   0.198   5.150  0.1971  0.2516  0.1700
  306POPC   C4A 3981   9.066   0.347   5.588  0.1888  0.3079  0.1327
  306POPC   C1B 3982   9.246   0.502   4.666  0.0354 -0.0609 -0.2842
  306POPC   C2B 3983   8.813   0.310   4.714  0.0047  0.1046  0.0655
  306POPC   C3B 3984   8.561   0.461   5.113 -0.1157 -0.3448  0.1528
  306POPC   C4B 3985   8.341   0.597   5.469 -0.2162 -0.0811  0.1896
  307POPC   NC3 3986   2.191   5.654   3.788 -0.0683  0.1126 -0.0401
  307POPC   PO4 3987   2.694   5.681   3.744  0.2392 -0.1049  0.1273
  307POPC   GL1 3988   2.587   5.804   4.213 -0.0791 -0.1490  0.1596
  307POPC   GL2 3989   2.781   6.111   4.338 -0.1466 -0.0841  0.0839
  307POPC   C1A 3990   2.498   5.901   4.729  0.2900  0.1640  0.1862
  307POPC   D2A 3991   2.256   5.636   5.115 -0.1929  0.0455 -0.0555
  307POPC   C3A 3992   2.196   5.908   5.461  0.2889  0.0482  0.1904
  307POPC   C4A 3993   2.246   6.074   5.845 -0.0517 -0.2684  0.0527
  307POPC   C1B 3994   2.925   6.078   4.784 -0.0189  0.0239 -0.2086
  307POPC   C2B 3995   3.105   6.231   5.175  0.3168 -0.1349  0.2415
  307POPC   C3B 3996   3.469   6.475   5.272 -0.0127  0.0808 -0.1112
  307POPC   C4B 3997   3.692   6.862   5.344  0.1235  0.2818 -0.0298
  308POPC   NC3 3998   5.103   0.930   3.663  0.0307  0.0215 -0.1003
  308POPC   PO4 3999   4.867   1.307   3.641 -0.1306 -0.0156  0.4104
  308POPC   GL1 4000   5.015   1.474   3.954 -0.1332 -0.1531  0.2453
  308POPC   GL2 4001   4.967   1.220   4.147  0.0085 -0.2116  0.2904
  308POPC   C1A 4002   4.938   1.605   4.437  0.0512 -0.3510 -0.0822
  308POPC   D2A 4003   4.699   1.620   4.881 -0.0135 -0.1191 -0.0927
  308POPC   C3A 4004   4.700   1.781   5.379  0.0392  0.1346  0.3405
  308POPC   C4A 4005   4.981   1.933   5.629 -0.2534 -0.1032  0.0876
  308POPC   C1B 4006   4.862   1.086   4.569 -0.3600 -0.2222  0.2117
  308POPC   C2B 4007   4.734   0.818   4.774  0.0327  0.2820  0.1914
  308POPC   C3B 4008   4.816   0.538   5.063  0.0748 -0.0796  0.1262
  308POPC   C4B 4009   4.873   0.126   5.149 -0.2685 -0.1485  0.2459
  309POPC   NC3 4010   1.748   8.257   3.613  0.0400  0.0393  0.0544
  309POPC   PO4 4011   1.985   7.944   3.826 -0.1495 -0.0697 -0.0236
  309POPC   GL1 4012   2.025   8.251   4.166  0.1189 -0.2868 -0.1227
  309POPC   GL2 4013   2.402   8.277   4.214  0.2296  0.2422 -0.0672
  309POPC   C1A 4014   1.978   8.633   4.386  0.0145 -0.1707  0.0495
  309POPC   D2A 4015   1.955   9.056   4.584 -0.0316  0.2341  0.2484
  309POPC   C3A 4016   1.657   9.076   4.981  0.3839  0.0955  0.0801
  309POPC   C4A 4017   1.612   8.701   5.244 -0.0870 -0.1753  0.0262
  309POPC   C1B 4018   2.517   8.479   4.659  0.2787 -0.1375 -0.0573
  309POPC   C2B 4019   2.696   8.789   4.999 -0.1825  0.1012 -0.0622
  309POPC   C3B 4020   2.791   9.080   5.340  0.0978 -0.0889  0.1106
  309POPC   C4B 4021   2.473   9.191   5.482 -0.1486 -0.0612  0.0143
  310POPC   NC3 4022   7.098   5.290   4.001 -0.2110  0.0821  0.1702
  310POPC   PO4 4023   6.949   4.973   4.071  0.4069 -0.2814  0.0516
  310POPC   GL1 4024   7.070   5.201   4.535  0.0311  0.1229 -0.2899
  310POPC   GL2 4025   6.744   5.166   4.676 -0.1323  0.4878 -0.0265
  310POPC   C1A 4026   7.373   5.302   4.867  0.0791 -0.1104 -0.0242
  310POPC   D2A 4027   7.418   5.274   5.321 -0.5680  0.2718  0.0791
  310POPC   C3A 4028   7.277   5.507   5.681 -0.3144  0.1724  0.0866
  310POPC   C4A 4029   7.309   5.668   6.144  0.1025 -0.0949  0.0254
  310POPC   C1B 4030   6.658   5.282   5.115  0.0007  0.0141 -0.1610
  310POPC   C2B 4031   6.859   5.374   5.499  0.0988  0.0363  0.0224
  310POPC   C3B 4032   6.787   5.498   5.910 -0.4471 -0.0338  0.0718
  310POPC   C4B 4033   6.951   5.960   6.084  0.0366 -0.2516 -0.2677
  311POPC   NC3 4034   8.898  10.264   3.388 -0.1524 -0.1909  0.3782
  311POPC   PO4 4035   9.235  10.317   3.644 -0.0872 -0.2737 -0.1537
  311POPC   GL1 4036   8.944  10.082   4.001  0.1111  0.2487  0.0294
  311POPC   GL2 4037   8.860  10.385   4.236 -0.3076  0.0503 -0.0900
  311POPC   C1A 4038   8.886   9.806   4.447 -0.1281  0.1002 -0.0999
  311POPC   D2A 4039   8.878   9.649   4.864 -0.1697 -0.1310  0.1171
  311POPC   C3A 4040   8.971   9.739   5.200  0.0523  0.0120  0.3061
  311POPC   C4A 4041   8.963   9.557   5.557 -0.2434 -0.0419  0.3433
  311POPC   C1B 4042   8.599  10.564   4.556 -0.0880  0.2442 -0.3555
  311POPC   C2B 4043   8.498  10.633   4.997 -0.0405 -0.0788 -0.0024
  311POPC   C3B 4044   8.580  10.724   5.441 -0.2580 -0.0908 -0.0406
  311POPC   C4B 4045   8.616  10.968   5.786  0.0173 -0.2028 -0.0691
  312POPC   NC3 4046   0.497   3.031   4.018 -0.0758  0.0832  0.3141
  312POPC   PO4 4047   0.931   2.962   3.987  0.1884  0.0726 -0.0925
  312POPC   GL1 4048   0.957   3.147   4.379 -0.0599  0.1009 -0.0807
  312POPC   GL2 4049   0.836   3.435   4.352 -0.0561  0.2627 -0.2420
  312POPC   C1A 4050   1.177   3.267   4.745  0.2473  0.0741 -0.1017
  312POPC   D2A 4051   1.384   3.577   5.012 -0.2101 -0.2912 -0.0143
  312POPC   C3A 4052   1.279   3.707   5.377 -0.2533 -0.2166  0.0269
  312POPC   C4A 4053   1.272   3.788   5.763 -0.0037 -0.1485 -0.0448
  312POPC   C1B 4054   0.673   3.236   4.809 -0.1299 -0.0891  0.0866
  312POPC   C2B 4055   0.286   3.248   5.110  0.0369 -0.0537  0.0017
  312POPC   C3B 4056   0.309   3.239   5.568  0.1679  0.3598 -0.0588
  312POPC   C4B 4057   0.366   3.457   5.937 -0.1046 -0.3369  0.4395
  313POPC   NC3 4058   2.329   9.956   3.981  0.0673 -0.0446 -0.0007
  313POPC   PO4 4059   2.229  10.444   3.916  0.3067  0.2179 -0.0537
  313POPC   GL1 4060   2.087  10.454   4.371 -0.1099 -0.0636 -0.0571
  313POPC   GL2 4061   2.107  10.785   4.455  0.4362 -0.1551  0.0670
  313POPC   C1A 4062   2.317  10.427   4.741 -0.2036  0.1643  0.0737
  313POPC   D2A 4063   2.521  10.684   4.848 -0.1843 -0.0212  0.0313
  313POPC   C3A 4064   2.398  10.705   5.213 -0.1505  0.0252 -0.1399
  313POPC   C4A 4065   2.583  10.574   5.496 -0.0733 -0.0295  0.6186
  313POPC   C1B 4066   2.021  10.853   4.861 -0.3190 -0.0521 -0.0811
  313POPC   C2B 4067   1.917  10.929   5.281  0.2174 -0.0593  0.1491
  313POPC   C3B 4068   1.502  11.078   5.225 -0.1883  0.2204 -0.0961
  313POPC   C4B 4069   1.092  11.185   5.416  0.0137 -0.2291  0.1857
  314POPC   NC3 4070   9.005   3.120   2.811  0.3151 -0.0524  0.0379
  314POPC   PO4 4071   9.423   3.239   3.119 -0.0164  0.0028 -0.2353
  314POPC   GL1 4072   9.665   3.546   3.415 -0.0763  0.0002  0.1049
  314POPC   GL2 4073   9.992   3.441   3.622  0.4014  0.0284 -0.2199
  314POPC   C1A 4074   9.712   3.905   3.650  0.0365  0.2582 -0.0377
  314POPC   D2A 4075   9.900   3.815   4.039  0.0864 -0.4169 -0.1560
  314POPC   C3A 4076   9.808   3.598   4.351  0.1977  0.3435  0.1484
  314POPC   C4A 4077   9.795   3.156   4.564 -0.2466  0.1084  0.3036
  314POPC   C1B 4078  10.190   3.232   4.056 -0.3532 -0.0775 -0.0431
  314POPC   C2B 4079  10.227   3.292   4.493 -0.1201  0.0243  0.0490
  314POPC   C3B 4080  10.165   3.342   4.915  0.1342 -0.1484  0.1690
  314POPC   C4B 4081  10.397   3.222   5.213 -0.1267 -0.1772  0.1612
  315POPC   NC3 4082   0.715   9.430   3.552 -0.3707  0.4044  0.0548
  315POPC   PO4 4083   1.196   9.474   3.642  0.1732 -0.1202  0.1324
  315POPC   GL1 4084   1.174   9.563   4.121  0.2805  0.2368  0.0875
  315POPC   GL2 4085   1.444   9.492   4.251 -0.3891 -0.2200  0.0282
  315POPC   C1A 4086   0.900   9.568   4.511 -0.2556 -0.0604 -0.3460
  315POPC   D2A 4087   0.496   9.640   4.727 -0.1646 -0.2214  0.0126
  315POPC   C3A 4088   0.451   9.370   5.093 -0.3352  0.0640 -0.2973
  315POPC   C4A 4089   0.352   9.101   5.377 -0.1391 -0.3200  0.0007
  315POPC   C1B 4090   1.223   9.283   4.687  0.0743 -0.1030  0.1328
  315POPC   C2B 4091   1.160   8.867   5.064  0.2054 -0.3107  0.1610
  315POPC   C3B 4092   1.271   8.384   5.149  0.1156 -0.0434  0.2338
  315POPC   C4B 4093   1.187   8.098   5.392 -0.0023 -0.3304 -0.2778
  316POPC   NC3 4094   4.938   8.081   3.700 -0.0237 -0.1254 -0.0079
  316POPC   PO4 4095   4.827   7.912   4.100 -0.3358 -0.0199 -0.1120
  316POPC   GL1 4096   4.681   8.084   4.489  0.0246  0.3309 -0.0207
  316POPC   GL2 4097   4.954   8.351   4.515  0.0468 -0.0760 -0.0879
  316POPC   C1A 4098   4.455   7.963   4.767 -0.3625  0.0403  0.3428
  316POPC   D2A 4099   4.572   7.897   5.253 -0.0720  0.1551 -0.1489
  316POPC   C3A 4100   4.665   7.520   5.469  0.2684 -0.1156  0.3486
  316POPC   C4A 4101   4.710   7.093   5.408  0.1845 -0.1234 -0.3345
  316POPC   C1B 4102   4.804   8.294   4.961  0.0609 -0.0985 -0.3299
  316POPC   C2B 4103   4.513   8.376   5.227  0.2080 -0.1080 -0.0626
  316POPC   C3B 4104   4.031   8.176   5.395  0.0631 -0.0969  0.1361
  316POPC   C4B 4105   3.613   8.121   5.723 -0.0456  0.0527  0.1220
  317POPC   NC3 4106   7.034   0.115   3.567 -0.0904 -0.3644 -0.1249
  317POPC   PO4 4107   7.018  -0.332   3.548 -0.0878 -0.1795 -0.0469
  317POPC   GL1 4108   6.952  -0.367   4.046  0.0843  0.0646  0.0243
  317POPC   GL2 4109   6.721  -0.310   4.254  0.3317 -0.0696  0.2653
  317POPC   C1A 4110   7.181  -0.488   4.379 -0.2469 -0.2918  0.0306
  317POPC   D2A 4111   7.111  -0.347   4.815  0.0300  0.1923 -0.2378
  317POPC   C3A 4112   7.333  -0.100   5.148 -0.1480 -0.1471 -0.2386
  317POPC   C4A 4113   7.615   0.040   5.332  0.1157 -0.2163  0.0793
  317POPC   C1B 4114   6.599  -0.360   4.714 -0.1097 -0.0535  0.0267
  317POPC   C2B 4115   6.448  -0.191   4.995 -0.0541 -0.0168  0.2756
  317POPC   C3B 4116   6.295   0.240   5.225 -0.0020  0.0399 -0.1163
  317POPC   C4B 4117   6.028   0.594   5.253 -0.1569  0.2576  0.0898
  318POPC   NC3 4118   3.220   9.654   4.032 -0.0173 -0.0792 -0.1993
  318POPC   PO4 4119   2.739   9.686   3.925  0.1508  0.1126 -0.1132
  318POPC   GL1 4120   2.786   9.766   4.346 -0.2589  0.1177  0.4850
  318POPC   GL2 4121   2.437   9.788   4.454  0.0371 -0.2104 -0.0391
  318POPC   C1A 4122   2.752  10.023   4.775 -0.2488 -0.0669  0.0835
  318POPC   D2A 4123   2.844  10.348   5.099 -0.1697 -0.0711 -0.3049
  318POPC   C3A 4124   3.022  10.299   5.527  0.4969 -0.1023  0.1382
  318POPC   C4A 4125   3.062  10.008   5.923 -0.1064  0.0388 -0.0278
  318POPC   C1B 4126   2.291   9.458   4.879 -0.3360  0.4626  0.0473
  318POPC   C2B 4127   2.181   8.961   5.162  0.0143  0.1812  0.0139
  318POPC   C3B 4128   2.098   8.623   5.478  0.1504 -0.0448  0.0833
  318POPC   C4B 4129   2.017   8.405   5.883  0.1404 -0.0725  0.0380
  319POPC   NC3 4130   6.106   1.558   2.827  0.3489 -0.0756 -0.2341
  319POPC   PO4 4131   6.108   1.613   3.241  0.2745  0.0910 -0.3709
  319POPC   GL1 4132   6.060   1.463   3.674  0.0690  0.1358 -0.0113
  319POPC   GL2 4133   6.306   1.311   3.675 -0.1018  0.2673 -0.2295
  319POPC   C1A 4134   6.037   1.169   4.086  0.2024  0.2000  0.3189
  319POPC   D2A 4135   5.866   0.964   4.404  0.0520 -0.0281  0.2869
  319POPC   C3A 4136   5.747   1.061   4.811 -0.1386  0.0296 -0.2093
  319POPC   C4A 4137   5.634   0.866   5.111 -0.1364 -0.0607  0.2424
  319POPC   C1B 4138   6.612   1.481   3.994 -0.1224 -0.2661  0.0859
  319POPC   C2B 4139   6.628   1.470   4.429 -0.1695 -0.0313 -0.0409
  319POPC   C3B 4140   6.870   1.480   4.877 -0.0069 -0.1957 -0.3120
  319POPC   C4B 4141   7.094   1.411   5.282 -0.0260 -0.3055  0.2165
  320POPC   NC3 4142   7.860   6.586   2.905  0.2727  0.0365 -0.3104
  320POPC   PO4 4143   8.153   6.322   3.215  0.3818  0.0288 -0.3190
  320POPC   GL1 4144   8.533   6.264   3.435 -0.1876 -0.0569 -0.3773
  320POPC   GL2 4145   8.771   6.080   3.411 -0.1387 -0.3228 -0.1129
  320POPC   C1A 4146   8.797   6.657   3.543  0.1373  0.2596 -0.1400
  320POPC   D2A 4147   9.088   6.821   3.813  0.1130 -0.1943 -0.1547
  320POPC   C3A 4148   9.527   6.855   3.687  0.1116  0.1272 -0.3987
  320POPC   C4A 4149   9.805   6.485   3.682 -0.0637 -0.0823 -0.0190
  320POPC   C1B 4150   9.053   5.841   3.581 -0.2792  0.1681 -0.0639
  320POPC   C2B 4151   9.385   5.655   3.893  0.0676  0.1901  0.1036
  320POPC   C3B 4152   9.756   5.448   4.129  0.5189  0.3674  0.2789
  320POPC   C4B 4153   9.949   5.130   3.947 -0.1316 -0.0613  0.1683
  321POPC   NC3 4154   3.606   0.390   3.785 -0.4323 -0.0475 -0.3104
  321POPC   PO4 4155   3.118   0.315   3.772 -0.5048  0.1092 -0.0134
  321POPC   GL1 4156   3.198   0.613   4.173  0.0050  0.0150 -0.2516
  321POPC   GL2 4157   3.486   0.753   4.090  0.1122 -0.0098  0.1382
  321POPC   C1A 4158   3.151   0.637   4.596  0.0009  0.0701 -0.0015
  321POPC   D2A 4159   2.897   0.441   4.893 -0.4089 -0.0160 -0.0916
  321POPC   C3A 4160   2.852   0.341   5.259 -0.0655 -0.1140  0.1708
  321POPC   C4A 4161   3.174   0.245   5.513  0.2534  0.1259 -0.3184
  321POPC   C1B 4162   3.405   1.033   4.500  0.1411 -0.0830 -0.2132
  321POPC   C2B 4163   3.494   1.003   4.837 -0.3630  0.4408  0.0613
  321POPC   C3B 4164   3.565   1.275   5.254 -0.2409 -0.0226 -0.1489
  321POPC   C4B 4165   3.905   1.522   5.551 -0.0013 -0.2390  0.1930
  322POPC   NC3 4166  10.273  10.281   3.611  0.0706  0.2964  0.1264
  322POPC   PO4 4167  10.616  10.465   3.729 -0.0949 -0.0413  0.3606
  322POPC   GL1 4168  10.270  10.590   4.040 -0.1169 -0.0283 -0.0476
  322POPC   GL2 4169  10.138  10.254   4.111  0.2195  0.1022 -0.1929
  322POPC   C1A 4170   9.975  10.718   4.387 -0.2061  0.0482 -0.2023
  322POPC   D2A 4171   9.988  10.554   4.837  0.3207 -0.0076 -0.0098
  322POPC   C3A 4172  10.213  10.551   5.096 -0.2653  0.2016  0.0866
  322POPC   C4A 4173  10.396  10.565   5.433 -0.2520 -0.2348  0.0368
  322POPC   C1B 4174  10.367  10.355   4.541  0.0491  0.0128 -0.0437
  322POPC   C2B 4175  10.578  10.143   4.817 -0.0271  0.0535 -0.2476
  322POPC   C3B 4176  10.580  10.161   5.218 -0.2412  0.2646  0.3858
  322POPC   C4B 4177  10.287  10.082   5.551 -0.0281  0.0031  0.1049
  323POPC   NC3 4178   3.198   5.513   3.696  0.0207  0.0932 -0.0455
  323POPC   PO4 4179   3.491   5.207   3.924  0.0952 -0.0795 -0.1714
  323POPC   GL1 4180   3.412   5.284   4.337 -0.0198 -0.0877  0.1991
  323POPC   GL2 4181   3.238   5.029   4.348 -0.3714 -0.2571 -0.0102
  323POPC   C1A 4182   3.618   5.177   4.667 -0.1603  0.1884 -0.0225
  323POPC   D2A 4183   3.778   5.157   5.025  0.2812  0.0754 -0.2829
  323POPC   C3A 4184   3.937   5.532   5.133  0.1359 -0.5316 -0.0476
  323POPC   C4A 4185   4.279   5.639   4.916 -0.1631 -0.0403 -0.2855
  323POPC   C1B 4186   2.948   5.040   4.605 -0.2023 -0.1043 -0.2232
  323POPC   C2B 4187   2.893   5.089   5.042 -0.1636  0.0148 -0.0228
  323POPC   C3B 4188   2.841   5.101   5.517 -0.2277  0.2278 -0.1832
  323POPC   C4B 4189   2.588   4.954   5.905  0.2157  0.0361 -0.0002
  324POPC   NC3 4190   0.048   8.749   3.571  0.1756 -0.2850  0.0464
  324POPC   PO4 4191  -0.205   9.083   3.733 -0.1657  0.2931  0.2758
  324POPC   GL1 4192  -0.215   9.139   4.202  0.1581  0.0184 -0.0147
  324POPC   GL2 4193  -0.431   9.364   4.381 -0.1914  0.0076 -0.0043
  324POPC   C1A 4194   0.007   9.118   4.452 -0.1284  0.0812 -0.1595
  324POPC   D2A 4195   0.175   8.963   4.819  0.1427  0.0214 -0.2238
  324POPC   C3A 4196  -0.009   9.159   5.059  0.1785  0.2870 -0.0013
  324POPC   C4A 4197  -0.172   9.215   5.400  0.3299 -0.0880  0.0098
  324POPC   C1B 4198  -0.442   9.187   4.667 -0.0227 -0.4199  0.1033
  324POPC   C2B 4199  -0.530   8.905   5.021  0.3854  0.2646 -0.0569
  324POPC   C3B 4200  -0.486   8.816   5.505  0.0839 -0.0905  0.2754
  324POPC   C4B 4201  -0.253   8.631   5.803  0.4012 -0.0369 -0.1578
  325POPC   NC3 4202   2.603   4.731   3.616 -0.1904 -0.0397 -0.2873
  325POPC   PO4 4203   2.998   4.404   3.716  0.0838 -0.0585 -0.0774
  325POPC   GL1 4204   2.826   4.535   4.066 -0.1341  0.0998  0.1636
  325POPC   GL2 4205   2.616   4.781   4.210 -0.1129 -0.1662 -0.1027
  325POPC   C1A 4206   3.182   4.496   4.477 -0.0612  0.0269  0.0616
  325POPC   D2A 4207   3.343   4.736   4.807 -0.2687  0.0457 -0.0243
  325POPC   C3A 4208   3.020   4.684   5.180  0.0818  0.0415 -0.1950
  325POPC   C4A 4209   3.150   4.364   5.435  0.0795  0.0521  0.0860
  325POPC   C1B 4210   2.703   4.601   4.573  0.0475  0.2438  0.0705
  325POPC   C2B 4211   2.762   4.360   4.928 -0.2528 -0.0612 -0.3467
  325POPC   C3B 4212   3.169   4.191   4.899 -0.0242 -0.1077  0.2165
  325POPC   C4B 4213   3.529   4.250   5.153  0.0671  0.1651  0.1151
  326POPC   NC3 4214   4.640   5.527   3.687  0.1845 -0.1089  0.3218
  326POPC   PO4 4215   4.447   5.871   3.978 -0.2019  0.1488  0.3202
  326POPC   GL1 4216   4.236   5.822   4.285  0.1825  0.2028  0.0788
  326POPC   GL2 4217   3.906   5.928   4.399 -0.0417  0.0038  0.0958
  326POPC   C1A 4218   4.337   6.053   4.641  0.1677  0.1572  0.1146
  326POPC   D2A 4219   4.431   6.153   4.980 -0.1405  0.0999 -0.0109
  326POPC   C3A 4220   4.177   6.016   5.265 -0.1094 -0.0473 -0.0234
  326POPC   C4A 4221   3.838   6.000   5.464  0.0110 -0.0854  0.2724
  326POPC   C1B 4222   3.798   5.980   4.780  0.1048  0.0413  0.0103
  326POPC   C2B 4223   3.482   5.938   5.132 -0.1267  0.0159 -0.0671
  326POPC   C3B 4224   3.258   5.897   5.480 -0.0946  0.1299 -0.1500
  326POPC   C4B 4225   3.125   5.482   5.567 -0.4724 -0.0941  0.2497
  327POPC   NC3 4226   5.312   3.145   3.363  0.0352 -0.0807 -0.2786
  327POPC   PO4 4227   5.789   3.249   3.330 -0.1985 -0.0188  0.3007
  327POPC   GL1 4228   5.642   3.144   3.788  0.3941 -0.0764  0.0673
  327POPC   GL2 4229   5.285   3.319   3.860  0.1937  0.0066  0.2925
  327POPC   C1A 4230   5.800   3.202   4.132  0.1815  0.3506  0.4814
  327POPC   D2A 4231   5.992   3.067   4.470 -0.0626 -0.2563 -0.1842
  327POPC   C3A 4232   5.709   2.711   4.719  0.1025  0.3503  0.4510
  327POPC   C4A 4233   5.655   2.334   4.660 -0.1008 -0.2382  0.2329
  327POPC   C1B 4234   5.339   3.522   4.241 -0.2108  0.2098  0.1301
  327POPC   C2B 4235   5.681   3.617   4.527 -0.1443  0.2287 -0.2679
  327POPC   C3B 4236   5.938   3.667   4.950  0.0326 -0.1389  0.0293
  327POPC   C4B 4237   6.079   4.135   5.028  0.2192  0.0180  0.0440
  328POPC   NC3 4238   1.265   5.816   3.567  0.1292 -0.0437  0.2197
  328POPC   PO4 4239   1.509   5.493   3.540  0.2043 -0.2769 -0.1300
  328POPC   GL1 4240   1.336   5.482   3.987  0.0511 -0.2130 -0.3995
  328POPC   GL2 4241   1.164   5.808   4.057  0.1842 -0.0200  0.0733
  328POPC   C1A 4242   1.211   5.150   4.316 -0.1792 -0.0925  0.3236
  328POPC   D2A 4243   0.842   5.032   4.496  0.0571 -0.2595 -0.2883
  328POPC   C3A 4244   0.790   4.886   4.961 -0.2761  0.0826 -0.2123
  328POPC   C4A 4245   1.011   4.826   5.306  0.1880  0.2355 -0.1734
  328POPC   C1B 4246   1.047   6.044   4.416 -0.3054 -0.0991  0.0681
  328POPC   C2B 4247   0.781   5.878   4.808 -0.0599 -0.3087 -0.2278
  328POPC   C3B 4248   0.759   5.819   5.285  0.0317  0.0273  0.0492
  328POPC   C4B 4249   0.607   6.056   5.551  0.3069 -0.3648 -0.1849
  329POPC   NC3 4250   1.300   0.118   3.855  0.0787  0.0687  0.2961
  329POPC   PO4 4251   1.500   0.505   3.820 -0.1701  0.0881 -0.1046
  329POPC   GL1 4252   1.451   0.502   4.255 -0.2483 -0.2062 -0.3671
  329POPC   GL2 4253   1.538   0.239   4.399 -0.1268  0.0041  0.0891
  329POPC   C1A 4254   1.500   0.800   4.682  0.0827 -0.2101  0.1194
  329POPC   D2A 4255   1.119   0.862   5.047 -0.0698 -0.0195  0.1868
  329POPC   C3A 4256   0.687   0.836   4.915  0.0445  0.4119 -0.0065
  329POPC   C4A 4257   0.347   1.028   4.951  0.4069 -0.1205  0.0744
  329POPC   C1B 4258   1.545   0.066   4.835 -0.1453 -0.0969  0.0735
  329POPC   C2B 4259   1.549  -0.059   5.202  0.0697 -0.1330  0.1564
  329POPC   C3B 4260   1.707  -0.293   5.506  0.0563 -0.2681 -0.0557
  329POPC   C4B 4261   1.666  -0.647   5.520  0.0115  0.2306  0.1440
  330POPC   NC3 4262   6.966   8.421   3.813 -0.3503  0.1405  0.1955
  330POPC   PO4 4263   7.290   8.692   3.921  0.2419  0.1967 -0.0021
  330POPC   GL1 4264   7.397   8.866   4.284  0.0358  0.0043 -0.1712
  330POPC   GL2 4265   7.196   9.122   4.403  0.1126 -0.1355  0.1518
  330POPC   C1A 4266   7.540   8.979   4.733  0.1943  0.0457 -0.2217
  330POPC   D2A 4267   7.797   8.864   5.109 -0.0837 -0.1450 -0.0205
  330POPC   C3A 4268   7.958   8.481   5.398 -0.2024 -0.0771  0.0446
  330POPC   C4A 4269   8.093   8.123   5.634 -0.0934  0.2510 -0.1619
  330POPC   C1B 4270   7.087   9.167   4.836 -0.1293 -0.2884 -0.0725
  330POPC   C2B 4271   7.248   9.050   5.187  0.2251 -0.4536  0.1896
  330POPC   C3B 4272   7.146   8.907   5.610  0.0268 -0.0766  0.0031
  330POPC   C4B 4273   7.263   8.808   6.016 -0.1556  0.0739 -0.0654
  331POPC   NC3 4274   7.391   0.704   3.167 -0.0367 -0.1561  0.1118
  331POPC   PO4 4275   7.168   0.639   3.516  0.1885  0.0720  0.4495
  331POPC   GL1 4276   6.951   0.536   3.809  0.0769 -0.1274  0.0047
  331POPC   GL2 4277   7.048   0.651   4.079 -0.0014  0.0047 -0.3684
  331POPC   C1A 4278   6.628   0.238   4.175  0.1416 -0.0221  0.1692
  331POPC   D2A 4279   6.493   0.162   4.629 -0.2055  0.1275  0.0289
  331POPC   C3A 4280   6.847   0.199   4.869  0.1347 -0.0207 -0.0742
  331POPC   C4A 4281   7.039   0.547   4.989 -0.0612  0.0478  0.0595
  331POPC   C1B 4282   7.248   0.778   4.524 -0.1913  0.0218 -0.1923
  331POPC   C2B 4283   7.413   0.950   4.840 -0.0574  0.2948  0.0501
  331POPC   C3B 4284   7.530   1.045   5.192 -0.3513 -0.0519  0.0133
  331POPC   C4B 4285   7.576   1.400   5.352 -0.2483 -0.2162 -0.0167
  332POPC   NC3 4286   3.143   1.487   3.115 -0.1382 -0.1444  0.2236
  332POPC   PO4 4287   3.076   1.310   3.485 -0.1891 -0.0830 -0.3034
  332POPC   GL1 4288   2.991   1.600   3.953  0.2100  0.1153  0.0055
  332POPC   GL2 4289   3.267   1.714   4.101 -0.1232 -0.0648 -0.3474
  332POPC   C1A 4290   2.860   1.773   4.362  0.0229  0.0773  0.1609
  332POPC   D2A 4291   2.903   1.764   4.785 -0.1332  0.0832  0.4009
  332POPC   C3A 4292   3.114   1.595   5.081  0.0788 -0.1039 -0.2012
  332POPC   C4A 4293   3.108   1.328   5.420  0.1599  0.0766 -0.1628
  332POPC   C1B 4294   3.599   1.435   4.341 -0.1652  0.0268 -0.2469
  332POPC   C2B 4295   3.890   1.137   4.566  0.0696  0.1698 -0.1662
  332POPC   C3B 4296   4.004   1.061   5.099  0.2767  0.0670  0.0276
  332POPC   C4B 4297   3.898   0.931   5.514  0.3138  0.1109 -0.2886
  333POPC   NC3 4298   2.617   2.422   3.934  0.1105 -0.1487 -0.1075
  333POPC   PO4 4299   2.954   2.604   3.810  0.2012 -0.1378  0.1348
  333POPC   GL1 4300   3.046   2.744   4.171 -0.3116  0.3166  0.0707
  333POPC   GL2 4301   3.404   2.687   4.178 -0.1787 -0.0729 -0.0592
  333POPC   C1A 4302   3.065   2.707   4.615  0.1431 -0.2486 -0.1257
  333POPC   D2A 4303   2.938   2.814   5.029 -0.3395 -0.1410 -0.2553
  333POPC   C3A 4304   3.179   2.714   5.421  0.0653  0.2013 -0.2487
  333POPC   C4A 4305   3.235   2.774   5.879  0.0521  0.5995  0.1928
  333POPC   C1B 4306   3.497   2.475   4.532  0.2143 -0.0058 -0.0980
  333POPC   C2B 4307   3.485   2.541   4.952 -0.2949  0.1424  0.0625
  333POPC   C3B 4308   3.527   2.246   5.378 -0.0559 -0.2401 -0.4136
  333POPC   C4B 4309   3.368   2.252   5.726  0.2452  0.2816 -0.0397
  334POPC   NC3 4310   9.988   3.422   3.061 -0.1330 -0.3351 -0.0901
  334POPC   PO4 4311  10.327   3.377   3.316 -0.4223  0.1994  0.0919
  334POPC   GL1 4312  10.413   3.533   3.724 -0.4411  0.0198 -0.0174
  334POPC   GL2 4313  10.696   3.822   3.834 -0.0204 -0.1907  0.0210
  334POPC   C1A 4314  10.343   3.723   4.157 -0.1311 -0.0545  0.3576
  334POPC   D2A 4315  10.198   3.845   4.620  0.2880 -0.2304  0.2805
  334POPC   C3A 4316  10.057   3.796   5.001  0.3115  0.3535 -0.1223
  334POPC   C4A 4317  10.079   3.599   5.349 -0.1412 -0.3294 -0.0904
  334POPC   C1B 4318  10.889   3.983   4.156  0.2206 -0.0975 -0.4179
  334POPC   C2B 4319  11.250   4.141   4.479  0.0001 -0.1065 -0.1805
  334POPC   C3B 4320  11.224   4.211   4.958 -0.1425  0.0311  0.0605
  334POPC   C4B 4321  11.509   4.284   5.288  0.0921 -0.0943 -0.4642
  335POPC   NC3 4322   1.305   9.898   3.794  0.0337  0.2465 -0.0606
  335POPC   PO4 4323   1.592  10.250   3.752 -0.1231 -0.1874 -0.2023
  335POPC   GL1 4324   1.542  10.418   4.185  0.2075 -0.3873  0.1459
  335POPC   GL2 4325   1.272  10.371   4.331  0.2519  0.1131  0.1633
  335POPC   C1A 4326   1.736  10.153   4.475 -0.3072 -0.0342 -0.0371
  335POPC   D2A 4327   2.020   9.896   4.590  0.1079  0.0339  0.0213
  335POPC   C3A 4328   2.288   9.965   5.004 -0.2043 -0.1199 -0.0761
  335POPC   C4A 4329   2.200   9.763   5.336  0.0788 -0.1032 -0.1702
  335POPC   C1B 4330   1.232  10.301   4.710 -0.0323 -0.1404 -0.3614
  335POPC   C2B 4331   1.101  10.406   5.180  0.3483  0.0055  0.0529
  335POPC   C3B 4332   1.078  10.668   5.443  0.0672  0.0203  0.0850
  335POPC   C4B 4333   0.809  10.703   5.880 -0.4870 -0.2622  0.1686
  336POPC   NC3 4334   1.931   5.409   3.160 -0.1227  0.1574  0.0818
  336POPC   PO4 4335   2.019   5.239   3.537  0.1718 -0.1157 -0.1723
  336POPC   GL1 4336   1.855   5.347   3.926  0.1658 -0.2028 -0.2552
  336POPC   GL2 4337   2.142   5.270   4.142 -0.0376  0.4217  0.1104
  336POPC   C1A 4338   1.684   5.236   4.338  0.0749  0.0296  0.1770
  336POPC   D2A 4339   1.405   5.199   4.766  0.3000 -0.1700  0.0674
  336POPC   C3A 4340   1.410   5.173   5.164  0.3418  0.2463 -0.2827
  336POPC   C4A 4341   1.343   5.127   5.656 -0.0905  0.1578 -0.0277
  336POPC   C1B 4342   2.086   5.455   4.534 -0.0485 -0.0550 -0.1531
  336POPC   C2B 4343   1.860   5.438   4.906 -0.1539 -0.0957 -0.2448
  336POPC   C3B 4344   1.782   5.615   5.274 -0.2961 -0.0555 -0.1477
  336POPC   C4B 4345   1.573   6.031   5.394 -0.2851 -0.1278  0.1303
  337POPC   NC3 4346   3.368   4.895   3.542  0.3700 -0.0498  0.1199
  337POPC   PO4 4347   3.028   4.993   3.757 -0.2334  0.0993  0.4080
  337POPC   GL1 4348   2.856   5.254   4.075  0.1137 -0.1010 -0.1918
  337POPC   GL2 4349   2.981   5.471   4.140  0.3241  0.0381 -0.0468
  337POPC   C1A 4350   2.549   5.234   4.434  0.1030 -0.1714  0.0286
  337POPC   D2A 4351   2.375   5.092   4.787 -0.1327  0.0181 -0.2552
  337POPC   C3A 4352   2.305   5.185   5.292  0.1187 -0.2226  0.0483
  337POPC   C4A 4353   2.214   5.311   5.670 -0.1103  0.2712 -0.0225
  337POPC   C1B 4354   2.931   5.548   4.547  0.0490 -0.1217 -0.1601
  337POPC   C2B 4355   2.742   5.514   4.874 -0.1144  0.1884  0.0919
  337POPC   C3B 4356   2.703   5.513   5.299 -0.0901  0.0466  0.2920
  337POPC   C4B 4357   2.638   5.567   5.754 -0.0204  0.0782 -0.0841
  338POPC   NC3 4358   1.748   2.739   3.553 -0.0231 -0.0599 -0.0291
  338POPC   PO4 4359   1.607   2.371   3.760  0.1049 -0.0737  0.1892
  338POPC   GL1 4360   1.712   2.326   4.192 -0.2255 -0.2502 -0.0443
  338POPC   GL2 4361   1.812   2.576   4.355  0.1530 -0.1272 -0.0962
  338POPC   C1A 4362   1.729   2.204   4.646 -0.0324 -0.1965 -0.2780
  338POPC   D2A 4363   1.927   1.982   4.994 -0.0673  0.1825  0.0593
  338POPC   C3A 4364   2.045   1.588   4.884 -0.1013  0.2626  0.2762
  338POPC   C4A 4365   1.813   1.236   4.904 -0.1390  0.1209  0.0079
  338POPC   C1B 4366   1.762   2.802   4.761  0.0664 -0.0135 -0.0891
  338POPC   C2B 4367   1.376   2.866   5.035 -0.3923 -0.0480  0.0033
  338POPC   C3B 4368   1.348   3.168   5.326  0.0339  0.3064  0.1465
  338POPC   C4B 4369   1.126   3.327   5.719 -0.2118 -0.0339  0.0052
  339POPC   NC3 4370   4.337   4.532   3.955  0.1697  0.3253  0.1265
  339POPC   PO4 4371   4.741   4.400   3.929  0.2496 -0.0694 -0.1182
  339POPC   GL1 4372   4.723   4.295   4.397 -0.2801  0.2728 -0.1158
  339POPC   GL2 4373   4.993   4.484   4.629 -0.1694 -0.2438 -0.0001
  339POPC   C1A 4374   4.643   3.923   4.559 -0.1752 -0.0598  0.3397
  339POPC   D2A 4375   4.439   3.739   4.939 -0.0527  0.1650 -0.0522
  339POPC   C3A 4376   4.860   3.620   5.154  0.0796 -0.1455 -0.0509
  339POPC   C4A 4377   5.040   3.322   5.354  0.0200  0.1501 -0.1245
  339POPC   C1B 4378   5.116   4.951   4.828  0.0010  0.0342 -0.2459
  339POPC   C2B 4379   5.149   5.387   5.062  0.1210  0.1858  0.0316
  339POPC   C3B 4380   5.188   5.606   5.421 -0.2336  0.0854  0.1526
  339POPC   C4B 4381   5.395   5.866   5.589 -0.0005  0.3566  0.3273
  340POPC   NC3 4382   7.052   1.488   3.159 -0.0499  0.0716 -0.1254
  340POPC   PO4 4383   7.395   1.247   3.124  0.1074  0.1225 -0.1435
  340POPC   GL1 4384   7.667   1.219   3.458 -0.1639  0.0934 -0.0209
  340POPC   GL2 4385   7.719   1.581   3.724 -0.1964 -0.1699 -0.2140
  340POPC   C1A 4386   7.557   1.038   3.889 -0.2376  0.3548  0.0247
  340POPC   D2A 4387   7.620   0.592   4.077 -0.0906  0.0724 -0.1023
  340POPC   C3A 4388   7.689   0.525   4.568  0.3501  0.0067 -0.5084
  340POPC   C4A 4389   7.513   0.376   4.947  0.1850  0.0905 -0.0254
  340POPC   C1B 4390   7.537   1.961   3.945  0.3597  0.1648  0.0851
  340POPC   C2B 4391   7.351   2.095   4.282  0.1310 -0.2437  0.0324
  340POPC   C3B 4392   7.403   2.106   4.795 -0.0996 -0.0271  0.0622
  340POPC   C4B 4393   7.387   1.858   5.180  0.0487  0.1581  0.2421
  341POPC   NC3 4394   0.391  10.571   3.916 -0.1397  0.0131  0.1179
  341POPC   PO4 4395   0.845  10.372   3.906  0.0993  0.1643  0.2202
  341POPC   GL1 4396   0.978  10.019   4.188 -0.2746  0.1519 -0.2206
  341POPC   GL2 4397   0.820  10.052   4.408 -0.0871  0.2925  0.2534
  341POPC   C1A 4398   1.303   9.866   4.520  0.0524 -0.3514  0.1984
  341POPC   D2A 4399   1.343   9.813   4.888  0.0697 -0.2017  0.1099
  341POPC   C3A 4400   1.732   9.983   4.992  0.0637  0.0670 -0.0939
  341POPC   C4A 4401   1.899  10.336   5.039  0.3646 -0.3006  0.0551
  341POPC   C1B 4402   0.838   9.934   4.923 -0.1291  0.2927  0.0242
  341POPC   C2B 4403   1.113   9.858   5.301 -0.2620  0.0222 -0.0926
  341POPC   C3B 4404   1.195   9.713   5.733 -0.0011 -0.0646 -0.1405
  341POPC   C4B 4405   1.223   9.629   6.208 -0.1531  0.0543 -0.0099
  342W        W 4406   2.860   3.172   2.943 -0.0669  0.1438  0.2140
  343W        W 4407   4.855   8.536   3.109 -0.0668  0.0692 -0.2126
  344W        W 4408   3.892   0.330   9.871 -0.0284  0.0996  0.1285
  345W        W 4409   3.812   7.121   9.189  0.0946 -0.0168 -0.0305
  346W        W 4410   6.819   4.543   9.759  0.0595 -0.2755 -0.0382
  347W        W 4411   5.107  10.007   0.445  0.2707 -0.1227 -0.1093
  348W        W 4412   7.567   9.002   9.376 -0.1980 -0.0934  0.0259
  349W        W 4413   3.583   6.424   1.969  0.0626 -0.2623 -0.1874
  350W        W 4414   4.001   3.386   2.186  0.1899  0.3681 -0.1916
  351W        W 4415   9.413   0.644   8.996  0.0797  0.3703 -0.0986
  352W        W 4416   5.452   7.805   7.897  0.0278  0.1979  0.3882
  353W        W 4417   1.930   7.304   2.211  0.1010  0.0392 -0.1258
  354W        W 4418   1.881   8.625   2.597  0.0235 -0.0763 -0.1683
  355W        W 4419   6.745   9.985   3.138  0.0844  0.2442 -0.0248
  356W        W 4420   0.345   3.088  11.077  0.2541  0.0018  0.2585
  357W        W 4421   1.840   9.029   2.977 -0.1494 -0.1897 -0.0998
  358W        W 4422   7.023   9.693  10.841  0.0494  0.0633 -0.0770
  359W        W 4423   2.546   7.822  10.299  0.4792  0.1215  0.0627
  360W        W 4424   0.443   4.068   9.578  0.0703  0.2422  0.0979
  361W        W 4425   1.367   9.434   8.515  0.0846 -0.2090 -0.0316
  362W        W 4426   8.388   0.423   3.105  0.0692 -0.0139  0.1092
  363W        W 4427   0.863   6.733  10.492 -0.1024  0.1132 -0.1907
  364W        W 4428   6.650   4.646   1.528 -0.1064 -0.1095  0.2283
  365W        W 4429   7.244   2.178   1.890  0.1880  0.1268  0.0815
  366W        W 4430   2.410   1.304   2.539  0.2780  0.1659 -0.1423
  367W        W 4431   2.563   0.169   4.326  0.2242 -0.3390  0.3636
  368W        W 4432   7.567   6.158   0.275 -0.0706  0.0118 -0.3369
  369W        W 4433   5.765   4.513   8.289  0.0075 -0.3702 -0.1243
  370W        W 4434   9.359   8.211   1.956  0.1006 -0.1984  0.2637
  371W        W 4435   7.125   3.675   1.575 -0.0697  0.0509 -0.0342
  372W        W 4436   6.690   6.968  10.183 -0.1035 -0.1038  0.3361
  373W        W 4437   6.316  10.117   9.206  0.3314 -0.0734  0.1322
  374W        W 4438   7.760   8.236   1.210 -0.0719 -0.2725 -0.0111
  375W        W 4439   1.967   2.749   9.116  0.4143  0.2148  0.0555
  376W        W 4440   1.749   0.051   7.973  0.1465 -0.2755  0.0731
  377W        W 4441   5.384   7.909  10.707  0.4619  0.0409  0.1607
  378W        W 4442   5.230   2.091   2.620  0.0451 -0.0829 -0.3167
  379W        W 4443  10.078   9.345   9.159  0.1823 -0.1778  0.1755
  380W        W 4444   6.284   1.944   8.109 -0.1507  0.2948 -0.1000
  381W        W 4445   3.059   8.948   0.192  0.0686  0.3252  0.0587
  382W        W 4446   3.485   8.563   7.774 -0.0254 -0.3765 -0.0568
  383W        W 4447   5.545   1.692   2.123 -0.0218 -0.0147  0.1133
  384W        W 4448   6.970   5.834   2.401  0.1567  0.1166 -0.1889
  385W        W 4449   1.596   2.061   8.438 -0.1248 -0.0541  0.2275
  386W        W 4450   0.650   4.643   0.642 -0.1748 -0.0199  0.1242
  387W        W 4451   2.508   3.841   3.448 -0.3145  0.1948  0.0973
  388W        W 4452   4.591   1.926   8.149 -0.0491 -0.3261 -0.1618
  389W        W 4453   3.147   2.708  10.931  0.0250  0.1629 -0.0488
  390W        W 4454   4.751   0.247  11.178  0.1495  0.2922  0.2462
  391W        W 4455   6.869   3.162  10.176  0.2914 -0.1555 -0.1026
  392W        W 4456   5.894   3.305   1.026  0.0073 -0.0397  0.0366
  393W        W 4457   3.056   9.910   0.202  0.1139 -0.4554  0.0819
  394W        W 4458   2.397   1.329   0.573 -0.2199 -0.1748 -0.3619
  395W        W 4459   6.139   8.549  10.062  0.1775  0.1646  0.2676
  396W        W 4460   3.582   6.127   1.513 -0.2321  0.3546  0.1637
  397W        W 4461   3.417   7.970   0.221 -0.1069  0.1751 -0.3309
  398W        W 4462   1.868   9.540   1.922  0.0017 -0.0631  0.2423
  399W        W 4463   5.494   1.165   2.141  0.0010  0.1038  0.1280
  400W        W 4464   8.312   8.444  10.602  0.4185  0.0049 -0.2340
  401W        W 4465   9.663   7.992   0.278 -0.0441  0.1648 -0.1997
  402W        W 4466   7.680  10.526   7.971  0.3389  0.0265 -0.1428
  403W        W 4467   4.141   7.717   7.556  0.2545  0.1673 -0.0673
  404W        W 4468   4.318   4.226   0.650  0.0638  0.1529  0.0477
  405W        W 4469   6.888   1.886   2.718 -0.2850 -0.2709 -0.2627
  406W        W 4470   1.950   3.268   1.686 -0.1059 -0.1386  0.0990
  407W        W 4471   6.288   5.246   9.442 -0.2874 -0.1131  0.1430
  408W        W 4472   3.673   1.130  10.403 -0.0773  0.1107 -0.0228
  409W        W 4473   2.001   9.462  10.126 -0.2634 -0.2235 -0.2571
  410W        W 4474   4.695   6.438   3.249 -0.0965  0.0624  0.1514
  411W        W 4475   7.143   1.795  10.958 -0.0516 -0.1392 -0.1705
  412W        W 4476   4.238   8.260   8.377 -0.0436 -0.0076  0.3550
  413W        W 4477   4.831   3.662   1.460  0.0732  0.1403 -0.0974
  414W        W 4478   8.476   6.628  10.025 -0.0355 -0.1075 -0.0183
  415W        W 4479   6.373   0.760  10.738 -0.1897  0.1011 -0.2720
  416W        W 4480   5.837   0.478   0.314  0.0119  0.0206 -0.0091
  417W        W 4481  10.348   6.467  11.464  0.1877  0.3353  0.2427
  418W        W 4482   1.035   0.008   0.791  0.2285  0.2029 -0.1172
  419W        W 4483   6.870   7.413  10.369 -0.0852 -0.0274 -0.0740
  420W        W 4484   7.481  10.265   8.850 -0.0458  0.2653 -0.1817
  421W        W 4485   4.301   9.004   3.638 -0.0967 -0.1668 -0.2827
  422W        W 4486   9.009   2.888   3.356  0.1104 -0.2750 -0.2271
  423W        W 4487   1.792   2.123  10.381  0.1433 -0.1349  0.1014
  424W        W 4488   1.609   9.703   3.478  0.1071 -0.0035  0.0351
  425W        W 4489   2.690   9.678   1.184  0.0167 -0.0211 -0.0613
  426W        W 4490   0.697   2.301  10.802  0.2486 -0.3969  0.1528
  427W        W 4491   7.805   9.302   9.789 -0.4011 -0.3265 -0.1907
  428W        W 4492   4.422   5.055   8.439  0.1197 -0.1528 -0.0408
  429W        W 4493   6.862   7.781  10.023 -0.1725  0.0243  0.2766
  430W        W 4494   3.487   4.630   8.061 -0.2017 -0.0944  0.0317
  431W        W 4495   6.380   1.546  11.363  0.1193  0.0592 -0.1420
  432W        W 4496   9.132   8.043  11.522  0.4132  0.0121  0.0659
  433W        W 4497   4.713   5.907  10.940  0.0471 -0.0844  0.1607
  434W        W 4498  10.091   6.860   1.627  0.0060  0.0890 -0.4197
  435W        W 4499   5.869   5.147   2.754 -0.0213  0.1398  0.0342
  436W        W 4500   4.770   1.698   1.946  0.0635  0.1935  0.0974
  437W        W 4501   7.863   5.667   2.944  0.1224  0.1315 -0.0176
  438W        W 4502   6.738   5.407   9.338  0.3923  0.0819 -0.0605
  439W        W 4503   0.700   0.161  10.787 -0.2855  0.0225 -0.0517
  440W        W 4504   5.921   1.827   1.124 -0.1923 -0.0255 -0.0283
  441W        W 4505   5.119   9.906   0.974 -0.1149  0.0678 -0.0670
  442W        W 4506   2.333   2.823   8.806 -0.2649  0.1195 -0.2321
  443W        W 4507   4.312   9.680  10.694 -0.1857  0.0143 -0.1204
  444W        W 4508   5.039  10.480   2.235  0.0173 -0.2739  0.0204
  445W        W 4509   9.625   5.460  10.572 -0.4968 -0.2452  0.0435
  446W        W 4510  10.590   0.807   9.249  0.2319 -0.2108  0.3571
  447W        W 4511   4.051   0.773   8.800 -0.0116 -0.1367  0.2695
  448W        W 4512   9.228   9.986  11.096 -0.2978 -0.0766  0.2358
  449W        W 4513   0.391   7.837   2.436  0.5911 -0.1808 -0.0920
  450W        W 4514   5.113   2.662  10.993  0.0725 -0.1139  0.0692
  451W        W 4515   6.327   0.654   0.828 -0.0682  0.0998 -0.1112
  452W        W 4516   9.702   8.086   8.743  0.1410 -0.0467 -0.0120
  453W        W 4517   2.925   5.461  10.926 -0.0798  0.0761 -0.2988
  454W        W 4518   4.766   0.996   1.086  0.1292 -0.0286  0.1080
  455W        W 4519   3.939   4.103   0.962 -0.2249 -0.0143 -0.1202
  456W        W 4520   1.447   1.567   2.554  0.4176 -0.0506 -0.1694
  457W        W 4521   0.096   5.073  10.652  0.2071  0.1250  0.1724
  458W        W 4522   5.994   6.030   2.718 -0.0393  0.0667 -0.2935
  459W        W 4523   7.532   9.584   4.164  0.1549  0.2761  0.0890
  460W        W 4524   7.441   7.010   3.239  0.1875 -0.1448  0.2575
  461W        W 4525   6.238   5.680   2.936  0.2158  0.0969  0.1828
  462W        W 4526   4.057   4.089  10.072  0.3677 -0.3499  0.0778
  463W        W 4527   8.713   8.471   1.280 -0.1473  0.2125  0.3474
  464W        W 4528   0.421   9.599   1.277 -0.0083 -0.0069  0.3027
  465W        W 4529   1.846   5.162   8.790 -0.2948 -0.1404  0.0269
  466W        W 4530   6.219   7.428   3.096  0.0371  0.4158 -0.0482
  467W        W 4531   1.636   5.658   9.511  0.0357  0.2522  0.2086
  468W        W 4532   9.055   2.432   3.061  0.1413  0.0619  0.2351
  469W        W 4533   1.229   6.544  10.831 -0.1463 -0.3031  0.4964
  470W        W 4534  10.140   8.392   1.326  0.0663  0.1657  0.1309
  471W        W 4535   3.570   3.052   2.234  0.2987  0.0185 -0.0426
  472W        W 4536   8.127   4.694   9.316 -0.1141  0.1355  0.1680
  473W        W 4537   1.077   8.512  10.596 -0.3122 -0.0496  0.1787
  474W        W 4538   0.658  10.129  11.151 -0.0479  0.0808  0.1453
  475W        W 4539   8.733   1.963   9.567 -0.0534  0.1041 -0.4107
  476W        W 4540   5.575   0.597   2.060 -0.1023 -0.1781  0.1130
  477W        W 4541   7.074   0.293   7.149  0.1398  0.0513  0.0313
  478W        W 4542   3.124   0.910   3.141  0.2113 -0.3927  0.0629
  479W        W 4543   6.320   7.200  10.553  0.2531  0.0570  0.0973
  480W        W 4544   9.864  10.420   9.785 -0.1223  0.1087  0.2499
  481W        W 4545   2.911  10.276  11.357 -0.1696 -0.1483 -0.1723
  482W        W 4546   3.671   0.885   3.637  0.3050  0.1875 -0.2536
  483W        W 4547   3.741   2.394  11.372  0.1602  0.2035  0.0385
  484W        W 4548   6.421   4.434  11.526  0.0256 -0.2553 -0.2019
  485W        W 4549   1.534   4.317   7.779  0.1128  0.0319  0.0718
  486W        W 4550   6.954   5.262   3.114 -0.0145 -0.0240  0.2725
  487W        W 4551   9.132   8.646   8.115 -0.0603  0.0706  0.0071
  488W        W 4552   5.393   8.551   3.098 -0.1645 -0.2179 -0.0979
  489W        W 4553   4.166   0.232   8.768 -0.0754  0.3177 -0.0802
  490W        W 4554   5.569   4.903   8.708 -0.2596 -0.2570  0.0295
  491W        W 4555   7.905   1.588   0.202  0.0928 -0.0627  0.0105
  492W        W 4556   9.624   6.984   1.883 -0.4006  0.1023 -0.1630
  493W        W 4557   6.353   3.136   0.959  0.0768 -0.1155 -0.2119
  494W        W 4558  10.250   6.675  10.139  0.0909  0.0416  0.1470
  495W        W 4559   9.665   1.518   7.605 -0.3406  0.0418 -0.1083
  496W        W 4560   2.293   3.458  11.353  0.3094  0.2454 -0.1314
  497W        W 4561   8.175   3.374   9.502  0.1083  0.1204 -0.1077
  498W        W 4562   7.450   4.197   0.191  0.0484 -0.0462 -0.4083
  499W        W 4563   6.524   8.249   1.678 -0.2138  0.0940 -0.1476
  500W        W 4564   0.158   1.286   9.434  0.2208 -0.1087  0.0458
  501W        W 4565   7.059   5.187  10.916  0.0238  0.1084  0.1022
  502W        W 4566   6.441   8.488  10.549 -0.0269 -0.0126  0.2210
  503W        W 4567   7.488   0.415  11.059 -0.2055 -0.3099 -0.2188
  504W        W 4568   7.356   9.881   2.375 -0.0925  0.2139 -0.2527
  505W        W 4569   8.040  10.213   0.287  0.2796 -0.0155  0.1738
  506W        W 4570   0.824   1.025   0.772 -0.1434 -0.2814 -0.1628
  507W        W 4571  10.459   9.704   1.509 -0.3270 -0.1098  0.3470
  508W        W 4572   9.189   2.399   2.049  0.3099  0.1472  0.2301
  509W        W 4573   4.396   4.331   1.112 -0.1310  0.0431  0.3981
  510W        W 4574   4.288   2.183   9.993  0.1204 -0.0560 -0.4334
  511W        W 4575   0.704   2.655   1.655  0.1861 -0.3565 -0.1390
  512W        W 4576   7.055   0.491   7.587 -0.0474 -0.0534 -0.0556
  513W        W 4577   6.828   2.970   8.136 -0.0091  0.2322 -0.2268
  514W        W 4578   0.790   6.424   2.732 -0.0132  0.2191  0.0624
  515W        W 4579   0.089   0.769   0.765 -0.0708  0.1329 -0.0789
  516W        W 4580   6.867   8.628   8.846 -0.0285 -0.4798 -0.1724
  517W        W 4581   8.119   0.901   0.625  0.2813 -0.1593 -0.1787
  518W        W 4582   6.353   1.684   1.006  0.0889  0.0253 -0.3385
  519W        W 4583   7.085   4.859  10.550 -0.3080  0.2645  0.0150
  520W        W 4584   4.761   6.579   0.897 -0.3143  0.0956  0.3131
  521W        W 4585   1.609   4.774   2.617  0.2378 -0.1479 -0.1940
  522W        W 4586   3.883   2.775   3.447  0.0485 -0.1764 -0.1184
  523W        W 4587   2.290   6.343  10.167  0.0324 -0.1699 -0.0128
  524W        W 4588   1.697   5.467   2.630  0.1076 -0.1265 -0.2847
  525W        W 4589   8.806   0.745  10.389 -0.0757  0.3149  0.0594
  526W        W 4590  10.349   5.407  10.640  0.2272  0.0415  0.1079
  527W        W 4591   5.501   3.768   3.877  0.0403 -0.0966 -0.0340
  528W        W 4592   2.449   7.064   3.347 -0.2640  0.0915 -0.1373
  529W        W 4593   1.250   9.767   9.391  0.1651 -0.0262 -0.3904
  530W        W 4594   5.576   0.665   9.642  0.0818 -0.0224  0.4900
  531W        W 4595   5.290   1.893  10.637  0.1611 -0.1563 -0.0965
  532W        W 4596  10.000   1.250  10.928 -0.2958  0.0925  0.2181
  533W        W 4597   8.966  10.355   8.889 -0.0384  0.1625  0.1519
  534W        W 4598  10.155   6.284   8.652 -0.0896  0.0004 -0.0755
  535W        W 4599   7.362   4.150   2.024 -0.0132  0.2310  0.2896
  536W        W 4600   6.832   9.509   2.864 -0.1427  0.3889  0.1318
  537W        W 4601   7.706   5.649   0.330 -0.0148  0.2443 -0.1145
  538W        W 4602   2.735   1.694   3.426 -0.5644 -0.1678  0.0790
  539W        W 4603   7.254  10.639   9.059 -0.0206 -0.0673  0.1454
  540W        W 4604   4.860   7.767  11.492 -0.1342  0.0847 -0.4095
  541W        W 4605   7.345   8.030   9.427  0.2737  0.0481  0.0651
  542W        W 4606   1.849   6.133  11.141 -0.3123  0.0854 -0.1411
  543W        W 4607   9.383   1.666   3.526 -0.0630 -0.1015  0.2187
  544W        W 4608   2.424   7.594   8.874 -0.2248  0.1111  0.0119
  545W        W 4609   4.975   5.538  10.016 -0.0558 -0.1820 -0.0591
  546W        W 4610   0.241   9.552   9.753 -0.0366  0.3911 -0.2733
  547W        W 4611   5.936   0.311   2.293  0.0977  0.0250 -0.2428
  548W        W 4612   8.837   6.164   1.687  0.0958 -0.2853 -0.2406
  549W        W 4613   6.104   5.300   1.949 -0.0286 -0.3593  0.4142
  550W        W 4614   4.752   4.822   7.446 -0.2837 -0.2685  0.0488
  551W        W 4615   3.037   9.195   3.218 -0.0346  0.0471  0.4061
  552W        W 4616   2.584   4.476   1.952 -0.0197  0.2780  0.1752
  553W        W 4617   4.819   5.251   9.184 -0.0381  0.0064 -0.1934
  554W        W 4618   8.036   3.784  10.644 -0.0791 -0.3512 -0.1249
  555W        W 4619   3.957  10.538  11.584 -0.0449 -0.1314  0.0032
  556W        W 4620   9.568   6.585   2.210 -0.1022  0.0905 -0.2375
  557W        W 4621   2.653   6.198   7.999 -0.4844 -0.1162  0.1105
  558W        W 4622   6.491   5.512   1.649 -0.0839  0.0824 -0.0603
  559W        W 4623   6.168   9.950   9.689 -0.0725 -0.0663  0.1204
  560W        W 4624   9.658   2.995   8.321  0.0410  0.1127  0.3471
  561W        W 4625   1.394   6.403   1.711  0.1811  0.0579  0.3768
  562W        W 4626   0.937   0.988   1.456 -0.1594 -0.0649  0.0003
  563W        W 4627   9.254   5.955   9.709 -0.1297 -0.0800  0.1856
  564W        W 4628   7.564   5.164   0.273  0.1479 -0.0747 -0.0437
  565W        W 4629  10.244   6.318  10.472 -0.0780  0.0818 -0.0556
  566W        W 4630   5.449   8.001   1.426  0.1675 -0.0238 -0.0708
  567W        W 4631   2.010   7.823  11.524 -0.2710  0.3093 -0.2386
  568W        W 4632  10.455   0.046   1.252 -0.0639 -0.0470 -0.2087
  569W        W 4633   5.874   8.924   9.670  0.0658  0.0702 -0.2349
  570W        W 4634   0.077   6.196   9.656  0.2498  0.0487  0.3221
  571W        W 4635   9.612   1.274   3.368 -0.1598 -0.1042  0.0399
  572W        W 4636   3.593   5.311   8.698 -0.0536  0.1396 -0.0300
  573W        W 4637   4.187   6.613  11.405  0.0354 -0.2396 -0.0431
  574W        W 4638   8.361   1.415   0.534 -0.5620  0.0252 -0.1875
  575W        W 4639   7.644   8.053  10.362  0.1169 -0.1365 -0.0705
  576W        W 4640   4.754   7.369   3.062  0.3948 -0.0735  0.0334
  577W        W 4641   5.203   2.241   8.804 -0.0103  0.2936 -0.3036
  578W        W 4642   1.466   3.226  10.194 -0.0978  0.2242  0.0876
  579W        W 4643  10.611   8.869   1.624  0.0648  0.0618 -0.2858
  580W        W 4644   4.292   3.021  10.730  0.4161  0.1298  0.1908
  581W        W 4645   9.774   1.292  10.505 -0.2916  0.0775 -0.1332
  582W        W 4646   8.359   2.228   8.984  0.1035 -0.0839 -0.4242
  583W        W 4647   3.554   7.618  11.523  0.0149 -0.3274 -0.1734
  584W        W 4648   6.444   4.003   8.345  0.1721  0.1073  0.2022
  585W        W 4649   1.692   1.208   0.293 -0.0696 -0.1564  0.2510
  586W        W 4650   9.578   2.200   0.048  0.0877  0.1763  0.2186
  587W        W 4651   0.815   9.028   3.214  0.0732  0.3818 -0.0611
  588W        W 4652   4.449   0.191   7.531  0.0481  0.4010  0.0454
  589W        W 4653   6.885   6.826  11.253  0.3346  0.5497  0.0596
  590W        W 4654   7.856   3.540   2.548  0.1206 -0.0056 -0.0043
  591W        W 4655   2.166   5.898  10.318  0.0807 -0.0483  0.0487
  592W        W 4656   4.328   4.471  10.756 -0.2071 -0.0505  0.0829
  593W        W 4657  10.171   3.972   0.071 -0.1704  0.0403  0.1539
  594W        W 4658  10.034   3.294   0.234  0.1510  0.1822  0.1493
  595W        W 4659   9.455  10.064   8.040  0.2429  0.2202 -0.1166
  596W        W 4660   8.256   1.150  11.259  0.3424 -0.0009 -0.0159
  597W        W 4661   5.715   0.627   0.860  0.1542  0.1923 -0.3545
  598W        W 4662   7.229   8.579   9.176 -0.2162 -0.2183  0.0178
  599W        W 4663   2.412   9.800   9.137  0.0728  0.3447  0.1551
  600W        W 4664   6.728   5.933  10.817 -0.0575  0.1587  0.0869
  601W        W 4665   7.840   2.351  10.994 -0.1379  0.2474 -0.1568
  602W        W 4666   9.931   6.668  10.971  0.2178  0.1062 -0.2603
  603W        W 4667   9.252   3.794   1.348 -0.2286  0.2862 -0.0999
  604W        W 4668   5.512   1.923   7.956  0.3178  0.4422  0.1548
  605W        W 4669   8.884   9.890   2.984 -0.2667 -0.1657  0.0827
  606W        W 4670   6.306   1.419   9.484  0.0044 -0.1338  0.0088
  607W        W 4671   3.700   2.824   0.005 -0.2518 -0.0047  0.1767
  608W        W 4672   2.114   7.913   1.381 -0.1300  0.0549  0.1796
  609W        W 4673   0.567   4.676   9.585  0.1600 -0.0592  0.0200
  610W        W 4674   5.897   9.491   8.342 -0.1614 -0.3702  0.0873
  611W        W 4675   6.067   1.449   1.355 -0.0618  0.0222  0.1306
  612W        W 4676   1.987  10.450  11.463 -0.3542 -0.1177 -0.0708
  613W        W 4677   2.050   4.698  10.494 -0.1431 -0.4040  0.5410
  614W        W 4678   1.190   7.969   1.178  0.0731  0.0571  0.0120
  615W        W 4679   7.338   2.877   0.808 -0.3519  0.0218 -0.0246
  616W        W 4680   2.927   7.036   1.757 -0.2009 -0.2764 -0.2832
  617W        W 4681   8.871   1.452   9.847  0.2578 -0.2171 -0.0166
  618W        W 4682   8.866   9.501   2.121 -0.0192 -0.2697 -0.0402
  619W        W 4683   4.353   2.348   8.298 -0.2617  0.0839 -0.1090
  620W        W 4684   7.305   1.194   0.491 -0.1032 -0.0194  0.2016
  621W        W 4685   8.971   5.043   0.318 -0.1077  0.0711  0.2321
  622W        W 4686   7.329   8.923   2.606  0.0349  0.1641  0.0049
  623W        W 4687   7.093   9.986   8.629  0.0624  0.1936  0.3132
  624W        W 4688   2.251   8.583   1.792 -0.0410 -0.2292 -0.1856
  625W        W 4689   3.477   7.568   9.262  0.1451 -0.0370  0.2998
  626W        W 4690  10.231   0.965   0.770  0.0899 -0.2056 -0.3584
  627W        W 4691   1.371   5.645   3.088 -0.3274 -0.2367 -0.1314
  628W        W 4692   1.309   1.269   8.016 -0.2456  0.2967 -0.4303
  629W        W 4693   2.318   6.594  10.893 -0.0746 -0.0295 -0.0209
  630W        W 4694   9.585   7.712   1.205 -0.2270 -0.3113 -0.0931
  631W        W 4695   2.245   1.648   8.220 -0.1242  0.1539  0.0572
  632W        W 4696   6.466   6.972   3.017  0.2465 -0.2198 -0.1242
  633W        W 4697   3.885   5.536   0.868 -0.0542 -0.0237  0.1253
  634W        W 4698   5.186   7.329   3.231  0.2327 -0.0659 -0.0597
  635W        W 4699   7.626   7.958   4.358 -0.0518 -0.0677  0.1141
  636W        W 4700   4.762   9.308   1.655  0.1206 -0.2686  0.1716
  637W        W 4701   5.039   7.347  10.499 -0.2600  0.3395 -0.1095
  638W        W 4702  10.432   9.646   8.956  0.2290  0.1301  0.1355
  639W        W 4703   6.912  10.611   9.978  0.2621  0.1703 -0.1005
  640W        W 4704   7.840   3.929   3.486  0.0085  0.2546  0.1384
  641W        W 4705   2.431   4.086   2.734 -0.1013 -0.1112  0.2271
  642W        W 4706   2.624   8.844   1.434  0.1313 -0.4188 -0.2492
  643W        W 4707   3.587   0.715  11.144 -0.0388  0.0383  0.0423
  644W        W 4708  10.155   3.311   9.907 -0.1606 -0.0212  0.0940
  645W        W 4709   7.522   9.835   1.073 -0.2082 -0.2011  0.2025
  646W        W 4710   1.661   9.353   1.346 -0.1435  0.0351 -0.2633
  647W        W 4711   6.756   5.311   3.626 -0.2921  0.0990 -0.0588
  648W        W 4712   9.409   8.018   3.312 -0.0452  0.1543 -0.0960
  649W        W 4713   9.044   2.359   0.336  0.1433  0.1899  0.1581
  650W        W 4714   3.261   7.645   0.612 -0.2768 -0.0988  0.0146
  651W        W 4715   0.812   9.755  11.465  0.0575 -0.1903 -0.3204
  652W        W 4716   7.483   4.941  10.962 -0.1738 -0.0044 -0.1241
  653W        W 4717   5.877   9.822   2.615 -0.0225  0.0463  0.0826
  654W        W 4718   3.386   2.384   0.418  0.0385 -0.2235 -0.0014
  655W        W 4719   2.105   9.374   8.968 -0.1255 -0.1860  0.1049
  656W        W 4720   1.149   4.501   0.597  0.0902 -0.0195  0.0034
  657W        W 4721   3.024   9.137   7.856  0.0410 -0.2518 -0.0052
  658W        W 4722   1.788   2.262  11.068 -0.2313 -0.3522 -0.2282
  659W        W 4723   9.640   7.277   1.019 -0.0555  0.3165  0.2576
  660W        W 4724   8.580   0.846   1.784  0.4352 -0.0256  0.1021
  661W        W 4725   3.823   8.802   8.051  0.0507  0.1468 -0.2069
  662W        W 4726   0.006   5.803   2.987 -0.1036  0.1800 -0.1058
  663W        W 4727   2.842   7.898   8.702 -0.1419  0.1727  0.0412
  664W        W 4728   8.175   1.518   2.323  0.0006  0.1384  0.4586
  665W        W 4729   7.161   5.686   9.054  0.1237 -0.2060  0.1086
  666W        W 4730   7.460   5.051   4.261 -0.0012 -0.0211  0.0158
  667W        W 4731   0.792   4.585   2.092  0.0863 -0.0678 -0.3809
  668W        W 4732   2.643   8.790   0.026  0.0176 -0.0563  0.0528
  669W        W 4733  10.134   2.476   0.304 -0.1564  0.0279 -0.2815
  670W        W 4734   2.800   8.533   1.852  0.1239 -0.1049 -0.2273
  671W        W 4735   1.036   7.588   1.450 -0.1424  0.3881 -0.0299
  672W        W 4736   8.533   9.593  11.265 -0.0507  0.0286  0.4239
  673W        W 4737   3.910   0.018   0.865  0.1926  0.1389  0.3516
  674W        W 4738   3.133   8.597  10.683 -0.0131 -0.0054 -0.0252
  675W        W 4739   0.151   8.162   0.134 -0.1112  0.2307 -0.0810
  676W        W 4740   7.166   9.483   3.428  0.0699 -0.1207  0.1340
  677W        W 4741   5.789  10.648   7.645 -0.0518 -0.2048  0.0428
  678W        W 4742   0.540   3.162   1.146  0.4705  0.0815  0.1319
  679W        W 4743   8.955   1.359   3.686 -0.0174 -0.3643 -0.0695
  680W        W 4744   5.148   7.121   2.755 -0.0320 -0.3561 -0.2833
  681W        W 4745   3.709   0.254   2.393  0.0130  0.1915  0.0736
  682W        W 4746  10.043  10.572  11.354  0.0842  0.1871 -0.0026
  683W        W 4747   2.754   8.256   0.904  0.1764 -0.1547 -0.0141
  684W        W 4748   6.599   9.481   2.187 -0.0642 -0.0797  0.0652
  685W        W 4749   6.135  10.496   0.295 -0.2498 -0.0128 -0.3893
  686W        W 4750   3.640   0.734   1.295  0.0233  0.1868 -0.0328
  687W        W 4751   7.517   6.784  10.644 -0.1421 -0.0867 -0.3720
  688W        W 4752   7.537   2.535   1.188  0.1491  0.2200  0.0323
  689W        W 4753   1.659   2.365   9.387 -0.0445  0.1241  0.0682
  690W        W 4754   0.499   3.313  10.686 -0.2909  0.0237 -0.3023
  691W        W 4755   8.576   9.146   2.806 -0.3668 -0.0171 -0.0881
  692W        W 4756   2.015   2.984   2.092  0.0171  0.4165 -0.0196
  693W        W 4757  10.084   8.929   1.416 -0.0553 -0.2083  0.3319
  694W        W 4758   5.804   1.023   3.454 -0.2042 -0.0536 -0.1855
  695W        W 4759   3.340   2.625   9.623  0.0966 -0.2033 -0.1295
  696W        W 4760   1.592   7.850   1.510  0.1655 -0.1394  0.0045
  697W        W 4761   0.794   2.377   8.884  0.1273  0.0374 -0.2484
  698W        W 4762   5.520   1.826   9.177  0.0232 -0.0175 -0.4077
  699W        W 4763   7.686   1.233   0.788 -0.0245 -0.0584  0.0803
  700W        W 4764   6.795   5.726   8.399 -0.0222 -0.2585 -0.4160
  701W        W 4765   3.866   0.754   0.775  0.2174  0.0093  0.1105
  702W        W 4766   7.297   3.070   3.231 -0.1004  0.0700 -0.2360
  703W        W 4767   1.476   4.837  10.679  0.2165 -0.1257  0.1603
  704W        W 4768   0.825   2.254   2.330 -0.2151 -0.3555  0.0076
  705W        W 4769   0.429   7.117   9.127  0.1348 -0.1178  0.0016
  706W        W 4770   0.170   4.143  11.022 -0.0561 -0.0920 -0.0430
  707W        W 4771   7.033   4.243  11.470 -0.0596 -0.0574  0.0818
  708W        W 4772   0.903   2.079   4.158  0.2156  0.1121 -0.1730
  709W        W 4773   6.919   9.269   8.590  0.0147  0.2177  0.0683
  710W        W 4774   2.849   9.122   4.183 -0.3010  0.3287  0.0814
  711W        W 4775  10.367   4.227   2.143  0.1456  0.0711  0.2851
  712W        W 4776   6.582   3.938   0.733 -0.1946  0.1196  0.2683
  713W        W 4777   9.438   3.955   3.160 -0.3740  0.0553  0.0857
  714W        W 4778   7.059   8.959   1.284  0.0071  0.0788 -0.0855
  715W        W 4779   5.131   1.225   8.785  0.1173  0.0592 -0.0391
  716W        W 4780   8.404   4.454  11.058  0.0058 -0.1605  0.1022
  717W        W 4781   5.943   3.594   3.698  0.1660  0.0777 -0.0084
  718W        W 4782   5.661   6.928   0.661 -0.0424 -0.4196 -0.0315
  719W        W 4783   7.113   0.718  11.180 -0.0367 -0.0361 -0.4642
  720W        W 4784   9.257   7.744   9.281  0.2672  0.2943 -0.0182
  721W        W 4785   8.819   9.108   9.562  0.0820 -0.1424  0.1152
  722W        W 4786   9.837   8.346  11.498  0.2102  0.1861  0.2084
  723W        W 4787   7.796   7.314   1.382 -0.0643 -0.1219  0.0226
  724W        W 4788   9.383   6.240  10.095  0.0915 -0.0656  0.1936
  725W        W 4789   5.571   7.823   8.459  0.1947 -0.0248  0.3411
  726W        W 4790   8.988   9.152   7.962 -0.1057  0.0516  0.0863
  727W        W 4791   4.040   4.402   2.537 -0.2635  0.1174 -0.0418
  728W        W 4792   7.786   4.688   2.437  0.0784 -0.1238  0.2555
  729W        W 4793   4.200   6.494  10.387 -0.0534  0.0150 -0.0459
  730W        W 4794   9.548   4.883   1.884 -0.2225 -0.0902  0.0967
  731W        W 4795   7.574   2.675  10.103  0.3819 -0.1866 -0.1378
  732W        W 4796   0.737   0.703  10.081  0.2177  0.1603 -0.1686
  733W        W 4797   5.317  10.208   3.311  0.1907 -0.0243 -0.0075
  734W        W 4798   3.335   1.267   9.437  0.0737 -0.0261  0.0696
  735W        W 4799   5.105   5.607   0.593  0.0817  0.0781  0.3732
  736W        W 4800   6.400   7.845   9.200 -0.1413  0.1541  0.0238
  737W        W 4801   6.377   8.979   9.437 -0.1791  0.2364  0.1524
  738W        W 4802   1.359   9.804   8.910  0.1875 -0.0799  0.0434
  739W        W 4803   0.440   6.297  10.313 -0.1908 -0.0227  0.0951
  740W        W 4804   8.476   6.352   2.304  0.2549 -0.0686 -0.2499
  741W        W 4805   7.981   2.991   8.715  0.0977  0.0148  0.1064
  742W        W 4806   4.755   9.904   7.760 -0.2632 -0.1932  0.0181
  743W        W 4807   9.057   6.757   9.327 -0.2092  0.0770 -0.0361
  744W        W 4808   9.340   7.499  11.563  0.1360  0.0113  0.1386
  745W        W 4809   5.626   5.234  10.714 -0.1404  0.1220  0.0444
  746W        W 4810   3.693   9.947  10.739 -0.3014 -0.2030 -0.2724
  747W        W 4811   0.866   7.745   2.265 -0.0013  0.2572  0.3129
  748W        W 4812   7.624   0.544   1.385 -0.2603 -0.2464 -0.0065
  749W        W 4813   4.497   3.961   3.522  0.0813 -0.1306  0.0709
  750W        W 4814   3.326   6.841   2.114 -0.1323  0.5265 -0.0096
  751W        W 4815   5.776   9.265  11.241 -0.0524 -0.2504  0.2164
  752W        W 4816   1.732   6.634   2.980  0.1549  0.1899 -0.1098
  753W        W 4817   4.915   2.208   8.370  0.3625 -0.3766 -0.0243
  754W        W 4818   5.963   4.096   8.113 -0.0026 -0.2725 -0.1318
  755W        W 4819   1.788   5.250   1.759 -0.0798 -0.1628 -0.0682
  756W        W 4820   2.969   8.006   1.771 -0.0688 -0.4253  0.0050
  757W        W 4821   2.825   3.690   3.077 -0.0985  0.0832 -0.2274
  758W        W 4822   9.761   4.519   1.642  0.0504  0.0150  0.2891
  759W        W 4823   5.901   2.591   1.835  0.2627  0.2734  0.3685
  760W        W 4824   9.259   8.911   8.791  0.2297  0.4796 -0.3291
  761W        W 4825   7.848   5.709   0.856 -0.1523 -0.2130 -0.1338
  762W        W 4826  10.161   6.706   0.268 -0.0023 -0.2895 -0.2637
  763W        W 4827   9.150   7.100   1.048 -0.2208  0.0165  0.3121
  764W        W 4828   9.347   4.747   0.268  0.0467 -0.3189  0.1618
  765W        W 4829   7.776   4.852  11.356  0.0860  0.4257  0.2321
  766W        W 4830   6.422   5.583   0.414  0.0052  0.1774 -0.1799
  767W        W 4831   3.945  10.642  10.703  0.0145 -0.2822  0.0659
  768W        W 4832   5.192   3.689  10.466 -0.0280  0.0937  0.3189
  769W        W 4833   4.806   8.452   4.053 -0.1365  0.1780 -0.3646
  770W        W 4834   7.345   9.567   8.718  0.0786  0.1288  0.0266
  771W        W 4835   4.400   2.333   7.338  0.1427  0.2809  0.1459
  772W        W 4836   4.392   1.435  11.123  0.0456  0.0492  0.0883
  773W        W 4837   9.739   9.020   8.553  0.1308  0.2324 -0.1767
  774W        W 4838   0.435   1.468   2.197  0.1500  0.0150 -0.0342
  775W        W 4839   9.407   2.667   3.564 -0.2077  0.1302  0.2837
  776W        W 4840   7.622   4.435   3.415  0.0683 -0.0095  0.0642
  777W        W 4841   8.429   1.958   2.472 -0.3300  0.2435  0.0840
  778W        W 4842   8.610   7.607  10.735 -0.2112 -0.0691 -0.0188
  779W        W 4843   3.871   3.998   8.799  0.3362  0.1218  0.1975
  780W        W 4844   1.837   7.429  10.636 -0.2760 -0.0769  0.2789
  781W        W 4845   5.471   8.998   2.909 -0.1045 -0.1002 -0.0161
  782W        W 4846   9.156   9.026   0.886 -0.2725 -0.4967  0.1829
  783W        W 4847   3.362   8.328   1.149 -0.1240  0.2711 -0.1183
  784W        W 4848  10.519   9.212   0.145 -0.0139 -0.0422  0.0869
  785W        W 4849   6.209   3.882   1.496  0.4271 -0.1054  0.1773
  786W        W 4850   9.657   9.984   8.538  0.1640  0.0008  0.0814
  787W        W 4851   9.503   4.481   3.094 -0.0219  0.2450 -0.3908
  788W        W 4852   1.201   2.196   8.134 -0.0180 -0.1089  0.3711
  789W        W 4853   8.035   9.466  11.248  0.0330 -0.1392  0.1267
  790W        W 4854   9.756   1.815   2.649 -0.1491  0.2436 -0.4326
  791W        W 4855   4.068   4.905   8.748 -0.3056 -0.2179  0.3429
  792W        W 4856   4.959   5.257   3.252  0.1301 -0.0404 -0.0325
  793W        W 4857   2.636  10.129   3.518  0.2362 -0.0067  0.0210
  794W        W 4858   7.237   6.583   3.490  0.0983  0.0912 -0.1562
  795W        W 4859   1.505   3.253  10.748 -0.1060  0.0621 -0.0187
  796W        W 4860   4.927   9.397  10.088  0.2827  0.2009 -0.0500
  797W        W 4861   1.979   5.059   8.263  0.0357 -0.0252 -0.0793
  798W        W 4862   6.289   3.824  11.495 -0.0825  0.2831  0.1804
  799W        W 4863   8.825   4.501  10.154 -0.0637  0.0668  0.0165
  800W        W 4864   6.108   1.933   9.341 -0.1768 -0.0495 -0.0397
  801W        W 4865   4.668   2.717   8.345 -0.0598 -0.1615  0.3441
  802W        W 4866   8.601   3.433   7.619  0.1095 -0.1012  0.3065
  803W        W 4867   1.680   3.293   9.004  0.0619 -0.1947 -0.4349
  804W        W 4868   6.554   9.891   0.995  0.2465  0.1470  0.0564
  805W        W 4869   3.094   0.823   3.655  0.0936  0.1408  0.1413
  806W        W 4870   0.703   2.616   1.110  0.1289  0.0998  0.3410
  807W        W 4871   5.256   5.899   4.410  0.0103 -0.1137  0.0437
  808W        W 4872   0.718   6.642   9.539 -0.1484  0.0586  0.1660
  809W        W 4873   1.589   4.862   0.826  0.0986  0.2503 -0.0051
  810W        W 4874   6.663   8.060  11.585 -0.0614  0.1255 -0.0471
  811W        W 4875   3.572   8.036   9.511 -0.0573  0.2097 -0.2113
  812W        W 4876   1.014   3.898   9.146  0.2482  0.0830 -0.1070
  813W        W 4877   6.605   2.759   7.729  0.0067  0.0178 -0.2504
  814W        W 4878   9.515   1.324   1.150 -0.0933  0.2165  0.1332
  815W        W 4879   5.145  10.415   1.731  0.1392 -0.5034  0.0387
  816W        W 4880   6.915   2.132   9.142  0.3901 -0.0787  0.1637
  817W        W 4881   5.296   4.265   2.064 -0.1552  0.1399  0.2438
  818W        W 4882   0.164   2.448   4.068  0.1596 -0.1485 -0.0124
  819W        W 4883   7.913   5.387  10.349  0.2624  0.2146 -0.0259
  820W        W 4884   1.617   4.630   9.063  0.2292 -0.0920  0.1484
  821W        W 4885   3.267   1.193  11.346 -0.1815 -0.0541  0.2153
  822W        W 4886   0.993  10.207   8.060  0.1040  0.0214  0.2057
  823W        W 4887   3.256   3.763  10.444 -0.1293  0.0019  0.0892
  824W        W 4888   8.687   8.110   8.943 -0.0612  0.1546  0.0136
  825W        W 4889   0.074   0.457   1.196 -0.1996 -0.2178  0.1426
  826W        W 4890   4.277  10.166   4.052 -0.1317  0.1486  0.0258
  827W        W 4891   1.308   1.774   7.916  0.3871  0.2751  0.2848
  828W        W 4892   8.798   4.088   9.514 -0.0999  0.1369  0.2448
  829W        W 4893   6.193   6.592   8.679  0.3373  0.1458 -0.3874
  830W        W 4894   1.180   3.102   7.995  0.0731 -0.3348 -0.0048
  831W        W 4895   8.411   1.470   2.832  0.0932 -0.1059  0.3799
  832W        W 4896   6.306   7.475   8.876  0.1774  0.3551  0.1385
  833W        W 4897   2.377   3.179   2.856  0.0575  0.2638  0.3246
  834W        W 4898   0.947   8.969   9.394  0.1942  0.1992 -0.0209
  835W        W 4899   8.314   9.852   0.426 -0.1057  0.0756 -0.1504
  836W        W 4900   3.789   7.271  10.105 -0.2880 -0.0155 -0.0203
  837W        W 4901   1.694   7.597   9.590 -0.0956  0.2542  0.2205
  838W        W 4902   7.338  10.473   7.647  0.0408  0.1348 -0.2525
  839W        W 4903   6.015   5.575   3.935  0.1197 -0.1788 -0.0669
  840W        W 4904   9.018   4.766  11.012  0.2733 -0.0868 -0.0190
  841W        W 4905   6.343   9.452   0.869  0.0110  0.2086  0.1869
  842W        W 4906   4.290   3.860   1.434 -0.0074 -0.1033  0.0608
  843W        W 4907   8.643   6.852  11.325 -0.2842  0.1385  0.2971
  844W        W 4908   3.271   0.527   9.240 -0.0244 -0.1236 -0.0973
  845W        W 4909   1.468   2.165   1.439  0.1525 -0.2639  0.0613
  846W        W 4910   2.906   0.858   1.682  0.4104 -0.2534 -0.1503
  847W        W 4911   9.156   5.680  10.576 -0.2239  0.1688 -0.2403
  848W        W 4912   8.234   0.143  10.429 -0.1540  0.4444 -0.0806
  849W        W 4913   4.244   5.269   3.513  0.1831  0.0618 -0.2658
  850W        W 4914   9.168   2.290   9.737 -0.0869 -0.0939 -0.1441
  851W        W 4915   8.278   0.416   7.983  0.0855 -0.3348 -0.2905
  852W        W 4916   7.654   5.649   2.106  0.1492 -0.0938 -0.2482
  853W        W 4917   7.329   3.472   2.554  0.0040 -0.0080  0.0624
  854W        W 4918   1.582   9.587  10.421  0.3180 -0.1624  0.0337
  855W        W 4919   5.420   9.116   9.345 -0.0634  0.2606  0.0545
  856W        W 4920   0.663   1.360   8.961 -0.0720  0.0139  0.2478
  857W        W 4921   6.668   6.639   9.222 -0.0234  0.4332  0.1372
  858W        W 4922   8.422   8.959  10.556  0.2227 -0.3305  0.0694
  859W        W 4923   7.166   1.659   9.362 -0.0464  0.1388 -0.1385
  860W        W 4924   3.925   7.915   1.784 -0.2000  0.2455  0.0377
  861W        W 4925   7.232   2.674   8.317 -0.1591  0.0754  0.0793
  862W        W 4926  10.053   0.850  10.223 -0.3839  0.1437  0.1931
  863W        W 4927   0.500   0.249  10.355 -0.1609 -0.0487  0.3140
  864W        W 4928   5.006   6.853   3.239  0.1727 -0.1305  0.2725
  865W        W 4929   9.388  10.174   9.718  0.2924  0.6615 -0.2311
  866W        W 4930   7.674   3.457   8.136  0.1268  0.1004 -0.0924
  867W        W 4931   4.253   0.456  11.057  0.0359 -0.1478  0.0585
  868W        W 4932   5.338   5.538   8.584  0.0353  0.0352 -0.1028
  869W        W 4933   3.507  10.081   3.304  0.0655  0.3707 -0.0046
  870W        W 4934   9.216   4.759   9.118  0.3053 -0.2776  0.0003
  871W        W 4935   4.578   1.483   8.965  0.1427  0.0017  0.1670
  872W        W 4936   8.633   2.369   0.753 -0.2934  0.1664 -0.0781
  873W        W 4937   5.987   9.051   9.159 -0.0601 -0.3490  0.2501
  874W        W 4938   5.259  10.204   8.648 -0.1021  0.1388 -0.1059
  875W        W 4939  10.177   6.166   8.110  0.2218  0.2818 -0.3380
  876W        W 4940   1.308   5.840   2.510 -0.1467  0.1704  0.0696
  877W        W 4941   8.074   3.536   0.342  0.0810  0.2480 -0.1675
  878W        W 4942   7.491   2.039   9.310  0.0408 -0.2519  0.2665
  879W        W 4943   1.222   8.711   1.884  0.0113  0.0791 -0.0393
  880W        W 4944   2.933   0.093   1.751  0.1442 -0.0510  0.0066
  881W        W 4945   1.044   0.035   0.237  0.0814 -0.4388  0.1302
  882W        W 4946   6.306   0.090   2.132  0.1695  0.1299  0.2567
  883W        W 4947   3.683   1.638  10.540  0.2362 -0.3008 -0.4525
  884W        W 4948   2.914   2.432   0.158  0.1113  0.0550  0.0217
  885W        W 4949   2.328   4.575   8.221 -0.2053 -0.0075  0.0226
  886W        W 4950   4.361   7.495   3.869 -0.0105  0.0974  0.0284
  887W        W 4951   1.418   8.675   2.369  0.2979 -0.0915  0.1131
  888W        W 4952   4.603  10.233   9.173 -0.0530 -0.0550  0.0821
  889W        W 4953   7.335   1.154   8.232  0.1973  0.1342  0.1001
  890W        W 4954   3.994   1.833   8.918  0.0426 -0.2419  0.1929
  891W        W 4955  10.597   6.826   1.827 -0.1046 -0.1808 -0.0941
  892W        W 4956  10.269   3.363   1.188  0.4501 -0.0337 -0.1902
  893W        W 4957   6.940   0.687   9.348 -0.0192 -0.0839  0.0112
  894W        W 4958  10.631   7.078   2.218 -0.0302  0.4040 -0.0010
  895W        W 4959   4.265   4.242   2.121  0.0856  0.1239 -0.0701
  896W        W 4960   4.812   0.195   7.236 -0.0921  0.1477  0.1652
  897W        W 4961   6.433   8.989   0.674  0.0725 -0.0626 -0.1158
  898W        W 4962  10.120   2.125  11.043  0.2456 -0.3325 -0.4087
  899W        W 4963   0.098   6.217  10.672 -0.1010  0.0963 -0.1410
  900W        W 4964  10.631   8.763  11.478 -0.4499  0.1955  0.2690
  901W        W 4965   6.160   8.023   0.760  0.0819 -0.2663 -0.0620
  902W        W 4966   5.970   2.951  10.458 -0.1042  0.0298  0.0631
  903W        W 4967   5.492   1.574   8.747  0.0021  0.0674  0.0908
  904W        W 4968   7.026   9.999   1.055 -0.0125 -0.2508  0.1536
  905W        W 4969   9.870   4.885   8.355 -0.1551  0.1472  0.0878
  906W        W 4970   5.803  10.068   0.321  0.0425  0.1754  0.0390
  907W        W 4971   5.897   4.650  11.527 -0.1520 -0.1203 -0.3869
  908W        W 4972  10.128   9.375   3.293 -0.1460  0.2997 -0.3305
  909W        W 4973   0.646   8.190   3.182 -0.1026 -0.2155 -0.1785
  910W        W 4974   1.380   0.148   2.376 -0.0626  0.2585 -0.2110
  911W        W 4975   0.915   1.807   3.147 -0.0062  0.1242  0.1077
  912W        W 4976   9.693   8.626   1.485 -0.1268 -0.1228  0.1796
  913W        W 4977   9.505  10.621   8.695  0.2641  0.1169 -0.1010
  914W        W 4978   9.151  10.555   1.386  0.1874 -0.1333  0.0760
  915W        W 4979   8.530   9.543   3.122  0.0998  0.0479  0.0263
  916W        W 4980   4.264   5.251   2.177 -0.1864 -0.0108 -0.0128
  917W        W 4981   9.441   8.181   1.435  0.2931 -0.0165 -0.0289
  918W        W 4982   0.589   0.127   0.418  0.1164 -0.1394  0.0454
  919W        W 4983   4.144   4.124   8.363 -0.2211  0.0106  0.0920
  920W        W 4984   9.256   4.168   9.697 -0.0458 -0.1030  0.3517
  921W        W 4985   5.448   1.393   7.865  0.0021  0.2309  0.2654
  922W        W 4986  10.481   5.832   9.468 -0.0374  0.1783  0.1729
  923W        W 4987   6.757   1.299   9.469  0.0662 -0.0413  0.0712
  924W        W 4988   3.204   7.019   1.278  0.0678  0.1635 -0.0714
  925W        W 4989   1.176   5.547  11.215  0.2341 -0.3026  0.0248
  926W        W 4990   2.565   6.497   0.845  0.1172  0.3553  0.1461
  927W        W 4991   0.551   0.539   0.120  0.2144  0.1879 -0.2034
  928W        W 4992   9.557   9.021   3.063 -0.0668 -0.2347  0.1740
  929W        W 4993   9.842   8.707   0.937 -0.2470  0.0808  0.2853
  930W        W 4994   5.284   1.601   9.606 -0.2104 -0.1753 -0.0823
  931W        W 4995  10.155   8.048   9.590 -0.0005  0.3763  0.0678
  932W        W 4996   5.734   0.634   1.552  0.0170  0.2645  0.0977
  933W        W 4997   2.317   0.979   9.024  0.2064 -0.0881 -0.1555
  934W        W 4998   3.130   2.743   7.785 -0.1268 -0.1615 -0.0537
  935W        W 4999  10.248   4.993  11.050 -0.3028 -0.1869 -0.3540
  936W        W 5000   5.264   9.697   7.821 -0.1320  0.1116  0.1128
  937W        W 5001   4.050   0.734   0.285  0.1767  0.0741  0.0379
  938W        W 5002   5.507   7.270  10.716  0.0383  0.3889 -0.1608
  939W        W 5003   4.956   8.675   0.170 -0.1362  0.2561  0.2272
  940W        W 5004   2.457   5.528  11.172 -0.3036 -0.0289  0.2158
  941W        W 5005   9.986   2.431   9.839  0.0460 -0.0376  0.0545
  942W        W 5006   8.484   0.878   7.857  0.1805  0.1734  0.1804
  943W        W 5007   4.217   2.729   8.638 -0.0822 -0.0826  0.1121
  944W        W 5008   2.527   3.833   1.734 -0.1292 -0.0684  0.1044
  945W        W 5009   4.176   3.223   8.844 -0.1431 -0.0695 -0.1657
  946W        W 5010   5.947   0.762  11.416  0.1704 -0.1313 -0.0915
  947W        W 5011   8.068   5.679   2.436 -0.0184 -0.0895 -0.3534
  948W        W 5012   0.502   8.375   2.332 -0.1799 -0.4120 -0.1738
  949W        W 5013   2.720   4.620   0.821 -0.1351  0.0932 -0.1231
  950W        W 5014   9.432   2.730   3.105  0.2483  0.3216  0.1292
  951W        W 5015   0.447   1.161   2.577 -0.0565 -0.0683 -0.1125
  952W        W 5016   4.359   8.746   9.429  0.1322 -0.0358 -0.0228
  953W        W 5017   2.147   4.859   0.176 -0.2343 -0.0025  0.0678
  954W        W 5018   1.106   1.387   8.798 -0.2685 -0.2345  0.1458
  955W        W 5019   4.879   4.300   9.505 -0.0593 -0.2187 -0.0541
  956W        W 5020   8.390   0.332  11.514 -0.1580 -0.1478 -0.0783
  957W        W 5021   2.315   8.389   1.287 -0.2612 -0.3662 -0.1627
  958W        W 5022   9.625   2.127   9.772 -0.0014  0.2364 -0.1123
  959W        W 5023   2.006   3.106   9.841  0.0390  0.2722 -0.1941
  960W        W 5024   3.318   1.272   0.292 -0.1761 -0.2049  0.1283
  961W        W 5025   7.172   2.937   2.770 -0.2295 -0.1554  0.0261
  962W        W 5026   3.817   9.112  10.459 -0.1066 -0.0804  0.0452
  963W        W 5027   1.102   4.581   2.477 -0.1630  0.0806  0.0232
  964W        W 5028   3.015   5.175   9.433  0.5506  0.0809 -0.0886
  965W        W 5029   5.008   2.049   0.037 -0.0451 -0.1044 -0.1033
  966W        W 5030   4.882   3.804  10.896  0.3907 -0.0740 -0.1091
  967W        W 5031   5.967   1.018   2.085  0.1009  0.1570  0.2992
  968W        W 5032   6.770   2.215   2.171  0.0062  0.2241 -0.3280
  969W        W 5033   6.933   0.023  10.732  0.0173 -0.0788 -0.2883
  970W        W 5034   1.707  10.186   3.241 -0.0489 -0.0928  0.2325
  971W        W 5035  10.499   2.046   2.013  0.1421  0.0424  0.3351
  972W        W 5036   3.675   0.454   0.022  0.2691  0.1958 -0.2521
  973W        W 5037  10.606   6.906  11.527  0.3896  0.2191  0.4525
  974W        W 5038   4.269   4.856  10.364  0.1018  0.1785  0.3607
  975W        W 5039   7.722   1.109   2.272  0.4008 -0.0060 -0.0940
  976W        W 5040   2.042   5.957   0.309 -0.1006  0.0109  0.0281
  977W        W 5041   0.068   4.697  10.967  0.3222 -0.2170 -0.0193
  978W        W 5042   6.562   4.034   8.974  0.2395 -0.3527 -0.0788
  979W        W 5043   2.782   3.088   1.882 -0.1474 -0.0685 -0.0104
  980W        W 5044   6.241   6.444   2.833  0.0567 -0.1002  0.2629
  981W        W 5045   6.801   9.619   8.282 -0.0911  0.1450  0.2283
  982W        W 5046   3.175   5.043  10.713 -0.0937  0.0852  0.0835
  983W        W 5047   3.855   4.066  11.458  0.1878 -0.2016 -0.0309
  984W        W 5048  10.059   8.729   1.851 -0.2765  0.2747 -0.1487
  985W        W 5049   5.564   8.293   7.819  0.2494  0.3575 -0.0844
  986W        W 5050  10.249   4.188   9.055 -0.0770  0.1208 -0.2030
  987W        W 5051   3.327  10.226   9.490 -0.2488 -0.1302  0.0611
  988W        W 5052   5.848   7.433   2.395 -0.3192 -0.0371 -0.3420
  989W        W 5053   2.977  10.140   3.118  0.2448  0.1796  0.0122
  990W        W 5054   1.221   4.809   8.768 -0.4537 -0.0537  0.1123
  991W        W 5055   7.445   7.549   9.024  0.2082 -0.1321 -0.0803
  992W        W 5056   1.212   3.059   2.524 -0.1673  0.2322  0.1733
  993W        W 5057  10.627   8.476   2.463 -0.0621  0.1445  0.1182
  994W        W 5058   6.711   4.838   9.363  0.1491  0.0873  0.1058
  995W        W 5059   8.057  10.222  11.267 -0.3052 -0.1648  0.1862
  996W        W 5060   1.930   1.457   9.071  0.2776 -0.1685  0.3015
  997W        W 5061   4.066   4.700   1.139 -0.0417  0.0316  0.0499
  998W        W 5062   0.939   8.962   7.756  0.0882 -0.1372 -0.0515
  999W        W 5063   0.285   9.202   3.546 -0.0919 -0.1114  0.1579
 1000W        W 5064   4.993   3.124   9.226 -0.2429 -0.0652 -0.0814
 1001W        W 5065   7.534   7.028   0.481  0.2387  0.1224  0.2410
 1002W        W 5066   7.296   6.954  11.069  0.0259  0.2153  0.0812
 1003W        W 5067   5.470   9.052   8.845  0.1909 -0.4309 -0.1463
 1004W        W 5068   0.527   5.701   1.923  0.0593  0.0347 -0.3492
 1005W        W 5069   5.568   5.839   1.399  0.0747  0.2386  0.2152
 1006W        W 5070   9.463   1.022   1.573 -0.0597 -0.0692 -0.1565
 1007W        W 5071   4.875   9.152   2.872 -0.0007 -0.1021 -0.0836
 1008W        W 5072   0.431   9.231   9.386 -0.2432  0.1814 -0.1430
 1009W        W 5073   1.397   1.643   3.056 -0.1712 -0.0417 -0.0926
 1010W        W 5074   0.636   2.562   0.013  0.0791 -0.0738  0.0075
 1011W        W 5075   2.850   0.767  10.553  0.0923 -0.1892 -0.1152
 1012W        W 5076   6.771   4.375   8.618 -0.1328 -0.3547 -0.2302
 1013W        W 5077   3.576   3.857   9.127  0.1291  0.0211  0.1469
 1014W        W 5078   3.719   3.147   1.466  0.2331 -0.0407 -0.1585
 1015W        W 5079   6.907   3.888   3.268 -0.0234  0.0964  0.0169
 1016W        W 5080   2.387   9.011   9.115 -0.1377  0.0413 -0.2788
 1017W        W 5081   4.663  10.277   1.813 -0.3623  0.0805 -0.1793
 1018W        W 5082   0.726   7.986   8.463  0.1360  0.0689 -0.0924
 1019W        W 5083  10.099   9.490   0.256 -0.0435  0.0469  0.1336
 1020W        W 5084   4.814   0.537   7.672  0.1359  0.1094  0.0095
 1021W        W 5085   5.664   4.252   9.400 -0.3004  0.3736 -0.0782
 1022W        W 5086  10.363   6.368   9.242 -0.1005 -0.0900  0.0836
 1023W        W 5087   3.459   1.008   1.704 -0.1420  0.1126  0.0748
 1024W        W 5088   4.576   7.204   2.110 -0.0741  0.0976 -0.3037
 1025W        W 5089  10.062   9.976   1.734 -0.0697  0.1376  0.3155
 1026W        W 5090   7.185   9.573   0.680  0.0509  0.0387  0.1150
 1027W        W 5091   8.397   4.602   1.834  0.2510 -0.1358 -0.1149
 1028W        W 5092   8.829   1.696  11.247  0.0042  0.1877 -0.1939
 1029W        W 5093  10.563   6.565   7.772 -0.2769 -0.1093  0.1743
 1030W        W 5094   9.469   4.611   2.607 -0.2459  0.0003 -0.1930
 1031W        W 5095   9.615   9.496   8.522  0.1499 -0.0675 -0.1235
 1032W        W 5096  10.305   2.972  10.285 -0.0357  0.1479  0.0065
 1033W        W 5097   1.780   5.521   0.951 -0.2764 -0.0660 -0.1829
 1034W        W 5098   4.392   0.821   0.740  0.1086 -0.1475 -0.1071
 1035W        W 5099   2.135   8.081  11.079 -0.0862  0.1721  0.0091
 1036W        W 5100   5.318   8.578   9.075  0.0218 -0.2181 -0.2560
 1037W        W 5101   5.198   8.328   1.740  0.0029 -0.0506 -0.1458
 1038W        W 5102   7.174   0.563  10.098 -0.2094 -0.1324 -0.1867
 1039W        W 5103   9.517   9.681   1.623  0.2851 -0.3939 -0.1602
 1040W        W 5104   4.574   0.485   1.044 -0.0309  0.2373  0.1197
 1041W        W 5105   9.566   0.118   1.711  0.0359  0.0882 -0.3650
 1042W        W 5106   3.164   1.848   1.251 -0.0249  0.1355  0.0031
 1043W        W 5107   8.697   8.028  10.419 -0.0736 -0.1297 -0.0317
 1044W        W 5108   9.897   2.174  10.228 -0.1150  0.1735  0.3016
 1045W        W 5109   1.384   7.556   2.318 -0.1671 -0.2399 -0.0376
 1046W        W 5110   5.472   3.030   9.576 -0.0594  0.0835  0.1837
 1047W        W 5111   6.944   8.185   8.629 -0.1122  0.0510  0.4229
 1048W        W 5112   9.701   8.090   9.293 -0.2218  0.0045 -0.1352
 1049W        W 5113   9.139   8.983   3.767  0.0737 -0.1143 -0.3333
 1050W        W 5114   3.449   7.170  10.526 -0.1735 -0.4634 -0.0226
 1051W        W 5115   9.433   5.250   0.349 -0.2830  0.3377  0.1937
 1052W        W 5116   7.118   7.080   3.724 -0.1885 -0.1754 -0.0528
 1053W        W 5117   3.152   3.684   9.275  0.1499  0.2051  0.1439
 1054W        W 5118   0.026   1.247   4.602 -0.0696 -0.1052 -0.1335
 1055W        W 5119   1.229   0.165  10.818  0.0093 -0.0017  0.0017
 1056W        W 5120   2.754   0.533   9.599  0.0878 -0.1580 -0.4783
 1057W        W 5121   3.457   1.385   8.948  0.0163 -0.2264  0.2665
 1058W        W 5122  10.399   5.504  11.236 -0.2204 -0.2477  0.0612
 1059W        W 5123   1.698   8.796   9.749 -0.2440  0.2828  0.1983
 1060W        W 5124   6.969   2.124   7.867 -0.0946 -0.2075 -0.0191
 1061W        W 5125   6.298   1.005   1.624 -0.3226  0.0885  0.3067
 1062W        W 5126   7.228   7.267  10.703 -0.0390 -0.0721  0.1005
 1063W        W 5127   9.582   3.756   1.762  0.1244  0.1332 -0.0689
 1064W        W 5128   4.912   7.147   8.688 -0.3155  0.1769 -0.0682
 1065W        W 5129   8.122   2.339   0.739 -0.1141 -0.1008  0.1865
 1066W        W 5130   5.794   3.616   1.568  0.2429  0.2658  0.2258
 1067W        W 5131   9.474   1.844  10.305  0.0748  0.1477 -0.1962
 1068W        W 5132   6.440   8.610  11.558 -0.3753  0.1990 -0.1056
 1069W        W 5133   2.209   9.223   0.084 -0.1877  0.2718  0.2159
 1070W        W 5134   1.568   7.007   3.212 -0.1000  0.2063  0.3454
 1071W        W 5135   9.530   5.798   2.255 -0.0139 -0.3188 -0.1474
 1072W        W 5136   5.311   9.408   0.982  0.1747  0.1611 -0.2453
 1073W        W 5137   9.379   5.610  11.505 -0.0884  0.0307 -0.1532
 1074W        W 5138   0.022   3.614   8.104  0.1519 -0.0683 -0.2621
 1075W        W 5139   9.374  10.533   9.347 -0.0074  0.0081  0.0037
 1076W        W 5140   7.100  10.287  10.304 -0.0281  0.0663 -0.0012
 1077W        W 5141   2.249   5.953   7.746 -0.0050 -0.1165  0.1561
 1078W        W 5142   2.870   2.698   9.466  0.1283  0.1187 -0.0999
 1079W        W 5143   9.322   0.345   2.072  0.0722  0.4832 -0.1079
 1080W        W 5144   2.410   4.967   9.169 -0.1262 -0.0850  0.0830
 1081W        W 5145   9.878   1.742  10.736  0.1764  0.0606  0.2501
 1082W        W 5146   9.559   4.849   8.748 -0.1543 -0.2470  0.4446
 1083W        W 5147   9.186   1.512   2.510 -0.1026  0.1703  0.0187
 1084W        W 5148   6.775   0.833  10.271  0.3154  0.1305  0.2250
 1085W        W 5149   3.989   6.587   3.851  0.0691 -0.4411  0.0521
 1086W        W 5150   7.529   9.178   7.800 -0.3267  0.3826  0.2748
 1087W        W 5151   5.505   6.414   9.618 -0.5184  0.3166 -0.2147
 1088W        W 5152   2.460   6.936  11.235 -0.0311  0.2216 -0.0422
 1089W        W 5153   5.978   7.071   1.058  0.1098 -0.2464 -0.0747
 1090W        W 5154   9.083   9.776   2.495 -0.0889 -0.1335 -0.0424
 1091W        W 5155   9.141  10.526   1.881 -0.4030  0.0913  0.1117
 1092W        W 5156   5.080   1.901   9.956 -0.1057  0.3021  0.2953
 1093W        W 5157   2.217   6.920   0.129  0.4601  0.3776  0.3599
 1094W        W 5158   3.260   8.034   9.968 -0.0022 -0.0477 -0.0844
 1095W        W 5159   4.517   4.983   3.214 -0.1922  0.0493 -0.4051
 1096W        W 5160   8.988   0.319   1.700 -0.1336 -0.2636  0.0295
 1097W        W 5161   5.688   5.641   9.902  0.1435 -0.0675  0.0981
 1098W        W 5162   7.601   0.782  10.290 -0.0302 -0.0179  0.0216
 1099W        W 5163  10.502   6.852   9.163  0.1871 -0.0359 -0.4599
 1100W        W 5164   9.544   0.391   3.282  0.1727 -0.1596 -0.0975
 1101W        W 5165   0.694   1.359   1.264  0.0558  0.0395  0.3276
 1102W        W 5166   7.594   2.726   9.576  0.0221  0.1579  0.0514
 1103W        W 5167   0.925   3.465   0.904  0.0590 -0.0089 -0.3517
 1104W        W 5168   8.903  10.286   9.756  0.1709 -0.1790  0.1277
 1105W        W 5169   5.595   1.448   1.145 -0.1938  0.0261 -0.2217
 1106W        W 5170   1.380   8.348   1.560  0.2552 -0.2189 -0.0743
 1107W        W 5171   3.002   7.485   1.531 -0.5059 -0.2664 -0.0122
 1108W        W 5172   7.859   2.751   0.871 -0.2814 -0.0498  0.0128
 1109W        W 5173   3.022   2.375   2.039 -0.0913  0.0777 -0.2143
 1110W        W 5174   0.841   6.722  11.122 -0.1653  0.3591 -0.2458
 1111W        W 5175   2.863   8.169   2.263  0.1405 -0.0017 -0.1149
 1112W        W 5176   0.611   1.977   0.786 -0.1558  0.2311  0.1709
 1113W        W 5177   3.868   9.493  10.821 -0.0085 -0.0252 -0.1395
 1114W        W 5178   4.666   5.302   1.356 -0.1389 -0.0197  0.0388
 1115W        W 5179   3.614   5.465   2.229  0.0148  0.1006  0.0358
 1116W        W 5180   8.810   0.623   0.874  0.0354 -0.1156  0.0662
 1117W        W 5181   7.226   9.957   9.202  0.1540 -0.1257 -0.0615
 1118W        W 5182   1.689   2.955   2.624 -0.1209  0.0501 -0.0002
 1119W        W 5183   0.994   8.766   8.485  0.0899  0.2108  0.1421
 1120W        W 5184   3.011  10.468  10.569 -0.0843  0.0635  0.1737
 1121W        W 5185   2.538   4.612   0.296 -0.0695 -0.2276  0.4203
 1122W        W 5186   3.822   3.776  10.447 -0.1386  0.0243 -0.2653
 1123W        W 5187   7.355   7.085   1.401  0.2459 -0.2468 -0.1383
 1124W        W 5188  10.293   2.799   9.696 -0.0865 -0.1809  0.1343
 1125W        W 5189   6.565  10.480   9.542 -0.3058  0.0689 -0.0311
 1126W        W 5190   9.378   1.592   1.589 -0.0769 -0.2955 -0.2790
 1127W        W 5191   4.101   5.309  10.044 -0.0129 -0.1606 -0.1207
 1128W        W 5192   8.566   5.006   2.748 -0.2057 -0.5593 -0.0247
 1129W        W 5193   5.863   3.311   8.069 -0.0843  0.3653  0.1954
 1130W        W 5194   5.572  10.297  10.693  0.1975 -0.0564  0.3570
 1131W        W 5195   8.758   8.570  10.352 -0.0126  0.0213 -0.1115
 1132W        W 5196   6.561   8.923  10.899 -0.0512 -0.0730 -0.1918
 1133W        W 5197   6.101   5.482   8.138  0.0679  0.1625  0.3973
 1134W        W 5198  10.086   0.616   4.260  0.1905  0.0139  0.0556
 1135W        W 5199   0.348   5.695   9.644 -0.0494 -0.0052  0.1376
 1136W        W 5200   6.465   8.784   8.536  0.0686  0.1616  0.1624
 1137W        W 5201   3.419   2.553   2.246 -0.2399  0.1665  0.3371
 1138W        W 5202   0.471   7.161  10.852 -0.1989  0.2498  0.0810
 1139W        W 5203   2.586   9.634  10.385 -0.0609  0.1197  0.2609
 1140W        W 5204   9.875   5.794  11.518 -0.0922  0.1891  0.1563
 1141W        W 5205   5.118   6.215  10.738  0.1122  0.0856 -0.3118
 1142W        W 5206   6.003   1.041   1.137 -0.1387 -0.0287  0.4474
 1143W        W 5207   5.409   0.403   1.164 -0.1698 -0.2141  0.2292
 1144W        W 5208   3.632   7.201   3.753  0.2113 -0.0494  0.0724
 1145W        W 5209   5.902   5.886  10.266 -0.3452 -0.0544  0.2057
 1146W        W 5210   4.749  10.076   2.291  0.0827  0.1470  0.2576
 1147W        W 5211   9.474   3.580   8.083  0.0342 -0.1738  0.1058
 1148W        W 5212   4.960   8.899   8.799  0.0002 -0.1638  0.2085
 1149W        W 5213   3.828   5.173   1.909  0.0503 -0.3842 -0.0865
 1150W        W 5214   7.477   2.216  10.701 -0.1142 -0.0906  0.0449
 1151W        W 5215   3.052   4.365   2.342  0.2030  0.2426 -0.0158
 1152W        W 5216   6.250   4.100   7.547 -0.5154  0.0649 -0.1243
 1153W        W 5217   0.243   3.869   2.808  0.0226  0.0998  0.2467
 1154W        W 5218   2.388   7.043   8.974  0.0691  0.0682  0.0751
 1155W        W 5219   5.826   0.122   9.678  0.1661 -0.1030  0.0730
 1156W        W 5220   5.600   9.875   0.731  0.2558 -0.0182  0.0923
 1157W        W 5221   3.088   4.592  10.921 -0.0478  0.3972  0.0344
 1158W        W 5222   3.099   5.341   7.953 -0.2340 -0.1715 -0.1235
 1159W        W 5223   2.094   6.328   3.207  0.1620 -0.0731 -0.3222
 1160W        W 5224   6.433   6.839  10.968  0.0952 -0.1408 -0.0605
 1161W        W 5225   4.172   4.912   9.675  0.0890  0.1474 -0.4423
 1162W        W 5226   6.540   8.654   3.113 -0.0365  0.0586 -0.2284
 1163W        W 5227   2.881   4.069   8.950  0.1639  0.0499  0.0056
 1164W        W 5228   6.274   5.018   1.575 -0.3700  0.0210  0.1696
 1165W        W 5229   9.988   9.068   0.501  0.0301 -0.0010 -0.4789
 1166W        W 5230   6.374   6.175  10.410  0.1635 -0.1280 -0.1148
 1167W        W 5231   7.439   4.879   8.001 -0.4525  0.1591  0.1250
 1168W        W 5232   6.343   9.750   1.897  0.0073  0.4144 -0.1853
 1169W        W 5233   8.346   3.602   0.829 -0.5922  0.1400 -0.5103
 1170W        W 5234   7.031   7.713   0.742 -0.1009 -0.2952  0.0934
 1171W        W 5235   8.072   7.917   2.182  0.2149  0.1464 -0.0050
 1172W        W 5236   4.743   4.798  10.527  0.0316 -0.1654  0.0399
 1173W        W 5237   5.302   0.429   7.902 -0.2351 -0.2565 -0.2341
 1174W        W 5238   9.165   5.725   1.752 -0.0145 -0.1472 -0.2374
 1175W        W 5239   5.551   2.640  11.317  0.1204  0.0198  0.4553
 1176W        W 5240   1.806   9.099  11.129 -0.2843 -0.0015 -0.1670
 1177W        W 5241   3.138   3.419   0.550  0.1949  0.3416  0.3246
 1178W        W 5242  10.333   8.299   0.268  0.0291 -0.0598  0.0017
 1179W        W 5243  10.237   1.432   2.113 -0.1282 -0.0670  0.1504
 1180W        W 5244   5.536   2.848   2.320  0.1643 -0.0323  0.1395
 1181W        W 5245   2.825   5.716   8.909  0.1587 -0.0422 -0.1691
 1182W        W 5246   3.233   9.623   1.461  0.0290 -0.0730 -0.2016
 1183W        W 5247   6.842   1.948   9.674  0.0625  0.3043 -0.0752
 1184W        W 5248   1.703   1.753   0.362  0.1763  0.0963 -0.1471
 1185W        W 5249   3.290   8.483   2.167  0.0636  0.3016 -0.4734
 1186W        W 5250   3.325   4.143   8.110  0.0475  0.1174 -0.0964
 1187W        W 5251   6.357   0.590   0.217  0.0396  0.0170  0.0263
 1188W        W 5252   0.118  10.377   2.315 -0.0420 -0.1168 -0.1246
 1189W        W 5253   9.230   9.171  10.037  0.2094 -0.2732 -0.0003
 1190W        W 5254   6.770   6.228   8.260 -0.1277  0.1375 -0.1194
 1191W        W 5255   5.641   5.576   1.854  0.0395  0.0108 -0.1304
 1192W        W 5256   7.087  10.079   9.800  0.2595  0.3985  0.1648
 1193W        W 5257   4.622   1.288   2.458  0.2250  0.2193  0.0224
 1194W        W 5258   3.656   8.684  11.540  0.1171  0.4113 -0.0063
 1195W        W 5259   4.659   6.554   9.390  0.2528  0.2198  0.0964
 1196W        W 5260   4.792  10.398   0.674  0.2078 -0.0238  0.2487
 1197W        W 5261   6.723   7.287  10.944 -0.0505  0.0020 -0.1741
 1198W        W 5262   9.506   5.376   1.608 -0.0890 -0.0950  0.0821
 1199W        W 5263   3.731   2.315   3.427 -0.0011 -0.0560 -0.1666
 1200W        W 5264   2.621   2.647  10.809 -0.0639  0.0969  0.1704
 1201W        W 5265   9.379   8.976   2.163 -0.3558 -0.2953 -0.0210
 1202W        W 5266   0.800   1.852   8.106 -0.0919  0.1668  0.0639
 1203W        W 5267   9.708   1.811  11.282  0.0088 -0.1601  0.1209
 1204W        W 5268   4.159   4.430   0.179  0.2817  0.2749  0.0303
 1205W        W 5269   6.805   1.275   7.824  0.0784 -0.0272 -0.0913
 1206W        W 5270   5.568   6.918   9.369 -0.0353  0.0671  0.0592
 1207W        W 5271   4.409   6.739   1.978 -0.0425 -0.0820  0.2315
 1208W        W 5272   7.537   9.829   9.929 -0.2049  0.1277 -0.0366
 1209W        W 5273   8.018   6.352   1.490  0.3201 -0.0343 -0.1513
 1210W        W 5274   1.685   4.495  10.256  0.1577 -0.0634  0.2049
 1211W        W 5275   6.498   8.283   8.850  0.2892  0.1055 -0.2416
 1212W        W 5276   9.144  10.249   8.381 -0.1617  0.1487 -0.3060
 1213W        W 5277   6.248   1.059  10.134 -0.0562 -0.3426 -0.1755
 1214W        W 5278   7.166  10.476   2.578 -0.0118  0.1160  0.1347
 1215W        W 5279   4.522   2.795   4.359 -0.1040  0.0584 -0.0228
 1216W        W 5280   5.871   8.159   2.402 -0.2545 -0.1506  0.1492
 1217W        W 5281   4.635   9.077  10.949 -0.0822 -0.1096 -0.1899
 1218W        W 5282   7.178   9.232  11.099  0.0987  0.3482  0.1915
 1219W        W 5283  10.121   3.486  11.072  0.4008  0.1339 -0.1796
 1220W        W 5284   3.697   6.595   2.948  0.0960 -0.1990  0.1458
 1221W        W 5285   2.144   6.840   2.425 -0.2849 -0.3418  0.1189
 1222W        W 5286   8.078   5.038   8.258  0.1070 -0.0231  0.2037
 1223W        W 5287   3.277   2.161  11.517  0.0343 -0.1714 -0.1482
 1224W        W 5288   1.369   6.619   8.432  0.2949 -0.0455  0.0613
 1225W        W 5289   0.224   4.875   9.275 -0.3627  0.2424 -0.2855
 1226W        W 5290   0.879   4.131   1.932  0.1200 -0.2235 -0.0313
 1227W        W 5291   7.057   6.736   1.625 -0.0705  0.0021 -0.3847
 1228W        W 5292   0.028   6.688  10.468  0.0353  0.1447  0.2769
 1229W        W 5293   7.354   2.056   9.819  0.3286  0.1202  0.2416
 1230W        W 5294   7.882   0.390   2.864 -0.1548 -0.3643  0.2296
 1231W        W 5295   3.219   5.611   2.506  0.2286 -0.1393 -0.2499
 1232W        W 5296   8.054   0.484  10.170 -0.0062 -0.1048 -0.0628
 1233W        W 5297   9.225   7.224   7.703  0.0271  0.0948 -0.2354
 1234W        W 5298   8.153   8.914   3.621  0.1384 -0.3441 -0.0599
 1235W        W 5299  10.270   2.306   7.463  0.2908 -0.2752  0.0108
 1236W        W 5300   5.623   5.352   1.291  0.0918 -0.1262  0.2015
 1237W        W 5301  10.016   1.530   9.060 -0.2874 -0.5904  0.0414
 1238W        W 5302   9.932   9.402   1.469 -0.1071  0.0153 -0.3533
 1239W        W 5303   4.492   6.568   1.300  0.1416 -0.1677 -0.0496
 1240W        W 5304   8.460   1.028  10.734  0.1084  0.0201 -0.0163
 1241W        W 5305   9.061   3.834   8.376 -0.0401  0.1712 -0.0128
 1242W        W 5306   2.191   2.883   8.235 -0.1566 -0.1617  0.0720
 1243W        W 5307   9.138   3.643   0.770 -0.0006  0.1758 -0.2354
 1244W        W 5308   4.105   1.194   2.976  0.2609  0.0944  0.0498
 1245W        W 5309   2.197   7.016   3.753 -0.0674 -0.2192  0.0779
 1246W        W 5310   9.945   8.335   3.858 -0.1185  0.2286 -0.0479
 1247W        W 5311   2.758   5.195   0.990  0.3992 -0.1265 -0.0572
 1248W        W 5312   6.629   7.184   3.448  0.3488 -0.1026  0.0831
 1249W        W 5313   8.013   1.755   0.779  0.0760 -0.1843 -0.2248
 1250W        W 5314   5.139   9.003   3.314 -0.2522 -0.3646 -0.1070
 1251W        W 5315   6.688   2.881   6.903  0.2007 -0.0782 -0.0035
 1252W        W 5316   0.231   2.139  10.505  0.3041  0.0876 -0.0577
 1253W        W 5317   1.840   7.884  10.382 -0.2508 -0.1294  0.0466
 1254W        W 5318   2.321   1.095   1.652 -0.0143  0.0974 -0.4494
 1255W        W 5319   7.139   0.688   1.450  0.2663  0.0125 -0.1985
 1256W        W 5320   7.654   3.975   1.592 -0.0604  0.0946  0.3179
 1257W        W 5321   8.139   7.401  10.625 -0.0715  0.3334  0.4897
 1258W        W 5322   5.479  10.167   2.123 -0.0828  0.3151  0.4327
 1259W        W 5323   3.517   5.725   4.052 -0.1252  0.1312 -0.4534
 1260W        W 5324   3.681   0.560  10.348 -0.0914 -0.0425 -0.1248
 1261W        W 5325   6.416  10.324   1.817  0.1369  0.2543  0.1312
 1262W        W 5326   4.786   0.619   1.840  0.1424  0.2170 -0.1296
 1263W        W 5327   0.629   2.683   9.762 -0.1700  0.2132  0.0842
 1264W        W 5328   3.020   9.229   1.258 -0.0129 -0.1576  0.1654
 1265W        W 5329   6.348   1.146   0.071 -0.1331 -0.1995  0.1198
 1266W        W 5330   2.319   4.960   7.882  0.1064 -0.0471  0.1923
 1267W        W 5331   1.788   8.661   1.998  0.1467 -0.0032  0.1497
 1268W        W 5332  10.500   3.831   9.404 -0.0592  0.0427  0.2790
 1269W        W 5333   1.547   0.635   2.238 -0.1603  0.0856 -0.1519
 1270W        W 5334   5.721   6.436   3.208  0.0080 -0.1705  0.1313
 1271W        W 5335   1.017   9.968   7.471  0.2973  0.1173  0.1777
 1272W        W 5336   4.480   1.582   1.006  0.0432  0.3600  0.1261
 1273W        W 5337   0.735   9.802   7.829 -0.2952 -0.0878 -0.0760
 1274W        W 5338   0.046   4.216  10.040 -0.0633  0.0867 -0.1687
 1275W        W 5339   5.863   6.398   9.207  0.2396 -0.1122 -0.0971
 1276W        W 5340   1.027   5.435   2.759  0.0201 -0.3180 -0.1205
 1277W        W 5341   3.117   9.863   9.866  0.0509 -0.0713 -0.1715
 1278W        W 5342   4.223   7.380  10.842 -0.0613  0.0426  0.1472
 1279W        W 5343   1.035   4.383   9.094 -0.1474 -0.0571  0.0919
 1280W        W 5344   4.098   8.131   2.196 -0.3212 -0.1225  0.2777
 1281W        W 5345   7.361   8.031  10.824  0.2573 -0.0885 -0.2413
 1282W        W 5346   7.984   8.773  10.790 -0.0197  0.2271 -0.1556
 1283W        W 5347   4.669   9.306   8.618 -0.1138 -0.1455 -0.2707
 1284W        W 5348   8.055  10.601   0.896 -0.2015  0.0316  0.1039
 1285W        W 5349   7.462  10.392   4.092 -0.1817  0.0540 -0.1441
 1286W        W 5350   3.681   2.150   1.285  0.3059  0.2478  0.1536
 1287W        W 5351   0.585   6.099   7.831  0.1498 -0.2150 -0.3187
 1288W        W 5352   7.542  10.142   0.094 -0.0368  0.2181  0.2996
 1289W        W 5353   5.100   4.070   9.955  0.1698 -0.0255 -0.1462
 1290W        W 5354   6.316   7.697  11.533 -0.0703  0.0996 -0.0207
 1291W        W 5355   8.449   6.499   1.772 -0.2428  0.2971  0.0299
 1292W        W 5356  10.532   6.658   0.808  0.1246  0.1013  0.0331
 1293W        W 5357   6.551   0.894   9.772 -0.0662  0.0974  0.2191
 1294W        W 5358   3.853   2.138  10.530  0.0422  0.0882  0.1257
 1295W        W 5359   2.074   5.549   2.008  0.1757 -0.1761 -0.1322
 1296W        W 5360   3.464   4.338   9.806 -0.1624 -0.5382 -0.1373
 1297W        W 5361   1.983   3.599   9.999  0.0658  0.0972 -0.2451
 1298W        W 5362   3.766   7.392   8.760  0.1119 -0.0869  0.1722
 1299W        W 5363   5.592   0.882   8.007  0.0743 -0.3898  0.3374
 1300W        W 5364   7.511   6.919   1.890 -0.1814  0.2417 -0.0843
 1301W        W 5365   4.534   6.580  10.034  0.0156  0.2346  0.2612
 1302W        W 5366   9.619   8.813   9.890 -0.1468 -0.0924 -0.0001
 1303W        W 5367   2.848  10.393   2.685 -0.1596  0.3228 -0.2740
 1304W        W 5368   4.680   7.270  11.348 -0.3295 -0.1631 -0.4240
 1305W        W 5369   5.357   7.999  11.339 -0.0147 -0.3958 -0.1003
 1306W        W 5370   4.042   9.080   9.644 -0.3322  0.0510  0.2500
 1307W        W 5371   6.468  10.030   3.971  0.3410 -0.4134  0.0900
 1308W        W 5372   9.047   9.737  10.659 -0.2390  0.1368  0.0342
 1309W        W 5373   1.261   7.722   0.700  0.1748  0.2349 -0.0189
 1310W        W 5374   4.797   1.069   8.461 -0.0403 -0.0647 -0.0345
 1311W        W 5375   5.408   0.419   9.258  0.1291  0.3412  0.2052
 1312W        W 5376   5.621   8.479  10.647  0.1682 -0.1246 -0.1667
 1313W        W 5377   4.259   9.394  11.170  0.1125  0.1593  0.0710
 1314W        W 5378   6.469   7.676   1.550  0.0744  0.0498  0.3631
 1315W        W 5379   5.323   4.547   1.209 -0.3000 -0.0010  0.1180
 1316W        W 5380   1.297   9.390   0.718  0.1250  0.3132  0.0371
 1317W        W 5381   8.861   6.154   8.821 -0.1419 -0.1774  0.2179
 1318W        W 5382   9.796   5.543   9.260 -0.1266  0.2399  0.2906
 1319W        W 5383   2.230   7.463  10.231 -0.0794 -0.1054 -0.1090
 1320W        W 5384   1.610   4.201   8.251 -0.2154  0.1412 -0.2617
 1321W        W 5385   9.473   9.542   3.056 -0.1152  0.1311  0.0871
 1322W        W 5386   5.911   3.450   2.429 -0.1781 -0.0462 -0.2174
 1323W        W 5387   0.501   0.374  11.227  0.3280  0.1806 -0.3288
 1324W        W 5388   4.892   5.880   2.406 -0.1043  0.0375  0.2902
 1325W        W 5389  10.321   5.626   1.775 -0.0772 -0.0664 -0.0911
 1326W        W 5390  10.106   2.545   8.015 -0.0142 -0.3933  0.1931
 1327W        W 5391   3.042   0.197   1.196  0.1934 -0.1675  0.1672
 1328W        W 5392   8.307   4.475   0.638  0.0441 -0.1007  0.1675
 1329W        W 5393  10.476   0.656   2.524  0.0529  0.1746 -0.1712
 1330W        W 5394   0.244   0.088   0.069 -0.1703 -0.1207 -0.1711
 1331W        W 5395   8.102   9.348  10.696 -0.0071 -0.2316 -0.1181
 1332W        W 5396   7.770   2.080   3.043 -0.1795 -0.0969 -0.0604
 1333W        W 5397  10.578   0.823   3.382  0.0476  0.2803  0.6374
 1334W        W 5398   2.871   8.507  11.233 -0.1007 -0.1032  0.0374
 1335W        W 5399   0.718   1.904  10.450 -0.0582 -0.3476  0.1072
 1336W        W 5400  10.445   4.325   8.509  0.2172  0.3358 -0.0250
 1337W        W 5401  10.351   1.131  11.578 -0.0412 -0.2252 -0.1247
 1338W        W 5402   0.386   7.958   9.403 -0.2391  0.4748  0.3957
 1339W        W 5403   5.966   0.121   1.581  0.0477  0.1806  0.0038
 1340W        W 5404   6.756   5.113   9.791 -0.0247 -0.1293  0.2321
 1341W        W 5405  10.561   8.000   1.178  0.2244  0.0986  0.1700
 1342W        W 5406   0.266   1.044  10.309  0.0082 -0.1191 -0.2357
 1343W        W 5407   1.171   5.089   2.371  0.1682 -0.0637 -0.1780
 1344W        W 5408   6.814  10.623   7.697 -0.0380 -0.2731  0.4492
 1345W        W 5409   4.408   2.648   9.828 -0.0120 -0.0119 -0.0102
 1346W        W 5410   9.672   1.828   9.416 -0.0047 -0.4190  0.1563
 1347W        W 5411   1.205   2.447   2.632  0.1745 -0.0119  0.2762
 1348W        W 5412   2.638   1.850   1.891 -0.1456 -0.0894 -0.0493
 1349W        W 5413   1.895   0.757   9.307 -0.1084  0.2073  0.2047
 1350W        W 5414   5.640   5.666   2.788  0.3087 -0.2212 -0.1525
 1351W        W 5415   3.185   0.043   3.122  0.1600 -0.1087  0.0615
 1352W        W 5416   2.288   7.380   0.045  0.3259 -0.2096  0.1974
 1353W        W 5417   4.332   0.843   2.626 -0.3947  0.1866  0.0033
 1354W        W 5418   6.944   8.387  10.699  0.1461  0.0831  0.1441
 1355W        W 5419   9.414   8.006   9.686  0.1914  0.1258  0.2033
 1356W        W 5420   8.934   5.706  11.271  0.0583  0.0019  0.0614
 1357W        W 5421   5.435   5.525   3.227  0.0718 -0.1667  0.3079
 1358W        W 5422   9.402  10.500  10.840 -0.1868  0.0161  0.1265
 1359W        W 5423   0.812   9.885   3.701  0.1922 -0.3329 -0.0398
 1360W        W 5424   4.384   7.490   9.803  0.2466 -0.3323 -0.4253
 1361W        W 5425  10.072   1.915   2.292 -0.1475 -0.0952  0.1651
 1362W        W 5426   2.019   8.883   8.479  0.0394  0.0504  0.3470
 1363W        W 5427   2.860   6.475   8.397 -0.0271 -0.0753  0.3193
 1364W        W 5428   6.889   6.783   9.738  0.1508  0.0962  0.0349
 1365W        W 5429   4.636  10.229   9.697 -0.0282 -0.0271 -0.2392
 1366W        W 5430   9.741  10.130   7.588  0.0324 -0.0324 -0.1436
 1367W        W 5431   7.326   4.881   8.606  0.1696 -0.2927  0.1430
 1368W        W 5432   4.218   7.728   0.780 -0.1612  0.1878  0.0821
 1369W        W 5433   1.408   2.053   2.728 -0.0802  0.0131  0.0939
 1370W        W 5434   5.711   0.763   2.547  0.0949  0.3638  0.0021
 1371W        W 5435   7.191   1.105  10.292 -0.1346 -0.0205 -0.3134
 1372W        W 5436   5.467  10.049   1.617 -0.3230  0.1047 -0.4443
 1373W        W 5437   8.650   7.323   2.911 -0.2103 -0.1299 -0.2434
 1374W        W 5438  10.334   3.121   2.856  0.2338 -0.1037 -0.2557
 1375W        W 5439   8.935   7.135   3.327 -0.0562 -0.0791 -0.1767
 1376W        W 5440   4.192   6.786   9.115  0.0745 -0.3624 -0.3660
 1377W        W 5441   4.130   5.612   7.435  0.1657  0.0540  0.5718
 1378W        W 5442   3.630   2.571  10.944  0.1373  0.0211  0.3310
 1379W        W 5443   9.062   5.447   0.666  0.0964  0.0288  0.0455
 1380W        W 5444   4.618   4.804   9.405  0.0192 -0.2753  0.0332
 1381W        W 5445   4.949   3.774   3.711 -0.0560  0.3078  0.4163
 1382W        W 5446   3.957   7.623   9.350 -0.1243  0.0793 -0.2279
 1383W        W 5447   9.546   6.054  10.537 -0.1075  0.1547  0.0857
 1384W        W 5448   9.140   0.976   0.928  0.2158 -0.0641  0.2343
 1385W        W 5449   6.387   1.390   8.120 -0.0014  0.2020  0.0944
 1386W        W 5450   5.096   8.893  10.679 -0.2519 -0.2300  0.1440
 1387W        W 5451   3.580   7.206   2.345  0.2869 -0.0483 -0.0911
 1388W        W 5452   4.525   3.053   2.802 -0.2806  0.1517 -0.0454
 1389W        W 5453   8.443   3.073   0.243 -0.1828 -0.1456 -0.2508
 1390W        W 5454   4.641   4.608   2.056 -0.1721  0.1188  0.1697
 1391W        W 5455   6.415   1.442   8.829 -0.0514  0.2061 -0.0945
 1392W        W 5456   0.407   7.471   9.604 -0.3586 -0.1771  0.0485
 1393W        W 5457   8.713   4.646   2.413 -0.0391 -0.2992  0.4796
 1394W        W 5458   6.029   2.582   2.476 -0.0117 -0.0309  0.0330
 1395W        W 5459   5.396   2.394   8.335 -0.2923 -0.1999  0.0230
 1396W        W 5460   2.288   1.567  10.450  0.0563  0.0782  0.3033
 1397W        W 5461   6.638   4.721   0.350  0.2344  0.2664 -0.1805
 1398W        W 5462   4.839   5.069   2.800  0.1463 -0.0346 -0.2472
 1399W        W 5463   7.193   1.175   9.206  0.1467  0.0965 -0.0397
 1400W        W 5464   4.733   9.600   3.076  0.1353 -0.0603  0.0949
 1401W        W 5465   3.809   9.842  11.237  0.1008  0.0487  0.4151
 1402W        W 5466   0.020   2.426   0.311 -0.3002 -0.0298  0.1160
 1403W        W 5467   3.537   1.620   1.066  0.2792  0.0863  0.1435
 1404W        W 5468   6.687   2.746  10.049  0.4141 -0.2358  0.1240
 1405W        W 5469   2.378   1.148   7.968  0.2895 -0.1500 -0.0030
 1406W        W 5470   8.689   3.203   0.928  0.2483 -0.1247  0.1527
 1407W        W 5471   0.314   0.084   3.426 -0.0141 -0.0034 -0.3773
 1408W        W 5472   3.615   3.709   0.328 -0.2696  0.2336 -0.2386
 1409W        W 5473   4.165   5.930   8.269  0.3795 -0.4097 -0.1452
 1410W        W 5474   9.259   8.539   1.087 -0.0454  0.1789  0.0053
 1411W        W 5475   5.766   7.714   3.722 -0.1356  0.2723 -0.1825
 1412W        W 5476   2.137   9.872   8.216 -0.2938  0.1340  0.2527
 1413W        W 5477  10.445   5.014   9.602 -0.3533 -0.0171  0.2674
 1414W        W 5478   1.845   0.084   3.022  0.1034 -0.0996 -0.0995
 1415W        W 5479   0.491   0.951   9.226 -0.0633 -0.0702 -0.0238
 1416W        W 5480   2.650   5.989  10.269 -0.1760 -0.1233 -0.0451
 1417W        W 5481   8.928   8.622   0.738 -0.1263 -0.1074 -0.2033
 1418W        W 5482   9.200   5.481  10.001  0.0505 -0.1121  0.1310
 1419W        W 5483   0.266  10.369   0.392 -0.1882 -0.2353  0.4239
 1420W        W 5484   1.934   2.569   7.912  0.1244  0.1124 -0.1801
 1421W        W 5485   8.895   8.250   0.413 -0.0777  0.1995  0.0607
 1422W        W 5486  10.619   6.996  10.065  0.1094  0.2165  0.0809
 1423W        W 5487   3.767  10.000   8.616 -0.0872  0.1787 -0.0975
 1424W        W 5488   5.419   0.252   0.472  0.1687 -0.1324 -0.0324
 1425W        W 5489   7.409   5.526  11.110 -0.1869  0.1395  0.0745
 1426W        W 5490   4.795   7.847   3.034 -0.1142 -0.1303  0.1366
 1427W        W 5491   4.179   7.866   4.331  0.2406 -0.0944 -0.0386
 1428W        W 5492   8.694   9.031   9.008 -0.1721 -0.2202 -0.0265
 1429W        W 5493   6.002   8.945   2.534  0.0912 -0.0141  0.1748
 1430W        W 5494   6.094   2.185   9.755 -0.0909  0.1451  0.1157
 1431W        W 5495   8.611   0.578   2.242  0.1767  0.2107 -0.1274
 1432W        W 5496   1.995   2.863  10.840  0.0515  0.0620 -0.2087
 1433W        W 5497   4.098   6.229   9.281 -0.0764  0.0975  0.1795
 1434W        W 5498   6.283   3.535   0.598 -0.0530  0.0973 -0.2650
 1435W        W 5499   5.526   9.734   2.326  0.1102 -0.0728  0.1589
 1436W        W 5500  10.429   8.836   7.509 -0.2317 -0.0717 -0.3988
 1437W        W 5501   8.123   0.228  10.936 -0.3227 -0.0124  0.0528
 1438W        W 5502   5.078   5.876   1.905  0.0400 -0.2268  0.3285
 1439W        W 5503   7.914   6.969   2.284  0.0883 -0.2063 -0.0339
 1440W        W 5504   7.379   2.866   8.783 -0.1729  0.1132  0.0401
 1441W        W 5505   3.083   4.428   1.262 -0.2109 -0.2502 -0.1111
 1442W        W 5506   4.408   7.707   2.790  0.0312 -0.2409  0.3926
 1443W        W 5507   5.526  10.522   1.419 -0.2219 -0.2164 -0.2084
 1444W        W 5508   4.310  10.609   3.057  0.0117  0.0460  0.1759
 1445W        W 5509   2.708   2.354   3.440  0.0931  0.2871  0.4469
 1446W        W 5510   5.400   3.625   3.343 -0.0025 -0.0127 -0.0292
 1447W        W 5511   4.811   6.453  11.089  0.3758 -0.1533  0.0217
 1448W        W 5512   7.194   7.244   0.843 -0.4913  0.5088 -0.0544
 1449W        W 5513  10.256   2.268   8.387  0.2392 -0.0196  0.0848
 1450W        W 5514   7.889   9.463   9.303 -0.1223 -0.0318  0.2350
 1451W        W 5515   5.701   2.824   3.134  0.1088 -0.1385 -0.1498
 1452W        W 5516  10.462   7.477   1.259  0.2199  0.0876  0.0771
 1453W        W 5517   4.409   4.769   0.808  0.0627 -0.1601  0.3255
 1454W        W 5518   6.686   6.563   8.603 -0.1094 -0.0402  0.0821
 1455W        W 5519   9.935   9.193   1.017 -0.5060 -0.0086 -0.2901
 1456W        W 5520   3.540   9.081   2.226  0.1795  0.1340 -0.1721
 1457W        W 5521   8.819   4.109  11.577  0.0857  0.0877 -0.2647
 1458W        W 5522   4.971   4.984   7.972 -0.0483 -0.1719 -0.0444
 1459W        W 5523  10.596  10.301  10.307 -0.3380  0.0525 -0.0455
 1460W        W 5524   2.025   5.191  10.519 -0.4090 -0.0509  0.3778
 1461W        W 5525   3.735   8.730   9.986 -0.2937  0.0436  0.0317
 1462W        W 5526   4.060   0.995   1.726  0.0296  0.2671 -0.0434
 1463W        W 5527   3.840  10.401   2.325  0.0936 -0.0161  0.3410
 1464W        W 5528   4.722   6.407   2.734  0.2052 -0.0042  0.1110
 1465W        W 5529   2.867   6.123   2.374 -0.0631 -0.1701 -0.0180
 1466W        W 5530   9.381  10.629   9.835 -0.0021  0.1998  0.0428
 1467W        W 5531  10.306   5.344   2.250  0.0452 -0.2263 -0.0303
 1468W        W 5532  10.480  10.320   1.817  0.2130  0.2351 -0.1864
 1469W        W 5533   2.354   4.216   4.224  0.2408 -0.2236 -0.1654
 1470W        W 5534   3.427   7.478   1.160 -0.0656 -0.1781 -0.2290
 1471W        W 5535   3.234   8.457   1.649 -0.1437  0.1194  0.4802
 1472W        W 5536   0.373   6.554   8.115 -0.1260 -0.0078 -0.1578
 1473W        W 5537   7.136   5.137  11.436  0.0737  0.0355  0.4123
 1474W        W 5538   9.569   9.737  10.252 -0.2876  0.0249 -0.0189
 1475W        W 5539   0.415   0.504   3.026  0.0853  0.3355  0.1038
 1476W        W 5540  10.638   1.442  11.316 -0.0538 -0.0179  0.2040
 1477W        W 5541   7.903   4.641  10.903 -0.1953 -0.0282  0.0929
 1478W        W 5542   7.748   4.733   2.954  0.2580  0.4991  0.0040
 1479W        W 5543   3.826   5.382   1.409 -0.2632  0.2488  0.3160
 1480W        W 5544  10.201   1.085   2.932  0.2085 -0.2408 -0.3299
 1481W        W 5545   5.170  10.561   9.069  0.0345  0.3670 -0.1421
 1482W        W 5546   5.747   2.007   0.260 -0.2194  0.2896 -0.1542
 1483W        W 5547  10.427   8.335   8.329  0.1707 -0.1498  0.1026
 1484W        W 5548   6.346   6.520   8.075  0.2334  0.1133 -0.1309
 1485W        W 5549   3.687   1.312   2.515  0.2179  0.2846 -0.3719
 1486W        W 5550   2.028   8.298   0.017  0.2366 -0.0630 -0.0060
 1487W        W 5551   8.021   2.704   0.323 -0.0427 -0.1470 -0.0101
 1488W        W 5552  10.084   8.572   8.040  0.0870  0.0634  0.0394
 1489W        W 5553   3.604   1.309   7.764  0.0318 -0.0458 -0.0168
 1490W        W 5554   1.947   6.414   2.141  0.2006 -0.1933 -0.2585
 1491W        W 5555   6.400   3.229   2.484  0.3788  0.0036  0.0690
 1492W        W 5556   5.468   7.869   9.736 -0.1952  0.1306  0.0493
 1493W        W 5557   2.942   9.831   8.884  0.2398 -0.0385 -0.0906
 1494W        W 5558   0.011   3.228   9.851  0.1491 -0.0752  0.1707
 1495W        W 5559   0.249   9.004   4.037 -0.0209 -0.1591  0.1529
 1496W        W 5560   4.885   1.683   3.326 -0.0595 -0.0522 -0.0181
 1497W        W 5561   3.725  10.493   8.685 -0.2156  0.1290 -0.2177
 1498W        W 5562   3.979   5.506   8.390  0.1341 -0.1861 -0.0479
 1499W        W 5563   9.372   1.135   7.407 -0.2662  0.1712 -0.1761
 1500W        W 5564   4.257   9.423   9.326 -0.0664 -0.1981  0.2983
 1501W        W 5565   4.702   5.684   0.931  0.0142  0.0643 -0.2066
 1502W        W 5566   1.668   1.527   9.830 -0.3127  0.2334  0.0424
 1503W        W 5567   2.218   0.817  11.268 -0.0849 -0.1175  0.0234
 1504W        W 5568  10.473   8.826   2.139 -0.1140 -0.0788 -0.0303
 1505W        W 5569   1.825   8.539   3.055  0.2401  0.0614 -0.1180
 1506W        W 5570   6.706   0.114   9.094  0.4383 -0.0743  0.2024
 1507W        W 5571   9.468   0.832   3.560 -0.2040  0.1781 -0.3033
 1508W        W 5572  10.252   6.500   2.821 -0.0158  0.0754 -0.0121
 1509W        W 5573   9.149   3.089   1.050  0.0887  0.3071 -0.0281
 1510W        W 5574   3.587   9.600   0.146  0.4559  0.2542  0.0879
 1511W        W 5575   7.188   3.198  10.773  0.1390  0.2474  0.2164
 1512W        W 5576   7.849   7.728   3.807 -0.0255  0.2697  0.1129
 1513W        W 5577   1.763   7.479  10.108 -0.1555  0.2802 -0.1010
 1514W        W 5578   3.501   3.096   8.059 -0.1371 -0.1852  0.1719
 1515W        W 5579   2.408   3.512   7.441  0.0885  0.0051  0.2512
 1516W        W 5580   1.469   4.214   8.774 -0.0417  0.1007 -0.0369
 1517W        W 5581  10.412   8.112   2.941 -0.0521  0.0939 -0.0088
 1518W        W 5582   9.842   9.433  10.614 -0.0896  0.1286 -0.2681
 1519W        W 5583   9.122   0.420   7.517  0.0408 -0.1626 -0.1785
 1520W        W 5584   4.922   4.092  11.342 -0.1917  0.1730  0.1752
 1521W        W 5585   5.149   5.740   9.030 -0.0482 -0.0715  0.1451
 1522W        W 5586   4.402   8.101   8.839 -0.0343  0.0610  0.0988
 1523W        W 5587   5.377   1.323   9.181 -0.1766 -0.0396 -0.0932
 1524W        W 5588   8.793   5.484   0.123 -0.0861  0.0953 -0.0878
 1525W        W 5589   6.792  10.183   8.991  0.1472  0.0270  0.1829
 1526W        W 5590   6.631   4.032   2.371 -0.0086 -0.2585 -0.2034
 1527W        W 5591   8.810   7.620   8.997  0.0138  0.2202 -0.2150
 1528W        W 5592   5.287   0.804   8.994 -0.1515  0.2165 -0.5968
 1529W        W 5593   2.679   9.484   0.685  0.2314  0.0204 -0.1475
 1530W        W 5594   1.577   8.094   8.320  0.0086  0.0081  0.1249
 1531W        W 5595   8.341   2.171   8.156  0.3215  0.0078 -0.0454
 1532W        W 5596   4.708   8.588   1.108 -0.1459 -0.1710  0.0568
 1533W        W 5597   4.665   1.995   9.049  0.4637 -0.2195 -0.0410
 1534W        W 5598   7.221   2.625  10.556 -0.0168 -0.1479 -0.1152
 1535W        W 5599   4.067   3.272  10.342 -0.0885 -0.5507 -0.0906
 1536W        W 5600   4.858   1.325   2.881  0.0306 -0.0799  0.3723
 1537W        W 5601   4.432   1.619   2.853  0.0783 -0.2331 -0.2317
 1538W        W 5602   9.833   8.323   9.860 -0.1747  0.2736 -0.0333
 1539W        W 5603   9.455  10.036  10.651  0.1342 -0.2395 -0.1891
 1540W        W 5604   3.765   2.710   2.595  0.3325 -0.0846 -0.0832
 1541W        W 5605   1.931   2.045   1.267 -0.2996  0.2927  0.3169
 1542W        W 5606   1.519   8.097   3.137 -0.1191 -0.1660  0.0874
 1543W        W 5607   7.608   3.517   1.412 -0.1022 -0.2377  0.0291
 1544W        W 5608   6.778   6.853   7.912  0.2072 -0.0227 -0.2502
 1545W        W 5609   6.412   0.400   3.742  0.0020  0.2367 -0.0567
 1546W        W 5610   3.029   7.964  10.388  0.0898 -0.0342 -0.6802
 1547W        W 5611   0.229   5.099  11.168  0.2942  0.1189  0.2107
 1548W        W 5612   1.640   0.285   1.575 -0.4059  0.1858 -0.0057
 1549W        W 5613   6.632   9.094   2.572 -0.0136 -0.0804  0.0501
 1550W        W 5614   4.040   2.513   1.579 -0.0870 -0.1451 -0.0914
 1551W        W 5615   5.390   5.068   8.283 -0.1496  0.0620 -0.0109
 1552W        W 5616   8.278   5.282   9.508  0.1553 -0.0773 -0.3589
 1553W        W 5617   8.843   8.558   2.982  0.3109  0.0653  0.2481
 1554W        W 5618   0.517   5.461  10.720  0.1702 -0.2031  0.1611
 1555W        W 5619   2.097  10.493  10.819  0.0680 -0.0648 -0.0361
 1556W        W 5620   9.180   3.214   0.478 -0.0108 -0.2269 -0.1670
 1557W        W 5621   9.645   2.656  11.517  0.1365  0.0112  0.0738
 1558W        W 5622   7.093   3.584  11.111 -0.0569  0.0455  0.0887
 1559W        W 5623   0.626   2.128   1.749 -0.2145  0.1633  0.2960
 1560W        W 5624  10.457   4.892   0.415  0.1980  0.1114 -0.0586
 1561W        W 5625   6.954   4.863   1.843 -0.1805  0.0349 -0.2698
 1562W        W 5626   9.816   8.682   7.029 -0.2043 -0.1010 -0.2007
 1563W        W 5627   5.362   3.599   1.343 -0.1204 -0.2400 -0.2592
 1564W        W 5628   9.780   0.555   1.912 -0.0082 -0.1305  0.0732
 1565W        W 5629   1.398   5.526   8.892  0.0809  0.0754  0.0340
 1566W        W 5630   8.426   1.039   9.745 -0.3287 -0.1620 -0.2813
 1567W        W 5631   5.114   3.313   9.703  0.0677 -0.1511 -0.1375
 1568W        W 5632   1.983   2.786   3.020  0.2176 -0.1110  0.0319
 1569W        W 5633   9.811   5.421   0.830  0.0133  0.0132 -0.0107
 1570W        W 5634   2.821   5.954  11.051 -0.0988 -0.0539 -0.1229
 1571W        W 5635   4.162   0.099   2.246  0.1670 -0.0774 -0.0517
 1572W        W 5636   5.226   0.669  10.665 -0.1461  0.0231  0.4570
 1573W        W 5637   6.809   7.985   1.366  0.1718  0.0562 -0.0161
 1574W        W 5638   3.637   9.122   0.187  0.0967 -0.3196 -0.2031
 1575W        W 5639   1.817   9.876   3.979 -0.0495  0.0947  0.2853
 1576W        W 5640   6.209   1.076   8.550 -0.2051  0.0401  0.1301
 1577W        W 5641   5.434   6.120  10.410 -0.0417  0.1926  0.3802
 1578W        W 5642   6.755   9.663   7.676  0.2382  0.2661 -0.1900
 1579W        W 5643   5.024   0.180   2.667  0.5829 -0.0551 -0.0733
 1580W        W 5644   2.603   9.867  11.361  0.1418  0.0236 -0.0170
 1581W        W 5645   7.615   8.818   9.920 -0.3580 -0.2856  0.0558
 1582W        W 5646   2.410   9.746   8.663  0.1238  0.3566 -0.0791
 1583W        W 5647   5.772   2.897   9.208  0.1390  0.4472 -0.0636
 1584W        W 5648   9.111   5.633   1.159 -0.0688 -0.1678  0.0517
 1585W        W 5649   0.822   5.713   2.349  0.1054  0.2850  0.1178
 1586W        W 5650   8.501   8.787   0.059 -0.1456  0.1026 -0.0159
 1587W        W 5651   3.665   8.177  10.478  0.0420  0.4399 -0.1064
 1588W        W 5652   5.266   6.002   9.928  0.1389  0.1906  0.0009
 1589W        W 5653   1.673   4.389   0.729  0.1517 -0.0613 -0.2310
 1590W        W 5654   3.502   1.912   8.047 -0.0520 -0.2056 -0.2977
 1591W        W 5655   5.165   7.213   9.403 -0.0672 -0.2188  0.2369
 1592W        W 5656   7.748   2.080   2.018 -0.0437 -0.0054  0.3147
 1593W        W 5657   9.833   3.501   1.362  0.2430 -0.0433  0.2710
 1594W        W 5658   5.128   5.623   3.591  0.0178  0.3259  0.0466
 1595W        W 5659   0.878   6.663   1.860 -0.2506  0.1769 -0.2016
 1596W        W 5660   8.880   3.471   1.291  0.2529 -0.2488  0.1566
 1597W        W 5661   2.030   3.776   1.495  0.0806  0.1677  0.1696
 1598W        W 5662   2.751   3.496   2.589  0.1473 -0.3115 -0.0387
 1599W        W 5663   4.376   1.258   9.414 -0.1621  0.3421 -0.1902
 1600W        W 5664   3.534   5.764  10.465 -0.5394 -0.2297 -0.1529
 1601W        W 5665   2.466  10.378   8.335  0.3581 -0.2706  0.3621
 1602W        W 5666   4.148   2.271  11.087 -0.3345 -0.3345 -0.0620
 1603W        W 5667   5.009   6.375   3.690  0.0248  0.1143 -0.1317
 1604W        W 5668   9.397   0.044   0.162 -0.2236  0.1714 -0.1559
 1605W        W 5669   2.409  10.517   0.861 -0.1818 -0.0415  0.1395
 1606W        W 5670   4.149   2.990   2.478  0.2693 -0.1204  0.4220
 1607W        W 5671   1.954   8.180   1.770  0.2518  0.0695 -0.0235
 1608W        W 5672   8.665   2.026  10.622 -0.0355 -0.0612  0.0653
 1609W        W 5673   5.185  10.636   0.980  0.0189  0.1737  0.0875
 1610W        W 5674   6.578   4.111   4.182  0.2190 -0.3867 -0.1801
 1611W        W 5675   4.076   3.830   2.338 -0.1648  0.1723 -0.1310
 1612W        W 5676   2.504   2.699   0.833 -0.0885  0.3069  0.1661
 1613W        W 5677   6.229   3.335   1.393  0.6531 -0.1148  0.0272
 1614W        W 5678   7.354   5.641   3.066 -0.0980 -0.1582  0.1901
 1615W        W 5679   5.314   4.584   0.632 -0.1116  0.0985 -0.0084
 1616W        W 5680   6.213   4.796   2.478 -0.6425 -0.0892 -0.0736
 1617W        W 5681   9.813   4.609   9.187  0.1932  0.1004 -0.1689
 1618W        W 5682  10.512   0.923   9.975 -0.0603 -0.1021 -0.0232
 1619W        W 5683   8.091   2.454   3.111  0.1984 -0.1856 -0.0557
 1620W        W 5684   4.298   6.166   1.043  0.1357 -0.0509 -0.0213
 1621W        W 5685   6.932   6.714   2.118 -0.1003 -0.1148 -0.0104
 1622W        W 5686   1.159  10.119   0.095  0.1072  0.0250 -0.1249
 1623W        W 5687   8.450   5.519   2.784  0.1318  0.5923  0.0414
 1624W        W 5688   7.749   1.435   8.211  0.0496 -0.0486  0.0763
 1625W        W 5689   2.407   3.242   7.929 -0.0689 -0.0482 -0.2031
 1626W        W 5690   1.440   9.928   2.896 -0.0440 -0.3246  0.1644
 1627W        W 5691   8.563   9.924   2.421  0.0662 -0.0679 -0.3119
 1628W        W 5692   7.346   3.512   3.361 -0.1743 -0.1016  0.1532
 1629W        W 5693   4.305   6.987  10.049  0.1544  0.0916  0.0792
 1630W        W 5694   4.953   6.376   8.388 -0.0999 -0.0974 -0.1779
 1631W        W 5695   5.532   2.624   1.369  0.0887 -0.4781 -0.0722
 1632W        W 5696   0.077   3.226   1.390  0.0454 -0.1036  0.0533
 1633W        W 5697   8.781   2.567  10.833 -0.1131  0.1641 -0.2205
 1634W        W 5698   1.054   3.550   9.987  0.1379 -0.0700  0.2075
 1635W        W 5699   7.442   2.296   8.028  0.2351  0.2729 -0.1563
 1636W        W 5700   0.830   3.483   7.719 -0.0975 -0.0137 -0.2059
 1637W        W 5701   7.310   4.388   8.589 -0.3046  0.0524 -0.3291
 1638W        W 5702   7.184   7.163  10.116  0.3494 -0.0295 -0.0851
 1639W        W 5703   0.949   3.301   0.199  0.0780  0.0083  0.1867
 1640W        W 5704   9.840   1.106   1.928 -0.0625 -0.0399  0.3408
 1641W        W 5705   0.169   5.400   2.196  0.0210 -0.3422 -0.1917
 1642W        W 5706   6.852   8.976   8.181  0.1612 -0.0099  0.1924
 1643W        W 5707   3.144   5.529   0.915  0.1438 -0.1406 -0.1071
 1644W        W 5708   6.283   2.599  10.448 -0.1252 -0.1319  0.2968
 1645W        W 5709   0.257   8.769  10.105  0.0522  0.0653 -0.0521
 1646W        W 5710   4.813   3.341   8.226  0.0205 -0.0306 -0.1294
 1647W        W 5711   3.840  10.138   7.276  0.0068 -0.0616 -0.2303
 1648W        W 5712   0.086   9.889   2.413 -0.0501  0.0116 -0.0189
 1649W        W 5713   5.999   0.822   8.948  0.2265 -0.3174  0.2452
 1650W        W 5714   8.585  10.282   3.750 -0.1168 -0.0318  0.1608
 1651W        W 5715   1.502   7.257   2.715 -0.3869  0.0716  0.1585
 1652W        W 5716   4.003   6.714  10.898 -0.4009 -0.1145 -0.1508
 1653W        W 5717   5.265   9.495   3.162 -0.3133  0.0811  0.2052
 1654W        W 5718   9.530   1.678   8.022  0.1576  0.1461 -0.0091
 1655W        W 5719   9.981   7.288   1.412 -0.0376  0.3554  0.2475
 1656W        W 5720   1.151  10.002   3.286 -0.1537  0.2595  0.0722
 1657W        W 5721   9.370   0.232  11.179 -0.0016 -0.3210 -0.0736
 1658W        W 5722   9.950  10.271   8.181  0.2226 -0.0401 -0.1487
 1659W        W 5723   5.724  10.368   4.212  0.2079  0.2974  0.0042
 1660W        W 5724   5.119   6.992   3.762  0.1751 -0.2002 -0.3106
 1661W        W 5725  10.523   9.303  10.033 -0.1255  0.3147 -0.1136
 1662W        W 5726   9.602   3.542  10.940 -0.1099  0.0305 -0.0643
 1663W        W 5727   0.643   5.423  11.177  0.2025 -0.0207 -0.3294
 1664W        W 5728   2.554   5.361   7.177  0.0938  0.1431 -0.0500
 1665W        W 5729   3.220   7.417   2.642  0.0409 -0.3192  0.2178
 1666W        W 5730   0.163   8.135   8.616 -0.3157  0.1400 -0.2736
 1667W        W 5731   1.677   3.802   3.272 -0.2825  0.1847 -0.0265
 1668W        W 5732  10.599   0.499   2.096 -0.1151 -0.0189  0.1780
 1669W        W 5733   3.847   4.256   7.945  0.1633 -0.1186 -0.1265
 1670W        W 5734   2.206   4.192   1.702  0.0668  0.2523 -0.1061
 1671W        W 5735   3.723   6.005   9.988 -0.2131  0.1925 -0.0236
 1672W        W 5736   2.935   4.234   9.910 -0.2559 -0.2937 -0.2198
 1673W        W 5737   2.890   7.444   9.101 -0.0308  0.0906 -0.0242
 1674W        W 5738   1.405   1.892   4.073  0.1266 -0.0148  0.0750
 1675W        W 5739   6.485   4.604   8.933 -0.3134  0.0934 -0.1763
 1676W        W 5740   9.686   2.824   2.238  0.2703 -0.3439 -0.1843
 1677W        W 5741   0.583   8.644  10.680 -0.1920 -0.0088  0.2435
 1678W        W 5742   4.089   0.688   1.195  0.0961 -0.0218  0.3132
 1679W        W 5743   5.847   0.700   8.440 -0.2201  0.0316  0.0725
 1680W        W 5744  10.058   3.894   1.118 -0.2057  0.1119 -0.0579
 1681W        W 5745   0.036   6.930  10.969  0.1111 -0.0119 -0.0633
 1682W        W 5746   5.341   7.595   9.059  0.0484 -0.2488  0.0954
 1683W        W 5747   3.549   6.188   8.974 -0.1434  0.0270 -0.0551
 1684W        W 5748   2.854   1.491   9.446 -0.0345  0.1046  0.0001
 1685W        W 5749   5.462   8.707   8.121  0.2636 -0.2682  0.0046
 1686W        W 5750   0.054   9.543  10.892 -0.0898  0.2691 -0.0274
 1687W        W 5751   9.211   7.522   9.776  0.1352  0.2895 -0.1567
 1688W        W 5752   7.401   8.387  10.065  0.0843 -0.0151  0.1639
 1689W        W 5753   7.190   1.479   7.394  0.0322  0.0654  0.2110
 1690W        W 5754   8.224   5.628   1.903 -0.1143 -0.2611  0.0009
 1691W        W 5755   6.420   2.699   9.560 -0.1877 -0.0210 -0.0729
 1692W        W 5756   1.895   9.267   3.391 -0.3068 -0.3656  0.0086
 1693W        W 5757   2.916   5.567  11.446  0.1359 -0.1545 -0.2863
 1694W        W 5758   9.296   4.273   0.393  0.0742 -0.1547 -0.0846
 1695W        W 5759   2.462   5.670  10.668 -0.0096 -0.1399  0.1256
 1696W        W 5760   2.790   9.760   2.234  0.1644  0.0548 -0.1241
 1697W        W 5761   0.059  10.493   4.267 -0.0095 -0.0710  0.2194
 1698W        W 5762   6.500   2.257   9.422 -0.2210  0.1163 -0.1334
 1699W        W 5763   1.244   4.580   1.752  0.1955  0.1010 -0.2119
 1700W        W 5764   4.309   1.729   9.791 -0.1366 -0.2174  0.0107
 1701W        W 5765   3.150   9.567   0.865  0.0681 -0.0121 -0.0904
 1702W        W 5766   2.713   1.994   0.040 -0.1490 -0.0884  0.1713
 1703W        W 5767   2.447   7.773   4.014  0.3011 -0.0334  0.0444
 1704W        W 5768   1.198   4.047  11.251 -0.0857  0.3927  0.0708
 1705W        W 5769   7.519   3.396   8.655  0.1847 -0.2716  0.0444
 1706W        W 5770   8.399   9.955   7.158  0.0482  0.0189 -0.0038
 1707W        W 5771   7.841   6.250   0.715  0.0858  0.2420  0.1989
 1708W        W 5772   1.440   4.515  11.073  0.3458 -0.1154  0.1095
 1709W        W 5773   2.095   5.608   8.500  0.1937  0.2435 -0.0735
 1710W        W 5774   6.216   0.089   1.080 -0.0040 -0.1102  0.0019
 1711W        W 5775   4.273   9.213  10.620  0.3390  0.0088 -0.3170
 1712W        W 5776   1.755   7.681   2.909  0.0988  0.3230 -0.1538
 1713W        W 5777   3.639   0.819   2.179  0.1375 -0.2260 -0.1407
 1714W        W 5778   2.679   6.092   1.872  0.0093 -0.1852  0.4786
 1715W        W 5779   9.318   2.615   8.333  0.0606 -0.1910  0.1670
 1716W        W 5780  10.414   9.529   8.304  0.0297 -0.1408 -0.4913
 1717W        W 5781   8.582   5.585   8.733 -0.1868  0.0146  0.1024
 1718W        W 5782   1.007   4.778  10.821 -0.2376 -0.1535 -0.1309
 1719W        W 5783   2.736   4.007   2.350 -0.1288 -0.2100  0.4021
 1720W        W 5784   3.092   9.847   3.490 -0.0905  0.2349 -0.2516
 1721W        W 5785   7.409   6.120   9.212 -0.0226  0.0803 -0.2265
 1722W        W 5786   6.740   0.425  10.893 -0.1261 -0.0558 -0.0487
 1723W        W 5787   1.776   3.596  11.240  0.1987  0.0916  0.0530
 1724W        W 5788   0.795   5.982   0.409  0.0328  0.1508  0.0472
 1725W        W 5789   4.138   9.117   3.110 -0.1643 -0.4525  0.1708
 1726W        W 5790   7.191   7.947   3.584 -0.0439  0.2397 -0.1696
 1727W        W 5791   9.620   7.858  11.368 -0.1376  0.1970 -0.0188
 1728W        W 5792   9.704   8.846   8.069  0.1383  0.1819  0.1327
 1729W        W 5793  10.640   9.874   9.359 -0.0503 -0.0801  0.1245
 1730W        W 5794   1.901   5.067   1.203  0.1439 -0.0094  0.0025
 1731W        W 5795   7.872   3.975   0.053  0.4170 -0.2467 -0.0424
 1732W        W 5796   7.556   9.607   0.290 -0.1914  0.1351  0.2868
 1733W        W 5797   5.542   6.945   8.401  0.1524 -0.1345 -0.2036
 1734W        W 5798   0.203   1.615   3.724 -0.1200 -0.0497  0.0683
 1735W        W 5799   4.266   8.177   0.387  0.1291 -0.1256 -0.3499
 1736W        W 5800   8.139   9.939   9.213 -0.2124  0.0177 -0.0662
 1737W        W 5801   0.792   1.837   8.878 -0.0811  0.0056  0.0427
 1738W        W 5802   1.909   7.527   1.181 -0.0868 -0.1833 -0.0779
 1739W        W 5803   7.840   2.129   9.794 -0.0013 -0.0876  0.4432
 1740W        W 5804   2.492   7.670   8.340 -0.1740 -0.1066  0.1646
 1741W        W 5805   8.698   2.827   7.474 -0.0862  0.0806  0.1680
 1742W        W 5806   9.969   8.520   8.576  0.1597  0.0044  0.3181
 1743W        W 5807   6.042   1.650   8.473 -0.3276  0.1591 -0.2070
 1744W        W 5808   1.650   7.190   1.498  0.0319 -0.2311 -0.1366
 1745W        W 5809   3.047   0.494   0.733 -0.0176 -0.1777  0.0780
 1746W        W 5810   9.906   9.954   0.339  0.0624 -0.1679  0.0258
 1747W        W 5811   9.621   3.729   9.494  0.0383 -0.0890 -0.3469
 1748W        W 5812   1.202   7.770   9.685  0.2342 -0.1155  0.2254
 1749W        W 5813   6.241   4.756  11.189  0.0078 -0.0610 -0.3203
 1750W        W 5814   8.672   8.300  11.570  0.2722 -0.3089  0.1065
 1751W        W 5815   4.440   0.468   0.358 -0.0767  0.0335  0.2292
 1752W        W 5816   7.639   2.131   1.535 -0.0203  0.1025 -0.0595
 1753W        W 5817   1.711  10.171  11.103  0.0804 -0.0948  0.0391
 1754W        W 5818   1.328   8.506  10.019  0.3002  0.1197  0.2283
 1755W        W 5819   3.340  10.325   2.716 -0.1020 -0.1981  0.0543
 1756W        W 5820   9.239   7.772   8.824 -0.1607 -0.3460  0.1882
 1757W        W 5821  10.643   2.722   2.311 -0.1283  0.0768 -0.0687
 1758W        W 5822   8.421   8.778   9.421 -0.2793 -0.0603  0.1371
 1759W        W 5823   8.263   1.712   9.663  0.4624 -0.1073  0.0298
 1760W        W 5824   8.825   2.804   0.514  0.2728  0.0265  0.0683
 1761W        W 5825   1.047   8.081  10.053  0.1292  0.2417  0.2302
 1762W        W 5826  10.604   8.004  10.941  0.0469  0.1503  0.4579
 1763W        W 5827   0.734   4.102   3.247  0.0469  0.2121 -0.3037
 1764W        W 5828   0.393   9.122   0.194 -0.0611 -0.0636  0.0237
 1765W        W 5829   9.506   0.534   0.661 -0.1518  0.0287 -0.1580
 1766W        W 5830   0.681   8.238  10.338  0.2976 -0.2050 -0.1599
 1767W        W 5831   1.486   1.189   9.232 -0.4521 -0.1138  0.2877
 1768W        W 5832   2.151   6.546   1.111  0.0937 -0.0350  0.0965
 1769W        W 5833   8.913   1.569   1.898 -0.1338  0.2782 -0.0730
 1770W        W 5834   8.042   1.146   9.450 -0.0816 -0.0857 -0.0693
 1771W        W 5835  10.054   2.783   8.594 -0.1685  0.0653  0.0118
 1772W        W 5836   1.057   4.242  10.800  0.1114 -0.0240  0.1854
 1773W        W 5837   1.576   7.035   8.237 -0.0098 -0.1770 -0.1689
 1774W        W 5838   7.834   2.496   2.556 -0.1402 -0.1677 -0.0747
 1775W        W 5839   4.678   4.004   7.753 -0.0000  0.2164 -0.0151
 1776W        W 5840   4.926   4.204   3.420 -0.0895 -0.0345  0.3344
 1777W        W 5841   1.190   5.634   8.254  0.0483  0.1670  0.1537
 1778W        W 5842   8.458   4.936  10.909  0.4127  0.0720 -0.2638
 1779W        W 5843   2.152   6.879  10.495 -0.0661 -0.2040  0.0020
 1780W        W 5844   7.396   5.818  11.490 -0.1531 -0.2818 -0.0705
 1781W        W 5845   2.565   1.541  10.829 -0.2063 -0.1429 -0.3539
 1782W        W 5846   9.450   7.242   3.353  0.0853  0.2024  0.0393
 1783W        W 5847   4.313   6.544   2.398  0.1584 -0.2539 -0.3602
 1784W        W 5848   6.798   9.872  10.430  0.0173 -0.0221  0.0401
 1785W        W 5849   4.832   4.379   0.743  0.0606 -0.0044 -0.4031
 1786W        W 5850   9.860   4.111   1.958  0.3468 -0.1134 -0.0543
 1787W        W 5851   4.304   2.633  11.454 -0.0802  0.1400  0.2084
 1788W        W 5852   9.490   9.213   0.585  0.0825  0.0227 -0.0202
 1789W        W 5853   0.248   8.375  11.285  0.1025 -0.3738 -0.0994
 1790W        W 5854   6.702  10.272   0.201  0.4277 -0.3095 -0.2729
 1791W        W 5855   8.838   5.232   1.070  0.0294 -0.0171 -0.3215
 1792W        W 5856  10.065   9.829   2.537  0.0356 -0.0762  0.1520
 1793W        W 5857   6.462   5.202  11.299  0.0817  0.0209  0.1330
 1794W        W 5858   1.434   4.579   1.230  0.3610 -0.1593  0.1416
 1795W        W 5859   9.854   0.437   2.442 -0.0110 -0.0122  0.1683
 1796W        W 5860   4.921   5.204  10.993  0.2755  0.2075  0.4285
 1797W        W 5861   3.679   0.695   9.620 -0.0972  0.0007  0.2107
 1798W        W 5862   0.928   3.079  10.939 -0.1096 -0.0693  0.1115
 1799W        W 5863   5.857  10.584  10.957  0.0705 -0.1232  0.0687
 1800W        W 5864   7.619   6.538   9.591 -0.0764  0.0072 -0.0341
 1801W        W 5865   1.520   5.939   8.568 -0.2711  0.1075 -0.1018
 1802W        W 5866   2.579   4.490   2.442  0.0578 -0.1847  0.3454
 1803W        W 5867   4.124   0.391   2.721 -0.1514 -0.2012  0.3291
 1804W        W 5868   2.623   6.399  11.252 -0.1381  0.1963 -0.0646
 1805W        W 5869   4.313   5.694   9.820 -0.0731  0.0499 -0.0294
 1806W        W 5870   0.054   1.865   1.036 -0.2441  0.3224 -0.0547
 1807W        W 5871   0.861   3.769  11.533 -0.0626  0.1843 -0.0911
 1808W        W 5872  10.065   6.971   9.809  0.2080  0.1708  0.1661
 1809W        W 5873   1.056   9.497   1.956  0.0851 -0.0813 -0.0393
 1810W        W 5874   3.443   4.270  11.227  0.0808 -0.0530  0.0457
 1811W        W 5875  10.193   1.669  11.233 -0.0405  0.1262  0.0709
 1812W        W 5876   4.874   5.810  10.494  0.1297  0.0922 -0.2385
 1813W        W 5877   6.988   6.058   2.819 -0.2902 -0.2488  0.2209
 1814W        W 5878   6.355   6.425   1.756 -0.0969  0.3903 -0.2844
 1815W        W 5879   4.671   8.004   9.765 -0.1396 -0.0723 -0.0885
 1816W        W 5880   8.176   0.424   0.808 -0.0616 -0.1246 -0.1141
 1817W        W 5881   4.617   2.087  11.164  0.0292  0.0377  0.2104
 1818W        W 5882   6.197   5.594   9.840  0.1500 -0.1299 -0.2282
 1819W        W 5883   1.203   2.713   3.547  0.0851 -0.0830  0.1438
 1820W        W 5884   5.901   1.642   7.950  0.0006  0.4435 -0.0911
 1821W        W 5885   2.405   3.711   3.907 -0.2874  0.1997 -0.1567
 1822W        W 5886   0.308   1.075   3.653  0.0370 -0.0912 -0.0080
 1823W        W 5887   1.031   0.538  11.407 -0.3468  0.2104  0.1099
 1824W        W 5888   2.042   9.666   3.098  0.1594  0.1066  0.1442
 1825W        W 5889   5.312   6.120   2.691 -0.1092 -0.1256  0.2537
 1826W        W 5890  10.017   2.483   1.219 -0.2293  0.1607 -0.1711
 1827W        W 5891   2.378   1.101   0.079 -0.2240  0.0245  0.1122
 1828W        W 5892   0.173   3.480   2.002  0.1093  0.0937  0.0772
 1829W        W 5893   1.418   3.757   1.331 -0.0638 -0.1531  0.0299
 1830W        W 5894   9.437   9.920  11.528 -0.0104  0.1125 -0.2248
 1831W        W 5895   1.624   8.486  10.526 -0.0787  0.2269  0.0813
 1832W        W 5896   6.567   3.442   3.098 -0.0075  0.0321 -0.1121
 1833W        W 5897   3.545   2.632   1.771 -0.1769 -0.0429 -0.0207
 1834W        W 5898   4.229   6.171   9.981  0.3083  0.0050  0.5445
 1835W        W 5899   2.510   5.093   0.571 -0.3521  0.1558  0.2378
 1836W        W 5900   3.902   1.258   0.462 -0.0818 -0.0227 -0.3756
 1837W        W 5901   6.165   9.804  10.149 -0.0455 -0.1404  0.0076
 1838W        W 5902   8.169   6.630   1.071  0.2634  0.1044 -0.3158
 1839W        W 5903   1.969  10.469   8.351  0.0635 -0.2736  0.0170
 1840W        W 5904   6.192   0.489   9.848 -0.2029  0.1678  0.1131
 1841W        W 5905   4.627   4.917   3.728 -0.1333  0.1653  0.0069
 1842W        W 5906   9.149   4.129   0.830 -0.0479 -0.2013  0.3325
 1843W        W 5907   9.677   8.555   2.169  0.0428 -0.0268  0.3454
 1844W        W 5908   9.773   1.240   8.224  0.2683  0.3349  0.0534
 1845W        W 5909   9.658   7.176   2.883 -0.2254 -0.0912 -0.3651
 1846W        W 5910   4.769   3.071  10.240 -0.2897  0.1771  0.0015
 1847W        W 5911   9.906   1.619   0.967 -0.1262  0.0613  0.1576
 1848W        W 5912   0.121   1.038   2.053 -0.1388 -0.1295 -0.0632
 1849W        W 5913   0.172   8.069   2.013  0.2887 -0.1107  0.1264
 1850W        W 5914   7.289   8.906  11.471 -0.0038  0.0929  0.0242
 1851W        W 5915   2.843   0.399   3.288 -0.1850  0.0723 -0.1779
 1852W        W 5916   1.303   6.572  10.306 -0.0071  0.2562 -0.1466
 1853W        W 5917   3.182   9.790   9.350  0.0439 -0.2601  0.0010
 1854W        W 5918   0.053   6.560   0.291 -0.1969 -0.3758 -0.2580
 1855W        W 5919   5.552   5.586   8.163 -0.2797  0.0310  0.0844
 1856W        W 5920   1.138   6.255   7.654  0.1740  0.1494  0.1997
 1857W        W 5921   5.040   7.494   1.329 -0.1875 -0.0174 -0.0670
 1858W        W 5922   5.627   1.946  10.228 -0.0971 -0.0851  0.0181
 1859W        W 5923   8.861   2.357   2.581  0.1166  0.0296  0.0309
 1860W        W 5924   6.562   8.489   1.233  0.0031  0.2263  0.2146
 1861W        W 5925   6.702   1.035  11.200 -0.5391 -0.3563 -0.3439
 1862W        W 5926   4.745   6.919   9.080 -0.2067 -0.0992 -0.2040
 1863W        W 5927   0.297   7.190   2.940 -0.2037  0.2105 -0.0638
 1864W        W 5928   4.379   8.538   2.404  0.1019  0.0024  0.0837
 1865W        W 5929   6.629   4.863  10.797  0.2533 -0.2406  0.0484
 1866W        W 5930   0.877   3.916   1.155 -0.1803  0.1737 -0.0542
 1867W        W 5931   3.192   3.557   3.907 -0.0322  0.0269  0.2449
 1868W        W 5932  10.426   6.436  10.955  0.0328 -0.0127 -0.2084
 1869W        W 5933   6.758   1.932   8.681  0.1778 -0.1474 -0.2828
 1870W        W 5934   7.565   6.093   2.705  0.0385  0.2082  0.1539
 1871W        W 5935   1.478   7.532  11.492 -0.3077  0.3364  0.1188
 1872W        W 5936   8.359   5.735  10.156 -0.4258  0.0829  0.0948
 1873W        W 5937   8.420   0.374   1.692  0.1350 -0.0032 -0.3155
 1874W        W 5938   0.937   5.245   9.043 -0.0815 -0.2371 -0.0114
 1875W        W 5939   8.034   0.521   9.119  0.3719 -0.4673  0.2764
 1876W        W 5940   6.245   4.188   2.069 -0.1422  0.1753 -0.0009
 1877W        W 5941   4.949  10.437  11.417  0.1715  0.0765 -0.0488
 1878W        W 5942   4.880   1.208   9.243 -0.0827 -0.1374 -0.0823
 1879W        W 5943   8.774   3.850   1.007 -0.1913  0.1480 -0.1235
 1880W        W 5944   8.252   4.656   2.773  0.3318 -0.1849  0.1713
 1881W        W 5945   4.649   5.931  11.477  0.0131 -0.1767 -0.1256
 1882W        W 5946   2.112   2.997   0.270 -0.0505 -0.2994  0.0535
 1883W        W 5947   9.965   4.929  10.468 -0.2378 -0.1750  0.4579
 1884W        W 5948   0.450   8.933   1.628 -0.0077  0.2280 -0.3343
 1885W        W 5949   8.996   1.750  10.229 -0.2194  0.1748 -0.1470
 1886W        W 5950   8.444   7.515   2.092  0.0796 -0.2803  0.0031
 1887W        W 5951   4.833   0.830   2.600  0.0675 -0.1072 -0.0098
 1888W        W 5952   2.930   3.211  10.944 -0.3693 -0.1870 -0.0562
 1889W        W 5953   1.265   3.330   0.560  0.0258  0.3037  0.1827
 1890W        W 5954   5.160   0.316   8.741  0.0084  0.0507 -0.1749
 1891W        W 5955   0.703   3.925   8.708 -0.0264 -0.1818  0.0990
 1892W        W 5956   6.192   0.211   0.595 -0.0849  0.1919  0.1734
 1893W        W 5957   9.413   8.313  11.196  0.0558 -0.0959  0.0175
 1894W        W 5958   8.461   1.491   8.645 -0.3111 -0.3049 -0.1472
 1895W        W 5959  10.254   9.785   7.835 -0.0914 -0.0645 -0.0890
 1896W        W 5960   5.303   1.818   0.336 -0.2325 -0.6156 -0.2642
 1897W        W 5961   2.260   7.778   0.445 -0.3006  0.5314  0.1149
 1898W        W 5962   8.778   5.246   9.579  0.3635 -0.1985 -0.2088
 1899W        W 5963   6.835   3.823  10.758  0.2998  0.2843  0.1510
 1900W        W 5964   8.918   2.315   8.840 -0.0537 -0.0300 -0.1524
 1901W        W 5965   1.087   4.957  10.345  0.1637 -0.1264 -0.1101
 1902W        W 5966   8.540   3.365   1.700 -0.0435  0.0142 -0.3128
 1903W        W 5967   1.060   3.994   3.650 -0.0846 -0.1880  0.0228
 1904W        W 5968   8.003   7.903   0.757 -0.0119 -0.2051  0.1302
 1905W        W 5969   9.906   7.393   0.592 -0.0247  0.2159 -0.0070
 1906W        W 5970   8.930   4.409  10.618  0.3874 -0.0318 -0.0180
 1907W        W 5971   4.151   1.506   2.426  0.2161  0.1506  0.3715
 1908W        W 5972   3.180   4.701  11.413  0.1454 -0.0414 -0.1269
 1909W        W 5973   2.598   7.392   0.435  0.0656  0.0306 -0.2271
 1910W        W 5974   8.971   1.446   8.807 -0.1105  0.1592  0.0434
 1911W        W 5975   8.804   5.424  10.323  0.1494  0.2267  0.2219
 1912W        W 5976   4.220   9.694   8.522 -0.2835 -0.2097 -0.1782
 1913W        W 5977   5.330   5.167   0.474  0.2041  0.3309 -0.2206
 1914W        W 5978   5.328   3.386   2.356 -0.1652  0.0582 -0.2653
 1915W        W 5979   0.081   9.088   0.588 -0.0793  0.0335  0.2646
 1916W        W 5980   8.606   2.682   9.825 -0.1088 -0.2817  0.0803
 1917W        W 5981   3.378   8.868   1.368 -0.0574  0.3591 -0.0438
 1918W        W 5982  10.603   3.483   8.990  0.4644 -0.2170 -0.4335
 1919W        W 5983   6.875   6.158   9.156 -0.0956 -0.1818  0.1336
 1920W        W 5984   5.716  10.624   0.289  0.2071 -0.2100 -0.0945
 1921W        W 5985   6.848   7.240   2.554 -0.3231  0.4502  0.3298
 1922W        W 5986   6.202   4.933  10.458  0.0535 -0.6124 -0.0667
 1923W        W 5987   4.474   5.964   2.019 -0.1376  0.4482 -0.0640
 1924W        W 5988   7.403   0.104   8.536 -0.0572  0.3115 -0.0131
 1925W        W 5989  10.641   6.435   1.424  0.3079 -0.1677  0.0755
 1926W        W 5990   4.435   8.572   0.063  0.0367 -0.2069  0.0630
 1927W        W 5991  10.530   9.214   8.764  0.0166  0.0002  0.0633
 1928W        W 5992   8.711   6.905   1.963  0.2195  0.2728  0.3308
 1929W        W 5993   0.553   6.282   2.229  0.1187 -0.1191 -0.0540
 1930W        W 5994  10.419   8.642  10.183  0.0235  0.0089 -0.0777
 1931W        W 5995   6.932  10.012   7.985  0.0981  0.0906  0.2379
 1932W        W 5996   5.749   2.353   0.919 -0.1788  0.0030 -0.3624
 1933W        W 5997   8.495   7.061  10.337  0.1820  0.1672 -0.0865
 1934W        W 5998   5.263   8.335   9.955 -0.1334  0.4266  0.1116
 1935W        W 5999   4.098   6.080   7.741 -0.1015 -0.3151 -0.1559
 1936W        W 6000   2.285   7.522   0.890 -0.3011 -0.1857  0.2292
 1937W        W 6001   5.758   8.303   8.879 -0.3100 -0.0106  0.3436
 1938W        W 6002   7.992   4.317   9.756 -0.0569 -0.0515  0.0086
 1939W        W 6003   9.621   7.433   8.552  0.3965  0.1742 -0.0955
 1940W        W 6004   0.705   1.350  10.353  0.2736  0.3044  0.3619
 1941W        W 6005  10.384   9.371   0.710 -0.1454 -0.0513  0.1381
 1942W        W 6006   7.678   0.205   2.202 -0.1154  0.1908 -0.1551
 1943W        W 6007   5.024   6.335  11.557  0.0249  0.0537 -0.2310
 1944W        W 6008   5.976  10.251  11.324 -0.2529 -0.0207 -0.1351
 1945W        W 6009   8.494   8.773   8.292 -0.1339 -0.0644 -0.2479
 1946W        W 6010   0.824  10.441   1.575  0.1718  0.2442  0.0380
 1947W        W 6011   0.665   1.393   9.446  0.0009 -0.1411  0.0285
 1948W        W 6012   5.041   4.937   9.675  0.0411 -0.5698 -0.3638
 1949W        W 6013   3.653   1.465   3.033 -0.0201 -0.1586  0.1312
 1950W        W 6014   5.525   6.102   8.957 -0.0008  0.1143  0.0843
 1951W        W 6015   7.512   5.480  10.058  0.3817  0.0551  0.0097
 1952W        W 6016   8.548   6.851   9.534  0.2228  0.2755  0.0770
 1953W        W 6017   0.061   4.821   8.081  0.2575  0.1519  0.0779
 1954W        W 6018  10.164   0.779  10.746  0.0604  0.1499  0.1723
 1955W        W 6019   9.987   5.018   9.939  0.1826  0.0072 -0.2035
 1956W        W 6020   1.256   0.006   7.834  0.1198 -0.0298  0.2330
 1957W        W 6021   7.084   2.454   0.906 -0.0360  0.0451 -0.2163
 1958W        W 6022   4.442   0.556   9.123 -0.0384 -0.0181 -0.0203
 1959W        W 6023   6.674   2.706   0.320 -0.3567 -0.1414 -0.1897
 1960W        W 6024   9.872   5.996   1.617 -0.0415 -0.0884 -0.1392
 1961W        W 6025   9.915   5.491   8.258 -0.1469  0.0599  0.0526
 1962W        W 6026  10.004   4.046   8.602 -0.1354  0.0126 -0.1408
 1963W        W 6027   5.958   9.762  10.952  0.1051 -0.1261 -0.0290
 1964W        W 6028   2.483   7.339   1.350 -0.1131 -0.0080 -0.3254
 1965W        W 6029   5.529   6.912   2.971 -0.1252 -0.4702 -0.1062
 1966W        W 6030   3.396  10.619   7.988 -0.1054  0.1045 -0.0964
 1967W        W 6031   0.147   2.371   1.800  0.1127  0.0153  0.2238
 1968W        W 6032   3.396   8.503   9.684  0.0448 -0.4547  0.0322
 1969W        W 6033   5.851   8.335   1.616 -0.0337 -0.1252 -0.3751
 1970W        W 6034   8.124   0.772   3.338 -0.0213  0.1550  0.2251
 1971W        W 6035   1.517   8.550   8.835 -0.3487  0.0540  0.0167
 1972W        W 6036   8.097   2.727   9.783  0.1405 -0.1208  0.3043
 1973W        W 6037   4.785   4.642   1.235  0.0401  0.1971 -0.0069
 1974W        W 6038   4.288   2.539   2.471  0.0525  0.1069 -0.4326
 1975W        W 6039  10.394  10.516   8.233  0.0425 -0.0652  0.1479
 1976W        W 6040   2.641   6.170   3.857 -0.0462  0.0562 -0.0646
 1977W        W 6041   8.776   1.271  10.382  0.1127  0.1125  0.0178
 1978W        W 6042   2.115   5.992   8.216 -0.0798 -0.1344  0.0222
 1979W        W 6043   9.468   9.510   2.170  0.1707 -0.3783  0.0248
 1980W        W 6044   0.087  10.342   7.815  0.1376 -0.1751  0.1939
 1981W        W 6045   3.312   8.653   8.751 -0.2127  0.0904  0.3054
 1982W        W 6046   6.644   4.442   0.813 -0.0295  0.0412  0.1574
 1983W        W 6047   9.832   9.925   9.819 -0.1564 -0.3377 -0.0365
 1984W        W 6048   6.326   4.330   3.821 -0.3372 -0.1206  0.4605
 1985W        W 6049   0.250   7.937  10.363 -0.3221 -0.2034  0.0536
 1986W        W 6050   5.217   7.366  11.476  0.1072 -0.0144  0.2133
 1987W        W 6051   5.823   2.380  10.185 -0.0504 -0.2022 -0.1155
 1988W        W 6052   7.942   2.953   9.278  0.2276  0.2131 -0.2806
 1989W        W 6053   0.215   1.465   1.259  0.6341 -0.0066 -0.0954
 1990W        W 6054   5.973   3.182   0.496 -0.1030  0.1020 -0.1334
 1991W        W 6055  10.166   6.500   2.287  0.1993 -0.2199 -0.2956
 1992W        W 6056   8.300   4.035   0.392  0.3632 -0.0967 -0.0612
 1993W        W 6057   2.237   6.866   1.545 -0.2057  0.0458 -0.2246
 1994W        W 6058   0.659   7.589   2.796 -0.0034  0.0952  0.2116
 1995W        W 6059   4.955   4.257   8.461  0.1061 -0.1503  0.1798
 1996W        W 6060   5.628   5.044   7.780 -0.3433 -0.0909 -0.2160
 1997W        W 6061  10.501   4.157   2.592 -0.2817  0.0791  0.0127
 1998W        W 6062   3.851   8.833   3.729  0.2890  0.0021  0.4144
 1999W        W 6063   2.201   5.049   7.397  0.0516 -0.0829 -0.3291
 2000W        W 6064   9.936   3.500   2.079  0.0244  0.0513  0.0119
 2001W        W 6065   7.724   9.146   8.903 -0.2620 -0.1154  0.0306
 2002W        W 6066   1.307   6.900   1.744  0.3192  0.1252  0.2331
 2003W        W 6067  10.371   1.399   1.187 -0.1143  0.0604 -0.1411
 2004W        W 6068   0.009   8.957   9.645  0.3183  0.0943 -0.0117
 2005W        W 6069   3.506   1.252  10.874 -0.3071 -0.2886  0.1651
 2006W        W 6070   0.574   9.356  10.827  0.2383  0.0723  0.3394
 2007W        W 6071   1.464   1.483  11.016  0.0185  0.0662 -0.2542
 2008W        W 6072   3.790   8.853   8.578  0.1168  0.1973  0.0963
 2009W        W 6073   8.280   3.857   3.222  0.2726 -0.0928 -0.0313
 2010W        W 6074   1.760   4.799   9.522 -0.1826 -0.1341 -0.2842
 2011W        W 6075   4.077   3.310   7.978 -0.0055  0.0488  0.1905
 2012W        W 6076   1.123  10.236   9.421 -0.1427  0.1618  0.0469
 2013W        W 6077  10.015   5.854   2.474  0.1501 -0.1799  0.2658
 2014W        W 6078   1.264   7.848   2.671  0.0278  0.1134 -0.1941
 2015W        W 6079   7.536   7.833   0.673  0.2691 -0.0871  0.1219
 2016W        W 6080   3.829   4.452  10.309  0.2598 -0.5014  0.0895
 2017W        W 6081   1.779   1.985   9.713  0.2490  0.0442 -0.1059
 2018W        W 6082   4.056   2.801   8.158  0.0801  0.1968 -0.2947
 2019W        W 6083   6.952   3.109   0.300 -0.0500 -0.1693  0.0070
 2020W        W 6084   6.397   1.870   1.957 -0.3383  0.0418 -0.1561
 2021W        W 6085   6.968   5.357  10.244 -0.2264 -0.2582 -0.0683
 2022W        W 6086   8.807   6.013   1.183  0.2477  0.0835  0.3653
 2023W        W 6087   1.222   2.001   1.042 -0.1225 -0.3685  0.0609
 2024W        W 6088   0.987   0.008   8.285 -0.3988 -0.0990  0.1510
 2025W        W 6089  10.415   5.286   1.383  0.1128  0.1352 -0.5012
 2026W        W 6090  10.644   8.138   0.681 -0.0795  0.0377 -0.1799
 2027W        W 6091   5.810   6.578   0.975 -0.1055 -0.1957  0.3604
 2028W        W 6092   8.724   4.876   0.712  0.1758 -0.0482 -0.1451
 2029W        W 6093   1.580   8.980   8.582  0.3453 -0.1850  0.1132
 2030W        W 6094   6.998   7.939   0.330 -0.3330  0.1196  0.0256
 2031W        W 6095   6.141   8.643  10.946  0.0574  0.1152  0.0159
 2032W        W 6096  10.553   1.921   9.170 -0.0084  0.2384  0.1538
 2033W        W 6097   8.652   9.566   0.280 -0.1983 -0.2643  0.2031
 2034W        W 6098   4.493   2.740   9.263 -0.4060  0.0551  0.1518
 2035W        W 6099  10.129   2.697   4.550  0.1717 -0.1406 -0.2039
 2036W        W 6100   2.300   3.498   9.648  0.4983  0.2159 -0.0018
 2037W        W 6101  10.587   3.150  10.691  0.0057 -0.0491 -0.2128
 2038W        W 6102   7.608   3.457   0.123 -0.0717  0.0342 -0.0680
 2039W        W 6103   9.240   0.514  10.049 -0.1021  0.1652 -0.0891
 2040W        W 6104   0.633   9.827   3.261 -0.0918 -0.1656  0.1323
 2041W        W 6105   7.719   7.212  10.982  0.4159  0.1176  0.0995
 2042W        W 6106  10.024   1.228   0.391 -0.0791  0.2644 -0.0121
 2043W        W 6107   4.028   8.416  10.825  0.2761  0.4184 -0.2199
 2044W        W 6108   0.212   2.646  10.774  0.1620  0.2301  0.0105
 2045W        W 6109   6.731   9.475  11.190 -0.0423  0.2691 -0.2295
 2046W        W 6110   3.217   0.365  11.248 -0.0354 -0.0193 -0.0477
 2047W        W 6111   3.227   4.386   0.735  0.4751 -0.0078 -0.0445
 2048W        W 6112   2.942   5.970   3.417  0.1164  0.0129 -0.2112
 2049W        W 6113   5.462   4.993   0.928 -0.0624 -0.0330 -0.2653
 2050W        W 6114   2.320   9.350   2.250 -0.1301 -0.2024  0.1153
 2051W        W 6115   0.198   5.459  10.314 -0.1629  0.0015  0.3921
 2052W        W 6116   1.874   4.113   9.746 -0.1536 -0.0850 -0.1811
 2053W        W 6117   5.586   5.384   0.054  0.0470 -0.0099 -0.1340
 2054W        W 6118   9.257   1.393  10.549  0.0789 -0.0403 -0.0781
 2055W        W 6119   2.455   2.393   0.457  0.0397  0.2492 -0.1494
 2056W        W 6120   8.347   7.394   8.912  0.1126 -0.4486  0.0076
 2057W        W 6121   2.308   5.445   8.966 -0.1575  0.1910 -0.0023
 2058W        W 6122   5.303   4.826  10.671 -0.1896 -0.2044 -0.1317
 2059W        W 6123   4.179   9.228   8.695  0.1886  0.0816  0.0811
 2060W        W 6124   9.422   2.769   1.293 -0.2775  0.1248 -0.2917
 2061W        W 6125   4.178   5.937   0.166 -0.0319  0.5139  0.4022
 2062W        W 6126   5.223   2.614   9.596 -0.0166 -0.1350 -0.0669
 2063W        W 6127   9.366   6.806   1.338  0.0512  0.1078  0.0135
 2064W        W 6128   6.059   2.457   9.313  0.1324 -0.0079  0.0312
 2065W        W 6129   9.450   3.081   2.641 -0.0412 -0.1302  0.0955
 2066W        W 6130   7.397   2.617   1.708 -0.2064  0.0260 -0.0118
 2067W        W 6131   2.530   8.946   0.487  0.1465 -0.0916 -0.1626
 2068W        W 6132   7.153   9.318   0.234 -0.1553  0.2889  0.2861
 2069W        W 6133   9.092   9.859   8.781  0.2913  0.1963 -0.2091
 2070W        W 6134   6.634   0.193   0.877  0.2757 -0.2883 -0.1692
 2071W        W 6135   7.307   7.395   8.367  0.0989 -0.1995 -0.2400
 2072W        W 6136   2.316   6.027  11.026  0.2232 -0.1883  0.3251
 2073W        W 6137  10.026   1.694   7.952 -0.2942 -0.0013 -0.1546
 2074W        W 6138   4.783   9.514  11.148 -0.0437 -0.3010 -0.3086
 2075W        W 6139   6.772   4.869   8.563  0.1908 -0.2022  0.0299
 2076W        W 6140   6.457   2.035   7.245 -0.4787  0.0666 -0.1331
 2077W        W 6141   1.062  10.358   2.286 -0.0363  0.1411  0.0476
 2078W        W 6142   2.973   3.061   8.103  0.0265  0.0108  0.0724
 2079W        W 6143   0.964   8.351   0.943 -0.0976 -0.0809 -0.1909
 2080W        W 6144   8.695   1.415   7.880 -0.3955  0.0632  0.0148
 2081W        W 6145   4.779   8.331   2.096  0.2103 -0.2722  0.0779
 2082W        W 6146   6.004   9.001   8.119 -0.2068  0.1803 -0.1282
 2083W        W 6147   0.914   8.727   2.431 -0.3523 -0.3034 -0.1068
 2084W        W 6148   6.254   7.757   7.722  0.2774 -0.1394  0.1510
 2085W        W 6149   0.816   0.914   7.675  0.1456  0.0376  0.0119
 2086W        W 6150   1.049   9.403  10.559 -0.0118  0.0153 -0.1089
 2087W        W 6151   0.067   3.412   2.926 -0.0736 -0.0432 -0.1971
 2088W        W 6152   0.648  10.418   9.171  0.1532  0.0915 -0.0478
 2089W        W 6153   3.550   9.085   8.960 -0.1254  0.0257 -0.1284
 2090W        W 6154   1.826   6.428  10.671  0.1764  0.3971  0.0790
 2091W        W 6155   1.892   9.090   9.367  0.3135 -0.1371  0.1927
 2092W        W 6156   9.593   6.368   1.083  0.1091 -0.0072 -0.2369
 2093W        W 6157   8.633   9.915   9.106 -0.2157  0.0728 -0.6455
 2094W        W 6158   4.350   8.732   4.094  0.3428 -0.1700 -0.3064
 2095W        W 6159   8.914   4.264  11.099 -0.1450 -0.0688 -0.0205
 2096W        W 6160   4.376   3.625  10.158  0.3497 -0.5375 -0.0352
 2097W        W 6161   8.975   7.778   1.937  0.2185 -0.4004  0.2316
 2098W        W 6162   8.278   9.898  10.952 -0.0373 -0.1486  0.0483
 2099W        W 6163   2.755   3.531   2.087  0.0094  0.2239  0.0050
 2100W        W 6164   2.504  10.109   1.195 -0.2534 -0.3508  0.1479
 2101W        W 6165   7.404   0.133  10.258  0.2950 -0.2256  0.0413
 2102W        W 6166  10.219   6.289   9.742 -0.2699 -0.0250 -0.0182
 2103W        W 6167   1.289   3.948   7.511 -0.4686 -0.1116  0.4366
 2104W        W 6168   1.145  10.073   1.421  0.0116  0.1569  0.1977
 2105W        W 6169   1.483   1.548  11.506 -0.2290 -0.2994  0.3201
 2106W        W 6170   2.580   4.155   7.991 -0.1909  0.0567  0.0042
 2107W        W 6171   3.792   5.714   7.803  0.0559 -0.3182 -0.1015
 2108W        W 6172   5.367   3.539   0.838 -0.1934 -0.1160 -0.4068
 2109W        W 6173   4.135   0.999   8.383 -0.0423  0.0623 -0.2303
 2110W        W 6174  10.319   0.458  10.051 -0.1777 -0.1857 -0.2136
 2111W        W 6175   8.330   8.673  10.119  0.1451 -0.2654 -0.0416
 2112W        W 6176   8.207   1.697   9.085 -0.2066 -0.0355 -0.2631
 2113W        W 6177   3.084   0.802  11.052 -0.2214  0.4556  0.1069
 2114W        W 6178   3.946   5.431  10.657 -0.3185  0.2001  0.1659
 2115W        W 6179   6.458   0.008  10.502 -0.0142 -0.1376  0.0980
 2116W        W 6180   5.819   4.136   0.028 -0.0122  0.1906  0.1801
 2117W        W 6181   5.377   5.755   2.311  0.1397 -0.0484 -0.1274
 2118W        W 6182   8.164   1.224   1.014  0.0704  0.0046 -0.1042
 2119W        W 6183   4.094   7.853  11.230  0.1924  0.1832 -0.0656
 2120W        W 6184   2.105   0.900   7.565  0.3226 -0.4128 -0.0977
 2121W        W 6185   3.315   5.744  11.148  0.1971  0.2032 -0.0544
 2122W        W 6186   9.258   4.226   2.338  0.1669  0.1914  0.0013
 2123W        W 6187   6.698   1.532   0.699 -0.0290 -0.0704 -0.5340
 2124W        W 6188   9.495   8.790  11.239 -0.0951  0.0211  0.0622
 2125W        W 6189   7.512   4.856   1.051 -0.2138 -0.1532 -0.0982
 2126W        W 6190   3.601   3.567   2.421  0.2186  0.0763 -0.0734
 2127W        W 6191   5.656   4.796  10.313 -0.1299  0.3042 -0.0071
 2128W        W 6192   9.414   7.316  10.355 -0.2543  0.0599 -0.0214
 2129W        W 6193   4.508   5.484   2.528  0.1943 -0.0248 -0.0482
 2130W        W 6194   1.354  10.325   0.555  0.0326 -0.1469  0.0901
 2131W        W 6195   4.850   3.452   2.030  0.1980 -0.0571  0.1722
 2132W        W 6196   0.039   1.186  10.793 -0.0388  0.0250 -0.1654
 2133W        W 6197   3.406   2.775   9.100 -0.1811  0.0009  0.0490
 2134W        W 6198   2.999  10.619   4.059 -0.0757 -0.3939  0.0119
 2135W        W 6199   4.682   0.066   0.186 -0.0257 -0.1039  0.1803
 2136W        W 6200   3.094   6.419   8.838  0.0620 -0.2285 -0.3990
 2137W        W 6201   6.226   1.571  10.412  0.0257 -0.0888  0.0599
 2138W        W 6202   8.943   2.448   3.591  0.0646  0.0557  0.0207
 2139W        W 6203   9.523   9.614  10.970 -0.0438  0.1977 -0.2710
 2140W        W 6204  10.054  10.376   1.034 -0.0619 -0.0944 -0.2321
 2141W        W 6205   3.941   6.433   8.790 -0.1674  0.1182  0.0200
 2142W        W 6206   0.065   0.213   2.565 -0.1084 -0.1141 -0.4593
 2143W        W 6207   3.323  10.516   1.662  0.0126  0.0460 -0.1037
 2144W        W 6208  10.481   3.567  11.550  0.1620 -0.0271  0.0597
 2145W        W 6209   6.343   2.958  10.875  0.0150 -0.0090  0.1154
 2146W        W 6210   2.092   8.680  10.295 -0.3645 -0.1983 -0.4192
 2147W        W 6211  10.627   0.827   8.244 -0.2919  0.0401  0.0842
 2148W        W 6212   8.548   3.957  10.907  0.2300  0.0586  0.0216
 2149W        W 6213   0.379   4.822   1.709 -0.1720  0.1373 -0.1661
 2150W        W 6214   3.919   5.413   9.580 -0.0847  0.0569  0.1812
 2151W        W 6215   1.136   6.226   0.946 -0.0548 -0.3012 -0.0785
 2152W        W 6216   0.978   6.292   8.592  0.1123 -0.0367  0.0518
 2153W        W 6217   5.248   0.871   1.787  0.0193 -0.1238  0.0684
 2154W        W 6218   9.959   4.959   0.392 -0.0754  0.0237  0.2478
 2155W        W 6219   7.649   8.333   0.754 -0.2937  0.0274 -0.1678
 2156W        W 6220  10.134   0.191   0.264 -0.0537 -0.0811  0.1168
 2157W        W 6221   2.653   6.853   0.412 -0.4051  0.1133 -0.0520
 2158W        W 6222   8.046   6.228   9.887  0.2318  0.2506 -0.0351
 2159W        W 6223   5.972  10.240   7.921  0.3289  0.2736  0.2569
 2160W        W 6224   1.760   9.081   2.204 -0.0474 -0.1497 -0.0122
 2161W        W 6225   0.532   1.754  11.434 -0.1055  0.4227  0.0420
 2162W        W 6226   1.283   7.233   0.341 -0.0845  0.2819 -0.3196
 2163W        W 6227   5.058   6.079   0.500  0.0807 -0.1594 -0.0200
 2164W        W 6228   7.278   2.761   0.321  0.0228  0.2018  0.1918
 2165W        W 6229   0.657   7.529   1.862  0.1853 -0.1504 -0.2804
 2166W        W 6230   6.260   1.154  11.029 -0.0110 -0.1093  0.1275
 2167W        W 6231   6.346   8.110   7.355 -0.1976 -0.3145  0.1670
 2168W        W 6232   6.773   0.430   9.848 -0.1014 -0.2657  0.3541
 2169W        W 6233   3.226   6.098  11.454 -0.1811 -0.1462  0.0161
 2170W        W 6234   1.725   7.790   0.697  0.1684 -0.0155  0.0534
 2171W        W 6235   2.134   4.550   9.979  0.0207 -0.1169  0.4530
 2172W        W 6236   6.364   5.225   2.667  0.0933 -0.0145 -0.1477
 2173W        W 6237   7.949   5.687  11.052 -0.4282  0.1129  0.0552
 2174W        W 6238   8.161   2.788   2.286  0.0780 -0.2672  0.1238
 2175W        W 6239   4.760  10.344   7.389 -0.0274  0.1168  0.1027
 2176W        W 6240   1.952   7.052   2.867 -0.1180 -0.0674  0.0497
 2177W        W 6241   0.324   1.933   2.066  0.1745 -0.1037 -0.0912
 2178W        W 6242   8.749   2.011   3.475 -0.1600  0.0839  0.1958
 2179W        W 6243   7.413   3.094   9.325 -0.0669 -0.2202  0.0832
 2180W        W 6244   2.720   3.520   8.262 -0.0765 -0.0317  0.2435
 2181W        W 6245   7.227   5.965   2.004 -0.0421 -0.1167 -0.1170
 2182W        W 6246   7.616   7.739   8.560  0.1299 -0.1265 -0.1580
 2183W        W 6247   7.976   8.924  11.518  0.2196  0.0865 -0.0064
 2184W        W 6248   3.981   2.315   0.330 -0.0819  0.0848 -0.2809
 2185W        W 6249   5.989   4.960   8.210  0.0120 -0.2115  0.0773
 2186W        W 6250   3.605   3.492   1.883 -0.2321 -0.1870 -0.0652
 2187W        W 6251   6.036   9.737   3.229  0.1752  0.3311  0.1619
 2188W        W 6252   2.788   2.870  11.303  0.0124 -0.2054 -0.2434
 2189W        W 6253   1.422   2.847   3.029  0.2546  0.1611 -0.2141
 2190W        W 6254   3.718   8.304   8.593  0.3577  0.1765 -0.0137
 2191W        W 6255   7.371   3.312   9.879  0.1529 -0.0762 -0.2471
 2192W        W 6256   5.971  10.351   6.895  0.0825 -0.0801  0.1416
 2193W        W 6257   2.413   3.241   2.257  0.0327 -0.3546  0.2764
 2194W        W 6258   2.838   5.688   3.034  0.1602  0.1928  0.0987
 2195W        W 6259   2.288   2.451  11.115 -0.1098 -0.4985 -0.0279
 2196W        W 6260  10.097   6.301   1.254  0.2369 -0.5412 -0.1587
 2197W        W 6261   1.566   6.068   2.123  0.1697  0.0153  0.3287
 2198W        W 6262   6.806   5.917   1.786  0.0758  0.2575 -0.2443
 2199W        W 6263   6.947   0.997   0.768 -0.1877 -0.0054  0.0789
 2200W        W 6264   2.677   5.167   9.809  0.0490  0.1940  0.0260
 2201W        W 6265   5.115   3.600   9.222  0.4977 -0.0944  0.0402
 2202W        W 6266   2.616   1.011   2.178  0.1626  0.4026  0.0812
 2203W        W 6267   1.062   7.699   3.113  0.2032  0.2726  0.0330
 2204W        W 6268   6.980   7.681  10.762 -0.2055  0.1949  0.0295
 2205W        W 6269   7.192   1.112   3.581  0.1678 -0.3446  0.2594
 2206W        W 6270   8.712   3.087   8.039 -0.0563 -0.0632  0.0451
 2207W        W 6271   2.499   5.313   2.872 -0.0758  0.3158 -0.1876
 2208W        W 6272   8.534   4.175   9.918  0.1941 -0.0162 -0.2434
 2209W        W 6273   3.280   2.662  11.408 -0.0323  0.2297 -0.2374
 2210W        W 6274   7.208   0.466  10.638  0.1199  0.4127  0.2280
 2211W        W 6275   5.583   2.513   2.723 -0.1514  0.0860 -0.0820
 2212W        W 6276   4.651   7.076  10.574  0.2128 -0.0648  0.2973
 2213W        W 6277   0.998   5.276  10.781 -0.0156  0.2082  0.0771
 2214W        W 6278  10.363  10.133   1.325  0.0678 -0.2523 -0.0445
 2215W        W 6279   8.263   2.437  10.724  0.1447 -0.2777 -0.1517
 2216W        W 6280   4.409   7.603   0.012 -0.1655  0.2069  0.0210
 2217W        W 6281   6.468   6.804   7.577 -0.1233  0.0074 -0.0138
 2218W        W 6282   5.681   9.672  10.079  0.1588 -0.1684  0.0403
 2219W        W 6283   9.485   9.085   1.352 -0.0209  0.0408 -0.0890
 2220W        W 6284  10.336   1.030   4.277 -0.3352 -0.0534 -0.1317
 2221W        W 6285  10.283  10.176   9.662  0.3440 -0.0017 -0.0383
 2222W        W 6286   0.452   6.995   8.581  0.2906 -0.3766  0.0711
 2223W        W 6287   6.195   3.486   9.723  0.1495 -0.0544 -0.1607
 2224W        W 6288   6.239   6.376   0.161  0.0366  0.1407  0.2041
 2225W        W 6289   3.385   1.478   2.111  0.1069 -0.2045  0.1477
 2226W        W 6290   7.167   3.340   1.078 -0.3624  0.2673  0.2543
 2227W        W 6291   2.685   7.983   3.298 -0.2292  0.0524 -0.1881
 2228W        W 6292   3.032   2.368  10.099 -0.1092 -0.4420 -0.1365
 2229W        W 6293   4.722   2.503   0.870  0.0970  0.1585  0.1376
 2230W        W 6294   3.030   5.127   0.554  0.0331  0.0819 -0.1372
 2231W        W 6295   7.488   6.975   8.517  0.0758 -0.2522  0.0306
 2232W        W 6296   2.776   1.321   1.789 -0.1398  0.1745  0.2335
 2233W        W 6297   2.108   8.865   3.909 -0.0379 -0.0368 -0.2352
 2234W        W 6298   2.692   0.809   0.879  0.3714  0.3495  0.1643
 2235W        W 6299   0.639   7.875   1.434  0.2149  0.0256  0.0677
 2236W        W 6300   0.467   1.913  10.903 -0.0346  0.2513 -0.0909
 2237W        W 6301   7.117   7.540   2.256  0.0244 -0.2357  0.1867
 2238W        W 6302  10.273   4.853   9.097 -0.0657 -0.1718 -0.0659
 2239W        W 6303   1.258   0.392   3.421  0.3678 -0.0198  0.0485
 2240W        W 6304   5.924  10.334   0.869  0.0108 -0.1800  0.0739
 2241W        W 6305   4.432   7.154   8.810 -0.0769 -0.2211 -0.0295
 2242W        W 6306   0.400   3.442   0.419  0.0611  0.1982  0.0589
 2243W        W 6307   3.585   4.792   8.579 -0.2487 -0.0918 -0.2802
 2244W        W 6308   3.154   7.229   9.522 -0.1889 -0.2265 -0.0606
 2245W        W 6309   6.437   8.294   8.386 -0.3960 -0.0242  0.2258
 2246W        W 6310   7.927   5.266   2.154 -0.3447  0.1406  0.0995
 2247W        W 6311   8.943   2.738   8.634  0.2035 -0.1265  0.2779
 2248W        W 6312   4.427   3.512   0.195  0.2674 -0.0021  0.1794
 2249W        W 6313   4.149   3.383   1.149 -0.0339 -0.3409 -0.2470
 2250W        W 6314   5.845   7.731  10.824  0.1653 -0.1863  0.0897
 2251W        W 6315   3.183   9.202   9.280  0.0697 -0.1541  0.1181
 2252W        W 6316   2.695   5.021   8.172 -0.3671 -0.3065 -0.2124
 2253W        W 6317   0.019   1.890   0.070  0.3646 -0.1044  0.2162
 2254W        W 6318   6.904   8.725   2.662 -0.3418  0.0679  0.0296
 2255W        W 6319   9.700   9.931   2.115 -0.0686  0.1573  0.0007
 2256W        W 6320   7.770   0.321  10.593  0.1890 -0.2058 -0.0796
 2257W        W 6321   0.758   6.141   9.043 -0.0295 -0.1709  0.2330
 2258W        W 6322   1.555   9.320   9.016  0.0542  0.0327  0.0260
 2259W        W 6323   1.895   4.452  10.873  0.1586  0.1402 -0.4167
 2260W        W 6324   7.691  10.022   1.928  0.3740  0.0971  0.0138
 2261W        W 6325   3.203   1.357   1.395  0.0897 -0.1660  0.2549
 2262W        W 6326   8.673   4.189   1.394 -0.2868  0.0830  0.0331
 2263W        W 6327  10.317   2.223  10.605  0.0942  0.0471 -0.0364
 2264W        W 6328   0.271   9.733   2.915 -0.0831  0.0210  0.1997
 2265W        W 6329   8.403   6.433   8.716 -0.2300 -0.0329  0.0563
 2266W        W 6330   5.913   5.506   3.305  0.1901  0.0052  0.1779
 2267W        W 6331   1.376   5.295   0.813 -0.0541  0.0902 -0.1238
 2268W        W 6332   8.752   2.150  10.021 -0.1851  0.1400  0.2620
 2269W        W 6333   7.070   6.715   8.901  0.1969  0.0589  0.3842
 2270W        W 6334   0.521   3.158   1.735  0.2169  0.2097  0.2935
 2271W        W 6335   4.047  10.337   1.223  0.2455 -0.1544  0.0080
 2272W        W 6336   6.282   9.819   8.136  0.1444 -0.3680 -0.2823
 2273W        W 6337   6.795   3.180   7.683  0.0606 -0.2683  0.1256
 2274W        W 6338   2.328   0.728   2.453  0.2662  0.3440  0.0788
 2275W        W 6339   9.565   3.910   8.439 -0.0595 -0.1218 -0.1850
 2276W        W 6340   6.433   9.738   2.711 -0.0882 -0.0695  0.2759
 2277W        W 6341   0.854  10.288   0.460 -0.1190 -0.1015 -0.0087
 2278W        W 6342   9.350   1.299   9.586 -0.4321  0.1795  0.2794
 2279W        W 6343   2.357   6.692   9.332  0.0606 -0.0190 -0.2037
 2280W        W 6344   2.034   2.762   0.740  0.0780 -0.2604 -0.1295
 2281W        W 6345   1.723   2.796   1.695 -0.3609  0.2733 -0.0459
 2282W        W 6346   4.153   1.724   0.304 -0.1374 -0.2484  0.1527
 2283W        W 6347   0.912   1.304   2.400 -0.1300  0.0040  0.1349
 2284W        W 6348   5.756   4.919   0.428  0.2738  0.2394 -0.0753
 2285W        W 6349  10.303   1.695   1.610 -0.0047 -0.4273  0.5441
 2286W        W 6350   5.125   6.726  10.685  0.1371  0.1501  0.0329
 2287W        W 6351   5.081   2.163   9.322  0.1057 -0.0379  0.1616
 2288W        W 6352   4.297   0.425   1.825 -0.0372 -0.1791 -0.1025
 2289W        W 6353   2.298   9.085   2.702 -0.0266  0.4363  0.1923
 2290W        W 6354   7.355   9.983   3.373 -0.2005  0.0302 -0.1940
 2291W        W 6355   9.256   2.077   2.730  0.2286  0.1903 -0.4146
 2292W        W 6356   8.474   5.793  11.121  0.1489 -0.0987 -0.0014
 2293W        W 6357  10.081   2.097  11.551  0.2954 -0.2075  0.2965
 2294W        W 6358   7.922   6.269   8.819  0.2152  0.1520 -0.1541
 2295W        W 6359   8.566   2.836   3.634 -0.1650  0.0543 -0.0006
 2296W        W 6360   8.159   6.585   9.281 -0.3183 -0.1012  0.3432
 2297W        W 6361   9.744   1.905   1.351  0.2274 -0.1361 -0.4786
 2298W        W 6362   6.806   6.504   3.148 -0.1445  0.0971  0.3080
 2299W        W 6363  10.022   4.520   1.192 -0.0807 -0.2328  0.0592
 2300W        W 6364   6.700   9.646   0.539  0.1824 -0.0448  0.1926
 2301W        W 6365   3.532   5.254   2.816  0.0047  0.0150 -0.1291
 2302W        W 6366   6.421   6.892   9.587  0.4794  0.1237  0.1895
 2303W        W 6367  10.287   0.097   2.315 -0.1652 -0.1120  0.1282
 2304W        W 6368   3.228   5.201  11.282  0.0620  0.2279 -0.1606
 2305W        W 6369   6.206   5.655   9.095 -0.0570  0.1277 -0.3788
 2306W        W 6370   7.833   0.915   2.984  0.0423 -0.0506 -0.3736
 2307W        W 6371   2.113   4.841   1.860  0.0740 -0.2493 -0.2742
 2308W        W 6372   7.978   0.587   0.252 -0.2721  0.0059 -0.5210
 2309W        W 6373   9.731   4.663   9.701  0.0913  0.0788 -0.0453
 2310W        W 6374   2.822   1.380   0.295 -0.0527 -0.0042 -0.2095
 2311W        W 6375   1.857   3.412   1.194 -0.0562  0.1257 -0.0558
 2312W        W 6376   1.389   6.754   0.766  0.1815  0.1147 -0.1183
 2313W        W 6377   0.469  10.184   8.149  0.4790  0.1326  0.0890
 2314W        W 6378   4.319   2.067   0.809 -0.0529  0.0984  0.0138
 2315W        W 6379   6.947   1.498  10.421  0.1831  0.2462  0.0774
 2316W        W 6380   3.389   2.552   0.938  0.0385  0.0551  0.0281
 2317W        W 6381   1.549  10.236   1.021  0.0495  0.0932  0.2061
 2318W        W 6382   1.978   0.506   0.656 -0.1017  0.1894  0.2545
 2319W        W 6383   5.352   6.180   8.120  0.0967 -0.0507 -0.1617
 2320W        W 6384   8.337   9.272   9.743 -0.1777 -0.1528  0.0731
 2321W        W 6385  10.570   6.121   0.956  0.1469 -0.1813 -0.2761
 2322W        W 6386   4.176   6.692   3.326 -0.2131 -0.0564  0.0126
 2323W        W 6387   2.292   0.789   7.159  0.1426  0.2534  0.1537
 2324W        W 6388   4.165   8.034   1.316 -0.2269  0.0628  0.2660
 2325W        W 6389  10.343   0.005   8.771 -0.2623  0.0775  0.0005
 2326W        W 6390   6.941   2.397   6.882  0.0604  0.0280 -0.1404
 2327W        W 6391   3.401   4.860   9.044 -0.0953 -0.3617 -0.4845
 2328W        W 6392   6.170   7.502   3.618  0.1959 -0.2230 -0.1777
 2329W        W 6393   1.533   9.216   1.805  0.1141  0.1719  0.1933
 2330W        W 6394   0.333   7.426   0.520  0.1296 -0.2088 -0.0847
 2331W        W 6395   8.575   5.200   8.398 -0.1295 -0.1722 -0.2462
 2332W        W 6396   9.651  10.616   3.693  0.2197  0.2648  0.0794
 2333W        W 6397   1.827   0.241   2.027 -0.0480  0.2160  0.0829
 2334W        W 6398   4.560   9.094   9.040  0.1620  0.1839 -0.0110
 2335W        W 6399   1.281   7.292   9.736  0.4096  0.0066 -0.2660
 2336W        W 6400   3.955   1.354   4.093 -0.0717 -0.1291 -0.0943
 2337W        W 6401   4.297   0.412   9.602  0.2563  0.1439  0.1450
 2338W        W 6402   5.209   7.421   0.843 -0.4058 -0.1185 -0.1007
 2339W        W 6403   1.461   2.801   0.556 -0.0172  0.0899  0.0638
 2340W        W 6404   1.599   1.915   3.496 -0.1490 -0.4107 -0.0948
 2341W        W 6405   0.973   4.055  10.060  0.1991 -0.2731 -0.0391
 2342W        W 6406   0.087   4.210  11.548 -0.0712  0.0146  0.1653
 2343W        W 6407   9.824   5.396   2.511 -0.2318  0.2260  0.3894
 2344W        W 6408   6.652   5.436  10.763  0.0001  0.0676  0.0460
 2345W        W 6409   4.859   2.990  11.341 -0.0143  0.1497  0.1330
 2346W        W 6410   9.748   6.417   9.010 -0.0671 -0.1165  0.0196
 2347W        W 6411   5.737   3.227   9.999 -0.2099 -0.2069 -0.2272
 2348W        W 6412   9.945  10.369  10.725 -0.3127 -0.0876 -0.0059
 2349W        W 6413   1.942   7.873   3.336  0.3895 -0.0024  0.2116
 2350W        W 6414   0.290   2.245   9.717  0.0479 -0.0820  0.0321
 2351W        W 6415   2.634   3.706   0.540 -0.3937  0.3432 -0.1863
 2352W        W 6416   7.463   4.358   1.210 -0.1991 -0.0429  0.0908
 2353W        W 6417   1.148   8.468   0.308  0.1549 -0.1088  0.2130
 2354W        W 6418   2.874   6.892   9.209 -0.0005 -0.0500 -0.1229
 2355W        W 6419   3.841   4.921   9.333 -0.0148  0.1231  0.0603
 2356W        W 6420   5.382   9.035  11.574  0.0392 -0.0800 -0.0692
 2357W        W 6421   8.243   7.415   1.548 -0.0272 -0.2027 -0.5329
 2358W        W 6422   5.338   8.279   3.956 -0.1110 -0.1514 -0.1196
 2359W        W 6423   9.412   6.863  10.784  0.2464  0.1752 -0.1990
 2360W        W 6424   8.629   6.030   2.631 -0.0733  0.0351 -0.1733
 2361W        W 6425   3.875   2.554   7.301  0.1483 -0.0637 -0.1580
 2362W        W 6426   0.431   3.609   1.243  0.0638 -0.2123  0.0319
 2363W        W 6427   2.253   8.073   0.852  0.2439 -0.1418 -0.0433
 2364W        W 6428   8.161   1.683   8.115 -0.0844 -0.0153 -0.1542
 2365W        W 6429   4.406   1.372   3.323  0.0494 -0.0296  0.0475
 2366W        W 6430   3.765   9.705   1.515  0.0293  0.1122 -0.2465
 2367W        W 6431   8.083   7.761  11.073  0.0595  0.3346  0.3517
 2368W        W 6432   3.361   3.517   1.438 -0.0366 -0.1082  0.0237
 2369W        W 6433   9.273   1.116   8.407  0.0487 -0.0060  0.2393
 2370W        W 6434   5.595   8.387   0.856 -0.0275 -0.2686  0.0560
 2371W        W 6435   8.638   3.567   9.993  0.2816 -0.1275  0.0663
 2372W        W 6436   9.134   6.953   2.241 -0.2406 -0.1064  0.0419
 2373W        W 6437   0.919   7.150   2.064 -0.2596  0.0796 -0.1826
 2374W        W 6438   5.038   7.887   0.981  0.3147  0.0700  0.0514
 2375W        W 6439   6.741   3.283   1.317 -0.0177 -0.1085 -0.0609
 2376W        W 6440   5.448   3.152   1.186  0.4181  0.1492 -0.1031
 2377W        W 6441   4.783   9.018   2.397 -0.1774  0.1256  0.1432
 2378W        W 6442   3.732   5.827   8.669 -0.1240 -0.1798 -0.1200
 2379W        W 6443   9.377   0.568   8.477 -0.0823  0.0155 -0.0012
 2380W        W 6444   6.047   6.091   8.885 -0.0837  0.2209 -0.1572
 2381W        W 6445   6.384   3.817   9.342 -0.1037 -0.1283  0.2264
 2382W        W 6446  10.255   6.407   1.760 -0.1354  0.2931 -0.1575
 2383W        W 6447   0.017   1.323   3.373 -0.0120  0.1542  0.0718
 2384W        W 6448   4.904   5.240   8.380  0.1204  0.1552  0.1867
 2385W        W 6449   8.472   7.434  11.177  0.2773  0.0442 -0.2292
 2386W        W 6450  10.419   8.730   0.483  0.3648 -0.3106 -0.0839
 2387W        W 6451   1.041   0.701   8.100 -0.3397 -0.2960 -0.1374
 2388W        W 6452   9.008   7.009   1.561  0.1270 -0.5139  0.1430
 2389W        W 6453   1.207   4.733   9.421  0.2175 -0.0128 -0.3170
 2390W        W 6454   8.893   5.265  10.921  0.3359 -0.1078  0.0759
 2391W        W 6455   0.060   2.924   1.855 -0.2055 -0.3516 -0.1984
 2392W        W 6456   4.923   9.439   0.022  0.1269 -0.1278  0.0793
 2393W        W 6457   0.837   8.416  11.137 -0.0546 -0.1084 -0.1471
 2394W        W 6458   9.131   7.418   8.373 -0.2368  0.0880  0.2402
 2395W        W 6459  10.391   3.278   8.598 -0.1212  0.2360  0.1451
 2396W        W 6460   1.620   9.239   9.971 -0.1186 -0.1602 -0.1321
 2397W        W 6461   1.156   8.281   8.571 -0.2096  0.1059  0.2424
 2398W        W 6462   3.996   2.850   1.993  0.0397 -0.2483  0.0125
 2399W        W 6463   6.426   7.657  10.660 -0.2561 -0.5550  0.2734
 2400W        W 6464  10.472   6.143   2.582 -0.0894  0.4250  0.0843
 2401W        W 6465   8.917   0.625   9.129 -0.0674  0.0983  0.0847
 2402W        W 6466   5.968   8.947   1.971  0.1325  0.1056 -0.2989
 2403W        W 6467   6.980   5.372   1.581 -0.2366  0.2195  0.0224
 2404W        W 6468   4.221   5.774  11.258 -0.0294 -0.4218 -0.1156
 2405W        W 6469   9.794   1.706   0.166 -0.0993 -0.0488  0.0517
 2406W        W 6470   8.468   8.110  11.021  0.0330  0.1085 -0.0769
 2407W        W 6471   0.220   8.658   1.987  0.1339  0.2055  0.0986
 2408W        W 6472   8.409   4.509   8.978  0.2509 -0.3394 -0.1179
 2409W        W 6473   3.703   7.969   0.664 -0.0200 -0.2721 -0.2711
 2410W        W 6474   1.460   8.764  10.898 -0.4472 -0.0836 -0.1092
 2411W        W 6475   4.750   8.519   8.511 -0.3588  0.0995  0.0889
 2412W        W 6476  10.207   7.290   8.871 -0.3198 -0.1673  0.4661
 2413W        W 6477   0.237   9.032  10.961  0.0339  0.4557 -0.1850
 2414W        W 6478   6.319   4.904   9.880  0.0915  0.0455 -0.0271
 2415W        W 6479   0.600   9.609   2.305 -0.0885 -0.1598 -0.1079
 2416W        W 6480   1.307   0.713   1.412  0.1748  0.2039 -0.1102
 2417W        W 6481   8.402   7.853   1.712 -0.1087 -0.3880 -0.4130
 2418W        W 6482   4.959  10.187   2.922  0.0916 -0.1941  0.1235
 2419W        W 6483   7.536   4.652   9.970  0.0877 -0.1795 -0.1352
 2420W        W 6484   4.274  10.015  11.080  0.1773  0.0001 -0.1877
 2421W        W 6485   1.269   7.603  10.250 -0.0108  0.3336  0.1005
 2422W        W 6486   9.323   3.213   9.371  0.1966  0.2559 -0.0767
 2423W        W 6487   0.552   4.063   0.233 -0.2255  0.1684  0.1247
 2424W        W 6488   8.297   9.073  11.052  0.0790 -0.5761  0.1466
 2425W        W 6489   0.186   7.350   0.065 -0.0406 -0.0837  0.2046
 2426W        W 6490   4.749   1.854   2.492  0.1894 -0.0080  0.1883
 2427W        W 6491   7.175   5.758   1.164 -0.1282 -0.0891 -0.0058
 2428W        W 6492   9.514   1.535   8.558  0.1249  0.2173 -0.0995
 2429W        W 6493   0.854   3.091   8.348  0.4051  0.2617 -0.1233
 2430W        W 6494   1.478   0.882   3.511  0.1629 -0.0082 -0.2623
 2431W        W 6495   0.500   0.896   4.408 -0.2587  0.1247 -0.0846
 2432W        W 6496   9.858   3.036   1.213  0.1180  0.3840  0.1487
 2433W        W 6497   8.967   9.726  11.480 -0.0498 -0.1247  0.3147
 2434W        W 6498   6.691   4.638   2.552 -0.2085 -0.0980  0.0854
 2435W        W 6499   8.849   6.365   0.848 -0.1357 -0.2247 -0.0710
 2436W        W 6500   4.489   1.467   8.216 -0.0159 -0.1190  0.1156
 2437W        W 6501   2.525   0.990  10.940  0.1386  0.1389 -0.2580
 2438W        W 6502   6.274   5.256   3.682 -0.0281  0.2579 -0.2741
 2439W        W 6503   0.362   2.608   8.790  0.1344  0.1113 -0.0157
 2440W        W 6504   8.945   6.761   0.519  0.1852 -0.0545  0.0444
 2441W        W 6505   8.048   9.656   1.216 -0.1297  0.0454  0.1254
 2442W        W 6506   1.977   4.334   0.213  0.0915  0.0063 -0.1828
 2443W        W 6507   6.770   8.192   0.841 -0.1769 -0.1178  0.2554
 2444W        W 6508   2.800   8.849   2.762  0.4279 -0.2508 -0.2436
 2445W        W 6509   9.137   2.208  10.482 -0.3199  0.0400 -0.0094
 2446W        W 6510   5.427   9.189   3.707 -0.1406 -0.1185  0.0395
 2447W        W 6511   7.379   3.092  10.339 -0.1631  0.2143  0.0122
 2448W        W 6512   2.370   5.614   3.235 -0.0544 -0.1988  0.1751
 2449W        W 6513   6.933   0.053   0.456  0.0697  0.1820  0.0546
 2450W        W 6514   6.781   1.050   8.853 -0.2185 -0.1566  0.0496
 2451W        W 6515   3.237   7.136  10.955 -0.0454 -0.1062  0.0196
 2452W        W 6516   3.918   1.865   2.705 -0.3756  0.1957 -0.1866
 2453W        W 6517   4.378   1.238   1.398  0.0438 -0.1005  0.3139
 2454W        W 6518   0.890   0.635   9.078 -0.0397 -0.0700  0.1724
 2455W        W 6519   7.178   7.448   3.335 -0.1432 -0.0038 -0.0622
 2456W        W 6520   4.678   8.587  10.833 -0.1605 -0.3857  0.2052
 2457W        W 6521   0.417   0.252   2.141 -0.0404  0.0717 -0.0412
 2458W        W 6522   1.022   5.114   9.721  0.1702  0.0754 -0.0289
 2459W        W 6523   2.892   9.752  10.757 -0.0742 -0.1349  0.0824
 2460W        W 6524   1.021   1.792   0.011  0.1087 -0.1204 -0.3481
 2461W        W 6525   0.616   5.109  10.261  0.0002  0.1550 -0.1257
 2462W        W 6526   2.329   3.716   2.449  0.1432 -0.1436  0.0138
 2463W        W 6527   6.775   3.491   0.847  0.0158 -0.2556  0.1675
 2464W        W 6528   7.276   1.103  11.541 -0.1191  0.1236 -0.2891
 2465W        W 6529   1.590   8.074   8.825 -0.1144 -0.0141 -0.2903
 2466W        W 6530   6.403   3.926  10.432  0.2137  0.0671  0.0150
 2467W        W 6531   5.171   6.622   2.794 -0.0620 -0.0785  0.1435
 2468W        W 6532   7.362   0.579   8.322  0.1839 -0.2345  0.0762
 2469W        W 6533   3.387   6.091  10.828 -0.1733 -0.0407 -0.1344
 2470W        W 6534   6.710   4.747   3.067 -0.1986  0.0368 -0.1645
 2471W        W 6535   8.838   5.462   1.990 -0.1255 -0.1233 -0.2456
 2472W        W 6536   7.629   5.139   9.587  0.0121  0.5523 -0.2077
 2473W        W 6537   5.925   8.611   1.169 -0.0402  0.0338 -0.1194
 2474W        W 6538   6.421   9.299   8.374 -0.0879  0.2269 -0.0005
 2475W        W 6539   6.555   3.171   9.668  0.0143 -0.1024 -0.0001
 2476W        W 6540   8.731  10.087  11.138 -0.0948  0.0909  0.0648
 2477W        W 6541   7.476   3.660  10.793 -0.2070 -0.1165 -0.3974
 2478W        W 6542   8.006   9.821   0.007 -0.2661  0.1951  0.4166
 2479W        W 6543   6.219   1.551   7.184 -0.0040  0.1374 -0.1031
 2480W        W 6544   7.366   2.397  11.206 -0.0290  0.1368  0.1061
 2481W        W 6545   5.361   7.122   8.928  0.0618 -0.0314  0.1632
 2482W        W 6546   5.113   8.147   2.760 -0.0764  0.0791 -0.0297
 2483W        W 6547   9.312   8.377  10.000 -0.0638  0.0224  0.0748
 2484W        W 6548   6.550   9.110   8.902  0.0743  0.2212  0.3147
 2485W        W 6549   9.120   3.879   2.050  0.1333  0.1716  0.0195
 2486W        W 6550   8.070   3.135   0.608 -0.0602 -0.0716 -0.3460
 2487W        W 6551   5.676   9.290   2.237  0.1113  0.3310 -0.0838
 2488W        W 6552   1.838   0.081   8.805 -0.1538 -0.1245  0.2586
 2489W        W 6553   4.009   0.673   6.971  0.0343  0.1260  0.0113
 2490W        W 6554   5.107  10.163   8.023 -0.1005 -0.0235 -0.1441
 2491W        W 6555   2.382   6.961   7.579  0.0972  0.0685 -0.3395
 2492W        W 6556   4.982   3.384   1.092 -0.1369 -0.0412 -0.1827
 2493W        W 6557   2.328  10.506   2.807 -0.0199  0.2894  0.2206
 2494W        W 6558   6.159   5.521   0.007  0.1781  0.2291 -0.1823
 2495W        W 6559   8.458   1.027   3.122  0.1235 -0.1389 -0.1101
 2496W        W 6560   1.190   3.765  10.415 -0.2528  0.0527  0.3526
 2497W        W 6561   8.445   1.330   1.888 -0.1522 -0.0371  0.0948
 2498W        W 6562   2.495   7.610   9.764  0.2222 -0.0562 -0.0645
 2499W        W 6563   4.228   0.279  11.507 -0.1202  0.1717 -0.0979
 2500W        W 6564   2.602   7.806   1.226 -0.0185  0.1620 -0.0650
 2501W        W 6565   3.810   4.465   8.866 -0.1560 -0.1017  0.1606
 2502W        W 6566   4.515   0.978   8.867  0.1961  0.0333  0.0022
 2503W        W 6567   8.155   7.794   7.986  0.1128 -0.2914  0.1041
 2504W        W 6568   1.937  10.115   2.771 -0.2525  0.0460 -0.1158
 2505W        W 6569   2.807   0.602   2.429  0.1623  0.0958  0.0759
 2506W        W 6570   0.674   5.140   2.409  0.1367 -0.1547 -0.0165
 2507W        W 6571   3.865   3.852  10.990 -0.2816  0.1171  0.0596
 2508W        W 6572   1.388   8.065  10.411 -0.0272 -0.0116 -0.2304
 2509W        W 6573   7.225   3.150   1.592  0.1470 -0.3138 -0.3324
 2510W        W 6574   9.582   2.716   7.919 -0.1239  0.2195  0.2128
 2511W        W 6575   4.696  10.387  10.207  0.1375  0.0032 -0.2070
 2512W        W 6576   8.312   4.013  11.375  0.1963 -0.0744  0.1534
 2513W        W 6577   4.210  10.136  10.503  0.2778 -0.1042 -0.1445
 2514W        W 6578   8.301   3.772   2.526  0.2584  0.1814 -0.2629
 2515W        W 6579   1.630   3.329   2.151  0.0116 -0.2523  0.0021
 2516W        W 6580   3.467   9.889   1.115  0.2081 -0.0441 -0.2541
 2517W        W 6581   8.317   1.429  10.436  0.0064 -0.0428 -0.2006
 2518W        W 6582   4.418   8.276   2.853  0.0369 -0.0615 -0.2724
 2519W        W 6583   0.394   1.599   2.898  0.0920 -0.2263 -0.2315
 2520W        W 6584   3.335  10.435   1.063 -0.2896 -0.0076 -0.0278
 2521W        W 6585   5.043   9.914  10.860 -0.0458 -0.0792 -0.0890
 2522W        W 6586   0.713   3.319  11.358  0.2381  0.1715  0.2140
 2523W        W 6587   4.187   1.453   8.656 -0.1102 -0.4811  0.1096
 2524W        W 6588   9.217   0.357   1.108  0.0263 -0.2264 -0.0023
 2525W        W 6589   6.437   0.582  11.295 -0.0027  0.0381 -0.0399
 2526W        W 6590   3.557   7.132   1.673  0.0465 -0.0324 -0.1565
 2527W        W 6591   6.051   8.307   2.859 -0.4362 -0.1205  0.0421
 2528W        W 6592  10.437   7.514   0.721 -0.2418  0.0990 -0.4350
 2529W        W 6593   9.223   3.416  11.249 -0.5132 -0.0515 -0.1093
 2530W        W 6594   1.529   2.450   0.988 -0.0266  0.1015 -0.1458
 2531W        W 6595   6.191   8.604   8.997 -0.1418 -0.1223 -0.0509
 2532W        W 6596   4.464  10.296  11.479  0.1584  0.0253 -0.0792
 2533W        W 6597   3.445   9.628   8.998 -0.0673 -0.0954 -0.2424
 2534W        W 6598   1.132   7.835   1.859  0.1595 -0.3550 -0.1101
 2535W        W 6599   6.631   7.186  11.418 -0.1749 -0.2275  0.0481
 2536W        W 6600   9.181   4.634   0.725  0.0563 -0.0103  0.3999
 2537W        W 6601   8.071   8.690   1.245  0.1957  0.1222  0.0631
 2538W        W 6602   5.519   6.344  11.579  0.2516  0.0628 -0.2115
 2539W        W 6603   7.854   9.410   8.473 -0.2040  0.0300 -0.2504
 2540W        W 6604   5.055   4.147   0.305  0.1220  0.0754  0.2286
 2541W        W 6605   3.459   4.349   2.707  0.1911  0.0437  0.1055
 2542W        W 6606   5.990   6.602  11.221  0.1229  0.0690 -0.0853
 2543W        W 6607   4.927   0.643   0.204 -0.2590 -0.2303 -0.3918
 2544W        W 6608   1.528   0.564   7.091  0.1010 -0.0273  0.1208
 2545W        W 6609   5.260   3.173  10.182 -0.0360 -0.1851 -0.2467
 2546W        W 6610   1.990   1.510   0.851 -0.1103  0.0493 -0.0814
 2547W        W 6611   9.864   2.918   2.944 -0.0454  0.1342 -0.2116
 2548W        W 6612   7.396   9.793  10.437 -0.0165 -0.1750  0.0037
 2549W        W 6613   9.237   9.713   8.264 -0.2004 -0.3849  0.0459
 2550W        W 6614   8.060   3.242  11.475 -0.1707 -0.5648  0.1387
 2551W        W 6615  10.069   7.033   2.208 -0.2130  0.1242  0.1132
 2552W        W 6616   8.305   7.455   0.186 -0.2217 -0.0924  0.0314
 2553W        W 6617   1.898   9.503   9.678 -0.2645 -0.0788 -0.1813
 2554W        W 6618   0.891   1.623  10.003  0.0830 -0.1670 -0.2785
 2555W        W 6619   3.061   9.306   3.724 -0.1179 -0.0900 -0.1803
 2556W        W 6620   7.808   5.872  10.222  0.1144 -0.0045 -0.0080
 2557W        W 6621   9.407   7.911   8.331 -0.1225  0.1374 -0.4217
 2558W        W 6622   5.864   0.816   7.562  0.2344  0.3741 -0.1970
 2559W        W 6623   3.958   7.724   3.107  0.2274 -0.3466 -0.1041
 2560W        W 6624   7.159   1.991  11.460  0.1526  0.2257 -0.0095
 2561W        W 6625   2.081   8.731   0.390 -0.1900 -0.0515  0.0128
 2562W        W 6626   6.356   9.509   9.200 -0.2048 -0.4818 -0.0523
 2563W        W 6627   4.454   2.434   0.495  0.2414 -0.1484  0.1727
 2564W        W 6628   7.724   1.178  11.276 -0.0148 -0.0212 -0.3249
 2565W        W 6629   6.101   4.452   0.365 -0.1413  0.0928 -0.0192
 2566W        W 6630  10.105   6.441   0.752  0.0660 -0.0310  0.1850
 2567W        W 6631  10.572   6.769   3.140 -0.0506 -0.0113  0.0804
 2568W        W 6632   7.373   1.036   2.626  0.1271  0.0057 -0.3125
 2569W        W 6633   9.424   1.841  10.823  0.1283  0.1085  0.1834
 2570W        W 6634   2.461   4.304   3.741 -0.0887  0.3204  0.2327
 2571W        W 6635   4.697   3.428  10.569 -0.0237 -0.2360 -0.0165
 2572W        W 6636   5.533   1.702   6.970  0.2634  0.2967 -0.1755
 2573W        W 6637   3.325   3.156   9.636 -0.2130  0.4914 -0.0070
 2574W        W 6638   2.319   9.176  10.322  0.1619 -0.0396 -0.0975
 2575W        W 6639   5.547   4.909  11.131 -0.0455  0.0884  0.0864
 2576W        W 6640  10.508   7.368   3.131  0.1058  0.1142 -0.1553
 2577W        W 6641   6.600   9.251   7.872 -0.1332 -0.2773  0.1279
 2578W        W 6642   7.252   8.343   4.334 -0.0043 -0.1063  0.0324
 2579W        W 6643   1.493  10.416   2.754 -0.2770 -0.2285  0.4274
 2580W        W 6644   9.285   6.269   9.194  0.4521  0.0039  0.1828
 2581W        W 6645   9.691   0.015  10.418 -0.1221 -0.2681 -0.1361
 2582W        W 6646   4.163   9.684   4.140  0.0800  0.1409 -0.0292
 2583W        W 6647   3.045   4.737   2.054  0.1985 -0.4044 -0.0345
 2584W        W 6648   4.333   1.882   2.102  0.1243 -0.0423  0.0394
 2585W        W 6649   9.735   6.291   9.617  0.0787 -0.1223 -0.0632
 2586W        W 6650   5.898   4.771  10.773 -0.2373  0.1421 -0.2434
 2587W        W 6651   0.490   5.416   8.982 -0.4644 -0.3115 -0.1457
 2588W        W 6652   9.722   1.703   1.973 -0.1976 -0.0219  0.1426
 2589W        W 6653   1.839   4.060   1.052  0.3527  0.1721 -0.1293
 2590W        W 6654   3.474  10.117   8.997  0.2031 -0.1827 -0.1205
 2591W        W 6655   6.242   2.218   0.895  0.1179 -0.0208  0.0282
 2592W        W 6656   5.633   6.347   1.370 -0.1417  0.1741  0.0765
 2593W        W 6657   7.933   7.292   8.655  0.3705 -0.0688  0.0924
 2594W        W 6658   3.905   1.893  10.080  0.0058 -0.3026 -0.2906
 2595W        W 6659   2.435   6.483   0.172  0.1424 -0.1357  0.2500
 2596W        W 6660  10.282   8.292   2.133  0.0253 -0.3469 -0.1284
 2597W        W 6661   2.950   6.171   0.704 -0.1987 -0.0881  0.1169
 2598W        W 6662   4.626   2.504   8.854 -0.1457 -0.1042 -0.0949
 2599W        W 6663   5.684   7.088   9.851 -0.0532  0.1512  0.2486
 2600W        W 6664   5.989   4.689   3.702  0.2131  0.0019  0.1339
 2601W        W 6665   3.040   2.366   2.578 -0.0727  0.1926  0.0130
 2602W        W 6666   1.227   6.481  11.387 -0.1510 -0.1467 -0.1918
 2603W        W 6667   9.612   0.412   9.569  0.0039 -0.0855 -0.0552
 2604W        W 6668   0.771   0.185   9.373  0.1132  0.0786 -0.2749
 2605W        W 6669   7.017   7.880   3.040  0.1029  0.0206 -0.1325
 2606W        W 6670   2.158   0.810   9.776  0.1432  0.0841 -0.1189
 2607W        W 6671   7.965   7.071   0.201  0.4156 -0.1126  0.0472
 2608W        W 6672   5.068   2.468   1.967 -0.1062 -0.1956 -0.2456
 2609W        W 6673   1.673   1.022   9.998  0.1917 -0.0843  0.2828
 2610W        W 6674   0.684   4.197   2.408 -0.1224  0.2510 -0.0056
 2611W        W 6675   4.796   2.920   9.631 -0.0556 -0.0769 -0.0330
 2612W        W 6676   0.149   9.106   1.116 -0.0531 -0.1114  0.2922
 2613W        W 6677   3.510   5.629   7.337 -0.0403  0.3333 -0.1044
 2614W        W 6678   0.214   2.304   2.414 -0.0091  0.0156 -0.0417
 2615W        W 6679   1.731   8.096   1.113  0.0322  0.0292 -0.0743
 2616W        W 6680   2.156   7.064   0.996  0.0132  0.0439  0.1213
 2617W        W 6681   7.368   1.716   2.092  0.0171 -0.0665 -0.1397
 2618W        W 6682   1.183   7.578   8.551  0.2792 -0.0331 -0.2176
 2619W        W 6683   8.886   4.412   9.082 -0.1655 -0.2700  0.0506
 2620W        W 6684   0.189   8.837   2.913  0.1061 -0.0357  0.2294
 2621W        W 6685   7.928   4.390  11.365  0.0320 -0.2613 -0.1602
 2622W        W 6686   2.637   9.866   8.177  0.0486  0.0697  0.1530
 2623W        W 6687   5.452  10.206   7.711  0.0678 -0.0696  0.2501
 2624W        W 6688   7.654   2.949   8.356  0.1278 -0.3111  0.0536
 2625W        W 6689  10.304   5.339   0.565 -0.0289 -0.3185  0.0317
 2626W        W 6690   2.860   1.880   9.079  0.1247 -0.4377  0.1741
 2627W        W 6691   6.978   6.942   1.147  0.0718  0.3568 -0.5260
 2628W        W 6692   8.817   1.743   2.752  0.1647 -0.3332  0.3338
 2629W        W 6693   3.943   6.203   3.446  0.0001 -0.2073 -0.5722
 2630W        W 6694   1.000   1.103   9.255  0.2245  0.2156  0.1389
 2631W        W 6695   2.046   3.246   9.349  0.2058 -0.0099  0.1249
 2632W        W 6696   5.408  10.181   0.057 -0.3303  0.2538  0.0614
 2633W        W 6697  10.252   8.289  10.665  0.2946 -0.1695 -0.1306
 2634W        W 6698   3.062   7.620   0.141 -0.0593  0.1637  0.2429
 2635W        W 6699   0.007   6.414   2.235  0.3032  0.0540  0.0670
 2636W        W 6700   1.384   8.240   0.701 -0.0796  0.2400  0.1565
 2637W        W 6701   1.740   3.289   0.654 -0.2356 -0.1839 -0.0918
 2638W        W 6702   5.131   5.525   1.475 -0.0707  0.1011 -0.1512
 2639W        W 6703   4.046   9.723   7.097  0.3752 -0.0010 -0.2280
 2640W        W 6704   6.118   9.446   2.368  0.1372 -0.2327 -0.2562
 2641W        W 6705   1.063   7.265  11.267  0.1565  0.3005 -0.2906
 2642W        W 6706   9.295   2.866   1.814 -0.0352 -0.1446 -0.0958
 2643W        W 6707   8.402   6.536   2.814 -0.1372  0.4399  0.0718
 2644W        W 6708  10.372   1.275   3.831  0.1493  0.1391 -0.1077
 2645W        W 6709   6.457   1.185   3.191 -0.0927  0.1832 -0.0599
 2646W        W 6710   8.050   7.198  10.082 -0.1788  0.0702  0.3173
 2647W        W 6711   2.256  10.143  11.198  0.1296 -0.1929  0.0183
 2648W        W 6712   3.653   2.328   9.238 -0.1393 -0.3180 -0.1502
 2649W        W 6713   0.707   3.277   9.238  0.0143 -0.3706 -0.2487
 2650W        W 6714   2.949   0.131   9.340  0.0143  0.2980  0.0037
 2651W        W 6715   9.113   9.393   1.245  0.0749  0.0883 -0.0971
 2652W        W 6716   0.679   9.115   2.154  0.0304 -0.0953 -0.1493
 2653W        W 6717   4.343   3.171   9.947 -0.0912  0.2160  0.4545
 2654W        W 6718   8.662   5.627   9.265  0.0600  0.0331 -0.0442
 2655W        W 6719   9.191   3.185   8.155 -0.1994  0.1509 -0.0544
 2656W        W 6720   2.514  10.019   2.592  0.1161 -0.3674 -0.3073
 2657W        W 6721   5.375   9.290  10.360 -0.0809  0.1853  0.0800
 2658W        W 6722   6.305   3.010   3.183 -0.3183 -0.1085 -0.2333
 2659W        W 6723   4.373   4.914   2.682  0.2274 -0.0954 -0.0375
 2660W        W 6724   4.218   6.870   8.262 -0.1549  0.1618  0.0705
 2661W        W 6725   4.674   5.526   2.054  0.3826 -0.2518 -0.0748
 2662W        W 6726   3.919   2.637   4.317 -0.1507  0.1909 -0.0592
 2663W        W 6727   9.794   2.403   8.377  0.0219 -0.1082  0.0172
 2664W        W 6728  10.364   5.667   1.025 -0.0283 -0.1856 -0.2171
 2665W        W 6729   6.238   8.116   1.263  0.0182 -0.2981  0.0276
 2666W        W 6730   0.163  10.011  11.080  0.0444 -0.0812 -0.0007
 2667W        W 6731   8.663   4.898   3.265 -0.1131 -0.1906  0.0804
 2668W        W 6732   1.330   4.115   1.017  0.0057 -0.0790 -0.4128
 2669W        W 6733   0.548   9.391   1.759  0.1063 -0.1832  0.0029
 2670W        W 6734   7.915   8.052   9.328  0.2935  0.2862  0.0050
 2671W        W 6735   6.206   6.190   0.770  0.0991 -0.0048 -0.2012
 2672W        W 6736   5.620   8.221   3.471  0.1484 -0.1252  0.1294
 2673W        W 6737   9.161   5.137  11.467  0.2563  0.4199 -0.1740
 2674W        W 6738   6.672  10.415   1.180  0.0542 -0.1121 -0.2404
 2675W        W 6739   7.176   3.448   9.039 -0.0475 -0.4099  0.0661
 2676W        W 6740   3.732   3.868   2.781  0.1216 -0.1345  0.0161
 2677W        W 6741   3.703   7.864   8.948  0.1576  0.0155  0.2718
 2678W        W 6742   5.049   4.511  11.505  0.2536  0.0503 -0.2058
 2679W        W 6743   5.911  10.617   8.190 -0.0377 -0.2364 -0.2833
 2680W        W 6744   1.490   0.216   0.719 -0.2224  0.1473  0.1537
 2681W        W 6745   1.008   4.196   0.107 -0.2131  0.1936  0.1104
 2682W        W 6746   5.487   3.885   8.862  0.1135  0.3755 -0.0527
 2683W        W 6747   7.859   8.505  10.278  0.1803  0.1761 -0.0458
 2684W        W 6748   4.476   6.368   0.113  0.0259  0.1948 -0.2799
 2685W        W 6749   0.314   7.765   8.261  0.1276  0.1072  0.0239
 2686W        W 6750   9.855   0.931   3.878 -0.0765  0.0545 -0.0096
 2687W        W 6751   6.705   1.463  10.975 -0.2045 -0.1405  0.1252
 2688W        W 6752   2.917   8.530   9.778  0.3075 -0.1275 -0.0265
 2689W        W 6753   9.963   1.130   1.137 -0.2814 -0.0860  0.2214
 2690W        W 6754   4.213   0.029  10.201 -0.0344 -0.1395  0.2318
 2691W        W 6755  10.299   2.712   4.043  0.2708  0.4213 -0.1607
 2692W        W 6756   5.976   9.903   1.593 -0.0367  0.0835  0.4472
 2693W        W 6757   2.694  10.263  10.898 -0.2168  0.2118 -0.1033
 2694W        W 6758   6.436   5.672  11.181  0.0795 -0.0755  0.0738
 2695W        W 6759   9.682   8.076  10.675 -0.2718  0.1334  0.0900
 2696W        W 6760   8.097   0.101   0.378  0.1681  0.2077 -0.1541
 2697W        W 6761   4.402   7.739   8.167  0.0518 -0.3802  0.1943
 2698W        W 6762   6.378   2.428   1.687 -0.0936 -0.3184  0.1265
 2699W        W 6763   0.655   2.688  11.111  0.1037  0.3690  0.1651
 2700W        W 6764   5.166   8.544   3.585  0.0325 -0.0694  0.1481
 2701W        W 6765   6.718   3.698   2.725 -0.2140 -0.0932  0.0354
 2702W        W 6766   3.410   1.991   8.914 -0.0570  0.1641  0.3781
 2703W        W 6767   6.738   8.024   3.910  0.1348  0.1608 -0.1038
 2704W        W 6768   4.109   8.274  10.325 -0.0486 -0.0577  0.1919
 2705W        W 6769  10.168   3.033   8.166 -0.0921  0.1865 -0.1709
 2706W        W 6770   4.088   8.694   0.453  0.0400 -0.3539  0.1245
 2707W        W 6771   3.234   9.972   7.872  0.1015 -0.0831 -0.1111
 2708W        W 6772   6.598   7.569   3.875 -0.2191 -0.0360  0.0481
 2709W        W 6773  10.553   7.941   2.386  0.0183  0.1606 -0.0639
 2710W        W 6774   5.655   5.828  10.808  0.3408 -0.1325  0.0587
 2711W        W 6775   5.324   1.270   3.350  0.4362  0.0592  0.0624
 2712W        W 6776   7.535   6.830  10.116  0.1164 -0.1821 -0.0595
 2713W        W 6777   2.451   3.943   1.211  0.2998  0.1907  0.2058
 2714W        W 6778   0.291   2.970  10.303  0.0887  0.0022  0.2460
 2715W        W 6779   7.506   7.892   2.086  0.0146  0.0646 -0.2786
 2716W        W 6780   6.595   0.302   7.413  0.0476  0.1260 -0.0037
 2717W        W 6781   6.064   3.703   1.993 -0.0995 -0.0567 -0.0779
 2718W        W 6782   0.557  10.497   8.551  0.1626  0.1059  0.0922
 2719W        W 6783   1.359   0.354   8.147 -0.3682  0.1053  0.1692
 2720W        W 6784   0.932   3.762   0.437  0.0939 -0.0044  0.1455
 2721W        W 6785   2.498   6.025   0.494 -0.0365 -0.0088  0.0311
 2722W        W 6786   8.477   6.909   0.340  0.1651  0.1432  0.0064
 2723W        W 6787   2.239   0.111   9.150  0.1071  0.1312 -0.3292
 2724W        W 6788  10.065   0.035   2.795 -0.0214 -0.1572 -0.0638
 2725W        W 6789   5.965   5.167   9.070 -0.2097 -0.0518 -0.0299
 2726W        W 6790   9.952   8.842   8.942 -0.1033 -0.1839  0.1266
 2727W        W 6791   9.120   9.371   8.692 -0.0464  0.1458  0.1363
 2728W        W 6792   2.813   7.646   2.306  0.2536 -0.1548  0.0360
 2729W        W 6793   6.617   9.428  10.622 -0.0507  0.4192 -0.0335
 2730W        W 6794   0.771   6.428   1.430  0.0570  0.2074  0.0184
 2731W        W 6795   7.133   4.838   1.402 -0.0354 -0.0571  0.0444
 2732W        W 6796   5.037   9.811   1.536 -0.2129  0.4395 -0.0463
 2733W        W 6797   7.044   7.010   4.405 -0.0578  0.2515  0.0075
 2734W        W 6798   1.544   1.126  10.569 -0.2186  0.0816 -0.0742
 2735W        W 6799  10.446   3.805  10.764 -0.0944 -0.0792  0.3748
 2736W        W 6800   0.102   5.242   0.893  0.0751 -0.0167 -0.1296
 2737W        W 6801   0.563   1.488   3.340  0.2300 -0.0596 -0.2794
 2738W        W 6802   8.578  10.374   2.828  0.0833  0.2201 -0.0898
 2739W        W 6803   1.293   8.316   3.820 -0.3638 -0.0607  0.1793
 2740W        W 6804   5.450   4.459   3.412 -0.1400 -0.2761  0.1966
 2741W        W 6805   5.650   7.393   8.603  0.0313 -0.2172 -0.2643
 2742W        W 6806   5.789   6.514   1.948  0.0149 -0.1702 -0.1965
 2743W        W 6807   1.354   0.433   2.886 -0.2942 -0.0395 -0.2317
 2744W        W 6808   7.253   6.520  11.379 -0.1263  0.0648 -0.1603
 2745W        W 6809   4.656   5.449  11.296  0.1922 -0.0712  0.0032
 2746W        W 6810   2.053   5.354   0.177  0.0028 -0.0933  0.1051
 2747W        W 6811   5.198   7.633   2.875 -0.0358 -0.5499 -0.0080
 2748W        W 6812  10.302   9.165   1.848  0.0729 -0.0237 -0.1193
 2749W        W 6813   3.317   9.436   9.712 -0.0114  0.1803 -0.0028
 2750W        W 6814  10.326   3.491  10.393 -0.2283 -0.1111 -0.0591
 2751W        W 6815   1.603   5.801   1.698 -0.2688  0.1935  0.0597
 2752W        W 6816   2.121   5.702   9.347  0.0752 -0.1143 -0.0872
 2753W        W 6817   1.179   8.841   2.889  0.0523  0.3108  0.2164
 2754W        W 6818   4.288  10.072  10.008  0.2632 -0.0903 -0.0378
 2755W        W 6819   9.927   6.757   1.172  0.3917  0.1149 -0.0671
 2756W        W 6820   0.766   3.674   9.545 -0.0061 -0.2209 -0.0579
 2757W        W 6821   4.410   6.282   3.771  0.0656  0.0317 -0.0727
 2758W        W 6822   4.170   3.663   8.552 -0.5835 -0.0824  0.2243
 2759W        W 6823   0.666   6.365   0.065 -0.3540  0.2953  0.0388
 2760W        W 6824   2.567   5.965   9.300  0.1939  0.3214  0.2120
 2761W        W 6825   7.033   6.813   0.671  0.0276 -0.0169 -0.0827
 2762W        W 6826   1.762   0.242   3.482 -0.1524 -0.1125  0.3355
 2763W        W 6827   7.689   6.924   1.004 -0.1066  0.1450  0.2742
 2764W        W 6828   2.840   0.865   0.363  0.4117  0.4166 -0.0144
 2765W        W 6829   4.337   8.734  11.131  0.0819  0.2021 -0.0697
 2766W        W 6830   3.923   0.236   0.420 -0.2401 -0.3004  0.2164
 2767W        W 6831   2.015   3.406  10.852  0.0497 -0.1877  0.2218
 2768W        W 6832   9.825   9.725   8.918 -0.0713  0.1592  0.3746
 2769W        W 6833   0.862   5.872   2.902 -0.0238 -0.0639 -0.0111
 2770W        W 6834   3.827   5.048   0.149 -0.0762 -0.0531  0.1931
 2771W        W 6835   7.555  10.573   1.801  0.2464 -0.1675 -0.0149
 2772W        W 6836   4.249  10.596   1.694 -0.1572  0.2927  0.0176
 2773W        W 6837   2.860  10.423   9.729  0.0326 -0.2207 -0.0460
 2774W        W 6838   1.511   7.268  11.024  0.0364  0.1035  0.3404
 2775W        W 6839   4.435   9.439  10.232  0.0658 -0.1615 -0.1178
 2776W        W 6840   5.901   3.975   8.589  0.2542  0.1221  0.1902
 2777W        W 6841   9.484   4.843  11.243  0.3963  0.1916  0.0136
 2778W        W 6842   2.550   5.422   9.441  0.2019 -0.2725 -0.1195
 2779W        W 6843   0.436   1.084   3.045 -0.1180  0.0029  0.0592
 2780W        W 6844   2.330   0.254   2.380  0.2078 -0.2996 -0.1989
 2781W        W 6845   0.895   7.000   1.451 -0.2156  0.1026  0.4720
 2782W        W 6846   4.641   3.069   8.873 -0.0251  0.0954  0.4279
 2783W        W 6847   2.367   9.842   0.238 -0.0770  0.1152  0.1451
 2784W        W 6848   6.808   0.323   2.117  0.1686  0.0851 -0.1259
 2785W        W 6849   5.075   5.156   3.768 -0.0345  0.1774  0.0883
 2786W        W 6850   3.969   5.222   2.549 -0.1902  0.2286 -0.2545
 2787W        W 6851   3.214   5.936   8.619 -0.0181  0.1252  0.1623
 2788W        W 6852   8.181   9.067   9.085 -0.1551  0.0539  0.0186
 2789W        W 6853   7.520   8.665   0.319  0.1187  0.0717  0.0778
 2790W        W 6854   7.980   2.980  11.083  0.1106  0.2551  0.5331
 2791W        W 6855   5.634   5.218   2.277  0.2010  0.0013  0.1114
 2792W        W 6856   9.333   9.319   2.596  0.0211  0.2116 -0.1278
 2793W        W 6857   9.186   4.694   2.177 -0.0357 -0.0984  0.0147
 2794W        W 6858   2.684   8.639   9.321 -0.0662  0.0232 -0.3608
 2795W        W 6859   2.585   0.862  10.049 -0.0181  0.0366  0.1137
 2796W        W 6860   0.953   8.045   0.468  0.0625  0.1806 -0.2640
 2797W        W 6861   2.148   9.103   0.767 -0.2211  0.0683  0.0020
 2798W        W 6862   2.779   7.608  10.652 -0.2573  0.0010  0.0077
 2799W        W 6863   5.521   9.889   2.954 -0.1718 -0.0710 -0.0858
 2800W        W 6864   8.366   6.102   9.157  0.0100  0.0896 -0.0813
 2801W        W 6865   8.619   4.842   9.243 -0.2816 -0.0683 -0.0300
 2802W        W 6866   0.041   0.279   4.044 -0.0041  0.0634  0.0056
 2803W        W 6867   5.374   2.309   9.942 -0.2377  0.1165  0.0146
 2804W        W 6868   8.932   5.198   9.043 -0.0241 -0.0503 -0.0822
 2805W        W 6869   4.029   3.587   9.163  0.0715  0.0708 -0.0338
 2806W        W 6870   2.744   9.990   9.519  0.2771  0.1477  0.0901
 2807W        W 6871   7.565  10.409   3.456  0.0082  0.0882 -0.0568
 2808W        W 6872   2.645   2.908   0.380  0.2709  0.0685 -0.1983
 2809W        W 6873   2.344   1.479   2.009 -0.0905 -0.1283 -0.0653
 2810W        W 6874   9.642   7.149  11.386 -0.1492 -0.3859 -0.1811
 2811W        W 6875   1.546   5.300  10.847 -0.1593 -0.2031  0.0714
 2812W        W 6876   1.301   8.286  11.038  0.0956  0.2206  0.1349
 2813W        W 6877   1.390   9.810  10.795  0.1593  0.0173  0.0367
 2814W        W 6878   1.405   7.060   2.289  0.1505  0.0889  0.1426
 2815W        W 6879  10.404   9.936   2.900  0.0673 -0.0589 -0.0302
 2816W        W 6880   8.697   0.791  11.520  0.1819  0.2564  0.4336
 2817W        W 6881   6.384   4.826   3.437 -0.1062  0.3316 -0.2479
 2818W        W 6882   4.434   0.549   7.173 -0.3419 -0.2240 -0.0409
 2819W        W 6883   2.727   1.911   8.085  0.0071 -0.0819 -0.0389
 2820W        W 6884   3.885   3.214   8.408  0.1391 -0.0227 -0.0517
 2821W        W 6885   5.110   7.589   8.605  0.3802  0.1444 -0.1223
 2822W        W 6886   7.318   2.509   9.222 -0.1926 -0.1300 -0.4295
 2823W        W 6887   7.248   0.192   8.051 -0.2290 -0.2175 -0.1005
 2824W        W 6888   7.593   0.842   1.878  0.3130 -0.0418  0.1884
 2825W        W 6889   4.923   3.920   4.150  0.2820  0.2578  0.2090
 2826W        W 6890   3.542   3.667  11.309 -0.2876 -0.0981  0.0079
 2827W        W 6891   6.881   1.738   2.224  0.1110  0.1996 -0.3426
 2828W        W 6892   6.471   4.235   1.306 -0.4749 -0.1385  0.1558
 2829W        W 6893   0.411   4.290   1.931 -0.0570 -0.0396 -0.3386
 2830W        W 6894   1.025   0.528   0.404 -0.1665  0.0209 -0.3723
 2831W        W 6895   1.980   0.753   0.154  0.0849 -0.4435 -0.1662
 2832W        W 6896   6.058   7.110  11.367 -0.1650 -0.0996 -0.1762
 2833W        W 6897   0.750   4.630   0.123  0.0387  0.1228 -0.0942
 2834W        W 6898   7.286   2.045   2.470  0.0005 -0.2270  0.2902
 2835W        W 6899   8.050   8.719   8.607 -0.0038  0.1133 -0.0741
 2836W        W 6900   3.986   7.356  11.582  0.0996 -0.2360 -0.0442
 2837W        W 6901   2.927   6.777   9.691 -0.2682 -0.3563  0.1714
 2838W        W 6902   3.447   6.193   0.276  0.0160  0.2097 -0.3101
 2839W        W 6903   8.958   9.839   1.066 -0.1121  0.0673 -0.0419
 2840W        W 6904   4.537   9.043   0.380  0.1132 -0.2120  0.1694
 2841W        W 6905   3.365   0.824  10.637  0.0852 -0.3279  0.0255
 2842W        W 6906   5.942   8.537   8.012 -0.1304  0.2427 -0.1972
 2843W        W 6907   0.383  10.534  11.169  0.2157 -0.1127 -0.1830
 2844W        W 6908   5.472  10.132   9.157  0.1233  0.0787 -0.1600
 2845W        W 6909   8.417   6.205  10.847  0.3680 -0.1359 -0.0451
 2846W        W 6910   8.465   1.773  10.125 -0.3118 -0.3211  0.0791
 2847W        W 6911  10.073   2.352   8.808 -0.0693  0.1790  0.0130
 2848W        W 6912   8.579   8.010   2.241  0.1703  0.2438 -0.2087
 2849W        W 6913   4.171   2.783   3.871  0.1658  0.0049  0.0789
 2850W        W 6914  10.357   7.308   8.409  0.2184  0.0643  0.1448
 2851W        W 6915   8.521   1.674   1.068  0.2418 -0.0733  0.0105
 2852W        W 6916   6.230   6.213  10.894  0.0138 -0.0486  0.0911
 2853W        W 6917   8.852   3.437  10.906 -0.0435  0.1139 -0.0658
 2854W        W 6918   5.069   7.735   0.451  0.1217  0.4481  0.1649
 2855W        W 6919   3.516   9.317   1.198 -0.0385 -0.0569 -0.0216
 2856W        W 6920   0.896   3.630   1.582  0.3188  0.1468 -0.1957
 2857W        W 6921  10.335   4.476  11.252 -0.0596 -0.1877 -0.0631
 2858W        W 6922   6.316   2.686   0.718 -0.1336  0.0513 -0.1097
 2859W        W 6923   3.414   0.732   0.442  0.2729 -0.2615 -0.3349
 2860W        W 6924   9.543   9.655   1.118  0.1768 -0.2380  0.1665
 2861W        W 6925   1.928   3.432   7.746  0.0024 -0.0252  0.1530
 2862W        W 6926  10.602   5.408   9.891 -0.0126 -0.0919  0.2270
 2863W        W 6927   4.559   3.553   7.860  0.1241  0.1663 -0.1505
 2864W        W 6928   9.280   2.574  10.912 -0.4668  0.1622 -0.1888
 2865W        W 6929   3.136   9.438   0.318 -0.2391 -0.0186  0.1571
 2866W        W 6930   5.679   0.485   8.857  0.0316  0.1984  0.0781
 2867W        W 6931   9.828   3.271   9.330  0.1588  0.1496  0.1016
 2868W        W 6932   0.005   9.831   1.053 -0.0639  0.0225 -0.1101
 2869W        W 6933   7.500   0.062   1.306 -0.0084 -0.1957  0.1589
 2870W        W 6934   8.449  10.477  11.392 -0.0396 -0.0422  0.2031
 2871W        W 6935   9.939   0.082   8.463  0.3412 -0.2797  0.0695
 2872W        W 6936   5.506   8.661   1.439  0.1776  0.0329  0.0290
 2873W        W 6937   1.549   3.712   0.812  0.0991  0.1984  0.1676
 2874W        W 6938   8.141   1.843   2.872 -0.0409  0.1481 -0.2937
 2875W        W 6939   9.765   3.269  10.333 -0.1666 -0.1533 -0.1975
 2876W        W 6940   8.392   7.793   9.209  0.2242 -0.1649 -0.0452
 2877W        W 6941   7.692   9.873   9.449  0.0467 -0.2288 -0.0791
 2878W        W 6942   2.437   7.188  10.693 -0.0087 -0.4114 -0.3800
 2879W        W 6943   1.636   6.690  11.145 -0.1182  0.3308 -0.0755
 2880W        W 6944   6.773   7.873   9.545 -0.1982 -0.1304 -0.0520
 2881W        W 6945   1.895   3.895  11.555 -0.3962  0.2822 -0.0826
 2882W        W 6946   2.222   8.393   3.731 -0.2449  0.1742 -0.0224
 2883W        W 6947   6.166   0.070   9.212 -0.1573  0.2352  0.2760
 2884W        W 6948   6.520   7.781   0.466 -0.0720  0.1276 -0.2569
 2885W        W 6949   6.388   7.345   2.608  0.1951 -0.2060  0.2810
 2886W        W 6950   3.072   9.440  10.171 -0.1366  0.0890  0.1253
 2887W        W 6951   9.675   6.595   8.544 -0.1348 -0.3113  0.0107
 2888W        W 6952   3.467   1.110   9.952 -0.0280 -0.0956  0.1961
 2889W        W 6953   2.620   2.077   9.940 -0.0950  0.1163  0.1718
 2890W        W 6954   0.036   4.027   1.786  0.1486 -0.1471  0.0483
 2891W        W 6955   4.210   6.601   0.498 -0.0433 -0.0579  0.0930
 2892W        W 6956   8.823   4.510   0.393  0.2538  0.0868 -0.0892
 2893W        W 6957   3.071   4.335   7.757  0.0137  0.1369  0.2309
 2894W        W 6958   6.457   7.847   8.172 -0.2079 -0.0709 -0.0572
 2895W        W 6959   8.787   9.103   8.501 -0.0351 -0.1797 -0.2281
 2896W        W 6960  10.575   0.634  10.535 -0.0271  0.0201 -0.0918
 2897W        W 6961   6.227   8.265  11.266 -0.0229  0.0137  0.1791
 2898W        W 6962   6.849   1.519   1.179  0.4685 -0.0892  0.2034
 2899W        W 6963   3.774   3.050  10.758  0.3212 -0.0012  0.1406
 2900W        W 6964   2.850   8.900   8.918  0.1738 -0.0082 -0.0450
 2901W        W 6965   9.769  10.061   0.782  0.1220  0.4366  0.2646
 2902W        W 6966   0.255   8.489   4.106  0.1981 -0.1961  0.1408
 2903W        W 6967   9.897   5.170   8.870 -0.2400  0.1870 -0.1224
 2904W        W 6968   3.409   5.704   9.059  0.1257 -0.0658  0.2121
 2905W        W 6969   5.622  10.587   8.663  0.2853 -0.2454 -0.0211
 2906W        W 6970   0.551   9.704   8.319  0.1746 -0.0961 -0.1192
 2907W        W 6971   2.314   3.749   7.869 -0.3979  0.1417  0.1030
 2908W        W 6972   9.711   1.430   2.368  0.0994 -0.2847 -0.0640
 2909W        W 6973   5.528   4.414  11.279  0.2265  0.3565 -0.1161
 2910W        W 6974   7.897   3.452   3.381 -0.1647  0.2302  0.3382
 2911W        W 6975   6.007   5.639   2.334 -0.0634  0.0051  0.0128
 2912W        W 6976   7.131   2.823   1.234  0.4993  0.0412  0.2932
 2913W        W 6977   1.268   0.400   1.883 -0.0267  0.1695 -0.0767
 2914W        W 6978   6.453   6.931   8.389 -0.3415 -0.2151  0.2929
 2915W        W 6979  10.318   7.417  11.429  0.1505 -0.4778 -0.0839
 2916W        W 6980   7.407   7.110   4.114 -0.0877 -0.1769  0.0714
 2917W        W 6981   4.857   1.531   1.309 -0.0631  0.0827  0.0294
 2918W        W 6982   1.539   5.120   0.232  0.0603  0.0456 -0.0994
 2919W        W 6983   5.099   5.563   0.008 -0.3218 -0.0332  0.3383
 2920W        W 6984   8.700   3.030  10.232 -0.1229  0.0299  0.0221
 2921W        W 6985   2.939   2.798   2.283  0.2430  0.0072 -0.0101
 2922W        W 6986   8.553   9.639   4.088  0.0738  0.0627  0.1379
 2923W        W 6987   8.241   5.855   0.594  0.4637  0.0591  0.0467
 2924W        W 6988   7.188   5.529   0.288 -0.3501  0.1779  0.1035
 2925W        W 6989   1.422   7.485   1.095  0.0914  0.1892  0.2554
 2926W        W 6990   5.981   8.039   9.884 -0.2037 -0.0562 -0.0546
 2927W        W 6991   2.910   8.104   0.299  0.0363  0.2356 -0.1076
 2928W        W 6992  10.643   7.065   0.444  0.1833 -0.1137 -0.2823
 2929W        W 6993   2.549   3.632  10.897 -0.1654  0.1903 -0.0158
 2930W        W 6994   2.755   1.488   0.893  0.2682  0.2775 -0.0376
 2931W        W 6995   3.084   3.787  10.995 -0.2166 -0.2820 -0.2051
 2932W        W 6996   3.918   5.568   3.825 -0.2223 -0.1525  0.2126
 2933W        W 6997   2.168   8.753  11.442 -0.0819 -0.3002  0.0496
 2934W        W 6998   2.623   9.302   1.615  0.2509  0.0739  0.2035
 2935W        W 6999   0.549   0.785   8.180  0.2352 -0.2136  0.2062
 2936W        W 7000   4.647   4.863   8.843 -0.0935  0.1651 -0.0027
 2937W        W 7001   7.585   5.972   9.752 -0.4405 -0.0371  0.0136
 2938W        W 7002   6.605   4.333  11.093  0.1434 -0.2154 -0.0701
 2939W        W 7003   9.861   6.149   2.052 -0.3673 -0.4707 -0.3956
 2940W        W 7004   4.250  10.401   0.421 -0.1049 -0.1715 -0.2176
 2941W        W 7005   8.790   4.035   2.461 -0.1184  0.3623  0.1431
 2942W        W 7006   6.817   2.679   1.705 -0.0850  0.0717 -0.2788
 2943W        W 7007   4.297   5.495   8.772  0.1233  0.0760 -0.1087
 2944W        W 7008   3.381   1.957  10.269 -0.3175  0.1117 -0.1762
 2945W        W 7009   7.647   2.162  10.249 -0.0186  0.1327  0.0096
 2946W        W 7010   6.725   4.884  10.203 -0.2022  0.0931 -0.4765
 2947W        W 7011   3.082   7.728   9.619  0.0907 -0.2001 -0.1963
 2948W        W 7012   4.404   4.830   7.878 -0.2636  0.0290  0.4777
 2949W        W 7013  10.373   8.140  10.195 -0.4708  0.2188  0.1680
 2950W        W 7014   9.590   8.606  10.783 -0.3544  0.0271  0.1164
 2951W        W 7015   9.005  10.572   0.469  0.2281 -0.2067  0.1455
 2952W        W 7016  10.354   2.695  10.765 -0.0675 -0.2339  0.0927
 2953W        W 7017   5.986   6.041   1.623 -0.1452 -0.1003 -0.0723
 2954W        W 7018   8.336   5.401   1.432  0.0661  0.0846 -0.3308
 2955W        W 7019   2.333   9.573   2.704  0.0710 -0.0586  0.0762
 2956W        W 7020   6.535   7.349   7.532  0.0943  0.3208 -0.1633
 2957W        W 7021   7.700   6.422   3.447 -0.0050 -0.3772  0.0307
 2958W        W 7022   4.709   5.984  10.023  0.1379  0.1020  0.0062
 2959W        W 7023   0.526   7.757   0.096  0.0866  0.1475 -0.4381
 2960W        W 7024   5.591   2.385   9.202 -0.1663 -0.0506 -0.0610
 2961W        W 7025   5.414   0.714   0.023 -0.0312  0.2531  0.1254
 2962W        W 7026   1.449   8.568   1.047  0.1620  0.2894 -0.2048
 2963W        W 7027   5.999   3.990   9.639  0.1588 -0.1447 -0.3120
 2964W        W 7028   0.702   9.522   0.441 -0.2498  0.0529  0.1097
 2965W        W 7029   4.052   2.358   7.848 -0.3137 -0.0434  0.2921
 2966W        W 7030   9.378   9.707   0.614  0.1214  0.1862  0.3347
 2967W        W 7031   3.239   8.209   0.671  0.0639  0.0182 -0.0335
 2968W        W 7032   7.068   3.423   2.967  0.0067 -0.0238 -0.2669
 2969W        W 7033   4.646   9.017  11.440 -0.3076 -0.1127 -0.1766
 2970W        W 7034  10.067   9.828   9.324  0.0176 -0.2439  0.0224
 2971W        W 7035   1.553   3.312   9.686  0.2772 -0.1553 -0.1966
 2972W        W 7036   1.984   6.995  10.977  0.1910  0.0437 -0.0603
 2973W        W 7037   8.728   0.640   2.819 -0.0164 -0.0606  0.1123
 2974W        W 7038   5.024   4.525   1.675 -0.1387  0.3423  0.1849
 2975W        W 7039   9.862   5.600   1.974  0.0460  0.2888 -0.0889
 2976W        W 7040   8.376   9.437  10.246 -0.3076  0.0148  0.0495
 2977W        W 7041   7.191   4.831   9.616  0.2086 -0.1806  0.0130
 2978W        W 7042   7.921   5.165   9.206 -0.1104  0.0136  0.0382
 2979W        W 7043   1.909   0.552  10.364 -0.2383 -0.0296 -0.3095
 2980W        W 7044   4.106   7.378   8.399 -0.0219  0.1695 -0.1665
 2981W        W 7045   6.537   2.998  11.530 -0.1133 -0.4095  0.1097
 2982W        W 7046   1.969   0.673   3.708 -0.1573 -0.1602 -0.1290
 2983W        W 7047   5.304   7.331   8.187 -0.5341  0.1958  0.0469
 2984W        W 7048   5.408   7.002  10.300  0.0069 -0.2580  0.2019
 2985W        W 7049   7.085   7.739   8.690  0.0705  0.0063 -0.0609
 2986W        W 7050   5.089   6.940   0.775  0.1696 -0.2537 -0.3553
 2987W        W 7051   4.631   3.549   8.646 -0.1821 -0.1775 -0.0153
 2988W        W 7052   2.881   4.762   3.191 -0.2167  0.0199 -0.1066
 2989W        W 7053   8.883   5.171   2.375  0.2603  0.1492  0.1951
 2990W        W 7054   9.966   5.555   1.437  0.0058 -0.3281  0.1458
 2991W        W 7055   4.117   7.951   9.730  0.3643  0.1433  0.3699
 2992W        W 7056   7.250   6.515   0.288  0.1307  0.1388  0.1610
 2993W        W 7057  10.327   4.942   1.010  0.0381 -0.1434 -0.0438
 2994W        W 7058   7.772   8.256   1.893  0.1219 -0.0923 -0.3367
 2995W        W 7059   3.619   1.799   8.495  0.1308 -0.0505  0.1346
 2996W        W 7060   5.148   1.436   1.882 -0.0891  0.3224  0.0991
 2997W        W 7061   4.235   7.608   8.943  0.2060  0.3106  0.4486
 2998W        W 7062   8.628   5.948   2.061 -0.4197 -0.0082 -0.0538
 2999W        W 7063   9.389   4.346   8.717 -0.0300  0.0299  0.1241
 3000W        W 7064   3.064   1.105   0.770  0.1521 -0.2939 -0.1653
 3001W        W 7065   2.739   5.963   8.451  0.0102  0.0894  0.0320
 3002W        W 7066   2.919   3.986   8.423  0.0495  0.0829  0.2188
 3003W        W 7067   0.478   4.336   9.011  0.0846 -0.0094 -0.1269
 3004W        W 7068   5.808   8.839   0.702  0.0073  0.1365 -0.2138
 3005W        W 7069   8.417  10.455  10.869 -0.5325  0.3161  0.2172
 3006W        W 7070  10.349   8.875   9.251  0.0389  0.1896  0.0827
 3007W        W 7071   1.845   1.152   9.533  0.1250 -0.1889 -0.5019
 3008W        W 7072   1.572   2.781   8.838  0.1228  0.0428 -0.1695
 3009W        W 7073   5.654   1.122   1.640 -0.1438  0.0474  0.1358
 3010W        W 7074   1.746   9.859   1.298  0.2549 -0.1378 -0.0333
 3011W        W 7075   4.533  10.476   1.300  0.1343  0.0491 -0.1134
 3012W        W 7076   3.671   5.449  11.403 -0.0814 -0.2672 -0.2098
 3013W        W 7077   1.878   9.833   8.728  0.0243  0.1764  0.2633
 3014W        W 7078   4.969   2.968   0.825  0.3080  0.2515 -0.1395
 3015W        W 7079   3.750   2.017  10.992 -0.0090  0.1783  0.1171
 3016W        W 7080   6.095   8.026   8.608  0.1160  0.1645 -0.0256
 3017W        W 7081   2.613   7.766  11.156 -0.1392  0.1316 -0.0073
 3018W        W 7082   3.736   7.941  10.915 -0.1658  0.1654 -0.2139
 3019W        W 7083   6.883   4.341  10.700  0.1631  0.1842  0.1668
 3020W        W 7084   5.154   8.343   1.233  0.1195 -0.1269 -0.1004
 3021W        W 7085   4.576   0.673  11.419 -0.0044  0.3609  0.3106
 3022W        W 7086  10.537   7.671  10.065  0.2652  0.1959  0.0463
 3023W        W 7087  10.542   2.410   9.034  0.1411  0.0381  0.3437
 3024W        W 7088   1.529   5.228  10.242  0.2027  0.0646  0.1073
 3025W        W 7089   3.043   3.941   3.534 -0.3293 -0.1455  0.2179
 3026W        W 7090   5.636   1.932   3.174 -0.0034 -0.0067 -0.2678
 3027W        W 7091   4.521   0.869   2.126  0.2235  0.3059  0.2428
 3028W        W 7092   2.989   8.176   9.459 -0.4703 -0.0292 -0.1347
 3029W        W 7093   0.583   4.169  11.347 -0.1673  0.3040 -0.2419
 3030W        W 7094   9.170   2.396  11.385 -0.4952  0.1153 -0.4097
 3031W        W 7095   9.741  10.134  11.085 -0.2800  0.1533 -0.0961
 3032W        W 7096   4.376   4.058  11.103  0.3008  0.1428 -0.1206
 3033W        W 7097   1.223   6.181   0.171 -0.1052  0.1054 -0.1431
 3034W        W 7098   8.874   3.954   3.165  0.2480 -0.0639  0.1279
 3035W        W 7099   9.364   2.545   2.561 -0.2851  0.0104 -0.1408
 3036W        W 7100   2.394   1.837   1.078  0.1792 -0.0651 -0.3040
 3037W        W 7101   4.671  10.327  10.985  0.1877  0.0294  0.0401
 3038W        W 7102   3.090   7.159   0.403 -0.0114 -0.0819  0.0928
 3039W        W 7103   2.433   3.180   0.711 -0.1171  0.1290  0.0641
 3040W        W 7104   8.781   5.739   9.793  0.0276 -0.2003  0.1263
 3041W        W 7105   4.803   7.487   9.022  0.0505  0.0078  0.1075
 3042W        W 7106  10.174   7.855   1.934  0.0578 -0.2144  0.2834
 3043W        W 7107  10.130   7.839   1.406 -0.1991  0.1839 -0.0686
 3044W        W 7108   8.331   4.859  11.383  0.0637  0.1589  0.0377
 3045W        W 7109   1.705   4.397   3.366 -0.1885 -0.0291 -0.1646
 3046W        W 7110   6.580   5.572   2.285  0.0993  0.1767  0.3890
 3047W        W 7111   4.236   3.712   9.690  0.5634  0.1203 -0.1067
 3048W        W 7112   2.176  10.391   3.340 -0.3908  0.1348  0.0982
 3049W        W 7113   6.020   6.156   3.753  0.2433  0.0945  0.2292
 3050W        W 7114   7.622   3.248   2.914  0.2421  0.2061 -0.2838
 3051W        W 7115   5.600   0.219  10.606  0.0837 -0.1109 -0.0219
 3052W        W 7116   9.566   7.152   2.380  0.0015 -0.3125 -0.2258
 3053W        W 7117   2.635   8.783  10.651 -0.1898  0.1547 -0.0302
 3054W        W 7118   1.023   1.260   2.955 -0.0271  0.1437  0.3028
 3055W        W 7119   8.753   7.205   2.366 -0.0390 -0.0122 -0.1557
 3056W        W 7120   4.955   3.212   0.245  0.1952 -0.3275  0.0068
 3057W        W 7121   5.207   3.775   1.826 -0.0093  0.2929 -0.0439
 3058W        W 7122   0.470   3.433   8.097 -0.0004 -0.2564  0.3414
 3059W        W 7123   8.677   1.045   8.835 -0.1661 -0.2507  0.1623
 3060W        W 7124   2.767   7.273  11.049  0.0710 -0.2005  0.0083
 3061W        W 7125   8.792   7.739   8.517  0.3952  0.4747  0.2407
 3062W        W 7126   9.237   1.882  11.450 -0.2109 -0.0891 -0.1465
 3063W        W 7127   4.717   5.753   1.540  0.0414  0.1082  0.3213
 3064W        W 7128   7.241   5.387   3.555  0.1759 -0.2000  0.0455
 3065W        W 7129  10.329   1.567   0.651  0.0302 -0.2176  0.4057
 3066W        W 7130   3.777   1.254   1.356  0.2108 -0.1522  0.1528
 3067W        W 7131  10.619   1.811   3.293 -0.3798 -0.4885  0.2459
 3068W        W 7132   7.071   5.490   2.070  0.3534  0.0124  0.1566
 3069W        W 7133   5.530  10.593  10.158 -0.0471  0.0017 -0.3925
 3070W        W 7134   5.884   4.541   9.753 -0.1241 -0.0486 -0.1600
 3071W        W 7135   8.053   0.833   1.595 -0.1054 -0.0157 -0.1894
 3072W        W 7136   1.301   2.133   9.159 -0.1342 -0.1088  0.0360
 3073W        W 7137  10.199   9.146   9.645  0.0516 -0.4640 -0.1099
 3074W        W 7138   6.046   6.014   9.550 -0.1138 -0.3298 -0.0796
 3075W        W 7139   1.707   4.091  11.138  0.0190 -0.0695 -0.3416
 3076W        W 7140   8.516   3.521   8.227 -0.3291 -0.1311 -0.1229
 3077W        W 7141   1.527   7.504   3.265  0.1582 -0.0669 -0.1905
 3078W        W 7142   3.792   6.622   9.301 -0.0470 -0.2732  0.1793
 3079W        W 7143   3.620   6.721   0.516  0.2036  0.3288 -0.0016
 3080W        W 7144   1.090   7.168   0.956  0.1128 -0.1368 -0.1236
 3081W        W 7145   7.246   5.046  10.042 -0.3034 -0.0811 -0.1510
 3082W        W 7146   7.727   3.777   2.968 -0.0137  0.0574 -0.1262
 3083W        W 7147   2.915   2.406   8.144 -0.1958  0.0443  0.3211
 3084W        W 7148   7.366   6.482   1.952  0.2011  0.4636 -0.2311
 3085W        W 7149   9.702   7.954   2.214  0.2835  0.3569 -0.4090
 3086W        W 7150   5.844   7.188  10.369 -0.3863 -0.0878 -0.1320
 3087W        W 7151   5.172   7.601  11.055  0.1020 -0.0680  0.0708
 3088W        W 7152   4.702   2.186  10.241  0.1520  0.0147 -0.1253
 3089W        W 7153   0.517   4.683   2.697 -0.0708  0.1749  0.1353
 3090W        W 7154   7.969   7.100   9.075  0.0724  0.0341 -0.0980
 3091W        W 7155   0.776   6.253  10.987  0.2552  0.3180  0.2728
 3092W        W 7156   2.299   5.007   8.624  0.1106  0.1969  0.5001
 3093W        W 7157   7.595   3.827   8.956 -0.2151 -0.0572  0.0976
 3094W        W 7158   9.989   3.894   2.975  0.0612  0.1960 -0.2097
 3095W        W 7159   2.847   1.531   2.280  0.1626  0.1804 -0.0617
 3096W        W 7160   1.583   5.251   9.683 -0.3341  0.3389  0.1348
 3097W        W 7161   4.845   5.483   7.500  0.3982  0.1889 -0.1498
 3098W        W 7162   4.985   3.704   2.476 -0.2776 -0.0390 -0.2942
 3099W        W 7163   3.729   8.441   0.826 -0.1092  0.2568 -0.1122
 3100W        W 7164   6.697   6.462  10.622 -0.1974 -0.0736  0.0540
 3101W        W 7165   9.450   0.823   2.280 -0.1339  0.0741 -0.2617
 3102W        W 7166   3.156  10.376   0.211  0.2937  0.0637  0.3700
 3103W        W 7167   0.260   6.491  11.359 -0.1537 -0.1547 -0.0733
 3104W        W 7168  10.315   1.229  10.498  0.0725  0.2622  0.2566
 3105W        W 7169   3.030  10.333   9.100 -0.1418 -0.1650 -0.0681
 3106W        W 7170   7.043   8.062  11.209  0.0107 -0.0585 -0.1827
 3107W        W 7171   9.894   8.516   0.424  0.0533 -0.0271 -0.2596
 3108W        W 7172   1.105   6.886   9.153  0.2397  0.2411  0.0203
 3109W        W 7173   3.535   1.621   9.890  0.0014  0.1712  0.4186
 3110W        W 7174   8.159   6.124   1.931  0.3221 -0.0843 -0.2490
 3111W        W 7175   6.861   6.337   3.986  0.1488  0.3556  0.2984
 3112W        W 7176   1.840   7.646  11.071  0.1276  0.1346 -0.0498
 3113W        W 7177   4.721   4.935  11.389  0.1088  0.0109 -0.3974
 3114W        W 7178   4.553   2.624  11.028  0.1649 -0.1747 -0.2930
 3115W        W 7179   9.772   0.883   3.051  0.0847  0.0473  0.1051
 3116W        W 7180  10.350   1.636  10.766  0.0632  0.3726  0.0047
 3117W        W 7181   8.897   1.965   4.276  0.0860  0.0305  0.1190
 3118W        W 7182   7.511   0.881  10.829  0.4512  0.1226  0.1476
 3119W        W 7183   5.882   3.204  10.897  0.1991 -0.2119 -0.3580
 3120W        W 7184   7.188   9.012   3.497  0.4272  0.0486 -0.2293
 3121W        W 7185   9.957   3.706  10.150  0.1479 -0.2026  0.1003
 3122W        W 7186   8.350  10.549   9.850 -0.1380 -0.1279 -0.1103
 3123W        W 7187   7.127   6.134   8.689 -0.1927 -0.3125 -0.0637
 3124W        W 7188   1.831   0.615   3.170  0.1735  0.0558  0.0833
 3125W        W 7189   1.846   8.238   0.505  0.0006 -0.0074  0.1214
 3126W        W 7190   6.245   3.334   0.073 -0.1802 -0.3034  0.3177
 3127W        W 7191   0.500   8.668   1.218 -0.1086  0.0888 -0.1306
 3128W        W 7192   7.028   5.145   1.011  0.1321  0.2849 -0.1006
 3129W        W 7193  10.054   3.112  10.728 -0.1843 -0.2459 -0.0397
 3130W        W 7194   6.926   4.431   2.125  0.1060  0.2275 -0.0968
 3131W        W 7195   4.037   3.765   3.293 -0.4270  0.1347  0.1300
 3132W        W 7196   0.864   8.325   1.427 -0.1078 -0.1901  0.0664
 3133W        W 7197   9.690   3.000   3.944 -0.1254  0.1632  0.1680
 3134W        W 7198   1.220   5.940   9.048  0.2259  0.0263 -0.0169
 3135W        W 7199   9.125   3.834   9.310 -0.0516 -0.0489 -0.0636
 3136W        W 7200  10.378   1.121   1.654 -0.1335  0.0825 -0.1359
 3137W        W 7201   4.931   3.678   0.130  0.0267 -0.1008 -0.0373
 3138W        W 7202   4.516   4.056   2.502 -0.1817  0.0326 -0.1365
 3139W        W 7203   3.299  10.509   2.175  0.2221 -0.1150  0.0898
 3140W        W 7204   9.496   3.023  11.035  0.1664  0.1771  0.0126
 3141W        W 7205   9.461   1.859   0.922 -0.0162  0.2840  0.1528
 3142W        W 7206   6.854   0.453   8.434 -0.0333  0.2494  0.0794
 3143W        W 7207   4.596   9.786   1.881 -0.0607 -0.2082 -0.3594
 3144W        W 7208   0.546   0.561   0.642  0.0862  0.1854  0.2680
 3145W        W 7209   2.006   1.395  11.476  0.0479  0.2758  0.1997
 3146W        W 7210   8.767   9.215  11.528  0.2821 -0.3039 -0.2449
 3147W        W 7211   7.923  10.019   0.761 -0.1214 -0.0915  0.0194
 3148W        W 7212   2.900   4.220  11.539 -0.0326  0.1718  0.0350
 3149W        W 7213   0.056  10.243   8.643 -0.1319 -0.1381  0.1141
 3150W        W 7214   9.281   0.950  10.365 -0.0145  0.0819  0.0900
 3151W        W 7215   2.706   1.116   1.337  0.1790  0.0610 -0.1395
 3152W        W 7216   2.818   5.273   1.498 -0.1417 -0.1863 -0.3610
 3153W        W 7217   7.464   4.831   3.815  0.0777 -0.1827  0.2338
 3154W        W 7218   4.934   6.847  10.200  0.0557  0.3030 -0.1251
 3155W        W 7219   0.417   2.234   1.252 -0.0166  0.1756 -0.1910
 3156W        W 7220   9.230   0.049   4.092  0.1501  0.0440 -0.2150
 3157W        W 7221   8.752   5.892   0.687  0.1576  0.2566 -0.2051
 3158W        W 7222   7.599   7.728   1.163 -0.0345 -0.0006 -0.1411
 3159W        W 7223   8.880   0.140   9.881 -0.0594  0.0821 -0.1659
 3160W        W 7224   5.648   0.062   3.403  0.1450 -0.0463 -0.0175
 3161W        W 7225   0.996   6.452   0.529 -0.3508  0.0223 -0.0124
 3162W        W 7226   2.473   5.458  10.173  0.1241  0.1301 -0.0890
 3163W        W 7227   7.372   4.036   3.378  0.1983 -0.2539 -0.0998
 3164W        W 7228   2.475   7.321   2.090  0.4461 -0.0526 -0.1531
 3165W        W 7229   3.888   6.367   0.149  0.0131 -0.1943  0.0729
 3166W        W 7230   3.765   9.117   2.758  0.0462 -0.1344 -0.0904
 3167W        W 7231   1.875   6.748   8.529  0.0004  0.1212 -0.2731
 3168W        W 7232   0.295   7.001   3.479 -0.0134 -0.1422  0.1395
 3169W        W 7233   8.146   3.549  10.099  0.0238 -0.0547  0.2081
 3170W        W 7234   9.003   3.968  10.173 -0.3173 -0.1320  0.1019
 3171W        W 7235   9.434   3.919  11.254 -0.4681 -0.1652  0.1208
 3172W        W 7236   7.200   1.203   1.400 -0.2676 -0.1391 -0.0526
 3173W        W 7237   4.188  10.105   1.674 -0.1791  0.0281 -0.3679
 3174W        W 7238   0.919   5.458   0.580 -0.2943  0.0979  0.0115
 3175W        W 7239   6.075   1.673  10.936 -0.1900 -0.1341  0.0301
 3176W        W 7240   8.053   3.397   1.197 -0.0128 -0.1405  0.2252
 3177W        W 7241   3.639   3.510   7.890  0.2341  0.1568  0.0127
 3178W        W 7242   6.493   1.193   1.125 -0.1237 -0.2679 -0.0367
 3179W        W 7243   2.893   5.607  10.008 -0.1343 -0.0210  0.0446
 3180W        W 7244   2.172   0.586   1.983  0.0318 -0.2648  0.0872
 3181W        W 7245   4.487   2.945   0.610 -0.1396  0.3236 -0.3045
 3182W        W 7246   0.188   3.895   2.311  0.0100 -0.1413 -0.0748
 3183W        W 7247   2.165   5.424   2.499  0.2173 -0.1529 -0.0347
 3184W        W 7248   0.701   4.936  11.222  0.3235 -0.0257  0.1138
 3185W        W 7249   6.966   4.254   1.167  0.0821 -0.2715 -0.2691
 3186W        W 7250   8.366   2.718   8.223 -0.0715 -0.0810 -0.1038
 3187W        W 7251   4.636   4.423   0.289  0.0367  0.0196  0.0879
 3188W        W 7252   6.016   7.726  10.349 -0.0493  0.2714  0.2361
 3189W        W 7253   3.221   7.046   9.985 -0.1400  0.2461  0.0366
 3190W        W 7254   2.696   2.732   8.432 -0.0622  0.1004 -0.1259
 3191W        W 7255   2.606   9.391   7.986 -0.2434  0.2129 -0.1649
 3192W        W 7256   7.296   8.792   7.960 -0.2275  0.0631  0.0158
 3193W        W 7257   0.595   9.043  10.400  0.0830  0.1179  0.0088
 3194W        W 7258   5.872   3.704   7.595  0.0197  0.0558 -0.0862
 3195W        W 7259  10.210   0.165   1.824 -0.0080 -0.1265 -0.3498
 3196W        W 7260  10.389   5.955   1.437  0.0699  0.0460  0.0866
 3197W        W 7261   0.127   0.265  10.833 -0.4327 -0.0628 -0.1001
 3198W        W 7262   6.826   4.234   2.802  0.1092 -0.2282  0.0390
 3199W        W 7263  10.248   6.837  10.678  0.2049 -0.5036  0.1374
 3200W        W 7264   6.046   6.828   0.211 -0.0870 -0.1352  0.1372
 3201W        W 7265   3.078   7.924   2.617  0.0123  0.2202 -0.0091
 3202W        W 7266   1.605   8.475   0.110 -0.0638  0.3258  0.1731
 3203W        W 7267   4.315   5.429   1.691 -0.0473 -0.0303  0.3037
 3204W        W 7268   7.474   7.904   2.618  0.3503 -0.0738 -0.3178
 3205W        W 7269   0.013  10.340   0.964  0.0539  0.3053  0.1381
 3206W        W 7270   3.977   3.225   3.128 -0.0225 -0.0603  0.0437
 3207W        W 7271   5.203   6.143   1.450  0.2520 -0.2166 -0.0425
 3208W        W 7272   0.881   7.459   9.943 -0.0437  0.2813  0.0337
 3209W        W 7273   1.567  10.230   8.828  0.0998  0.1114  0.0717
 3210W        W 7274   6.915   3.039   9.012 -0.1803 -0.0419  0.0242
 3211W        W 7275   4.563   3.272   1.584 -0.0974  0.0053  0.1053
 3212W        W 7276   2.783   6.596   2.617  0.0396  0.0704 -0.1666
 3213W        W 7277   3.659   7.532   7.626 -0.0777  0.2333 -0.1514
 3214W        W 7278   4.679   8.979   8.204  0.4221  0.0509 -0.1526
 3215W        W 7279   0.153   5.652   8.684 -0.1557 -0.0381  0.0761
 3216W        W 7280   0.374   3.843  10.025  0.0641  0.2277  0.0511
 3217W        W 7281   5.895   9.884   2.085  0.0402 -0.1497  0.2041
 3218W        W 7282   1.154   2.164   8.659 -0.0342  0.1982  0.1183
 3219W        W 7283   1.214  10.204  11.197  0.0162  0.0700 -0.1599
 3220W        W 7284   7.232   8.344   2.851 -0.0936  0.0343 -0.0109
 3221W        W 7285   2.355   8.480  11.002 -0.1405 -0.0160  0.1702
 3222W        W 7286   5.094   5.159   8.810  0.3387  0.1357  0.1399
 3223W        W 7287   2.203   0.583   7.935 -0.1781 -0.0064  0.3628
 3224W        W 7288   7.106   6.486  10.920  0.2640 -0.0994  0.1258
 3225W        W 7289   5.153   2.009   2.148  0.0083  0.0881  0.0106
 3226W        W 7290  10.528   2.719   8.435 -0.1563 -0.0617 -0.1031
 3227W        W 7291   4.665   0.293   1.514 -0.1502  0.4425 -0.5009
 3228W        W 7292   5.092  10.088   9.989 -0.2227  0.1527 -0.2644
 3229W        W 7293  10.157   2.664   9.256  0.0320  0.2088 -0.0131
 3230W        W 7294   1.857   7.133   8.875 -0.0759 -0.0086 -0.1622
 3231W        W 7295   3.333   9.218   8.455  0.1437 -0.0695 -0.6020
 3232W        W 7296   2.111   9.359   7.943 -0.1081  0.1320 -0.1911
 3233W        W 7297   3.723   0.986   3.194  0.1183  0.0762  0.0918
 3234W        W 7298   8.062   6.370   8.254  0.3672 -0.2743  0.2069
 3235W        W 7299   6.638  10.035   1.497 -0.2522 -0.0724  0.0898
 3236W        W 7300   2.530   5.476   0.192 -0.4095  0.0902  0.0500
 3237W        W 7301  10.226   3.066   2.083 -0.1728  0.1987 -0.1075
 3238W        W 7302   2.148   9.077   9.826  0.2531 -0.0509  0.1223
 3239W        W 7303   3.307   2.523   8.701  0.0171 -0.0212  0.0136
 3240W        W 7304   0.971   9.020  10.975 -0.0212 -0.2086 -0.1635
 3241W        W 7305   4.780   2.005   2.992 -0.2697 -0.1025  0.2915
 3242W        W 7306   2.246   9.888  10.146  0.0180 -0.0078 -0.1487
 3243W        W 7307   7.452   6.959   9.127 -0.0244  0.3418  0.0749
 3244W        W 7308   2.920   1.982   3.041  0.0726 -0.1325 -0.1074
 3245W        W 7309   1.684   4.676   0.363 -0.0048 -0.1076 -0.0510
 3246W        W 7310   0.768   1.484   8.392  0.2290 -0.2579 -0.1616
 3247W        W 7311   4.043   9.342   1.080 -0.1201 -0.1418 -0.0264
 3248W        W 7312   9.758   3.607  11.440  0.2699  0.1443 -0.0379
 3249W        W 7313   3.005   5.183   2.934  0.0498  0.2093  0.2276
 3250W        W 7314   3.642   5.074   0.992 -0.1975  0.1553  0.1364
 3251W        W 7315   6.842   1.217   0.301  0.1689  0.0165 -0.3506
 3252W        W 7316   3.367   7.465   3.418 -0.1355 -0.2166  0.1195
 3253W        W 7317   5.709   2.947   0.128 -0.1024 -0.0359  0.2075
 3254W        W 7318   8.469   6.941   3.245  0.0072  0.0337 -0.2044
 3255W        W 7319   6.127   4.730   9.269  0.0808 -0.2566  0.0799
 3256W        W 7320   0.575   3.755  11.091 -0.0510  0.0892  0.1836
 3257W        W 7321   1.637  10.364   1.526 -0.4601  0.1232  0.0390
 3258W        W 7322   2.708   0.765  11.447  0.0034  0.0057 -0.1398
 3259W        W 7323   8.823   7.179   9.180 -0.0602 -0.0370  0.2245
 3260W        W 7324   2.837  10.299   8.037 -0.2403 -0.1735 -0.3542
 3261W        W 7325   2.399   1.605   0.139  0.1360  0.1793 -0.0741
 3262W        W 7326   4.774   5.049  10.088  0.1396 -0.2051  0.0004
 3263W        W 7327   3.717   5.707   2.618 -0.0241 -0.1166  0.3794
 3264W        W 7328   8.733   1.492   3.265 -0.0785  0.0232  0.2200
 3265W        W 7329   4.569   3.840   8.259  0.0245  0.2980 -0.0612
 3266W        W 7330   5.152   5.909  11.174 -0.1427  0.1132 -0.0406
 3267W        W 7331   8.301   3.420  10.973 -0.1365  0.2137 -0.0017
 3268W        W 7332   7.810   8.032   0.261 -0.0602 -0.0353  0.0367
 3269W        W 7333   8.374   8.691   2.788 -0.0273  0.0265  0.3458
 3270W        W 7334   9.505   7.067   9.885 -0.2596  0.1702 -0.0783
 3271W        W 7335   2.575   4.654  11.399  0.0045 -0.2980 -0.1358
 3272W        W 7336   7.596  10.314   2.312  0.2762 -0.0761 -0.0264
 3273W        W 7337   3.242   1.936   2.241 -0.0989 -0.0311 -0.0017
 3274W        W 7338   8.446   0.685  11.108 -0.0090  0.2299 -0.0850
 3275W        W 7339   6.151  10.186   2.897  0.0586  0.1094 -0.0446
 3276W        W 7340   8.805   6.619   2.465 -0.2165  0.0416 -0.3429
 3277W        W 7341   9.244   1.870   8.836 -0.0395  0.1498  0.1305
 3278W        W 7342   2.351   8.890   4.380 -0.0280 -0.0312 -0.0253
 3279W        W 7343   5.566   0.594  11.138 -0.0719 -0.0048 -0.1898
 3280W        W 7344   6.375   9.853  10.739  0.2826  0.0086  0.1708
 3281W        W 7345   2.091   1.658   4.343  0.3309  0.2382  0.0169
 3282W        W 7346   0.167   2.698  11.468 -0.3670  0.2718  0.1106
 3283W        W 7347   1.671   4.797   1.609 -0.0282  0.2191 -0.3184
 3284W        W 7348   3.250   7.370   1.992 -0.2679 -0.0165 -0.1946
 3285W        W 7349   0.437   0.991   1.030  0.0990  0.4086 -0.1056
 3286W        W 7350   0.403   6.411   1.087 -0.0974 -0.0660 -0.0504
 3287W        W 7351   4.591   6.758   8.574  0.0215 -0.1311  0.1484
 3288W        W 7352   5.636   7.388   2.836 -0.2502 -0.0201 -0.1315
 3289W        W 7353   2.521   1.871   9.481 -0.1978  0.1544 -0.1201
 3290W        W 7354   7.008   4.909   3.558 -0.2729 -0.0728 -0.0964
 3291W        W 7355   0.829   7.232   8.870  0.0986  0.0462  0.0420
 3292W        W 7356   3.501   5.307   0.544  0.1821  0.3803 -0.0945
 3293W        W 7357   4.999   8.783   1.447 -0.3391  0.1387  0.0444
 3294W        W 7358   4.834   6.474   2.192 -0.1640  0.2168  0.0755
 3295W        W 7359   4.363   4.915   1.478 -0.0123 -0.2534 -0.2276
 3296W        W 7360   3.114   7.848   1.190  0.1659 -0.0208 -0.0787
 3297W        W 7361   7.887   0.027  10.100  0.2726  0.3500 -0.0398
 3298W        W 7362   8.033   8.541   9.167  0.2263  0.1036 -0.2459
 3299W        W 7363   6.623   1.749   9.243  0.0514  0.1786  0.1257
 3300W        W 7364   6.122   8.678   0.369 -0.2127  0.4405 -0.1771
 3301W        W 7365   7.199   0.036   2.138  0.1396  0.0519 -0.2177
 3302W        W 7366  10.636   9.548   3.293 -0.1152  0.1605  0.0855
 3303W        W 7367   9.186   8.551   2.380 -0.0366  0.4148 -0.0289
 3304W        W 7368   5.148   0.288  11.541 -0.2593  0.2171  0.3411
 3305W        W 7369   4.378   1.370   2.009 -0.0752  0.1971 -0.2516
 3306W        W 7370   5.416   9.663   0.145  0.1005 -0.1161  0.0403
 3307W        W 7371   8.719   8.496   2.485  0.0223 -0.0821 -0.1008
 3308W        W 7372   9.688   1.038   0.698  0.2381 -0.0687  0.2105
 3309W        W 7373   4.372   9.298   2.646  0.2455 -0.1473  0.1502
 3310W        W 7374   1.113   7.140   8.301 -0.0615 -0.2161 -0.0502
 3311W        W 7375   7.471   3.573   9.389 -0.0148  0.0183  0.0754
 3312W        W 7376   5.132   0.090  10.568  0.3539 -0.0058  0.0220
 3313W        W 7377   0.883   0.714   9.557 -0.3207 -0.3139 -0.0972
 3314W        W 7378   7.743   3.702   9.784  0.1353  0.0123  0.1882
 3315W        W 7379  10.091   7.941   0.057  0.0378 -0.0561 -0.2552
 3316W        W 7380   6.653   9.745   0.071 -0.3900  0.0292  0.2863
 3317W        W 7381   4.017   7.201   7.940  0.0193  0.1176 -0.0722
 3318W        W 7382   5.210   2.794   0.048  0.1184  0.1173  0.2604
 3319W        W 7383   4.991   9.054   7.808  0.0270  0.5268  0.2352
 3320W        W 7384   9.836   2.391   2.480  0.2797  0.0336  0.1156
 3321W        W 7385   8.676   2.604  11.424 -0.0628  0.0540 -0.0670
 3322W        W 7386   3.461   0.764   8.487  0.2035  0.0103 -0.2671
 3323W        W 7387   6.898   5.512  11.279  0.0754 -0.2122 -0.0678
 3324W        W 7388   0.584   4.395   7.997 -0.0580 -0.0852 -0.3770
 3325W        W 7389   0.997   8.777   1.226  0.1798  0.0877 -0.1703
 3326W        W 7390   1.169   0.506   8.572  0.2736  0.1072 -0.1457
 3327W        W 7391   9.198   8.584   1.578 -0.0497 -0.1863  0.1059
 3328W        W 7392   3.812   6.602   8.264  0.0970  0.0539  0.1327
 3329W        W 7393  10.012   0.085   3.348 -0.1430 -0.0887  0.1573
 3330W        W 7394   0.537   7.887   9.880  0.0877  0.2229 -0.0747
 3331W        W 7395   2.007   1.077  10.391 -0.1061  0.0083 -0.2453
 3332W        W 7396   2.173   8.970  10.877 -0.3225  0.0476  0.3486
 3333W        W 7397   0.358  10.420   1.885  0.0835 -0.2068  0.4101
 3334W        W 7398   7.127   7.276  11.414  0.1751  0.1485 -0.2962
 3335W        W 7399   0.068   3.226   0.863 -0.0746 -0.0787  0.2018
 3336W        W 7400   8.189   6.073   1.025  0.2249 -0.1199 -0.1737
 3337W        W 7401   3.202   6.134   8.161  0.0403 -0.1214  0.0529
 3338W        W 7402   4.582   9.041   1.271  0.1518  0.3735  0.2522
 3339W        W 7403   0.171   7.294   8.337  0.0631  0.2174  0.0427
 3340W        W 7404   8.799   2.172   1.805  0.1116 -0.1584 -0.0744
 3341W        W 7405   4.097   9.061   1.794  0.2212 -0.3312 -0.1654
 3342W        W 7406   9.730   1.983   8.879 -0.0112  0.0864  0.1039
 3343W        W 7407   2.547  10.320   1.620 -0.0177  0.0259  0.1540
 3344W        W 7408  10.577   0.414   3.036  0.0632  0.1218  0.1916
 3345W        W 7409   2.825   3.814  10.177  0.2188  0.0026  0.2793
 3346W        W 7410   4.452   3.436   3.374  0.0875  0.0168 -0.1652
 3347W        W 7411   0.789   5.928   9.971  0.2761 -0.0849  0.2436
 3348W        W 7412   9.774  10.336   0.076  0.1270 -0.3265 -0.0929
 3349W        W 7413   4.572   5.239   9.650  0.0497 -0.2912 -0.1674
 3350W        W 7414   8.101   0.372   1.315  0.2298 -0.1773 -0.0781
 3351W        W 7415   8.266   5.084   1.832  0.0325  0.0131  0.1180
 3352W        W 7416   0.949   3.231  10.436  0.0613 -0.0079  0.1759
 3353W        W 7417   4.921   4.664  11.014 -0.2342  0.0014  0.1139
 3354W        W 7418   3.941   8.546   7.619 -0.1193 -0.1383 -0.0135
 3355W        W 7419   1.706   2.992   7.570 -0.1922  0.1224 -0.2132
 3356W        W 7420   6.485   1.967   3.481 -0.2350 -0.2193  0.1195
 3357W        W 7421   7.738   9.450  10.323 -0.1447  0.1192 -0.2824
 3358W        W 7422   8.147  10.550   3.063  0.2246  0.0669 -0.1125
 3359W        W 7423   7.581   9.917   8.469 -0.2864  0.0463 -0.1974
 3360W        W 7424   3.824   3.714   1.354 -0.0894 -0.0465  0.2348
 3361W        W 7425  10.617   1.788   2.402 -0.2332 -0.0869 -0.1616
 3362W        W 7426   7.637   6.108   1.179  0.2243  0.1313 -0.0608
 3363W        W 7427  10.356   9.915   2.109 -0.0172 -0.0818 -0.2315
 3364W        W 7428   2.304   2.794   1.679 -0.1648 -0.0864  0.1265
 3365W        W 7429   9.476   2.185   3.482  0.1615 -0.0101 -0.0071
 3366W        W 7430   6.890   1.567  11.503 -0.0080  0.0227 -0.2658
 3367W        W 7431   3.542   2.612   3.063 -0.1393  0.3308 -0.2504
 3368W        W 7432   4.745   6.285   4.133 -0.0781  0.0339 -0.2538
 3369W        W 7433   9.558   2.299   1.096 -0.1881 -0.0219  0.3746
 3370W        W 7434   9.743   2.767   9.025  0.0143 -0.0776 -0.1369
 3371W        W 7435   4.755   5.331   0.256 -0.2820 -0.1575 -0.2223
 3372W        W 7436   5.047   5.724   8.109 -0.2149  0.2313  0.2320
 3373W        W 7437   8.403   3.088   1.304 -0.0105  0.1803  0.1261
 3374W        W 7438   5.383   3.343   0.002  0.2019 -0.1341  0.0513
 3375W        W 7439   5.766   4.309   1.325  0.0307 -0.0773  0.2712
 3376W        W 7440   8.544   3.669   8.721 -0.1383 -0.0401 -0.1060
 3377W        W 7441   3.485   5.275   9.358  0.0854 -0.1046  0.0043
 3378W        W 7442   5.013   0.708  11.253 -0.2968 -0.0549 -0.0147
 3379W        W 7443   8.105   6.288   3.718 -0.2074  0.1193 -0.0790
 3380W        W 7444   0.093  10.092  11.567  0.0205  0.0786  0.1558
 3381W        W 7445   9.723   2.794   9.509  0.1357 -0.0551  0.0905
 3382W        W 7446   3.240   4.376   8.973  0.1312 -0.0438  0.2155
 3383W        W 7447   5.716   7.009   1.954 -0.1741  0.0936  0.1824
 3384W        W 7448  10.037   7.600   0.996 -0.3455  0.0119  0.1631
 3385W        W 7449   3.673   4.697   3.183  0.0393  0.0349 -0.3671
 3386W        W 7450   8.338   2.564   1.143  0.2342  0.2617  0.3094
 3387W        W 7451   9.635   1.465   0.572  0.2100 -0.0378 -0.2334
 3388W        W 7452   2.108   4.689   2.459  0.0807 -0.0211 -0.0382
 3389W        W 7453   6.677   0.583   1.678  0.2215  0.1328  0.0115
 3390W        W 7454   5.959  10.533  10.417 -0.1119 -0.0575  0.0256
 3391W        W 7455   1.292   9.015   0.302 -0.2694  0.0377  0.1922
 3392W        W 7456   2.148  10.233   0.466 -0.0389 -0.0742 -0.4820
 3393W        W 7457   7.742   0.697   2.527  0.0067  0.1542  0.2614
 3394W        W 7458   7.102   4.617   0.865 -0.0835 -0.2155  0.1079
 3395W        W 7459   1.910   1.326   1.811  0.0385  0.3589 -0.1839
 3396W        W 7460   0.636   3.046   0.697  0.0905  0.1901  0.1711
 3397W        W 7461   6.474   0.523   8.888 -0.1367  0.1856  0.0797
 3398W        W 7462   7.038   6.763   2.611  0.1212  0.2279  0.1800
 3399W        W 7463   0.975   1.213   3.534 -0.0437  0.0917  0.0469
 3400W        W 7464   6.906   0.905  10.746 -0.3737 -0.2436 -0.0597
 3401W        W 7465   6.013   2.943  11.342 -0.0548 -0.1327  0.1614
 3402W        W 7466   2.474   6.713   4.056 -0.2997  0.2364  0.0741
 3403W        W 7467   9.962   5.054   9.441 -0.2846 -0.3174  0.0799
 3404W        W 7468   3.258   6.556   9.321  0.0304 -0.2021 -0.0609
 3405W        W 7469   7.106   2.612   7.852  0.1152  0.0287  0.1295
 3406W        W 7470   2.205   2.755   2.566 -0.0876  0.0984  0.1741
 3407W        W 7471   6.625   2.603   3.049  0.0536 -0.2925 -0.2589
 3408W        W 7472   4.061   8.393  11.428  0.2580 -0.0609 -0.0811
 3409W        W 7473   7.060   4.480   0.344 -0.2532 -0.0063  0.1334
 3410W        W 7474  10.059   9.355   8.627  0.0370 -0.1468  0.2384
 3411W        W 7475   5.455   2.186   1.727 -0.2137  0.2159  0.0328
 3412W        W 7476   4.714   0.119   8.853  0.0182  0.0289  0.3208
 3413W        W 7477   4.020   8.642   2.734  0.2051  0.2368  0.1640
 3414W        W 7478   8.472   3.597   0.066  0.0147 -0.0691 -0.0017
 3415W        W 7479   4.162   0.710   3.118  0.0355 -0.1768  0.4275
 3416W        W 7480   7.259   5.675   8.548 -0.0133 -0.0562  0.1268
 3417W        W 7481   0.392   3.508   2.462 -0.3166  0.1361 -0.0440
 3418W        W 7482   3.143   1.551   7.963 -0.0259 -0.0091 -0.1354
 3419W        W 7483   8.757   0.594   9.722 -0.0602 -0.1169  0.1643
 3420W        W 7484   1.589   7.936   9.935  0.3688  0.0496 -0.0941
 3421W        W 7485   9.931   1.938   7.511 -0.1830 -0.1089  0.0393
 3422W        W 7486   3.689   4.570   0.075  0.2240 -0.1029 -0.0580
 3423W        W 7487   5.656   1.730   1.571 -0.2083 -0.3373  0.1343
 3424W        W 7488   8.792   7.178   8.009  0.1375 -0.3705 -0.1479
 3425W        W 7489   3.122   8.481   0.063  0.0118  0.1430  0.1713
 3426W        W 7490   5.675   5.992   4.103 -0.1304 -0.1972  0.3402
 3427W        W 7491   8.470   8.598   8.898  0.5707 -0.0110 -0.0182
 3428W        W 7492   2.765   0.798   8.131  0.2217 -0.2522 -0.1728
 3429W        W 7493   1.090   1.637   9.213 -0.1209  0.1346  0.0131
 3430W        W 7494   2.397   0.334  11.470  0.0774  0.0764  0.2357
 3431W        W 7495   1.725   9.206   0.481  0.0388 -0.2265 -0.1788
 3432W        W 7496   3.778   7.047   1.148 -0.0707  0.1239  0.2323
 3433W        W 7497   6.214   7.511   1.158 -0.1843 -0.0083 -0.2140
 3434W        W 7498   0.115   4.621   9.792  0.1371 -0.2365  0.1711
 3435W        W 7499   5.160   4.729   2.645 -0.1707 -0.0837  0.1342
 3436W        W 7500   4.632   3.886   0.475 -0.3511  0.0287 -0.1365
 3437W        W 7501   1.944   3.203  10.395 -0.0046 -0.1733  0.2182
 3438W        W 7502  10.140   1.474   2.578 -0.3213  0.1857  0.1820
 3439W        W 7503   6.499   8.151   9.854 -0.0699  0.0918  0.2889
 3440W        W 7504   1.546   1.796   8.878  0.0568  0.0853 -0.0776
 3441W        W 7505   2.530   2.359   2.398  0.2841 -0.2794 -0.2919
 3442W        W 7506   2.795   5.298   3.415  0.1410  0.1695 -0.0294
 3443W        W 7507   5.938   6.063   1.150 -0.1176 -0.0309 -0.0562
 3444W        W 7508   6.955   2.730  11.003 -0.0526  0.0742  0.3491
 3445W        W 7509   6.678   5.684   9.872 -0.0661  0.4593  0.2171
 3446W        W 7510   0.270   7.676   0.953 -0.0382  0.0596 -0.2299
 3447W        W 7511   0.346   8.821   2.437 -0.2422 -0.1958 -0.1978
 3448W        W 7512   4.442   1.351   0.556 -0.1955 -0.2606  0.1313
 3449W        W 7513   0.991   5.195  11.571 -0.2517 -0.0851  0.0210
 3450W        W 7514   7.020   4.008   0.578 -0.3067 -0.1300  0.0099
 3451W        W 7515   4.810   6.939   1.683 -0.3289  0.0542 -0.2105
 3452W        W 7516   9.338   7.312   0.599  0.0160 -0.2022  0.0361
 3453W        W 7517   2.879   5.187  10.361 -0.0529  0.0916  0.1585
 3454W        W 7518   2.008  10.044   0.924 -0.0360  0.1154 -0.1733
 3455W        W 7519   5.242   1.674   2.976 -0.2082 -0.1042  0.0830
 3456W        W 7520   2.644   8.993   2.046 -0.0642 -0.2041 -0.1342
 3457W        W 7521   7.093   1.945   0.809  0.0207 -0.0098  0.1194
 3458W        W 7522   6.284   1.955   8.893 -0.2108  0.1527  0.0117
 3459W        W 7523   4.714   7.323  10.106 -0.0236  0.2064  0.3553
 3460W        W 7524   3.492   0.211   7.457 -0.1754  0.2669 -0.0937
 3461W        W 7525   7.976  10.484   2.065  0.0220  0.3030 -0.0778
 3462W        W 7526   8.397  10.505   2.295 -0.0544 -0.4126 -0.0893
 3463W        W 7527   7.387   5.976   0.691  0.1599  0.0139  0.1382
 3464W        W 7528   5.765   9.767  11.423  0.0480  0.1401  0.4193
 3465W        W 7529   9.315   6.597   9.727 -0.4174 -0.1648  0.0078
 3466W        W 7530   8.558   7.254   9.859  0.0357 -0.2705 -0.0288
 3467W        W 7531   2.441   8.148   8.609 -0.1196 -0.1234 -0.2012
 3468W        W 7532   0.004   4.325   7.982 -0.0860 -0.0558  0.0745
 3469W        W 7533   3.794   0.312   7.869  0.0247  0.2730  0.3268
 3470W        W 7534   1.685   1.388   8.525  0.0360  0.1476  0.0011
 3471W        W 7535   5.413   9.639   8.340  0.3252  0.1389  0.3576
 3472W        W 7536   0.689   8.942   8.951 -0.0032 -0.2182  0.2795
 3473W        W 7537   0.036   7.158   8.838 -0.2236  0.2148  0.2185
 3474W        W 7538   1.401   6.634   0.286  0.0823  0.0529  0.4682
 3475W        W 7539   9.955   0.698   9.712  0.2043 -0.0756 -0.1174
 3476W        W 7540   4.067   5.133   0.646 -0.2282  0.0667  0.0475
 3477W        W 7541   7.378   5.255  10.518 -0.0746  0.0068  0.2108
 3478W        W 7542   4.475  10.596   8.450  0.3306 -0.1375 -0.1088
 3479W        W 7543   7.066   3.858   2.304 -0.1137 -0.0488 -0.4328
 3480W        W 7544   4.424   6.037   2.528 -0.1173  0.2825  0.0051
 3481W        W 7545   2.720   1.505   2.870 -0.0033  0.0118 -0.0280
 3482W        W 7546   6.091   3.006   8.415 -0.2703 -0.1257 -0.0086
 3483W        W 7547   6.346   4.429   9.617  0.0226 -0.1393  0.1252
 3484W        W 7548   2.801   4.151   0.974 -0.0201  0.0318  0.1742
 3485W        W 7549   3.978   4.933  10.834  0.2041  0.2366  0.1185
 3486W        W 7550   6.377   8.246   7.855  0.1009  0.0992 -0.0521
 3487W        W 7551  10.453  10.567   3.186  0.2718  0.1091 -0.3252
 3488W        W 7552   8.428   8.643   4.085  0.3204 -0.2763  0.5166
 3489W        W 7553   0.262   5.943   3.404  0.0745 -0.0731  0.2731
 3490W        W 7554   7.219   3.907   2.863 -0.1797 -0.2022 -0.0426
 3491W        W 7555   2.202   2.365   3.381  0.2304 -0.1054 -0.0186
 3492W        W 7556   7.140   6.616  10.329  0.0941 -0.0181  0.0842
 3493W        W 7557   3.287   6.688   0.150  0.4030 -0.0781  0.3299
 3494W        W 7558   9.777   5.072   3.064  0.2767  0.1724  0.0384
 3495W        W 7559   7.352   6.636   2.946  0.2040 -0.0777  0.2328
 3496W        W 7560   4.997   4.354  10.647  0.2443  0.1967 -0.1254
 3497W        W 7561   7.745   9.768   8.950 -0.2820  0.0638  0.0936
 3498W        W 7562   8.826   4.311   2.010  0.1086  0.1739  0.1524
 3499W        W 7563  10.221   7.065   0.798 -0.0604  0.0530 -0.1945
 3500W        W 7564   3.793   7.408  11.121  0.3373  0.0596  0.2220
 3501W        W 7565   5.760   4.842   1.303  0.1369  0.4261  0.2533
 3502W        W 7566   7.986   0.634  11.304 -0.1519 -0.1658 -0.1500
 3503W        W 7567   6.741   9.005  10.378 -0.0050 -0.1319 -0.0657
 3504W        W 7568   6.782   3.197  11.104 -0.1306  0.0642 -0.1376
 3505W        W 7569   3.151  10.329   8.590 -0.1774  0.0805  0.0409
 3506W        W 7570   8.238   8.286   2.489  0.0987  0.0283 -0.1299
 3507W        W 7571   5.959   7.047  10.862 -0.0417 -0.2179 -0.1545
 3508W        W 7572   2.434   5.830   9.792  0.2453 -0.2269 -0.0577
 3509W        W 7573   4.656   8.240   8.089  0.3229  0.2025 -0.0736
 3510W        W 7574   0.660   7.511  11.233  0.2795  0.0319  0.0563
 3511W        W 7575   9.411   8.489   3.060  0.1069  0.0796  0.0233
 3512W        W 7576   4.557   3.487   9.160  0.1793 -0.0192  0.1254
 3513W        W 7577   8.424   5.922   1.501  0.1576  0.2312 -0.0424
 3514W        W 7578   0.857   8.671  10.100 -0.0934 -0.0124  0.1703
 3515W        W 7579   0.736   3.981   8.224 -0.2774  0.1481  0.1079
 3516W        W 7580   8.719   7.432   1.665 -0.1337  0.1996  0.0721
 3517W        W 7581   7.093   9.118   9.363 -0.2659 -0.0929  0.3067
 3518W        W 7582   3.598   3.559   3.183  0.2463  0.1694  0.2367
 3519W        W 7583   6.463   7.875   3.013  0.1791  0.0990 -0.1703
 3520W        W 7584   1.883   0.330  11.499 -0.1868  0.0313  0.2484
 3521W        W 7585   8.426   1.051   2.377  0.0952 -0.2285 -0.1379
 3522W        W 7586   0.138   0.964   8.725 -0.1877 -0.1231 -0.1000
 3523W        W 7587   8.199   4.270  10.621  0.2936 -0.5294  0.0933
 3524W        W 7588   0.192   1.804   0.539 -0.1594  0.1323  0.2740
 3525W        W 7589   4.853   3.152   3.136  0.0763 -0.0343 -0.0934
 3526W        W 7590   5.696   0.030   9.203  0.3946 -0.1486 -0.0934
 3527W        W 7591  10.328   5.930  10.904 -0.2541 -0.0963  0.0556
 3528W        W 7592   6.633   6.322   9.678  0.1409  0.0398  0.2096
 3529W        W 7593   2.714   1.620   1.399  0.1105  0.0202  0.0260
 3530W        W 7594   9.666   4.161   2.677 -0.0045  0.1900  0.1726
 3531W        W 7595   8.238   6.968   1.942 -0.1259  0.1086 -0.0552
 3532W        W 7596   4.260   7.410  10.329  0.3034  0.0707 -0.1440
 3533W        W 7597   4.671   5.788   0.388  0.2677 -0.1183  0.1111
 3534W        W 7598   7.832   3.970   8.057  0.2151  0.0713  0.0744
 3535W        W 7599   9.938   2.677  10.958 -0.0183  0.1620 -0.0121
 3536W        W 7600   8.353   9.494   2.205  0.1853  0.2194 -0.0591
 3537W        W 7601   4.046   8.550   8.894  0.1868 -0.1324  0.0965
 3538W        W 7602   5.007   6.498   7.777 -0.2831  0.0409  0.1287
 3539W        W 7603   7.201   4.427   3.648 -0.0484 -0.4381 -0.0110
 3540W        W 7604   5.853   4.355   2.816  0.2130 -0.0526 -0.1625
 3541W        W 7605   6.224   8.192   0.201  0.1128 -0.0995  0.1270
 3542W        W 7606   3.687   3.799   8.299  0.0274 -0.4422  0.1976
 3543W        W 7607   0.094   7.206   0.922 -0.0392 -0.0744 -0.0571
 3544W        W 7608   9.401   7.411  10.864 -0.5414  0.2882 -0.0483
 3545W        W 7609   4.654   7.180   3.605  0.0102  0.1298  0.1063
 3546W        W 7610   2.847   2.637   1.625  0.0157 -0.0492 -0.3594
 3547W        W 7611   7.480   4.394  11.195  0.1868 -0.1132 -0.3795
 3548W        W 7612   7.654   4.096   9.487  0.2927  0.0487 -0.0981
 3549W        W 7613   5.440  10.363   0.651 -0.1272  0.1063 -0.0473
 3550W        W 7614   4.544   5.997   3.071  0.0622  0.0669  0.3046
 3551W        W 7615   3.259   3.167   1.818  0.1133 -0.1910  0.0850
 3552W        W 7616   8.219   9.956   3.830  0.0174 -0.0348 -0.1040
 3553W        W 7617   8.011   4.018  10.162  0.1439  0.0840 -0.0837
 3554W        W 7618   1.533   2.182   1.970  0.1215  0.0509  0.2198
 3555W        W 7619   6.425   0.912   9.293  0.2777 -0.5920 -0.0755
 3556W        W 7620   6.850  10.192  10.816  0.0562 -0.2981  0.1119
 3557W        W 7621   4.503   9.761  11.466 -0.0229 -0.0001  0.1271
 3558W        W 7622   9.872   5.067   1.335  0.0307  0.0829  0.1068
 3559W        W 7623   7.831   8.060   9.903 -0.2559  0.4916 -0.0794
 3560W        W 7624   5.056   2.617   9.093  0.0774  0.0993  0.0366
 3561W        W 7625   6.624   1.654   3.065  0.0472 -0.0687 -0.4643
 3562W        W 7626   5.489   6.128   1.877 -0.2520  0.0666  0.2880
 3563W        W 7627   5.752   7.193   1.523  0.1504 -0.1365  0.1903
 3564W        W 7628   0.012   4.583   8.917  0.0171  0.3651  0.3321
 3565W        W 7629   8.871   3.060   9.051  0.0116  0.2725 -0.1094
 3566W        W 7630   6.715   2.270   0.659  0.2006 -0.2094  0.1489
 3567W        W 7631   0.167   4.413   2.340  0.1933  0.2135  0.0030
 3568W        W 7632   0.173   4.468   1.474 -0.0003 -0.0924 -0.2162
 3569W        W 7633   6.120   8.099  10.666 -0.4289  0.1277  0.2131
 3570W        W 7634   1.987   5.159   9.326  0.1432  0.1965  0.1356
 3571W        W 7635   6.667   4.108   0.208 -0.1656 -0.0134  0.0181
 3572W        W 7636   7.189   2.954   2.098 -0.2949 -0.0281 -0.1205
 3573W        W 7637   8.678   1.487   2.370 -0.0221 -0.2181 -0.0689
 3574W        W 7638   1.485   1.018   3.047  0.3766  0.1302  0.2955
 3575W        W 7639   7.237   5.201   9.303 -0.1415 -0.0788 -0.0145
 3576W        W 7640   9.417   0.765   7.932  0.2034 -0.0393 -0.0153
 3577W        W 7641   3.373   4.371   1.964 -0.1506 -0.0249  0.4131
 3578W        W 7642   0.611   7.198   0.948  0.0836 -0.1097  0.2975
 3579W        W 7643   9.775   6.265   2.562 -0.0094  0.0626  0.1400
 3580W        W 7644   6.754   7.307   0.588 -0.2953  0.1825  0.1249
 3581W        W 7645   7.346   4.726   0.027 -0.0804  0.0552 -0.2544
 3582W        W 7646   7.519  10.522   0.432  0.0975  0.0342 -0.2670
 3583W        W 7647   7.023   1.505   9.865  0.0734  0.1720  0.1827
 3584W        W 7648   1.272   0.976   2.599 -0.0252 -0.2563  0.0676
 3585W        W 7649   5.353   6.484  10.130 -0.0786 -0.2579 -0.0578
 3586W        W 7650   4.983  10.608   8.462 -0.0226 -0.1671  0.0361
 3587W        W 7651   8.211   8.329   0.854 -0.1232 -0.0216  0.0126
 3588W        W 7652   3.836   5.526   3.122  0.4840 -0.1736 -0.1227
 3589W        W 7653   0.452   4.487   1.052 -0.1722 -0.1823  0.1746
 3590W        W 7654   9.991   6.239   0.209  0.0147 -0.0146 -0.0877
 3591W        W 7655   5.899   2.130   7.813  0.2729  0.0355 -0.0582
 3592W        W 7656   2.347   7.776   3.051 -0.0869  0.1673  0.0796
 3593W        W 7657   8.520   2.745   8.975 -0.0576  0.2307 -0.3347
 3594W        W 7658   6.224  10.292  10.903 -0.4824  0.0278  0.0508
 3595W        W 7659   1.281   3.854   2.906 -0.2098 -0.0638  0.1305
 3596W        W 7660   1.176   6.384   9.246 -0.0198 -0.0451 -0.0630
 3597W        W 7661   3.891   4.461  11.049 -0.2116 -0.0436 -0.1393
 3598W        W 7662   6.420   0.243   3.073 -0.0839 -0.1176 -0.0571
 3599W        W 7663   8.307   5.222  10.080 -0.4130  0.1895 -0.0738
 3600W        W 7664   9.011   1.048  10.782  0.1373  0.2470 -0.1805
 3601W        W 7665   9.056   8.610  10.783  0.0569 -0.3225  0.0415
 3602W        W 7666   4.219   5.684   1.235  0.0235  0.2422  0.0041
 3603W        W 7667   2.381   5.898   8.810 -0.2186  0.0571  0.1164
 3604W        W 7668   5.738   2.570   9.686 -0.1038  0.4003  0.0163
 3605W        W 7669   7.668   9.827  11.170  0.0220 -0.0195  0.0362
 3606W        W 7670   4.621  10.042   0.333  0.1927  0.0861  0.0192
 3607W        W 7671   0.392   7.609  10.756  0.0970 -0.1367 -0.3751
 3608W        W 7672   5.104   3.027   2.088 -0.0058  0.0371 -0.0833
 3609W        W 7673   3.319   4.787   2.849  0.1674  0.0319 -0.0681
 3610W        W 7674   0.232   4.090   1.136  0.1457  0.0773  0.1175
 3611W        W 7675   0.691   2.379   3.454 -0.2192 -0.2452  0.1021
 3612W        W 7676   5.008   5.207  10.488 -0.1118  0.0570  0.0153
 3613W        W 7677   3.444   3.511  10.793  0.2490  0.2003  0.0563
 3614W        W 7678   0.577   8.364   9.781 -0.0630  0.0238  0.2074
 3615W        W 7679   5.097   8.477   0.715 -0.0650 -0.1507 -0.0629
 3616W        W 7680   3.050   7.577   8.277 -0.2099 -0.2277  0.0894
 3617W        W 7681   0.861   4.895   1.488  0.1212  0.1856  0.0940
 3618W        W 7682   5.113   5.603   2.859  0.2255  0.1674  0.1440
 3619W        W 7683   3.120  10.159   4.373 -0.3418 -0.2153  0.1379
 3620W        W 7684   1.742   1.964   0.807 -0.2693 -0.2106  0.3683
 3621W        W 7685   4.087   9.969   0.074 -0.0975  0.0562  0.0986
 3622W        W 7686   3.348   6.933   2.692  0.0348 -0.0019 -0.1857
 3623W        W 7687   8.894  10.601   7.546  0.0824  0.0558  0.2460
 3624W        W 7688   9.919   7.539  11.137 -0.0763 -0.1627 -0.0243
 3625W        W 7689   8.204   2.966   1.736  0.2193 -0.3849 -0.3265
 3626W        W 7690   7.786   1.650   9.616 -0.0027  0.1350  0.1473
 3627W        W 7691   5.721   8.112  10.316 -0.2306 -0.3448 -0.3240
 3628W        W 7692   2.370   5.004   3.289 -0.0027  0.0736 -0.1357
 3629W        W 7693   1.244   2.850  10.524 -0.2140 -0.5255 -0.3189
 3630W        W 7694   9.179   6.163  11.350  0.0890 -0.2719 -0.0507
 3631W        W 7695   6.817   1.328   8.429 -0.2380  0.0950  0.2193
 3632W        W 7696   9.374   9.375  10.525 -0.1192 -0.3375  0.1624
 3633W        W 7697   6.743   0.542   0.486  0.0240  0.1092  0.0053
 3634W        W 7698   0.348   8.285   8.142  0.0472 -0.1442 -0.0344
 3635W        W 7699   7.140   7.236   8.834 -0.1371  0.2701 -0.0090
 3636W        W 7700   5.422   3.102  11.171 -0.3156 -0.5271  0.4649
 3637W        W 7701   7.808   5.393  11.502  0.2144 -0.0397  0.2724
 3638W        W 7702   5.522   1.245   7.336  0.0040 -0.1005 -0.0631
 3639W        W 7703  10.271   3.670   0.431 -0.0922  0.1044  0.0363
 3640W        W 7704   2.192   1.724   2.681  0.3282 -0.2104  0.0810
 3641W        W 7705   4.528   8.610   8.955 -0.1202  0.0715 -0.1298
 3642W        W 7706   5.179   1.196   0.165  0.1020 -0.0857  0.1355
 3643W        W 7707   2.588   9.935   7.202  0.0334 -0.0825 -0.0807
 3644W        W 7708   2.992   8.072  11.378 -0.0142 -0.0354  0.0590
 3645W        W 7709   6.114   3.500   2.922  0.1780 -0.1463  0.2043
 3646W        W 7710   4.326   1.813  10.349 -0.1215  0.0109  0.0425
 3647W        W 7711   2.143   3.638   0.754  0.1185  0.0632  0.1057
 3648W        W 7712   4.606   9.273   3.911 -0.1452  0.1083 -0.1275
 3649W        W 7713   9.716   9.095   1.800  0.0853 -0.0686  0.0607
 3650W        W 7714   5.543   0.318   8.363  0.1923  0.0603 -0.2622
 3651W        W 7715   1.147   1.531   1.396  0.1697 -0.1683  0.1087
 3652W        W 7716   3.936   7.396   2.687 -0.1995  0.1779  0.1138
 3653W        W 7717   1.688   8.098  10.788  0.3010  0.0189 -0.2634
 3654W        W 7718   9.622   8.550   4.146 -0.0102 -0.1009  0.0741
 3655W        W 7719   4.982   9.946  11.528 -0.3372  0.0135 -0.1439
 3656W        W 7720   1.238   0.278   9.035 -0.1199  0.0640 -0.0532
 3657W        W 7721   3.700  10.262   0.304 -0.3694 -0.0227  0.1783
 3658W        W 7722   2.923   6.827  11.337  0.1112 -0.0288 -0.2842
 3659W        W 7723   3.403   0.245   8.394  0.1205 -0.2472  0.3460
 3660W        W 7724   6.519   1.604   0.256  0.0766  0.0878  0.0181
 3661W        W 7725   2.165   2.367  10.143 -0.2199  0.0881  0.3615
 3662W        W 7726   6.978   0.998   2.984 -0.4319  0.3682 -0.1500
 3663W        W 7727   4.382   9.759   2.461  0.1053  0.0758  0.2494
 3664W        W 7728   1.174   1.493  10.582 -0.1396  0.2803  0.2256
 3665W        W 7729   0.663   0.343   8.405 -0.1206  0.0019 -0.2485
 3666W        W 7730   3.325   5.785   3.021 -0.1001  0.0349  0.1860
 3667W        W 7731   7.111   4.350   1.660  0.2298 -0.1535  0.1129
 3668W        W 7732   4.793   4.533   7.902 -0.3792 -0.0206 -0.1615
 3669W        W 7733   3.260   2.159  11.016 -0.0512 -0.0491  0.1295
 3670W        W 7734  10.173   8.365   0.810 -0.2306 -0.3727  0.1898
 3671W        W 7735   5.856  10.313   9.470 -0.0340 -0.1306  0.2879
 3672W        W 7736   9.713   2.591   1.713  0.0100 -0.1751  0.0082
 3673W        W 7737   7.570   0.365   0.406 -0.2851  0.2337 -0.0448
 3674W        W 7738   2.478   5.181  10.757  0.0044 -0.1132 -0.0208
 3675W        W 7739   1.532   1.692   1.716  0.4096 -0.0118 -0.0862
 3676W        W 7740   6.287   3.904   3.501  0.0833 -0.0216 -0.2812
 3677W        W 7741   4.556   6.878  11.018 -0.1130 -0.0436 -0.1524
 3678W        W 7742   3.133   5.623   1.984 -0.1709 -0.2121 -0.2389
 3679W        W 7743   3.955   1.353   9.077 -0.0926  0.0301  0.0876
 3680W        W 7744   2.511   2.772   3.147 -0.2428 -0.0956 -0.0012
 3681W        W 7745  10.483   7.778  10.540 -0.0342 -0.1464  0.2980
 3682W        W 7746   1.910   3.071  11.309  0.1007 -0.0238 -0.1226
 3683W        W 7747   4.178   2.798   7.596  0.0520  0.0276  0.0443
 3684W        W 7748   4.064   1.420  10.221 -0.3279  0.1793 -0.1438
 3685W        W 7749   6.157   8.526   9.557 -0.0102  0.0137 -0.1770
 3686W        W 7750   1.821   7.528   0.275  0.2419  0.0299 -0.4098
 3687W        W 7751   3.241   0.661  10.138 -0.1491 -0.0623 -0.1582
 3688W        W 7752   5.365   2.199   0.616  0.2798  0.3732 -0.1339
 3689W        W 7753   2.764   4.006   4.023  0.2804  0.2144 -0.0703
 3690W        W 7754   2.936   7.555  10.070  0.1782  0.0679 -0.0137
 3691W        W 7755   3.806   3.995   9.627 -0.0297 -0.0750 -0.1280
 3692W        W 7756   7.550   0.699  11.582 -0.1681 -0.0058 -0.1092
 3693W        W 7757   9.848   8.216   1.751  0.0244  0.2037  0.0198
 3694W        W 7758   5.573   4.169   9.894 -0.3422  0.2422  0.0013
 3695W        W 7759   3.922   0.738  10.761  0.1190  0.0219  0.0718
 3696W        W 7760   1.262   5.939  10.129  0.1212  0.4650 -0.1388
 3697W        W 7761   6.245   5.927   2.007  0.0295 -0.0652 -0.0610
 3698W        W 7762   3.018   6.141   2.869 -0.2846 -0.0367 -0.0832
 3699W        W 7763   5.694   0.969   9.293 -0.2438  0.3178 -0.0334
 3700W        W 7764   2.620   2.784   7.868 -0.1115 -0.0797  0.3843
 3701W        W 7765   9.993   4.814  11.416  0.1248 -0.1335  0.1765
 3702W        W 7766   7.437   7.516   1.698  0.0751 -0.1366 -0.5591
 3703W        W 7767   4.982   4.715   3.128 -0.1184  0.0138 -0.2442
 3704W        W 7768   7.817   7.404   0.893 -0.3358 -0.1822  0.1566
 3705W        W 7769   9.995  10.307   2.103 -0.1658  0.1744 -0.1373
 3706W        W 7770   4.578   0.821   9.587  0.0823 -0.2852  0.0020
 3707W        W 7771   6.813   7.510   9.075  0.0420  0.0481 -0.3217
 3708W        W 7772   3.848   1.154  11.219 -0.1134 -0.1355  0.0177
 3709W        W 7773   6.452   5.940   1.408 -0.1998 -0.1255  0.1473
 3710W        W 7774   2.203   1.502   1.445 -0.1675  0.0375 -0.0232
 3711W        W 7775   5.802   9.472   7.465 -0.0683  0.0802  0.2166
 3712W        W 7776   1.655   8.125  11.319 -0.0883 -0.2236  0.0277
 3713W        W 7777   2.746   7.994   9.873  0.1179  0.1223  0.1187
 3714W        W 7778   4.325   8.794   7.843 -0.1246 -0.0593  0.2219
 3715W        W 7779   2.221   0.325   9.893 -0.1143 -0.2728 -0.2304
 3716W        W 7780   7.731   5.834   8.864 -0.0767 -0.0412 -0.0023
 3717W        W 7781   9.868   5.481   0.306  0.3694 -0.0337 -0.0443
 3718W        W 7782   5.117   9.209   2.047 -0.5549  0.0309 -0.0721
 3719W        W 7783   7.868   7.305   1.956 -0.2844  0.0235  0.2442
 3720W        W 7784   4.956   4.150   2.871  0.1062  0.0630 -0.1181
 3721W        W 7785   8.444   3.760   1.338 -0.1757  0.2591 -0.0683
 3722W        W 7786   2.294   5.446   1.085  0.3251  0.2575 -0.0801
 3723W        W 7787   3.687   4.234   0.578 -0.1608 -0.3095  0.1748
 3724W        W 7788   5.969   1.444   9.018  0.0585  0.0829 -0.1664
 3725W        W 7789   8.842  10.037   7.977 -0.1982  0.0226  0.1254
 3726W        W 7790   1.399   0.322  10.226 -0.3469  0.3768  0.4401
 3727W        W 7791   6.844   5.702   0.644  0.3276  0.1340 -0.0276
 3728W        W 7792   0.611   8.792  11.432 -0.1834 -0.0550 -0.0118
 3729W        W 7793   6.713   0.651   1.111 -0.2002 -0.2784  0.0086
 3730W        W 7794   3.630   0.432   2.893 -0.0297 -0.2551 -0.2246
 3731W        W 7795   6.755   3.982   9.664  0.0302 -0.3133 -0.0588
 3732W        W 7796   2.906   8.571   0.566  0.0904  0.1906  0.1150
 3733W        W 7797   6.638   6.127   3.567 -0.1364 -0.1108  0.1183
 3734W        W 7798  10.028   3.317   7.394 -0.1383 -0.2856  0.1057
 3735W        W 7799   5.525   6.907   2.433 -0.2707  0.0349 -0.2188
 3736W        W 7800   7.655   1.930   8.399 -0.0211 -0.0934 -0.1478
 3737W        W 7801   2.027   7.106   9.362  0.1022  0.1644 -0.0667
 3738W        W 7802   2.179   1.959   0.537 -0.2089  0.2508  0.4162
 3739W        W 7803   2.025  10.096   9.189  0.0050  0.0179 -0.2865
 3740W        W 7804   0.734   8.630   1.943  0.1000 -0.2553 -0.1565
 3741W        W 7805   8.592  10.542   1.718  0.0473 -0.1742  0.1405
 3742W        W 7806  10.343   2.315   1.625  0.1236  0.0264  0.0201
 3743W        W 7807   9.971   3.672  10.633 -0.1090 -0.4064 -0.3073
 3744W        W 7808   0.298   4.849   2.255  0.1310  0.0807  0.1349
 3745W        W 7809   1.870  10.535   0.696 -0.0020 -0.1688 -0.1822
 3746W        W 7810   2.946   5.766   0.390 -0.2083  0.0648  0.0722
 3747W        W 7811   1.215   5.853   0.654 -0.1262  0.0758  0.0137
 3748W        W 7812   1.989   5.124   0.591 -0.0964  0.1887 -0.4889
 3749W        W 7813   3.793   3.243  11.220 -0.1577 -0.1004  0.1852
 3750W        W 7814  10.627   0.971   1.227 -0.0064  0.0553 -0.2845
 3751W        W 7815  10.324  10.117   9.014 -0.3334 -0.0837  0.1305
 3752W        W 7816   6.207   0.549   1.872  0.1825 -0.1506  0.0598
 3753W        W 7817   3.522   6.916   7.502  0.3554  0.0261  0.0238
 3754W        W 7818   8.847   3.730  11.323 -0.0439  0.0495 -0.2460
 3755W        W 7819  10.600   7.825  11.407  0.2664 -0.0600 -0.0572
 3756W        W 7820  10.406   2.265   3.762  0.1097  0.0794 -0.3551
 3757W        W 7821   3.795   0.256  11.208 -0.2572 -0.0532  0.1648
 3758W        W 7822   0.887  10.451   9.780  0.3069 -0.2322  0.1277
 3759W        W 7823   0.751   9.934   1.758 -0.2078 -0.0263 -0.0631
 3760W        W 7824   7.400   1.745   3.357 -0.1098 -0.0892  0.3379
 3761W        W 7825   5.516   1.395   0.566  0.0192  0.0731  0.1261
 3762W        W 7826   2.960   8.873   3.532  0.0439 -0.1754  0.0732
 3763W        W 7827   7.392   8.207   0.090  0.1839  0.0019 -0.2053
 3764W        W 7828   8.562   9.337   1.753  0.3179  0.1234 -0.0986
 3765W        W 7829   0.956   4.465  11.253 -0.1737 -0.3194  0.1088
 3766W        W 7830  10.520   3.748   9.914  0.0487  0.0298  0.1050
 3767W        W 7831   1.200   3.142   8.960  0.2278 -0.0442  0.0548
 3768W        W 7832   5.667   8.575   2.618 -0.2235 -0.4070 -0.1512
 3769W        W 7833   9.080   4.006   8.863  0.1524  0.0843 -0.1664
 3770W        W 7834   2.533   0.073   9.565 -0.1431  0.3216  0.1354
 3771W        W 7835   9.540   5.896   3.109 -0.2707 -0.1100  0.0803
 3772W        W 7836   3.297   8.334   8.146  0.0702 -0.1576 -0.0999
 3773W        W 7837   5.253   4.593   8.212  0.1454  0.0364 -0.0225
 3774W        W 7838   3.884   6.064   0.535  0.1360 -0.0770 -0.0081
 3775W        W 7839   7.093   5.960   9.604  0.0362 -0.1602 -0.0947
 3776W        W 7840   7.737   2.600   2.111  0.1038  0.1305  0.4063
 3777W        W 7841   4.660   9.856   0.818  0.1063  0.4934  0.0908
 3778W        W 7842   9.231   8.010   0.979  0.0184  0.2811  0.2730
 3779W        W 7843  10.406   8.312  11.347 -0.2386  0.1090 -0.3357
 3780W        W 7844   0.883   4.358   2.878 -0.2426 -0.1055  0.2859
 3781W        W 7845   0.691   6.936   8.105  0.0730  0.2638  0.1693
 3782W        W 7846   7.614   3.060   1.228  0.2018 -0.0571  0.0322
 3783W        W 7847  10.599   8.488   1.151  0.1173 -0.4199 -0.0785
 3784W        W 7848   2.136   6.205   9.286 -0.2394 -0.1548 -0.0938
 3785W        W 7849   9.463  10.546   8.216  0.0246  0.1508  0.1551
 3786W        W 7850   0.173   1.638  10.540 -0.0757 -0.0228 -0.0108
 3787W        W 7851   6.222   6.459   1.227 -0.0312 -0.2334  0.3272
 3788W        W 7852   9.823   4.219  10.594  0.0730 -0.3513 -0.1768
 3789W        W 7853   8.028   9.177   1.942 -0.3348 -0.1987 -0.0519
 3790W        W 7854   7.673   1.623   1.246 -0.1455  0.2441 -0.1915
 3791W        W 7855   9.909   7.888  10.139  0.1023 -0.1183  0.1044
 3792W        W 7856   6.788   9.812   7.226  0.0124 -0.0418 -0.0575
 3793W        W 7857   6.462   5.861   8.064  0.0938  0.0389  0.0556
 3794W        W 7858   9.951   0.988   2.490  0.2485 -0.3507  0.1922
 3795W        W 7859   3.242   6.583   1.594 -0.0009 -0.0974 -0.1270
 3796W        W 7860   1.587   1.135   2.213  0.0873  0.1783  0.2269
 3797W        W 7861   6.565   8.058  10.894  0.0905 -0.0303  0.2876
 3798W        W 7862   5.295   0.622   2.849  0.0340  0.0170  0.0807
 3799W        W 7863   8.664   6.528  10.516 -0.1370 -0.2058 -0.1373
 3800W        W 7864   5.433   6.949   1.133 -0.3612  0.2886  0.0445
 3801W        W 7865   6.174   7.414   0.677  0.2890  0.1167 -0.1066
 3802W        W 7866   4.685   7.734   2.086 -0.3182 -0.0207  0.0782
 3803W        W 7867   1.602   5.900   1.218  0.0001 -0.1078  0.1032
 3804W        W 7868   4.569   0.447   2.881 -0.0170  0.2545 -0.2234
 3805W        W 7869   0.696   7.273   0.163  0.0456  0.2111  0.2336
 3806W        W 7870   7.188   9.809   1.718  0.1946  0.1597  0.0841
 3807W        W 7871   0.808   9.898  10.735  0.2380  0.1204 -0.0748
 3808W        W 7872   3.182   2.052   8.417 -0.0121  0.0513 -0.0562
 3809W        W 7873   7.999   9.114   7.653  0.1050 -0.0459  0.3489
 3810W        W 7874   2.108   0.696   1.441  0.1413  0.0386 -0.2794
 3811W        W 7875   2.257   7.758   2.111  0.1310  0.1881  0.0645
 3812W        W 7876   2.717   4.722   8.729  0.1124 -0.0077  0.1573
 3813W        W 7877   0.360   1.656   9.174 -0.1406  0.0209  0.0187
 3814W        W 7878   6.154  10.318   1.351 -0.1454  0.1145  0.2594
 3815W        W 7879   8.468   5.911   0.162  0.3448 -0.1839 -0.0717
 3816W        W 7880   2.550   0.380   8.360  0.0985 -0.0940 -0.0709
 3817W        W 7881   0.886   4.292   9.576 -0.2245 -0.2160 -0.0309
 3818W        W 7882  10.553   5.851  10.440 -0.0122 -0.1512 -0.1200
 3819W        W 7883   0.668   7.595   9.178  0.3459 -0.4489 -0.6213
 3820W        W 7884   1.646   9.847   8.242 -0.0545 -0.0254 -0.0171
 3821W        W 7885   1.301   3.297   1.187 -0.1469  0.1299  0.1636
 3822W        W 7886   9.835   6.246  11.316  0.2292  0.0010 -0.2391
 3823W        W 7887   5.521   3.334   9.197  0.0649 -0.0795  0.1501
 3824W        W 7888   2.285   5.076  11.296 -0.1218 -0.0040 -0.1999
 3825W        W 7889   3.330   5.041   0.140  0.0214  0.2149 -0.0890
 3826W        W 7890   8.335   8.345   1.955  0.1022  0.2202  0.2866
 3827W        W 7891   6.227   7.529  11.062 -0.2302  0.1251 -0.1033
 3828W        W 7892  10.061   5.999   2.979  0.0013  0.2333  0.4644
 3829W        W 7893   7.213   1.881   1.338 -0.1800 -0.0744  0.1598
 3830W        W 7894   4.061   6.915   2.827  0.3542 -0.2356 -0.1743
 3831W        W 7895   5.390   4.198  10.380 -0.2298 -0.0432  0.1430
 3832W        W 7896   1.795   1.395   2.857 -0.1937 -0.1604  0.0758
 3833W        W 7897  10.266   9.777   3.681  0.2559 -0.4150 -0.1923
 3834W        W 7898   6.658   9.502   9.636  0.0605  0.0148 -0.0151
 3835W        W 7899   8.019   5.329   0.556 -0.0498  0.2592 -0.0505
 3836W        W 7900  10.526   1.286   8.388  0.1101  0.0250  0.1847
 3837W        W 7901   3.413   4.039   1.586 -0.2365  0.2428  0.0345
 3838W        W 7902   6.299   2.314   2.157 -0.2676  0.0521  0.0218
 3839W        W 7903   5.123   4.191   7.947  0.0209  0.1524  0.0552
 3840W        W 7904   7.980   8.877   9.603 -0.2981 -0.1408  0.4207
 3841W        W 7905   2.666   3.757  11.443 -0.0231  0.4240 -0.0853
 3842W        W 7906   1.132   9.461   7.728 -0.1470  0.2910  0.0910
 3843W        W 7907   5.321   8.585   8.596 -0.0810 -0.1698  0.1084
 3844W        W 7908   9.149   6.376   1.362  0.1080  0.0839 -0.4071
 3845W        W 7909   8.863   3.578  10.435 -0.0093  0.1449  0.1714
 3846W        W 7910   5.056   5.935   3.978 -0.4534 -0.2242  0.2143
 3847W        W 7911   1.226   9.090   2.237 -0.4961 -0.0644  0.0412
 3848W        W 7912   9.869   1.299   9.500 -0.0775  0.0016  0.0253
 3849W        W 7913   2.141   4.811   3.770  0.0545  0.1180 -0.3452
 3850W        W 7914   4.463   7.002   0.116  0.2753 -0.1998  0.1655
 3851W        W 7915   7.192   8.026   1.037  0.1590 -0.3617 -0.0829
 3852W        W 7916  10.178   0.717  11.586 -0.0099  0.1617  0.1500
 3853W        W 7917   2.839   4.478   8.204  0.1693  0.0528  0.0427
 3854W        W 7918   5.894   5.524  11.136 -0.2447 -0.3388 -0.1629
 3855W        W 7919   9.666   4.921   0.889  0.0945 -0.3359 -0.2218
 3856W        W 7920   6.451   7.516  10.126  0.0816 -0.0790  0.0692
 3857W        W 7921   1.985   7.865   8.593  0.0133 -0.0227  0.1391
 3858W        W 7922   7.419   2.975   7.589  0.2593  0.0238 -0.1081
 3859W        W 7923  10.111   8.603   2.486 -0.1082  0.2567 -0.2635
 3860W        W 7924   0.811   9.960   9.142 -0.0080 -0.1371 -0.1825
 3861W        W 7925   3.487   4.971   2.343  0.0750 -0.2243  0.1712
 3862W        W 7926   8.373   5.166   8.936  0.0239 -0.0281 -0.0623
 3863W        W 7927   2.738   9.385   9.061 -0.1484  0.4213 -0.1020
 3864W        W 7928   0.884   9.725   8.700 -0.2635 -0.3208 -0.1875
 3865W        W 7929   0.808   1.814   2.112 -0.1242  0.0635  0.0632
 3866W        W 7930   1.882   1.915   3.033  0.0501  0.1171  0.1214
 3867W        W 7931   6.253   0.526   8.266  0.1004  0.0715  0.1488
 3868W        W 7932   3.382   2.722   3.564  0.3325 -0.4215 -0.2299
 3869W        W 7933   4.623   9.125   3.295 -0.0241  0.1593  0.1981
 3870W        W 7934   1.880   0.228   1.064 -0.0800 -0.0483  0.1248
 3871W        W 7935   6.821   9.103   9.863  0.2614  0.0778  0.1982
 3872W        W 7936   2.683   3.276   8.703  0.0716  0.1267  0.3586
 3873W        W 7937   5.455   3.599  10.956 -0.1421 -0.1295  0.1068
 3874W        W 7938   0.111   4.053   8.929 -0.4356  0.1927 -0.0909
 3875W        W 7939   2.161   7.236   8.503 -0.0356  0.1899  0.1410
 3876W        W 7940   1.521  10.280   9.949 -0.1559 -0.0031  0.0931
 3877W        W 7941   7.539   3.896   2.462  0.2392 -0.0600 -0.1405
 3878W        W 7942   0.143  10.294   9.132 -0.0998  0.0744 -0.1010
 3879W        W 7943   2.226   9.881   9.658 -0.0433 -0.1308 -0.2768
 3880W        W 7944   7.902   7.766   1.725  0.2777  0.0878  0.1127
 3881W        W 7945   3.648   8.403   3.485  0.0593  0.1241  0.1587
 3882W        W 7946   8.399  10.086   3.182  0.1696 -0.0042 -0.1511
 3883W        W 7947   9.283   7.273   9.319 -0.1269  0.2815  0.3032
 3884W        W 7948   2.128   1.810  10.062 -0.0772  0.0733 -0.1677
 3885W        W 7949   7.811   9.879  10.669 -0.0153 -0.2529  0.2704
 3886W        W 7950   6.614   8.627   9.744 -0.0934  0.1785  0.3215
 3887W        W 7951  10.443   9.629  11.387 -0.0921 -0.0479 -0.1146
 3888W        W 7952   7.855   6.296  10.775  0.2623 -0.2922  0.1732
 3889W        W 7953   7.153   3.736   0.041 -0.3030 -0.0483  0.2072
 3890W        W 7954   5.428   7.728   3.303  0.0960  0.2273 -0.1239
 3891W        W 7955   0.691   6.658   8.997  0.0740 -0.1671  0.1303
 3892W        W 7956   0.651   0.634   1.309 -0.0758  0.0774 -0.1634
 3893W        W 7957  10.000   3.014  11.350 -0.0262  0.0550 -0.2129
 3894W        W 7958   3.770  10.590   2.918  0.0809 -0.0144  0.0215
 3895W        W 7959   7.659   4.844  10.456  0.3456 -0.0366 -0.1594
 3896W        W 7960   1.685   3.564   7.314 -0.1819 -0.1573  0.0027
 3897W        W 7961   8.163   8.986   0.527  0.0138  0.0075 -0.3693
 3898W        W 7962   5.868   2.634  10.935 -0.1089  0.4391  0.1401
 3899W        W 7963   4.265   2.614   1.031  0.0545  0.1629 -0.1511
 3900W        W 7964   1.402   0.794   0.631  0.2269  0.0759  0.0766
 3901W        W 7965   1.934   4.513   2.900 -0.0278 -0.1528  0.0523
 3902W        W 7966   0.065   4.927   1.280 -0.0097 -0.2277  0.0768
 3903W        W 7967   6.462   6.835   1.374 -0.3066  0.0859  0.1972
 3904W        W 7968   7.388   4.663   2.063  0.0392 -0.0717 -0.0351
 3905W        W 7969   4.946   1.190   9.747 -0.3014  0.1699  0.0364
 3906W        W 7970   4.236   6.333   4.306  0.1152  0.2927  0.0919
 3907W        W 7971   9.839   9.547   0.656 -0.0007  0.3898 -0.0373
 3908W        W 7972   6.324   7.255   0.227 -0.0819 -0.1172  0.3051
 3909W        W 7973   9.589  10.585   2.200 -0.0296 -0.0071 -0.0269
 3910W        W 7974   9.265   0.495   0.065  0.1435 -0.2591 -0.4978
 3911W        W 7975   5.892   9.837   9.263 -0.1695  0.2145 -0.1029
 3912W        W 7976   7.791   1.459   9.137  0.0706 -0.1441 -0.1388
 3913W        W 7977   5.326   8.768   9.659 -0.1095 -0.1807 -0.2041
 3914W        W 7978   5.526   7.540   1.192  0.1591 -0.1664 -0.1601
 3915W        W 7979  10.093   0.184   9.625  0.0331  0.1706  0.2252
 3916W        W 7980   6.242   9.350  10.905 -0.0017  0.1898  0.1012
 3917W        W 7981   4.401   3.707   1.915  0.0837  0.1173  0.3413
 3918W        W 7982   3.314   4.767   1.552 -0.2244 -0.2396  0.1461
 3919W        W 7983   2.950   5.693   9.454  0.0689 -0.2864 -0.0611
 3920W        W 7984   0.383   2.570   9.312 -0.1644 -0.0915  0.0684
 3921W        W 7985   9.044   1.658   8.182 -0.0429 -0.3843 -0.1240
 3922W        W 7986   7.408   0.159   3.875  0.0197  0.0809 -0.0062
 3923W        W 7987   2.082   7.856   9.959  0.1388  0.1546  0.0101
 3924W        W 7988   6.638   8.444   0.469  0.4937 -0.3030  0.0243
 3925W        W 7989   7.360  10.123  10.852 -0.0241 -0.0637  0.0232
 3926W        W 7990   1.464   2.924   9.381  0.0025 -0.1041 -0.0991
 3927W        W 7991   8.970  10.320  10.762  0.0379  0.1193  0.1164
 3928W        W 7992   4.258   5.782   0.662 -0.3491 -0.0517  0.0953
 3929W        W 7993  10.094   3.592   9.053 -0.1881 -0.2647  0.1813
 3930W        W 7994   8.450   9.453   9.238  0.1998 -0.1124 -0.1247
 3931W        W 7995  10.173   7.533   9.733 -0.1378 -0.4187 -0.2811
 3932W        W 7996   0.990   0.441  10.461  0.0641  0.1558 -0.1289
 3933W        W 7997   2.089   6.284   0.661  0.1142  0.2043  0.1629
 3934W        W 7998   8.423   2.924  10.765  0.0019 -0.0088  0.0921
 3935W        W 7999   7.067   8.349   1.817 -0.0394  0.1681 -0.2279
 3936W        W 8000   5.797   3.727   0.686 -0.0972 -0.1736 -0.0831
 3937W        W 8001   8.675   3.437   0.488  0.0978  0.3436 -0.0657
 3938W        W 8002   3.822   8.521   9.501  0.1212  0.0454 -0.0404
 3939W        W 8003   2.506   4.242   8.654 -0.1321 -0.1171  0.2267
 3940W        W 8004   4.438   0.373   8.070 -0.1924  0.0695  0.0422
 3941W        W 8005   5.423   8.835   7.643 -0.0105 -0.2594  0.0262
 3942W        W 8006  10.643   4.606   1.916  0.1304  0.0639  0.3698
 3943W        W 8007   9.939   8.522  10.311  0.1385 -0.2422 -0.0617
 3944W        W 8008   8.860   2.691   1.050 -0.1015 -0.0939 -0.0331
 3945W        W 8009  10.085   7.900   0.543 -0.0265 -0.2257 -0.4096
 3946W        W 8010   4.489   6.110  10.490  0.0909 -0.2302 -0.4238
 3947W        W 8011   6.369   1.774   9.784 -0.3753  0.2866 -0.1700
 3948W        W 8012   4.761   7.081   1.123  0.0260  0.2381  0.4397
 3949W        W 8013   5.816   3.616   0.167  0.2317 -0.0026  0.2901
 3950W        W 8014   6.343   3.456  11.142 -0.0387 -0.3410  0.0244
 3951W        W 8015   3.277   9.155   2.783  0.1168  0.1485 -0.1504
 3952W        W 8016   9.153   3.887  10.750  0.0341 -0.0928  0.3387
 3953W        W 8017   0.942   1.603   0.832 -0.2798 -0.0846  0.0506
 3954W        W 8018  10.602   2.868   9.336 -0.1667  0.2228 -0.0800
 3955W        W 8019   1.128   7.923   8.953 -0.0975  0.0998  0.0049
 3956W        W 8020   2.810   4.981  11.110  0.2446  0.0378  0.0953
 3957W        W 8021   5.514   2.372   2.234  0.2657 -0.1216  0.0432
 3958W        W 8022   9.328   1.008   2.720 -0.0041  0.0713 -0.0504
 3959W        W 8023   5.707   5.881   8.497  0.0045  0.1327 -0.0065
 3960W        W 8024   6.568   6.301  11.234  0.2033 -0.1174  0.0692
 3961W        W 8025   5.620   1.178  11.547 -0.0229 -0.0409 -0.1493
 3962W        W 8026   8.638   2.210   1.279 -0.1184  0.0772  0.1394
 3963W        W 8027   8.479  10.151   9.556  0.0534  0.1167  0.2882
 3964W        W 8028   7.000   0.199   1.478 -0.0347  0.2407  0.2658
 3965W        W 8029   5.070   0.481   2.278  0.0057 -0.4073 -0.1091
 3966W        W 8030   0.185   0.182   0.795  0.0872 -0.0517  0.2306
 3967W        W 8031   4.464   2.884   3.443 -0.0415  0.0175  0.1295
 3968W        W 8032   9.302   3.094  10.161 -0.0022 -0.0198  0.0613
 3969W        W 8033   2.570   4.399  10.215  0.1459  0.0354 -0.1605
 3970W        W 8034   5.883  10.416   2.358 -0.1996 -0.0325 -0.0173
 3971W        W 8035   7.594   8.935  10.531  0.2085 -0.0513 -0.0226
 3972W        W 8036   1.548   4.213  10.673  0.4140 -0.1906 -0.2882
 3973W        W 8037   8.702   8.991  10.052 -0.3443 -0.0164 -0.0071
 3974W        W 8038   2.043   1.387  10.928 -0.0594 -0.1178  0.0241
 3975W        W 8039   8.612   9.322   1.221 -0.0636  0.0947  0.2894
 3976W        W 8040   4.184   6.983   1.433  0.0093 -0.1746 -0.1159
 3977W        W 8041   7.988   0.074  11.438  0.1463  0.0392  0.1368
 3978W        W 8042   6.698   2.769   2.424 -0.3272 -0.1108 -0.0953
 3979W        W 8043   4.488   0.752   1.503 -0.0353  0.0840 -0.1298
 3980W        W 8044   5.637  10.086   1.159 -0.1388 -0.4424 -0.3153
 3981W        W 8045   2.302   1.947   2.236 -0.2220  0.2157 -0.0285
 3982W        W 8046   7.971   9.509   0.661  0.2107 -0.1232  0.0457
 3983W        W 8047   9.662   6.569   1.638  0.0170  0.0402  0.2236
 3984W        W 8048   9.062   6.216   2.221 -0.0923 -0.1572  0.3357
 3985W        W 8049   6.304   2.577   8.087 -0.2950 -0.2842 -0.2033
 3986W        W 8050   5.293  10.585   2.984 -0.1812  0.0713  0.1228
 3987W        W 8051   0.958   6.858   0.073 -0.0255 -0.0763  0.1508
 3988W        W 8052   6.688   5.835  10.334 -0.0805  0.1053  0.2075
 3989W        W 8053  10.049   5.465  10.140 -0.2455 -0.0478 -0.1596
 3990W        W 8054   1.481   7.946   9.304  0.0215 -0.4293 -0.0871
 3991W        W 8055   2.669   4.329   1.484  0.1226 -0.2295  0.1765
 3992W        W 8056   0.214   5.850   9.106 -0.1671  0.0558  0.0359
 3993W        W 8057   7.032   0.431   8.884 -0.0298 -0.0402 -0.0298
 3994W        W 8058   9.446   6.378  10.953  0.1297 -0.0518  0.2505
 3995W        W 8059   1.489   4.727   2.109  0.1926 -0.0294 -0.0959
 3996W        W 8060   4.615   1.920   0.394  0.0809 -0.1150  0.1106
 3997W        W 8061   8.387   5.157   0.986  0.4074 -0.0156 -0.1208
 3998W        W 8062   9.317   4.321   1.822  0.2756 -0.0019 -0.1391
 3999W        W 8063   6.388   3.184   9.220  0.3361 -0.0539 -0.2644
 4000W        W 8064   8.117   8.394  11.164  0.0340  0.1814  0.1017
 4001W        W 8065   0.306   4.586   8.510  0.2564  0.3088 -0.2346
 4002W        W 8066   8.624   7.718   1.244  0.2124  0.0196  0.0565
 4003W        W 8067   3.155   3.210   9.103 -0.0541  0.2489 -0.0034
 4004W        W 8068   4.046   3.925   0.325 -0.0116  0.0736 -0.4118
 4005W        W 8069   2.953   3.878   1.374  0.0236  0.0842  0.2183
 4006W        W 8070   3.147   6.015  10.068 -0.0241  0.0674 -0.4011
 4007W        W 8071   3.303   3.999   3.052  0.5293  0.1100  0.2262
 4008W        W 8072   7.732   9.884   2.682 -0.2867 -0.2714 -0.2286
 4009W        W 8073   5.858   0.405   7.955  0.0050  0.2545  0.1638
 4010W        W 8074   9.090   0.836   1.916 -0.0365  0.1121 -0.1262
 4011W        W 8075   7.197   6.247   2.400  0.2970  0.3294 -0.1072
 4012W        W 8076   8.450   6.913   8.881  0.2716 -0.3083 -0.2024
 4013W        W 8077   2.699   0.566   1.400 -0.2555  0.0325  0.1670
 4014W        W 8078   4.101   3.794   7.969 -0.0348  0.0697 -0.0125
 4015W        W 8079   1.828   5.725  10.647 -0.3309  0.3173  0.1865
 4016W        W 8080   2.213   8.841   2.289 -0.0774  0.0265  0.0846
 4017W        W 8081   7.556   2.365   8.678 -0.0502 -0.3626 -0.0066
 4018W        W 8082   7.399   0.830   0.967  0.1131 -0.1019 -0.4780
 4019W        W 8083   3.232   2.875   0.299  0.0920 -0.1915 -0.1106
 4020W        W 8084   3.569   9.270   1.688  0.1559 -0.0120  0.1587
 4021W        W 8085   5.977   8.039   8.100  0.2183 -0.0736 -0.2258
 4022W        W 8086   4.714   3.415   0.684  0.0003  0.2055 -0.0757
 4023W        W 8087   1.404   7.655  10.752 -0.1852  0.0319  0.1525
 4024W        W 8088   0.941   4.687   9.935 -0.0285  0.2098 -0.3121
 4025W        W 8089   1.997   0.284   6.936  0.2391 -0.0011  0.4290
 4026W        W 8090   7.814   3.355   9.025  0.1356 -0.0974 -0.1496
 4027W        W 8091   1.877   6.619   3.935  0.1859  0.4267  0.2205
 4028W        W 8092   4.795   6.721   0.279 -0.0422  0.3564 -0.0570
 4029W        W 8093   4.915   8.042  11.095  0.0435  0.1124  0.2504
 4030W        W 8094   3.888   0.115   9.405  0.0064 -0.1783 -0.1342
 4031W        W 8095   5.369   0.795   8.424  0.2911 -0.1314 -0.0116
 4032W        W 8096   3.521   4.060  10.179 -0.2215 -0.2466  0.1765
 4033W        W 8097   1.629   5.603   0.395  0.4744 -0.1642 -0.0465
 4034W        W 8098   5.988   6.975   2.787  0.2270 -0.1624 -0.0471
 4035W        W 8099   3.675   4.311   8.419  0.2317  0.2195  0.0161
 4036W        W 8100  10.326  10.535   9.270 -0.1735  0.1996 -0.1810
 4037W        W 8101   1.224   9.929  10.314  0.0250  0.4104  0.2004
 4038W        W 8102   3.622   4.471   9.327  0.1004  0.1695  0.1107
 4039W        W 8103   9.911   9.736   3.054 -0.0793  0.4954  0.2990
 4040W        W 8104   3.232   6.711  10.588  0.0321  0.0310 -0.1944
 4041W        W 8105   2.623   7.200  10.062  0.1373 -0.0129  0.1514
 4042W        W 8106   9.356   1.297   2.055  0.1311 -0.1682  0.0489
 4043W        W 8107   7.428   0.237   3.245  0.0840  0.4822 -0.0490
 4044W        W 8108   9.049   2.603  10.159  0.1452  0.1844 -0.0925
 4045W        W 8109   1.345   3.204   8.519 -0.1749  0.2277 -0.0771
 4046W        W 8110   0.281   2.716   1.415  0.4292 -0.0455 -0.1715
 4047W        W 8111   2.129   7.478   2.683  0.0308  0.0363 -0.0349
 4048W        W 8112   4.294   3.969  10.554 -0.0721 -0.1748  0.3471
 4049W        W 8113   6.232   7.197   1.599 -0.1048 -0.3874  0.0583
 4050W        W 8114   7.633   1.952  11.441 -0.2132 -0.3185  0.1398
 4051W        W 8115  10.326   9.380  10.566 -0.1250 -0.2345 -0.1288
 4052W        W 8116   4.520   5.556   8.332 -0.2706  0.2073 -0.0245
 4053W        W 8117   8.399   0.202   9.339  0.2407  0.1159 -0.1048
 4054W        W 8118   2.256   5.226   1.589  0.0137  0.1527  0.0523
 4055W        W 8119   3.164   6.125   1.866  0.0786 -0.2947  0.1428
 4056W        W 8120   5.808   4.573   0.812  0.0253  0.1582 -0.2661
 4057W        W 8121   2.796   2.090   0.924 -0.0428  0.0655  0.3510
 4058W        W 8122   0.966   9.085   1.642  0.0833  0.0468 -0.3946
 4059W        W 8123   5.805   5.128   9.954 -0.2406 -0.0027  0.0060
 4060W        W 8124   9.446   5.752   0.454 -0.6228 -0.0171 -0.0677
 4061W        W 8125  10.288   5.344   8.586 -0.1204 -0.0212 -0.0696
 4062W        W 8126   4.594   5.228   0.757 -0.3070 -0.1045  0.1343
 4063W        W 8127   8.002   4.819   0.240  0.1649  0.3408  0.2157
 4064W        W 8128   7.476  10.429  11.240 -0.2258 -0.1840  0.1010
 4065W        W 8129  10.251   7.335   1.841 -0.0061 -0.0533  0.2427
 4066W        W 8130   1.619   6.874  10.670  0.0480  0.0438 -0.1056
 4067W        W 8131  10.512   8.400   1.757 -0.3368  0.0467 -0.4592
 4068W        W 8132   2.658   2.943   1.236  0.2617  0.0380  0.1530
 4069W        W 8133   8.687  10.439  10.297  0.0774  0.1540 -0.1379
 4070W        W 8134   4.273  10.218   8.743  0.0994  0.2107 -0.0179
 4071W        W 8135   4.568   3.880   0.986 -0.1386  0.1931 -0.2847
 4072W        W 8136   7.888  10.133   3.106 -0.0609  0.0460 -0.2137
 4073W        W 8137   7.233   7.887   7.560 -0.2307 -0.0130  0.3069
 4074W        W 8138   8.419   8.309   3.316 -0.2361 -0.0994 -0.4463
 4075W        W 8139   5.995   2.851   3.535  0.1496  0.0751  0.0357
 4076W        W 8140   6.255   8.652   1.573 -0.0184 -0.1228  0.0921
 4077W        W 8141   7.883   8.187   8.549 -0.1793 -0.2433  0.2143
 4078W        W 8142   3.006   4.641   0.328 -0.0091 -0.1667  0.1122
 4079W        W 8143  10.076   4.598   8.734 -0.0801  0.2354 -0.3053
 4080W        W 8144   3.786   5.780  10.965  0.1067 -0.5317 -0.0111
 4081W        W 8145   0.379   7.734   8.804  0.1886 -0.1671 -0.4121
 4082W        W 8146   3.162   8.936   9.773  0.1664 -0.0420 -0.0829
 4083W        W 8147   5.406   3.023   2.770  0.0970  0.2032  0.2757
 4084W        W 8148   0.209   2.247   0.763  0.0724  0.0413 -0.2299
 4085W        W 8149   8.026   7.432   2.446  0.0744  0.1487 -0.1411
 4086W        W 8150   3.207   4.493   8.539  0.0024 -0.1983  0.0328
 4087W        W 8151   4.003   9.699  10.314  0.2726 -0.2025 -0.1668
 4088W        W 8152   0.409   9.408  11.341  0.0348  0.2278  0.2713
 4089W        W 8153   3.938   6.225  11.150  0.0944  0.0669  0.4512
 4090W        W 8154   1.911   4.595   8.450  0.1659 -0.1857 -0.2793
 4091W        W 8155   7.835   5.326   1.617 -0.2932  0.1167  0.0709
 4092W        W 8156   2.550   4.537   7.654  0.1371  0.1007  0.1840
 4093W        W 8157   0.728   7.824   0.947 -0.0914  0.3678 -0.1936
 4094W        W 8158  10.271   5.102   8.115  0.0615  0.2133 -0.2109
 4095W        W 8159   5.446   1.220   3.836 -0.0501  0.0672  0.4309
 4096W        W 8160   5.275   4.052  10.950 -0.2841  0.3027 -0.1360
 4097W        W 8161   0.928   9.539   1.445  0.1857 -0.0108  0.1407
 4098W        W 8162   0.122   0.450   0.393 -0.0788  0.0045  0.0702
 4099W        W 8163   6.922   0.871   2.492 -0.0234 -0.0411  0.0164
 4100W        W 8164   5.822   4.065   1.816 -0.1786 -0.0221  0.2225
 4101W        W 8165   7.214   9.222   3.925  0.0469  0.0251 -0.1063
 4102W        W 8166   5.232   9.736  10.315  0.0926 -0.0536 -0.2904
 4103W        W 8167   2.091   3.431   8.316  0.0895  0.4240  0.1963
 4104W        W 8168   8.060   4.315   3.131  0.2367  0.1339 -0.0389
 4105W        W 8169   0.899   2.926  10.043  0.1248  0.1097  0.1211
 4106W        W 8170   3.241   3.012  10.546  0.1272  0.0110 -0.1323
 4107W        W 8171   7.982   5.765   1.359  0.4192  0.2081 -0.2605
 4108W        W 8172  10.356   3.709   2.189  0.0032  0.0639 -0.0846
 4109W        W 8173   0.502   7.318   2.397  0.1229 -0.0181 -0.1319
 4110W        W 8174   8.854   1.303   0.112 -0.0364  0.0942  0.1855
 4111W        W 8175   2.895   4.151   1.874 -0.1267 -0.0864 -0.3687
 4112W        W 8176   7.194   4.800   2.770 -0.1110 -0.1282  0.2424
 4113W        W 8177   0.050   1.969   1.514 -0.1209  0.0819 -0.2022
 4114W        W 8178   2.406  10.256  10.485  0.3145  0.3158  0.0554
 4115W        W 8179   7.883   4.341   0.381 -0.0848 -0.4040  0.0360
 4116W        W 8180   0.838   2.195  11.271 -0.0571  0.2759  0.1773
 4117W        W 8181   0.072   5.383   9.369  0.1455 -0.0125 -0.0180
 4118W        W 8182   4.466   9.415   0.812  0.2672  0.2591 -0.0032
 4119W        W 8183   2.189   0.133   0.296 -0.1159  0.1335 -0.1869
 4120W        W 8184   2.930   2.959   3.443  0.3371 -0.0690 -0.2684
 4121W        W 8185   9.429   2.404   8.795 -0.1383 -0.2818  0.3307
 4122W        W 8186   3.605   9.828  10.029 -0.0741 -0.0740  0.0835
 4123W        W 8187   3.031   5.205   2.269 -0.2846 -0.2253 -0.2740
 4124W        W 8188   5.695   9.911   8.683  0.0418  0.2433 -0.0040
 4125W        W 8189   1.714   0.674   1.140  0.1796  0.3661  0.0578
 4126W        W 8190   1.920   0.292   9.469  0.0547  0.2043  0.3055
 4127W        W 8191   8.933   8.533   8.618  0.1134  0.2533 -0.0230
 4128W        W 8192   1.836   9.383   8.449 -0.1682  0.0740 -0.1620
 4129W        W 8193   4.264   5.787  10.766  0.1054  0.2382 -0.2376
 4130W        W 8194   3.300   9.637   3.047  0.0486  0.1596  0.2775
 4131W        W 8195   0.544   4.329   9.995  0.0700  0.0404 -0.1383
 4132W        W 8196   8.052   0.676   7.618 -0.3573 -0.0418 -0.2851
 4133W        W 8197   1.183   4.455  10.344 -0.3181 -0.1092  0.4160
 4134W        W 8198   5.931   3.684  10.188  0.1567 -0.0003  0.0463
 4135W        W 8199   2.289   1.299   8.586  0.0086 -0.0512 -0.1467
 4136W        W 8200   4.611   8.144  10.616 -0.0632 -0.1317 -0.1125
 4137W        W 8201   1.215   2.609   9.145 -0.1037 -0.3374 -0.0162
 4138W        W 8202   6.028   3.044   9.631 -0.0689  0.0789  0.2872
 4139W        W 8203   5.198   5.988   8.557 -0.3941  0.0901 -0.0657
 4140W        W 8204   1.480   2.825   3.987 -0.1034 -0.1527 -0.0094
 4141W        W 8205   3.758   7.515   0.764  0.0895  0.0838 -0.2794
 4142W        W 8206   6.624   2.731   8.568 -0.1267 -0.0305 -0.0392
 4143W        W 8207   3.063   5.793  10.553 -0.2197  0.0744  0.0969
 4144W        W 8208   6.504   0.101   8.353 -0.3910 -0.2102  0.4492
 4145W        W 8209   6.927  10.600   8.654  0.2239 -0.0707 -0.0626
 4146W        W 8210   3.893   9.713   7.651  0.1022 -0.1888 -0.1142
 4147W        W 8211   3.527   9.079   0.739 -0.0464 -0.0792 -0.2172
 4148W        W 8212   8.450   0.591   8.818 -0.1272 -0.1487 -0.1920
 4149W        W 8213   1.199   5.506   9.977 -0.1038 -0.1036 -0.1016
 4150W        W 8214   0.978   1.256  11.410 -0.3029 -0.2590  0.1724
 4151W        W 8215  10.201   7.199   2.713 -0.1246  0.2104 -0.0132
 4152W        W 8216   1.840   4.937  11.010 -0.2335  0.1004 -0.1129
 4153W        W 8217   5.323   1.016  10.210  0.1874  0.0241 -0.1782
 4154W        W 8218   3.913   1.881   3.216 -0.3465 -0.0410 -0.1356
 4155W        W 8219   5.188   1.715   0.987 -0.0432  0.0763 -0.2373
 4156W        W 8220   6.139   9.259   4.258 -0.3284 -0.2195  0.1483
 4157W        W 8221   0.496   1.292   0.030  0.2451  0.1107 -0.2563
 4158W        W 8222   6.458   8.914   2.164  0.2844 -0.1676  0.1619
 4159W        W 8223   3.085   8.445   2.721  0.1596 -0.0965  0.1046
 4160W        W 8224   4.663   9.804   9.386 -0.3907 -0.1357 -0.1364
 4161W        W 8225   7.407   1.565   0.029 -0.1200  0.0895  0.0241
 4162W        W 8226   8.027   1.192   2.681 -0.0583 -0.2099  0.1051
 4163W        W 8227   3.987   1.977   1.742 -0.1713  0.4038 -0.0764
 4164W        W 8228   7.747   1.906   7.901 -0.1829 -0.1876 -0.0413
 4165W        W 8229   7.103   3.894   9.274 -0.1443  0.6603  0.0058
 4166W        W 8230   5.503   4.199   7.398  0.0435  0.1786  0.0762
 4167W        W 8231   1.648   0.037   0.252  0.1717 -0.3259 -0.1655
 4168W        W 8232  10.613   9.025  10.468  0.0076  0.0296  0.1663
 4169W        W 8233   6.706   2.071   0.221 -0.4034 -0.2285  0.0701
 4170W        W 8234   1.305   1.379  10.138 -0.0092 -0.1267  0.1295
 4171W        W 8235   6.282   4.794   0.671 -0.1250  0.1559  0.1399
 4172W        W 8236   6.334   2.810   2.038  0.4501 -0.0751  0.0172
 4173W        W 8237   0.563  10.079   8.717 -0.1101  0.2969  0.1424
 4174W        W 8238   9.832   9.987   1.308 -0.1315 -0.4472 -0.2726
 4175W        W 8239  10.530   3.680   0.880 -0.0474 -0.0621 -0.0022
 4176W        W 8240   8.680  10.032   1.957 -0.0784 -0.2045 -0.0740
 4177W        W 8241   8.385   0.784   1.218  0.0223  0.4063 -0.2758
 4178W        W 8242   0.302   9.904  10.572 -0.0709 -0.0125  0.1930
 4179W        W 8243  10.168   4.592   9.506 -0.2554  0.1153  0.0305
 4180W        W 8244   9.263   9.054  10.855 -0.1067 -0.1638  0.0317
 4181W        W 8245   5.874  10.189   3.316  0.3031 -0.0688 -0.0913
 4182W        W 8246   0.708   7.740  10.380 -0.2669 -0.0246  0.2591
 4183W        W 8247   9.930   6.155  10.053 -0.2021 -0.2136 -0.0757
 4184W        W 8248   4.458   7.781   9.349 -0.0354 -0.1717  0.0175
 4185W        W 8249   0.721   4.818   9.134 -0.0813  0.1767 -0.1291
 4186W        W 8250   6.481   7.348   9.379 -0.2138 -0.0200  0.3857
 4187W        W 8251  10.015  10.265   3.125  0.0398  0.1935  0.4711
 4188W        W 8252   4.558   3.610   2.844  0.3395  0.0963  0.4180
 4189W        W 8253  10.155   7.151   9.331  0.2238  0.1959 -0.1224
 4190W        W 8254   9.428   8.348   0.677  0.3992 -0.1191  0.0251
 4191W        W 8255   9.845   7.171  10.846  0.1601 -0.1083 -0.2571
 4192W        W 8256   3.338   1.176   3.909  0.0015 -0.1992 -0.0043
 4193W        W 8257   5.203   0.325   9.663  0.0706 -0.0788  0.0245
 4194W        W 8258   7.831   3.169  10.191 -0.1161  0.2015 -0.0304
 4195W        W 8259   0.107   4.750   0.778  0.2919  0.2764 -0.0515
 4196W        W 8260   1.288   0.977   9.649  0.0348  0.1926  0.1392
 4197W        W 8261   3.535   0.370   0.863  0.1967  0.0687 -0.0086
 4198W        W 8262   4.533   3.035   1.126 -0.1563 -0.3205  0.0313
 4199W        W 8263   4.045   2.589  10.674 -0.2764  0.0414  0.0064
 4200W        W 8264   1.479   8.327   9.569 -0.3768 -0.2126 -0.1678
 4201W        W 8265   4.862   2.335  10.750  0.1517  0.2180  0.3431
 4202W        W 8266   6.754   7.450   3.002  0.0431 -0.2422  0.1577
 4203W        W 8267  10.574   3.735   1.400  0.2380 -0.3132  0.0883
 4204W        W 8268   1.089   7.879   8.180 -0.1897  0.0202  0.0904
 4205W        W 8269   3.626   8.197   2.450 -0.1695  0.2403 -0.2598
 4206W        W 8270   8.964   1.361   7.355 -0.1871 -0.1415 -0.3758
 4207W        W 8271   0.631   0.919   2.123 -0.4206  0.0877  0.4217
 4208W        W 8272   8.373   4.431   0.083 -0.1549 -0.0444 -0.3199
 4209W        W 8273   2.215   5.578   0.591  0.2448  0.0739 -0.1759
 4210W        W 8274   9.768   0.299   1.015 -0.1283  0.1847  0.1489
 4211W        W 8275   5.757   3.895   1.154  0.3678 -0.0402 -0.1350
 4212W        W 8276  10.573   2.606   2.819 -0.2637  0.0910 -0.0194
 4213W        W 8277   7.035   4.605   8.245 -0.1068  0.1047  0.0434
 4214W        W 8278   0.850   1.336   1.773 -0.1562  0.1810 -0.0262
 4215W        W 8279   9.906  10.427   8.942 -0.0086 -0.0035 -0.0552
 4216W        W 8280   9.848   4.134   9.446 -0.0896 -0.0831  0.0073
 4217W        W 8281   8.785   7.271   0.561 -0.1762 -0.1485  0.0473
 4218W        W 8282   7.406   5.831   3.588 -0.0553 -0.0936 -0.1422
 4219W        W 8283   3.124   9.676  11.371  0.1498 -0.2833  0.2048
 4220W        W 8284   6.767   9.928   9.396  0.1069  0.2840 -0.1041
 4221W        W 8285   7.233   3.264  11.475 -0.1211  0.0739  0.1065
 4222W        W 8286   5.797   1.254   8.269 -0.1723  0.0347  0.2961
 4223W        W 8287   2.854   7.034   2.943  0.2033 -0.0378 -0.0986
 4224W        W 8288   7.824   5.246  10.796  0.1366  0.2742 -0.0129
 4225W        W 8289   5.105   9.933   1.995 -0.0483 -0.0253 -0.0925
 4226W        W 8290   2.373   4.475   9.032  0.4180 -0.0505 -0.0254
 4227W        W 8291   3.214   1.592   0.718  0.1801  0.2050  0.0448
 4228W        W 8292   1.658   3.810   1.821  0.0023  0.1168  0.1229
 4229W        W 8293   5.872   7.722   1.499 -0.0339  0.1300  0.0706
 4230W        W 8294   3.050   2.939   0.827 -0.0136 -0.0587 -0.0327
 4231W        W 8295   9.587   6.858   9.373 -0.3209  0.1190  0.1825
 4232W        W 8296   7.061   1.683   0.376  0.1271  0.2000  0.0251
 4233W        W 8297   1.871   9.442   2.565 -0.3172 -0.0415 -0.0993
 4234W        W 8298   9.272  10.216   0.854 -0.0109  0.0047 -0.3193
 4235W        W 8299   7.988   1.215   7.327 -0.3555 -0.3831 -0.2404
 4236W        W 8300   5.536   4.551   1.703 -0.1644 -0.1290  0.1650
 4237W        W 8301   3.746   4.593   2.177  0.2865  0.1194 -0.2163
 4238W        W 8302   2.697   0.511   1.972 -0.0585  0.2417 -0.2042
 4239W        W 8303   1.105   9.314   2.619  0.0927 -0.3345 -0.1134
 4240W        W 8304   7.621   2.037   1.050 -0.1284 -0.2125 -0.0247
 4241W        W 8305   0.995   1.573   3.982 -0.1711 -0.1733 -0.1383
 4242W        W 8306   7.177   5.450   9.704  0.0782 -0.0076  0.1368
 4243W        W 8307   2.461   3.206  10.134  0.0642 -0.2803 -0.0046
 4244W        W 8308   4.631   6.927   9.699  0.0181 -0.1307 -0.2575
 4245W        W 8309   6.699   5.225   0.649  0.0873 -0.0767 -0.1116
 4246W        W 8310   8.585   4.946   1.450  0.1115  0.0559  0.0087
 4247W        W 8311   6.600   0.168  11.568 -0.0899  0.0359 -0.1052
 4248W        W 8312   4.401   3.134   8.388  0.1608  0.0168  0.0127
 4249W        W 8313   3.722  10.106   1.909  0.1110  0.0913 -0.1039
 4250W        W 8314   0.737   6.871   2.891  0.1202 -0.1054 -0.4048
 4251W        W 8315   4.536   3.947   9.351 -0.0495  0.0709  0.3975
 4252W        W 8316   5.245   8.187   0.281  0.1280  0.0296  0.1062
 4253W        W 8317   6.326   0.593  10.294  0.1331  0.0847 -0.0477
 4254W        W 8318   3.478   9.496   2.455 -0.0465  0.1604 -0.5358
 4255W        W 8319   3.917  10.633   8.230 -0.1633 -0.0573  0.0236
 4256W        W 8320   0.042   3.863   0.377  0.2469  0.3142 -0.1622
 4257W        W 8321   3.107   2.267  10.575 -0.1187 -0.1338 -0.1141
 4258W        W 8322   7.443   5.120   2.360 -0.0713  0.0317 -0.1453
 4259W        W 8323   6.523   1.561   1.526  0.1303  0.3145 -0.0702
 4260W        W 8324   4.466   4.035   0.042 -0.1335  0.1355  0.2297
 4261W        W 8325   1.656   5.985  11.586  0.0269  0.3196 -0.0638
 4262W        W 8326   5.638   2.826   0.816  0.2841 -0.1487  0.0312
 4263W        W 8327   5.600   6.010   3.139  0.3646  0.0665  0.0851
 4264W        W 8328   3.304  10.355   9.989  0.0954 -0.0494 -0.0829
 4265W        W 8329   3.147   4.955   8.377  0.0588 -0.1360 -0.0410
 4266W        W 8330   5.909   4.246  10.290 -0.0240  0.1243 -0.2858
 4267W        W 8331   9.331   1.366   0.124  0.0288 -0.1865 -0.1632
 4268W        W 8332   7.901   6.592   1.906  0.0634 -0.1891 -0.0002
 4269W        W 8333   0.565   0.682  10.566  0.1434  0.1076  0.3252
 4270W        W 8334   5.129   0.807   9.478  0.0990 -0.1043 -0.2095
 4271W        W 8335   9.495   3.717   2.290 -0.1984 -0.1970  0.0289
 4272W        W 8336   0.003   7.519   2.666 -0.0756 -0.1023  0.0070
 4273W        W 8337   1.390   4.159   2.011  0.3075  0.0269  0.1068
 4274W        W 8338   4.318   8.738   8.489 -0.0147 -0.4112 -0.0265
 4275W        W 8339   5.852   2.105   8.365  0.1986 -0.0701  0.2439
 4276W        W 8340   5.546   9.248   8.020 -0.1071  0.0613  0.1022
 4277W        W 8341   6.090   4.710   8.628 -0.2316  0.0549 -0.0955
 4278W        W 8342   6.934  10.187   0.606  0.4486 -0.0105 -0.0829
 4279W        W 8343   1.815   3.451   3.741 -0.4110 -0.0677 -0.0941
 4280W        W 8344   5.301   3.941   9.519  0.2611  0.1070 -0.0003
 4281W        W 8345   4.686   9.019  10.284 -0.0438 -0.1108  0.0935
 4282W        W 8346   6.796   2.878   0.806 -0.1540 -0.1474 -0.3603
 4283W        W 8347   1.401   9.691   1.622 -0.1162 -0.1860  0.1231
 4284W        W 8348   6.275   5.204   8.510  0.0007  0.1186  0.0472
 4285W        W 8349   4.365   2.137   0.035 -0.0150  0.1925  0.0345
 4286W        W 8350   8.736   4.349   0.930  0.0139  0.0257  0.1027
 4287W        W 8351   6.364   7.923   3.501  0.1106  0.0297 -0.0880
 4288W        W 8352   5.591   8.810  11.121 -0.1528  0.3036  0.2494
 4289W        W 8353  10.447   3.753   8.542 -0.3659  0.2131 -0.1995
 4290W        W 8354   8.940   3.172   0.038  0.1185 -0.0108  0.3085
 4291W        W 8355   5.780   7.760   8.917  0.0525 -0.1086  0.0734
 4292W        W 8356   3.710   7.934   1.147 -0.0644  0.1222 -0.1436
 4293W        W 8357   0.468   0.613   8.774  0.1155  0.0607  0.0233
 4294W        W 8358   8.254   4.104   0.922 -0.0904  0.1017  0.0311
 4295W        W 8359   1.428   2.850   9.860 -0.0875 -0.0043 -0.0336
 4296W        W 8360   5.758   8.329  11.083 -0.2110  0.1137  0.0876
 4297W        W 8361   5.826   7.548   9.930 -0.2950 -0.0922  0.3217
 4298W        W 8362   1.165   8.773  11.415  0.3022 -0.1208  0.0922
 4299W        W 8363  10.086   9.662   1.020 -0.2718  0.3286 -0.0715
 4300W        W 8364   6.736   3.906  11.266 -0.1311 -0.0116  0.0283
 4301W        W 8365   3.000   6.780   0.876 -0.1998  0.1514  0.1267
 4302W        W 8366   5.865   9.125  10.151  0.1824 -0.1547 -0.0717
 4303W        W 8367   9.478   3.430   8.520  0.0491  0.2326  0.3545
 4304W        W 8368   7.479   5.322   8.895 -0.2915 -0.0312 -0.1040
 4305W        W 8369   9.024   5.160   1.586 -0.2179 -0.1922  0.0763
 4306W        W 8370   8.617   9.946  10.496  0.3015 -0.2898  0.0644
 4307W        W 8371   4.513   3.058   7.901  0.0743 -0.0236  0.2637
 4308W        W 8372   8.488   0.796   9.303 -0.2136  0.1291  0.1086
 4309W        W 8373   2.858   6.835   3.603 -0.0091  0.2403 -0.0735
 4310W        W 8374  10.199   4.162   9.747 -0.0167  0.2391 -0.2807
 4311W        W 8375   0.201   7.425  11.136  0.1419  0.1875  0.0988
 4312W        W 8376   2.421   4.907  10.208 -0.1670 -0.0828  0.2223
 4313W        W 8377   1.047   9.552  11.059  0.0781 -0.0001  0.3540
 4314W        W 8378   5.743   2.542   8.723 -0.1558  0.0903  0.2467
 4315W        W 8379   6.847   8.458   8.102  0.0310  0.1694  0.0005
 4316W        W 8380   1.330   0.825   8.947  0.1025 -0.1119 -0.3613
 4317W        W 8381   5.496   6.388   8.574 -0.3219 -0.1153  0.2902
 4318W        W 8382   8.390   5.407  10.711 -0.3543 -0.1018  0.0674
 4319W        W 8383   3.578   3.854   3.574 -0.1022 -0.2247  0.0593
 4320W        W 8384   2.574   1.535   9.871 -0.0565  0.0461 -0.1582
 4321W        W 8385   2.478   0.350   0.970 -0.2499  0.2475  0.0734
 4322W        W 8386   3.748   1.792   2.243 -0.0242  0.1866 -0.3348
 4323W        W 8387   5.193   2.485   0.964 -0.2594 -0.3189 -0.1530
 4324W        W 8388  10.079   2.064   3.310  0.0626 -0.1868 -0.0637
 4325W        W 8389   3.487   3.254   0.973 -0.0307  0.2389  0.0371
 4326W        W 8390  10.589   2.553  10.328 -0.1711 -0.0309 -0.1900
 4327W        W 8391   4.578   0.939   7.559 -0.0829  0.4403  0.0406
 4328W        W 8392   7.948   2.593   1.508  0.0379 -0.3623 -0.3298
 4329W        W 8393   5.562   5.605   0.803 -0.1680 -0.1803 -0.0536
 4330W        W 8394   5.553   9.837  10.632  0.2713  0.0057  0.0033
 4331W        W 8395   2.003   5.021   2.870 -0.0008 -0.0777  0.3243
 4332W        W 8396   3.515   6.693   8.851 -0.2495 -0.3507 -0.0301
 4333W        W 8397   9.833   7.489   0.107 -0.3054 -0.2298  0.0863
 4334W        W 8398   1.132   7.525   9.272 -0.2114 -0.0781 -0.4623
 4335W        W 8399   8.416   1.571  11.002 -0.0021  0.1637 -0.2074
 4336W        W 8400   5.642   4.376  10.834 -0.0849  0.3663  0.2747
 4337W        W 8401   3.522   0.087  10.188  0.0333  0.2374 -0.0928
 4338W        W 8402   3.119   0.796   1.239  0.2576 -0.0847 -0.2224
 4339W        W 8403   9.680   9.578   3.519  0.0937 -0.0951 -0.2452
 4340W        W 8404   1.319   3.607   8.801  0.2393 -0.0540  0.0682
 4341W        W 8405   6.538   8.056  10.339  0.3198  0.1843  0.1417
 4342W        W 8406   0.986   0.276   1.438  0.1199 -0.0696 -0.1847
 4343W        W 8407   1.124   8.245   2.326  0.1896 -0.1139  0.1069
 4344W        W 8408  10.376   7.346  10.887  0.1260 -0.1255 -0.1151
 4345W        W 8409   8.506   8.596   0.523  0.2720  0.4123  0.2226
 4346W        W 8410   0.453   6.458   8.635 -0.0372  0.0411 -0.1077
 4347W        W 8411   9.937   6.201  10.870  0.2335 -0.0263 -0.1378
 4348W        W 8412   7.327   0.585   2.297 -0.0296  0.0274 -0.0856
 4349W        W 8413   4.020   6.337   1.397  0.0874  0.0860  0.1535
 4350W        W 8414   6.713   2.327   8.179 -0.1615 -0.3138  0.1225
 4351W        W 8415   5.291   6.779   7.478 -0.0860  0.1624  0.2199
 4352W        W 8416   0.123   3.170  11.496 -0.0216 -0.0207  0.0423
 4353W        W 8417   9.474  10.028   3.204 -0.1901  0.0767 -0.3380
 4354W        W 8418   8.965   4.654   1.652  0.2371 -0.1174  0.0792
 4355W        W 8419   2.195   4.062   8.298 -0.1730 -0.0872 -0.0264
 4356W        W 8420  10.110   1.585   3.088  0.0653 -0.2087 -0.0322
 4357W        W 8421   7.442   0.508   9.201 -0.0557  0.1976 -0.0880
 4358W        W 8422   5.833   5.408   9.496 -0.2408 -0.0899 -0.1754
 4359W        W 8423   1.836   3.847   2.803 -0.0624  0.2644  0.1690
 4360W        W 8424   8.655   6.543   9.143 -0.1201  0.1097  0.0798
 4361W        W 8425   7.179  10.296   3.035 -0.0645  0.0484  0.0265
 4362W        W 8426   8.432   1.808   2.010 -0.1289 -0.1326 -0.0036
 4363W        W 8427   7.734   0.133   9.039  0.3917  0.3179  0.0042
 4364W        W 8428   5.429   2.987   8.892  0.2993 -0.1165  0.3041
 4365W        W 8429  10.526  10.632  11.302  0.1114 -0.0015  0.2675
 4366W        W 8430   0.831   3.426   8.748  0.1251 -0.0257 -0.4325
 4367W        W 8431   4.439   2.213   9.455 -0.0581 -0.2746 -0.0943
 4368W        W 8432  10.327   5.848   9.971  0.1138 -0.2358  0.1838
 4369W        W 8433   7.414  10.009   0.572  0.2902  0.0220  0.0452
 4370W        W 8434   1.084   4.937   0.968 -0.0888 -0.3551 -0.0649
 4371W        W 8435   7.308   8.463  11.041 -0.0276  0.1005 -0.1922
 4372W        W 8436   7.870   4.443   0.955  0.0974  0.2773  0.1308
 4373W        W 8437   3.466   1.346   8.330 -0.0426  0.1439 -0.1565
 4374W        W 8438   7.689   8.048  11.253  0.2461  0.2231 -0.2810
 4375W        W 8439   3.561   4.684  10.756 -0.1009 -0.2723  0.4806
 4376W        W 8440   3.362   3.094  11.085 -0.0976 -0.1401 -0.0596
 4377W        W 8441   9.595  10.486   1.226 -0.0204  0.0352  0.0168
 4378W        W 8442   3.255   8.157   8.692 -0.0189  0.2452 -0.0841
 4379W        W 8443   8.068   0.588   3.813  0.2109 -0.1712 -0.1228
 4380W        W 8444   1.852   8.417   9.259 -0.2137 -0.0790  0.0075
 4381W        W 8445   3.904   8.958  10.967  0.2668  0.1436 -0.1540
 4382W        W 8446  10.458   8.548   2.923 -0.1354  0.0094  0.2035
 4383W        W 8447   8.032   6.895  10.579  0.1776 -0.2802 -0.0363
 4384W        W 8448   0.960   3.154   3.426 -0.2101 -0.0856  0.1416
 4385W        W 8449   8.833   0.120   0.058  0.1148  0.1595 -0.0086
 4386W        W 8450   2.779   5.041  11.558  0.0527  0.0795 -0.3247
 4387W        W 8451   3.225   1.753  10.706 -0.0388  0.0062  0.0237
 4388W        W 8452   8.303   9.160   8.578 -0.1920  0.0249 -0.1235
 4389W        W 8453  10.431   5.117  10.247  0.0834  0.1073  0.1245
 4390W        W 8454   3.663   1.910   0.397  0.1504  0.3120  0.0419
 4391W        W 8455   5.119   1.501   2.416  0.0718 -0.0755  0.0846
 4392W        W 8456   2.647   9.766   1.711 -0.3468 -0.1612  0.1378
 4393W        W 8457   6.268   1.946   1.448 -0.2914 -0.1301  0.0051
 4394W        W 8458   7.708   8.517   8.168  0.0181 -0.2635  0.0435
 4395W        W 8459   8.780   2.395   9.346  0.2829 -0.1610 -0.0016
 4396W        W 8460   3.541   7.576   9.742  0.1855  0.2658 -0.0069
 4397W        W 8461   0.447   9.933  10.087  0.2983  0.1520  0.0202
 4398W        W 8462   4.444   4.918  10.969 -0.2780  0.3653 -0.3636
 4399W        W 8463   6.652  10.459   2.325 -0.3500  0.4352 -0.0348
 4400W        W 8464   6.374   6.030   9.970  0.0951 -0.1603  0.1634
 4401W        W 8465   0.942   6.226  10.483  0.0425 -0.1420 -0.0052
 4402W        W 8466   8.202   2.118  11.564 -0.0295 -0.0486 -0.0409
 4403W        W 8467   4.690   4.380   9.050 -0.0260  0.0059  0.0331
 4404W        W 8468   7.124   2.828   9.949  0.3460  0.2835 -0.2175
 4405W        W 8469   5.479   9.024   7.194 -0.0259  0.0408 -0.0566
 4406W        W 8470   8.697   9.955   8.493 -0.3167 -0.0603  0.0969
 4407W        W 8471   4.917   4.116   1.244 -0.2066  0.1070  0.3293
 4408W        W 8472   6.350  10.283   3.391 -0.0088  0.1561  0.0938
 4409W        W 8473   0.585   8.866   8.244  0.1232 -0.3887 -0.0187
 4410W        W 8474   2.083   5.468   9.760 -0.1322  0.0474  0.1136
 4411W        W 8475   7.849   4.829   1.947  0.1695  0.3606  0.1763
 4412W        W 8476  10.450  10.533   0.496 -0.4949  0.0357  0.1915
 4413W        W 8477   6.606   1.843  10.280  0.0501 -0.0313  0.0836
 4414W        W 8478  10.166   2.581   2.057 -0.4811 -0.0666 -0.0768
 4415W        W 8479   8.877   4.332   7.703  0.1575  0.1219 -0.1595
 4416W        W 8480  10.429   0.280   3.558  0.1255  0.2511  0.1249
 4417W        W 8481   3.763   5.129   3.475 -0.2447  0.3264  0.4174
 4418W        W 8482   1.780   4.351   2.438 -0.2213  0.2423  0.0535
 4419W        W 8483   3.405   7.632  10.224  0.0143  0.0443  0.0172
 4420W        W 8484   8.668   7.819  11.468 -0.1552  0.1732 -0.0916
 4421W        W 8485   1.168   5.660   1.073  0.0468 -0.0190  0.0636
 4422W        W 8486   2.384   2.572   0.008 -0.1225 -0.0071 -0.0855
 4423W        W 8487   6.879   8.717   0.848 -0.0908  0.1379  0.2535
 4424W        W 8488   1.902   2.425   0.438 -0.0475  0.2842  0.2285
 4425W        W 8489   0.469   2.842   3.538 -0.1877  0.0036  0.1164
 4426W        W 8490   4.699   4.968   2.345 -0.3594  0.0458  0.0710
 4427W        W 8491   6.137   9.055  11.455 -0.0239  0.0690  0.3085
 4428W        W 8492   5.673   8.517   2.079  0.0196  0.0171  0.0068
 4429W        W 8493   0.827   4.144   0.700  0.0160  0.4991  0.3345
 4430W        W 8494   7.141   2.340  10.158  0.5058 -0.0677  0.1293
 4431W        W 8495   7.947   4.215   2.560  0.1279 -0.1744 -0.4111
 4432W        W 8496   2.038   5.396  10.979 -0.0781  0.3738 -0.2616
 4433W        W 8497   1.024   8.542   9.628  0.0086 -0.2770  0.1266
 4434W        W 8498   8.958   9.369   3.008 -0.0971  0.3055  0.2419
 4435W        W 8499   4.166   7.044   3.707  0.1241 -0.4400 -0.0163
 4436W        W 8500   4.113   9.591   9.824  0.1436  0.0910  0.0703
 4437W        W 8501   3.047   3.363  10.056  0.0250 -0.0575  0.0580
 4438W        W 8502   6.507   9.509   3.304 -0.0029  0.4357 -0.2700
 4439W        W 8503   2.059   6.637   8.959  0.1110 -0.0973 -0.2335
 4440W        W 8504   7.138   3.310   3.790  0.0518 -0.2499  0.0769
 4441W        W 8505  10.254  10.131  11.157  0.0692 -0.2280  0.0742
 4442W        W 8506   8.709   3.588   2.771  0.1708 -0.0515  0.0821
 4443W        W 8507   6.180   9.356   9.731  0.4939  0.2646 -0.0688
 4444W        W 8508   7.133   0.401   0.798  0.1143  0.1462 -0.3520
 4445W        W 8509   3.314   0.533   3.347 -0.0172 -0.1859  0.1301
 4446W        W 8510   8.884   3.191   9.767  0.1927 -0.1564  0.0946
 4447W        W 8511   8.171   5.664   3.639  0.0700 -0.0602  0.0482
 4448W        W 8512   0.473   8.174  10.759  0.1527  0.0623 -0.0905
 4449W        W 8513   4.192   1.317  11.585  0.2811  0.1149  0.5389
 4450W        W 8514   7.901   5.286   1.142 -0.0290  0.1280  0.0395
 4451W        W 8515   2.970   1.266   9.884 -0.0598  0.0075  0.2745
 4452W        W 8516  10.224   8.964   8.376  0.1122  0.0131 -0.1635
 4453W        W 8517   2.882   8.656   7.965 -0.0288 -0.2406  0.1075
 4454W        W 8518   7.601   2.942  11.468 -0.0918  0.1040  0.0398
 4455W        W 8519   9.820   0.328  10.013 -0.0107 -0.0875  0.0414
 4456W        W 8520   5.570   7.439   9.470  0.0789  0.0841 -0.2240
 4457W        W 8521   6.502   0.126   1.555 -0.0803  0.0158 -0.3128
 4458W        W 8522   7.378   9.478   2.021 -0.4077  0.0253 -0.1022
 4459W        W 8523   2.127   0.205   1.526  0.0869  0.5925 -0.0070
 4460W        W 8524   9.837   4.944   2.293 -0.1200 -0.0729  0.0089
 4461W        W 8525   4.852   1.053  10.859  0.0388 -0.0466  0.2688
 4462W        W 8526   9.972   2.117   0.845 -0.0539 -0.2638  0.2353
 4463W        W 8527  10.374   2.893   0.155  0.0111  0.1011  0.2659
 4464W        W 8528   4.883   8.724   7.362 -0.0502  0.1712 -0.0716
 4465W        W 8529   8.764   1.895   7.326  0.0022  0.1932 -0.2702
 4466W        W 8530   9.000   1.440   1.155 -0.2713 -0.1210 -0.1273
 4467W        W 8531   9.852   9.331   8.085  0.2297 -0.2989 -0.1570
 4468W        W 8532   7.976   4.836   1.430 -0.1468 -0.1633 -0.1340
 4469W        W 8533   1.692   7.444   8.523 -0.1395 -0.1788 -0.2184
 4470W        W 8534   8.328   3.124   9.910  0.3313  0.0800  0.0697
 4471W        W 8535   3.604  10.203   1.444  0.1967 -0.2073 -0.3542
 4472W        W 8536   5.377   3.699   0.401  0.0879 -0.1305 -0.1051
 4473W        W 8537   9.899   9.012   2.270 -0.0331  0.3751  0.0262
 4474W        W 8538   0.384   8.744   9.466  0.0324 -0.4416  0.0167
 4475W        W 8539   5.685   6.240  11.043 -0.0043  0.1500  0.1737
 4476W        W 8540   3.447   3.256   0.045  0.1407 -0.1963  0.0420
 4477W        W 8541   0.336   3.640   8.562  0.3638  0.0963  0.0724
 4478W        W 8542   5.271   6.557  11.144 -0.0852  0.0804  0.0704
 4479W        W 8543   4.490   9.303   2.046  0.0366  0.1458  0.2110
 4480W        W 8544  10.087   0.555   9.179  0.2834 -0.0102 -0.2458
 4481W        W 8545   9.044   1.580   9.314 -0.0604  0.0155  0.2296
 4482W        W 8546   6.082   6.014  11.347  0.1061  0.1287 -0.1152
 4483W        W 8547   4.122   1.183   0.951  0.0137  0.1235 -0.1286
 4484W        W 8548   1.659  10.510   9.225 -0.0572 -0.0173 -0.0425
 4485W        W 8549   4.056   4.573   1.775  0.2455  0.5039 -0.4583
 4486W        W 8550   5.890   2.065  10.660  0.0026 -0.0194 -0.2923
 4487W        W 8551   6.356   3.871  10.924  0.3465  0.0035  0.1922
 4488W        W 8552   4.209   8.429   0.961  0.0240  0.0737 -0.3310
 4489W        W 8553   5.029   6.672   1.355  0.0584 -0.1563 -0.1229
 4490W        W 8554   1.653   0.489   8.511  0.0693  0.0195 -0.1786
 4491W        W 8555   9.136   0.468  10.706 -0.0983 -0.3828  0.2941
 4492W        W 8556   8.936   8.041   1.530  0.2816 -0.1446 -0.3044
 4493W        W 8557   4.625   4.168   1.725  0.3846 -0.2474  0.0341
 4494W        W 8558   2.599   2.342  10.384 -0.1175  0.0618  0.2129
 4495W        W 8559   9.387  10.232   0.384 -0.1499  0.2493  0.0615
 4496W        W 8560   3.257   1.536   2.616  0.2734  0.1386 -0.0870
 4497W        W 8561   1.616   8.694   0.558 -0.0300  0.0600  0.1699
 4498W        W 8562   1.163   1.392   0.309  0.2513 -0.0054  0.0626
 4499W        W 8563   7.090   0.369   0.043 -0.0639 -0.1442  0.1957
 4500W        W 8564   4.183   4.882  11.416  0.0081  0.2397  0.0228
 4501W        W 8565   3.301   6.477   9.862 -0.1098 -0.1817  0.1217
 4502W        W 8566   9.953   0.364   1.467 -0.2070 -0.0086  0.2221
 4503W        W 8567   8.438   6.371   9.575 -0.1204 -0.2323  0.0752
 4504W        W 8568   2.561   0.040   1.328 -0.2000 -0.0059  0.0517
 4505W        W 8569   0.319   4.340   7.533  0.1013 -0.1358  0.0433
 4506W        W 8570   8.464   4.144   2.843 -0.2076  0.2836 -0.0044
 4507W        W 8571   3.927   9.909   2.332  0.1379 -0.1320  0.0762
 4508W        W 8572   2.931   0.057   8.303  0.0097  0.1419 -0.2046
 4509W        W 8573   5.053   0.008   9.995  0.1477  0.0280 -0.1807
 4510W        W 8574   9.796   7.464   2.072  0.1795 -0.0028  0.0489
 4511W        W 8575   8.529   0.404  10.134 -0.2184  0.1292 -0.0086
 4512W        W 8576  10.438   2.890   1.145  0.2064 -0.0168  0.1484
 4513W        W 8577   5.569   9.493   7.028  0.1230  0.2137  0.1626
 4514W        W 8578   5.311   0.405  10.136 -0.1373 -0.2449 -0.1630
 4515W        W 8579   4.002   3.059   0.808  0.2687  0.1241  0.3982
 4516W        W 8580   5.397   5.289   9.159 -0.0663  0.0043  0.1595
 4517W        W 8581  10.504  10.407  10.787  0.1207 -0.0517 -0.1777
 4518W        W 8582   9.906   1.619   3.571 -0.3093 -0.0849  0.0507
 4519W        W 8583   9.115   8.753   9.775 -0.0428  0.1151 -0.2407
 4520W        W 8584   1.050  10.426   8.889 -0.1698  0.0104 -0.2986
 4521W        W 8585   8.523   0.524   3.664 -0.0179  0.1643  0.4689
 4522W        W 8586   1.086   8.385   2.967 -0.0064  0.0119  0.0742
 4523W        W 8587   1.595   9.483   3.004 -0.1108  0.0836 -0.1012
 4524W        W 8588   1.382   5.076   2.973  0.1932 -0.1670 -0.2871
 4525W        W 8589   9.420   4.851   1.359  0.0418 -0.0743 -0.1524
 4526W        W 8590   8.270   8.195  10.137  0.0440 -0.0598  0.0045
 4527W        W 8591   6.599   1.373  10.003  0.1186 -0.0772 -0.1576
 4528W        W 8592   1.391   6.110  10.551 -0.5089 -0.1568  0.0739
 4529W        W 8593   6.655   3.578   9.982  0.1966  0.0715  0.1334
 4530W        W 8594   9.026   4.796   2.770  0.0868  0.1079  0.0383
 4531W        W 8595   1.551   3.937  10.074 -0.2887  0.1253  0.1658
 4532W        W 8596  10.232   7.197   0.290  0.4342 -0.0096  0.1192
 4533W        W 8597   4.784   6.325   1.648 -0.1515 -0.0233  0.1070
 4534W        W 8598   7.157   8.812  10.168  0.3111  0.0644 -0.0685
 4535W        W 8599   7.314   9.306   8.264  0.1511 -0.0984 -0.0392
 4536W        W 8600   3.379   7.117   8.495 -0.0461  0.1179 -0.4467
 4537W        W 8601   8.030   9.054  10.282 -0.1769 -0.0013  0.0756
 4538W        W 8602   7.048   2.071   3.206  0.0922  0.0780 -0.1061
 4539W        W 8603   1.387   3.036   0.060 -0.1242  0.5222  0.0464
 4540W        W 8604   1.325   4.805   7.832  0.0492  0.0390 -0.1562
 4541W        W 8605   6.307   4.360  10.722  0.0469 -0.3090 -0.0170
 4542W        W 8606   2.896   3.443  10.522  0.1751  0.0938  0.2622
 4543W        W 8607   2.529   6.373   8.969 -0.0745 -0.0413  0.0363
 4544W        W 8608   5.568   9.938   9.683 -0.4345 -0.1403 -0.0486
 4545W        W 8609   2.675   1.896   2.549 -0.1098 -0.1720  0.0494
 4546W        W 8610   7.739   5.474   3.405 -0.1732 -0.0497 -0.4578
 4547W        W 8611   0.121   5.683  10.866  0.7411  0.2715  0.0658
 4548W        W 8612   5.186   6.596   9.248  0.2633  0.3452  0.0676
 4549W        W 8613   7.160   1.933  10.443 -0.0851 -0.2370  0.0812
 4550W        W 8614   6.300   0.151   7.852  0.0558  0.1338  0.0659
 4551W        W 8615   4.977   9.959   8.968 -0.1179  0.2442  0.1285
 4552W        W 8616   3.482   7.865   8.399 -0.3486  0.1912  0.0288
 4553W        W 8617   1.425   6.990  11.470 -0.2510  0.2945  0.0194
 4554W        W 8618   5.486   8.931   1.857  0.1867  0.0729  0.1653
 4555W        W 8619   5.000   7.831  10.237  0.2985 -0.0440  0.0305
 4556W        W 8620   6.485   2.381   3.934  0.0603  0.1968  0.0577
 4557W        W 8621  10.048   8.588  11.100  0.0179 -0.1425 -0.2956
 4558W        W 8622   6.647  10.444   2.901  0.2559  0.1946 -0.0418
 4559W        W 8623   5.305   3.269   8.124 -0.1628  0.0094  0.0496
 4560W        W 8624   2.043  10.424   1.282  0.3220  0.1824 -0.0471
 4561W        W 8625   2.990   8.774   1.099  0.0745  0.0985 -0.2850
 4562W        W 8626   9.065   2.764   7.827 -0.0261 -0.0706  0.1773
 4563W        W 8627   8.412   7.629   2.590 -0.5409  0.1304  0.3444
 4564W        W 8628   6.251   9.924   0.578  0.1752  0.0678  0.1628
 4565W        W 8629   8.887  10.290   2.308  0.1506 -0.1432 -0.0197
 4566W        W 8630   7.451   8.334   3.350 -0.1891  0.2439  0.2069
 4567W        W 8631   5.140   5.866   1.033 -0.3100 -0.1827 -0.2858
 4568W        W 8632   1.403   2.655   7.868  0.3015  0.1870 -0.0848
 4569W        W 8633   2.901   3.482   1.642 -0.1533 -0.0599 -0.0146
 4570W        W 8634   0.509  10.442   0.841  0.2833  0.2485  0.0630
 4571W        W 8635   4.859   1.025   0.526  0.3263  0.2111  0.0288
 4572W        W 8636   5.723   8.696   9.256 -0.0342 -0.1179 -0.1384
 4573W        W 8637   6.945   4.980   2.336 -0.0048 -0.0327  0.3614
 4574W        W 8638   1.649   4.224   1.510  0.2184 -0.1250 -0.5081
 4575W        W 8639   7.016   9.614  10.063  0.1343  0.0267  0.0455
 4576W        W 8640   7.366   9.019   1.690  0.1587 -0.0088 -0.0476
 4577W        W 8641   4.916   7.901   1.605 -0.2455 -0.0799  0.3011
 4578W        W 8642   6.972   6.974   3.081 -0.2292  0.1012  0.0474
 4579W        W 8643   9.711   1.342   2.826  0.2598 -0.1118 -0.4073
 4580W        W 8644   9.241   1.499   3.035 -0.2118 -0.1216  0.0473
 4581W        W 8645   2.606   3.078   9.165  0.3208 -0.0871 -0.0346
 4582W        W 8646   5.343   1.902   8.404  0.1286  0.1420 -0.0788
 4583W        W 8647   4.253   9.765   7.951 -0.0798 -0.0421 -0.0814
 4584W        W 8648   7.984   6.763   0.606 -0.0642 -0.2011  0.4333
 4585W        W 8649   0.669   4.400   1.515 -0.1069 -0.1617  0.1767
 4586W        W 8650   4.891   9.125   0.876 -0.0568 -0.2170 -0.0719
 4587W        W 8651   5.634   5.826   3.663  0.1168 -0.1246 -0.1238
 4588W        W 8652   5.763   9.784   7.884  0.0819  0.2993  0.1526
 4589W        W 8653   0.443   9.304   8.729  0.1475 -0.1609 -0.1887
 4590W        W 8654   5.710   8.408   9.690 -0.0447  0.0836  0.1710
 4591W        W 8655   9.072   0.126   8.535 -0.3707  0.3096  0.2424
 4592W        W 8656   1.181   1.043   8.438 -0.2967 -0.0868  0.1812
 4593W        W 8657   2.682   0.283   0.317 -0.0073 -0.0991 -0.0514
 4594W        W 8658  10.311  10.287   0.088  0.2213  0.1283 -0.1605
 4595W        W 8659   0.789   7.580   0.535 -0.0030 -0.0576 -0.1339
 4596W        W 8660   0.083   0.146   1.777 -0.1403 -0.0234 -0.0101
 4597W        W 8661   2.233   1.190   3.566  0.2012  0.0158  0.2438
 4598W        W 8662   2.379  10.278   2.190 -0.2081  0.1190 -0.0898
 4599W        W 8663   3.812  10.155   0.822  0.1444  0.3766 -0.1676
 4600W        W 8664   1.149   8.100  11.535 -0.1834 -0.0595 -0.0105
 4601W        W 8665   9.627   2.348   9.340  0.2488 -0.5549  0.1742
 4602W        W 8666   5.943   7.751   0.348 -0.0907 -0.0422 -0.1002
 4603W        W 8667   0.691   2.788  10.587  0.1243  0.0613 -0.2112
 4604W        W 8668   1.491   4.295   9.402  0.0899  0.3891 -0.1945
 4605W        W 8669   9.323   7.621   2.373  0.2303  0.2026 -0.0583
 4606W        W 8670   1.424   3.766  10.849  0.2058 -0.1007 -0.4401
 4607W        W 8671   0.408   2.128   0.258 -0.2354 -0.3398  0.1073
 4608W        W 8672   2.627   3.562   9.115  0.1309  0.0457  0.1591
 4609W        W 8673   2.497   6.795   1.998 -0.1618 -0.2714 -0.1715
 4610W        W 8674   5.536   7.028  11.117  0.0768 -0.0281 -0.1000
 4611W        W 8675   4.333  10.203   0.851  0.1794  0.3101  0.2476
 4612W        W 8676   6.697   8.475   2.150 -0.2211 -0.0803  0.0156
 4613W        W 8677   8.577   5.854   3.782  0.0392  0.0206  0.1431
 4614W        W 8678   5.887   7.921  11.480  0.2324 -0.2857  0.0397
 4615W        W 8679   2.378   1.170   9.503 -0.1744  0.0112 -0.3688
 4616W        W 8680   3.683   1.656   9.367 -0.3689  0.2344 -0.0632
 4617W        W 8681   2.976   9.211  10.638  0.0532 -0.6256 -0.1197
 4618W        W 8682   6.037  10.293   9.988  0.0121  0.0782 -0.1684
 4619W        W 8683   9.032   0.436   0.491  0.1258 -0.2826  0.0195
 4620W        W 8684   2.485   2.443   9.109  0.0447  0.1312  0.0188
 4621W        W 8685   8.439   4.019   1.877  0.2315  0.0363 -0.0968
 4622W        W 8686   2.476   8.681   8.572  0.0070  0.1413  0.0295
 4623W        W 8687   1.585   1.725   9.360  0.1485  0.0739 -0.2497
 4624W        W 8688   7.407   4.504  10.724  0.0027  0.0897 -0.1441
 4625W        W 8689   3.137   0.505   2.882  0.0655 -0.0532 -0.0134
 4626W        W 8690   6.561   0.869   2.017  0.1939 -0.0320  0.0691
 4627W        W 8691   8.103   6.233   0.296  0.3111 -0.1604 -0.0617
 4628W        W 8692   4.919   8.553   7.785 -0.0589 -0.2141 -0.2509
 4629W        W 8693   4.264   0.968  10.491 -0.1369  0.0498 -0.0592
 4630W        W 8694   8.076   4.041   8.733  0.0142  0.1432  0.1354
 4631W        W 8695   4.250   3.497   0.641 -0.0829  0.2278 -0.3632
 4632W        W 8696  10.118   1.846   9.771  0.0394 -0.1379  0.1214
 4633W        W 8697   7.596  10.393   0.873  0.2174  0.0020  0.0827
 4634W        W 8698   1.385   2.315   0.286  0.1867 -0.2051  0.0129
 4635W        W 8699   5.279   6.596   0.468 -0.0099 -0.0200  0.1853
 4636W        W 8700   8.889   2.170   8.186  0.0370  0.4357  0.2215
 4637W        W 8701   0.159   2.910   0.441 -0.2186 -0.3475  0.0154
 4638W        W 8702   9.775   7.449  10.026 -0.0131 -0.1509  0.2206
 4639W        W 8703   5.476   7.946   0.681 -0.1197  0.0135 -0.0494
 4640W        W 8704   5.418   7.602   1.689 -0.0459 -0.0199  0.0361
 4641W        W 8705   4.854   9.566   2.241  0.0292 -0.2027 -0.0919
 4642W        W 8706   1.968   5.583   1.433 -0.5057  0.1822 -0.1423
 4643W        W 8707   8.164   3.524   7.881 -0.1567 -0.1379  0.0419
 4644W        W 8708   5.996   2.175  11.173 -0.0787  0.0317  0.5080
 4645W        W 8709   1.147   0.498   0.953  0.0252  0.0174  0.0253
 4646W        W 8710  10.075   8.036  11.043 -0.2280  0.3428 -0.1854
 4647W        W 8711   1.289   5.090   1.813 -0.0251 -0.2429 -0.2112
 4648W        W 8712   0.511   3.196   3.136 -0.1024  0.0228  0.1349
 4649W        W 8713   4.204   6.678   9.619  0.0661 -0.0379  0.1755
 4650W        W 8714  10.351  10.291   2.606  0.2549 -0.0054  0.2568
 4651W        W 8715   6.598   1.899  10.753  0.2232  0.2930 -0.1561
 4652W        W 8716   9.921   5.675   8.738 -0.1252  0.0318  0.0391
 4653W        W 8717   3.715   1.884   3.784 -0.3414 -0.1266 -0.1000
 4654W        W 8718   1.429   0.127  11.409  0.0034 -0.2760 -0.0473
 4655W        W 8719   2.797   1.337   8.939 -0.0846  0.0050  0.2651
 4656W        W 8720   3.854   6.908   0.107  0.1207 -0.0116 -0.1107
 4657W        W 8721   0.734   8.515   9.208 -0.2178 -0.2287 -0.1358
 4658W        W 8722   5.926   8.774   3.049 -0.2868  0.3249 -0.0614
 4659W        W 8723   3.906   4.296   1.423  0.4324 -0.2102  0.2125
 4660W        W 8724   6.584   5.143   2.042 -0.0478  0.0231 -0.0151
 4661W        W 8725   7.671   6.207  11.406  0.2652 -0.3337 -0.0316
 4662W        W 8726  10.272   1.957   2.791  0.1322  0.2202  0.1453
 4663W        W 8727   8.000   6.862   1.467 -0.2419 -0.3073 -0.0465
 4664W        W 8728   3.044   3.496  11.361 -0.1711 -0.0775  0.0633
 4665W        W 8729  10.452   9.408   2.297 -0.3010  0.0339  0.1873
 4666W        W 8730   9.462  10.204   9.000  0.2723  0.2536 -0.0121
 4667W        W 8731   4.512   8.840   2.852  0.0433 -0.0229  0.1987
 4668W        W 8732   3.295   0.466   1.607  0.1337 -0.1291  0.0062
 4669W        W 8733   1.264   1.943   2.288 -0.0038  0.2493 -0.3047
 4670W        W 8734   0.690   9.343   8.003  0.1365 -0.1370  0.2085
 4671W        W 8735   9.743   1.320  11.425 -0.0874  0.0404 -0.2200
 4672W        W 8736   8.445   5.343   2.264 -0.0350 -0.0554 -0.0283
 4673W        W 8737   5.159   9.052   8.317  0.1856 -0.0015  0.0447
 4674W        W 8738   2.390   6.316   8.471 -0.3235 -0.0225  0.1464
 4675W        W 8739   0.030   0.456  11.330 -0.2564 -0.0560  0.1528
 4676W        W 8740   3.192   9.949   1.857  0.1222  0.1475  0.1152
 4677W        W 8741   3.893   9.787   3.494 -0.2408  0.1110 -0.0431
 4678W        W 8742   1.577  10.000   2.415 -0.3132 -0.0585 -0.0027
 4679W        W 8743   2.684   9.025   9.632  0.2014  0.0950  0.1845
 4680W        W 8744   2.409   8.285   0.466  0.0524 -0.1179 -0.2844
 4681W        W 8745   9.800   9.479   9.698  0.1076 -0.0969 -0.3464
 4682W        W 8746   8.903   3.463   3.200  0.2020 -0.0019  0.3680
 4683W        W 8747   9.727   9.266  10.125  0.1464  0.1123  0.1935
 4684W        W 8748   4.363   4.036   3.022  0.2565 -0.2459  0.1534
 4685W        W 8749   8.517   7.998   9.685 -0.2986 -0.2522 -0.1672
 4686W        W 8750   9.098   7.717  11.143  0.0944 -0.1124  0.0440
 4687W        W 8751   2.925   6.224   9.569 -0.0768  0.4274 -0.2334
 4688W        W 8752   4.240   3.145   9.448  0.0045 -0.1367 -0.3457
 4689W        W 8753   3.610   8.542  11.039 -0.1106 -0.2652 -0.1484
 4690W        W 8754  10.160   8.785   0.063 -0.4259  0.0560  0.1393
 4691W        W 8755   2.098   3.064   3.455  0.0177 -0.3257 -0.1618
 4692W        W 8756   1.759   0.899   2.656 -0.0065 -0.0779 -0.2647
 4693W        W 8757   2.692   2.761   2.689 -0.0299 -0.0141 -0.2768
 4694W        W 8758   5.001   2.295   7.239  0.0417  0.4006 -0.1155
 4695W        W 8759   7.883  10.231   9.839 -0.2725  0.0445 -0.2224
 4696W        W 8760  10.250   2.838   1.632  0.1282  0.1600 -0.0232
 4697W        W 8761   4.101   0.780  11.406  0.1086 -0.0213  0.2726
 4698W        W 8762   4.860   7.462   2.468 -0.1105 -0.1288 -0.0609
 4699W        W 8763   7.824   8.812   1.671  0.2047 -0.2093 -0.0583
 4700W        W 8764   2.477  10.607  11.175 -0.0101  0.2565  0.2480
 4701W        W 8765   9.961   0.825   1.543 -0.0220 -0.3826 -0.1688
 4702W        W 8766   5.518   6.322   3.671 -0.3462  0.1410 -0.1108
 4703W        W 8767   6.176   8.459   2.160  0.2336  0.0705 -0.1527
 4704W        W 8768   4.739   7.484   0.748 -0.4597 -0.2579 -0.1714
 4705W        W 8769   3.240   3.459   2.803  0.1144  0.0976 -0.1614
 4706W        W 8770   6.814   1.080   1.631  0.1142  0.3983  0.0666
 4707W        W 8771  10.305   4.815   1.550  0.3266  0.1138 -0.0815
 4708W        W 8772   2.158   0.867   8.343 -0.0030 -0.1904  0.3661
 4709W        W 8773   3.431   6.310  10.334 -0.4914 -0.2010 -0.0894
 4710W        W 8774   5.702   5.636   8.954 -0.4292 -0.3323  0.0358
 4711W        W 8775   5.072   3.452  11.186  0.1196  0.0586  0.0084
 4712W        W 8776   6.844   0.790   0.020  0.0096 -0.1511  0.0425
 4713W        W 8777  10.386   4.778   2.323  0.0333 -0.0125  0.1150
 4714W        W 8778   5.828   8.691   8.564  0.1040 -0.1473  0.1293
 4715W        W 8779   7.819   9.601   2.129  0.2240  0.0332 -0.1395
 4716W        W 8780   8.585   0.006   3.312  0.0474 -0.1805  0.0681
 4717W        W 8781   0.987   3.532   8.243  0.1224  0.1922  0.0616
 4718W        W 8782   8.200   7.812   8.520 -0.0139  0.0234 -0.3625
 4719W        W 8783   4.070  10.129   8.246  0.2088  0.0544 -0.1176
 4720W        W 8784   1.573   3.861   9.135 -0.4106  0.0099 -0.1938
 4721W        W 8785   1.844   9.672  11.065 -0.0225  0.1893 -0.0975
 4722W        W 8786   9.725   6.042   8.408 -0.1859  0.0098 -0.0062
 4723W        W 8787   9.105   8.127   2.893 -0.1069 -0.2185 -0.3032
 4724W        W 8788   2.186   2.304   0.905  0.0907  0.1413  0.3058
 4725W        W 8789   7.080   9.334   7.858 -0.0431  0.0344  0.2033
 4726W        W 8790   3.918   7.481   3.505  0.2172  0.2083  0.0637
 4727W        W 8791   4.293   8.720  10.559 -0.2993  0.0026  0.2987
 4728W        W 8792   9.270   4.937   3.252  0.1436  0.1173  0.0584
 4729W        W 8793   8.665   5.459   3.343 -0.1132 -0.2779  0.1435
 4730W        W 8794   9.917   5.609  10.936 -0.1280 -0.4043 -0.3654
 4731W        W 8795   3.676   3.222   2.771  0.0265 -0.1582  0.2447
 4732W        W 8796   0.115   1.773   9.622  0.1324 -0.2003 -0.4794
 4733W        W 8797   8.887   3.496   4.143 -0.1528 -0.2545 -0.0162
 4734W        W 8798  10.197  10.597  10.151 -0.2598  0.0826  0.0552
 4735W        W 8799   1.275   1.067   1.077 -0.2142  0.0385  0.1983
 4736W        W 8800   1.041   5.224   8.551  0.1099  0.0579  0.0320
 4737W        W 8801   7.183   8.737   8.510  0.0845  0.4121  0.2197
 4738W        W 8802   4.306   4.487   8.625 -0.1013 -0.0853 -0.0415
 4739W        W 8803   9.171   8.854   0.314  0.2147 -0.2029  0.1700
 4740W        W 8804   3.929   1.680   0.759  0.0288 -0.0357 -0.1767
 4741W        W 8805   2.469   1.263   7.360  0.2834  0.1161  0.0553
 4742W        W 8806   3.724   2.378  10.090  0.1235 -0.0858 -0.0652
 4743W        W 8807   4.564   2.595   1.392  0.1530  0.2573 -0.0550
 4744W        W 8808   4.349   6.331  10.921 -0.0894  0.3284 -0.2264
 4745W        W 8809   2.597   7.773   0.076 -0.0673 -0.0490  0.0136
 4746W        W 8810   7.267   4.019  10.532  0.3390 -0.0774  0.0842
 4747W        W 8811   5.909   5.183   0.895 -0.2224  0.2102  0.0592
 4748W        W 8812   3.278   2.875   1.366  0.1224 -0.1394 -0.1179
 4749W        W 8813   8.537   2.985   9.427  0.1630  0.0820 -0.3375
 4750W        W 8814   5.361   4.110   1.498  0.1532  0.0001  0.0251
 4751W        W 8815  10.350   4.477   0.178 -0.3814  0.1098  0.0943
 4752W        W 8816   7.910   1.339   1.868 -0.2750  0.1443  0.1873
 4753W        W 8817   2.789   3.340   0.214  0.0053  0.2013  0.0583
 4754W        W 8818   5.223   2.213   3.144 -0.1196 -0.0714  0.0952
 4755W        W 8819   0.027   5.164   2.648  0.2068 -0.2156  0.0062
 4756W        W 8820   7.601   8.946   2.137  0.1384  0.1291 -0.2637
 4757W        W 8821   5.784   3.072   1.567  0.0389  0.0188  0.0136
 4758W        W 8822   2.875   7.131   2.434 -0.0930 -0.1170  0.2549
 4759W        W 8823   6.089  10.185   8.451  0.1992 -0.2564  0.3985
 4760W        W 8824   5.718   3.574   9.607  0.1586  0.4311  0.1762
 4761W        W 8825   9.270   9.706   9.769  0.2335 -0.2359 -0.0569
 4762W        W 8826   0.779   7.255  10.401  0.0951  0.0502  0.2255
 4763W        W 8827   8.873   0.134   2.935 -0.0547 -0.1645  0.0760
 4764W        W 8828  10.223   0.819   2.103  0.0377  0.1039 -0.2228
 4765W        W 8829   8.743   7.244  11.585 -0.3535 -0.1182  0.1639
 4766W        W 8830   0.660   8.085   8.994 -0.1335 -0.2852  0.1369
 4767W        W 8831   9.349   5.392  11.040 -0.0582  0.0786  0.1154
 4768W        W 8832   3.186   0.416   2.147  0.0858 -0.0112  0.0243
 4769W        W 8833   5.813   5.526   7.642  0.2689 -0.0094 -0.0047
 4770W        W 8834   1.223   2.025   9.678  0.3955 -0.0555  0.1543
 4771W        W 8835  10.048   2.127   9.241 -0.2112  0.0711 -0.0371
 4772W        W 8836   4.137   9.787   0.626 -0.1285  0.0531  0.3985
 4773W        W 8837   7.483   5.351   0.748 -0.1942 -0.0933  0.1051
 4774W        W 8838   0.206   5.530  11.422 -0.0967 -0.1008  0.2092
 4775W        W 8839   7.921   7.635   8.986 -0.0867 -0.1838  0.0448
 4776W        W 8840   7.443   5.647   1.655 -0.6166 -0.2018 -0.1048
 4777W        W 8841   9.801   4.543  10.156  0.2663  0.2448 -0.1558
 4778W        W 8842   2.750   8.145  10.786  0.3042 -0.0850 -0.1404
 4779W        W 8843   5.320   4.501   9.642 -0.0361 -0.3167 -0.1639
 4780W        W 8844   4.519   3.420   2.411 -0.1223  0.0534 -0.0732
 4781W        W 8845   9.734   5.281  11.359  0.1135  0.0869  0.0493
 4782W        W 8846   4.606   3.970   9.840  0.0359 -0.0147 -0.0816
 4783W        W 8847   9.946   8.126   8.300  0.0274  0.0694 -0.0946
 4784W        W 8848   6.072   0.398   7.440 -0.0424  0.2811  0.0159
 4785W        W 8849   2.389   0.680   0.400 -0.0288 -0.2988 -0.0566
 4786W        W 8850   0.744   0.964   8.656 -0.2309  0.0040  0.0495
 4787W        W 8851   5.561  10.592  11.343 -0.3426  0.1087 -0.1094
 4788W        W 8852   6.193   3.857   2.445 -0.2461  0.3469  0.3857
 4789W        W 8853   6.482   0.422   9.424  0.1368  0.0159 -0.0549
 4790W        W 8854   8.501  10.054  10.036 -0.2198  0.0258  0.0828
 4791W        W 8855   4.794   2.822   1.799  0.0183 -0.0432 -0.0419
 4792W        W 8856   1.339   7.359   1.865 -0.1454 -0.0993 -0.2894
 4793W        W 8857   3.604   8.139  11.380 -0.2336 -0.1543  0.3758
 4794W        W 8858   0.087   7.857   7.801 -0.2674  0.0235  0.1451
 4795W        W 8859   6.844  10.531   1.844 -0.1960  0.1647 -0.0783
 4796W        W 8860   8.867  10.502   8.032 -0.0157 -0.2041  0.0692
 4797W        W 8861   3.424   9.026  10.824 -0.0687 -0.1154 -0.0719
 4798W        W 8862   1.224   1.887   0.535  0.1072  0.0823 -0.2374
 4799W        W 8863  10.247   4.295  10.775 -0.1771  0.1460 -0.1392
 4800W        W 8864   9.160   8.252  10.479  0.0329 -0.0107  0.0369
 4801W        W 8865   7.342   9.244   9.924 -0.2781  0.0719 -0.0234
 4802W        W 8866   1.647   0.448   9.029 -0.4334 -0.3217 -0.0183
 4803W        W 8867   7.094   3.442   2.026 -0.0353 -0.0630  0.1429
 4804W        W 8868   6.354   4.078   9.989  0.3198 -0.0532 -0.1107
 4805W        W 8869   5.970   9.401   1.785 -0.2940  0.1585 -0.4104
 4806W        W 8870   4.530   9.917   1.400 -0.2235 -0.0883  0.0308
 4807W        W 8871   5.202   1.161   0.951 -0.4578  0.2823  0.1871
 4808W        W 8872   8.154   6.371  10.369  0.0197 -0.0987  0.0139
 4809W        W 8873  10.374   2.081   0.548  0.0093 -0.1391 -0.1886
 4810W        W 8874   8.086  10.193   1.239 -0.0742 -0.2961 -0.4178
 4811W        W 8875   9.379   3.259   1.471 -0.2403  0.1191 -0.1974
 4812W        W 8876   3.655   9.278  10.013 -0.3704 -0.0140  0.2245
 4813W        W 8877   4.094   0.563   2.250 -0.0772 -0.4003 -0.3480
 4814W        W 8878   8.161   2.269   2.198 -0.3595 -0.2770  0.1687
 4815W        W 8879   5.164   7.870   2.078  0.0346 -0.2450  0.0155
 4816W        W 8880   0.880   5.545  10.323  0.0497  0.0478  0.2791
 4817W        W 8881   2.236   2.092   0.028 -0.2602  0.2770  0.1155
 4818W        W 8882   3.322   5.685   0.083  0.2507 -0.1141 -0.1454
 4819W        W 8883   9.544   3.142   0.003  0.2115 -0.1103  0.0080
 4820W        W 8884   7.661   3.036   2.491  0.2674 -0.1178 -0.1614
 4821W        W 8885   3.850   0.820   2.630  0.3438 -0.0123 -0.2205
 4822W        W 8886   8.965   4.581   9.593  0.0031 -0.1118 -0.0325
 4823W        W 8887   8.010   5.172   3.854 -0.1551  0.2550  0.0563
 4824W        W 8888   5.182   5.036  11.545 -0.5969  0.0704  0.0950
 4825W        W 8889   9.788   2.724   0.839  0.0170  0.1035 -0.2485
 4826W        W 8890   8.517   7.023  10.879  0.0377 -0.1622 -0.1431
 4827W        W 8891   4.376   9.576   3.410 -0.0956  0.0195  0.0184
 4828W        W 8892   1.551   6.354   9.784 -0.2631  0.4012  0.0839
 4829W        W 8893   3.882   6.869   1.953 -0.0506 -0.0583 -0.1461
 4830W        W 8894   9.726   7.472   9.453  0.1437  0.2618  0.2796
 4831W        W 8895   4.427   8.166   3.365 -0.0103 -0.2150 -0.1355
 4832W        W 8896   8.569   1.711   3.819  0.2421 -0.0141  0.0661
 4833W        W 8897   0.894   9.272   8.542 -0.4245 -0.0046  0.2154
 4834W        W 8898   0.982   7.296   2.592 -0.4575 -0.4305 -0.1253
 4835W        W 8899   0.687   3.654  10.383  0.1484 -0.2874 -0.0387
 4836W        W 8900   3.329   9.984   0.651 -0.0130 -0.2613  0.0191
 4837W        W 8901   0.275   3.752  11.495  0.0593 -0.1082 -0.1657
 4838W        W 8902   8.476  10.376   9.045  0.3362  0.1354 -0.0864
 4839W        W 8903   7.461   8.522   1.515 -0.3881  0.0226 -0.1846
 4840W        W 8904   9.823   7.522   3.197 -0.0493  0.0298  0.0955
 4841W        W 8905   2.694   9.404   2.925 -0.1034 -0.1612 -0.0464
 4842W        W 8906   4.711   5.975   3.527 -0.2907 -0.0587 -0.0708
 4843W        W 8907   9.612   6.605   0.226 -0.1918 -0.2153  0.3040
 4844W        W 8908   9.575  10.272   1.770 -0.0992  0.2691 -0.1780
 4845W        W 8909   5.574   0.057   2.051 -0.1320  0.0022  0.0482
 4846W        W 8910   5.415   3.650  10.015 -0.1731 -0.2967 -0.0059
 4847W        W 8911   3.693   2.744   0.500 -0.2364  0.0773  0.0406
 4848W        W 8912   1.830   2.026   2.399  0.1646  0.0066  0.0760
 4849W        W 8913   1.535   3.980   3.707  0.0038  0.0448 -0.0471
 4850W        W 8914   0.119   5.208   8.413  0.3034  0.3881  0.3464
 4851W        W 8915   1.922   2.546  11.454  0.3281 -0.0846 -0.2292
 4852W        W 8916  10.557   8.716   7.999 -0.2126 -0.0126 -0.1708
 4853W        W 8917   3.860   2.626   9.624  0.0338 -0.2535 -0.0694
 4854W        W 8918   7.981   1.494   8.642 -0.3428  0.3163 -0.1428
 4855W        W 8919   3.323   1.138   7.397  0.2779  0.0298 -0.3258
 4856W        W 8920  10.084   9.013   2.936  0.0548  0.3423  0.1679
 4857W        W 8921   8.499   5.649   1.041  0.0100  0.1812  0.2634
 4858W        W 8922   8.551   5.398   0.566 -0.3620 -0.0459  0.0827
 4859W        W 8923   9.090   1.363   0.568 -0.1412  0.3683  0.3224
 4860W        W 8924   1.886   3.688   8.702 -0.0056 -0.1634 -0.4438
 4861W        W 8925   2.836   6.815  10.861  0.0876 -0.1686  0.0718
 4862W        W 8926   6.342   6.583  10.014  0.0379 -0.1138 -0.3084
 4863W        W 8927   3.666   8.646  10.547  0.0944  0.0413 -0.0927
 4864W        W 8928   3.879   2.301   2.939  0.0059  0.0608  0.3490
 4865W        W 8929   9.669   2.304  10.638  0.2073  0.4347 -0.0810
 4866W        W 8930   9.761   5.109  10.902 -0.3605 -0.2095  0.3681
 4867W        W 8931   6.766   3.806   1.222 -0.1813  0.1066  0.1672
 4868W        W 8932   3.547   5.727   1.218  0.2066  0.2229 -0.0247
 4869W        W 8933   9.421   6.626  11.370  0.1980 -0.1294  0.1803
 4870W        W 8934   1.470  10.300   8.177  0.0170 -0.1726  0.3428
 4871W        W 8935   2.464   6.815   8.536 -0.1184  0.0040 -0.0350
 4872W        W 8936   6.783   8.745   1.693  0.0203 -0.2986 -0.0678
 4873W        W 8937   8.000  10.592   1.534 -0.1470 -0.2824 -0.0518
 4874W        W 8938   8.935   8.168  10.931  0.0207  0.1327  0.0533
 4875W        W 8939   4.014   7.773   0.263 -0.0157 -0.1369 -0.0599
 4876W        W 8940   5.587   5.900  11.399 -0.0155  0.0246  0.0111
 4877W        W 8941   5.121   8.896  10.164  0.0592  0.1415  0.1375
 4878W        W 8942   4.847   9.497   8.094 -0.1625  0.0915  0.1520
 4879W        W 8943   9.051   3.399   1.855  0.1281  0.1260 -0.1044
 4880W        W 8944   2.400   8.653   0.847 -0.4126  0.0794 -0.2497
 4881W        W 8945   1.538   0.509   0.227 -0.0105  0.2315 -0.4003
 4882W        W 8946   4.211   2.125   1.306 -0.1282 -0.0290  0.0028
 4883W        W 8947   8.800   7.598   9.488 -0.0089 -0.2022  0.0296
 4884W        W 8948   0.244   4.655   0.275  0.4383  0.1359  0.6106
 4885W        W 8949   4.001   1.678   1.283 -0.1537 -0.0708 -0.1459
 4886W        W 8950   4.032   1.044   2.261  0.2935 -0.0164  0.1214
 4887W        W 8951   6.171   2.688   9.948 -0.3816  0.1907 -0.1951
 4888W        W 8952   4.898   3.570  10.059  0.1734 -0.1702 -0.0033
 4889W        W 8953   9.209   2.820   9.694  0.1441 -0.2650 -0.1735
 4890W        W 8954   0.881   6.765   8.544  0.1325  0.3436 -0.1028
 4891W        W 8955   0.559   4.539   3.220  0.1665 -0.1010  0.0480
 4892W        W 8956   5.956   0.309   2.876  0.0514 -0.1625  0.2598
 4893W        W 8957  10.324   5.745   0.134 -0.0440 -0.1291 -0.2653
 4894W        W 8958   6.740   2.029   1.680 -0.0626  0.0421 -0.2918
 4895W        W 8959   0.346   1.856  10.083 -0.0827 -0.2749  0.0327
 4896W        W 8960   2.978   7.178  10.449  0.3726 -0.2779 -0.1539
 4897W        W 8961   2.010   9.852   2.230 -0.4671  0.0926 -0.0586
 4898W        W 8962   2.502   3.457   1.102  0.0942  0.0840  0.1453
 4899W        W 8963   3.218   1.417  10.307 -0.1866  0.0413  0.0427
 4900W        W 8964   6.394   9.295   0.299  0.1313 -0.4818 -0.1989
 4901W        W 8965   3.330   9.066  11.385 -0.1693  0.2138  0.1769
 4902W        W 8966   2.290   2.201   8.693 -0.0313 -0.0213 -0.1948
 4903W        W 8967   4.086   3.386   1.686 -0.1894  0.3434 -0.0635
 4904W        W 8968   5.118   9.027  11.160 -0.1871 -0.0898 -0.0429
 4905W        W 8969   7.274   9.237   2.972 -0.3941  0.0437 -0.0152
 4906W        W 8970   7.766   6.563   0.145 -0.0054  0.1159 -0.2897
 4907W        W 8971  10.449   6.703   9.693  0.2394  0.3292  0.0563
 4908W        W 8972  10.328   1.102   9.561  0.0386  0.0342  0.0832
 4909W        W 8973   4.711   7.660  10.618 -0.3397  0.0490 -0.2459
 4910W        W 8974   4.599   5.509   3.020 -0.3324  0.1278 -0.0854
 4911W        W 8975   8.012   8.951   8.136  0.4386  0.0010  0.0290
 4912W        W 8976   6.072   0.960   7.973 -0.2602 -0.1651  0.3633
 4913W        W 8977   2.761   6.152   1.286 -0.2613  0.0942 -0.1311
 4914W        W 8978   2.378  10.049   3.123 -0.1674  0.0254  0.1902
 4915W        W 8979   4.083   3.237   3.715  0.2898 -0.1037 -0.0327
 4916W        W 8980   2.031   6.830   3.305  0.0605  0.2012  0.1505
 4917W        W 8981   5.946   0.984   0.415  0.2117 -0.0419 -0.1161
 4918W        W 8982   1.536   3.629   8.311  0.1955  0.0201 -0.0278
 4919W        W 8983   0.365   1.099   1.594 -0.3428 -0.2638 -0.2790
 4920W        W 8984   4.529   9.330   9.702 -0.3512 -0.2022  0.0761
 4921W        W 8985   2.078   9.059   1.805 -0.0702  0.3733  0.1071
 4922W        W 8986   8.175   2.628  11.439  0.1488  0.5009 -0.1192
 4923W        W 8987   3.040   9.105   0.679  0.1051 -0.0726  0.1365
 4924W        W 8988   8.903  10.608  11.169  0.1501 -0.1702  0.1477
 4925W        W 8989   2.585   9.143   0.996 -0.0833  0.1189 -0.2586
 4926W        W 8990   7.509   3.832  11.296 -0.1991  0.0422 -0.4577
 4927W        W 8991   6.041   0.837   2.935 -0.2794  0.2300  0.0632
 4928W        W 8992   4.043   9.473  11.586 -0.0839  0.3886 -0.2343
 4929W        W 8993   5.960   1.373   0.742 -0.1461  0.1571 -0.2051
 4930W        W 8994   0.702   1.051   3.957  0.0090 -0.1003  0.0468
 4931W        W 8995  10.145   2.792   2.538 -0.0771  0.1229 -0.2806
 4932W        W 8996   2.436   8.389   8.073 -0.1244  0.3056 -0.1769
 4933W        W 8997  10.372   1.758   3.671  0.0620 -0.0923 -0.2221
 4934W        W 8998   8.716   7.792   3.382  0.1426  0.0239 -0.0550
 4935W        W 8999  10.203   7.650   2.902 -0.2132  0.1493 -0.0427
 4936W        W 9000   3.353   4.766  10.107  0.0653 -0.0422 -0.1293
 4937W        W 9001   3.904   7.823  10.158 -0.2557 -0.1362 -0.1658
 4938W        W 9002   8.288   5.968   8.670 -0.1278  0.2198  0.3093
 4939W        W 9003   5.341   7.286   4.110 -0.1366  0.3644 -0.1414
 4940W        W 9004   5.414   4.058   3.026 -0.4793 -0.1148  0.0628
 4941W        W 9005   5.092  10.241  10.456 -0.0072  0.2535  0.1562
 4942W        W 9006   9.135   9.453   0.243 -0.0157 -0.5497  0.2571
 4943W        W 9007   4.479   6.113   9.559  0.0684 -0.1190 -0.1430
 4944W        W 9008   2.887   9.486   9.574  0.1852 -0.0709  0.0577
 4945W        W 9009   1.962   8.378   8.563  0.0789 -0.0955  0.0112
 4946W        W 9010   3.425   1.917   3.079  0.0204 -0.0598 -0.2287
 4947W        W 9011   1.417   4.224   4.182  0.1835 -0.0794 -0.0186
 4948W        W 9012   2.142   8.925   1.258 -0.0549 -0.2226 -0.0163
 4949W        W 9013   6.749   3.654   8.590 -0.0334 -0.0825 -0.0387
 4950W        W 9014   3.339   7.092   9.009  0.1548  0.0343  0.0536
 4951W        W 9015   1.762   1.114   1.321  0.1649 -0.4103  0.0519
 4952W        W 9016   7.373   8.626   1.017  0.0732 -0.0521 -0.1687
 4953W        W 9017   0.274   3.039   8.992  0.0562  0.1041 -0.2623
 4954W        W 9018   8.249   9.668   1.764  0.3474 -0.2473 -0.0583
 4955W        W 9019   4.066   5.322   7.935 -0.1496  0.0719  0.1788
 4956W        W 9020   6.280   9.210   2.898 -0.3095 -0.3074  0.0854
 4957W        W 9021   4.107   7.122   2.311 -0.0345  0.0135  0.1154
 4958W        W 9022   6.409  10.203  10.397  0.0949  0.5028 -0.2214
 4959W        W 9023   4.707   2.738   2.316  0.1022  0.1279 -0.0291
 4960W        W 9024   6.155   4.492   1.634 -0.1439  0.3034  0.0505
 4961W        W 9025   4.623   1.556   7.789  0.2624  0.0243  0.0287
 4962W        W 9026   2.209   5.790   2.797 -0.1852 -0.1569  0.1206
 4963W        W 9027   1.114  10.586  10.342 -0.0885 -0.1954 -0.2438
 4964W        W 9028  10.263   3.480   7.896  0.0942  0.0423  0.2493
 4965W        W 9029   1.656  10.244   0.158 -0.0551 -0.0897  0.0999
 4966W        W 9030   4.484   1.392  10.603 -0.2931 -0.2809 -0.0025
 4967W        W 9031   9.295   1.394  11.096 -0.1298 -0.0670  0.1284
 4968W        W 9032   7.410   9.440   9.192  0.0312  0.1671 -0.0299
 4969W        W 9033   2.457   7.115   2.707  0.0202 -0.0637 -0.0139
 4970W        W 9034   1.852   7.874   2.421  0.1768  0.0283  0.0620
 4971W        W 9035   8.374   8.047   0.383 -0.4495  0.0224 -0.0042
 4972W        W 9036   4.825   8.462  11.319 -0.0279 -0.3404 -0.0890
 4973W        W 9037   2.676   6.768   1.330 -0.2450 -0.2437 -0.2015
 4974W        W 9038   5.789   1.481   9.482 -0.0561  0.0690 -0.0120
 4975W        W 9039   5.950   5.437  10.395 -0.2706 -0.2172  0.0125
 4976W        W 9040   7.859   1.121   9.949 -0.1264 -0.1146  0.2623
 4977W        W 9041   3.268   7.865   2.155  0.2826 -0.3607  0.0956
 4978W        W 9042   1.154   6.027   1.442 -0.0522  0.1962  0.0998
 4979W        W 9043   2.117   1.888  10.779 -0.0890 -0.1204  0.1534
 4980W        W 9044   2.360   0.637   9.353  0.0534 -0.1306  0.1287
 4981W        W 9045   7.541   5.614   2.573  0.0045 -0.0399 -0.0495
 4982W        W 9046   3.098   6.055   9.156 -0.1444  0.1246 -0.1976
 4983W        W 9047   9.019   7.985   9.962  0.4244  0.0527  0.2507
 4984W        W 9048   2.996   0.240   9.930 -0.2463  0.1738  0.0557
 4985W        W 9049   4.343   2.234  10.618  0.2514  0.3291 -0.1763
 4986W        W 9050   8.554   6.171  10.235  0.1096  0.2135  0.3502
 4987W        W 9051   6.080   3.199   1.908  0.0658  0.0325 -0.1123
 4988W        W 9052   8.152   0.138   8.788  0.0939  0.0754  0.1102
 4989W        W 9053   2.463   3.196  10.629  0.0790  0.3610 -0.0390
 4990W        W 9054  10.020   9.832  11.469  0.0084  0.1108  0.1003
 4991W        W 9055   6.159   1.838   0.546 -0.0476  0.2663  0.4211
 4992W        W 9056   0.331   0.681   2.423  0.3385  0.0139 -0.3268
 4993W        W 9057   6.679   5.719   8.972 -0.0756  0.2413 -0.1877
 4994W        W 9058   9.335   0.815   9.512  0.0158 -0.3704 -0.0840
 4995W        W 9059  10.650   7.252  10.530 -0.1071  0.0582  0.0497
 4996W        W 9060   4.370   3.146  11.443 -0.2123  0.0894  0.0114
 4997W        W 9061   3.507  10.639   0.523 -0.0480  0.0486  0.0458
 4998W        W 9062   2.472  10.344   0.004  0.0246  0.0706  0.0923
 4999W        W 9063   6.162   7.127   2.195  0.1350 -0.1249  0.1431
 5000W        W 9064   2.505   5.530   8.141 -0.0702 -0.0960 -0.0274
 5001W        W 9065   3.448   4.779   0.534  0.0738 -0.0564  0.2255
 5002W        W 9066   0.768   2.225   2.873 -0.3453  0.1044  0.2082
 5003W        W 9067   6.001   0.562   9.371  0.3469  0.2326  0.1755
 5004W        W 9068   1.388   1.199   1.695 -0.1425 -0.1358  0.0019
 5005W        W 9069   5.072   0.926   3.161  0.0123 -0.0743  0.0853
 5006W        W 9070   8.955   1.792   0.800 -0.2236  0.3643  0.1084
 5007W        W 9071   8.411  10.562   1.203 -0.2230 -0.2310 -0.2635
 5008W        W 9072   9.187   2.673   9.177 -0.2582  0.3056 -0.0270
 5009W        W 9073   4.342   2.844   7.122  0.0791  0.3694  0.1322
 5010W        W 9074   4.793   4.540   9.922 -0.3145  0.0186  0.1484
 5011W        W 9075   8.253   2.558   9.333 -0.0366  0.0689  0.5015
 5012W        W 9076   1.167   5.473   9.445 -0.2420 -0.1259 -0.0850
 5013W        W 9077   6.930   1.526   8.902  0.1541  0.0026  0.3200
 5014W        W 9078   4.426   0.053   9.257 -0.2696  0.0820  0.0503
 5015W        W 9079   0.152   4.266   3.037 -0.1313 -0.1623 -0.1415
 5016W        W 9080   6.388   1.120   0.575 -0.2286 -0.4003 -0.2591
 5017W        W 9081   5.855   9.077   0.277  0.0721 -0.0749  0.1289
 5018W        W 9082   5.217   0.362   1.723  0.1361  0.0754 -0.1576
 5019W        W 9083   4.169   1.190   7.835 -0.0338 -0.2394 -0.0424
 5020W        W 9084   4.304  10.253   2.151  0.2316 -0.0801  0.2559
 5021W        W 9085   2.163  10.382   8.811  0.3041 -0.2632 -0.0337
 5022W        W 9086   2.653   2.103  10.828 -0.0656 -0.0706  0.0136
 5023W        W 9087   3.989   0.512   8.314  0.0353 -0.2960  0.0151
 5024W        W 9088   5.279   6.558   1.811 -0.2800 -0.5065 -0.3292
 5025W        W 9089   8.203   2.160   1.696 -0.0138  0.0053 -0.4843
 5026W        W 9090   4.390   2.112   2.707 -0.1038  0.2069  0.2687
 5027W        W 9091   8.099   9.151   2.447 -0.1091 -0.3416 -0.0564
 5028W        W 9092   9.509   8.101   3.802  0.0082 -0.1634  0.0438
 5029W        W 9093   3.938   5.384   4.332  0.0281  0.0259  0.1692
 5030W        W 9094   0.529   7.060   9.938  0.0234 -0.0976 -0.0313
 5031W        W 9095   6.708   3.353  10.606  0.1423 -0.0291  0.2038
 5032W        W 9096   8.156   1.506   1.439  0.0381 -0.3302  0.0759
 5033W        W 9097   8.874   3.266   3.705 -0.0026  0.3714 -0.0764
 5034W        W 9098   2.915   6.537   2.059  0.1980 -0.1797  0.1252
 5035W        W 9099   1.615   9.462   7.982  0.1532  0.0383 -0.4044
 5036W        W 9100   3.286   9.010  10.292 -0.0290 -0.0054  0.1330
 5037W        W 9101   4.605   8.820   1.967 -0.0825 -0.0211 -0.1815
 5038W        W 9102   6.625   7.724   0.965  0.1839 -0.0310  0.1442
 5039W        W 9103   4.543   5.551  10.203  0.1515  0.1678 -0.0061
 5040W        W 9104   5.555   5.102   1.749 -0.3685  0.0055 -0.1532
 5041W        W 9105   0.844   0.781   2.798 -0.2818 -0.2809 -0.0029
 5042W        W 9106   3.768   9.520   8.597  0.0884  0.5137  0.0495
 5043W        W 9107   1.175   2.023  10.693  0.0124 -0.1859  0.0693
 5044W        W 9108   4.688   8.746   9.838 -0.1110 -0.0462 -0.0314
 5045W        W 9109   4.497  10.101   3.065  0.0483  0.0384  0.0034
 5046W        W 9110   9.438   2.074   8.390  0.3317 -0.0784 -0.1825
 5047W        W 9111   3.034   2.620   3.082 -0.0556 -0.0673 -0.0937
 5048W        W 9112   5.394   0.565   3.461  0.0570 -0.0960  0.0847
 5049W        W 9113   6.202   6.725   0.687  0.0721  0.1872 -0.0533
 5050W        W 9114   3.461   6.233   3.239 -0.3665 -0.2206  0.1526
 5051W        W 9115   6.297   5.688   8.632 -0.0941 -0.0162  0.2142
 5052W        W 9116   1.042   0.311   9.858 -0.1155  0.0835 -0.1894
 5053W        W 9117   9.067   9.426   9.192  0.1033  0.2566 -0.3786
 5054W        W 9118   5.296   6.409   0.935 -0.2425 -0.1177 -0.0196
 5055W        W 9119   7.734   9.513   1.623  0.0292 -0.0792  0.2120
 5056W        W 9120   3.533   8.680   2.659 -0.0267 -0.1083  0.1306
 5057W        W 9121   9.511   3.405   1.025 -0.0132  0.0920  0.1726
 5058W        W 9122   4.476   9.557   0.324  0.1666 -0.1886  0.4181
 5059W        W 9123  10.426   0.801   0.382  0.0789 -0.1729  0.1596
 5060W        W 9124   1.607   5.811   8.093 -0.0488  0.0510  0.3857
 5061W        W 9125   0.185   9.571   0.161 -0.2835  0.2155  0.0199
 5062W        W 9126   2.765  10.067  10.174 -0.1094 -0.0779  0.2532
 5063W        W 9127   4.663   9.789   9.920  0.0680  0.0526  0.0678
 5064W        W 9128   5.636   0.258   3.894  0.2573 -0.1027  0.3061
 5065W        W 9129   8.673   0.303   1.284 -0.0164 -0.1041  0.3734
 5066W        W 9130  10.528   1.423   8.904  0.4628  0.1355 -0.2795
 5067W        W 9131   5.226   9.302   2.530  0.1203  0.2414 -0.0736
 5068W        W 9132   4.261   7.631   2.324 -0.1139  0.2486  0.1272
 5069W        W 9133   0.627   0.870  11.284 -0.1833  0.3913 -0.1908
 5070W        W 9134   9.596   5.793  10.146 -0.3693  0.2374 -0.0788
 5071W        W 9135   2.476   9.914   0.755 -0.0211  0.0238  0.1093
 5072W        W 9136   3.928   2.317   2.182  0.0800  0.0300  0.1129
 5073W        W 9137   0.185   8.956   9.044 -0.0757  0.2722  0.4030
 5074W        W 9138   2.256   2.260   9.637 -0.0029  0.2567  0.0558
 5075W        W 9139   3.573   6.979   9.639 -0.2204 -0.0095  0.0036
 5076W        W 9140   4.489   4.502  11.303  0.1198 -0.1374 -0.3584
 5077W        W 9141   5.099   0.653   0.887  0.0829  0.1404  0.2730
 5078W        W 9142   6.759   8.214   2.805 -0.2668  0.1990 -0.0166
 5079W        W 9143   7.890   2.364   8.275 -0.1529 -0.0126  0.2004
 5080W        W 9144   1.708   6.439   0.998 -0.1064 -0.0806 -0.1049
 5081W        W 9145   4.171   8.976   2.326  0.1284 -0.0077  0.1447
 5082W        W 9146   7.076   6.050   0.242 -0.1838  0.4313  0.0161
 5083W        W 9147   1.777   8.974  10.573  0.1844  0.2992  0.0748
 5084W        W 9148   0.790   8.076   2.712 -0.2894 -0.3595  0.1321
 5085W        W 9149   6.980   2.417   9.577 -0.0540  0.0887  0.1107
 5086W        W 9150   0.041   5.134   8.885  0.2019 -0.1979 -0.1275
 5087W        W 9151   7.269   3.533   0.563 -0.1024  0.0881  0.0571
 5088W        W 9152   8.715   1.175  11.154 -0.3400 -0.0812 -0.1872
 5089W        W 9153   5.587   3.473   8.521  0.0454  0.3766 -0.1326
 5090W        W 9154   7.549   4.129  10.016 -0.5056  0.1715  0.0899
 5091W        W 9155   7.240   8.153   7.941 -0.0655  0.1442  0.0216
 5092W        W 9156   7.611   8.986   1.275 -0.1479 -0.0023 -0.0702
 5093W        W 9157   1.954   2.544   8.457  0.0618  0.2554  0.1385
 5094W        W 9158   7.426   5.077   1.778  0.1290  0.1475  0.0714
 5095W        W 9159   7.203   1.672   7.986 -0.3972  0.0355  0.1306
 5096W        W 9160   7.207   2.128   0.365 -0.3253  0.2014  0.1142
 5097W        W 9161   1.131   7.021  10.801 -0.1633  0.1169 -0.2434
 5098W        W 9162   4.685   0.185   4.229  0.1936 -0.0219 -0.0867
 5099W        W 9163   9.793   3.013   3.426 -0.1283  0.1493  0.1112
 5100W        W 9164   0.335   0.501   9.345  0.1192  0.0725 -0.1927
 5101W        W 9165   2.937   2.498   0.634 -0.0089  0.1893  0.0201
 5102W        W 9166   2.858   9.330   2.456 -0.1918  0.0625  0.5167
 5103W        W 9167   5.400   2.355  10.458  0.2412  0.0688 -0.0793
 5104W        W 9168   1.363   2.505  11.365 -0.1136  0.2552  0.0269
 5105W        W 9169   8.512   2.487   0.301 -0.0782  0.2723 -0.0357
 5106W        W 9170   4.445   7.462   1.689  0.1594  0.2824  0.0925
 5107W        W 9171   5.151   6.909   2.148  0.0067  0.1659  0.2689
 5108W        W 9172   9.277   0.928   0.341  0.0534 -0.3307 -0.5978
 5109W        W 9173   1.508   5.318   1.315  0.3394 -0.0332 -0.2967
 5110W        W 9174   4.063   9.685   1.934 -0.0787 -0.0751  0.0054
 5111W        W 9175   4.093   9.832   1.148  0.1284  0.0571  0.4261
 5112W        W 9176   6.963   2.903   9.511  0.1237 -0.1534 -0.2831
 5113W        W 9177   1.508   7.171   9.307  0.2566 -0.2029 -0.2268
 5114W        W 9178   9.731   8.173   1.022  0.0730 -0.0926 -0.0266
 5115W        W 9179   2.452   0.060   1.907  0.3899  0.1419  0.0518
 5116W        W 9180   2.117   7.184   0.517  0.2026 -0.2699  0.0830
 5117W        W 9181   9.660   0.995   8.659  0.0060 -0.2478  0.0898
 5118W        W 9182   6.966   8.032   9.098 -0.2798  0.2981  0.2258
 5119W        W 9183   1.906   8.528   0.915  0.0721 -0.0640  0.0482
 5120W        W 9184   5.072   8.705   2.018 -0.0534  0.0128  0.1561
 5121W        W 9185   3.754   9.883   9.439  0.0570  0.0883 -0.0256
 5122W        W 9186   7.055   9.390   2.467 -0.1144 -0.0208  0.0423
 5123W        W 9187   0.313   8.655   0.214 -0.2374  0.1390  0.1893
 5124W        W 9188   8.374   3.392  10.485  0.1528 -0.1727 -0.2796
 5125W        W 9189   7.791   2.609  10.570 -0.2597  0.0649 -0.2567
 5126W        W 9190   1.653  10.068   9.520 -0.1198 -0.0021 -0.1039
 5127W        W 9191   2.371   7.637   3.514  0.0821  0.0665  0.1080
 5128W        W 9192   0.814   5.963   8.265  0.1347 -0.1393  0.0145
 5129W        W 9193   2.209   7.752  10.733 -0.3356  0.1774  0.3071
 5130W        W 9194   2.313   6.409   1.641 -0.0277  0.0234 -0.3544
 5131W        W 9195   6.061   4.268   8.997 -0.0231 -0.1988  0.4399
 5132W        W 9196   0.743   5.889   3.495  0.2376  0.0332 -0.3479
 5133W        W 9197   3.710   0.907   8.140  0.0674  0.1153  0.1917
 5134W        W 9198   0.835   8.429   8.146 -0.0516  0.1829 -0.0211
 5135W        W 9199   9.231   6.632   0.902  0.1212 -0.0025  0.2917
 5136W        W 9200   2.682   5.596   2.538  0.1872 -0.4736 -0.1492
 5137W        W 9201   4.785   2.812  10.658  0.0650  0.0575 -0.0279
 5138W        W 9202   5.856   3.805   9.185 -0.3802 -0.2194  0.2728
 5139W        W 9203   3.949   6.937   8.661  0.2038 -0.1986  0.0091
 5140W        W 9204   7.156   4.435   3.141  0.1019  0.1905  0.2234
 5141W        W 9205   9.108   1.051   3.219 -0.4278  0.2501 -0.0183
 5142W        W 9206   2.529  10.317   9.214  0.0876 -0.2714 -0.0910
 5143W        W 9207   6.496   6.902   1.940  0.1232 -0.0987  0.3207
 5144W        W 9208   0.661   9.101   2.687  0.1930 -0.0923 -0.0954
 5145W        W 9209   5.271   8.393  11.020 -0.1578 -0.0967 -0.2316
 5146W        W 9210   5.810  10.498   2.931  0.3766 -0.4053 -0.1915
 5147W        W 9211   0.071   4.288   9.364  0.0918  0.2924  0.2061
 5148W        W 9212   6.560   6.067   3.061  0.0340  0.0956  0.1126
 5149W        W 9213  10.432   3.838   3.159  0.0642 -0.1677 -0.2705
 5150W        W 9214   0.491   2.446  10.193  0.0448  0.1713 -0.0107
 5151W        W 9215   1.007   3.513   2.490  0.3640 -0.1540 -0.0692
 5152W        W 9216   1.868   6.206   1.468  0.0865 -0.1844 -0.1424
 5153W        W 9217   9.105   2.460   1.461  0.2020 -0.1145 -0.3603
 5154W        W 9218  10.505   8.471   9.489 -0.4801  0.2292  0.2798
 5155W        W 9219   9.142  10.321   2.907  0.1894  0.0629 -0.0041
 5156W        W 9220   5.772   2.052   8.841  0.4054 -0.1525  0.0664
 5157W        W 9221   5.717   0.713  10.617 -0.0599  0.0495 -0.5071
 5158W        W 9222   6.282   5.714  10.650 -0.1016  0.3284 -0.1662
 5159W        W 9223   3.786   8.309   0.261  0.2755 -0.1195 -0.0912
 5160W        W 9224   0.116   9.299   1.570 -0.1986  0.3383  0.0675
 5161W        W 9225   3.137   4.406  10.353 -0.2161  0.0084 -0.1017
 5162W        W 9226   8.787   9.700   9.635  0.1464  0.1406  0.1961
 5163W        W 9227   1.069   1.891   1.710 -0.2981  0.0064  0.1346
 5164W        W 9228   1.135   9.557   3.152 -0.2556  0.0198 -0.1688
 5165W        W 9229   6.635   7.440   2.116 -0.0982  0.0869  0.0076
 5166W        W 9230   5.307   5.104  10.088 -0.1254 -0.0112  0.0235
 5167W        W 9231   0.182   0.890  11.544  0.1814 -0.0652 -0.1658
 5168W        W 9232   3.830   3.185   9.875 -0.2193  0.0078  0.0372
 5169W        W 9233   6.105   7.960   1.871  0.1293 -0.0468  0.0574
 5170W        W 9234   9.534   4.726  10.550  0.0408 -0.1390  0.0949
 5171W        W 9235   2.871   2.518   1.128  0.4190  0.2031  0.3980
 5172W        W 9236   9.073   9.770   3.414  0.0220  0.1084  0.1071
 5173W        W 9237   3.211   3.865   2.495  0.5440  0.0040  0.2091
 5174W        W 9238   3.790   6.096   1.046  0.0976  0.1077 -0.0795
 5175W        W 9239   2.515   4.040   9.311  0.3585 -0.1336  0.0138
 5176W        W 9240   4.397   3.987   4.058  0.0674 -0.2993 -0.2580
 5177W        W 9241   7.796   4.399  10.403 -0.0341  0.3384  0.4986
 5178W        W 9242   1.963   6.009   9.749 -0.0409  0.2375  0.1596
 5179W        W 9243   3.262   8.761   3.105  0.2206 -0.1100  0.1382
 5180W        W 9244   2.779   2.938  10.385 -0.1806 -0.1542  0.1463
 5181W        W 9245   7.161   4.089  11.015 -0.1869 -0.3361 -0.3517
 5182W        W 9246   2.080   7.392   3.172 -0.1306 -0.2102  0.0930
 5183W        W 9247   4.280   7.350   0.443 -0.3610 -0.0699  0.0314
 5184W        W 9248   2.735   8.933   7.188  0.1674 -0.0251 -0.1808
 5185W        W 9249   6.743   7.750   7.753  0.0378 -0.0861  0.0123
 5186W        W 9250   1.064   3.183   9.608 -0.0240  0.1490 -0.1837
 5187W        W 9251   6.246   8.963  10.511  0.0120 -0.0855  0.1555
 5188W        W 9252   6.075   7.732   2.737  0.0732 -0.0816 -0.2434
 5189W        W 9253   1.518   3.459   2.652  0.1657  0.1438  0.0161
 5190W        W 9254   1.528   1.463   0.736  0.1647 -0.0154 -0.1804
 5191W        W 9255   6.615   5.852   0.068 -0.1649  0.0430  0.0347
 5192W        W 9256   0.308   8.293   1.499  0.1231  0.3937 -0.1555
 5193W        W 9257   0.465   5.937  11.194 -0.2068 -0.0476  0.1026
 5194W        W 9258   5.943  10.324   8.940 -0.4284 -0.2468 -0.3914
 5195W        W 9259   8.852   3.814   1.655 -0.0034 -0.2441  0.2917
 5196W        W 9260   7.576   0.084   7.328 -0.1189 -0.0181 -0.1676
 5197W        W 9261   4.173   9.009  10.130 -0.2208 -0.2881  0.0688
 5198W        W 9262   7.600   7.112  11.445 -0.0542 -0.1531 -0.6286
 5199W        W 9263   3.220   7.558   8.737 -0.2581 -0.0022  0.1191
 5200W        W 9264   5.690   7.491  11.248  0.1061 -0.3286 -0.1861
 5201W        W 9265   4.354   4.334   7.998 -0.1116  0.2492 -0.3898
 5202W        W 9266   9.590   2.243  11.140  0.1617  0.5173  0.1166
 5203W        W 9267   7.725   6.016   4.036 -0.0478 -0.1583  0.0254
 5204W        W 9268  10.597  10.505   7.330 -0.0313  0.1242 -0.3317
 5205W        W 9269   3.350   3.992   8.662 -0.1485  0.1390 -0.2619
 5206W        W 9270  10.125   6.970  11.345 -0.2728 -0.0604  0.1194
 5207W        W 9271   0.628   0.215   1.041 -0.1063 -0.5035  0.2144
 5208W        W 9272   0.703   8.624   2.844  0.2774 -0.0928 -0.0589
 5209W        W 9273   4.415   0.067   0.826  0.1381  0.0124  0.1673
 5210W        W 9274   9.803   2.884   9.991  0.1700  0.2658 -0.3399
 5211W        W 9275   4.271  10.167   7.507 -0.0513 -0.2172  0.0439
 5212W        W 9276   3.275   2.824   2.679  0.1131  0.2675  0.2304
 5213W        W 9277   2.811   8.417  10.330 -0.3925 -0.3222  0.1075
 5214W        W 9278   2.129   1.305   9.979 -0.4009  0.2258 -0.1881
 5215W        W 9279   2.263   1.114   1.096  0.0276 -0.2267  0.0667
 5216W        W 9280   7.201   0.728   0.374 -0.1279 -0.1495  0.1029
 5217W        W 9281   7.841   5.952   3.356  0.4206 -0.3062  0.2593
 5218W        W 9282   3.753   5.094  10.325  0.1254  0.0039  0.1809
 5219W        W 9283   3.078   9.537   8.138  0.0161  0.0391 -0.1003
 5220W        W 9284   3.291   4.174   4.130  0.2057 -0.1945 -0.0337
 5221W        W 9285   4.571   0.454   2.376 -0.0110  0.1299  0.0120
 5222W        W 9286   1.347   3.801   0.078 -0.0005  0.1904 -0.0466
 5223W        W 9287   3.692   2.723   7.792 -0.0225  0.1900 -0.0821
 5224W        W 9288   6.064   4.179   0.891  0.0072 -0.0016  0.0870
 5225W        W 9289   9.643   1.791   3.145  0.2696 -0.0412 -0.1182
 5226W        W 9290   2.280   8.259  10.118 -0.1971  0.0761 -0.3542
 5227W        W 9291   2.370   4.727   1.442 -0.0301  0.0018 -0.0625
 5228W        W 9292   5.872   2.489   3.828  0.1021  0.0071  0.1039
 5229W        W 9293   7.642   8.450   9.451  0.0862  0.0975 -0.1529
 5230W        W 9294   1.869   8.376   9.950 -0.0967 -0.0657 -0.0975
 5231W        W 9295   7.239  10.191   1.994  0.0984  0.0058  0.1932
 5232W        W 9296   9.961   2.157   1.903  0.1759  0.0494 -0.0536
 5233W        W 9297   9.181   6.329   0.454  0.0967  0.1386 -0.0417
 5234W        W 9298   4.717   8.393   1.583  0.0036 -0.0378  0.0349
 5235W        W 9299   1.433   2.333  10.003  0.0154  0.1018  0.0478
 5236W        W 9300   2.591   6.730  10.440  0.0952 -0.0101  0.3047
 5237W        W 9301   4.414   1.767   1.571  0.3589 -0.0978 -0.2275
 5238W        W 9302   3.763   4.898   1.458 -0.0404 -0.0940 -0.0872
 5239W        W 9303   2.832   9.027   8.357 -0.0848  0.0600  0.4408
 5240W        W 9304   4.792   0.903  10.405 -0.0407 -0.2204 -0.0412
 5241W        W 9305   6.794   2.391   3.540  0.2147 -0.4053  0.3748
 5242W        W 9306   4.293  10.578   9.738 -0.1489  0.0685  0.2884
 5243W        W 9307   1.538   7.924   0.233 -0.1437  0.1279 -0.3302
 5244W        W 9308   2.511   9.305  10.766  0.1025 -0.0410 -0.1459
 5245W        W 9309   8.961   7.224  10.650  0.1685 -0.3091 -0.3652
 5246W        W 9310   7.642   0.372   0.918 -0.0137 -0.0632  0.0675
 5247W        W 9311   1.239   9.573   0.204 -0.0087  0.3353 -0.0297
 5248W        W 9312   2.662   0.475  11.010 -0.4767  0.0841  0.0080
 5249W        W 9313   2.692   1.139   3.216  0.1655  0.2916 -0.0428
 5250W        W 9314   4.359   4.023   8.815  0.1499  0.2355 -0.0919
 5251W        W 9315   0.281   6.365   9.165  0.0967  0.1401 -0.2703
 5252W        W 9316   6.753   3.995   1.792 -0.1400 -0.2092 -0.0708
 5253W        W 9317   7.024   8.070   2.389  0.1783  0.2588 -0.2041
 5254W        W 9318   3.600   5.804   3.485 -0.1131  0.2097 -0.0102
 5255W        W 9319   5.412   8.478  11.481  0.2587  0.0766 -0.2373
 5256W        W 9320   5.746   8.969  10.632  0.1136 -0.0276  0.1444
 5257W        W 9321   0.210   5.727   1.061  0.2173 -0.2820  0.4548
 5258W        W 9322   7.616   3.049   1.927 -0.1175 -0.2348  0.1408
 5259W        W 9323   1.789   1.307   3.333 -0.0713  0.0983  0.1020
 5260W        W 9324   1.537   5.544   2.143 -0.2258  0.0342 -0.0222
 5261W        W 9325   2.113   6.296   2.616  0.2993 -0.1378 -0.1019
 5262W        W 9326   3.726   6.702   1.509 -0.1831  0.0699 -0.0250
 5263W        W 9327   9.541   2.489  10.166  0.0744 -0.0247  0.0580
 5264W        W 9328   5.425   9.589   1.886 -0.4160  0.0358  0.2338
 5265W        W 9329  10.580   9.801  10.201 -0.3340 -0.0573 -0.2581
 5266W        W 9330  10.599   0.490   9.668 -0.2163  0.1088  0.0392
 5267W        W 9331   6.371   8.638   7.497  0.0741 -0.0421 -0.2676
 5268W        W 9332   5.864   6.271  10.566 -0.3066 -0.0607  0.1960
 5269W        W 9333   3.810   7.021   3.279  0.2377 -0.1246 -0.1156
 5270W        W 9334   2.131  10.279   7.920  0.1101 -0.0361 -0.3262
 5271W        W 9335   2.564   6.220   2.878 -0.0070 -0.1793 -0.0364
 5272W        W 9336   9.948   3.997  11.097  0.1420 -0.0470 -0.0545
 5273W        W 9337   8.010   7.840   2.730  0.2175 -0.1573  0.1265
 5274W        W 9338   2.585   0.117  10.651  0.1752  0.0700  0.0185
 5275W        W 9339   3.317   4.246   0.246  0.2342  0.1766 -0.1791
 5276W        W 9340   9.687   4.075   9.953 -0.2054 -0.1213 -0.0962
 5277W        W 9341   3.728   9.268   8.123 -0.1130 -0.5099  0.4187
 5278W        W 9342   8.420   8.875   2.156 -0.4885 -0.0484  0.0016
 5279W        W 9343   9.452   0.715  11.136  0.0342  0.0657 -0.0915
 5280W        W 9344   4.618   8.106   0.895 -0.0790  0.1217  0.0532
 5281W        W 9345   8.581   6.401   0.251 -0.3469 -0.3073 -0.3384
 5282W        W 9346   6.545   7.862   8.643  0.0826 -0.0383 -0.1073
 5283W        W 9347   1.638   5.411  11.409 -0.0796 -0.1789 -0.0397
 5284W        W 9348   5.207   2.692   0.514 -0.2034  0.0573 -0.1960
 5285W        W 9349   8.209   3.859   9.671 -0.0253 -0.2939 -0.1224
 5286W        W 9350   5.498   0.116   2.578 -0.4140  0.1277 -0.0181
 5287W        W 9351   3.201   8.176   3.963 -0.0709  0.1077  0.0397
 5288W        W 9352  10.313   9.180   7.927  0.3358 -0.2381  0.2631
 5289W        W 9353   1.312   0.905   0.095  0.0793 -0.2989  0.1144
 5290W        W 9354   7.132   3.529  10.415  0.5314  0.1806  0.1448
 5291W        W 9355   6.168   5.686   0.886  0.0771  0.3695  0.1628
 5292W        W 9356   5.903   5.502   0.455  0.0615  0.1020 -0.1106
 5293W        W 9357   4.918   8.321   8.990  0.2602  0.3597 -0.1937
 5294W        W 9358   0.684   4.641  10.417 -0.0313  0.0207  0.1090
 5295W        W 9359  10.164   9.038  10.223  0.2141  0.0807 -0.1257
 5296W        W 9360   9.385   5.104   2.737 -0.2163  0.2562 -0.2071
 5297W        W 9361   9.911   9.395   2.661  0.1564 -0.3299 -0.0116
 5298W        W 9362   5.035   7.121  10.956  0.0196  0.0488 -0.2168
 5299W        W 9363   9.910   8.427   2.987 -0.2092  0.1800  0.1526
 5300W        W 9364   1.250   1.934  10.183 -0.3358  0.1092  0.3372
 5301W        W 9365   3.691   9.363  11.270 -0.2151 -0.1136  0.0077
 5302W        W 9366   4.607   8.044   2.462  0.3519  0.2511  0.0602
 5303W        W 9367   8.994   5.058  10.051  0.0972  0.0479 -0.2077
 5304W        W 9368   1.166   1.402   7.526  0.0385 -0.0273 -0.0772
 5305W        W 9369   5.079   2.418   1.459 -0.0840  0.0999 -0.2957
 5306W        W 9370   3.992   7.414   1.944 -0.0810  0.0857  0.2830
 5307W        W 9371   5.254   0.871   7.508  0.0587  0.1440 -0.2562
 5308W        W 9372   4.071   0.977   7.392 -0.1724 -0.1457 -0.5961
 5309W        W 9373  10.376   9.696   9.706 -0.0092 -0.3549  0.1436
 5310W        W 9374   2.359   5.917   2.244 -0.1748 -0.0471 -0.0653
 5311W        W 9375   1.735   7.694   1.965  0.1035 -0.1376 -0.1682
 5312W        W 9376   6.506   5.867   9.445  0.1011 -0.0637 -0.3286
 5313W        W 9377  10.601   3.209   2.427  0.1931  0.2104  0.0216
 5314W        W 9378   0.602   3.724   2.034 -0.1164  0.2310  0.1267
 5315W        W 9379   1.083   9.031   9.869  0.3878 -0.1503 -0.0156
 5316W        W 9380   5.987   8.117   9.304  0.1213  0.2302  0.2027
 5317W        W 9381   8.588   1.199   1.384  0.1230 -0.1312  0.1019
 5318W        W 9382   3.495   2.146   2.637 -0.1354  0.1489 -0.1585
 5319W        W 9383   0.430   3.689   9.067 -0.1010  0.0302 -0.2932
 5320W        W 9384   8.206   2.758  10.307 -0.2381 -0.0957  0.0040
 5321W        W 9385   9.782   4.524   7.834  0.1851 -0.2517 -0.0307
 5322W        W 9386   6.780   4.825  11.481  0.2278  0.2632  0.2375
 5323W        W 9387   2.871   9.341  11.100  0.2020  0.0514  0.0322
 5324W        W 9388   5.818   6.539   8.188  0.1299 -0.1452 -0.2343
 5325W        W 9389   7.761   1.925   8.924 -0.2187  0.2402 -0.1320
 5326W        W 9390   3.865   6.056   3.019  0.0916  0.0694  0.0338
 5327W        W 9391   2.476   6.347   9.681  0.3531  0.0802 -0.2034
 5328W        W 9392   9.089   2.291   0.871 -0.0821 -0.0581 -0.0944
 5329W        W 9393   5.755   8.284   0.364 -0.1522 -0.1313 -0.2102
 5330W        W 9394   8.886   1.613  10.760 -0.1585  0.3691 -0.0167
 5331W        W 9395   2.047   1.033   2.159 -0.2470 -0.2110 -0.2427
 5332W        W 9396   2.839   2.384  11.216  0.1670 -0.4062  0.1602
 5333W        W 9397   2.083   1.598   9.520 -0.1521  0.0995 -0.2122
 5334W        W 9398   1.124   4.133   1.505  0.0078  0.1744 -0.0227
 5335W        W 9399   4.760   5.547   8.783  0.0900 -0.0993 -0.0899
 5336W        W 9400   9.557  10.539   3.149 -0.0578 -0.0165 -0.0214
 5337W        W 9401   3.681   0.991   0.036  0.1091  0.2167  0.1580
 5338W        W 9402   5.536   1.156   9.709  0.0720 -0.0786 -0.2302
 5339W        W 9403   2.539   7.257   9.401 -0.1022  0.2243 -0.0098
 5340W        W 9404   3.829   0.490   1.732  0.0704 -0.1235  0.3528
 5341W        W 9405   0.915   8.091   9.466 -0.1256 -0.1369 -0.0884
 5342W        W 9406   5.845   5.392   8.561 -0.2380 -0.2133 -0.0670
 5343W        W 9407   5.655   6.106   0.744 -0.1962  0.0796 -0.0776
 5344W        W 9408  10.574   5.129   1.882 -0.0720  0.0770  0.3107
 5345W        W 9409   3.349   4.693   4.026  0.3318  0.0091 -0.1300
 5346W        W 9410   7.660   0.812   9.554  0.0054 -0.1502 -0.0518
 5347W        W 9411   2.299   1.961   1.553 -0.1112  0.2138 -0.0027
 5348W        W 9412   2.447   7.229   8.110 -0.2185  0.1323 -0.1603
 5349W        W 9413   3.555   6.215   9.511  0.0331  0.2808  0.0893
 5350W        W 9414   0.763   9.607  10.239 -0.2909 -0.0378  0.1614
 5351W        W 9415   8.415   4.617   1.164  0.0576  0.0808  0.0075
 5352W        W 9416   5.090   2.023  11.105  0.1725 -0.3794  0.0723
 5353W        W 9417   0.392   9.271   3.048 -0.0645  0.1156 -0.1507
 5354W        W 9418   7.626   3.694  10.328 -0.0871  0.2033  0.1180
 5355W        W 9419   3.083   0.298  10.483 -0.0501 -0.1223 -0.1452
 5356W        W 9420   5.921   1.440   9.986  0.1703  0.1173  0.0809
 5357W        W 9421   3.291   0.502   7.987  0.0190  0.2192  0.1529
 5358W        W 9422   5.922   5.993   0.318  0.0045  0.3272  0.1018
 5359W        W 9423   0.895   1.818   7.580 -0.0026 -0.0872 -0.0514
 5360W        W 9424   1.440   6.595   2.159 -0.1136 -0.2030  0.1722
 5361W        W 9425   7.114   5.383   2.586 -0.0896 -0.3602 -0.2688
 5362W        W 9426   5.144   5.586  10.804  0.1407  0.0225 -0.0635
 5363W        W 9427   2.180   4.547   3.394 -0.0166 -0.1570  0.1474
 5364W        W 9428   6.551   9.449  10.149 -0.2840  0.3495  0.2934
 5365W        W 9429   0.988   7.508   7.837  0.1090 -0.1176  0.0869
 5366W        W 9430   5.311   7.078   1.683  0.3190  0.3841 -0.2410
 5367W        W 9431   3.857   8.867   1.107  0.0036 -0.0746 -0.0712
 5368W        W 9432   8.286   0.973  10.288  0.2131 -0.2220  0.1695
 5369W        W 9433   6.638   7.955   2.052  0.2574  0.0435  0.1221
 5370W        W 9434   9.656   0.231   9.104 -0.1730 -0.3724  0.1379
 5371W        W 9435   7.048   9.010   2.167  0.2165  0.0648 -0.1612
 5372W        W 9436   5.064   3.135   7.727 -0.0524  0.1588 -0.1288
 5373W        W 9437   0.631  10.638   2.995  0.0990  0.1537  0.0173
 5374W        W 9438   5.162   2.681   3.052  0.2831 -0.0285  0.0660
 5375W        W 9439   7.297   9.016   0.643 -0.0178 -0.1062  0.0323
 5376W        W 9440   9.414   0.838   4.078  0.1039  0.2258 -0.2319
 5377W        W 9441   8.151   9.533   8.833  0.2085 -0.2226 -0.2145
 5378W        W 9442   3.710   6.130   8.071  0.1336  0.1780 -0.3180
 5379W        W 9443   5.479   2.275  10.932  0.1736 -0.1889 -0.2193
 5380W        W 9444   3.907   1.323   9.701  0.1231  0.0255 -0.1455
 5381W        W 9445   8.632   1.942   8.584  0.2392 -0.1650 -0.0477
 5382W        W 9446   6.023   7.212   9.495 -0.3080 -0.0906  0.1501
 5383W        W 9447   9.743   6.463  10.488 -0.0424 -0.0650 -0.1014
 5384W        W 9448   5.153   4.996   1.395  0.0547 -0.0859  0.0098
 5385W        W 9449   7.806   0.269   8.239 -0.0586  0.1196 -0.1102
 5386W        W 9450   5.029   9.517   0.564  0.3783 -0.3481  0.0926
 5387W        W 9451   3.248   1.834   3.555 -0.3300 -0.2087 -0.2402
 5388W        W 9452   8.747   4.983   1.933  0.0854 -0.0374 -0.4358
 5389W        W 9453   5.251   0.227  11.067 -0.1708  0.2109 -0.3096
 5390W        W 9454   4.708   2.762   0.184  0.0451  0.2568  0.1211
 5391W        W 9455   8.557  10.343   0.354 -0.0248  0.0286  0.0596
 5392W        W 9456   3.791  10.422   9.797  0.1278  0.4069  0.0829
 5393W        W 9457   7.894  10.043   8.139 -0.0140  0.1652  0.1014
 5394W        W 9458   2.565  10.337   4.265  0.0668 -0.3686 -0.1264
 5395W        W 9459   8.575   0.384  10.711 -0.1849 -0.1325 -0.0751
 5396W        W 9460   9.992  10.477   1.548 -0.2663  0.1027 -0.3461
 5397W        W 9461   6.038   5.569   1.366 -0.2199 -0.2630 -0.0097
 5398W        W 9462   5.553   3.353   1.909  0.0711 -0.1015  0.1384
 5399W        W 9463   1.066   5.735   1.863  0.0771  0.1757 -0.0977
 5400W        W 9464   6.198   3.964   0.364  0.2511 -0.1494 -0.1123
 5401W        W 9465   9.980   6.006   9.219  0.1097 -0.1874 -0.0328
 5402W        W 9466  10.568  10.631   9.794  0.0293 -0.0739  0.1396
 5403W        W 9467   0.267   4.284   0.644 -0.3349  0.2120  0.0613
 5404W        W 9468   1.006   2.907  11.404  0.1143 -0.1249 -0.1621
 5405W        W 9469   1.447   8.874   1.453  0.0118  0.0102 -0.1232
 5406W        W 9470  10.370   3.352   9.438  0.1473 -0.1555 -0.1861
 5407W        W 9471   6.858   6.877  10.710  0.0914 -0.1049  0.0846
 5408W        W 9472   6.582   3.569   1.672  0.0641 -0.2539  0.0298
 5409W        W 9473   3.690   5.001   9.812  0.2186  0.4106 -0.2826
 5410W        W 9474   8.764   7.684   0.305 -0.0864 -0.1212  0.1682
 5411W        W 9475   8.984   8.757  11.320 -0.0950 -0.1162 -0.0174
 5412W        W 9476   0.637   4.935   8.646 -0.1929  0.0941 -0.0060
 5413W        W 9477   3.427   4.119  10.706  0.3308 -0.3286  0.0115
 5414W        W 9478   6.565   3.217   8.682  0.1449 -0.2580 -0.0980
 5415W        W 9479   9.166   2.044   9.298  0.0676 -0.1607  0.1387
 5416W        W 9480   3.785   3.635   0.792  0.2859 -0.1344 -0.1041
 5417W        W 9481   1.425   4.670   8.357 -0.2029 -0.0515 -0.2858
 5418W        W 9482   4.283  10.548   7.902 -0.0581 -0.0008 -0.2109
 5419W        W 9483   8.071   2.996   2.798 -0.3565 -0.1697  0.1420
 5420W        W 9484   1.382   7.133  10.316  0.0530  0.0712  0.0372
 5421W        W 9485   4.022   5.034   3.073 -0.2605 -0.2630  0.1021
 5422W        W 9486   0.424   7.944   0.503 -0.0161  0.0058  0.0250
 5423W        W 9487   9.200   2.812   0.133 -0.2245 -0.4005 -0.3202
 5424W        W 9488   9.371   0.567   1.571  0.1714  0.2401 -0.3624
 5425W        W 9489   2.940   1.771  11.143  0.2432  0.5106  0.1141
 5426W        W 9490   6.195   9.468   1.334  0.2379 -0.1320 -0.4101
 5427W        W 9491   0.563   2.654   2.639 -0.1619  0.0881  0.2244
 5428W        W 9492   8.973  10.250  11.581 -0.0365 -0.1627 -0.1100
 5429W        W 9493   3.541   3.335  10.321 -0.2089  0.0198 -0.0711
 5430W        W 9494   8.522  10.021   0.016  0.0391  0.1903  0.1637
 5431W        W 9495   0.267  10.558   1.336  0.3103 -0.1576 -0.4742
 5432W        W 9496   8.994   5.893   3.016  0.0160 -0.3357  0.3258
 5433W        W 9497   3.036   3.782   0.207  0.1810 -0.2476 -0.0731
 5434W        W 9498   8.524   1.357   9.285 -0.2740  0.0551  0.1092
 5435W        W 9499   5.099  10.473   0.303  0.1346  0.0322 -0.0140
 5436W        W 9500   1.553   2.434  10.695  0.1191 -0.0404 -0.2401
 5437W        W 9501   9.394   3.531   9.023  0.1579  0.1636 -0.0197
 5438W        W 9502   0.752  10.190  10.329  0.0851 -0.0643  0.0710
 5439W        W 9503   3.088   6.429  11.069  0.0622  0.3118  0.0435
 5440W        W 9504   6.568   6.095   0.479  0.1607 -0.1759 -0.4871
 5441W        W 9505   7.100   9.890   0.223  0.1530 -0.1677 -0.0035
 5442W        W 9506   5.224   1.141  11.181 -0.1687 -0.1539 -0.1203
 5443W        W 9507   8.855   6.095   9.370 -0.0618  0.2305  0.1386
 5444W        W 9508   8.457   0.484   0.391 -0.0022  0.0773 -0.2542
 5445W        W 9509   0.156  10.286   2.865  0.2349  0.1501  0.0880
 5446W        W 9510   9.563   2.039   2.280 -0.0646 -0.2159 -0.0409
 5447W        W 9511   0.393   3.051   2.261  0.0153  0.1278  0.2954
 5448W        W 9512   5.563   2.958   8.413  0.2769  0.0741  0.3419
 5449W        W 9513   0.997   3.568  10.877 -0.0994 -0.1488 -0.2516
 5450W        W 9514   2.734   7.294   8.610  0.0040  0.1222 -0.0927
 5451W        W 9515   2.836   4.170   0.435  0.3955 -0.0136 -0.1378
 5452W        W 9516   5.518   0.909   1.216  0.0896 -0.0727 -0.2437
 5453W        W 9517   8.725  10.184   1.417 -0.1190 -0.3312  0.2302
 5454W        W 9518   0.350   6.822   0.771 -0.1299 -0.0610 -0.0185
 5455W        W 9519   5.545   7.621  10.359 -0.0648  0.3296 -0.1016
 5456W        W 9520   4.287   0.956  10.991 -0.0187 -0.2468 -0.1476
 5457W        W 9521   1.054   2.650   8.538 -0.0009  0.2567 -0.2447
 5458W        W 9522   6.443   2.474  11.516  0.2577  0.2389  0.3222
 5459W        W 9523   6.207   4.698   3.003  0.1626 -0.2788 -0.0945
 5460W        W 9524   5.353   5.368   9.677  0.0499  0.2870  0.0223
 5461W        W 9525   7.358   1.946   7.578 -0.0365  0.0114 -0.0544
 5462W        W 9526   4.838  10.034   3.419  0.0250  0.2066  0.0502
 5463W        W 9527   1.963   9.940  10.589 -0.0492  0.0077 -0.1336
 5464W        W 9528   2.157   2.489   3.865  0.2729  0.2047 -0.2171
 5465W        W 9529   1.289   0.983  10.977 -0.1074 -0.0454 -0.0733
 5466W        W 9530   2.278   6.809  10.024  0.1208  0.2089 -0.0718
 5467W        W 9531   3.645   3.209   0.465  0.0481  0.0778 -0.1194
 5468W        W 9532   6.960   7.687   1.783  0.0922  0.0725 -0.1691
 5469W        W 9533   1.525   9.104   2.632  0.0458 -0.3928 -0.0965
 5470W        W 9534   7.566   4.820   9.004  0.1152 -0.2530 -0.1569
 5471W        W 9535   8.888   1.964   2.277 -0.0497  0.1745 -0.5194
 5472W        W 9536   5.078   5.358   0.975  0.0591 -0.2072 -0.0601
 5473W        W 9537   9.354   9.137   8.307  0.1002 -0.0182  0.3394
 5474W        W 9538   1.489   9.337  10.856 -0.0968 -0.2865  0.1787
 5475W        W 9539   8.508   0.107   0.698 -0.0882 -0.3148  0.0004
 5476W        W 9540   6.071   4.281  11.171  0.2182  0.1234  0.0180
 5477W        W 9541   2.924  10.134   3.915  0.0087  0.2308 -0.1308
 5478W        W 9542   1.808   6.007   2.963  0.0862  0.1270  0.2428
 5479W        W 9543   0.961   5.717   8.706 -0.0912 -0.0448 -0.0969
 5480W        W 9544   7.497   6.575   0.777  0.2529  0.2256 -0.0828
 5481W        W 9545   1.855   8.503  10.998  0.0443  0.0094  0.2614
 5482W        W 9546   7.991   5.547   9.809  0.3214  0.3097  0.1475
 5483W        W 9547   7.655   0.796   0.576  0.0101  0.1139 -0.1405
 5484W        W 9548   2.419   2.480   1.322 -0.1550  0.1571 -0.2771
 5485W        W 9549   3.202   3.821   2.026  0.3094  0.2488 -0.0032
 5486W        W 9550   6.682   5.546   1.138  0.0372  0.4411  0.0489
 5487W        W 9551   2.599   5.479   2.034 -0.1779 -0.0735  0.2325
 5488W        W 9552   4.400   8.006   3.891 -0.4629  0.2837 -0.0258
 5489W        W 9553   6.642   2.071  11.244  0.0303 -0.2024  0.3169
 5490W        W 9554   8.254   6.689  11.558  0.1525 -0.0225  0.4688
 5491W        W 9555   8.296   5.391   0.161 -0.2655 -0.1500  0.0975
 5492W        W 9556   9.073   8.044   2.394 -0.0866  0.0545 -0.1575
 5493W        W 9557   7.207   9.024   8.893 -0.2750  0.4490 -0.0032
 5494W        W 9558   3.845   3.665   9.992 -0.2839  0.0847 -0.0210
 5495W        W 9559   5.426   2.804   1.827 -0.0046 -0.3446  0.0973
 5496W        W 9560   3.138   2.326   9.104 -0.1025 -0.0071 -0.2922
 5497W        W 9561   9.628   8.776   2.658 -0.1775  0.0091 -0.2416
 5498W        W 9562   4.215   8.116   7.854  0.2302  0.0258  0.0994
 5499W        W 9563   8.658   4.280   8.591  0.0429 -0.1058 -0.2998
 5500W        W 9564   0.550  10.538   2.476 -0.3149  0.0200  0.0406
 5501W        W 9565   4.199   5.211   1.107  0.1707  0.0433 -0.1214
 5502W        W 9566   3.604   7.331   0.344 -0.1728  0.2861 -0.4622
 5503W        W 9567   2.168   8.229  10.572  0.1031  0.0274  0.0656
 5504W        W 9568   4.474   7.857  10.242 -0.4904 -0.2608 -0.1431
 5505W        W 9569   6.374   9.011  10.015 -0.0843 -0.0633 -0.2980
 5506W        W 9570   7.209   6.370   9.863  0.3455  0.3332 -0.1844
 5507W        W 9571   3.517   2.574  10.478  0.1345  0.1290  0.1585
 5508W        W 9572   8.260   9.655   8.183  0.0438 -0.0054  0.0623
 5509W        W 9573   9.315   4.609  10.030 -0.0755 -0.2167  0.1643
 5510W        W 9574   7.872   8.060   3.366 -0.2360 -0.0245 -0.2051
 5511W        W 9575   0.459   1.432   9.886 -0.0861  0.2451 -0.0765
 5512W        W 9576  10.031   5.827  10.476 -0.1330 -0.1203 -0.1798
 5513W        W 9577   1.702   0.079  10.543  0.1459  0.2863  0.1152
 5514W        W 9578   9.368  10.581   7.671 -0.0514  0.0954 -0.0046
 5515W        W 9579  10.098   9.572  10.077  0.2255 -0.1549 -0.2061
 5516W        W 9580   0.085   1.358   0.314 -0.2371 -0.3896 -0.0315
 5517W        W 9581   0.528   9.980   0.230 -0.0432 -0.0285  0.2524
 5518W        W 9582   6.768   9.093   3.193 -0.1325 -0.0092 -0.0824
 5519W        W 9583   5.586   3.711   8.023  0.0233  0.3758  0.0359
 5520W        W 9584   4.601  10.596   2.467  0.2907  0.0359 -0.1735
 5521W        W 9585   4.043   5.776  10.314  0.2927 -0.1376  0.0633
 5522W        W 9586   3.633   6.953  11.257  0.0836  0.0220  0.0220
 5523W        W 9587   1.761   9.447   0.003  0.0202 -0.2911  0.3434
 5524W        W 9588   5.056   3.877   0.760  0.2932 -0.1477 -0.2131
 5525W        W 9589   0.270   3.851  10.630 -0.0780  0.1404 -0.1523
 5526W        W 9590   5.151   6.693   8.721 -0.0127  0.4188 -0.0497
 5527W        W 9591   0.301   7.421  10.199  0.1262 -0.0839 -0.2437
 5528W        W 9592   4.809   0.307   0.599  0.0100  0.2829  0.0821
 5529W        W 9593   6.392  10.432  11.399 -0.3912  0.1735  0.1919
 5530W        W 9594   2.196   8.687   9.487 -0.1075  0.1059 -0.1261
 5531W        W 9595   1.392   0.053   1.178  0.0493  0.0050  0.0064
 5532W        W 9596   4.446   7.244   2.658 -0.1441  0.3584 -0.1716
 5533W        W 9597   3.248   1.841   9.381  0.1724 -0.0454  0.2140
 5534W        W 9598   6.519   9.947  11.179 -0.0923 -0.0380  0.1401
 5535W        W 9599   8.403   6.336   0.697  0.2028 -0.2118  0.3901
 5536W        W 9600   0.969   0.029  11.265 -0.0311  0.2852 -0.1633
 5537W        W 9601   6.904  10.492   8.148  0.3689 -0.0076  0.2033
 5538W        W 9602   7.674   1.535   2.551  0.0349  0.3180  0.3137
 5539W        W 9603   0.642  10.032   1.234 -0.2314  0.1377 -0.0711
 5540W        W 9604   7.338   7.828   9.912  0.0030  0.0773 -0.0793
 5541W        W 9605   8.598   1.896   7.848 -0.0907 -0.2946  0.1812
 5542W        W 9606   6.235   9.574  11.343  0.0461 -0.2401 -0.3828
 5543W        W 9607   4.040   8.152   9.178  0.1197  0.1687 -0.1787
 5544W        W 9608   2.902   4.376   2.845 -0.1394  0.2680  0.0333
 5545W        W 9609   8.662   0.318   8.385  0.4331 -0.1552  0.2458
 5546W        W 9610   3.410   7.084   0.768 -0.1290 -0.1236 -0.1106
 5547W        W 9611   3.482   8.302   2.983  0.4178 -0.1044  0.1406
 5548W        W 9612   7.019   4.615  11.081  0.1265 -0.0559  0.2635
 5549W        W 9613   8.936   8.148   9.416  0.1159  0.0196 -0.0932
 5550W        W 9614   5.024   7.363   1.923 -0.2520 -0.0613 -0.2634
 5551W        W 9615   0.500   7.391   1.393  0.0041  0.0802 -0.0156
 5552W        W 9616   1.828   9.215   7.524 -0.0635 -0.2317 -0.4518
 5553W        W 9617   2.406   1.743  11.228 -0.0028  0.2392 -0.0027
 5554W        W 9618   1.066   2.406   1.939 -0.1291 -0.0581  0.1575
 5555W        W 9619   2.284   4.124   2.170  0.1621  0.1828 -0.1651
 5556W        W 9620   9.290   8.774  10.338 -0.0413 -0.1968 -0.1187
 5557W        W 9621   9.598   2.305   0.567  0.0631 -0.3354 -0.0660
 5558W        W 9622   0.615   5.988   0.861 -0.3211 -0.2122 -0.0115
 5559W        W 9623   2.345   0.089   7.950  0.2179 -0.0402  0.1376
 5560W        W 9624   1.131   7.203   3.042 -0.0062 -0.0164 -0.1137
 5561W        W 9625   1.244   5.941   9.563 -0.1035 -0.3269 -0.1453
 5562W        W 9626   1.003   6.931  10.004 -0.0727  0.1746 -0.2300
 5563W        W 9627   3.706   5.937  11.506 -0.0592  0.1733 -0.3007
 5564W        W 9628   0.627   6.142   9.537 -0.3105  0.2941 -0.3768
 5565W        W 9629   7.002   2.497  11.565  0.0742 -0.2341  0.2062
 5566W        W 9630  10.255   3.039   0.673  0.1030  0.1697 -0.0744
 5567W        W 9631   2.468   5.199   3.744  0.1183 -0.3915 -0.2485
 5568W        W 9632   9.525   3.020   7.504  0.2115 -0.0929 -0.0151
 5569W        W 9633   4.349  10.392   3.508  0.1640 -0.1286 -0.2467
 5570W        W 9634   9.737   8.952  10.505  0.1235  0.1050  0.0046
 5571W        W 9635  10.431   1.778   8.240  0.0265 -0.1133  0.3009
 5572W        W 9636   0.812   2.820   9.335  0.0642  0.2929  0.1619
 5573W        W 9637   5.952   2.302   1.414  0.0628 -0.1818 -0.1575
 5574W        W 9638   3.537   1.167   0.797  0.2171 -0.1168 -0.0160
 5575W        W 9639   2.041   2.467   2.161  0.0394  0.0743  0.2070
 5576W        W 9640   7.181  10.465   0.074  0.1766  0.1750 -0.0216
 5577W        W 9641   0.575   8.967   0.693 -0.0501 -0.1129 -0.1370
 5578W        W 9642   5.889   3.253   8.852  0.0687  0.0247 -0.2279
 5579W        W 9643   6.573   2.267   9.927  0.2220 -0.1669 -0.2443
 5580W        W 9644   2.892   6.273   0.187  0.0257 -0.1185 -0.1772
 5581W        W 9645   0.719   7.422   8.417  0.1077 -0.0268 -0.2047
 5582W        W 9646   5.986   1.454   1.858  0.0422  0.0835  0.0022
 5583W        W 9647   3.623   3.697   4.137 -0.1919  0.0739  0.0982
 5584W        W 9648   9.215   5.130  10.546  0.0727 -0.0671 -0.0212
 5585W        W 9649   5.516   5.814   9.477 -0.0038 -0.2321 -0.1826
 5586W        W 9650   1.989   1.950   3.899  0.1813  0.1638 -0.1490
 5587W        W 9651   0.224   9.735   1.929 -0.0594 -0.2078 -0.3280
 5588W        W 9652  10.162   3.814   1.688  0.2031  0.0251 -0.1748
 5589W        W 9653   8.899   0.006   0.944 -0.0052  0.0440 -0.0713
 5590W        W 9654   6.467   4.053   3.077  0.2136  0.0463  0.2265
 5591W        W 9655   7.341   9.465   1.315 -0.3811 -0.1280 -0.0274
 5592W        W 9656  10.618   1.494  10.130 -0.1729 -0.0731  0.0179
 5593W        W 9657   0.420   6.797   2.232  0.1121  0.1478  0.0084
 5594W        W 9658   8.643   5.801  10.571  0.0422  0.0051 -0.0093
 5595W        W 9659   0.479   6.804   0.260 -0.2568  0.0172  0.1549
 5596W        W 9660   4.578   0.968   3.067 -0.0381  0.0569  0.3055
 5597W        W 9661   1.093   0.565   2.398  0.0795  0.0672 -0.0345
 5598W        W 9662   0.217   0.511   3.650  0.0961 -0.3856  0.0555
 5599W        W 9663   7.110   8.694   9.681  0.0637 -0.2498  0.1414
 5600W        W 9664   9.788   4.386  11.371  0.2408 -0.0892 -0.0124
 5601W        W 9665   1.241   5.696   0.115  0.3119  0.0076  0.0454
 5602W        W 9666   3.138   1.685  11.574  0.3142  0.0802 -0.0886
 5603W        W 9667   4.685   0.107   1.955  0.1205  0.1190 -0.2972
 5604W        W 9668   0.076   8.240   9.875 -0.1168  0.1788 -0.3105
 5605W        W 9669   1.304   2.751   1.361 -0.2618 -0.1188 -0.1778
 5606W        W 9670   3.994   2.001   8.240 -0.0228 -0.2120  0.0954
 5607W        W 9671   4.118   6.324   1.974 -0.1466  0.0691 -0.1004
 5608W        W 9672   1.902   0.980   0.759 -0.0567  0.2860 -0.0869
 5609W        W 9673   3.491   0.319  10.736 -0.2553  0.0547 -0.0113
 5610W        W 9674   8.201   3.500   2.917  0.0667  0.0012  0.1326
 5611W        W 9675   2.434   2.798   4.179 -0.4744 -0.2277 -0.2816
 5612W        W 9676  10.599   1.212   2.463  0.2820  0.0350 -0.1434
 5613W        W 9677   0.489   1.905   2.541  0.0742  0.3611  0.1029
 5614W        W 9678   3.140   6.368   3.620 -0.4615  0.0244 -0.1814
 5615W        W 9679   6.410   8.602   2.617  0.0495 -0.0143  0.4208
 5616W        W 9680   9.189   7.227   2.722 -0.0900  0.0042  0.0442
 5617W        W 9681   1.001   5.461   3.281 -0.0816 -0.2132  0.1563
 5618W        W 9682   4.234   2.935   1.563  0.0196 -0.0951  0.1907
 5619W        W 9683   4.320   9.438   1.493 -0.2100 -0.1493  0.0803
 5620W        W 9684   0.582  10.032   2.656  0.1721  0.2281 -0.0306
 5621W        W 9685   4.419   8.010   1.813  0.0950 -0.0314  0.0905
 5622W        W 9686   5.628   1.061   8.791  0.3928  0.0029  0.1719
 5623W        W 9687   7.203   0.292   9.589 -0.0649  0.0358  0.4769
 5624W        W 9688   0.819   1.206  10.918 -0.0663  0.0311  0.1053
 5625W        W 9689   3.486  10.501  10.634  0.1726  0.0364  0.0169
 5626W        W 9690   1.435  10.274  10.663  0.0259  0.1381  0.5129
 5627W        W 9691   5.961  10.043  10.525  0.1240  0.1058  0.2252
 5628W        W 9692   5.156  10.430  10.895  0.1975  0.0825 -0.2733
 5629W        W 9693   3.826   7.531  10.607 -0.2018  0.3531 -0.1451
 5630W        W 9694   2.786   3.742   9.608  0.0707  0.0029 -0.0017
 5631W        W 9695   2.409   1.946   3.151 -0.0760  0.0642  0.2201
 5632W        W 9696   8.568   2.598   3.098  0.0996 -0.1454  0.0219
 5633W        W 9697   0.831   8.874   0.306 -0.0494 -0.3957 -0.0188
 5634W        W 9698   1.853   5.877   3.434  0.0181  0.1593  0.2262
 5635W        W 9699   8.411  10.144   8.110 -0.0775 -0.1902 -0.0598
 5636W        W 9700   9.431   2.094   1.699 -0.2233  0.1136 -0.1326
 5637W        W 9701   6.990   0.155   3.057  0.0434 -0.1637 -0.1630
 5638W        W 9702   6.637   7.410   8.443  0.2222  0.1333 -0.0453
 5639W        W 9703   0.633   0.755   3.431 -0.0683  0.2015  0.2334
 5640W        W 9704   0.595   2.564   0.559  0.1215  0.4481  0.2187
 5641W        W 9705   5.306   8.321   2.344  0.1004  0.0512  0.2187
 5642W        W 9706   3.468   9.510  10.485 -0.0467  0.1091  0.1162
 5643W        W 9707   1.744   0.155  11.056  0.1198  0.5611  0.1481
 5644W        W 9708   0.901   0.353   3.098 -0.1694  0.2718 -0.3360
 5645W        W 9709   4.859   4.009   2.111  0.2054 -0.0321  0.1621
 5646W        W 9710   7.748  10.402   8.464  0.2008 -0.1954 -0.0543
 5647W        W 9711   1.834   3.684   9.546 -0.0514 -0.0268 -0.3799
 5648W        W 9712   8.047   2.067   9.372 -0.3855 -0.3254  0.0113
 5649W        W 9713   4.706   6.861   7.356 -0.1505  0.4482 -0.2224
 5650W        W 9714   9.074   6.427   3.045  0.0133  0.1045  0.1875
 5651W        W 9715   9.962   4.093   0.605 -0.0838 -0.2231  0.2252
 5652W        W 9716   4.811  10.536   3.278 -0.1104 -0.5323  0.1109
 5653W        W 9717   5.367   7.387   2.260 -0.1557  0.1144  0.2061
 5654W        W 9718   4.120   4.284   3.468 -0.0257 -0.2113 -0.0348
 5655W        W 9719   5.515   2.760  10.125 -0.3346  0.3371  0.0175
 5656W        W 9720  10.578   2.308   3.210 -0.2299 -0.2118 -0.2654
 5657W        W 9721   0.484   7.044  11.361 -0.0659  0.0262  0.1173
 5658W        W 9722   9.268   4.410  11.480 -0.0619 -0.1600 -0.1599
 5659W        W 9723   2.793   1.777  10.376 -0.0136 -0.2105  0.0188
 5660W        W 9724   5.821   6.090   2.261  0.1968 -0.0955 -0.0971
 5661W        W 9725   2.106   6.880   8.100 -0.2491 -0.0932 -0.1499
 5662W        W 9726  10.156   1.716  10.266 -0.0451 -0.3198  0.1938
 5663W        W 9727   0.890   3.202   2.079  0.0701  0.0053 -0.0641
 5664W        W 9728   8.196   1.159   8.316  0.0673  0.0573 -0.0303
 5665W        W 9729   3.506   6.570   1.060  0.1269  0.1920 -0.1185
 5666W        W 9730   6.358   0.003   9.965 -0.2225 -0.0325  0.1866
 5667W        W 9731   7.385   5.982  10.976  0.2645 -0.1606  0.0680
 5668W        W 9732   2.919   4.843   2.602 -0.2052 -0.2310  0.2172
 5669W        W 9733   8.758   3.912   0.467 -0.0560  0.3267 -0.0163
 5670W        W 9734   1.389   5.332   7.917 -0.2638  0.1389 -0.2114
 5671W        W 9735   5.380   9.671   9.252  0.0796 -0.2029  0.0390
 5672W        W 9736   3.514   7.277   2.989  0.3610 -0.1027  0.0609
 5673W        W 9737   6.023   9.823   1.037 -0.0576 -0.2225  0.0940
 5674W        W 9738   2.022   2.378   1.681  0.1110  0.1301 -0.1193
 5675W        W 9739   7.694   7.608   9.459 -0.0195 -0.0397 -0.0648
 5676W        W 9740   9.856   9.071  10.972 -0.2832  0.1475  0.1355
 5677W        W 9741   5.239   4.223   3.806  0.1925  0.1139 -0.0459
 5678W        W 9742   6.371   1.932   2.508  0.0761  0.1031 -0.3206
 5679W        W 9743   5.705   1.569  10.524 -0.1217 -0.1892  0.1626
 5680W        W 9744   6.701   7.706  11.198 -0.2203  0.0776  0.1645
 5681W        W 9745   5.454   8.134   9.286 -0.0648  0.1586 -0.1197
 5682W        W 9746   4.515   1.000   0.195 -0.3127  0.0207 -0.1125
 5683W        W 9747   3.422  10.108  11.442 -0.2959 -0.0296 -0.2462
 5684W        W 9748   2.285   0.399   2.881  0.3162  0.2302 -0.2102
 5685W        W 9749   7.959   3.559   8.520 -0.2433 -0.0538 -0.1384
 5686W        W 9750   6.688   4.825   1.081  0.1072  0.2453  0.0764
 5687W        W 9751   0.947   4.896   2.887  0.0559  0.3313 -0.2594
 5688W        W 9752   9.177   1.075   9.099 -0.0726  0.1983  0.0012
 5689W        W 9753  10.641   6.213   8.772  0.0139 -0.1359  0.0242
 5690W        W 9754   2.935   6.559   4.043 -0.4295  0.0466  0.2336
 5691W        W 9755   7.569   1.613  11.108  0.0712 -0.2025  0.0824
 5692W        W 9756   3.316   5.273   1.305 -0.2327  0.0748 -0.1455
 5693W        W 9757  10.599   6.326  10.144 -0.0892 -0.0039  0.1170
 5694W        W 9758   7.683   6.159   2.177  0.5079  0.1501  0.0970
 5695W        W 9759   5.890   2.427  11.559 -0.4925 -0.1608 -0.1906
 5696W        W 9760   8.100   7.728   1.234  0.1250 -0.2462  0.1076
 5697W        W 9761   2.748   8.321   8.963 -0.1617 -0.0378 -0.0251
 5698W        W 9762   9.724   5.831   1.078 -0.4757  0.2204 -0.0674
 5699W        W 9763   3.472   9.139   3.977  0.2412  0.3477 -0.1788
 5700W        W 9764   0.364   2.155   9.070 -0.1165 -0.0275 -0.0227
 5701W        W 9765   7.811   2.446   9.147  0.1858 -0.2215 -0.2235
 5702W        W 9766   4.998   2.617  10.218 -0.0180  0.2053  0.1041
 5703W        W 9767   1.659   6.979   9.859 -0.1631  0.0732  0.0584
 5704W        W 9768   4.614   8.657   3.587 -0.4414 -0.1608  0.0937
 5705W        W 9769   3.170   0.737   0.003 -0.1617 -0.1002 -0.1293
 5706W        W 9770   1.527   8.137   2.076  0.0459 -0.0048  0.1299
 5707W        W 9771   5.119   4.638   8.713  0.1343 -0.1055  0.3555
 5708W        W 9772   7.836   2.007   2.526  0.1853  0.0182  0.3461
 5709W        W 9773   0.067   3.035   3.309 -0.3262  0.0298 -0.0172
 5710W        W 9774   1.837   8.513   1.416 -0.1341  0.0033 -0.0627
 5711W        W 9775   1.144   2.578  10.958 -0.0356  0.1038  0.4143
 5712W        W 9776   7.356   0.385   1.777  0.1384 -0.3603 -0.2905
 5713W        W 9777   2.761   1.324   8.207 -0.1937  0.2009  0.0997
 5714W        W 9778   4.910   0.484   8.264  0.2506  0.3018  0.0774
 5715W        W 9779   6.886   7.034   9.278 -0.0381 -0.2931  0.0261
 5716W        W 9780   0.178   9.172   8.322  0.1838  0.1804 -0.2538
 5717W        W 9781   4.969   1.565  11.020 -0.1052 -0.0824 -0.3569
 5718W        W 9782   7.093   3.946   8.794 -0.3116 -0.0653  0.3176
 5719W        W 9783   4.816   2.440  11.404 -0.1874 -0.1149 -0.2037
 5720W        W 9784   6.630  10.088   9.955  0.3576  0.2473 -0.1816
 5721W        W 9785   5.172   9.471   8.749 -0.0092  0.1891 -0.0241
 5722W        W 9786   7.763   0.153   9.542 -0.0469 -0.0718 -0.1288
 5723W        W 9787   8.985   7.040   9.702 -0.2158 -0.0478  0.1053
 5724W        W 9788   0.796   0.197   8.835 -0.3925 -0.2274 -0.1518
 5725W        W 9789   7.762   4.367   8.882 -0.0201  0.0941 -0.2443
 5726W        W 9790  10.281   1.841   8.725  0.1306 -0.1371  0.1297
 5727W        W 9791   5.824   1.561  11.360 -0.2973 -0.3160 -0.2306
 5728W        W 9792   4.793   7.404   7.337  0.3850  0.6289 -0.0280
 5729W        W 9793   7.656   8.342   2.384 -0.2058  0.0480 -0.2326
 5730W        W 9794   9.101   1.946   3.175 -0.0927  0.1170  0.1645
 5731W        W 9795  10.296   4.646   9.955  0.1343  0.1916  0.1894
 5732W        W 9796   9.598   7.777   0.713  0.1278 -0.0227 -0.0879
 5733W        W 9797   9.144   6.347  10.488  0.2271  0.0832 -0.1371
 5734W        W 9798   3.281   4.787   9.582 -0.3599 -0.0098 -0.2491
 5735W        W 9799   3.274  10.163  10.889  0.2647 -0.2850  0.2900
 5736W        W 9800   0.175   6.010   0.149 -0.1036 -0.0796 -0.1590
 5737W        W 9801   6.034   6.757   1.586  0.0186 -0.3307 -0.0831
 5738W        W 9802   7.509   8.762   3.070 -0.0339  0.0729  0.1804
 5739W        W 9803   7.097   0.968   7.497 -0.0910 -0.1163  0.0220
 5740W        W 9804   1.227   4.237   3.261 -0.0514  0.2508 -0.0579
 5741W        W 9805   7.624   0.968   9.063 -0.0735 -0.4508  0.0357
 5742W        W 9806   0.531   0.200   1.640 -0.0949 -0.0127  0.1157
 5743W        W 9807   4.541   0.843   8.087 -0.0860  0.2258 -0.0504
 5744W        W 9808   7.122  10.543   0.904 -0.1672 -0.1790 -0.0469
 5745W        W 9809   0.446   1.670   7.631  0.0220  0.0170 -0.0902
 5746W        W 9810   9.632   3.598   2.773  0.0823 -0.2143  0.2164
 5747W        W 9811   5.463   5.841   0.282 -0.1692  0.0589  0.0085
 5748W        W 9812   1.855   4.386   1.954  0.0386  0.0311  0.2030
 5749W        W 9813   4.288   2.428   3.356  0.0084 -0.0554  0.3908
 5750W        W 9814   6.187   5.229  10.863  0.1564 -0.2101 -0.2299
 5751W        W 9815   3.238   3.850   0.666 -0.1397 -0.0621 -0.4548
 5752W        W 9816   2.179   8.080   9.023  0.1386 -0.0030 -0.1674
 5753W        W 9817   1.051   5.185   7.558 -0.3420 -0.3596  0.2359
 5754W        W 9818   7.004   9.297   1.679  0.0574 -0.4457 -0.2464
 5755W        W 9819   7.277   7.043   2.307  0.1442 -0.1289  0.2643
 5756W        W 9820   6.958   9.537   9.119  0.3707  0.1120  0.0224
 5757W        W 9821   9.152   0.198   8.982 -0.1234 -0.0236 -0.0057
 5758W        W 9822   6.595   7.744   4.323 -0.0548  0.0066 -0.3144
 5759W        W 9823   1.521   2.867  11.134  0.2504 -0.2014 -0.0262
 5760W        W 9824   6.538   6.133   8.733 -0.0281 -0.1122 -0.0246
 5761W        W 9825   2.440   3.751   8.644  0.0941 -0.2309  0.0246
 5762W        W 9826   8.308   7.251   9.408 -0.1918 -0.1392 -0.1429
 5763W        W 9827   9.893   0.873  11.177  0.0861  0.0849  0.3382
 5764W        W 9828  10.189   1.256   9.995 -0.0804 -0.1303  0.2539
 5765W        W 9829   0.419   6.077   1.438 -0.1790  0.1146  0.0070
 5766W        W 9830   0.178   9.191   2.045 -0.0097 -0.4357  0.1773
 5767W        W 9831   7.956   3.832   2.124  0.2005 -0.0551  0.1486
 5768W        W 9832   6.182   6.664  10.565 -0.0700 -0.0043  0.1506
 5769W        W 9833   0.206  10.041   1.519 -0.0536  0.0504 -0.1663
 5770W        W 9834   0.916   0.609  10.914 -0.2317 -0.0316 -0.1143
 5771W        W 9835   2.465   3.241   1.550 -0.1764 -0.0334  0.0314
 5772W        W 9836   2.347   2.880   9.518  0.2258 -0.1200 -0.1806
 5773W        W 9837   2.919   7.329   0.983  0.3965  0.1590 -0.3532
 5774W        W 9838   6.972   7.847   8.192  0.0392 -0.2319  0.1273
 5775W        W 9839   4.323   7.250   0.977 -0.0233 -0.1600  0.0757
 5776W        W 9840  10.545   2.053  10.031  0.1034  0.4836  0.0892
 5777W        W 9841   3.147   3.299   2.301 -0.0910  0.1706  0.2321
 5778W        W 9842   2.648   1.797   0.547  0.4199 -0.0073 -0.1745
 5779W        W 9843   4.224  10.293   2.649  0.1539  0.2800 -0.2548
 5780W        W 9844   7.642   3.949   8.493  0.1163  0.4189 -0.1134
 5781W        W 9845   2.999   0.002   0.624 -0.1723 -0.0306  0.0723
 5782W        W 9846   0.641  10.471   0.025 -0.0310  0.0594  0.3109
 5783W        W 9847   3.621   8.729   1.776  0.3256 -0.1018  0.0812
 5784W        W 9848  10.079   4.647   2.004  0.0690  0.2430 -0.0346
 5785W        W 9849   8.097   9.723   9.717 -0.0514 -0.3186 -0.2631
 5786W        W 9850   0.749   1.910   3.697  0.4376  0.1168 -0.0670
 5787W        W 9851   5.044   1.672   9.070 -0.1614  0.0619  0.1503
 5788W        W 9852   9.026   0.526   2.437  0.0727 -0.0087 -0.1092
 5789W        W 9853   5.070   0.663   1.367  0.2527 -0.0866 -0.1655
 5790W        W 9854   0.273   7.846   2.956  0.0380 -0.1317 -0.2471
 5791W        W 9855   2.653   7.478   7.312  0.1140 -0.3129 -0.2078
 5792W        W 9856   5.944   9.551   0.298 -0.2904 -0.0371  0.1869
 5793W        W 9857   3.910   7.488   1.322 -0.0936 -0.1634  0.1491
 5794W        W 9858   7.337   7.001   7.974  0.0599 -0.2814  0.0248
 5795W        W 9859   0.511   5.967  10.683  0.0753  0.1857  0.0288
 5796W        W 9860   3.218   0.118   2.598 -0.0687 -0.0080 -0.4255
 5797W        W 9861   7.256   7.383   0.390 -0.2309 -0.1308  0.1343
 5798W        W 9862   9.359   8.950   4.283  0.0290 -0.2263 -0.0424
 5799W        W 9863   6.793   8.441  10.187 -0.0605 -0.2876  0.0292
 5800W        W 9864   5.804   7.289   3.345 -0.1352 -0.1600 -0.1475
 5801W        W 9865   9.600   8.560   9.003 -0.2623  0.0740 -0.0227
 5802W        W 9866   1.420   3.302   1.701  0.0129  0.1484  0.0283
 5803W        W 9867   8.612   4.007   9.055 -0.0370  0.0969 -0.5019
 5804W        W 9868   9.008   5.748   2.420  0.0537  0.1989 -0.1759
 5805W        W 9869   8.214   4.783   3.460 -0.3676  0.0537 -0.2199
 5806W        W 9870   1.710   4.798  11.460  0.3839 -0.0015 -0.0861
 5807W        W 9871   6.234   7.700   2.277 -0.1701 -0.1237 -0.1673
 5808W        W 9872   3.587   0.140   1.322 -0.0734 -0.3774  0.1321
 5809W        W 9873   0.327   1.726   8.682 -0.3428  0.3547 -0.2139
 5810W        W 9874   7.810   8.807   2.665  0.0720 -0.4476 -0.1321
 5811W        W 9875   5.285   9.269   1.535  0.1234  0.3954  0.0698
 5812W        W 9876   9.302   1.859   0.406 -0.0467 -0.1071  0.2433
 5813W        W 9877   5.397   3.939  11.488  0.0750 -0.1241  0.3112
 5814W        W 9878   8.209   2.185  10.228  0.0733 -0.1960 -0.1227
 5815W        W 9879   0.779   5.707   9.269  0.2436  0.1003  0.0096
 5816W        W 9880   2.540   7.892   2.617 -0.0189  0.0687 -0.2547
 5817W        W 9881   2.611   2.319   2.904 -0.4192  0.0857 -0.0792
 5818W        W 9882   3.553   8.345   9.065  0.0615 -0.1617  0.2528
 5819W        W 9883  10.439   6.215   0.474  0.0137 -0.2091 -0.0483
 5820W        W 9884   5.556   1.640   3.532 -0.0703 -0.2513 -0.0307
 5821W        W 9885   6.081   1.608   2.302 -0.0359  0.0219 -0.0206
 5822W        W 9886   4.306   5.679   9.331 -0.1706  0.1737 -0.0159
 5823W        W 9887   5.007   9.739   2.682  0.0534 -0.1673 -0.0241
 5824W        W 9888   3.545   5.952   2.182 -0.0577  0.2472  0.0424
 5825W        W 9889   1.919  10.302  10.229 -0.3674 -0.4622 -0.0581
 5826W        W 9890   4.052   9.255   0.514  0.2704  0.0411  0.1387
 5827W        W 9891   6.214   1.974  11.566 -0.3575 -0.0867 -0.4561
 5828W        W 9892   7.322   7.010   9.630  0.2002 -0.0658  0.2743
 5829W        W 9893   1.162   7.777  11.163 -0.0847 -0.1576 -0.2683
 5830W        W 9894   0.115   5.598   1.548 -0.0748 -0.0813 -0.0785
 5831W        W 9895   5.806   9.330   3.327  0.2556 -0.2108  0.2186
 5832W        W 9896  10.402   0.564   1.623 -0.1429 -0.0461  0.1505
 5833W        W 9897   8.671   6.315  11.321 -0.1323  0.0669 -0.4744
 5834W        W 9898   0.361   4.232   3.614 -0.1457  0.3223 -0.2551
 5835W        W 9899   8.239   0.012   8.271 -0.0877 -0.0133  0.1882
 5836W        W 9900   3.269   6.655   8.241  0.2232  0.0992 -0.1877
 5837W        W 9901   6.799   8.508  11.161 -0.0085 -0.1138 -0.2203
 5838W        W 9902   3.257   0.821   2.532 -0.1936 -0.0017  0.1340
 5839W        W 9903  10.526   7.695   8.704 -0.1621  0.0364 -0.1865
 5840W        W 9904   0.618   2.982   7.909  0.0082  0.0228  0.0564
 5841W        W 9905   2.341   4.674  10.952  0.3367  0.0802  0.0069
 5842W        W 9906  10.028   6.683   9.339  0.0599  0.1271 -0.1225
 5843W        W 9907   4.957   0.732   9.969 -0.0745  0.3244  0.0011
 5844W        W 9908   1.978   3.347   2.557 -0.0237  0.1419  0.0471
 5845W        W 9909   4.620   6.586  10.604  0.0706  0.0265  0.1328
 5846W        W 9910  10.624   7.194   9.585  0.0840  0.1529 -0.2295
 5847W        W 9911   4.836   8.006   8.571 -0.0018 -0.1677 -0.0017
 5848W        W 9912   3.282   2.068   0.832 -0.0473  0.0640  0.1557
 5849W        W 9913   1.772   6.906   1.963 -0.2083  0.2592  0.0781
 5850W        W 9914   2.338   6.678   2.911  0.4787 -0.1005 -0.0320
 5851W        W 9915   5.753   7.350   8.071 -0.1674  0.0101  0.0181
 5852W        W 9916   8.997   6.602  10.943  0.0271 -0.1932 -0.1049
 5853W        W 9917   0.120   2.720   9.840  0.3268 -0.2072 -0.4120
 5854W        W 9918   6.336   5.187   1.099  0.0102  0.2772 -0.2981
 5855W        W 9919   2.100   7.331   1.736  0.0506  0.0350  0.3938
 5856W        W 9920   6.721   2.010   1.159 -0.0661  0.3105 -0.0294
 5857W        W 9921   8.686   5.199  11.346 -0.0748  0.0553  0.0189
 5858W        W 9922   8.651   1.762   1.541  0.1841 -0.0223 -0.0446
 5859W        W 9923   7.670   9.609   3.128 -0.1374 -0.0800 -0.3030
 5860W        W 9924   4.058   5.898   1.720 -0.0448  0.0326  0.1198
 5861W        W 9925   8.773   9.570   8.196 -0.1516  0.1591  0.3110
 5862W        W 9926  10.601   9.520   3.907  0.1673  0.2311 -0.4452
 5863W        W 9927   9.146   3.661   3.577  0.0270 -0.1382 -0.2514
 5864W        W 9928   0.198   4.341  10.555 -0.0140 -0.1062  0.2809
 5865W        W 9929   6.571   2.132   2.985 -0.3423 -0.1981  0.0281
 5866W        W 9930   6.062   0.389  10.771  0.0140 -0.0009 -0.1932
 5867W        W 9931   6.180   4.367   3.369 -0.0175  0.0037  0.3681
 5868W        W 9932   3.287   3.158   8.500 -0.0224 -0.0793 -0.0598
 5869W        W 9933  10.253   4.303   1.594  0.0806  0.0637  0.3411
 5870W        W 9934   0.694   5.438   9.899  0.2147  0.1273  0.0375
 5871W        W 9935   6.237  10.037   0.087  0.2843  0.2612 -0.0395
 5872W        W 9936   7.258   9.790   2.893 -0.2472  0.1143  0.3179
 5873W        W 9937   3.140   7.879   9.109  0.2123 -0.3101  0.0450
 5874W        W 9938   0.725   9.590   2.807 -0.0523 -0.0460  0.1291
 5875W        W 9939   5.955   7.824   3.287  0.2039  0.0888 -0.1606
 5876W        W 9940   5.610   3.470   2.856 -0.1936 -0.0083  0.0306
 5877W        W 9941   3.054   8.880   2.323  0.1215  0.3004 -0.4337
 5878W        W 9942   7.900  10.371  10.810 -0.0973  0.1434  0.2036
 5879W        W 9943   0.584  10.101   2.171  0.1539 -0.1684 -0.1867
 5880W        W 9944   4.003   0.850  10.066 -0.2779 -0.0656  0.1457
 5881W        W 9945   2.922   2.166   9.570 -0.3087 -0.1538 -0.2121
 5882W        W 9946   0.776   5.701   1.420 -0.1255  0.0909  0.1231
 5883W        W 9947   6.412   2.463  10.978 -0.0812 -0.1413  0.0042
 5884W        W 9948   1.777   6.123   7.756  0.0215  0.0043  0.0281
 5885W        W 9949   5.978   6.905   8.002 -0.1494  0.0785  0.0580
 5886W        W 9950   4.610   2.594   2.906 -0.4176  0.0199  0.1881
 5887W        W 9951   6.008   2.758   1.169 -0.1409  0.1198  0.0039
 5888W        W 9952   4.664   0.604  10.747  0.0014 -0.0795 -0.0626
 5889W        W 9953   3.296   8.175  10.834  0.1332  0.3456 -0.0367
 5890W        W 9954   8.780   0.113   2.181  0.0159 -0.1062  0.3865
 5891W        W 9955   2.765   0.063   2.283  0.2518 -0.0900  0.0528
 5892W        W 9956   4.876  10.608   9.511  0.1743 -0.1315  0.4081
 5893W        W 9957   6.438  10.388   0.713  0.1767 -0.1653 -0.3896
 5894W        W 9958   0.316   9.735   3.624 -0.2185  0.1118 -0.3566
 5895W        W 9959   5.638   1.996   9.672 -0.3339 -0.1205 -0.0068
 5896W        W 9960   4.415   8.184  11.076  0.1318  0.0817 -0.1397
 5897W        W 9961   6.745   7.244   1.477 -0.1563  0.0563  0.1723
 5898W        W 9962   2.808   4.090  10.674  0.0523 -0.0040 -0.1445
 5899W        W 9963   9.455   4.327  10.942  0.0881 -0.0575 -0.0714
 5900W        W 9964   8.481   3.242   4.019  0.2061 -0.0954  0.2267
 5901W        W 9965   8.113  10.178   2.674 -0.1552 -0.1511 -0.2632
 5902W        W 9966   3.311   7.618  10.795  0.2030 -0.0187 -0.1636
 5903W        W 9967   1.352   5.003  11.168  0.0455  0.0919 -0.0643
 5904W        W 9968   3.706   1.432   3.627  0.0743 -0.3556 -0.1710
 5905W        W 9969   8.977   1.021   2.351  0.0231  0.2583  0.1950
 5906W        W 9970   6.285   7.700   9.694 -0.3073  0.1999  0.0809
 5907W        W 9971   0.604   1.914   9.526  0.0961 -0.0827 -0.1530
 5908W        W 9972   0.444   8.743   3.294  0.1942  0.2213 -0.1760
 5909W        W 9973   4.684   6.843   2.425  0.0284  0.0765  0.0293
 5910W        W 9974   9.750   1.529   9.950 -0.0623  0.1034 -0.0782
 5911W        W 9975   4.273   5.372   0.059 -0.2073 -0.2356  0.1011
 5912W        W 9976   7.308   1.902   8.797  0.1652 -0.0122 -0.1453
 5913W        W 9977   9.616   0.758   1.090 -0.1337 -0.1786 -0.1800
 5914W        W 9978   5.400   6.685   8.006 -0.0029 -0.1173 -0.1590
 5915W        W 9979   8.783   5.611   1.479  0.2085  0.0656 -0.1141
 5916W        W 9980  10.473   4.175   0.745 -0.3702  0.1776  0.0976
 5917W        W 9981   2.575   8.970   7.658 -0.2909  0.0931 -0.0100
 5918W        W 9982   4.221   3.484  10.917  0.2597 -0.0590  0.2013
 5919W        W 9983   2.764   6.437   3.256 -0.0702 -0.0601  0.0334
 5920W        W 9984   5.158   8.162   3.277 -0.1013 -0.0024 -0.0127
 5921W        W 9985   8.983   6.644   0.016  0.1720 -0.4276  0.1150
 5922W        W 9986   2.351   9.363   9.457  0.2556 -0.2825 -0.0857
 5923W        W 9987   7.590   4.490   1.676  0.0234 -0.0174  0.1713
 5924W        W 9988   5.760   9.453   8.972  0.0267 -0.0557  0.3852
 5925W        W 9989   0.384   6.485   1.786  0.0375  0.1762  0.0351
 5926W        W 9990   8.121   9.647   2.733 -0.2956 -0.1212  0.2556
 5927W        W 9991   2.966   6.877   8.698  0.4222 -0.1155 -0.2164
 5928W        W 9992   5.184   7.766   7.280 -0.0777 -0.0813 -0.2395
 5929W        W 9993   3.477   6.162   2.695 -0.0636  0.0070  0.1601
 5930W        W 9994   7.012   6.322   0.673  0.3368  0.0910  0.0997
 5931W        W 9995   4.348   7.247   9.327 -0.0793 -0.2627 -0.0171
 5932W        W 9996   9.400   6.996   8.366 -0.0160 -0.1307 -0.0215
 5933W        W 9997   4.202   4.619   9.204 -0.3154 -0.3316  0.3002
 5934W        W 9998   1.400   5.096   9.168 -0.0567  0.3044  0.1294
 5935W        W 9999   1.977  10.450   1.854  0.0289  0.2424  0.0494
 5936W        W10000   8.163   0.517   9.643 -0.0183  0.2182  0.0577
 5937W        W10001   7.690   8.518  11.418 -0.3161  0.1463  0.0617
 5938W        W10002   5.460  10.061  11.137  0.0794 -0.0749 -0.0529
 5939W        W10003   0.335   1.687   8.211 -0.0810 -0.1409  0.0103
 5940W        W10004   6.615   6.522   0.882  0.0068 -0.1107 -0.1608
 5941W        W10005   6.236   3.697   1.044  0.0789  0.0722  0.2440
 5942W        W10006  10.172   7.714   9.194 -0.0378 -0.0148  0.0073
 5943W        W10007   3.022   5.513   8.486 -0.1402 -0.0492 -0.0656
 5944W        W10008   8.127   7.096  11.313  0.2939 -0.0316 -0.1193
 5945W        W10009   0.812   0.976   0.217  0.0429 -0.2595 -0.2317
 5946W        W10010   2.285   7.436  11.138  0.0379  0.2943 -0.0365
 5947W        W10011   4.291   1.727   9.322  0.4981  0.2540 -0.0716
 5948W        W10012   2.205   0.088  10.352 -0.0722 -0.0352  0.1007
 5949W        W10013   7.838   0.998   8.580  0.5661 -0.0719 -0.3163
 5950W        W10014   9.518   6.079   0.136  0.2997  0.0615  0.0390
 5951W        W10015   0.578   9.088   9.850  0.1238 -0.0172 -0.0546
 5952W        W10016   5.122   2.561   2.479  0.0513 -0.1784 -0.1106
 5953W        W10017   3.074   1.086   8.512  0.1845  0.0821  0.1754
 5954W        W10018   8.530   8.851   1.020 -0.0239 -0.0486  0.2032
 5955W        W10019   9.634   9.530   0.167  0.1552  0.2551 -0.1052
 5956W        W10020   2.140   7.599   9.333 -0.3264 -0.0851  0.3705
 5957W        W10021   5.280   9.754   3.635 -0.1546 -0.1737 -0.1512
 5958W        W10022  10.045   1.359   8.596 -0.3533 -0.1362  0.2702
 5959W        W10023   2.185  10.152   7.380  0.1043 -0.0908  0.1913
 5960W        W10024   2.625   0.386  10.197 -0.0212 -0.0533 -0.0005
 5961W        W10025   8.520   1.093   3.574 -0.2614  0.0078 -0.2734
 5962W        W10026   7.573   3.474   2.141  0.0504  0.2521  0.1885
 5963W        W10027   5.567   7.059   7.750  0.0222 -0.1437  0.1161
 5964W        W10028   1.449   9.800  11.352 -0.2579 -0.3506  0.0426
 5965W        W10029   7.144   8.093  10.398  0.0688  0.2139 -0.1924
 5966W        W10030   7.947   1.750  10.119  0.0913 -0.1152 -0.2242
 5967W        W10031   9.204   8.897   9.294  0.0190  0.5104  0.3062
 5968W        W10032   4.121   2.877   0.323  0.1923  0.1400 -0.3963
 5969W        W10033   5.693   1.311   2.993  0.4329  0.0575 -0.1834
 5970W        W10034   9.607   2.305   2.988  0.0373 -0.0973  0.0526
 5971W        W10035  10.119   4.615   0.719 -0.0492  0.0526  0.1309
 5972W        W10036   4.442   0.626   8.530 -0.0739  0.1361 -0.0443
 5973W        W10037  10.050   5.930   0.646  0.4060  0.1328 -0.0678
 5974W        W10038   0.181   0.755  10.955  0.0352  0.2175 -0.0838
 5975W        W10039   6.810   0.317  10.359 -0.2049 -0.1596  0.3362
 5976W        W10040   6.848   4.380   9.249 -0.1200 -0.0158 -0.1658
 5977W        W10041   9.132   8.887   2.748  0.4352 -0.2215 -0.2084
 5978W        W10042   7.662  10.218  10.288  0.0594 -0.0528 -0.1117
 5979W        W10043   4.930   6.402   9.814 -0.1865 -0.0420  0.1883
 5980W        W10044   2.005   7.463   8.048  0.3884 -0.2792  0.0040
 5981W        W10045  10.405   7.857   8.220 -0.0001  0.3223  0.1755
 5982W        W10046   5.624   8.676  10.199  0.1924 -0.1391 -0.0362
 5983W        W10047   8.192   7.166   1.101  0.1251 -0.0963  0.3093
 5984W        W10048   0.994   0.919  10.499 -0.0991  0.0842  0.2568
 5985W        W10049   0.340  10.533   9.525 -0.0153  0.1182  0.2103
 5986W        W10050   5.421   1.504  10.103  0.2090 -0.3443  0.3270
 5987W        W10051   9.641   4.018   0.123  0.0953 -0.2057  0.0285
 5988W        W10052   3.582   7.431   8.155  0.0663 -0.2758  0.0504
 5989W        W10053   0.772   3.644   3.044  0.2746  0.0443  0.0146
 5990W        W10054   4.863   5.660   9.539  0.0665 -0.1127  0.1794
 5991W        W10055   0.569   7.989  11.218 -0.1048  0.1013 -0.0639
 5992W        W10056   7.304   3.846   1.088 -0.1893  0.2210 -0.0915
 5993W        W10057   0.430   6.093   2.715  0.1136  0.1281  0.2139
 5994W        W10058   9.816   0.400  10.861 -0.1505  0.0787  0.1703
 5995W        W10059   1.533   4.291   0.017 -0.1036  0.5106  0.0435
 5996W        W10060   4.613   7.861   0.392  0.1590  0.0485 -0.0488
 5997W        W10061   0.262   9.448  10.383  0.0612  0.0132  0.2648
 5998W        W10062  10.249  10.052   0.694 -0.1589 -0.1336 -0.0809
 5999W        W10063   4.139   0.423  10.520  0.1997  0.0946  0.0440
 6000W        W10064   2.088   8.021   8.102  0.0294  0.2731  0.0816
 6001W        W10065   6.861  10.270  11.293  0.2810  0.0603 -0.0421
 6002W        W10066   7.868   3.854   1.121  0.1233 -0.1632 -0.3812
 6003W        W10067   0.354  10.455  10.064 -0.1324  0.2162  0.1028
 6004W        W10068   9.115  10.080  10.200  0.0188 -0.2373 -0.0609
 6005W        W10069   6.397   5.703   3.429  0.1614  0.2349  0.2921
 6006W        W10070   0.384   9.673   9.065 -0.2365  0.0559  0.2116
 6007W        W10071   8.765   9.055  11.017  0.0657 -0.2013  0.0295
 6008W        W10072   5.434   4.084   8.361  0.0734  0.0748 -0.2386
 6009W        W10073   1.887   6.454   0.236  0.2503  0.0710  0.0764
 6010W        W10074   8.203   5.286  11.186  0.0909  0.2448 -0.3427
 6011W        W10075   7.385   5.327   1.314 -0.0874 -0.3437  0.0451
 6012W        W10076   6.639   0.875   8.203  0.4190 -0.0294  0.0329
 6013W        W10077   5.604   0.410   7.513  0.0590  0.1374 -0.1077
 6014W        W10078   3.638   0.362   8.837  0.1484  0.0306 -0.0260
 6015W        W10079   6.422  10.468   8.730 -0.1426 -0.2266  0.1560
 6016W        W10080   2.437   8.711   9.935 -0.4434  0.1051  0.1422
 6017W        W10081   7.091   0.773   7.998  0.4228 -0.0424  0.0191
 6018W        W10082   0.428   6.924  10.394 -0.3018  0.1668 -0.1877
 6019W        W10083   1.353   9.261   9.484  0.3251  0.2206  0.0737
 6020W        W10084   9.648  10.250  10.160  0.2215  0.2502  0.1748
 6021W        W10085   0.262   2.732   0.913  0.3914 -0.0849 -0.1576
 6022W        W10086  10.172   1.033   8.964  0.0680  0.2342  0.0819
 6023W        W10087   5.210   0.028   3.575  0.1363 -0.1008  0.2912
 6024W        W10088   5.122   4.778   9.179  0.1499 -0.4099  0.0800
 6025W        W10089   1.000  10.233   2.860  0.1115  0.3180  0.2409
 6026W        W10090   7.509   7.853   3.126 -0.3067 -0.1583 -0.1545
 6027W        W10091   3.217   0.272   0.221 -0.2740 -0.0921  0.3110
 6028W        W10092   4.553   4.515   3.473 -0.0249 -0.3023  0.2092
 6029W        W10093   7.977   8.660   2.174  0.1013 -0.2601 -0.2197
 6030W        W10094   6.794   7.711   3.432  0.4751 -0.0526  0.1463
 6031W        W10095   2.788   9.470   8.525 -0.0400 -0.2035 -0.2389
 6032W        W10096  10.412   2.314   9.548 -0.0548 -0.0240 -0.0015
 6033W        W10097   2.468   5.815   7.348  0.1873  0.0864  0.0988
 6034W        W10098   3.989   9.169   4.106 -0.0253 -0.0459  0.2934
 6035W        W10099   6.229   6.864   9.140 -0.0474 -0.1181  0.2757
 6036W        W10100   9.436   8.456   0.093  0.2975 -0.3259  0.1121
 6037W        W10101   2.454   6.050   3.443 -0.2428 -0.0784  0.1006
 6038W        W10102   5.131   2.739   8.596 -0.2519  0.0391 -0.0070
 6039W        W10103   2.134   3.703   9.161 -0.0642 -0.0261 -0.1019
 6040W        W10104   0.635   5.239   9.425 -0.1891 -0.1414 -0.2883
 6041W        W10105   8.180  10.308  10.380 -0.1987 -0.2210 -0.0485
 6042W        W10106   0.419   0.250   9.832  0.0671  0.1487  0.0676
 6043W        W10107   1.818   0.412   2.584 -0.2775  0.0829 -0.0823
 6044W        W10108   0.301   5.888  10.112 -0.0519 -0.0264  0.0203
 6045W        W10109  10.099   9.773   7.381  0.1675 -0.0277 -0.0519
 6046W        W10110   7.365   7.654   0.017 -0.0134  0.0066  0.1738
 6047W        W10111   8.410   8.808   1.651  0.0720  0.1088  0.5803
 6048W        W10112   3.828   5.836   9.320  0.2722 -0.0951  0.2209
 6049W        W10113   5.952   4.742   1.971  0.0199 -0.2348 -0.0208
 6050W        W10114   9.211   7.027   0.173 -0.0491  0.2998 -0.0328
 6051W        W10115   8.857   9.073   2.331  0.1819 -0.0906 -0.0733
 6052W        W10116   7.628   3.071   0.428 -0.0757 -0.0063 -0.1469
 6053W        W10117  10.033   5.501   2.939  0.2788 -0.1001 -0.0237
 6054W        W10118   4.031   7.979   2.646  0.3066 -0.5078  0.3450
 6055W        W10119   5.757   0.842  10.100 -0.1491 -0.2933 -0.0841
 6056W        W10120   0.734   3.100   2.609 -0.0994  0.1528  0.0203
 6057W        W10121   3.691   5.123   8.260  0.1267  0.1083  0.2771
 6058W        W10122   3.693   2.387   8.225 -0.1403  0.1922 -0.0544
 6059W        W10123   3.116   7.644  11.226  0.1660  0.0584  0.0764
 6060W        W10124   7.166   1.239   2.129 -0.2591 -0.1616 -0.0653
 6061W        W10125   4.926   7.745   8.122 -0.0305  0.2176 -0.0200
 6062W        W10126   0.896   7.467  10.825  0.1490  0.0830  0.3500
 6063W        W10127   5.664   3.377  10.493  0.1690  0.1093  0.0335
 6064W        W10128   1.030   2.782   0.362  0.1603  0.3788  0.1698
 6065W        W10129   6.152   2.760   0.257 -0.2677 -0.2510  0.2292
 6066W        W10130   4.436   4.380  10.256 -0.1005  0.2983 -0.3614
 6067W        W10131   7.341   7.573  11.084  0.0011 -0.2003 -0.0422
 6068W        W10132   2.323   4.273  10.658  0.1067  0.2085 -0.2839
 6069W        W10133  10.329   2.337   2.446 -0.0072  0.2308  0.0823
 6070W        W10134   9.129   0.987  11.385  0.0196  0.1339 -0.0817
 6071W        W10135   8.436   7.671  10.163 -0.0485 -0.3299 -0.0079
 6072W        W10136   3.021   1.222  10.862  0.1054 -0.0007  0.0188
 6073W        W10137   9.098   1.958   1.366  0.0541 -0.0383 -0.1210
 6074W        W10138   3.527  10.256   8.281 -0.2872  0.0730 -0.5413
 6075W        W10139   8.936   4.886   8.477 -0.1462  0.1832  0.0715
 6076W        W10140   0.866   9.435   9.650  0.0080  0.0011  0.1692
 6077W        W10141   8.099   9.182   3.042  0.0444 -0.3295 -0.2504
 6078W        W10142   7.572   7.476   2.373  0.1577 -0.4064  0.1961
 6079W        W10143   3.107   9.474   2.009  0.1637  0.2462 -0.0955
 6080W        W10144   7.597   9.342   0.887 -0.0327 -0.2025  0.0627
 6081W        W10145   2.612   8.296   2.861 -0.0232 -0.1317  0.0297
 6082W        W10146   8.334   2.292   9.747  0.1318  0.0035 -0.0070
 6083W        W10147  10.245   3.067   9.009 -0.2180  0.2617 -0.3471
 6084W        W10148   2.147   9.966   1.650  0.1592  0.1134 -0.2329
 6085W        W10149   1.626   3.869   2.364  0.2510 -0.0810  0.0908
 6086W        W10150   0.943   1.786   2.621  0.0934 -0.0402  0.1637
 6087W        W10151  10.203   7.331  10.263 -0.2647  0.0475 -0.0022
 6088W        W10152   4.381   2.548   1.966  0.2941 -0.2468 -0.1353
 6089W        W10153   3.644   2.139   4.275 -0.1470 -0.2177  0.0199
 6090W        W10154   0.038   9.886   0.517  0.0558 -0.0266 -0.0864
 6091W        W10155   4.830   3.889   8.919 -0.0201  0.2189 -0.0469
 6092W        W10156   8.668   9.096   0.510 -0.0933 -0.4149  0.0164
 6093W        W10157   1.370   4.086   0.466 -0.2808 -0.0897 -0.1969
 6094W        W10158   0.215   2.980   2.767  0.0707 -0.1345  0.4371
 6095W        W10159   0.992   9.443   9.114 -0.1627  0.4131 -0.3547
 6096W        W10160   2.897   2.783   8.882 -0.0183 -0.4107 -0.1105
 6097W        W10161   8.109   0.581   8.478  0.3931 -0.1129  0.0164
 6098W        W10162   3.474   2.128   9.701  0.2337 -0.0290  0.2300
 6099W        W10163   1.740   6.979   0.271  0.2917  0.2152  0.2473
 6100W        W10164   0.472   3.808   0.794 -0.1301  0.0495  0.0636
 6101W        W10165   3.636   9.587   0.646  0.2038  0.4055  0.1552
 6102W        W10166   3.101   1.731   1.761 -0.1718  0.2053 -0.1968
 6103W        W10167   7.957   1.326  10.861 -0.1724  0.0092 -0.1090
 6104W        W10168   8.400   6.803   2.358 -0.1221  0.0946  0.4117
 6105W        W10169   4.651   8.513  10.270 -0.3693 -0.2342 -0.2090
 6106W        W10170   3.246   2.333   1.395 -0.1836  0.1636  0.0441
 6107W        W10171   1.776   8.981   8.078  0.3995  0.0007 -0.2562
 6108W        W10172   9.207   3.682   0.130 -0.1012  0.2895 -0.0594
 6109W        W10173   8.597   4.859   9.826  0.1932  0.1360  0.2665
 6110W        W10174   1.175  10.093   8.505 -0.2344 -0.2335  0.2403
 6111W        W10175   9.390   6.175   1.822  0.0431 -0.1573 -0.1195
 6112W        W10176   1.189   3.678   2.019  0.2594  0.1295  0.0122
 6113W        W10177   8.367   8.243   7.606 -0.2225  0.1404  0.1200
 6114W        W10178   1.151   8.842   0.787  0.1071  0.0485  0.0910
 6115W        W10179   9.139   0.363   9.497  0.0222  0.0238 -0.1982
 6116W        W10180   4.131   2.760   2.972  0.1966  0.0459  0.1755
 6117W        W10181   4.934   9.386  10.601 -0.4374  0.0281 -0.2632
 6118W        W10182   3.991   9.184   7.659 -0.0417 -0.0360 -0.2624
 6119W        W10183   6.980   4.089   8.276  0.4515  0.0094  0.0057
 6120W        W10184   1.619   0.889   8.177  0.0308 -0.1778 -0.0122
 6121W        W10185   5.421   0.896   0.473 -0.0999  0.1535 -0.1121
 6122W        W10186   6.222   7.069  10.003  0.3912 -0.0721  0.0744
 6123W        W10187   6.814   9.563   1.292 -0.0171  0.0977 -0.0427
 6124W        W10188   8.882   1.051   9.463  0.2113  0.1276 -0.2309
 6125W        W10189   4.893   0.367   9.255  0.0818  0.1090 -0.0761
 6126W        W10190   2.766   6.316  10.684 -0.1120  0.1698 -0.0942
 6127W        W10191   3.556   6.295   8.521 -0.1096 -0.0790 -0.1467
 6128W        W10192   2.646   0.728   2.908 -0.3012 -0.1201 -0.1860
 6129W        W10193   2.142   2.289   2.760  0.1634  0.1585 -0.0809
 6130W        W10194   6.601   6.955   8.850 -0.0893 -0.2520 -0.0516
 6131W        W10195   5.556   8.094   2.950  0.0188  0.3696 -0.1545
 6132W        W10196   9.463   9.722   9.299  0.2568 -0.0912  0.2858
 6133W        W10197   2.785   0.181   2.829 -0.3184 -0.0369 -0.1655
 6134W        W10198   8.238   8.247   1.383  0.2298  0.0816  0.0764
 6135W        W10199   5.214   4.628  10.158 -0.1286  0.0071 -0.3834
 6136W        W10200   2.155   8.331   2.209 -0.0009 -0.1466  0.1770
 6137W        W10201   1.983   9.403  10.680 -0.2262 -0.1862  0.0368
 6138W        W10202   7.581   5.582   9.306 -0.0877  0.0835 -0.0464
 6139W        W10203   9.935   0.671   0.485 -0.1682  0.0478  0.2526
 6140W        W10204   0.673   8.323   0.089  0.2133 -0.1652 -0.2142
 6141W        W10205   4.473   1.924   8.618 -0.2615 -0.0161  0.1399
 6142W        W10206   2.453   6.387   2.272 -0.1064  0.0467  0.3154
 6143W        W10207   2.813   8.329   1.382 -0.2393 -0.1392  0.2455
 6144W        W10208   9.485   5.044  10.151  0.3385  0.0634  0.1464
 6145W        W10209   5.095   3.222   1.609 -0.3214  0.1395  0.0151
 6146W        W10210   1.220   4.724   0.034 -0.1853  0.0574 -0.3463
 6147W        W10211   6.165   8.477   3.404  0.2849 -0.2169  0.1075
 6148W        W10212   3.684   3.539   9.547  0.1449  0.1420  0.0485
 6149W        W10213   1.642   6.341   2.537  0.0599  0.2977 -0.1845
 6150W        W10214   2.909   5.155   8.936  0.2225  0.0619  0.1784
 6151W        W10215   2.663  10.553  10.208 -0.3534 -0.1612 -0.1506
 6152W        W10216   9.511   1.531   9.057  0.1174 -0.0496  0.0049
 6153W        W10217   4.950   4.902   0.824 -0.0570 -0.1755  0.0632
 6154W        W10218   8.832   8.788   1.907 -0.0423 -0.4381  0.1900
 6155W        W10219   8.506   2.180  11.118  0.0462 -0.0255  0.1367
 6156W        W10220   7.207   9.294  10.537  0.1674  0.1160  0.1855
 6157W        W10221   0.682   1.759   0.369  0.0297  0.2112  0.0008
 6158W        W10222   9.639   3.379   9.815 -0.1828 -0.1260  0.1667
 6159W        W10223   2.199   0.547   8.796 -0.0883  0.0119 -0.0391
 6160W        W10224   2.786   2.119   1.493  0.1555  0.2154  0.0678
 6161W        W10225  10.640   1.857  11.104 -0.1192 -0.1057 -0.2243
 6162W        W10226   1.057   7.654   0.065  0.1325  0.2187 -0.1294
 6163W        W10227   2.165   0.439  10.962 -0.1202  0.0476 -0.0573
 6164W        W10228  10.271   4.056  10.308 -0.0961  0.0354  0.3165
 6165W        W10229   1.980  10.572   2.452  0.3769  0.3169  0.2271
 6166W        W10230   7.753   1.118   0.198 -0.1308  0.0301  0.1160
 6167W        W10231   3.552   6.535  10.875 -0.0185  0.1201  0.3232
 6168W        W10232   7.552   8.057   8.988  0.1884 -0.0000  0.2707
 6169W        W10233   0.184   4.755  10.271 -0.5751  0.0375 -0.5887
 6170W        W10234   6.976   5.001   7.826 -0.1354 -0.3783  0.2095
 6171W        W10235   6.765   3.448   8.119  0.0784 -0.0340 -0.0989
 6172W        W10236   6.489   5.997   2.545 -0.0707  0.1060 -0.0478
 6173W        W10237   2.096   2.406  10.664 -0.0867  0.3615 -0.2060
 6174W        W10238   3.499   5.608   8.207 -0.0722 -0.0888  0.1307
 6175W        W10239   3.679   1.508   0.013 -0.2321  0.1946 -0.5352
 6176W        W10240   1.682   0.583   9.822 -0.1569 -0.4570 -0.0576
 6177W        W10241   3.916   9.316   3.562  0.1402 -0.1134 -0.1084
 6178W        W10242   6.488   9.204   1.678  0.1797 -0.2341 -0.4994
 6179W        W10243   9.320   3.017   4.289 -0.0154  0.1407 -0.1432
 6180W        W10244   0.247   3.556   9.565 -0.4299 -0.1878  0.0243
 6181W        W10245   0.064   6.100   1.803  0.1724  0.0909  0.4674
 6182W        W10246   2.429   8.135   1.709 -0.0505  0.1508  0.0401
 6183W        W10247   5.920   3.932  10.701 -0.2148 -0.0507 -0.1205
 6184W        W10248   8.707   4.920  10.480 -0.2508 -0.0815 -0.1239
 6185W        W10249   1.333   6.080  11.101  0.0188 -0.1543  0.0547
 6186W        W10250   6.714   0.427   7.937 -0.2958  0.1734  0.3011
 6187W        W10251   6.313   3.187  10.113 -0.1213  0.0511  0.1578
 6188W        W10252   6.016   6.855   3.293 -0.0045  0.0413  0.1571
 6189W        W10253   1.076   2.388  10.336  0.0486  0.0202 -0.0592
 6190W        W10254   0.148   9.766   8.557  0.1482 -0.0394  0.1635
 6191W        W10255   1.589   8.247   2.650  0.1449 -0.0357  0.2076
 6192W        W10256   1.051  10.219   0.954  0.2757  0.0274  0.0594
 6193W        W10257   0.371   4.595  11.343 -0.3175 -0.2695 -0.1304
 6194W        W10258   5.475   6.847   3.477 -0.0213 -0.1553 -0.0539
 6195W        W10259   1.494   2.689   8.347 -0.0623 -0.3245  0.2507
 6196W        W10260   8.933   6.074  10.893 -0.0950  0.1159  0.2514
 6197W        W10261   2.974   3.544   1.001 -0.0990 -0.1899 -0.0165
 6198W        W10262   8.360   6.816   8.307 -0.0411 -0.1167 -0.1248
 6199W        W10263   9.497   7.320   1.527  0.2112 -0.1136  0.2104
 6200W        W10264   4.998   9.142   9.630 -0.0704  0.2452  0.1532
 6201W        W10265   3.090   3.431   3.445 -0.0100 -0.1077 -0.2347
 6202W        W10266   0.340   6.567   9.939  0.1539  0.1261 -0.2275
 6203W        W10267   0.447   6.566  10.778  0.0193  0.0364 -0.1030
 6204W        W10268   3.773   4.755   2.727  0.1804 -0.1373 -0.2916
 6205W        W10269   7.388   4.367   2.461 -0.0893 -0.2360 -0.2017
 6206W        W10270   1.854   2.590   9.820 -0.1105  0.2086 -0.0152
 6207W        W10271   6.724   2.824  10.594 -0.0053 -0.0043 -0.0211
 6208W        W10272   0.247   9.367   2.548  0.1674  0.4296 -0.0382
 6209W        W10273   5.987   1.140  10.570 -0.1334  0.1228  0.0022
 6210W        W10274   4.198   7.911  10.704 -0.0299  0.1734 -0.0529
 6211W        W10275   2.729   7.754   0.693  0.2072 -0.0351 -0.0664
 6212W        W10276   6.202   5.065   0.248  0.1195 -0.0637  0.2586
 6213W        W10277   4.243   8.535   9.914  0.1797  0.1484 -0.2354
 6214W        W10278   0.519   3.959   1.575  0.0061 -0.0362 -0.0543
 6215W        W10279   3.203   5.165   1.811  0.0460  0.3072  0.0794
 6216W        W10280   8.473   3.869  10.357 -0.2851 -0.2554  0.2747
 6217W        W10281   1.705   2.458   2.724 -0.1938 -0.0852  0.0404
 6218W        W10282   6.093   2.054   3.012  0.0107  0.0853  0.1360
 6219W        W10283   4.928   2.316   0.399  0.1336  0.1758 -0.0544
 6220W        W10284   9.165   7.067  11.220 -0.3840  0.1699  0.0908
 6221W        W10285   0.838  10.385   3.371  0.0468 -0.2333 -0.0200
 6222W        W10286  10.202   5.055   2.691 -0.0025  0.0761  0.2381
 6223W        W10287  10.542   7.810   3.420 -0.1398  0.0615  0.2280
 6224W        W10288   3.250   6.995   3.308 -0.4236  0.3129  0.0399
 6225W        W10289   5.236   2.300   7.902  0.1216 -0.2672 -0.1869
 6226W        W10290   9.660   6.257   0.587  0.0450  0.4019 -0.0186
 6227W        W10291   9.586   9.791   2.593 -0.1235 -0.3439  0.1602
 6228W        W10292   7.500   5.189   2.834  0.0373  0.0502 -0.1900
 6229W        W10293   7.083  10.279   1.506  0.3244 -0.3368  0.1884
 6230W        W10294   8.494   6.358   1.269  0.0043 -0.2614 -0.1427
 6231W        W10295   1.383   8.618   8.144 -0.0297  0.0327 -0.3536
 6232W        W10296   8.979   7.101  10.172  0.0468 -0.1779  0.1079
 6233W        W10297   5.149   9.666   9.761  0.1570 -0.1739  0.1122
 6234W        W10298   9.709   7.634   8.991 -0.0607 -0.0194 -0.1397
 6235W        W10299   4.992   1.070   2.160 -0.0922  0.3962 -0.2252
 6236W        W10300   6.611   3.579   2.243  0.4813 -0.1156  0.1957
 6237W        W10301   2.330   4.398   1.060 -0.1442  0.0708 -0.2455
 6238W        W10302   2.208   8.276   3.253  0.0172 -0.0516  0.0437
 6239W        W10303   7.768   1.284  10.393 -0.1542  0.0009 -0.0542
 6240W        W10304   3.124   4.170   9.436  0.0721  0.0220 -0.0129
 6241W        W10305   4.214   2.245   9.046 -0.3036 -0.2712  0.0386
 6242W        W10306  10.607   7.799   9.636  0.0921  0.1165  0.2043
 6243W        W10307   3.195   4.853   0.988  0.2304 -0.2779 -0.0848
 6244W        W10308  10.402   0.938  11.149 -0.6200 -0.1516 -0.1916
 6245W        W10309   9.222   7.801  10.607 -0.0482  0.4329  0.0296
 6246W        W10310   1.450   4.331   2.834  0.0040  0.0963 -0.2831
 6247W        W10311   1.945   1.420   3.927  0.0449  0.3068  0.0600
 6248W        W10312   5.789   7.958   1.058 -0.2173  0.1697  0.2566
 6249W        W10313   6.681   2.336  10.438 -0.1871 -0.0285 -0.0803
 6250W        W10314  10.393   9.125  11.202  0.1516  0.0224  0.3502
 6251W        W10315   4.171   9.698   2.934 -0.1311 -0.0214 -0.1135
 6252W        W10316   5.793   4.311   2.249  0.0373  0.3180 -0.1287
 6253W        W10317   9.794   5.821   9.659 -0.3143  0.2996 -0.2354
 6254W        W10318   0.032   2.079   8.679  0.0611  0.0766  0.3545
 6255W        W10319   6.813   9.906   2.066 -0.2446  0.4023 -0.0382
 6256W        W10320   8.237   0.632   2.630 -0.0104  0.0080 -0.4868
 6257W        W10321   6.047   3.014   2.748  0.1475 -0.2322  0.2604
 6258W        W10322   2.756   7.224   0.027 -0.0361  0.1481  0.0780
 6259W        W10323   5.629   8.294   8.378  0.2254 -0.1563  0.0414
 6260W        W10324   4.725   2.261   2.242  0.2083  0.1576  0.1422
 6261W        W10325   2.354   1.906   7.334 -0.3992  0.1717 -0.0533
 6262W        W10326   6.412   0.093  10.988 -0.0595  0.1997  0.0919
 6263W        W10327   5.145   8.303  10.486 -0.2783  0.1235  0.1325
 6264W        W10328   5.810   1.233   2.509  0.0307  0.4977 -0.0355
 6265W        W10329   6.429   8.416   3.809  0.1985 -0.0515 -0.0295
 6266W        W10330   0.884   6.750   2.374 -0.0423 -0.2815  0.0876
 6267W        W10331   4.435   3.131   2.032  0.0530  0.3003 -0.0667
 6268W        W10332   7.026   4.793   9.001  0.1078  0.0100 -0.0143
 6269W        W10333   7.653   8.947  11.109 -0.0607 -0.2214 -0.1393
 6270W        W10334   0.849   2.290   9.344  0.0134  0.2790 -0.2571
 6271W        W10335   1.745   0.600   7.791  0.3044 -0.1358  0.0079
 6272W        W10336   6.484   2.423   2.620  0.2421  0.2361  0.0580
 6273W        W10337   7.207   8.546   2.313 -0.0460 -0.1126  0.0956
 6274W        W10338   5.533   2.031  11.360 -0.1121 -0.1933  0.0049
 6275W        W10339   2.945  10.094   0.909  0.0586 -0.2696  0.0665
 6276W        W10340   6.778   6.413   1.403 -0.0408  0.3571 -0.2739
 6277W        W10341   9.242   8.223   9.064  0.2851 -0.1412  0.1079
 6278W        W10342   0.202   0.619  10.129 -0.0125 -0.2236 -0.1091
 6279W        W10343   5.635   4.179   0.492 -0.0727  0.1883  0.1358
 6280W        W10344   0.504   2.578   2.095  0.1303  0.2736 -0.1728
 6281W        W10345   0.832   6.462   9.981 -0.3870 -0.0660  0.2573
 6282W        W10346   2.593   4.996   1.901 -0.1424  0.2971 -0.0126
 6283W        W10347   8.093  10.008   2.219  0.1448  0.0510  0.1082
 6284W        W10348   2.560   1.773   8.628  0.2088  0.2758  0.1910
 6285W        W10349   4.741   0.333  10.277 -0.1146  0.1795 -0.0014
 6286W        W10350   8.197   1.922  10.617 -0.1472  0.0594 -0.2129
 6287W        W10351   5.776   9.350   2.810  0.1481  0.1018  0.0144
 6288W        W10352   1.339   4.399   9.852  0.1585  0.3854 -0.0086
 6289W        W10353   8.382   3.275   2.531 -0.2032 -0.0036 -0.0117
 6290W        W10354   6.359   6.455   3.339 -0.1646  0.0749 -0.0189
 6291W        W10355   5.289   8.083   8.763  0.1850  0.2080 -0.1137
 6292W        W10356   1.094   5.005   0.446 -0.3879 -0.0602  0.0763
 6293W        W10357   7.320   1.447   0.995  0.2474 -0.0527 -0.1740
 6294W        W10358   4.013   2.741   9.139  0.1614 -0.1491  0.2497
 6295W        W10359   1.241   3.911   9.595 -0.0411  0.1157  0.0492
 6296W        W10360   6.950   2.416   2.746 -0.0002  0.1255 -0.1774
 6297W        W10361   0.466   5.057   0.066 -0.0013 -0.0499  0.1084
 6298W        W10362   7.394   8.216   8.436 -0.0016 -0.0237  0.0365
 6299W        W10363   2.759   3.175   9.646 -0.0263 -0.0137 -0.0476
 6300W        W10364   8.190  10.025   8.552 -0.0313 -0.3653 -0.0369
 6301W        W10365   7.831   7.118   9.556  0.0058 -0.1415  0.1955
 6302W        W10366   8.122   8.429   9.683 -0.2697  0.3691 -0.0402
 6303W        W10367   0.301   8.353   2.844  0.1801 -0.5362 -0.0423
 6304W        W10368   4.240  10.623  11.088 -0.1716  0.0297  0.3242
 6305W        W10369   8.855  10.625   9.328 -0.1835  0.1529 -0.2759
 6306W        W10370   5.787   6.469   0.452  0.2381 -0.0369  0.1262
 6307W        W10371   4.948   4.878   0.338  0.0721 -0.0917 -0.2910
 6308W        W10372   5.234   6.433   3.277  0.0696 -0.0252  0.3332
 6309W        W10373   0.636   5.636   0.052 -0.0883  0.0887 -0.0570
 6310W        W10374   0.964   1.690  11.137 -0.0648  0.3153  0.1776
 6311W        W10375   8.221   7.214   0.631  0.0133 -0.1513 -0.0080
 6312W        W10376   6.598   4.398  10.294 -0.0744  0.0455 -0.2706
 6313W        W10377   3.431  10.602  11.448  0.0525  0.2761  0.1092
 6314W        W10378   0.876   8.567   3.432 -0.1301  0.0057  0.0022
 6315W        W10379   9.706   1.003   9.145 -0.0153  0.0546  0.0058
 6316W        W10380   5.582   4.742   2.999 -0.1880  0.0860 -0.1089
 6317W        W10381   7.572   2.465   0.578  0.2701 -0.1425 -0.0278
 6318W        W10382   8.305   4.604  10.209 -0.1851  0.0933  0.5050
 6319W        W10383   4.681   1.857  10.740 -0.0929 -0.1936  0.3855
 6320W        W10384   3.065   9.023   1.746 -0.0318 -0.3613  0.1651
 6321W        W10385   8.645   2.828   2.536  0.2410  0.0260  0.0596
 6322W        W10386   6.727   3.066   2.887  0.2968  0.1171 -0.1785
 6323W        W10387   7.293   6.161   3.231 -0.2445 -0.1208  0.1992
 6324W        W10388   8.553   6.846   0.833  0.0261 -0.1879  0.2416
 6325W        W10389  10.069   3.699   9.609  0.4219 -0.5228  0.1639
 6326W        W10390   9.658   4.123   1.374  0.2942 -0.2325 -0.0718
 6327W        W10391   8.853   1.731   0.325 -0.2971 -0.0907 -0.1128
 6328W        W10392   1.668   1.115  11.311 -0.0936  0.2681 -0.0401
 6329W        W10393   6.725   5.300   0.132 -0.1213  0.1127  0.0029
 6330W        W10394   9.881   3.246   8.749 -0.1300  0.0540 -0.2040
 6331W        W10395   6.701   6.408   2.634  0.1534 -0.0010 -0.0391
 6332W        W10396   0.944  10.359  10.760  0.0593  0.0804  0.3516
 6333W        W10397   7.043  10.453   7.245  0.3205 -0.0973  0.0852
 6334W        W10398   2.453   4.585   2.964  0.1002  0.0728  0.4454
 6335W        W10399   4.944   1.534   0.572  0.0748 -0.2664 -0.2342
 6336W        W10400   6.438  10.315   7.961 -0.0740  0.0584  0.2309
 6337W        W10401   2.291   8.612   2.897 -0.0603 -0.1862 -0.2493
 6338W        W10402   2.374   5.446   7.665  0.0299  0.2087 -0.1061
 6339W        W10403   3.555   3.341   3.672 -0.1679  0.0186 -0.1112
 6340W        W10404   8.133   2.044   8.596  0.0967 -0.1249 -0.1985
 6341W        W10405   9.806   1.027   7.724 -0.3488 -0.3673  0.1841
 6342W        W10406   0.112   7.782   1.525 -0.0788 -0.0485 -0.1271
 6343W        W10407   5.948   9.535  10.535 -0.0271 -0.1762 -0.2098
 6344W        W10408   7.997   9.795  10.147 -0.4622 -0.1451 -0.4530
 6345W        W10409   7.029   7.179   1.869 -0.1936  0.1904  0.1506
 6346W        W10410   6.168   4.617   1.148  0.0624  0.0315 -0.3339
 6347W        W10411   8.027   1.641  11.318  0.1882 -0.1922  0.0233
 6348W        W10412   9.295   2.183   7.882 -0.1611  0.1994 -0.1454
 6349W        W10413   1.117   0.928   2.087 -0.0241 -0.2014  0.1002
 6350W        W10414   1.340   5.607  10.486  0.3107  0.3605  0.1207
 6351W        W10415   4.060   1.745  11.302  0.3688  0.0730 -0.2192
 6352W        W10416   2.004   1.753   8.639  0.0233  0.1256 -0.1354
 6353W        W10417   8.120   2.930   3.298 -0.1568  0.0695 -0.2652
 6354W        W10418   0.286   0.115   8.926  0.1122 -0.0201  0.2503
 6355W        W10419   4.121   6.985  10.478  0.0332 -0.2636 -0.0625
 6356W        W10420   6.980   2.282  10.834 -0.0035  0.1000  0.3398
 6357W        W10421   6.463   2.242   7.699 -0.1750 -0.1069 -0.0121
 6358W        W10422  10.110   0.512   2.860 -0.1901 -0.1146 -0.3305
 6359W        W10423   0.392   1.015   0.474 -0.3218  0.1112  0.0121
 6360W        W10424   4.923   4.387   2.403  0.2551  0.1369  0.3108
 6361W        W10425   4.033   9.857   9.053  0.1975  0.0262 -0.2150
 6362W        W10426   6.972   8.496   0.054  0.6733 -0.1947  0.0598
 6363W        W10427   0.041   3.545  11.089 -0.1950 -0.3181  0.0870
 6364W        W10428   3.226   6.166   1.134 -0.2032  0.3978  0.1602
 6365W        W10429   6.083   0.205  11.425 -0.0214 -0.0968 -0.2003
 6366W        W10430   0.364   1.243   8.435 -0.4460 -0.1757  0.0383
 6367W        W10431   7.485   6.498   8.787 -0.1095  0.0922 -0.4162
 6368W        W10432   8.027   6.709   9.868  0.0902  0.0188 -0.0314
 6369W        W10433   8.986   5.961   0.181  0.1639 -0.1121  0.2581
 6370W        W10434   8.471   9.645   0.848 -0.1281 -0.0231 -0.1103
 6371W        W10435   1.929   0.880  10.868  0.0469 -0.1338 -0.0824
 6372W        W10436   8.513   0.791   8.348  0.0818 -0.1416 -0.0840
 6373W        W10437   6.475   1.329   2.063 -0.4175  0.0180 -0.4141
 6374W        W10438   7.610   9.390  10.844 -0.5561 -0.1372 -0.0651
 6375W        W10439   5.974   1.433   0.226 -0.1802 -0.0150 -0.2224
 6376W        W10440   6.535   1.465   2.609 -0.1030  0.2013 -0.2036
 6377W        W10441   2.787   9.067  10.176  0.0785 -0.0652 -0.3848
 6378W        W10442   9.935   9.776   8.198  0.4708 -0.0373 -0.1708
 6379W        W10443   0.833   2.795   3.117 -0.0857  0.0587  0.1587
 6380W        W10444   8.900   3.011   1.529  0.2719  0.0690  0.0354
 6381W        W10445  10.238   2.586  11.410  0.2383  0.2595  0.0915
 6382W        W10446   2.080   9.569   0.537 -0.0051 -0.1216  0.0115
 6383W        W10447   0.797   6.731   1.031  0.3395 -0.0718  0.0895
 6384W        W10448  10.159   0.928   8.460  0.0595  0.1261  0.0089
 6385W        W10449   2.056   0.287   8.328 -0.0909 -0.2785  0.1241
 6386W        W10450   6.266   2.291   0.369 -0.0007  0.1132  0.1021
 6387W        W10451   6.679   2.626   9.123  0.2111  0.3709  0.1575
 6388W        W10452   0.926   6.054  11.400 -0.1904 -0.3610  0.1730
 6389W        W10453   8.201   9.358   0.163  0.0832 -0.2813  0.1302
 6390W        W10454   3.650   0.898   9.150  0.4209 -0.1694 -0.1139
 6391W        W10455   9.592   3.508   0.405  0.1273 -0.1073 -0.0062
 6392W        W10456   3.112   5.743   1.480  0.0522 -0.1101  0.2762
 6393W        W10457   8.203   7.902  10.531 -0.1082  0.3331 -0.3607
 6394W        W10458   7.157   9.632   9.593 -0.0301 -0.0178 -0.0258
 6395W        W10459   5.339   7.268   0.365  0.3028 -0.0262  0.1605
 6396W        W10460   1.649   6.654   9.332  0.1718 -0.4072 -0.2620
 6397W        W10461   1.709   9.851  10.016 -0.0994  0.1684 -0.0898
 6398W        W10462   1.078   0.067   2.746  0.0076  0.0747  0.3746
 6399W        W10463   5.257   7.308   9.890  0.0057 -0.2768  0.1859
 6400W        W10464   2.195   9.496   1.581  0.0279 -0.1652  0.3012
 6401W        W10465   4.488   0.301   3.357  0.2367  0.0835  0.1794
 6402W        W10466   1.900   5.074   2.233 -0.0829  0.0880  0.3109
 6403W        W10467   8.626  10.462   8.518  0.0400  0.1281  0.0859
 6404W        W10468   1.194   2.878   1.865 -0.1276 -0.0199 -0.0235
 6405W        W10469   1.083   9.869   0.607 -0.1745 -0.1988 -0.4120
 6406W        W10470   3.553   6.462  11.356 -0.1769 -0.0435 -0.3050
 6407W        W10471   0.578   2.277   7.992  0.2810  0.0951 -0.0018
 6408W        W10472   2.858   4.802   1.466 -0.0632 -0.3355  0.0510
 6409W        W10473   7.381   7.624  10.369  0.0305  0.2146 -0.1820
 6410W        W10474   4.046   6.629   0.972  0.0922 -0.0289  0.0928
 6411W        W10475   8.061   8.495   0.246 -0.2387 -0.3484 -0.4076
 6412W        W10476   9.498   3.727  10.390  0.0608 -0.0972  0.2200
 6413W        W10477   6.429   6.763  11.458 -0.1139 -0.0288  0.1166
 6414W        W10478   4.540   0.093  10.705 -0.1412  0.1178  0.0100
 6415W        W10479   2.871   1.194   7.665 -0.1096  0.1971 -0.0108
 6416W        W10480   9.172  10.619   2.494 -0.2487 -0.1731 -0.5491
 6417W        W10481   7.238   7.444   2.829 -0.1302  0.1324  0.0505
 6418W        W10482   1.920   1.823  11.191 -0.2846 -0.3410 -0.2075
 6419W        W10483   3.584   5.680   1.746  0.2066 -0.0149  0.2074
 6420W        W10484   1.542   2.645   2.272 -0.2039 -0.1832 -0.0401
 6421W        W10485   0.827   5.295   1.950 -0.1310  0.0537  0.1533
 6422W        W10486   8.858   6.740   1.217 -0.1822 -0.0208  0.3050
 6423W        W10487   5.458   2.055   1.178  0.2961  0.0013 -0.3914
 6424W        W10488   2.873   4.575   9.288 -0.0446 -0.4497  0.0704
 6425W        W10489   1.924   1.001   8.770  0.1004  0.0854  0.1124
 6426W        W10490   1.957   5.047  10.038 -0.0880  0.1070  0.1837
 6427W        W10491   6.681   6.237   2.110  0.0689 -0.1010 -0.1420
 6428W        W10492   3.555   7.769   2.775  0.4516  0.1088  0.1901
 6429W        W10493  10.609   2.416   1.239  0.0539 -0.0683  0.2442
 6430W        W10494   1.995   4.190   8.816  0.2861  0.0475  0.1821
 6431W        W10495   3.724   3.172   9.022 -0.0120  0.0320 -0.1030
 6432W        W10496   0.363   0.942   9.727  0.4579  0.1570 -0.2185
 6433W        W10497   3.769  10.356  11.108 -0.0824 -0.2591 -0.0280
 6434W        W10498  10.431   6.858   1.260 -0.0227  0.0724  0.1029
 6435W        W10499   9.022   9.480  11.060  0.2902 -0.0228  0.2060
 6436W        W10500   3.531  10.582   9.170 -0.0880  0.0872 -0.0084
 6437W        W10501   4.550   6.219   0.617 -0.0059  0.1071 -0.2321
 6438W        W10502   0.046  10.049   9.804 -0.1238 -0.0658 -0.0110
 6439W        W10503  10.099   2.434   2.859 -0.0547  0.1501 -0.0087
 6440W        W10504   6.058   0.982   9.678 -0.4131  0.3193  0.0521
 6441W        W10505   7.692   1.094   1.400 -0.1993 -0.1911 -0.2617
 6442W        W10506   8.756   2.141  11.586  0.5242 -0.0401  0.0959
 6443W        W10507   3.163   0.952   8.981  0.1658  0.2950 -0.0375
 6444W        W10508   3.008   0.016   4.573 -0.4114 -0.1226  0.0281
 6445W        W10509   3.932   4.493   9.822 -0.1885  0.0097 -0.0899
 6446W        W10510  10.549   8.597  10.976  0.2309  0.2454  0.0697
 6447W        W10511   7.089   2.338   1.430 -0.1507 -0.0878 -0.1734
 6448W        W10512   2.423  10.294   9.865  0.1475  0.4041  0.1040
 6449W        W10513  10.212   7.619   7.718 -0.1710 -0.1394 -0.3515
 6450W        W10514   1.351   9.274  11.394  0.4019  0.1139 -0.1330
 6451W        W10515   5.932   5.108  11.346 -0.3081  0.1674  0.0013
 6452W        W10516   9.042   1.204   1.601 -0.3521  0.1502 -0.1542
 6453W        W10517  10.564   3.318   0.392 -0.0656  0.1329  0.2148
 6454W        W10518   0.248   8.400   9.059 -0.0190 -0.4018 -0.0785
 6455W        W10519   0.582   2.998   0.138  0.1500  0.0685  0.0076
 6456W        W10520   8.679   0.146   8.881  0.0413  0.2417 -0.4550
 6457W        W10521   2.609   7.633   1.775  0.1287  0.2851  0.3499
 6458W        W10522   0.010   0.155  10.387  0.0417 -0.2007  0.1512
 6459W        W10523   2.310   3.638   2.932 -0.1204 -0.0385  0.0506
 6460W        W10524   8.892   0.458  11.111 -0.1312  0.1363 -0.0246
 6461W        W10525   7.628  10.398   2.795 -0.3237  0.0355 -0.2626
 6462W        W10526   0.661   0.368   2.540  0.1946  0.2609  0.0383
 6463W        W10527   3.675   9.792   8.144  0.0819 -0.2022  0.0917
 6464W        W10528   0.972   2.271   1.364 -0.1206 -0.1739 -0.1722
 6465W        W10529   8.451   7.673   0.773  0.1059  0.2702  0.3142
 6466W        W10530   6.949   3.210   2.429  0.2285 -0.0020 -0.0919
 6467W        W10531   3.924   6.148  10.637  0.1129 -0.4564 -0.0406
 6468W        W10532   4.723   2.030   1.263  0.1010 -0.1840 -0.1446
 6469W        W10533   5.138   2.635   7.555 -0.0306 -0.0835  0.0066
 6470W        W10534   5.420   9.247   9.846 -0.1811  0.1222  0.0477
 6471W        W10535   6.771   6.416   0.053  0.1016 -0.3009 -0.1687
 6472W        W10536   6.682   3.148   1.990 -0.1768 -0.2643 -0.0249
 6473W        W10537   9.237   6.039   0.929 -0.1365  0.5281  0.4548
 6474W        W10538   2.134   6.544  11.366 -0.0367  0.3407 -0.0159
 6475W        W10539   9.475  10.632   0.665  0.1871 -0.3778  0.0718
 6476W        W10540   1.244   1.451   9.639 -0.0039  0.0938 -0.0107
 6477W        W10541   7.410   2.338   2.893 -0.0225 -0.0817 -0.1908
 6478W        W10542   9.211   7.331   1.909 -0.2002  0.0935 -0.4105
 6479W        W10543   0.495   1.444   0.760  0.1218  0.1024  0.2034
 6480W        W10544   8.922   9.190  10.417 -0.2081  0.2389 -0.0633
 6481W        W10545   5.619   1.711   2.625 -0.1050 -0.1333  0.0139
 6482W        W10546   2.281   3.612  10.444 -0.1231  0.1108 -0.0822
 6483W        W10547   6.140   2.553   2.979  0.0510  0.0846  0.4584
 6484W        W10548   3.184   6.581   3.060  0.0923  0.0716  0.2096
 6485W        W10549   9.279   4.971   9.641  0.1578 -0.0066  0.4145
 6486W        W10550   7.435   1.264   9.700  0.0132 -0.1872  0.1932
 6487W        W10551   2.830   0.296   7.837 -0.1558 -0.0180 -0.3455
 6488W        W10552   0.004   0.967   7.733 -0.1824 -0.0205 -0.1839
 6489W        W10553   0.226   5.948   2.287 -0.2022 -0.0939 -0.1383
 6490W        W10554   3.997   4.700   8.273 -0.1987  0.0210  0.0138
 6491W        W10555   8.969   3.414   2.385  0.0118  0.0082 -0.2889
 6492W        W10556   0.801   7.158   9.456 -0.0345  0.1081 -0.1743
 6493W        W10557   6.972   3.439   9.500 -0.0565  0.1309 -0.2652
 6494W        W10558   6.231   3.466  10.554 -0.1134  0.2859  0.1512
 6495W        W10559   6.180   9.781   8.777 -0.0455  0.0316 -0.0192
 6496W        W10560   4.101   3.531   2.742  0.1949  0.0288  0.1496
 6497W        W10561   3.960   7.066   0.678  0.1187 -0.1346 -0.2383
 6498W        W10562   5.588  10.158   8.218 -0.2093 -0.0006  0.2044
 6499W        W10563   7.614   3.335  11.168  0.0007 -0.1623  0.4073
 6500W        W10564   1.456   8.823   9.306 -0.0795  0.0203 -0.2768
 6501W        W10565   9.918   7.077   8.408  0.0497  0.1774 -0.1979
 6502W        W10566   3.047   2.025   0.365 -0.0403  0.2546 -0.3496
 6503W        W10567   7.562  10.371   9.320 -0.0643 -0.0234 -0.1476
 6504W        W10568   9.224   0.552   2.918 -0.0134  0.0580 -0.0178
 6505W        W10569   0.582   5.523   8.409  0.0566 -0.0027 -0.0889
 6506W        W10570   0.098   7.544   2.074  0.0021  0.0741  0.3187
 6507W        W10571   5.588  10.338   3.757 -0.2844 -0.0876  0.0527
 6508W        W10572   9.609   3.573   7.579  0.3323 -0.1492  0.0990
 6509W        W10573   9.005   0.969   9.923 -0.0715 -0.1870 -0.1792
 6510W        W10574   1.061   0.819   3.244  0.1093 -0.0021  0.0899
 6511W        W10575   8.121   4.194   9.279 -0.1044  0.2056  0.2208
 6512W        W10576   0.298   0.616   1.752 -0.0551  0.0209  0.1293
 6513W        W10577   1.308   6.201   8.144 -0.0167 -0.0207  0.1191
 6514W        W10578   4.568   7.696   1.239 -0.2095  0.1176  0.1039
 6515W        W10579   8.685   1.810   9.038 -0.1904 -0.0262 -0.1293
 6516W        W10580   5.880   6.243   9.976 -0.0306 -0.4632 -0.0965
 6517W        W10581   0.236   6.785   9.495  0.2837 -0.1856 -0.1574
 6518W        W10582   4.281   6.377   8.408 -0.2235 -0.2433  0.2443
 6519W        W10583   0.563   2.155   8.469 -0.0591 -0.1555  0.0623
 6520W        W10584   8.541   2.609   1.613 -0.1796  0.2078  0.0841
 6521W        W10585   4.791   6.177   1.171  0.2306 -0.2437 -0.2940
 6522W        W10586   6.610  10.514   3.803  0.1235  0.0565  0.0410
 6523W        W10587   0.262   2.112   3.644  0.3719 -0.0701 -0.2385
 6524W        W10588  10.329   1.566   9.450 -0.2740 -0.2135  0.2270
 6525W        W10589   5.399   5.386  11.207 -0.4749  0.3512 -0.2845
 6526W        W10590   7.629   5.697  10.649 -0.1001  0.1013 -0.4903
 6527W        W10591  10.290   5.364   9.104  0.1720 -0.1166 -0.1184
 6528W        W10592   5.305   8.858   0.951 -0.1982  0.2382  0.0325
 6529W        W10593   9.404   5.958   1.392 -0.2884 -0.2829  0.0868
 6530W        W10594   1.380   7.074   8.744 -0.1300  0.0681 -0.2915
 6531W        W10595   5.336   5.618  10.323 -0.2682  0.1300 -0.0284
 6532W        W10596   5.325   5.147   2.840 -0.1108 -0.1633  0.0033
 6533W        W10597   7.333   9.742   8.013 -0.1101  0.3176  0.1345
 6534W        W10598   3.892   5.466   9.045 -0.0129 -0.1199 -0.2195
 6535W        W10599   3.690   4.884  11.248  0.2098  0.0029 -0.0407
 6536W        W10600   5.151   5.287   1.974  0.1314  0.2074  0.0752
 6537W        W10601   7.541   6.278  10.213  0.0258 -0.0574  0.0263
 6538W        W10602   7.892   6.038   9.407  0.0828  0.0308  0.1650
 6539W        W10603   2.416   2.402   8.178  0.2799 -0.1134 -0.0831
 6540W        W10604   3.797   2.711   1.196 -0.3030  0.1217 -0.0520
 6541W        W10605   9.231   7.232   8.830  0.1236  0.3810  0.0168
 6542W        W10606   3.027   9.861   2.641  0.0309  0.0031  0.1303
 6543W        W10607   3.199   0.131   8.858  0.0066  0.1312  0.0910
 6544W        W10608   3.491   2.141   1.861 -0.2668  0.1032 -0.0242
 6545W        W10609   7.685   1.757  10.559 -0.0677 -0.1038  0.1565
 6546W        W10610   1.615   2.156   7.855 -0.0830  0.0694 -0.1401
 6547W        W10611   0.857   9.227  11.476 -0.3472  0.4070  0.0084
 6548W        W10612   2.757   0.987   9.309 -0.0558  0.2634  0.2538
 6549W        W10613   6.139   9.422   7.864 -0.0612 -0.0328  0.0732
 6550W        W10614   8.889   9.580  10.132  0.0310  0.1402  0.0871
 6551W        W10615   8.904   8.319   1.943  0.2003  0.1671  0.2210
 6552W        W10616   3.104   1.624   8.668  0.0247 -0.0017  0.1388
 6553W        W10617  10.192   8.850  10.675  0.0185  0.3380 -0.0954
 6554W        W10618   7.873   0.438   1.815 -0.3634  0.0002  0.6812
 6555W        W10619  10.464   2.586   0.769  0.1557  0.0525 -0.0214
 6556W        W10620   0.470   5.250   1.437  0.0777  0.1468 -0.1968
 6557W        W10621   9.354   5.221   1.079  0.2099 -0.1424  0.0488
 6558W        W10622   1.674   6.951   1.074 -0.0007 -0.0930  0.0010
 6559W        W10623   4.693   6.713   3.816 -0.3075 -0.0881  0.0835
 6560W        W10624  10.044   3.546   8.330 -0.2757  0.2712  0.1225
 6561W        W10625   6.805   6.270  10.144  0.1042 -0.0354 -0.5888
 6562W        W10626  10.382   8.910   0.946 -0.0506  0.3388 -0.1590
 6563W        W10627  10.392   5.844   8.965  0.2018  0.2803 -0.3070
 6564W        W10628   7.679   3.448   0.819  0.2899 -0.2178  0.0029
 6565W        W10629   8.494   9.795   1.338  0.1651 -0.1102 -0.0692
 6566W        W10630   8.623   2.550  10.348  0.0527  0.2800 -0.0931
 6567W        W10631   5.551   4.961   9.548  0.1782  0.0809  0.3291
 6568W        W10632   3.322   3.790   9.715  0.3883 -0.0148  0.3238
 6569W        W10633   1.879   7.154   7.666  0.0982  0.1250  0.1779
 6570W        W10634   0.604   3.369   9.945  0.1129 -0.0510  0.1728
 6571W        W10635   5.096  10.164   9.449  0.2013  0.0107 -0.3419
 6572W        W10636   8.137   4.191   1.391  0.1437 -0.0584  0.0602
 6573W        W10637   1.712   2.343   8.858  0.1443  0.0836 -0.0710
 6574W        W10638   2.422   5.746   1.602  0.0147 -0.0611  0.1101
 6575W        W10639  10.621   6.039  11.297 -0.0251 -0.0602 -0.4312
 6576W        W10640   9.482   5.183   9.234  0.0273  0.0857  0.0545
 6577W        W10641   1.167   8.988   8.891 -0.1335 -0.0333 -0.0420
 6578W        W10642   0.327   2.224  11.340  0.1858  0.0979 -0.4434
 6579W        W10643   4.707   4.654   8.354  0.1535 -0.3592  0.1829
 6580W        W10644   5.061   1.739   8.056  0.0869 -0.2290  0.2035
 6581W        W10645   5.417  10.603   8.063 -0.1229 -0.4209  0.0056
 6582W        W10646   4.176   4.810   2.236  0.2602  0.3557 -0.0484
 6583W        W10647   1.398  10.632   8.575  0.0628 -0.1744  0.0896
 6584W        W10648   0.386  10.458  10.628  0.0613  0.2277  0.1785
 6585W        W10649   7.730   4.170  10.883  0.0817  0.1703  0.0198
 6586W        W10650   2.362   0.731  10.557 -0.0584 -0.0016  0.0268
 6587W        W10651   0.448   1.630   1.670  0.1733 -0.1364 -0.0505
 6588W        W10652   0.920   3.168   1.457 -0.0902  0.0249  0.1775
 6589W        W10653  10.518   1.449   2.864  0.0639  0.0155 -0.0933
 6590W        W10654   0.860   0.067   2.047  0.3920 -0.1896  0.3107
 6591W        W10655   3.717   8.215   9.939 -0.0887  0.0173 -0.3242
 6592W        W10656  10.295   0.400   0.711 -0.1159 -0.1311  0.2030
 6593W        W10657   1.239   1.693   8.430  0.1697 -0.0612 -0.2656
 6594W        W10658   5.884   3.759  11.191  0.0849  0.1731 -0.2140
 6595W        W10659   5.554   7.819   2.493  0.1652  0.2705  0.0963
 6596W        W10660   8.654   9.510   8.712  0.1609 -0.0444 -0.0100
 6597W        W10661   3.971   9.399   2.365  0.4284 -0.2467 -0.0588
 6598W        W10662   9.800  10.117   3.585  0.2204  0.1815 -0.0330
 6599W        W10663   9.538   8.251   2.599 -0.1015  0.1153  0.2875
 6600W        W10664   6.481   9.033   1.227 -0.1265 -0.2324 -0.0136
 6601W        W10665   3.577   8.227   1.900 -0.2152 -0.1571 -0.1639
 6602W        W10666   1.658   2.949   1.099 -0.0399  0.1581  0.0175
 6603W        W10667   8.554   3.188  11.327 -0.1823  0.0170  0.1658
 6604W        W10668   7.109   7.515   1.289 -0.0836  0.0785  0.0410
 6605W        W10669   6.746   4.354   3.384  0.0825 -0.4023  0.0132
 6606W        W10670   9.128   0.087  10.381 -0.1998  0.0542  0.0615
 6607W        W10671   1.753   1.626  10.391 -0.2724  0.3736  0.1038
 6608W        W10672   6.199   0.516   1.336  0.3499  0.0559  0.0857
 6609W        W10673   5.406  10.480   9.661 -0.0313  0.0052 -0.2033
 6610W        W10674   7.854   9.520   7.920 -0.1514 -0.1725  0.0218
 6611W        W10675   8.079   9.762   3.391  0.1938  0.3312  0.1620
 6612W        W10676   2.622  10.198   8.736  0.1614  0.4079 -0.0704
 6613W        W10677   6.747   7.703   2.584 -0.1308 -0.1554 -0.1558
 6614W        W10678   1.752   1.698   8.130  0.1174  0.1625 -0.0921
 6615W        W10679  10.467   0.226   7.782  0.0268 -0.3364 -0.0184
 6616W        W10680   4.176   5.953   8.872  0.0154  0.0613  0.0203
 6617W        W10681   3.818   6.684   2.458 -0.1108  0.0636 -0.0497
 6618W        W10682   4.877   6.324  10.295  0.2491 -0.6026 -0.2383
 6619W        W10683   6.201   2.395   8.640 -0.1929 -0.0410 -0.1524
 6620W        W10684   2.255   0.883   3.057 -0.1642  0.1872 -0.2663
 6621W        W10685   2.351   0.259   3.356  0.0739 -0.0632  0.2832
 6622W        W10686   2.568   9.047   3.219  0.1636 -0.0774 -0.0997
 6623W        W10687   4.227   7.288   3.105  0.1638 -0.1284 -0.3064
 6624W        W10688   1.276   6.603   1.231  0.1195 -0.0004  0.1476
 6625W        W10689   2.902   9.546   7.629  0.0828 -0.2084  0.0168
 6626W        W10690   2.212   3.929  11.162 -0.1383  0.1678  0.2429
 6627W        W10691   8.136   5.860  10.591  0.0420 -0.0061  0.5022
 6628W        W10692   8.469   1.970   0.509 -0.1627 -0.1020  0.2317
 6629W        W10693   5.639   4.271   7.834  0.0392 -0.2757  0.0188
 6630W        W10694   9.287   2.713   0.691 -0.1532 -0.4264 -0.2159
 6631W        W10695   1.581   1.706   1.198  0.1014 -0.2487 -0.1618
 6632W        W10696   7.806   3.144   7.791 -0.1685  0.0262  0.1498
 6633W        W10697   5.612   6.717  10.660  0.1399 -0.1287  0.1451
 6634W        W10698   6.934   3.996  10.168  0.1681  0.4270 -0.2070
 6635W        W10699   3.182   3.686   7.401  0.0522 -0.0970 -0.0555
 6636W        W10700   5.708   3.921   2.651 -0.0293 -0.1295 -0.0998
 6637W        W10701   6.408   5.266   3.197 -0.0321  0.1232  0.0110
 6638W        W10702  10.183   5.217   0.010  0.1015  0.1102  0.1635
 6639W        W10703   7.217   3.832   9.804  0.0162 -0.2739 -0.3136
 6640W        W10704   0.817   0.558   1.824  0.1466 -0.0761  0.1344
 6641W        W10705   8.253   9.455   7.362  0.1392 -0.1346  0.1242
 6642W        W10706   2.637   7.851   9.328  0.1549 -0.0542 -0.3962
 6643W        W10707   2.356   9.427  11.225  0.2537 -0.3607  0.0301
 6644W        W10708   0.556   0.544   4.077  0.0111  0.2098  0.0189
 6645W        W10709   0.664   4.151  10.479  0.3977  0.2924  0.0904
 6646W        W10710   5.754   2.534   0.450  0.0949 -0.1057 -0.0642
 6647W        W10711   9.210   7.795   0.385 -0.1188  0.2476  0.2558
 6648W        W10712   7.068   2.468   8.750 -0.1298  0.2005 -0.0232
 6649W        W10713   1.760   6.676   1.461 -0.1390  0.2636 -0.0299
 6650W        W10714   4.505   9.667   8.925  0.2348  0.0613 -0.1966
 6651W        W10715   8.989   2.096  11.004 -0.1618  0.1091 -0.0292
 6652W        W10716  10.050   5.149   1.821 -0.2598  0.1329  0.0599
 6653W        W10717   9.921   1.429   1.535  0.0793  0.2942 -0.2776
 6654W        W10718   6.378   6.288   9.201 -0.1340  0.4160  0.2234
 6655W        W10719   3.699   2.791   8.537 -0.2074 -0.0491  0.1764
 6656W        W10720   4.607   1.596   0.060 -0.0818  0.0982  0.1169
 6657W        W10721   0.951   4.455   1.116 -0.5036 -0.3803  0.1979
 6658W        W10722   7.863   7.543   0.386  0.1873  0.0900  0.1022
 6659W        W10723   2.268   1.408   3.102  0.1354  0.1930  0.1598
 6660W        W10724   4.985   5.378   2.419  0.0670 -0.1126  0.0667
 6661W        W10725   3.698   9.969   2.759  0.1308  0.0059  0.0175
 6662W        W10726   8.825   1.161   2.822  0.0339  0.2135  0.1929
 6663W        W10727   9.043   2.904  10.572 -0.3397  0.0778  0.0805
 6664W        W10728   4.941   3.142   2.611 -0.0948  0.0176  0.2074
 6665W        W10729   7.989   4.821   8.825  0.1170 -0.0407  0.1324
 6666W        W10730   7.029   8.658   3.203  0.0567  0.4533  0.1130
 6667W        W10731   9.956   3.345   2.556 -0.1311 -0.1099 -0.1298
 6668W        W10732   8.031   3.308   2.090  0.0569 -0.0132 -0.0194
 6669W        W10733   7.197   9.847  11.341  0.1985  0.0902 -0.0500
 6670W        W10734  10.463   3.042  11.155  0.1251  0.0707  0.0756
 6671W        W10735   5.849   9.293   0.957 -0.1395 -0.1773 -0.0726
 6672W        W10736   6.327   0.571   2.380 -0.1377  0.2759 -0.2481
 6673W        W10737   0.878   2.219   0.287 -0.1959 -0.0123 -0.0080
 6674W        W10738   3.139   0.844   9.651  0.1434 -0.0415  0.1208
 6675W        W10739   9.339   5.281   2.228 -0.0777  0.2694  0.1913
 6676W        W10740   4.898   1.587   8.556  0.0508 -0.0397  0.4474
 6677W        W10741   7.116   4.973   0.413 -0.3343 -0.0688 -0.0816
 6678W        W10742   7.178   2.136   8.367  0.1568 -0.0294 -0.3304
 6679W        W10743   1.841   5.702   8.930  0.0902 -0.2097 -0.1983
 6680W        W10744   5.031   8.304   9.496 -0.0678 -0.0077 -0.0438
 6681W        W10745   3.552   5.320  10.890  0.0600  0.1173 -0.1106
 6682W        W10746   0.881   1.144   9.836  0.1162  0.4361 -0.1457
 6683W        W10747   4.580   6.967   0.646  0.3904  0.2149  0.1997
 6684W        W10748   8.144   1.040   8.951  0.0249 -0.1705 -0.2575
 6685W        W10749   8.949   9.442   0.730 -0.4104 -0.0819 -0.3099
 6686W        W10750   9.166   0.062   3.332  0.1222  0.0679  0.2174
 6687W        W10751  10.010   2.587  10.425  0.0366  0.4192  0.1571
 6688W        W10752  10.269   2.996   3.601 -0.1147  0.2091  0.2712
 6689W        W10753   3.220   2.271   3.342 -0.0921 -0.2883 -0.1873
 6690W        W10754   4.441   1.909   3.338  0.2414  0.2512 -0.2265
 6691W        W10755   3.883   5.564   0.367 -0.2379 -0.1853  0.0920
 6692W        W10756   4.299   4.296   9.587  0.2079  0.1075  0.3287
 6693W        W10757   6.734   7.272   9.814  0.1872  0.1829  0.1838
 6694W        W10758   8.535   3.622   2.122 -0.0680 -0.0699 -0.1589
 6695W        W10759   7.476   1.596  10.158  0.0551  0.1908 -0.2574
 6696W        W10760   8.918   4.718   1.167  0.0721  0.3551  0.3277
 6697W        W10761   3.012   0.475   8.590 -0.1915 -0.0964  0.5004
 6698W        W10762   7.993   6.463   2.402 -0.0959 -0.1462 -0.1550
 6699W        W10763   7.965   0.024   2.530  0.1062  0.3468 -0.0903
 6700W        W10764   6.827   6.050   1.040 -0.2731  0.3659  0.2718
 6701W        W10765   9.809   3.097   1.757  0.2836  0.2093  0.4137
 6702W        W10766   6.483   6.839   2.483 -0.2014  0.1797 -0.0581
 6703W        W10767   3.629   4.476   0.990 -0.0121  0.1927 -0.3125
 6704W        W10768   6.245   6.449   2.338  0.1625 -0.0219  0.0907
 6705W        W10769  10.583   2.384  11.089  0.0445  0.2267  0.2708
 6706W        W10770   1.477   4.822   9.902 -0.1145 -0.0191  0.1467
 6707W        W10771   5.433   2.355   0.117  0.2196 -0.2833  0.5446
 6708W        W10772   2.302   2.584   7.532  0.1323 -0.1618 -0.4460
 6709W        W10773   9.436   8.431   9.486  0.2007  0.0951  0.2488
 6710W        W10774   4.060   4.127   9.207 -0.2384 -0.1789 -0.0113
 6711W        W10775   6.250  10.617   2.663  0.3313 -0.3704 -0.2239
 6712W        W10776   8.364   2.430   2.659 -0.1942 -0.1482 -0.0505
 6713W        W10777  10.232   0.134  10.638  0.2497 -0.1570  0.3878
 6714W        W10778   7.159   6.525   9.363 -0.2447 -0.3304 -0.1802
 6715W        W10779  10.143   6.782   8.781  0.3628 -0.0829  0.1417
 6716W        W10780   5.398   4.281   2.573  0.0149  0.0604  0.0983
 6717W        W10781   7.639   4.654   9.495  0.1998  0.2188 -0.1473
 6718W        W10782   6.721   1.789   8.165 -0.0014  0.0497  0.2518
 6719W        W10783  10.285   4.319   3.123  0.0580 -0.1080 -0.3099
 6720W        W10784   5.463  10.196   2.620 -0.2623  0.0779  0.0718
 6721W        W10785   1.796   0.074  10.011 -0.0097 -0.2211  0.1872
 6722W        W10786   2.651   0.048   3.683 -0.0167 -0.1457 -0.0980
 6723W        W10787   9.095  10.084   9.330  0.2721  0.1400  0.2617
 6724W        W10788   0.020   1.591   1.930 -0.1760 -0.0270  0.1457
 6725W        W10789   6.064   9.189   8.685 -0.1836  0.4019 -0.2178
 6726W        W10790   6.963   6.012  11.334 -0.0467 -0.0196 -0.0384
 6727W        W10791   6.841   9.961   2.575  0.1670  0.1277 -0.0748
 6728W        W10792   2.758   7.514   2.844  0.0035 -0.0103 -0.3525
 6729W        W10793   8.651   3.569   9.470  0.4125  0.2085 -0.1109
 6730W        W10794   9.373  10.169   2.422  0.2494 -0.0187 -0.1256
 6731W        W10795   1.058   2.348   0.712  0.1026 -0.1795  0.2060
 6732W        W10796   2.253   2.791  10.378  0.0592  0.0741 -0.0721
 6733W        W10797   1.719   2.357   3.233  0.0465  0.2594  0.1027
 6734W        W10798   8.823   1.240   8.360 -0.1707  0.0398 -0.0296
 6735W        W10799   0.333   6.258   0.573 -0.1855  0.1299 -0.1328
 6736W        W10800   3.449   5.886   0.666 -0.0541 -0.0587 -0.0212
 6737W        W10801   8.187   8.108   8.906  0.2508 -0.3792  0.2819
 6738W        W10802   0.094   0.384   8.487  0.0144  0.1063 -0.2066
 6739W        W10803   3.197   6.461   2.460 -0.0388  0.0099 -0.2039
 6740W        W10804   3.255   9.768   8.519  0.1836  0.1342 -0.1234
 6741W        W10805   0.008   6.682   8.642 -0.0599 -0.2242 -0.0123
 6742W        W10806   6.928   5.307   8.835 -0.0410  0.0347  0.0801
 6743W        W10807   7.278   0.848   8.760  0.0209 -0.0465  0.1884
 6744W        W10808   7.964   4.921   0.817 -0.3903 -0.1700 -0.1770
 6745W        W10809   2.421   4.164   0.069  0.0638 -0.0784 -0.0829
 6746W        W10810   3.797   1.350   1.867 -0.0156 -0.2221  0.0350
 6747W        W10811   7.207   6.366   1.140 -0.0514  0.2623 -0.0823
 6748W        W10812   7.831   2.047   0.379  0.0774  0.2273 -0.0364
 6749W        W10813   8.065   6.090   2.759  0.1185  0.1778 -0.0381
 6750W        W10814   3.227   2.882  10.073 -0.2131  0.1877 -0.3953
 6751W        W10815   1.855   7.228  11.379 -0.2313 -0.0824 -0.0431
 6752W        W10816   7.857   7.551  11.433 -0.1839  0.1981 -0.1755
 6753W        W10817   2.996  10.176   1.429  0.1201  0.0376  0.1609
 6754W        W10818   4.883   9.370   9.220 -0.0275  0.2220  0.2588
 6755W        W10819   0.520   5.124   0.565  0.1767 -0.0905  0.2586
 6756W        W10820   2.113   8.195   2.716 -0.3880  0.0314 -0.0427
 6757W        W10821   7.518   0.183  11.504  0.0388  0.0678  0.0737
 6758W        W10822   2.704   5.751   0.897  0.0627 -0.0335  0.1027
 6759W        W10823   5.932   4.994   3.323  0.1755 -0.2428 -0.1715
 6760W        W10824   1.912   8.506   8.052  0.0807 -0.1586 -0.1662
 6761W        W10825   8.478   8.218   8.529  0.1864 -0.0530  0.1669
 6762W        W10826   1.356   1.989  11.175  0.1010 -0.2457  0.1829
 6763W        W10827   7.800   8.260   2.891  0.0903  0.1608  0.1869
 6764W        W10828   7.169   7.544   9.505  0.2089 -0.0652  0.3818
 6765W        W10829   1.715   0.754   1.761  0.1606 -0.4611 -0.1231
 6766W        W10830   1.920   4.569   1.210  0.2713  0.2912 -0.1601
 6767W        W10831   3.788   8.641   2.217 -0.3912 -0.0328  0.0104
 6768W        W10832   3.760   9.383   9.388  0.1834  0.1423  0.1475
 6769W        W10833   0.936   2.757   2.283  0.3755  0.0625 -0.1897
 6770W        W10834   1.269   9.606   9.883  0.0154  0.0820  0.1410
 6771W        W10835   6.285   7.015   3.747  0.0935  0.1270 -0.0521
 6772W        W10836   5.543   9.313   0.557 -0.1052  0.0672  0.0703
 6773W        W10837   7.065   8.844  10.805  0.0661 -0.2518  0.0957
 6774W        W10838   8.637   8.083   2.802  0.0620 -0.0794  0.2981
 6775W        W10839   7.792   8.818   0.799 -0.4004 -0.0540 -0.1575
 6776W        W10840   4.596   1.941   3.829 -0.0855 -0.0616 -0.1127
 6777W        W10841   3.679   6.833   4.202 -0.1390 -0.4149  0.0179
 6778W        W10842   6.766   8.931   0.317 -0.1947 -0.2101 -0.0502
 6779W        W10843   3.351   8.460  10.188  0.0727 -0.1143  0.0390
 6780W        W10844   9.464   8.430   8.410  0.0239  0.0313  0.1836
 6781W        W10845   3.557   1.689   1.561 -0.1197 -0.3221  0.0530
 6782W        W10846   7.702   6.083   1.691  0.0656  0.0030  0.0613
 6783W        W10847   1.851   3.325   3.059 -0.2579  0.2243  0.1976
 6784W        W10848   1.946   1.863   1.911 -0.0425 -0.1773  0.1490
 6785W        W10849   2.798   6.412  10.047  0.3320  0.0038 -0.0081
 6786W        W10850   7.660   0.667   3.557  0.1919  0.1341 -0.4264
 6787W        W10851   2.387   9.804  10.793 -0.1264  0.1350  0.1543
 6788W        W10852   5.661   7.467   0.650 -0.1157  0.0008 -0.0852
 6789W        W10853   4.042   5.297  11.122 -0.0729  0.1735 -0.0449
 6790W        W10854   6.500   4.649   2.072  0.1112 -0.3326  0.0354
 6791W        W10855   2.506   9.534   9.909 -0.1917 -0.2464  0.3815
 6792W        W10856   5.102   1.870   1.554  0.2630 -0.1432 -0.0358
 6793W        W10857   1.704   2.081  11.576  0.0001  0.0936  0.0051
 6794W        W10858   5.835   0.367  10.142 -0.0063 -0.2210 -0.1244
 6795W        W10859   7.010   6.898   0.120  0.2965 -0.0808 -0.4000
 6796W        W10860   6.281   8.502   0.823 -0.1059  0.0977  0.1206
 6797W        W10861   8.939   7.665   2.673 -0.0257  0.2616  0.1107
 6798W        W10862   3.924   6.166   2.497 -0.0629  0.3314  0.2196
 6799W        W10863   2.536   5.969  11.566  0.0936  0.1228  0.4801
 6800W        W10864   3.343   5.354  10.369 -0.0133 -0.1386  0.0088
 6801W        W10865   4.747   2.219   1.742 -0.0890 -0.2091 -0.2783
 6802W        W10866   2.061   6.028   1.861  0.1764  0.0568 -0.0027
 6803W        W10867   8.203   8.397   8.143  0.0917  0.0409  0.0183
 6804W        W10868   4.188   4.569   3.016 -0.2912 -0.0201  0.1746
 6805W        W10869   1.975   9.921  11.535 -0.0560 -0.1246  0.2407
 6806W        W10870   3.441   8.717   0.418 -0.0949  0.2929  0.1651
 6807W        W10871   7.451   4.277   0.686  0.2492  0.0136  0.1586
 6808W        W10872   4.821   3.754   3.216 -0.1774  0.1336 -0.4367
 6809W        W10873   8.031   8.621   3.214 -0.1709  0.0492 -0.0702
 6810W        W10874   2.722   9.472   0.007 -0.0134  0.0627 -0.0970
 6811W        W10875   7.512   2.807  10.910  0.1204 -0.0621 -0.0072
 6812W        W10876   1.482   6.495   8.875  0.2169  0.2800  0.1157
 6813W        W10877   1.975   6.725   0.673 -0.0419 -0.0702 -0.2789
 6814W        W10878   0.167   9.654   7.920 -0.0629  0.2925 -0.1907
 6815W        W10879   4.343   0.510  10.094 -0.1434  0.0818 -0.2197
 6816W        W10880   6.191   2.801   8.954 -0.0884  0.0025 -0.0880
 6817W        W10881   5.874   7.251   9.040  0.2042 -0.1147 -0.1380
 6818W        W10882   9.664   7.074   0.302 -0.0291  0.2139  0.0641
 6819W        W10883  10.141  10.067  10.211 -0.2615 -0.1276 -0.0280
 6820W        W10884   4.822   3.995  10.362 -0.1492 -0.1454 -0.1178
 6821W        W10885   3.781   6.544   9.797 -0.2630  0.0997 -0.1736
 6822W        W10886   4.726   9.872  10.404  0.0076  0.0564 -0.0075
 6823W        W10887   3.224   8.669   9.227 -0.2126  0.1527 -0.0473
 6824W        W10888   7.523   9.370   2.564 -0.3644  0.0082  0.1793
 6825W        W10889   2.402   1.547   9.103 -0.0941 -0.2674 -0.0229
 6826W        W10890   5.717   0.126   0.927 -0.0729 -0.3083  0.2340
 6827W        W10891   9.401   9.212   9.582 -0.2216  0.1357  0.0711
 6828W        W10892   2.625   0.846   8.671  0.0263  0.1396 -0.0223
 6829W        W10893   3.120  10.423   3.572 -0.0769  0.0327 -0.0694
 6830W        W10894  10.017   0.612   3.401  0.0926  0.2384 -0.1593
 6831W        W10895   7.476   4.987   3.319 -0.1974 -0.0360  0.0333
 6832W        W10896   2.268   1.000   3.993 -0.0709  0.2070 -0.0302
 6833W        W10897   3.493   9.080   3.449  0.0848 -0.1242  0.0235
 6834W        W10898   4.137   4.789   3.471  0.0497  0.1510 -0.0704
 6835W        W10899  10.299   2.751   3.194  0.1804 -0.0022 -0.1860
 6836W        W10900   0.053   5.277   0.276  0.0521  0.0520 -0.0762
 6837W        W10901   3.553  10.644   3.423 -0.0207 -0.2124  0.1110
 6838W        W10902   2.082   3.611   2.035  0.0327  0.1383  0.0049
 6839W        W10903   9.248   1.790   9.754 -0.0144 -0.0564 -0.1546
 6840W        W10904   7.921   0.809   1.020  0.0149  0.1484 -0.2826
 6841W        W10905   9.483   3.249   2.086 -0.0737  0.3018 -0.0279
 6842W        W10906   3.220   1.020   7.995 -0.4319  0.3761  0.0548
 6843W        W10907   0.477   7.018   1.806 -0.0495  0.0585 -0.0896
 6844W        W10908   4.894   2.005   0.790 -0.2054 -0.0444 -0.0610
 6845W        W10909   0.404   1.400  11.097  0.1453 -0.1724  0.0927
 6846W        W10910   5.323   8.820   2.404  0.2069 -0.0138 -0.3538
 6847W        W10911   2.764   1.264  11.334 -0.0796  0.1486  0.4032
 6848W        W10912   7.043   0.106  11.203  0.0262  0.2270  0.2360
 6849W        W10913   8.565   8.589  10.989 -0.3374 -0.1395 -0.0875
 6850W        W10914   0.195   8.587   0.747  0.1894 -0.3837  0.0427
 6851W        W10915   9.404   4.644   8.306 -0.1609  0.0208  0.0799
 6852W        W10916   4.577   3.649  11.298 -0.3073  0.2224  0.1737
 6853W        W10917   5.629   8.786   3.496  0.1126  0.1187 -0.0287
 6854W        W10918   2.377   3.007  11.110 -0.0861 -0.0253 -0.1690
 6855W        W10919   6.799   7.560   0.103 -0.3482 -0.1713 -0.1069
 6856W        W10920   1.994   6.189   8.693  0.0021 -0.1268 -0.0444
 6857W        W10921   3.099  10.622  11.045 -0.0000 -0.1221 -0.0933
 6858W        W10922   5.202   9.016   0.441  0.0200 -0.3601 -0.0472
 6859W        W10923   1.185   2.337   3.124 -0.0561 -0.2139  0.0561
 6860W        W10924   2.560   8.934  11.171 -0.1896 -0.1967 -0.0035
 6861W        W10925   6.309   1.730   7.672  0.0957 -0.2102  0.1460
 6862W        W10926   5.001   1.355  10.428  0.1315 -0.0113 -0.1107
 6863W        W10927   8.067   3.607   1.681  0.1330 -0.1425  0.0517
 6864W        W10928   3.856   2.404   8.771 -0.1467 -0.2640  0.2486
 6865W        W10929   3.229   3.593   8.276 -0.0369 -0.0021  0.2226
 6866W        W10930   5.481   8.666   0.332 -0.0814  0.0344 -0.1746
 6867W        W10931   5.109   5.968   3.194 -0.0438  0.3408 -0.1117
 6868W        W10932   7.348   1.389  10.685 -0.1299  0.3126 -0.2724
 6869W        W10933   5.120   3.495   2.909  0.3883  0.1711 -0.2358
 6870W        W10934   2.818   2.280   8.699  0.1136 -0.0506  0.3753
 6871W        W10935   8.954   3.300   8.611 -0.0730 -0.2698  0.0731
 6872W        W10936   4.272   8.651   1.403  0.1852  0.1320  0.0116
 6873W        W10937  10.263   0.409  11.143 -0.1378 -0.5172 -0.1083
 6874W        W10938   3.810   2.328   0.785  0.3230  0.2316  0.1115
 6875W        W10939   9.581   3.871   0.927 -0.0211 -0.2762  0.1399
 6876W        W10940   7.191   6.184   1.566 -0.0231 -0.0834  0.0644
 6877W        W10941   7.984  10.340   8.956  0.0916 -0.1326 -0.1772
 6878W        W10942   1.282   3.880   7.988 -0.4802 -0.1578  0.2078
 6879W        W10943   9.328  10.083   1.325  0.0039  0.0869 -0.1534
 6880W        W10944   6.707   3.552   0.184  0.3886  0.3850  0.2552
 6881W        W10945  10.533   4.861  11.515 -0.3547 -0.0251 -0.1283
 6882W        W10946   9.287   1.356  10.059 -0.0391  0.1167 -0.2190
 6883W        W10947   4.498   5.325  10.661  0.0234 -0.0783 -0.0487
 6884W        W10948   2.448   8.277   9.582  0.0904  0.0864 -0.1017
 6885W        W10949   5.442   8.754   4.006 -0.0743  0.0958 -0.4436
 6886W        W10950   7.786   3.138   9.709  0.0056 -0.2670 -0.3003
 6887W        W10951   5.525   2.823  10.664  0.3285 -0.1376 -0.1785
 6888W        W10952   6.618   6.748   0.388  0.2307 -0.1826 -0.0397
 6889W        W10953   1.690   3.408   0.159 -0.1552  0.1517  0.0182
 6890W        W10954   9.683   0.890   0.071 -0.1853  0.0414 -0.2061
 6891W        W10955   9.143   3.812   2.723 -0.3853  0.0019  0.0427
 6892W        W10956   7.058  10.472   9.480 -0.0332 -0.1006 -0.1044
 6893W        W10957   4.847   3.258   3.625  0.1728 -0.0464  0.0509
 6894W        W10958   7.563   4.690   0.490  0.1879 -0.0408  0.3776
 6895W        W10959   7.022   0.927   9.781  0.0061  0.2981 -0.0608
 6896W        W10960   1.744   7.575   9.039  0.1757  0.2355  0.0206
 6897W        W10961   7.680   2.457   0.073 -0.1089  0.0163  0.3718
 6898W        W10962   6.569   2.538   1.182 -0.0614  0.1913 -0.3181
 6899W        W10963   2.628   1.236  10.363  0.1060 -0.2022 -0.1548
 6900W        W10964   3.249   4.425   3.250 -0.2916 -0.0911  0.0642
 6901W        W10965   1.453   7.866   3.633 -0.0274 -0.1105  0.3812
 6902W        W10966   6.438   5.332  10.262 -0.2537  0.2152 -0.0366
 6903W        W10967   1.584   0.595  11.238 -0.1916 -0.1123 -0.4831
 6904W        W10968   1.426   9.158   3.345  0.0342 -0.1725 -0.1405
 6905W        W10969   2.864   8.418   8.454 -0.0286 -0.3354 -0.4273
 6906W        W10970   9.858   6.796   2.651  0.1744 -0.1295  0.3022
 6907W        W10971   8.096   3.735   9.142  0.2620  0.0579 -0.1126
 6908W        W10972   5.608   8.064   1.945 -0.1514 -0.1895  0.0631
 6909W        W10973   5.097   3.302   8.801  0.2943  0.2027  0.4759
 6910W        W10974   9.763   4.516   0.349  0.0981 -0.0144 -0.0600
 6911W        W10975   1.629   5.433   8.426  0.2026 -0.0427 -0.1272
 6912W        W10976   7.826   3.895   0.585  0.3222 -0.2294  0.0494
 6913W        W10977   3.873   2.854  10.235 -0.0606 -0.2386  0.0581
 6914W        W10978   7.590   5.420   3.893  0.0417 -0.2170 -0.1333
 6915W        W10979   4.136   5.705   2.212 -0.2463 -0.0139 -0.1844
 6916W        W10980   0.400   5.513   2.621 -0.1360  0.1464 -0.0044
 6917W        W10981  10.283   1.577   0.124 -0.0343  0.4596 -0.0041
 6918W        W10982   5.621   4.736   9.135 -0.0160  0.2401  0.0406
 6919W        W10983   4.645   4.493   2.788  0.0839 -0.0597 -0.0091
 6920W        W10984   3.317   3.086   3.177 -0.0035  0.0076 -0.0971
 6921W        W10985   3.269   7.150  11.493 -0.0674  0.0956  0.0977
 6922W        W10986   4.000  10.164   3.176  0.1282 -0.3949 -0.0474
 6923W        W10987   1.998   1.996   9.158 -0.0243  0.0534  0.3171
 6924W        W10988   4.151   1.813  10.832  0.1322 -0.2195 -0.3032
 6925W        W10989   2.952   0.031   7.401 -0.1017 -0.0960 -0.2711
 6926W        W10990   4.273   5.168   9.218 -0.1338 -0.2004  0.3509
 6927W        W10991   8.190   5.319   3.213 -0.1476  0.1502  0.1523
 6928W        W10992   9.070   2.924   2.264  0.0663 -0.2071  0.4386
 6929W        W10993   2.859   1.104   2.615  0.0954 -0.0632 -0.1022
 6930W        W10994   0.053   7.539   9.171 -0.2996 -0.0884 -0.2161
 6931W        W10995   7.510   1.651   0.567 -0.1639 -0.0089 -0.0611
 6932W        W10996   8.788   4.654  11.457 -0.1896  0.0924 -0.1199
 6933W        W10997   1.292   6.246   2.884  0.1301  0.1426 -0.1225
 6934W        W10998   9.478   7.762   1.789  0.1481  0.1322  0.1902
 6935W        W10999   4.951   6.277   8.902  0.0819 -0.0646  0.0835
 6936W        W11000   5.411   3.167   0.499 -0.0097  0.0940  0.1520
 6937W        W11001   1.909   5.873   2.411 -0.0991 -0.0893 -0.2977
 6938W        W11002   6.728   6.732   3.671  0.1207 -0.1071  0.1969
 6939W        W11003   6.428   5.915   3.927  0.1497  0.1433  0.2106
 6940W        W11004   3.411  10.062   2.303 -0.0393 -0.0254  0.0030
 6941W        W11005   1.449   0.134   9.625  0.1492 -0.0378 -0.1381
 6942W        W11006   0.043   6.265   3.036  0.0612 -0.2692 -0.1366
 6943W        W11007   8.710   8.169   0.896 -0.0171  0.0125  0.0782
 6944W        W11008   2.228   9.535   1.064  0.0160 -0.0238  0.1195
 6945W        W11009   0.931   4.789   8.236 -0.0908  0.0036 -0.1311
 6946W        W11010   1.894   4.395   3.844 -0.1230  0.5891 -0.0288
 6947W        W11011   0.276   0.088   7.618 -0.3234 -0.0872 -0.0227
 6948W        W11012   4.414   2.720  10.308 -0.0896  0.0585 -0.3289
 6949W        W11013   2.072   5.730  11.423  0.1802  0.5549 -0.1752
 6950W        W11014   9.722   7.111   8.971  0.1720 -0.2326  0.4134
 6951W        W11015   7.256   4.343   9.644  0.0824 -0.1251  0.1404
 6952W        W11016   0.008   0.889   2.934  0.2674  0.1280  0.4557
 6953W        W11017   0.862   6.951   0.590 -0.0052  0.1512 -0.2407
 6954W        W11018   1.736   9.538   0.889 -0.0053  0.2785 -0.1216
 6955W        W11019   6.687   5.622   2.784 -0.0789 -0.0258 -0.0463
 6956W        W11020   5.549   3.841   2.188 -0.0777  0.1524  0.4474
 6957W        W11021   9.488   5.879  11.002  0.2108  0.0631 -0.1714
 6958W        W11022   4.458   1.077  10.024 -0.1387  0.0722 -0.0577
 6959W        W11023   4.706   3.571   9.606  0.0940 -0.0420  0.1672
 6960W        W11024   9.324   9.219  11.407  0.1088 -0.1957  0.0216
 6961W        W11025   3.715   0.016   1.947  0.3718 -0.1418  0.1590
 6962W        W11026   7.597   8.943   8.406  0.0034 -0.1204  0.1381
 6963W        W11027   9.798   6.980  10.357 -0.2265 -0.0380  0.2250
 6964W        W11028   8.337   5.812   9.621 -0.0848 -0.2312 -0.0372
 6965W        W11029   9.042   8.907   3.249  0.0497  0.1255  0.2433
 6966W        W11030   6.528   7.153   1.005 -0.3014 -0.1124  0.0521
 6967W        W11031   8.734   2.341   3.992 -0.2103  0.0492  0.3293
 6968W        W11032   9.422   7.858  10.179 -0.2370 -0.1347  0.2059
 6969W        W11033   2.664   2.707   9.944  0.0680 -0.3005 -0.2819
 6970W        W11034   5.267   1.289   8.268  0.1094  0.0739 -0.0880
 6971W        W11035   2.849   7.719   7.760  0.3976  0.0581  0.0563
 6972W        W11036   3.673   5.517  10.019 -0.1946 -0.0681  0.1820
 6973W        W11037   6.696   3.520   9.075 -0.1309  0.0564 -0.2162
 6974W        W11038   4.654   7.215   8.207  0.0747  0.0022  0.3643
 6975W        W11039   0.741   2.920   8.838  0.0635  0.0175 -0.2250
 6976W        W11040   5.918   2.108   2.415 -0.2476  0.0098 -0.0699
 6977W        W11041  10.410   8.610   8.768 -0.3149 -0.0528  0.0736
 6978W        W11042   1.405   0.606  10.679 -0.1927 -0.3148  0.0687
 6979W        W11043   9.835   0.546   8.718  0.0187  0.1315  0.5938
 6980W        W11044   3.390   2.621   7.393 -0.0382  0.1575 -0.1502
 6981W        W11045  10.511   8.990   2.600  0.2427 -0.3505 -0.1000
 6982W        W11046   8.600  10.177   0.862  0.0206 -0.0106 -0.2335
 6983W        W11047   8.076   1.169   7.828  0.2575 -0.1798  0.0908
 6984W        W11048   7.342  10.233   8.174 -0.0474 -0.2590 -0.1961
 6985W        W11049   9.610   0.610  10.439  0.1559  0.2506 -0.1957
 6986W        W11050   7.125   4.436  10.238 -0.1226 -0.0023 -0.0857
 6987W        W11051   4.867   3.368   4.150  0.3334  0.2702 -0.1959
 6988W        W11052   4.978   6.907  11.429 -0.2726  0.0205  0.2129
 6989W        W11053   8.705   8.474   9.816 -0.2560 -0.1040 -0.0334
 6990W        W11054   1.868   3.920   0.478  0.0220  0.1239 -0.1024
 6991W        W11055   6.876   0.363   2.644 -0.0878 -0.3384  0.0293
 6992W        W11056   7.700   7.266  10.466  0.0943  0.2192 -0.1010
 6993W        W11057   0.618   8.457   8.697 -0.3312  0.0360  0.1206
 6994W        W11058   5.145   8.245   8.188 -0.3825  0.0997  0.0874
 6995W        W11059   2.099   4.081   3.165 -0.1598 -0.3043  0.0254
 6996W        W11060   9.365   3.144   3.620 -0.2281 -0.2468 -0.4490
 6997W        W11061   5.805   2.911   7.286  0.1612  0.0488 -0.3492
 6998W        W11062   7.431  10.466   9.858  0.2406  0.0016  0.1662
 6999W        W11063  10.060   9.887  10.664  0.1406 -0.4785  0.0577
 7000W        W11064   7.750   7.738  10.711 -0.2442  0.0627 -0.1876
 7001W        W11065   8.482   8.329   9.312  0.1503  0.1754  0.0409
 7002W        W11066   8.182   4.985  10.519 -0.0851  0.1010 -0.0588
 7003W        W11067  10.548   6.833   2.626  0.0129 -0.1437  0.2285
 7004W        W11068   9.121   7.628   1.395  0.1247 -0.1422 -0.2691
 7005W        W11069   5.622   4.382   8.742 -0.1860 -0.1637 -0.0838
 7006W        W11070   9.821   7.607  10.561 -0.2019  0.0326 -0.0396
 7007W        W11071   8.893   8.564   9.143  0.1167 -0.2467  0.0956
 7008W        W11072   9.015   5.923  10.172 -0.3195  0.2408  0.1517
 7009W        W11073   7.965   6.886   3.272 -0.1777 -0.0866 -0.1499
 7010W        W11074   1.730   2.742  10.350 -0.1080  0.2268  0.3379
 7011W        W11075   5.825   7.489   1.894  0.3897  0.1394 -0.1305
 7012W        W11076   7.983   6.795   8.635 -0.2348 -0.1377 -0.1599
 7013W        W11077   1.355   6.732   2.639  0.2671 -0.0251 -0.1554
 7014W        W11078  10.433   3.968  11.227  0.0825 -0.2075 -0.0826
 7015W        W11079   3.775   7.740   2.256 -0.0494  0.1526 -0.3775
 7016W        W11080   8.645   0.898   0.492 -0.3059  0.1569  0.2753
 7017W        W11081   5.065   2.736   8.051 -0.1387 -0.1846 -0.0525
 7018W        W11082   8.967   0.738   1.352  0.2417 -0.0556  0.2532
 7019W        W11083   3.041   3.626   8.777  0.0780  0.2853  0.3071
 7020W        W11084   7.399   0.016  10.817 -0.2018  0.1806 -0.1406
 7021W        W11085   0.281   9.499   0.784  0.1489  0.0778 -0.1334
 7022W        W11086   8.711   7.236   1.103  0.1413  0.1888 -0.2656
 7023W        W11087   9.331   4.302  10.409 -0.0908  0.0483 -0.2305
 7024W        W11088   2.661   8.608   2.385 -0.0786 -0.1444 -0.1722
 7025W        W11089   4.847   7.566   9.656  0.0965 -0.1271  0.1451
 7026W        W11090   3.390   7.851   7.944  0.3078  0.1544  0.0855
 7027W        W11091   2.656   4.270   3.288  0.0421  0.0928 -0.0559
 7028W        W11092   9.807   0.403  11.435  0.0535 -0.0356  0.0594
 7029W        W11093   9.828   7.545   2.612  0.1425 -0.0037  0.2246
 7030W        W11094   9.365   4.298   9.213 -0.0851  0.1606 -0.3209
 7031W        W11095   9.952  10.464   0.509 -0.0096 -0.0948 -0.0763
 7032W        W11096   9.775  10.183   9.361  0.2686 -0.0206  0.1836
 7033W        W11097   8.617   1.181   0.871  0.1594 -0.2021  0.0169
 7034W        W11098   7.985   0.728  10.702 -0.0111  0.0265  0.2736
 7035W        W11099   1.126   9.098   7.321  0.0789  0.3877  0.1231
 7036W        W11100   8.224  10.183   1.757  0.0476 -0.0749  0.1221
 7037W        W11101   5.950   1.963   1.860  0.0210  0.1756  0.0677
 7038W        W11102   7.342   2.594   2.442  0.2164 -0.0594  0.1441
 7039W        W11103  10.389   4.694  10.534 -0.1489  0.2170  0.0675
 7040W        W11104   1.627   6.133   9.281 -0.0862  0.2835 -0.0139
 7041W        W11105   7.167   8.393   0.585 -0.1326 -0.2156  0.2427
 7042W        W11106   3.405   9.598  10.978  0.0009  0.2250 -0.1742
 7043W        W11107   5.466   6.889   0.062 -0.0833  0.0861 -0.0179
 7044W        W11108   9.741   6.788   0.649 -0.2358 -0.0756 -0.3438
 7045W        W11109   5.369   6.399   2.295  0.1349 -0.0050 -0.1258
 7046W        W11110   9.566   2.830  10.569 -0.0160  0.1346  0.1058
 7047W        W11111   3.581   3.545   8.700  0.5081  0.0484  0.2467
 7048W        W11112   4.094   0.847   9.405 -0.2797 -0.0142  0.1069
 7049W        W11113   5.291   9.585  11.231 -0.2490 -0.1181  0.2714
 7050W        W11114   5.867  10.323   1.858  0.1585 -0.1473  0.0438
 7051W        W11115   5.385   4.978   3.395 -0.3693  0.0499 -0.1855
 7052W        W11116   4.414   4.899   0.294  0.0072  0.0528  0.1198
 7053W        W11117   4.997   8.940   3.855 -0.1628 -0.1238  0.0325
 7054W        W11118   3.430   0.145   9.620 -0.0426  0.0965 -0.2859
 7055W        W11119   2.523   0.741   3.465  0.2141  0.0782 -0.1576
 7056W        W11120   7.026   8.226   9.766  0.2063  0.2645 -0.0816
 7057W        W11121   9.984   3.526   0.800  0.0778  0.0834 -0.1256
 7058W        W11122   6.870   9.229   0.829  0.0006  0.0915 -0.4358
 7059W        W11123   5.489   6.771   4.015 -0.3463  0.1136  0.0709
 7060W        W11124   9.188   4.323   1.311  0.1128 -0.2006  0.0023
 7061W        W11125   0.083   8.445  10.485 -0.0797  0.0491 -0.2521
 7062W        W11126   8.010   5.845  11.553 -0.1378 -0.1381  0.0864
 7063W        W11127   2.076   5.925   1.046 -0.0525 -0.0212 -0.0350
 7064W        W11128   7.343   1.791   2.893 -0.2436 -0.4470  0.0703
 7065W        W11129   9.601   4.429   0.923 -0.0507  0.1429  0.4308
 7066W        W11130   5.179   6.805   9.741 -0.2201 -0.0268 -0.0145
 7067W        W11131   3.400   4.020   1.092 -0.3153 -0.0736 -0.1238
 7068W        W11132   6.396   8.128   2.476 -0.2998  0.0461  0.2352
 7069W        W11133   0.476   1.973   3.206  0.1426  0.2863 -0.1760
 7070W        W11134   8.076  10.445   9.401 -0.2205 -0.1708  0.1516
 7071W        W11135   8.932   7.591  10.278 -0.0770  0.1045 -0.1961
 7072W        W11136  10.235   0.643   1.129 -0.0751  0.0595 -0.0613
 7073W        W11137   5.960   6.664   9.630  0.1150  0.2115  0.0963
 7074W        W11138   0.664   8.096   1.928  0.1022 -0.1145  0.3856
 7075W        W11139   1.674   9.364   3.826  0.0680 -0.1132 -0.0707
 7076W        W11140  10.562   7.384   7.918  0.0640 -0.0929  0.1017
 7077W        W11141   8.908   0.665   8.612  0.3633 -0.1805 -0.0395
 7078W        W11142   7.956   3.712  11.230 -0.0171 -0.2620  0.0256
 7079W        W11143   0.188   8.694   8.538  0.1263  0.0838  0.2978
 7080W        W11144   4.923   7.875   9.231 -0.1181  0.1055  0.0827
 7081W        W11145   8.705   8.449   7.982  0.2361  0.1395  0.2001
 7082W        W11146   0.443   2.699   8.339 -0.2058 -0.0202 -0.1769
 7083W        W11147   8.259   4.910   2.316  0.1515 -0.0808  0.1429
 7084W        W11148   2.257   4.799   9.590 -0.0659 -0.2903  0.3879
 7085W        W11149   8.611  10.174   7.548 -0.1735 -0.3700 -0.3182
 7086W        W11150   3.230   9.923  10.417  0.3673 -0.0121  0.0642
 7087W        W11151   8.250   6.634  11.024  0.0257 -0.0069 -0.0671
 7088W        W11152   1.331   8.962  10.397  0.2099 -0.3129  0.3144
 7089W        W11153   3.325   8.797   8.192  0.1731 -0.1218  0.0515
 7090W        W11154   3.419   5.757   9.650  0.1541  0.0270  0.0685
 7091W        W11155   8.535   4.900   0.220 -0.2632  0.0762 -0.0072
 7092W        W11156   5.710   6.805   8.872 -0.3441  0.2078  0.1848
 7093W        W11157  10.378   9.453   2.867  0.0943  0.0885 -0.2423
 7094W        W11158  10.393   9.333   1.234  0.1113 -0.1277 -0.2135
 7095W        W11159   2.880  10.284   2.083  0.0171  0.4900  0.1157
 7096W        W11160   2.302   4.909   1.014 -0.0987  0.1861 -0.0155
 7097W        W11161   3.094   5.956   3.988  0.0694  0.1147  0.0923
 7098W        W11162   3.986   2.078   9.635  0.3152 -0.1752  0.0579
 7099W        W11163   7.396   7.511   3.796  0.0782 -0.2685 -0.1711
 7100W        W11164   3.767   1.126   8.668 -0.3402  0.1148 -0.1622
 7101W        W11165   9.768  10.307   2.654 -0.2432 -0.1600  0.2016
 7102W        W11166   1.524   3.179   3.371  0.3755 -0.2679 -0.0403
 7103W        W11167   1.217   6.710   9.608  0.0564 -0.1264 -0.0207
 7104W        W11168   8.935   6.610  10.111 -0.1760 -0.1129 -0.1447
 7105W        W11169   5.796   7.321   0.165 -0.1446  0.1324 -0.0098
 7106W        W11170   8.902   9.652   1.598  0.1767  0.3628  0.1693
 7107W        W11171   1.143   4.037   2.425  0.3353 -0.2094 -0.0667
 7108W        W11172   6.285   1.064   2.427  0.1794  0.2365 -0.0053
 7109W        W11173   8.252   1.086   0.130 -0.0655  0.3197  0.1893
 7110W        W11174   2.196   3.583   0.265 -0.1710 -0.1616  0.2212
 7111W        W11175   1.969   3.916  10.753 -0.2057 -0.1375 -0.1018
 7112W        W11176   9.214   9.237   1.739 -0.1590 -0.1618 -0.0076
 7113W        W11177   3.831   8.350   1.476 -0.2286  0.0166 -0.0379
 7114W        W11178   8.167   7.614   9.751  0.0651 -0.2731  0.0666
 7115W        W11179   2.353   3.981   9.874 -0.2263  0.2431 -0.3171
 7116W        W11180   3.555   8.925   9.519 -0.2185  0.1493 -0.1261
 7117W        W11181   8.435   0.189   2.665  0.0112 -0.1433 -0.1989
 7118W        W11182   8.843   6.260   9.816  0.0794  0.4183 -0.0838
 7119W        W11183   0.326   5.109   9.804 -0.1912 -0.2335  0.1929
 7120W        W11184   4.007   4.071   7.486  0.1893 -0.1353  0.2916
 7121W        W11185   7.516  10.165   1.453  0.2497 -0.1338  0.0171
 7122W        W11186   8.192   8.015  11.498 -0.1651  0.0390  0.3271
 7123W        W11187   7.744   6.684  11.132  0.2842  0.0599  0.1090
 7124W        W11188   2.443   2.779   2.126 -0.2198 -0.1368 -0.2901
 7125W        W11189   7.850   8.258  10.804  0.3483 -0.1719 -0.1294
 7126W        W11190   4.648   3.197  10.983  0.1894  0.3142  0.2112
 7127W        W11191   0.738   4.308   7.273  0.6881  0.0336 -0.2550
 7128W        W11192   5.324   1.069   2.668  0.1478 -0.2884 -0.0425
 7129W        W11193   8.018   5.159   2.666 -0.1200 -0.0443 -0.1611
 7130W        W11194   8.119  10.321   3.509 -0.0906 -0.0778  0.2912
 7131W        W11195   6.089   0.163   8.645  0.1093  0.0366 -0.2700
 7132W        W11196   2.346   9.244   8.474  0.0128 -0.0330 -0.1464
 7133W        W11197   1.862   3.077   8.579 -0.3314  0.2452 -0.2280
 7134W        W11198   3.051   1.796   9.891 -0.1577 -0.0955  0.0343
 7135W        W11199  10.555   7.773   0.332  0.1280  0.4746 -0.5311
 7136W        W11200   6.317   4.313   2.610  0.0059 -0.2500  0.1413
 7137W        W11201   4.714   1.155  11.358  0.2492 -0.1935 -0.1139
 7138W        W11202   8.430   7.369   8.295  0.2063 -0.0858 -0.2496
 7139W        W11203   1.734   9.691   9.243 -0.0243  0.0836  0.1870
 7140W        W11204   7.034   3.186   8.535 -0.2133  0.2153 -0.0669
 7141W        W11205   9.339   2.980   8.733  0.2639 -0.1121 -0.0341
 7142W        W11206   1.121   2.536   9.691 -0.1829  0.2225  0.0494
 7143W        W11207   9.096   6.581   1.872  0.1940 -0.2351  0.0753
 7144W        W11208   6.100   3.542   8.417 -0.1940 -0.1590  0.1064
 7145W        W11209   5.469   9.285  10.863 -0.0687 -0.0674  0.0206
 7146W        W11210   5.671   1.840   0.709 -0.0666  0.3211 -0.1513
 7147W        W11211   1.889   1.533   2.313 -0.2530  0.2670  0.1228
 7148W        W11212   0.783   9.581   0.921 -0.0834 -0.0485  0.1092
 7149W        W11213   3.132   1.046   2.120  0.2094  0.2594 -0.1216
 7150W        W11214   8.425   1.647   0.081 -0.1859 -0.0487  0.0758
 7151W        W11215   8.584   9.533  10.761 -0.0290  0.2487  0.1876
 7152W        W11216   2.469   2.773   3.654 -0.0698 -0.2161  0.1530
 7153W        W11217   0.303   6.579   2.656  0.0692  0.0850 -0.2633
 7154W        W11218   6.670   9.029  11.379  0.0905 -0.0263 -0.1271
 7155W        W11219   3.464   7.823   1.616  0.1039 -0.4041 -0.1015
 7156W        W11220   3.566   9.645   1.978 -0.1017 -0.2505  0.2749
 7157W        W11221   7.459   1.454   8.781 -0.0340 -0.2333  0.0808
 7158W        W11222   4.162   5.689   2.793 -0.1114 -0.0594 -0.3227
 7159W        W11223   6.221   2.126  10.293  0.1699  0.0554  0.4829
 7160W        W11224   1.662   9.008   0.964 -0.0647  0.0689 -0.2958
 7161W        W11225  10.559   8.007   9.164  0.2740  0.3199  0.1020
 7162W        W11226   6.638  10.090   8.408 -0.0744  0.0749  0.2680
 7163W        W11227   4.514   5.947   7.343  0.0688  0.1504  0.2400
 7164W        W11228   1.218   8.367   9.151  0.1024 -0.0338  0.0148
 7165W        W11229   4.340   8.911   0.866 -0.2409  0.3484  0.2716
 7166W        W11230   2.787   0.548   9.064  0.0297 -0.0571 -0.0935
 7167W        W11231  10.176   9.950   8.566 -0.0957  0.4656  0.2321
 7168W        W11232   0.409   3.071   9.536 -0.0593  0.0671 -0.2007
 7169W        W11233   4.005   7.178   9.666  0.1582 -0.1707  0.1334
 7170W        W11234   2.651   0.030   8.852 -0.0138 -0.0442 -0.1750
 7171W        W11235   8.116   6.176  11.230  0.2340  0.1443 -0.0289
 7172W        W11236   1.263   3.529   9.270 -0.0184  0.4618 -0.3880
 7173W        W11237   3.926   3.923   1.838  0.1423 -0.1754 -0.2038
 7174W        W11238   1.333  10.575   3.195 -0.6763 -0.3519 -0.0933
 7175W        W11239   2.842   7.384   3.372 -0.1880  0.0041  0.3492
 7176W        W11240   0.816   2.116   9.989 -0.0368  0.1171  0.0462
 7177W        W11241   7.594   3.937   4.263 -0.1705  0.1840 -0.1428
 7178W        W11242   7.549   7.379   9.881 -0.1064  0.1462  0.1056
 7179W        W11243   0.198   0.563   7.901  0.1344 -0.0630 -0.1946
 7180W        W11244   9.224   1.234   7.893 -0.0437  0.2712  0.1617
 7181W        W11245  10.272   1.907   1.183  0.1833 -0.3191 -0.0125
 7182W        W11246   1.131   6.324   2.374 -0.0086  0.2118  0.0040
 7183W        W11247   4.983  10.255   1.280 -0.1495 -0.3416  0.1711
 7184W        W11248   1.469   9.503   2.227 -0.1236 -0.1257 -0.0617
 7185W        W11249   6.088   6.053   3.271 -0.1278 -0.0081  0.0929
 7186W        W11250   6.486   5.158   8.957 -0.3596  0.0523 -0.0366
 7187W        W11251   8.503   6.949   1.519  0.0228 -0.0209 -0.0449
 7188W        W11252   5.787   6.699  10.146 -0.3753 -0.1621  0.2333
 7189W        W11253   1.729   8.938  11.579  0.5318  0.2093 -0.2309
 7190W        W11254   2.353   9.401   7.551 -0.1513  0.1488 -0.0885
 7191W        W11255   5.142   1.593  11.479 -0.1386 -0.1691 -0.1101
 7192W        W11256   7.087   0.781   1.970  0.1897 -0.2543  0.1173
 7193W        W11257   2.488   4.998   2.401 -0.3823  0.1964  0.0601
 7194W        W11258   7.346   4.347   9.125 -0.0142 -0.1341 -0.0664
 7195W        W11259   5.511   4.511   0.160  0.0790  0.2481 -0.0081
 7196W        W11260  10.507   9.028   3.220 -0.1734  0.0999  0.3274
 7197W        W11261   8.132   9.239   1.434  0.1708  0.3379 -0.1288
 7198W        W11262   6.738   8.395   9.309 -0.0073  0.0746  0.0832
 7199W        W11263   1.628   7.277   0.665 -0.1537 -0.0220  0.0359
 7200W        W11264   5.491   7.730   0.135  0.0561 -0.4296  0.0766
 7201W        W11265   6.536   1.205  10.547  0.4270  0.3380  0.1527
 7202W        W11266   1.313   3.370  11.281 -0.0716 -0.0789 -0.0068
 7203W        W11267  10.130   1.178   3.423 -0.1928 -0.0040 -0.1511
 7204W        W11268   3.741   9.408   3.136 -0.1165 -0.0897 -0.3278
 7205W        W11269   1.389   0.580   9.405  0.1490 -0.0574 -0.0164
 7206W        W11270   2.536   8.284  11.578 -0.1217 -0.0555  0.2326
 7207W        W11271   4.174   7.083  11.259  0.0462  0.3420  0.1579
 7208W        W11272   5.447   1.593  11.060  0.1226  0.1705  0.0620
 7209W        W11273   0.324   6.864   1.303 -0.0060 -0.2184 -0.1758
 7210W        W11274   8.950   9.977   0.522  0.4336  0.0839 -0.3350
 7211W        W11275   9.556   0.170   2.721 -0.0375  0.0533 -0.0678
 7212W        W11276   9.169   9.982   1.936  0.1138 -0.0459  0.0674
 7213W        W11277   8.386   2.803   0.739 -0.0493 -0.1621 -0.1192
 7214W        W11278   5.704   9.503   9.576  0.2641  0.0085  0.4447
 7215W        W11279   0.582   4.451  10.882  0.3750 -0.2731  0.0297
 7216W        W11280   1.237   0.800  10.107 -0.2413 -0.0955 -0.4425
 7217W        W11281   0.797   6.145   1.839  0.1933 -0.1674 -0.0662
 7218W        W11282   5.443   4.181   0.922  0.1274 -0.3318 -0.2771
 7219W        W11283   2.219   3.337   8.836 -0.1911 -0.3092  0.0565
 7220W        W11284   5.797   9.096   1.402  0.0348 -0.3576 -0.0613
 7221W        W11285   5.396   1.203  10.675  0.0132  0.1549  0.0328
 7222W        W11286   8.602   2.569   2.117  0.0692  0.3558 -0.2739
 7223W        W11287   9.757   6.644   9.985 -0.0915 -0.1109 -0.4448
 7224W        W11288   4.177  10.108   9.521 -0.1930  0.0445  0.2230
 7225W        W11289   8.627   3.067   2.085  0.0687 -0.0379 -0.5771
 7226W        W11290   8.916   8.948   1.347 -0.3213 -0.1394 -0.1380
 7227W        W11291   1.636   1.882  10.785 -0.0858  0.0286 -0.2012
 7228W        W11292   3.944   8.251   3.087  0.0268 -0.3619 -0.2573
 7229W        W11293   4.880   8.572   2.596 -0.0180  0.1361 -0.0628
 7230W        W11294   4.834   2.308   9.745  0.1893 -0.0726  0.1329
 7231W        W11295   2.158   4.574   0.629  0.1438  0.0047  0.2629
 7232W        W11296   9.003   2.976  11.150 -0.1751 -0.1677  0.2103
 7233W        W11297   0.461   9.910   9.492 -0.4417  0.2178 -0.1297
 7234W        W11298   4.602   6.018   8.589 -0.1320 -0.1562 -0.0780
 7235W        W11299  10.551   9.365   9.310  0.3061  0.1738 -0.2318
 7236W        W11300   9.578   0.941   9.987 -0.0824 -0.1308 -0.2345
 7237W        W11301   3.422   1.635  11.178  0.2621 -0.1214 -0.2764
 7238W        W11302   9.949   3.900   2.402 -0.2141  0.1757 -0.0039
 7239W        W11303   3.976   3.266   0.095  0.0385  0.0119  0.1827
 7240W        W11304   7.687   0.536   8.718  0.1659 -0.0811  0.0198
 7241W        W11305   9.319   9.251   3.420 -0.0210  0.0382  0.0516
 7242W        W11306   9.165   5.514   9.440  0.5477  0.0397 -0.0293
 7243W        W11307   2.143   3.054   1.159  0.0204  0.3893  0.1218
 7244W        W11308   5.063  10.149   3.836  0.1475 -0.0347 -0.1190
 7245W        W11309   9.383   6.795  10.305  0.0883  0.2364  0.3485
 7246W        W11310   7.148   1.204  11.107  0.3858 -0.4451  0.0738
 7247W        W11311   4.820   7.327   0.283 -0.3679 -0.0670  0.0291
 7248W        W11312   9.304   6.128   2.658 -0.0390 -0.1837  0.1475
 7249W        W11313   7.102   5.671  10.621  0.0077  0.1164 -0.0862
 7250W        W11314   6.625   2.498   7.291  0.0657 -0.2015  0.4179
 7251W        W11315   4.716   0.340   9.805  0.1820  0.0310 -0.0269
 7252W        W11316   6.252   3.619   8.869  0.0107 -0.1529 -0.2896
 7253W        W11317   7.536   6.609   2.446 -0.2010  0.1324 -0.3543
 7254W        W11318   3.769   4.216   3.106  0.0486  0.1980  0.0767
 7255W        W11319   0.589   4.958   1.052 -0.1724 -0.1170 -0.0077
 7256W        W11320   6.060   7.058   8.589 -0.0113 -0.1100 -0.0361
 7257W        W11321   1.969   8.030   9.522  0.0456  0.2870  0.2364
 7258W        W11322   8.563   2.103   3.037  0.3453  0.1770 -0.1075
 7259W        W11323   6.063   7.539   8.406 -0.0966 -0.0793 -0.2226
 7260W        W11324   7.163   6.165  10.509 -0.0099 -0.3305 -0.0447
 7261W        W11325   3.789  10.313  10.248  0.0609 -0.1192  0.0600
 7262W        W11326   6.315  10.100   2.414  0.0107 -0.1063 -0.1213
 7263W        W11327   7.695   9.166   0.368 -0.3156  0.1147 -0.0459
 7264W        W11328   6.118   7.561   7.291  0.1578  0.4414 -0.0246
 7265W        W11329  10.362   5.999   2.086 -0.4000  0.1723  0.2877
 7266W        W11330   0.676   8.470   0.586  0.1592  0.0426  0.1905
 7267W        W11331   4.091   8.989  11.444  0.1694 -0.5194 -0.0976
 7268W        W11332   4.023   9.009   9.112  0.1326  0.2699  0.1821
 7269W        W11333   9.181   3.637   9.857 -0.1003 -0.1461  0.3626
 7270W        W11334   0.072   7.254   1.613 -0.2551  0.2882 -0.0148
 7271W        W11335   9.894   4.609  10.941  0.0157 -0.4205 -0.2441
 7272W        W11336   7.538   8.576   8.781  0.0814  0.1617 -0.1071
 7273W        W11337   4.554  10.146   8.182  0.2450  0.2986  0.3252
 7274W        W11338   7.805   3.318  10.676  0.1063 -0.0097  0.2772
 7275W        W11339   4.237   5.770   3.463  0.2013 -0.0613  0.0730
 7276W        W11340   5.604  10.117  10.180  0.0358 -0.3659  0.1043
 7277W        W11341   7.440   8.486  10.549 -0.0390  0.0335 -0.1566
 7278W        W11342   1.174   3.972   8.501 -0.3082  0.0462 -0.0686
 7279W        W11343   3.598   4.063   2.288 -0.2794  0.1939  0.0288
 7280W        W11344   1.100   2.908   0.880 -0.0269  0.0233  0.2941
 7281W        W11345   5.171   4.298   9.132 -0.2573 -0.0661  0.0303
 7282W        W11346   2.939   7.050   8.205  0.1104 -0.0368  0.0772
 7283W        W11347   9.382   9.887   3.886  0.0035 -0.2033 -0.2092
 7284W        W11348  10.547   0.301   9.169 -0.0520  0.0987  0.0647
 7285W        W11349   6.715   8.254   3.417  0.0140 -0.0837  0.0772
 7286W        W11350   0.954   8.015  10.705 -0.0340  0.1305 -0.0731
 7287W        W11351   7.500   9.381  11.429  0.1279 -0.5123  0.0263
 7288W        W11352   2.155   4.423  11.338  0.1270 -0.0869 -0.2013
 7289W        W11353   8.137   2.018   1.190 -0.2081 -0.0088 -0.0722
 7290W        W11354   6.460   3.108   0.471 -0.3195 -0.1007 -0.2299
 7291W        W11355   4.805   9.510   1.185 -0.3572  0.0109 -0.0145
 7292W        W11356   0.234   4.085   8.391 -0.0492 -0.0145  0.0814
 7293W        W11357   4.014   1.326  10.777  0.3123 -0.0863 -0.0303
 7294W        W11358   4.129   3.634  11.396  0.2436 -0.2533  0.1032
 7295W        W11359   5.970   3.955   3.061  0.1527  0.0859 -0.1129
 7296W        W11360  10.575   5.635   2.528 -0.1696  0.0095  0.0484
 7297W        W11361   2.102  10.462   9.560 -0.0424 -0.0394  0.1044
 7298W        W11362   4.952   9.848   8.480 -0.0800  0.0376  0.0320
 7299W        W11363  10.528  10.035   8.160  0.2034 -0.0453 -0.2633
 7300W        W11364   2.881   0.097  11.493  0.0823  0.4088  0.2770
 7301W        W11365   6.458   0.762   7.690  0.1404 -0.0366  0.0906
 7302W        W11366   3.746   8.799   3.170  0.2621  0.0131  0.0240
 7303W        W11367   4.867   0.032   7.946  0.0802  0.0254 -0.0017
 7304W        W11368   1.741   9.916   0.495  0.0302  0.2164  0.1618
 7305W        W11369   6.360   2.891   1.573 -0.5510  0.0203 -0.0132
 7306W        W11370   3.769   6.698  10.239 -0.0176  0.1132  0.0530
 7307W        W11371   7.790   1.582   3.082  0.0569 -0.4054  0.0936
 7308W        W11372   0.867   4.463   3.627  0.3064 -0.0152  0.1816
 7309W        W11373   7.611   0.451   9.902  0.2817  0.4534  0.0139
 7310W        W11374   2.006   6.522   9.727 -0.0851  0.3502  0.5573
 7311W        W11375   2.546   2.346   1.907  0.0400  0.0238 -0.1028
 7312W        W11376  10.338   5.851   8.465 -0.0488  0.0493 -0.3417
 7313ION    NA+11377   0.521   9.964   0.737  0.1786 -0.0655 -0.2107
 7314ION    NA+11378   7.863   4.344   2.083 -0.0342 -0.1206 -0.0872
 7315ION    NA+11379   1.906   8.838   8.938 -0.0328 -0.0334  0.3064
 7316ION    NA+11380   8.485   4.464   9.514  0.1630 -0.0948  0.0143
 7317ION    NA+11381   3.748   8.196   8.087  0.0060 -0.0926 -0.2484
 7318ION    NA+11382   8.551   2.418   8.582  0.2242 -0.2177 -0.1417
 7319ION    NA+11383   1.217   1.482   2.035 -0.3163 -0.1955 -0.2030
 7320ION    NA+11384  10.443   4.841   8.516 -0.2949 -0.0075 -0.2071
 7321ION    NA+11385   8.202   9.214   0.964 -0.1262  0.1551 -0.0402
 7322ION    NA+11386   4.760   5.083   1.795  0.0385 -0.1266 -0.2100
 7323ION    NA+11387   9.562   6.422   2.964  0.2582 -0.2320  0.0817
 7324ION    NA+11388   0.186   3.414  10.328  0.0719  0.3247 -0.0920
 7325ION    NA+11389   6.960   1.558   1.768  0.0473 -0.1200 -0.0747
 7326ION    NA+11390   4.556   6.809   2.964 -0.1762  0.1566  0.0441
 7327ION    NA+11391   7.024   8.413   1.308  0.0366 -0.2056 -0.1048
 7328ION    NA+11392   2.869   4.750   9.952 -0.1422  0.4342  0.1605
 7329ION    NA+11393   4.895   5.505   4.077 -0.0056 -0.0466 -0.0033
 7330ION    NA+11394   3.941   7.727   8.057  0.2682 -0.0807 -0.1065
 7331ION    NA+11395   2.009   4.076  10.265  0.0419 -0.3007  0.0094
 7332ION    NA+11396   8.393   5.868   3.112 -0.2285  0.1318  0.2782
 7333ION    NA+11397   1.070   9.841   2.438  0.1175  0.3541  0.2599
 7334ION    NA+11398   4.488   8.075  11.535  0.2910  0.0050  0.0921
 7335ION    NA+11399   4.007   2.799  11.137  0.1058  0.3340  0.1548
 7336ION    NA+11400   4.840   8.726   9.312  0.0110  0.3444  0.3707
 7337ION    NA+11401  10.174   5.461   9.638 -0.0738  0.0085  0.2674
 7338ION    NA+11402   0.121   2.057   2.845 -0.2853 -0.2385 -0.0162
 7339ION    NA+11403   8.457   0.012   7.778 -0.2825 -0.0210  0.1074
 7340ION    NA+11404   8.108   2.669   3.728 -0.0935  0.1282  0.0615
 7341ION    NA+11405   8.302   3.224   9.000  0.0343 -0.0523  0.0754
 7342ION    NA+11406   7.602   4.256   2.933  0.3383  0.0555  0.1661
 7343ION    NA+11407   4.346   1.966   7.651  0.1692  0.0702  0.1879
 7344ION    NA+11408   5.724   4.730   2.491  0.0588 -0.3379  0.2240
 7345ION    NA+11409   8.193   0.301   2.164 -0.2037 -0.1858  0.0054
 7346ION    NA+11410   5.917   5.077   4.089  0.1227  0.1560  0.1941
 7347ION    NA+11411   9.521  10.293   4.106 -0.3192  0.0529 -0.1392
 7348ION    NA+11412   5.033   6.138   9.409 -0.1014  0.0590  0.0813
 7349ION    NA+11413   5.211   1.235   1.429  0.1015 -0.0377  0.0322
 7350ION    NA+11414   8.227   2.111   7.469  0.0143  0.2120 -0.2481
 7351ION    NA+11415   6.635   9.639   8.781 -0.5409 -0.0247 -0.0416
 7352ION    NA+11416   6.956   2.947   7.312 -0.2978  0.2013  0.2149
 7353ION    NA+11417   5.470   5.870   7.748 -0.1025  0.3194  0.2183
 7354ION    NA+11418   1.377   7.086   7.787  0.2548 -0.3567  0.0443
 7355ION    NA+11419   6.368   6.465   3.892 -0.0456  0.2205 -0.0915
 7356ION    NA+11420   2.625   4.243  11.098 -0.4111 -0.0881 -0.0881
 7357ION    NA+11421   9.835   8.897   9.401  0.2540  0.1387 -0.0320
 7358ION    NA+11422   2.383   4.092   0.644 -0.1622 -0.2208  0.1828
 7359ION    NA+11423   1.262  10.547   1.795 -0.0528 -0.4933  0.2094
 7360ION    NA+11424   4.998   2.861   1.318  0.0942 -0.0143  0.0956
 7361ION    NA+11425   1.187   9.223   1.196 -0.1834 -0.0158 -0.0634
 7362ION    NA+11426   3.977   7.984   3.550  0.0457 -0.0575  0.0764
 7363ION    NA+11427   9.547   1.351   3.914  0.1838  0.2188 -0.1422
 7364ION    NA+11428   9.896   9.313  11.430 -0.1409 -0.0267  0.1003
 7365ION    NA+11429   4.106   0.239   1.295  0.0871  0.1492  0.0992
 7366ION    NA+11430   4.141   8.540   1.876  0.0695 -0.0980 -0.0291
 7367ION    NA+11431   8.983   7.589   0.900  0.0796  0.0259 -0.1270
 7368ION    NA+11432   4.438   6.388   8.904 -0.1115 -0.1078  0.3474
 7369ION    NA+11433   4.551   7.516   8.546  0.1164 -0.3292  0.0127
 7370ION    NA+11434   0.631   5.421   1.001  0.0941  0.0010 -0.0463
 7371ION    NA+11435   5.628   9.588   1.373  0.0341  0.0032 -0.3434
 7372ION    NA+11436   7.559   5.268   8.397  0.0809  0.0654  0.1696
 7373ION    NA+11437   1.672   9.997   1.868  0.4492 -0.1363 -0.0494
 7374ION    NA+11438   1.718   6.144  10.187 -0.0564  0.1035 -0.1907
 7375ION    NA+11439   2.060   4.356   9.352  0.1501  0.3415 -0.2990
 7376ION    NA+11440   0.771   1.822   1.213 -0.0901  0.0172 -0.0259
 7377ION    NA+11441  10.108   8.451   9.214 -0.1512  0.0989  0.1304
 7378ION    NA+11442   9.987   9.487   2.035  0.2297 -0.3207 -0.1246
 7379ION    NA+11443  10.452   2.832   7.764 -0.0542 -0.0124  0.0580
 7380ION    NA+11444   1.960   2.585   1.242  0.0900 -0.4097  0.1534
 7381ION    NA+11445   2.103   7.306   9.783 -0.0734  0.0310 -0.1402
 7382ION    NA+11446   0.470   5.610   7.910 -0.0860 -0.3329  0.2804
 7383ION    NA+11447   4.044  10.350   9.146  0.2334 -0.0101  0.1624
 7384ION    NA+11448   9.320   3.297  10.641 -0.0272 -0.1565 -0.1082
 7385ION    NA+11449   4.732   1.584  10.009 -0.2658  0.1034  0.0099
 7386ION    NA+11450  10.593   5.746   0.541 -0.1997 -0.2315  0.1817
 7387ION    NA+11451   0.414   8.204   1.014  0.1264 -0.2221 -0.0658
 7388ION    NA+11452   1.431   8.983   7.741 -0.0140 -0.0941 -0.0440
 7389ION    NA+11453   0.945   5.799  10.852  0.2253  0.3811 -0.1836
 7390ION    CL-11454   9.677   2.882   0.383  0.0783  0.2106  0.4016
 7391ION    CL-11455   4.603   8.527   0.515 -0.2263 -0.0587 -0.1307
 7392ION    CL-11456   3.955   4.661   0.650 -0.0025  0.0010  0.2104
 7393ION    CL-11457   0.581   4.974  10.746  0.2921  0.1773  0.1016
 7394ION    CL-11458   9.695   3.927   8.994 -0.2512  0.0872  0.0117
 7395ION    CL-11459   0.342   2.599   3.109  0.2119 -0.1254  0.2481
 7396ION    CL-11460   1.171   2.165   3.589 -0.0129 -0.0788 -0.2116
 7397ION    CL-11461  10.170   8.659   9.737 -0.0849 -0.4243  0.4390
 7398ION    CL-11462   7.599   7.047   2.717  0.3053  0.0977  0.1731
 7399ION    CL-11463   7.167   5.821  10.105  0.0728  0.0163  0.3430
 7400ION    CL-11464   4.011   7.853   8.537 -0.0213  0.0404  0.0719
 7401ION    CL-11465   2.668  10.544   3.221  0.0215  0.0110 -0.1922
 7402ION    CL-11466   8.497   8.882   3.255  0.2889 -0.2941 -0.0991
 7403ION    CL-11467   2.286   8.555   8.982  0.0150 -0.2714  0.0162
 7404ION    CL-11468   9.645   5.311   9.710 -0.2100 -0.1432  0.2434
 7405ION    CL-11469  10.241   8.132   8.779 -0.0779 -0.1389  0.0574
 7406ION    CL-11470   0.902   9.918   9.770  0.3163  0.0172  0.0075
 7407ION    CL-11471   8.375   4.255   2.310 -0.1091 -0.0041 -0.3108
 7408ION    CL-11472   2.553   3.283   3.310  0.2473  0.2474  0.0211
 7409ION    CL-11473   1.181   9.125   8.164 -0.1176 -0.0819 -0.2535
 7410ION    CL-11474   9.595   9.208   9.045 -0.3107 -0.0915  0.1617
 7411ION    CL-11475   8.508   3.113   8.596  0.1177  0.0132  0.0383
 7412ION    CL-11476   9.930   1.903   8.411  0.0786 -0.1201 -0.1511
 7413ION    CL-11477   5.111   3.152  10.780 -0.0095  0.1476  0.0486
 7414ION    CL-11478   0.628   9.129   1.158  0.0744  0.2407 -0.3662
 7415ION    CL-11479   1.230   9.971   2.016 -0.0276 -0.0706  0.2337
 7416ION    CL-11480   5.229   4.775   2.098 -0.3262  0.1012  0.2481
 7417ION    CL-11481   7.420   0.232   2.727  0.2345 -0.0479  0.5005
 7418ION    CL-11482   1.861   6.632  10.198 -0.3210 -0.2776 -0.1853
 7419ION    CL-11483   5.728   1.136  11.035 -0.1735  0.1407 -0.3741
 7420ION    CL-11484   4.767   1.805   9.553  0.1051  0.3451  0.0538
 7421ION    CL-11485   9.651   4.513   2.163  0.2420  0.1746 -0.1068
 7422ION    CL-11486   2.656  10.303   0.468 -0.0392 -0.0089  0.1996
 7423ION    CL-11487   2.674   8.553   3.284 -0.1412 -0.0342 -0.1428
 7424ION    CL-11488   0.391   5.627   0.606 -0.2501  0.3106  0.1205
 7425ION    CL-11489  10.507   4.476   1.130  0.0431  0.2359 -0.3349
 7426ION    CL-11490   1.692   3.639  10.433  0.2551 -0.2978  0.2285
 7427ION    CL-11491   4.456   7.703   3.364  0.0435  0.1838  0.3033
 7428ION    CL-11492   5.053   3.744   8.468  0.0333  0.1364  0.3522
 7429ION    CL-11493   4.525   8.284   9.351 -0.3506 -0.0124 -0.0826
 7430ION    CL-11494   8.039   2.508   8.733  0.0404 -0.0385  0.1741
 7431ION    CL-11495   7.891   7.641  10.159 -0.1643  0.0576 -0.2106
 7432ION    CL-11496   5.812   2.621   8.142 -0.2636 -0.0060  0.2606
 7433ION    CL-11497   2.519   4.414   9.702 -0.1322  0.2225  0.0105
 7434ION    CL-11498   8.508   3.118   2.988  0.1320  0.4348 -0.0326
 7435ION    CL-11499   7.437   1.543   1.646 -0.2221  0.2014 -0.2286
 7436ION    CL-11500   0.020   1.253   0.826 -0.0241 -0.3598  0.0307
 7437ION    CL-11501   8.049   4.875   9.820  0.2271  0.0604 -0.0082
 7438ION    CL-11502   1.294   9.721   1.121  0.1816 -0.0004 -0.0355
 7439ION    CL-11503   7.017   1.459   2.623 -0.4099 -0.2728  0.2257
 7440ION    CL-11504   1.730   5.638  10.100  0.2266 -0.1966  0.2717
 7441ION    CL-11505  10.274   7.486   2.331 -0.2356 -0.3164  0.2456
 7442ION    CL-11506   2.709   4.713  10.593  0.0640 -0.0081 -0.1871
 7443ION    CL-11507  10.096   9.585  11.035  0.0005  0.4196  0.1823
 7444ION    CL-11508   5.023   6.892   8.275 -0.1105  0.0887  0.0763
 7445ION    CL-11509   8.082   0.783   2.147  0.2448  0.0955  0.0686
 7446ION    CL-11510   7.336   8.008   1.533  0.1682  0.0852 -0.0145
 7447ION    CL-11511   4.227   6.403   2.894  0.0105 -0.0849 -0.2689
 7448ION    CL-11512   9.407  10.406  11.342  0.5585  0.2075  0.1498
 7449ION    CL-11513   9.687   8.910   0.135  0.1753  0.0326  0.0141
 7450ION    CL-11514   4.758   1.167   1.704  0.3195  0.0677 -0.3425
 7451ION    CL-11515   1.157   3.293   2.979 -0.0234  0.2268 -0.3157
 7452ION    CL-11516   1.591  10.420   2.171  0.1053 -0.1652 -0.0785
 7453ION    CL-11517   5.907   8.545  11.545  0.1070 -0.1821 -0.0354
 7454ION    CL-11518   5.725   6.489   2.718 -0.2311  0.1561 -0.0650
 7455ION    CL-11519   1.563   6.229   0.565 -0.2180 -0.0123  0.3848
 7456ION    CL-11520  10.364   3.361   1.698  0.2108 -0.1036 -0.1142
 7457ION    CL-11521   4.653   5.950   9.100  0.0423  0.2402  0.1194
 7458ION    CL-11522   3.309   2.704   8.280  0.3262 -0.1641 -0.0071
 7459ION    CL-11523   8.167   7.081   2.828  0.1713 -0.3656 -0.1981
 7460ION    CL-11524   7.558   6.614   1.495 -0.0187 -0.0239  0.1548
 7461ION    CL-11525   4.556   7.671  11.072 -0.0722 -0.4086 -0.1553
 7462ION    CL-11526  10.333   3.668   2.681 -0.0743 -0.1809  0.1919
 7463ION    CL-11527   6.802   3.076   3.403  0.3571  0.0740  0.1243
 7464ION    CL-11528   3.360   5.331   3.262  0.1483  0.3846 -0.1684
 7465ION    CL-11529   3.184   5.226   9.884 -0.1191 -0.0429  0.0113
 7466ION    CL-11530   2.616   9.564   3.440 -0.0855 -0.1449  0.2365
  10.65268  10.65268  11.58666
