Protein in INSANE! Membrane UpperLeaflet>POPC=1.0 LowerLeaflet>POPC=1.0
10365
    1AU     AUC    1   5.120   4.948   5.845
    1AU     AUC    2   5.393   4.741   5.706
    1AU     AUC    3   5.514   4.893   5.903
    1AU     AUC    4   4.803   4.939   5.802
    1AU     AUC    5   4.900   5.230   6.114
    1AU     AUC    6   4.996   5.169   5.753
    1AU     AUC    7   5.336   5.028   5.654
    1AU     AUC    8   4.973   4.897   6.120
    1AU     AUC    9   5.315   4.781   6.037
    1AU     AUC   10   5.124   5.074   6.325
    1AU     AUC   11   5.218   5.567   5.838
    1AU     AUC   12   5.105   4.680   5.816
    1AU     AUC   13   5.086   4.865   5.597
    1AU     AUC   14   5.620   4.551   5.528
    1AU     AUC   15   5.764   4.780   5.738
    1AU     AUC   16   5.854   5.063   5.937
    1AU     AUC   17   4.428   4.945   5.713
    1AU     AUC   18   4.585   5.210   6.018
    1AU     AUC   19   4.752   5.478   6.265
    1AU     AUC   20   4.869   5.351   5.709
    1AU     AUC   21   5.099   5.291   5.454
    1AU     AUC   22   5.445   5.229   5.402
    1AU     AUC   23   4.778   4.825   6.206
    1AU     AUC   24   5.107   4.641   6.296
    1AU     AUC   25   5.471   4.536   6.213
    1AU     AUC   26   5.299   5.105   6.527
    1AU     AUC   27   5.278   5.724   6.141
    1AU     AUC   28   5.361   5.686   6.012
    1AU     AUC   29   5.002   4.365   5.791
    1AU     AUC   30   4.990   4.553   5.558
    1AU     AUC   31   4.912   4.743   5.370
    1AU     AUC   32   5.713   5.155   6.255
    1AU     AUC   33   5.719   5.439   5.948
    1AU     AUC   34   5.299   4.415   5.615
    1AU     AUC   35   5.343   4.650   5.384
    1AU     AUC   36   4.996   5.379   6.443
    1AU     AUC   37   5.017   5.596   6.219
    1AU     AUC   38   4.704   4.739   5.763
    1AU     AUC   39   4.648   4.845   5.533
    1AU     AUC   40   5.605   4.927   5.444
    1AU     AUC   41   5.631   5.208   5.666
    1AU     AUC   42   4.593   5.205   5.728
    1AU     AUC   43   4.872   5.371   6.017
    1AU     AUC   44   5.560   4.471   5.839
    1AU     AUC   45   5.685   4.767   6.080
    1AU     AUC   46   4.672   4.879   5.945
    1AU     AUC   47   4.676   5.203   6.325
    1AU     AUC   48   5.088   5.506   5.857
    1AU     AUC   49   5.377   5.446   5.676
    1AU     AUC   50   5.007   4.992   6.448
    1AU     AUC   51   5.395   4.865   6.355
    1AU     AUC   52   4.896   5.069   5.406
    1AU     AUC   53   5.212   4.951   5.328
    1AU     AUC   54   4.900   4.564   6.015
    1AU     AUC   55   5.222   4.425   6.014
    1AU    AUSL   56   6.040   5.385   6.047
    1AU    AUSL   57   5.617   5.081   6.458
    1AU     AUL   58   6.172   5.350   6.242
    1AU       S   59   6.031   4.837   6.782
    1AU     LIG   60   5.978   5.055   7.307
    1AU     LIG   61   5.792   4.874   7.783
    1AU     LIG   62   5.487   5.055   8.147
    1AU       S   63   6.353   5.521   5.832
    1AU     LIG   64   6.723   5.749   5.503
    1AU     LIG   65   6.629   6.041   5.131
    1AU     LIG   66   6.340   6.040   4.753
    1AU    AUSL   67   5.817   5.589   6.385
    1AU    AUSL   68   5.146   5.896   6.135
    1AU     AUL   69   5.670   5.964   6.283
    1AU       S   70   6.353   5.654   5.793
    1AU     LIG   71   6.420   5.585   5.148
    1AU     LIG   72   6.454   5.560   4.612
    1AU     LIG   73   6.028   5.588   4.313
    1AU       S   74   4.831   5.412   7.090
    1AU     LIG   75   4.550   5.283   7.430
    1AU     LIG   76   4.628   4.947   7.745
    1AU     LIG   77   4.403   4.686   8.068
    1AU    AUSL   78   5.557   5.923   5.842
    1AU    AUSL   79   5.734   5.228   5.790
    1AU     AUL   80   5.954   5.803   5.898
    1AU       S   81   6.019   5.873   5.453
    1AU     LIG   82   6.016   5.462   4.785
    1AU     LIG   83   5.573   5.312   4.370
    1AU     LIG   84   5.125   5.186   4.278
    1AU       S   85   4.357   4.835   6.215
    1AU     LIG   86   4.453   6.113   6.004
    1AU     LIG   87   4.803   6.402   5.866
    1AU     LIG   88   4.907   6.689   5.505
    1AU    AUSL   89   5.524   4.348   5.273
    1AU    AUSL   90   5.281   4.701   5.233
    1AU     AUL   91   5.280   4.303   5.013
    1AU       S   92   5.689   4.929   4.825
    1AU     LIG   93   5.928   5.839   4.993
    1AU     LIG   94   6.059   6.277   5.199
    1AU     LIG   95   6.136   6.416   5.662
    1AU       S   96   5.983   5.233   6.595
    1AU     LIG   97   5.517   5.599   7.270
    1AU     LIG   98   4.983   5.701   7.444
    1AU     LIG   99   4.461   5.776   7.495
    1AU    AUSL  100   5.129   4.282   5.468
    1AU    AUSL  101   5.543   4.151   5.665
    1AU     AUL  102   5.397   4.006   5.379
    1AU       S  103   4.709   3.995   6.420
    1AU     LIG  104   5.079   4.146   7.064
    1AU     LIG  105   5.169   4.582   7.494
    1AU     LIG  106   5.509   5.166   7.516
    1AU       S  107   5.560   4.577   4.807
    1AU     LIG  108   5.897   4.117   4.851
    1AU     LIG  109   6.017   3.828   5.254
    1AU     LIG  110   5.888   3.462   5.565
    1AU    AUSL  111   4.906   4.505   5.177
    1AU    AUSL  112   4.770   4.104   5.659
    1AU     AUL  113   4.885   4.119   5.286
    1AU       S  114   4.074   4.255   6.068
    1AU     LIG  115   3.521   4.872   6.421
    1AU     LIG  116   3.513   5.376   6.590
    1AU     LIG  117   3.741   5.628   6.934
    1AU       S  118   5.574   5.017   4.754
    1AU     LIG  119   5.604   5.702   4.639
    1AU     LIG  120   5.556   6.142   5.059
    1AU     LIG  121   5.332   6.355   5.455
    1AU    AUSL  122   4.977   5.562   6.409
    1AU    AUSL  123   5.310   5.860   6.523
    1AU     AUL  124   5.051   6.062   6.378
    1AU       S  125   4.579   5.141   6.986
    1AU     LIG  126   4.738   4.402   7.297
    1AU     LIG  127   4.763   3.825   7.239
    1AU     LIG  128   4.442   3.485   7.092
    1AU       S  129   5.420   5.275   6.973
    1AU     LIG  130   5.571   4.746   7.316
    1AU     LIG  131   5.478   4.214   7.414
    1AU     LIG  132   5.290   3.749   7.292
    1AU    AUSL  133   5.117   5.593   6.804
    1AU    AUSL  134   4.671   5.834   6.485
    1AU     AUL  135   4.911   5.820   6.731
    1AU       S  136   4.485   6.053   6.733
    1AU     LIG  137   4.420   6.481   6.313
    1AU     LIG  138   4.387   6.649   5.763
    1AU     LIG  139   4.450   6.759   5.304
    1AU       S  140   4.568   5.063   6.921
    1AU     LIG  141   4.630   4.162   6.900
    1AU     LIG  142   4.402   3.571   6.565
    1AU     LIG  143   4.568   3.140   6.537
    1AU    AUSL  144   4.245   4.630   5.449
    1AU    AUSL  145   4.757   4.453   5.910
    1AU     AUL  146   4.362   4.116   5.677
    1AU       S  147   4.152   4.313   6.173
    1AU     LIG  148   4.221   3.906   6.896
    1AU     LIG  149   4.408   3.912   7.526
    1AU     LIG  150   4.951   4.024   7.641
    1AU       S  151   4.850   5.911   5.783
    1AU     LIG  152   5.300   6.485   6.087
    1AU     LIG  153   5.475   6.421   6.747
    1AU     LIG  154   5.577   6.317   7.318
    1AU    AUSL  155   4.361   4.522   5.838
    1AU    AUSL  156   4.182   4.893   5.804
    1AU     AUL  157   4.063   4.552   5.689
    1AU       S  158   3.847   4.830   5.322
    1AU     LIG  159   3.465   4.437   5.724
    1AU     LIG  160   3.374   4.386   6.321
    1AU     LIG  161   3.311   4.201   6.850
    1AU       S  162   4.270   4.374   6.349
    1AU     LIG  163   4.278   4.250   7.222
    1AU     LIG  164   4.580   4.324   7.752
    1AU     LIG  165   4.946   4.584   7.938
    1AU    AUSL  166   5.844   5.280   5.345
    1AU    AUSL  167   5.806   4.659   5.174
    1AU     AUL  168   6.026   5.001   5.146
    1AU       S  169   6.384   4.996   5.961
    1AU     LIG  170   6.721   5.206   5.679
    1AU     LIG  171   7.035   5.333   5.376
    1AU     LIG  172   6.924   5.500   4.956
    1AU       S  173   5.513   5.659   5.124
    1AU     LIG  174   5.254   6.027   4.699
    1AU     LIG  175   5.552   6.288   4.541
    1AU     LIG  176   5.951   6.378   4.708
    1AU    AUSL  177   5.802   4.843   5.534
    1AU    AUSL  178   6.053   4.719   5.856
    1AU     AUL  179   6.196   4.727   5.488
    1AU       S  180   5.618   5.480   5.042
    1AU     LIG  181   5.983   5.101   4.503
    1AU     LIG  182   5.749   4.735   4.351
    1AU     LIG  183   5.737   4.280   4.389
    1AU       S  184   6.352   4.389   5.755
    1AU     LIG  185   6.325   4.241   5.161
    1AU     LIG  186   6.198   4.496   4.679
    1AU     LIG  187   6.244   4.747   4.240
    1AU    AUSL  188   6.109   5.140   5.653
    1AU    AUSL  189   5.585   5.565   5.561
    1AU     AUL  190   5.990   5.442   5.547
    1AU       S  191   3.885   5.145   5.646
    1AU     LIG  192   3.595   5.444   5.340
    1AU     LIG  193   3.554   5.853   5.145
    1AU     LIG  194   3.352   6.218   5.180
    1AU       S  195   5.255   5.830   5.493
    1AU     LIG  196   4.207   4.823   6.644
    1AU     LIG  197   3.776   5.116   6.922
    1AU     LIG  198   3.483   4.947   7.246
    1AU    AUSL  199   4.240   5.229   6.288
    1AU    AUSL  200   4.654   5.453   6.685
    1AU     AUL  201   4.266   5.366   6.656
    1AU       S  202   5.130   4.637   7.000
    1AU     LIG  203   4.247   4.382   6.791
    1AU     LIG  204   3.822   4.178   7.019
    1AU     LIG  205   3.596   3.793   6.870
    1AU       S  206   3.890   5.201   6.359
    1AU     LIG  207   3.810   4.672   6.801
    1AU     LIG  208   3.881   4.617   7.253
    1AU     LIG  209   3.858   4.872   7.653
    1AU    AUSL  210   4.429   5.208   5.931
    1AU    AUSL  211   4.611   5.286   5.548
    1AU     AUL  212   4.145   5.142   5.984
    1AU       S  213   3.723   5.274   6.083
    1AU     LIG  214   3.381   5.187   5.714
    1AU     LIG  215   3.347   4.865   5.328
    1AU     LIG  216   3.396   4.647   4.888
    1AU       S  217   3.982   5.150   5.138
    1AU     LIG  218   3.599   5.128   4.946
    1AU     LIG  219   3.304   5.480   4.893
    1AU     LIG  220   3.037   5.770   5.165
    1AU    AUSL  221   4.213   5.582   6.064
    1AU    AUSL  222   4.214   5.419   5.660
    1AU     AUL  223   4.061   5.583   6.089
    1AU       S  224   4.012   5.795   5.396
    1AU     LIG  225   4.343   5.541   4.745
    1AU     LIG  226   4.690   5.534   4.350
    1AU     LIG  227   5.156   5.685   4.349
    1AU       S  228   3.737   5.578   5.800
    1AU     LIG  229   4.302   6.185   5.439
    1AU     LIG  230   4.780   6.206   5.387
    1AU     LIG  231   5.058   6.331   5.041
    1AU    AUSL  232   5.842   4.401   6.083
    1AU    AUSL  233   5.930   4.950   6.197
    1AU     AUL  234   6.107   4.607   6.137
    1AU       S  235   6.249   4.226   5.923
    1AU     LIG  236   6.737   4.670   5.847
    1AU     LIG  237   7.035   5.084   6.037
    1AU     LIG  238   7.231   5.545   6.179
    1AU       S  239   6.234   4.864   6.500
    1AU     LIG  240   6.618   5.077   6.586
    1AU     LIG  241   6.774   5.458   6.359
    1AU     LIG  242   6.796   5.767   6.007
    1AU    AUSL  243   5.873   4.408   5.613
    1AU    AUSL  244   5.422   4.352   6.027
    1AU     AUL  245   5.788   4.089   5.904
    1AU       S  246   6.185   4.259   5.682
    1AU     LIG  247   6.666   4.279   6.134
    1AU     LIG  248   6.832   4.717   6.341
    1AU     LIG  249   7.121   5.118   6.534
    1AU       S  250   4.623   4.052   6.443
    1AU     LIG  251   3.833   4.276   6.543
    1AU     LIG  252   3.346   4.671   6.815
    1AU     LIG  253   3.170   5.123   6.862
    1AU    AUSL  254   4.567   5.604   5.868
    1AU    AUSL  255   4.285   5.053   5.441
    1AU     AUL  256   4.199   5.405   5.474
    1AU       S  257   4.501   5.760   5.437
    1AU     LIG  258   4.058   6.297   5.826
    1AU     LIG  259   3.652   6.148   5.909
    1AU     LIG  260   3.404   5.904   5.623
    1AU       S  261   4.079   5.858   5.653
    1AU     LIG  262   3.790   6.217   5.423
    1AU     LIG  263   4.007   6.549   5.264
    1AU     LIG  264   4.018   6.944   5.487
    1AU    AUSL  265   4.557   5.489   6.275
    1AU    AUSL  266   4.643   5.086   6.469
    1AU     AUL  267   4.421   5.711   6.411
    1AU       S  268   4.373   5.745   6.886
    1AU     LIG  269   3.942   5.993   6.650
    1AU     LIG  270   3.556   5.880   6.359
    1AU     LIG  271   3.183   5.614   6.305
    1AU       S  272   4.134   5.844   5.736
    1AU     LIG  273   3.912   4.703   6.287
    1AU     LIG  274   4.149   3.942   6.444
    1AU     LIG  275   4.777   3.708   6.780
    1AU    AUSL  276   5.332   5.253   6.046
    1AU    AUSL  277   5.407   5.463   6.400
    1AU     AUL  278   5.442   5.523   6.547
    1AU       S  279   5.630   5.137   6.960
    1AU     LIG  280   6.022   4.597   7.172
    1AU     LIG  281   6.499   4.653   6.979
    1AU     LIG  282   6.848   4.363   6.714
    1AU       S  283   5.036   4.300   6.637
    1AU     LIG  284   5.543   4.046   6.957
    1AU     LIG  285   5.820   3.771   6.606
    1AU     LIG  286   6.215   3.884   6.365
    1AU    AUSL  287   4.906   5.570   5.539
    1AU    AUSL  288   5.232   5.262   5.015
    1AU     AUL  289   5.045   5.664   5.123
    1AU       S  290   4.853   3.882   6.026
    1AU     LIG  291   4.505   3.562   5.536
    1AU     LIG  292   4.324   3.604   5.045
    1AU     LIG  293   3.817   3.608   4.898
    1AU       S  294   4.814   5.159   4.668
    1AU     LIG  295   4.278   4.832   4.667
    1AU     LIG  296   3.910   4.557   4.906
    1AU     LIG  297   3.652   4.290   5.239
    1AU    AUSL  298   5.255   5.365   5.439
    1AU    AUSL  299   5.621   5.547   6.016
    1AU     AUL  300   5.371   5.243   6.043
    1AU       S  301   4.342   4.807   6.208
    1AU     LIG  302   3.614   4.828   5.955
    1AU     LIG  303   3.217   4.806   6.037
    1AU     LIG  304   3.024   5.129   6.235
    1AU       S  305   4.992   4.304   6.596
    1AU     LIG  306   4.412   4.677   7.091
    1AU     LIG  307   4.155   5.038   7.240
    1AU     LIG  308   3.814   5.335   7.381
    1AU    AUSL  309   5.324   4.914   6.734
    1AU    AUSL  310   5.682   4.641   6.419
    1AU     AUL  311   5.589   4.710   6.738
    1AU       S  312   5.108   5.051   7.309
    1AU     LIG  313   4.838   5.397   7.794
    1AU     LIG  314   4.745   5.847   7.894
    1AU     LIG  315   4.767   6.194   7.574
    1AU       S  316   6.042   4.747   6.614
    1AU     LIG  317   6.306   5.242   6.921
    1AU     LIG  318   6.230   5.814   6.821
    1AU     LIG  319   6.085   6.283   6.694
    1AU    AUSL  320   4.898   4.784   6.647
    1AU    AUSL  321   5.004   5.204   6.716
    1AU     AUL  322   5.007   5.044   6.874
    1AU       S  323   4.893   4.931   7.303
    1AU     LIG  324   5.134   5.025   7.784
    1AU     LIG  325   5.312   5.525   7.826
    1AU     LIG  326   5.223   6.013   7.776
    1AU       S  327   4.591   5.789   7.033
    1AU     LIG  328   5.154   6.084   7.199
    1AU     LIG  329   5.687   5.961   7.001
    1AU     LIG  330   5.937   5.522   7.077
    1AU    AUSL  331   5.237   4.620   6.436
    1AU    AUSL  332   4.730   4.534   6.326
    1AU     AUL  333   4.745   4.656   6.632
    1AU       S  334   5.131   3.868   6.499
    1AU     LIG  335   5.296   3.479   6.782
    1AU     LIG  336   5.728   3.261   6.748
    1AU     LIG  337   6.166   3.447   6.779
    1AU       S  338   4.824   4.836   7.243
    1AU     LIG  339   4.302   4.650   7.546
    1AU     LIG  340   3.981   4.234   7.599
    1AU     LIG  341   3.963   3.799   7.341
    1AU    AUSL  342   4.958   4.909   5.021
    1AU    AUSL  343   5.530   5.036   5.229
    1AU     AUL  344   5.202   4.859   4.898
    1AU       S  345   4.741   4.824   4.792
    1AU     LIG  346   4.354   4.306   4.928
    1AU     LIG  347   4.002   3.910   5.250
    1AU     LIG  348   4.016   3.528   5.646
    1AU       S  349   6.347   4.994   6.039
    1AU     LIG  350   6.385   4.396   6.577
    1AU     LIG  351   6.082   4.083   6.904
    1AU     LIG  352   5.818   3.652   7.102
    1AU    AUSL  353   4.855   5.275   5.217
    1AU    AUSL  354   4.637   4.855   5.297
    1AU     AUL  355   4.584   5.129   5.104
    1AU       S  356   4.824   5.362   4.794
    1AU     LIG  357   4.699   5.897   4.688
    1AU     LIG  358   4.810   6.328   4.579
    1AU     LIG  359   5.158   6.616   4.581
    1AU       S  360   4.141   5.166   5.022
    1AU     LIG  361   4.273   5.915   5.013
    1AU     LIG  362   4.511   6.341   4.989
    1AU     LIG  363   4.798   6.743   4.942
    1AU    AUSL  364   5.024   4.234   6.170
    1AU    AUSL  365   4.599   4.437   5.512
    1AU     AUL  366   4.607   4.245   6.053
    1AU       S  367   4.528   5.581   5.234
    1AU     LIG  368   3.922   5.593   4.952
    1AU     LIG  369   3.899   5.310   4.585
    1AU     LIG  370   3.772   4.866   4.521
    1AU       S  371   5.106   3.736   6.387
    1AU     LIG  372   4.780   3.391   6.148
    1AU     LIG  373   4.650   3.105   5.678
    1AU     LIG  374   4.695   3.274   5.177
    1AU    AUSL  375   5.424   4.233   6.423
    1AU    AUSL  376   5.172   4.043   5.821
    1AU     AUL  377   5.365   4.001   6.101
    1AU       S  378   5.347   3.906   6.552
    1AU     LIG  379   5.498   3.432   6.303
    1AU     LIG  380   5.498   3.219   5.845
    1AU     LIG  381   5.634   2.978   5.427
    1AU       S  382   4.445   3.793   6.089
    1AU     LIG  383   4.944   3.502   5.705
    1AU     LIG  384   5.154   3.459   5.233
    1AU     LIG  385   5.397   3.652   4.834
    2POPC   NC3  386   3.517   1.406   8.096
    2POPC   PO4  387   3.117   0.818   8.193
    2POPC   GL1  388   3.308   0.825   7.769
    2POPC   GL2  389   3.535   1.089   7.672
    2POPC   C1A  390   3.151   0.882   7.331
    2POPC   D2A  391   3.150   0.989   6.891
    2POPC   C3A  392   3.434   0.985   6.498
    2POPC   C4A  393   3.338   0.895   6.040
    2POPC   C1B  394   3.484   1.266   7.246
    2POPC   C2B  395   3.492   1.410   6.807
    2POPC   C3B  396   3.751   1.392   6.439
    2POPC   C4B  397   3.790   1.134   6.104
    3POPC   NC3  398   7.270   0.324   8.104
    3POPC   PO4  399   7.850   9.947   7.989
    3POPC   GL1  400   7.571   0.203   7.708
    3POPC   GL2  401   7.385   0.545   7.666
    3POPC   C1A  402   7.406   0.178   7.307
    3POPC   D2A  403   7.536   0.432   6.948
    3POPC   C3A  404   7.365   0.381   6.544
    3POPC   C4A  405   7.395   0.107   6.178
    3POPC   C1B  406   7.158   0.643   7.301
    3POPC   C2B  407   7.215   0.800   6.916
    3POPC   C3B  408   7.103   0.863   6.502
    3POPC   C4B  409   7.268   0.713   6.120
    4POPC   NC3  410   1.107   1.411   8.163
    4POPC   PO4  411   0.742   0.800   8.065
    4POPC   GL1  412   0.890   1.102   7.769
    4POPC   GL2  413   1.218   1.026   7.840
    4POPC   C1A  414   1.132   1.281   7.390
    4POPC   D2A  415   1.369   1.400   6.991
    4POPC   C3A  416   1.209   1.327   6.551
    4POPC   C4A  417   1.001   1.472   6.145
    4POPC   C1B  418   1.323   0.811   7.489
    4POPC   C2B  419   1.303   0.877   7.071
    4POPC   C3B  420   1.499   0.779   6.689
    4POPC   C4B  421   1.387   0.927   6.300
    5POPC   NC3  422   0.678   5.115   8.052
    5POPC   PO4  423   0.117   4.630   7.915
    5POPC   GL1  424   0.491   4.765   7.624
    5POPC   GL2  425   0.647   5.107   7.562
    5POPC   C1A  426   0.602   4.857   7.144
    5POPC   D2A  427   0.456   5.015   6.719
    5POPC   C3A  428   0.690   4.946   6.315
    5POPC   C4A  429   0.747   4.855   5.873
    5POPC   C1B  430   0.394   5.323   7.278
    5POPC   C2B  431   0.054   5.374   7.012
    5POPC   C3B  432   0.001   5.322   6.594
    5POPC   C4B  433   0.186   5.056   6.275
    6POPC   NC3  434   6.234   7.569   8.606
    6POPC   PO4  435   5.699   7.730   8.181
    6POPC   GL1  436   5.623   8.026   7.762
    6POPC   GL2  437   5.659   8.386   7.811
    6POPC   C1A  438   5.706   8.004   7.273
    6POPC   D2A  439   5.519   7.975   6.844
    6POPC   C3A  440   5.817   7.872   6.486
    6POPC   C4A  441   6.274   7.764   6.562
    6POPC   C1B  442   5.479   8.451   7.400
    6POPC   C2B  443   5.649   8.440   6.962
    6POPC   C3B  444   5.595   8.348   6.475
    6POPC   C4B  445   5.704   8.410   5.999
    7POPC   NC3  446   0.319   8.148   8.212
    7POPC   PO4  447   0.854   7.694   8.124
    7POPC   GL1  448   0.470   7.876   7.813
    7POPC   GL2  449   0.379   8.277   7.726
    7POPC   C1A  450   0.202   7.909   7.419
    7POPC   D2A  451   0.390   7.870   6.997
    7POPC   C3A  452   0.139   7.945   6.614
    7POPC   C4A  453   0.169   7.767   6.193
    7POPC   C1B  454   0.513   8.299   7.271
    7POPC   C2B  455   0.449   8.333   6.797
    7POPC   C3B  456   0.575   8.164   6.388
    7POPC   C4B  457   0.856   8.324   6.020
    8POPC   NC3  458   8.589   6.420   8.133
    8POPC   PO4  459   9.238   6.302   8.328
    8POPC   GL1  460   9.073   6.412   7.907
    8POPC   GL2  461   8.934   6.713   7.810
    8POPC   C1A  462   8.891   6.303   7.482
    8POPC   D2A  463   8.719   6.432   7.080
    8POPC   C3A  464   8.864   6.540   6.670
    8POPC   C4A  465   9.054   6.375   6.307
    8POPC   C1B  466   8.886   6.848   7.338
    8POPC   C2B  467   9.074   7.037   6.932
    8POPC   C3B  468   8.956   7.005   6.484
    8POPC   C4B  469   8.721   6.746   6.177
    9POPC   NC3  470   2.566   6.256   8.033
    9POPC   PO4  471   2.654   6.891   8.034
    9POPC   GL1  472   2.522   6.649   7.674
    9POPC   GL2  473   2.813   6.451   7.617
    9POPC   C1A  474   2.469   6.667   7.227
    9POPC   D2A  475   2.541   6.516   6.796
    9POPC   C3A  476   2.409   6.773   6.463
    9POPC   C4A  477   2.654   6.862   6.086
    9POPC   C1B  478   2.979   6.651   7.217
    9POPC   C2B  479   3.109   6.918   6.842
    9POPC   C3B  480   3.078   6.789   6.410
    9POPC   C4B  481   2.835   6.427   6.289
   10POPC   NC3  482   7.528   9.602   7.988
   10POPC   PO4  483   6.947   9.918   8.124
   10POPC   GL1  484   7.151   9.842   7.697
   10POPC   GL2  485   7.194   9.467   7.626
   10POPC   C1A  486   7.043   9.790   7.247
   10POPC   D2A  487   7.154   0.049   6.882
   10POPC   C3A  488   7.045   9.933   6.505
   10POPC   C4A  489   6.847   9.962   6.122
   10POPC   C1B  490   7.504   9.606   7.296
   10POPC   C2B  491   7.373   9.572   6.855
   10POPC   C3B  492   7.434   9.584   6.408
   10POPC   C4B  493   7.669   9.681   6.002
   11POPC   NC3  494   7.963   4.831   8.109
   11POPC   PO4  495   8.000   4.179   8.338
   11POPC   GL1  496   8.120   4.339   7.888
   11POPC   GL2  497   8.459   4.357   7.807
   11POPC   C1A  498   8.157   4.185   7.417
   11POPC   D2A  499   8.186   3.973   6.996
   11POPC   C3A  500   7.980   4.098   6.601
   11POPC   C4A  501   7.908   4.116   6.151
   11POPC   C1B  502   8.536   4.543   7.406
   11POPC   C2B  503   8.527   4.392   6.998
   11POPC   C3B  504   8.397   4.447   6.590
   11POPC   C4B  505   8.294   4.462   6.167
   12POPC   NC3  506   3.336   2.052   8.183
   12POPC   PO4  507   3.800   2.563   8.137
   12POPC   GL1  508   3.653   2.257   7.830
   12POPC   GL2  509   3.557   1.899   7.731
   12POPC   C1A  510   3.555   2.322   7.408
   12POPC   D2A  511   3.394   2.474   7.032
   12POPC   C3A  512   3.304   2.180   6.731
   12POPC   C4A  513   3.454   2.229   6.301
   12POPC   C1B  514   3.772   1.707   7.334
   12POPC   C2B  515   3.969   1.640   6.881
   12POPC   C3B  516   3.721   1.871   6.559
   12POPC   C4B  517   3.290   1.753   6.447
   13POPC   NC3  518   9.237   5.945   8.042
   13POPC   PO4  519   9.511   5.359   8.136
   13POPC   GL1  520   9.187   5.466   7.865
   13POPC   GL2  521   9.430   5.659   7.663
   13POPC   C1A  522   8.913   5.525   7.495
   13POPC   D2A  523   8.951   5.356   7.064
   13POPC   C3A  524   9.063   5.612   6.712
   13POPC   C4A  525   9.123   5.863   6.333
   13POPC   C1B  526   9.255   5.800   7.256
   13POPC   C2B  527   8.846   5.894   7.101
   13POPC   C3B  528   8.772   6.038   6.697
   13POPC   C4B  529   8.591   6.131   6.321
   14POPC   NC3  530   2.016   4.404   8.311
   14POPC   PO4  531   1.429   4.231   8.017
   14POPC   GL1  532   1.716   4.320   7.730
   14POPC   GL2  533   1.916   4.588   7.826
   14POPC   C1A  534   1.714   4.347   7.286
   14POPC   D2A  535   1.681   4.081   6.906
   14POPC   C3A  536   1.778   4.318   6.545
   14POPC   C4A  537   1.810   4.219   6.096
   14POPC   C1B  538   2.178   4.328   7.521
   14POPC   C2B  539   2.166   4.118   7.080
   14POPC   C3B  540   2.220   4.074   6.593
   14POPC   C4B  541   2.270   4.389   6.232
   15POPC   NC3  542   4.324   9.058   8.134
   15POPC   PO4  543   3.875   8.488   8.182
   15POPC   GL1  544   3.873   8.792   7.755
   15POPC   GL2  545   4.048   9.123   7.696
   15POPC   C1A  546   3.761   8.976   7.303
   15POPC   D2A  547   3.932   8.812   6.890
   15POPC   C3A  548   4.118   9.014   6.508
   15POPC   C4A  549   4.186   9.234   6.052
   15POPC   C1B  550   4.262   8.916   7.319
   15POPC   C2B  551   4.481   8.633   7.068
   15POPC   C3B  552   4.610   8.767   6.658
   15POPC   C4B  553   4.449   8.791   6.205
   16POPC   NC3  554   0.370   1.144   7.892
   16POPC   PO4  555   0.695   1.655   8.061
   16POPC   GL1  556   0.499   1.588   7.648
   16POPC   GL2  557   0.173   1.436   7.522
   16POPC   C1A  558   0.640   1.365   7.265
   16POPC   D2A  559   0.900   1.178   6.931
   16POPC   C3A  560   0.713   1.185   6.501
   16POPC   C4A  561   0.435   1.479   6.307
   16POPC   C1B  562   0.234   1.028   7.278
   16POPC   C2B  563   0.379   1.104   6.879
   16POPC   C3B  564   0.183   1.073   6.489
   16POPC   C4B  565   0.177   0.979   6.053
   17POPC   NC3  566   7.962   5.777   7.998
   17POPC   PO4  567   8.633   5.890   8.033
   17POPC   GL1  568   8.393   5.769   7.681
   17POPC   GL2  569   8.247   6.126   7.706
   17POPC   C1A  570   8.455   5.568   7.248
   17POPC   D2A  571   8.543   5.562   6.798
   17POPC   C3A  572   8.213   5.597   6.451
   17POPC   C4A  573   7.946   5.545   6.075
   17POPC   C1B  574   8.382   6.087   7.252
   17POPC   C2B  575   8.275   6.009   6.788
   17POPC   C3B  576   8.067   6.100   6.372
   17POPC   C4B  577   7.852   6.181   5.948
   18POPC   NC3  578   5.749   0.423   8.320
   18POPC   PO4  579   6.226   9.944   8.318
   18POPC   GL1  580   6.034   0.327   7.914
   18POPC   GL2  581   5.679   0.496   7.829
   18POPC   C1A  582   5.904   0.318   7.424
   18POPC   D2A  583   5.995   0.005   7.093
   18POPC   C3A  584   6.078   0.084   6.653
   18POPC   C4A  585   5.919   0.038   6.266
   18POPC   C1B  586   5.538   0.673   7.420
   18POPC   C2B  587   5.742   0.781   7.015
   18POPC   C3B  588   5.763   0.537   6.605
   18POPC   C4B  589   5.959   0.540   6.205
   19POPC   NC3  590   9.548   6.582   8.105
   19POPC   PO4  591   0.222   6.242   8.160
   19POPC   GL1  592   9.962   6.501   7.795
   19POPC   GL2  593   9.802   6.796   7.723
   19POPC   C1A  594   9.808   6.554   7.284
   19POPC   D2A  595   9.845   6.438   6.812
   19POPC   C3A  596   9.874   6.588   6.357
   19POPC   C4A  597   9.950   6.373   5.875
   19POPC   C1B  598   9.389   6.798   7.475
   19POPC   C2B  599   9.255   6.575   7.077
   19POPC   C3B  600   9.382   6.644   6.627
   19POPC   C4B  601   9.383   6.884   6.243
   20POPC   NC3  602   9.608   0.961   8.434
   20POPC   PO4  603   9.988   1.394   8.005
   20POPC   GL1  604   9.688   1.313   7.698
   20POPC   GL2  605   9.362   1.283   7.860
   20POPC   C1A  606   9.744   1.222   7.274
   20POPC   D2A  607   9.852   0.990   6.906
   20POPC   C3A  608   9.681   1.121   6.501
   20POPC   C4A  609   9.695   0.834   6.161
   20POPC   C1B  610   9.255   1.165   7.421
   20POPC   C2B  611   9.327   1.150   6.944
   20POPC   C3B  612   9.356   1.496   6.611
   20POPC   C4B  613   9.500   1.532   6.167
   21POPC   NC3  614   1.913   8.049   8.036
   21POPC   PO4  615   2.363   7.554   8.068
   21POPC   GL1  616   2.184   7.780   7.664
   21POPC   GL2  617   1.863   8.024   7.542
   21POPC   C1A  618   2.260   7.949   7.248
   21POPC   D2A  619   2.025   7.913   6.873
   21POPC   C3A  620   2.297   7.937   6.520
   21POPC   C4A  621   2.452   8.077   6.129
   21POPC   C1B  622   1.503   8.307   7.381
   21POPC   C2B  623   1.371   8.316   6.939
   21POPC   C3B  624   1.656   8.169   6.603
   21POPC   C4B  625   1.970   8.237   6.288
   22POPC   NC3  626   4.164   1.504   8.202
   22POPC   PO4  627   4.711   1.118   8.406
   22POPC   GL1  628   4.603   1.358   7.973
   22POPC   GL2  629   4.291   1.200   7.811
   22POPC   C1A  630   4.635   1.326   7.451
   22POPC   D2A  631   4.418   1.263   7.013
   22POPC   C3A  632   4.487   0.928   6.662
   22POPC   C4A  633   4.663   0.909   6.216
   22POPC   C1B  634   4.009   1.261   7.449
   22POPC   C2B  635   3.913   1.150   6.993
   22POPC   C3B  636   3.975   0.957   6.590
   22POPC   C4B  637   4.247   1.186   6.284
   23POPC   NC3  638   7.808   7.038   8.044
   23POPC   PO4  639   8.329   7.497   8.111
   23POPC   GL1  640   8.040   7.355   7.763
   23POPC   GL2  641   8.235   7.382   7.585
   23POPC   C1A  642   7.901   7.123   7.340
   23POPC   D2A  643   8.118   7.206   6.919
   23POPC   C3A  644   7.925   7.053   6.518
   23POPC   C4A  645   7.726   7.019   6.113
   23POPC   C1B  646   8.246   7.631   7.238
   23POPC   C2B  647   8.401   7.704   6.829
   23POPC   C3B  648   8.306   7.661   6.410
   23POPC   C4B  649   8.274   7.437   6.015
   24POPC   NC3  650   9.217   3.509   8.020
   24POPC   PO4  651   8.740   3.966   8.016
   24POPC   GL1  652   8.864   3.681   7.687
   24POPC   GL2  653   8.807   3.291   7.796
   24POPC   C1A  654   9.115   3.763   7.303
   24POPC   D2A  655   9.346   3.601   6.950
   24POPC   C3A  656   9.095   3.725   6.620
   24POPC   C4A  657   8.776   3.623   6.341
   24POPC   C1B  658   9.048   3.274   7.410
   24POPC   C2B  659   8.904   3.335   6.985
   24POPC   C3B  660   9.018   3.198   6.577
   24POPC   C4B  661   8.815   3.145   6.190
   25POPC   NC3  662   0.217   1.784   8.100
   25POPC   PO4  663   0.457   2.224   8.445
   25POPC   GL1  664   0.407   2.157   7.851
   25POPC   GL2  665   0.689   2.069   7.658
   25POPC   C1A  666   0.181   2.072   7.435
   25POPC   D2A  667   9.942   2.171   7.031
   25POPC   C3A  668   0.130   2.036   6.648
   25POPC   C4A  669   0.176   2.054   6.207
   25POPC   C1B  670   0.623   1.926   7.237
   25POPC   C2B  671   0.617   2.095   6.819
   25POPC   C3B  672   0.648   1.998   6.390
   25POPC   C4B  673   0.560   1.814   5.962
   26POPC   NC3  674   9.865   4.339   8.167
   26POPC   PO4  675   9.367   4.724   7.855
   26POPC   GL1  676   9.701   4.506   7.646
   26POPC   GL2  677   9.777   4.127   7.705
   26POPC   C1A  678   9.675   4.630   7.218
   26POPC   D2A  679   9.422   4.635   6.813
   26POPC   C3A  680   9.582   4.479   6.402
   26POPC   C4A  681   9.549   4.663   5.985
   26POPC   C1B  682   9.872   4.157   7.272
   26POPC   C2B  683   9.890   4.338   6.875
   26POPC   C3B  684   0.032   4.182   6.534
   26POPC   C4B  685   9.952   3.958   6.188
   27POPC   NC3  686   7.281   0.969   8.105
   27POPC   PO4  687   7.707   1.424   7.787
   27POPC   GL1  688   7.263   1.357   7.670
   27POPC   GL2  689   7.122   1.025   7.637
   27POPC   C1A  690   7.161   1.290   7.218
   27POPC   D2A  691   7.364   1.261   6.808
   27POPC   C3A  692   7.055   1.375   6.500
   27POPC   C4A  693   6.947   1.180   6.098
   27POPC   C1B  694   7.536   0.962   7.372
   27POPC   C2B  695   7.745   0.927   6.971
   27POPC   C3B  696   7.618   0.853   6.562
   27POPC   C4B  697   7.462   1.166   6.283
   28POPC   NC3  698   9.288   4.965   8.237
   28POPC   PO4  699   8.610   4.928   8.082
   28POPC   GL1  700   8.877   4.776   7.700
   28POPC   GL2  701   9.085   5.051   7.579
   28POPC   C1A  702   8.992   4.701   7.211
   28POPC   D2A  703   8.886   4.679   6.735
   28POPC   C3A  704   9.130   4.809   6.342
   28POPC   C4A  705   9.079   4.846   5.851
   28POPC   C1B  706   8.654   5.083   7.390
   28POPC   C2B  707   8.559   5.026   6.967
   28POPC   C3B  708   8.768   5.160   6.578
   28POPC   C4B  709   8.701   5.531   6.309
   29POPC   NC3  710   6.008   8.862   8.370
   29POPC   PO4  711   5.451   9.238   8.246
   29POPC   GL1  712   5.699   9.236   7.853
   29POPC   GL2  713   5.840   8.892   7.803
   29POPC   C1A  714   5.770   9.211   7.400
   29POPC   D2A  715   5.961   9.114   6.997
   29POPC   C3A  716   5.736   9.208   6.611
   29POPC   C4A  717   5.394   9.189   6.293
   29POPC   C1B  718   5.938   8.696   7.389
   29POPC   C2B  719   6.153   8.636   6.999
   29POPC   C3B  720   5.927   8.712   6.650
   29POPC   C4B  721   5.778   8.823   6.284
   30POPC   NC3  722   5.025   8.875   8.185
   30POPC   PO4  723   4.433   8.691   7.891
   30POPC   GL1  724   4.837   8.769   7.703
   30POPC   GL2  725   4.916   9.152   7.732
   30POPC   C1A  726   4.926   8.857   7.267
   30POPC   D2A  727   4.784   9.228   7.067
   30POPC   C3A  728   4.911   9.256   6.665
   30POPC   C4A  729   4.913   8.986   6.327
   30POPC   C1B  730   5.330   8.979   7.555
   30POPC   C2B  731   5.482   8.886   7.112
   30POPC   C3B  732   5.392   8.808   6.661
   30POPC   C4B  733   5.304   8.699   6.213
   31POPC   NC3  734   5.912   9.677   8.076
   31POPC   PO4  735   5.387   0.062   8.278
   31POPC   GL1  736   5.632   9.995   7.811
   31POPC   GL2  737   5.791   9.713   7.568
   31POPC   C1A  738   5.450   0.061   7.384
   31POPC   D2A  739   5.547   0.278   6.991
   31POPC   C3A  740   5.506   0.037   6.574
   31POPC   C4A  741   5.582   9.662   6.283
   31POPC   C1B  742   6.138   9.540   7.256
   31POPC   C2B  743   6.253   9.570   6.820
   31POPC   C3B  744   6.052   9.559   6.412
   31POPC   C4B  745   5.888   9.272   6.082
   32POPC   NC3  746   7.152   2.437   8.180
   32POPC   PO4  747   7.218   3.119   8.146
   32POPC   GL1  748   7.278   2.801   7.852
   32POPC   GL2  749   7.541   2.879   7.681
   32POPC   C1A  750   7.126   2.610   7.479
   32POPC   D2A  751   7.279   2.680   7.064
   32POPC   C3A  752   7.149   2.645   6.627
   32POPC   C4A  753   7.213   3.011   6.344
   32POPC   C1B  754   7.779   2.749   7.329
   32POPC   C2B  755   7.773   2.589   6.919
   32POPC   C3B  756   7.636   2.762   6.530
   32POPC   C4B  757   7.601   2.850   6.054
   33POPC   NC3  758   8.963   9.259   8.325
   33POPC   PO4  759   9.218   8.568   8.271
   33POPC   GL1  760   9.076   8.822   7.877
   33POPC   GL2  761   8.726   8.814   7.987
   33POPC   C1A  762   9.107   8.953   7.378
   33POPC   D2A  763   9.176   8.762   6.974
   33POPC   C3A  764   9.150   9.015   6.623
   33POPC   C4A  765   8.952   8.979   6.263
   33POPC   C1B  766   8.613   8.891   7.549
   33POPC   C2B  767   8.685   8.903   7.081
   33POPC   C3B  768   8.696   8.742   6.644
   33POPC   C4B  769   8.448   8.670   6.245
   34POPC   NC3  770   5.052   0.371   8.151
   34POPC   PO4  771   4.653   0.868   7.921
   34POPC   GL1  772   4.891   0.566   7.675
   34POPC   GL2  773   4.756   0.220   7.644
   34POPC   C1A  774   5.082   0.503   7.254
   34POPC   D2A  775   5.250   0.684   6.862
   34POPC   C3A  776   5.027   0.616   6.478
   34POPC   C4A  777   5.079   0.591   6.021
   34POPC   C1B  778   4.748   0.110   7.188
   34POPC   C2B  779   5.046   0.187   6.800
   34POPC   C3B  780   5.057   0.130   6.311
   34POPC   C4B  781   4.879   0.142   5.851
   35POPC   NC3  782   0.314   6.754   8.215
   35POPC   PO4  783   0.860   6.602   8.116
   35POPC   GL1  784   0.782   6.445   7.720
   35POPC   GL2  785   0.467   6.475   7.780
   35POPC   C1A  786   0.747   6.646   7.329
   35POPC   D2A  787   0.755   6.935   6.975
   35POPC   C3A  788   0.777   6.692   6.607
   35POPC   C4A  789   0.650   6.770   6.191
   35POPC   C1B  790   0.285   6.466   7.400
   35POPC   C2B  791   0.437   6.421   6.972
   35POPC   C3B  792   0.320   6.464   6.556
   35POPC   C4B  793   0.173   6.157   6.271
   36POPC   NC3  794   7.604   8.614   7.962
   36POPC   PO4  795   7.816   9.245   8.058
   36POPC   GL1  796   7.542   9.091   7.747
   36POPC   GL2  797   7.203   8.954   7.867
   36POPC   C1A  798   7.627   9.098   7.294
   36POPC   D2A  799   7.840   9.123   6.893
   36POPC   C3A  800   7.627   9.046   6.511
   36POPC   C4A  801   7.527   9.189   6.075
   36POPC   C1B  802   7.246   8.795   7.448
   36POPC   C2B  803   7.289   8.716   7.022
   36POPC   C3B  804   7.024   8.676   6.653
   36POPC   C4B  805   7.214   8.841   6.303
   37POPC   NC3  806   1.980   8.719   8.136
   37POPC   PO4  807   2.293   8.226   7.835
   37POPC   GL1  808   1.980   8.520   7.667
   37POPC   GL2  809   2.037   8.913   7.670
   37POPC   C1A  810   1.909   8.628   7.249
   37POPC   D2A  811   2.035   8.944   6.967
   37POPC   C3A  812   2.033   8.760   6.554
   37POPC   C4A  813   1.667   8.659   6.297
   37POPC   C1B  814   2.205   9.257   7.376
   37POPC   C2B  815   2.409   9.301   6.947
   37POPC   C3B  816   2.223   9.252   6.539
   37POPC   C4B  817   1.911   9.135   6.222
   38POPC   NC3  818   0.706   6.178   8.149
   38POPC   PO4  819   0.478   5.560   7.978
   38POPC   GL1  820   0.502   5.949   7.756
   38POPC   GL2  821   0.839   5.917   7.692
   38POPC   C1A  822   0.522   6.035   7.327
   38POPC   D2A  823   0.405   5.766   6.989
   38POPC   C3A  824   0.515   5.947   6.593
   38POPC   C4A  825   0.713   6.244   6.300
   38POPC   C1B  826   0.816   5.615   7.312
   38POPC   C2B  827   0.743   5.403   6.894
   38POPC   C3B  828   0.585   5.441   6.457
   38POPC   C4B  829   0.240   5.641   6.253
   39POPC   NC3  830   2.127   7.152   8.107
   39POPC   PO4  831   1.538   7.657   8.096
   39POPC   GL1  832   1.739   7.551   7.685
   39POPC   GL2  833   2.002   7.300   7.647
   39POPC   C1A  834   1.908   7.570   7.237
   39POPC   D2A  835   1.755   7.427   6.815
   39POPC   C3A  836   1.866   7.670   6.461
   39POPC   C4A  837   2.073   7.639   6.042
   39POPC   C1B  838   2.241   7.136   7.307
   39POPC   C2B  839   2.131   7.086   6.877
   39POPC   C3B  840   2.222   7.278   6.482
   39POPC   C4B  841   2.244   7.154   6.038
   40POPC   NC3  842   6.519   0.169   8.005
   40POPC   PO4  843   6.969   0.652   7.961
   40POPC   GL1  844   6.920   0.310   7.689
   40POPC   GL2  845   6.622   0.487   7.606
   40POPC   C1A  846   6.867   0.254   7.239
   40POPC   D2A  847   6.757   0.556   6.908
   40POPC   C3A  848   6.855   0.427   6.456
   40POPC   C4A  849   6.732   0.691   6.110
   40POPC   C1B  850   6.379   0.341   7.288
   40POPC   C2B  851   6.169   0.483   6.949
   40POPC   C3B  852   6.358   0.554   6.558
   40POPC   C4B  853   6.400   0.286   6.238
   41POPC   NC3  854   8.924   7.363   8.136
   41POPC   PO4  855   8.457   6.864   8.176
   41POPC   GL1  856   8.635   7.131   7.787
   41POPC   GL2  857   9.031   7.197   7.659
   41POPC   C1A  858   8.697   7.502   7.482
   41POPC   D2A  859   8.671   7.352   7.082
   41POPC   C3A  860   8.830   7.450   6.686
   41POPC   C4A  861   8.751   7.473   6.245
   41POPC   C1B  862   9.181   7.446   7.274
   41POPC   C2B  863   9.330   7.593   6.842
   41POPC   C3B  864   9.194   7.694   6.397
   41POPC   C4B  865   9.250   7.717   5.927
   42POPC   NC3  866   2.452   3.719   8.206
   42POPC   PO4  867   1.841   3.985   8.369
   42POPC   GL1  868   1.818   3.845   7.905
   42POPC   GL2  869   1.860   3.469   7.800
   42POPC   C1A  870   1.755   3.856   7.447
   42POPC   D2A  871   2.021   3.632   7.154
   42POPC   C3A  872   1.924   3.655   6.713
   42POPC   C4A  873   1.657   3.827   6.389
   42POPC   C1B  874   1.681   3.326   7.379
   42POPC   C2B  875   1.561   3.154   6.957
   42POPC   C3B  876   1.727   3.156   6.511
   42POPC   C4B  877   2.016   3.411   6.263
   43POPC   NC3  878   1.030   3.072   8.070
   43POPC   PO4  879   0.743   2.503   7.955
   43POPC   GL1  880   0.958   2.747   7.668
   43POPC   GL2  881   1.323   2.765   7.746
   43POPC   C1A  882   0.879   2.742   7.251
   43POPC   D2A  883   0.794   2.568   6.885
   43POPC   C3A  884   0.885   2.805   6.546
   43POPC   C4A  885   1.017   2.673   6.137
   43POPC   C1B  886   1.539   2.740   7.336
   43POPC   C2B  887   1.313   2.694   6.937
   43POPC   C3B  888   1.436   2.710   6.520
   43POPC   C4B  889   1.435   2.943   6.140
   44POPC   NC3  890   9.414   1.853   7.949
   44POPC   PO4  891   9.966   2.256   8.052
   44POPC   GL1  892   9.748   2.157   7.686
   44POPC   GL2  893   9.860   1.809   7.711
   44POPC   C1A  894   9.505   2.247   7.293
   44POPC   D2A  895   9.492   2.491   6.886
   44POPC   C3A  896   9.802   2.421   6.506
   44POPC   C4A  897   9.769   2.284   5.998
   44POPC   C1B  898   9.783   1.741   7.273
   44POPC   C2B  899   9.849   1.511   6.860
   44POPC   C3B  900   9.932   1.591   6.432
   44POPC   C4B  901   9.684   1.954   6.370
   45POPC   NC3  902   0.324   2.553   8.166
   45POPC   PO4  903   0.511   3.178   8.103
   45POPC   GL1  904   0.385   2.904   7.734
   45POPC   GL2  905   0.137   2.608   7.694
   45POPC   C1A  906   0.266   2.983   7.292
   45POPC   D2A  907   0.520   2.997   6.918
   45POPC   C3A  908   0.466   3.114   6.487
   45POPC   C4A  909   0.556   2.870   6.133
   45POPC   C1B  910   0.408   2.502   7.313
   45POPC   C2B  911   0.287   2.516   6.866
   45POPC   C3B  912   0.405   2.476   6.435
   45POPC   C4B  913   0.201   2.542   6.017
   46POPC   NC3  914   8.190   7.159   8.385
   46POPC   PO4  915   7.912   6.582   8.082
   46POPC   GL1  916   8.169   6.847   7.744
   46POPC   GL2  917   8.443   6.628   7.683
   46POPC   C1A  918   8.390   6.978   7.315
   46POPC   D2A  919   8.571   6.903   6.878
   46POPC   C3A  920   8.441   7.114   6.487
   46POPC   C4A  921   8.260   6.943   6.089
   46POPC   C1B  922   8.126   6.538   7.348
   46POPC   C2B  923   8.251   6.502   6.922
   46POPC   C3B  924   8.325   6.580   6.499
   46POPC   C4B  925   7.949   6.583   6.269
   47POPC   NC3  926   4.997   1.483   8.375
   47POPC   PO4  927   4.494   1.844   8.171
   47POPC   GL1  928   4.783   1.819   7.847
   47POPC   GL2  929   5.121   1.877   7.969
   47POPC   C1A  930   4.798   1.812   7.397
   47POPC   D2A  931   4.959   2.026   7.028
   47POPC   C3A  932   4.748   2.043   6.622
   47POPC   C4A  933   4.624   1.911   6.209
   47POPC   C1B  934   5.326   1.976   7.534
   47POPC   C2B  935   5.465   1.946   7.073
   47POPC   C3B  936   5.310   1.986   6.634
   47POPC   C4B  937   5.407   2.029   6.184
   48POPC   NC3  938   2.650   4.574   7.962
   48POPC   PO4  939   2.754   5.223   8.071
   48POPC   GL1  940   2.645   5.199   7.641
   48POPC   GL2  941   2.600   4.842   7.509
   48POPC   C1A  942   2.680   5.242   7.198
   48POPC   D2A  943   2.494   5.000   6.887
   48POPC   C3A  944   2.577   5.107   6.461
   48POPC   C4A  945   2.547   5.088   6.007
   48POPC   C1B  946   2.896   4.769   7.121
   48POPC   C2B  947   2.891   4.752   6.632
   48POPC   C3B  948   2.759   4.653   6.205
   48POPC   C4B  949   2.943   4.494   5.770
   49POPC   NC3  950   4.307   2.280   8.201
   49POPC   PO4  951   3.760   1.791   8.200
   49POPC   GL1  952   4.058   1.946   7.893
   49POPC   GL2  953   4.262   1.707   7.738
   49POPC   C1A  954   4.047   2.138   7.468
   49POPC   D2A  955   3.899   2.113   7.016
   49POPC   C3A  956   4.191   2.052   6.630
   49POPC   C4A  957   4.191   2.232   6.217
   49POPC   C1B  958   4.282   1.690   7.317
   49POPC   C2B  959   4.474   1.782   6.969
   49POPC   C3B  960   4.460   1.584   6.582
   49POPC   C4B  961   4.153   1.692   6.272
   50POPC   NC3  962   6.328   7.307   7.998
   50POPC   PO4  963   6.774   7.106   8.447
   50POPC   GL1  964   6.772   7.157   7.832
   50POPC   GL2  965   7.016   7.399   7.689
   50POPC   C1A  966   6.629   7.243   7.383
   50POPC   D2A  967   6.413   7.412   7.000
   50POPC   C3A  968   6.579   7.346   6.590
   50POPC   C4A  969   6.803   7.101   6.281
   50POPC   C1B  970   7.015   7.533   7.265
   50POPC   C2B  971   6.985   7.306   6.903
   50POPC   C3B  972   7.060   7.497   6.508
   50POPC   C4B  973   6.833   7.582   6.103
   51POPC   NC3  974   9.710   2.641   8.079
   51POPC   PO4  975   9.168   3.084   8.213
   51POPC   GL1  976   9.369   2.941   7.764
   51POPC   GL2  977   9.600   2.651   7.610
   51POPC   C1A  978   9.320   2.867   7.282
   51POPC   D2A  979   9.426   3.095   6.942
   51POPC   C3A  980   9.499   2.889   6.568
   51POPC   C4A  981   9.287   2.942   6.197
   51POPC   C1B  982   9.865   2.630   7.254
   51POPC   C2B  983   9.925   2.877   6.894
   51POPC   C3B  984   0.024   2.876   6.462
   51POPC   C4B  985   9.760   2.767   6.123
   52POPC   NC3  986   6.669   1.869   8.320
   52POPC   PO4  987   7.093   1.395   8.164
   52POPC   GL1  988   6.825   1.606   7.887
   52POPC   GL2  989   6.804   1.990   7.843
   52POPC   C1A  990   6.764   1.575   7.445
   52POPC   D2A  991   6.492   1.427   7.111
   52POPC   C3A  992   6.624   1.570   6.692
   52POPC   C4A  993   6.799   1.807   6.316
   52POPC   C1B  994   6.518   2.068   7.478
   52POPC   C2B  995   6.458   1.951   7.022
   52POPC   C3B  996   6.325   1.991   6.573
   52POPC   C4B  997   6.404   2.199   6.149
   53POPC   NC3  998   0.218   3.486   7.909
   53POPC   PO4  999   9.875   3.021   8.284
   53POPC   GL1 1000   9.872   3.074   7.817
   53POPC   GL2 1001   9.688   3.411   7.759
   53POPC   C1A 1002   9.783   3.133   7.357
   53POPC   D2A 1003   0.031   3.374   7.042
   53POPC   C3A 1004   9.801   3.333   6.680
   53POPC   C4A 1005   9.706   3.251   6.279
   53POPC   C1B 1006   9.703   3.669   7.332
   53POPC   C2B 1007   9.806   3.811   6.863
   53POPC   C3B 1008   9.571   3.737   6.437
   53POPC   C4B 1009   9.259   3.448   6.179
   54POPC   NC3 1010   6.998   8.759   8.467
   54POPC   PO4 1011   6.429   9.045   8.303
   54POPC   GL1 1012   6.417   8.917   7.830
   54POPC   GL2 1013   6.731   8.690   7.762
   54POPC   C1A 1014   6.337   9.047   7.363
   54POPC   D2A 1015   6.521   9.129   6.924
   54POPC   C3A 1016   6.252   9.103   6.572
   54POPC   C4A 1017   6.286   8.780   6.300
   54POPC   C1B 1018   6.840   9.086   7.536
   54POPC   C2B 1019   7.107   9.234   7.160
   54POPC   C3B 1020   7.093   9.173   6.693
   54POPC   C4B 1021   6.735   9.008   6.414
   55POPC   NC3 1022   9.667   0.342   7.824
   55POPC   PO4 1023   9.268   0.727   8.194
   55POPC   GL1 1024   9.532   0.815   7.753
   55POPC   GL2 1025   9.911   0.790   7.655
   55POPC   C1A 1026   9.522   0.756   7.280
   55POPC   D2A 1027   9.602   0.540   6.877
   55POPC   C3A 1028   9.358   0.731   6.552
   55POPC   C4A 1029   9.209   0.643   6.147
   55POPC   C1B 1030   9.936   0.467   7.276
   55POPC   C2B 1031   9.999   0.179   6.919
   55POPC   C3B 1032   9.958   0.391   6.528
   55POPC   C4B 1033   9.603   0.334   6.305
   56POPC   NC3 1034   0.086   5.797   8.035
   56POPC   PO4 1035   9.562   6.173   7.797
   56POPC   GL1 1036   9.983   6.045   7.584
   56POPC   GL2 1037   0.137   5.710   7.502
   56POPC   C1A 1038   0.048   6.095   7.139
   56POPC   D2A 1039   9.974   5.892   6.741
   56POPC   C3A 1040   9.648   6.076   6.495
   56POPC   C4A 1041   9.722   5.966   6.099
   56POPC   C1B 1042   9.754   5.693   7.261
   56POPC   C2B 1043   9.566   5.580   6.851
   56POPC   C3B 1044   9.591   5.566   6.387
   56POPC   C4B 1045   9.365   5.630   5.950
   57POPC   NC3 1046   8.145   9.573   8.070
   57POPC   PO4 1047   8.639   0.021   7.954
   57POPC   GL1 1048   8.278   9.863   7.645
   57POPC   GL2 1049   8.306   9.464   7.598
   57POPC   C1A 1050   7.905   9.996   7.341
   57POPC   D2A 1051   7.698   9.957   6.910
   57POPC   C3A 1052   7.823   9.942   6.447
   57POPC   C4A 1053   8.144   9.847   6.135
   57POPC   C1B 1054   8.024   9.504   7.225
   57POPC   C2B 1055   8.041   9.584   6.763
   57POPC   C3B 1056   7.937   9.430   6.352
   57POPC   C4B 1057   8.074   9.377   5.894
   58POPC   NC3 1058   3.721   7.590   8.079
   58POPC   PO4 1059   3.567   6.989   8.071
   58POPC   GL1 1060   3.765   7.285   7.636
   58POPC   GL2 1061   3.615   7.586   7.437
   58POPC   C1A 1062   3.878   7.345   7.111
   58POPC   D2A 1063   3.608   7.515   6.754
   58POPC   C3A 1064   3.406   7.208   6.491
   58POPC   C4A 1065   3.468   7.008   6.081
   58POPC   C1B 1066   3.248   7.646   7.155
   58POPC   C2B 1067   3.131   7.733   6.723
   58POPC   C3B 1068   3.314   7.685   6.323
   58POPC   C4B 1069   3.745   7.598   6.244
   59POPC   NC3 1070   8.823   2.232   7.864
   59POPC   PO4 1071   9.016   1.623   8.044
   59POPC   GL1 1072   9.060   1.614   7.591
   59POPC   GL2 1073   8.759   1.766   7.520
   59POPC   C1A 1074   9.288   1.630   7.169
   59POPC   D2A 1075   9.466   1.950   6.862
   59POPC   C3A 1076   9.195   1.990   6.485
   59POPC   C4A 1077   9.023   1.682   6.226
   59POPC   C1B 1078   9.020   2.060   7.267
   59POPC   C2B 1079   8.933   2.215   6.865
   59POPC   C3B 1080   8.686   1.950   6.606
   59POPC   C4B 1081   8.537   1.766   6.248
   60POPC   NC3 1082   6.690   1.133   8.209
   60POPC   PO4 1083   6.089   0.773   8.233
   60POPC   GL1 1084   6.359   0.858   7.847
   60POPC   GL2 1085   6.575   1.142   7.708
   60POPC   C1A 1086   6.245   0.809   7.385
   60POPC   D2A 1087   6.348   0.951   6.958
   60POPC   C3A 1088   6.065   0.954   6.615
   60POPC   C4A 1089   6.245   0.954   6.202
   60POPC   C1B 1090   6.740   0.970   7.306
   60POPC   C2B 1091   6.824   1.102   6.880
   60POPC   C3B 1092   6.622   1.077   6.502
   60POPC   C4B 1093   6.471   1.409   6.211
   61POPC   NC3 1094   1.049   4.041   7.865
   61POPC   PO4 1095   0.921   4.664   7.950
   61POPC   GL1 1096   0.886   4.433   7.578
   61POPC   GL2 1097   1.243   4.369   7.528
   61POPC   C1A 1098   0.869   4.420   7.099
   61POPC   D2A 1099   0.832   4.660   6.732
   61POPC   C3A 1100   0.892   4.479   6.352
   61POPC   C4A 1101   1.029   4.390   5.913
   61POPC   C1B 1102   1.254   4.092   7.181
   61POPC   C2B 1103   1.183   4.182   6.722
   61POPC   C3B 1104   1.346   4.252   6.301
   61POPC   C4B 1105   1.362   3.986   5.951
   62POPC   NC3 1106   7.621   3.320   8.208
   62POPC   PO4 1107   7.142   3.788   8.004
   62POPC   GL1 1108   7.406   3.482   7.782
   62POPC   GL2 1109   7.183   3.264   7.616
   62POPC   C1A 1110   7.678   3.298   7.449
   62POPC   D2A 1111   7.548   3.110   7.041
   62POPC   C3A 1112   7.574   3.274   6.616
   62POPC   C4A 1113   7.598   3.327   6.196
   62POPC   C1B 1114   7.307   3.605   7.292
   62POPC   C2B 1115   7.348   3.654   6.857
   62POPC   C3B 1116   7.097   3.496   6.506
   62POPC   C4B 1117   7.167   3.539   6.075
   63POPC   NC3 1118   1.918   2.875   8.158
   63POPC   PO4 1119   2.502   3.247   8.226
   63POPC   GL1 1120   2.294   3.079   7.806
   63POPC   GL2 1121   2.172   2.739   7.729
   63POPC   C1A 1122   2.134   3.081   7.331
   63POPC   D2A 1123   2.071   3.196   6.889
   63POPC   C3A 1124   2.228   2.962   6.514
   63POPC   C4A 1125   2.145   2.940   6.068
   63POPC   C1B 1126   2.057   2.574   7.322
   63POPC   C2B 1127   1.899   2.711   6.917
   63POPC   C3B 1128   1.945   2.536   6.516
   63POPC   C4B 1129   1.795   2.586   6.089
   64POPC   NC3 1130   8.070   7.833   7.911
   64POPC   PO4 1131   8.258   8.409   8.269
   64POPC   GL1 1132   8.371   8.475   7.804
   64POPC   GL2 1133   8.337   8.137   7.616
   64POPC   C1A 1134   8.361   8.515   7.316
   64POPC   D2A 1135   8.405   8.168   7.043
   64POPC   C3A 1136   8.412   8.313   6.641
   64POPC   C4A 1137   8.389   8.160   6.243
   64POPC   C1B 1138   7.974   8.075   7.287
   64POPC   C2B 1139   7.907   7.821   6.884
   64POPC   C3B 1140   7.868   7.961   6.466
   64POPC   C4B 1141   8.015   7.894   6.051
   65POPC   NC3 1142   4.239   9.792   8.168
   65POPC   PO4 1143   4.751   9.291   8.233
   65POPC   GL1 1144   4.477   9.454   7.860
   65POPC   GL2 1145   4.419   9.822   7.703
   65POPC   C1A 1146   4.455   9.365   7.440
   65POPC   D2A 1147   4.456   9.642   7.070
   65POPC   C3A 1148   4.414   9.407   6.667
   65POPC   C4A 1149   4.615   9.389   6.253
   65POPC   C1B 1150   4.065   9.681   7.483
   65POPC   C2B 1151   3.954   9.791   7.063
   65POPC   C3B 1152   4.190   9.888   6.642
   65POPC   C4B 1153   4.075   9.817   6.180
   66POPC   NC3 1154   2.074   1.223   8.049
   66POPC   PO4 1155   1.563   0.806   8.131
   66POPC   GL1 1156   1.758   0.952   7.752
   66POPC   GL2 1157   2.124   0.949   7.607
   66POPC   C1A 1158   1.664   1.181   7.384
   66POPC   D2A 1159   1.767   1.085   6.977
   66POPC   C3A 1160   1.723   1.234   6.565
   66POPC   C4A 1161   1.997   1.123   6.228
   66POPC   C1B 1162   2.182   1.239   7.239
   66POPC   C2B 1163   2.180   1.337   6.780
   66POPC   C3B 1164   2.079   1.613   6.418
   66POPC   C4B 1165   1.969   1.631   5.968
   67POPC   NC3 1166   7.342   4.206   8.016
   67POPC   PO4 1167   7.496   4.803   8.074
   67POPC   GL1 1168   7.668   4.536   7.721
   67POPC   GL2 1169   7.706   4.136   7.649
   67POPC   C1A 1170   7.552   4.488   7.279
   67POPC   D2A 1171   7.723   4.443   6.872
   67POPC   C3A 1172   7.556   4.329   6.443
   67POPC   C4A 1173   7.205   4.441   6.176
   67POPC   C1B 1174   7.644   4.003   7.188
   67POPC   C2B 1175   7.287   4.167   6.906
   67POPC   C3B 1176   7.167   4.010   6.503
   67POPC   C4B 1177   7.539   3.796   6.389
   68POPC   NC3 1178   2.085   5.384   8.124
   68POPC   PO4 1179   2.278   4.766   8.194
   68POPC   GL1 1180   2.198   5.012   7.808
   68POPC   GL2 1181   1.851   5.112   7.744
   68POPC   C1A 1182   2.190   5.144   7.364
   68POPC   D2A 1183   2.135   5.402   7.004
   68POPC   C3A 1184   2.049   5.119   6.676
   68POPC   C4A 1185   2.157   4.886   6.294
   68POPC   C1B 1186   1.642   4.966   7.359
   68POPC   C2B 1187   1.604   5.167   6.943
   68POPC   C3B 1188   1.575   5.085   6.497
   68POPC   C4B 1189   1.676   4.722   6.246
   69POPC   NC3 1190   7.929   2.796   7.996
   69POPC   PO4 1191   8.478   2.466   8.030
   69POPC   GL1 1192   8.372   2.728   7.690
   69POPC   GL2 1193   8.196   3.049   7.645
   69POPC   C1A 1194   8.287   2.644   7.264
   69POPC   D2A 1195   8.421   2.454   6.871
   69POPC   C3A 1196   8.145   2.587   6.553
   69POPC   C4A 1197   7.921   2.515   6.191
   69POPC   C1B 1198   8.116   3.157   7.226
   69POPC   C2B 1199   8.007   3.069   6.800
   69POPC   C3B 1200   8.007   3.064   6.358
   69POPC   C4B 1201   8.302   2.857   6.118
   70POPC   NC3 1202   1.142   7.314   8.159
   70POPC   PO4 1203   1.694   6.793   8.141
   70POPC   GL1 1204   1.538   7.090   7.727
   70POPC   GL2 1205   1.256   7.370   7.677
   70POPC   C1A 1206   1.497   7.287   7.255
   70POPC   D2A 1207   1.238   7.179   6.888
   70POPC   C3A 1208   1.384   7.284   6.456
   70POPC   C4A 1209   1.762   7.246   6.217
   70POPC   C1B 1210   0.999   7.479   7.278
   70POPC   C2B 1211   0.910   7.537   6.826
   70POPC   C3B 1212   0.855   7.214   6.476
   70POPC   C4B 1213   0.957   7.228   6.016
   71POPC   NC3 1214   0.655   9.653   8.226
   71POPC   PO4 1215   1.254   9.251   8.116
   71POPC   GL1 1216   1.325   9.405   7.693
   71POPC   GL2 1217   1.019   9.607   7.720
   71POPC   C1A 1218   1.253   9.339   7.231
   71POPC   D2A 1219   0.954   9.128   6.923
   71POPC   C3A 1220   0.948   9.265   6.476
   71POPC   C4A 1221   0.922   9.299   6.019
   71POPC   C1B 1222   1.294   9.830   7.426
   71POPC   C2B 1223   1.320   9.921   6.988
   71POPC   C3B 1224   0.980   9.991   6.701
   71POPC   C4B 1225   0.874   9.870   6.305
   72POPC   NC3 1226   6.662   6.793   8.143
   72POPC   PO4 1227   6.146   6.935   7.771
   72POPC   GL1 1228   6.528   6.780   7.552
   72POPC   GL2 1229   6.804   6.581   7.689
   72POPC   C1A 1230   6.544   6.833   7.087
   72POPC   D2A 1231   6.769   6.867   6.717
   72POPC   C3A 1232   6.551   6.676   6.333
   72POPC   C4A 1233   6.463   6.805   5.885
   72POPC   C1B 1234   6.817   6.426   7.231
   72POPC   C2B 1235   6.711   6.361   6.760
   72POPC   C3B 1236   6.717   6.189   6.316
   72POPC   C4B 1237   6.618   6.269   5.870
   73POPC   NC3 1238   7.515   6.340   8.019
   73POPC   PO4 1239   7.110   6.845   8.024
   73POPC   GL1 1240   7.204   6.901   7.639
   73POPC   GL2 1241   7.546   6.782   7.699
   73POPC   C1A 1242   7.040   6.889   7.210
   73POPC   D2A 1243   7.178   6.601   6.876
   73POPC   C3A 1244   7.074   6.561   6.410
   73POPC   C4A 1245   6.964   6.681   5.989
   73POPC   C1B 1246   7.570   6.726   7.279
   73POPC   C2B 1247   7.814   6.751   6.920
   73POPC   C3B 1248   7.571   6.646   6.561
   73POPC   C4B 1249   7.534   6.220   6.372
   74POPC   NC3 1250   6.202   2.659   7.970
   74POPC   PO4 1251   6.692   2.324   8.238
   74POPC   GL1 1252   6.744   2.539   7.827
   74POPC   GL2 1253   6.787   2.910   7.807
   74POPC   C1A 1254   6.564   2.601   7.399
   74POPC   D2A 1255   6.335   2.462   7.028
   74POPC   C3A 1256   6.443   2.508   6.583
   74POPC   C4A 1257   6.156   2.672   6.237
   74POPC   C1B 1258   6.851   3.006   7.338
   74POPC   C2B 1259   6.755   2.815   6.930
   74POPC   C3B 1260   6.724   2.916   6.482
   74POPC   C4B 1261   6.650   2.674   6.118
   75POPC   NC3 1262   3.574   0.544   8.139
   75POPC   PO4 1263   3.908   1.100   8.145
   75POPC   GL1 1264   3.948   0.797   7.788
   75POPC   GL2 1265   3.742   0.499   7.673
   75POPC   C1A 1266   3.963   0.762   7.324
   75POPC   D2A 1267   3.588   0.764   7.055
   75POPC   C3A 1268   3.605   0.538   6.669
   75POPC   C4A 1269   3.744   0.645   6.247
   75POPC   C1B 1270   3.376   0.427   7.418
   75POPC   C2B 1271   3.197   0.425   7.008
   75POPC   C3B 1272   3.213   0.196   6.635
   75POPC   C4B 1273   3.259   0.462   6.279
   76POPC   NC3 1274   2.486   2.053   8.169
   76POPC   PO4 1275   3.006   2.440   8.300
   76POPC   GL1 1276   3.072   2.339   7.812
   76POPC   GL2 1277   2.852   2.041   7.772
   76POPC   C1A 1278   3.037   2.218   7.314
   76POPC   D2A 1279   2.760   2.095   6.911
   76POPC   C3A 1280   2.873   2.089   6.438
   76POPC   C4A 1281   2.875   2.065   5.947
   76POPC   C1B 1282   2.724   1.817   7.387
   76POPC   C2B 1283   2.518   1.639   7.029
   76POPC   C3B 1284   2.584   1.642   6.572
   76POPC   C4B 1285   2.855   1.633   6.188
   77POPC   NC3 1286   1.400   4.681   7.931
   77POPC   PO4 1287   1.448   5.250   8.011
   77POPC   GL1 1288   1.131   5.085   7.752
   77POPC   GL2 1289   1.015   5.426   7.737
   77POPC   C1A 1290   1.099   4.817   7.341
   77POPC   D2A 1291   1.353   4.597   7.015
   77POPC   C3A 1292   1.301   4.681   6.575
   77POPC   C4A 1293   1.196   4.855   6.133
   77POPC   C1B 1294   1.227   5.288   7.316
   77POPC   C2B 1295   1.113   5.064   6.898
   77POPC   C3B 1296   1.080   5.235   6.484
   77POPC   C4B 1297   1.353   5.359   6.125
   78POPC   NC3 1298   8.040   0.880   8.131
   78POPC   PO4 1299   8.033   1.551   8.213
   78POPC   GL1 1300   8.180   1.251   7.814
   78POPC   GL2 1301   8.489   1.360   7.703
   78POPC   C1A 1302   8.093   1.064   7.351
   78POPC   D2A 1303   8.294   1.100   6.912
   78POPC   C3A 1304   8.141   0.873   6.520
   78POPC   C4A 1305   7.904   0.967   6.117
   78POPC   C1B 1306   8.273   1.540   7.337
   78POPC   C2B 1307   7.907   1.455   7.019
   78POPC   C3B 1308   7.870   1.321   6.578
   78POPC   C4B 1309   8.215   1.347   6.263
   79POPC   NC3 1310   1.947   0.563   8.089
   79POPC   PO4 1311   1.934   9.906   8.084
   79POPC   GL1 1312   1.677   0.070   7.734
   79POPC   GL2 1313   1.612   0.451   7.723
   79POPC   C1A 1314   1.863   0.142   7.331
   79POPC   D2A 1315   2.192   0.232   7.008
   79POPC   C3A 1316   2.018   0.195   6.597
   79POPC   C4A 1317   2.067   0.217   6.171
   79POPC   C1B 1318   1.804   0.663   7.324
   79POPC   C2B 1319   2.131   0.753   6.980
   79POPC   C3B 1320   2.029   0.717   6.529
   79POPC   C4B 1321   1.695   0.534   6.259
   80POPC   NC3 1322   5.145   9.601   8.311
   80POPC   PO4 1323   4.641   0.078   8.166
   80POPC   GL1 1324   4.874   9.773   7.910
   80POPC   GL2 1325   5.141   9.926   7.815
   80POPC   C1A 1326   4.857   9.667   7.447
   80POPC   D2A 1327   4.982   9.704   7.000
   80POPC   C3A 1328   4.729   9.803   6.647
   80POPC   C4A 1329   4.594   9.895   6.228
   80POPC   C1B 1330   5.315   9.524   7.616
   80POPC   C2B 1331   5.311   9.360   7.173
   80POPC   C3B 1332   5.346   9.515   6.713
   80POPC   C4B 1333   5.080   9.609   6.327
   81POPC   NC3 1334   1.047   8.825   8.106
   81POPC   PO4 1335   1.576   8.382   8.057
   81POPC   GL1 1336   1.542   8.832   7.830
   81POPC   GL2 1337   1.209   8.922   7.644
   81POPC   C1A 1338   1.631   9.036   7.405
   81POPC   D2A 1339   1.369   8.824   7.077
   81POPC   C3A 1340   1.296   8.847   6.616
   81POPC   C4A 1341   1.368   9.077   6.191
   81POPC   C1B 1342   1.033   8.603   7.400
   81POPC   C2B 1343   0.886   8.564   6.991
   81POPC   C3B 1344   0.740   8.752   6.626
   81POPC   C4B 1345   0.953   8.773   6.249
   82POPC   NC3 1346   9.518   8.918   8.194
   82POPC   PO4 1347   9.959   8.452   8.143
   82POPC   GL1 1348   9.826   8.702   7.806
   82POPC   GL2 1349   9.515   8.531   7.820
   82POPC   C1A 1350   9.992   8.887   7.389
   82POPC   D2A 1351   9.971   9.200   7.017
   82POPC   C3A 1352   9.850   9.009   6.600
   82POPC   C4A 1353   9.848   8.752   6.155
   82POPC   C1B 1354   9.514   8.655   7.383
   82POPC   C2B 1355   9.674   8.690   6.967
   82POPC   C3B 1356   9.487   8.668   6.507
   82POPC   C4B 1357   9.472   9.090   6.208
   83POPC   NC3 1358   2.521   5.607   7.941
   83POPC   PO4 1359   1.946   5.730   8.374
   83POPC   GL1 1360   1.822   5.697   7.832
   83POPC   GL2 1361   2.111   5.563   7.636
   83POPC   C1A 1362   1.886   5.970   7.411
   83POPC   D2A 1363   2.194   6.094   7.046
   83POPC   C3A 1364   2.125   5.866   6.677
   83POPC   C4A 1365   1.729   6.012   6.445
   83POPC   C1B 1366   1.749   5.484   7.341
   83POPC   C2B 1367   1.706   5.675   6.898
   83POPC   C3B 1368   1.809   5.524   6.459
   83POPC   C4B 1369   2.208   5.411   6.308
   84POPC   NC3 1370   7.455   5.258   8.081
   84POPC   PO4 1371   7.522   5.884   7.972
   84POPC   GL1 1372   7.693   5.469   7.659
   84POPC   GL2 1373   7.741   5.062   7.682
   84POPC   C1A 1374   7.676   5.255   7.215
   84POPC   D2A 1375   7.665   4.977   6.835
   84POPC   C3A 1376   7.750   5.230   6.455
   84POPC   C4A 1377   7.558   5.213   6.016
   84POPC   C1B 1378   7.367   4.931   7.452
   84POPC   C2B 1379   7.188   4.787   7.058
   84POPC   C3B 1380   7.260   4.654   6.668
   84POPC   C4B 1381   7.476   4.828   6.326
   85POPC   NC3 1382   1.276   6.652   8.283
   85POPC   PO4 1383   0.751   7.077   8.307
   85POPC   GL1 1384   0.927   6.992   7.812
   85POPC   GL2 1385   1.203   6.730   7.789
   85POPC   C1A 1386   1.132   6.963   7.360
   85POPC   D2A 1387   1.211   6.658   7.007
   85POPC   C3A 1388   1.269   6.785   6.557
   85POPC   C4A 1389   1.110   6.576   6.187
   85POPC   C1B 1390   1.488   6.565   7.510
   85POPC   C2B 1391   1.616   6.363   7.146
   85POPC   C3B 1392   1.611   6.424   6.722
   85POPC   C4B 1393   1.590   6.494   6.295
   86POPC   NC3 1394   0.308   8.733   8.026
   86POPC   PO4 1395   0.302   9.346   8.114
   86POPC   GL1 1396   0.715   9.176   7.882
   86POPC   GL2 1397   0.698   8.829   7.713
   86POPC   C1A 1398   0.794   9.231   7.423
   86POPC   D2A 1399   0.486   9.274   7.070
   86POPC   C3A 1400   0.416   9.161   6.646
   86POPC   C4A 1401   0.542   9.052   6.235
   86POPC   C1B 1402   0.516   8.807   7.288
   86POPC   C2B 1403   0.224   8.765   6.927
   86POPC   C3B 1404   0.249   8.706   6.474
   86POPC   C4B 1405   0.436   8.568   6.115
   87POPC   NC3 1406   0.461   7.421   8.199
   87POPC   PO4 1407   9.922   7.018   8.192
   87POPC   GL1 1408   0.107   7.190   7.819
   87POPC   GL2 1409   9.994   7.528   7.748
   87POPC   C1A 1410   0.199   6.967   7.403
   87POPC   D2A 1411   0.135   6.842   6.960
   87POPC   C3A 1412   0.352   7.006   6.583
   87POPC   C4A 1413   0.371   7.253   6.212
   87POPC   C1B 1414   0.363   7.442   7.431
   87POPC   C2B 1415   0.432   7.351   6.971
   87POPC   C3B 1416   0.492   7.586   6.568
   87POPC   C4B 1417   0.814   7.711   6.277
   88POPC   NC3 1418   8.224   0.285   7.968
   88POPC   PO4 1419   7.644   0.635   8.114
   88POPC   GL1 1420   7.856   0.708   7.704
   88POPC   GL2 1421   8.214   0.673   7.634
   88POPC   C1A 1422   7.846   0.527   7.325
   88POPC   D2A 1423   8.108   0.567   6.959
   88POPC   C3A 1424   7.919   0.409   6.611
   88POPC   C4A 1425   7.737   0.494   6.211
   88POPC   C1B 1426   8.333   0.315   7.341
   88POPC   C2B 1427   8.249   0.027   6.975
   88POPC   C3B 1428   8.340   0.070   6.542
   88POPC   C4B 1429   8.238   0.378   6.210
   89POPC   NC3 1430   5.040   1.037   8.079
   89POPC   PO4 1431   5.451   1.554   8.201
   89POPC   GL1 1432   5.400   1.505   7.743
   89POPC   GL2 1433   5.071   1.402   7.738
   89POPC   C1A 1434   5.225   1.541   7.288
   89POPC   D2A 1435   4.892   1.500   6.968
   89POPC   C3A 1436   4.997   1.584   6.521
   89POPC   C4A 1437   5.427   1.536   6.351
   89POPC   C1B 1438   5.102   1.044   7.435
   89POPC   C2B 1439   4.874   0.983   7.077
   89POPC   C3B 1440   4.962   1.090   6.661
   89POPC   C4B 1441   5.127   1.098   6.274
   90POPC   NC3 1442   5.280   7.910   8.122
   90POPC   PO4 1443   4.858   8.433   8.250
   90POPC   GL1 1444   4.784   8.260   7.831
   90POPC   GL2 1445   5.143   8.287   7.772
   90POPC   C1A 1446   4.831   8.337   7.355
   90POPC   D2A 1447   5.142   8.415   7.008
   90POPC   C3A 1448   5.035   8.432   6.564
   90POPC   C4A 1449   4.648   8.337   6.356
   90POPC   C1B 1450   5.207   7.989   7.419
   90POPC   C2B 1451   5.008   7.903   7.021
   90POPC   C3B 1452   4.911   7.936   6.595
   90POPC   C4B 1453   5.292   7.901   6.406
   91POPC   NC3 1454   9.650   7.462   8.221
   91POPC   PO4 1455   9.231   7.027   8.091
   91POPC   GL1 1456   9.535   7.215   7.800
   91POPC   GL2 1457   9.436   7.540   7.735
   91POPC   C1A 1458   9.729   7.203   7.391
   91POPC   D2A 1459   9.611   6.960   7.015
   91POPC   C3A 1460   9.563   7.168   6.622
   91POPC   C4A 1461   9.854   7.112   6.263
   91POPC   C1B 1462   9.680   7.729   7.374
   91POPC   C2B 1463   9.969   7.577   7.057
   91POPC   C3B 1464   9.997   7.455   6.615
   91POPC   C4B 1465   9.686   7.598   6.287
   92POPC   NC3 1466   7.892   1.836   7.879
   92POPC   PO4 1467   7.630   2.437   7.983
   92POPC   GL1 1468   7.961   2.396   7.650
   92POPC   GL2 1469   8.297   2.203   7.640
   92POPC   C1A 1470   7.998   2.228   7.227
   92POPC   D2A 1471   7.797   1.978   6.946
   92POPC   C3A 1472   7.751   2.194   6.570
   92POPC   C4A 1473   7.718   1.971   6.208
   92POPC   C1B 1474   8.493   2.094   7.235
   92POPC   C2B 1475   8.298   1.824   6.917
   92POPC   C3B 1476   8.096   1.795   6.532
   92POPC   C4B 1477   8.204   2.126   6.256
   93POPC   NC3 1478   1.248   8.028   8.086
   93POPC   PO4 1479   0.695   8.487   8.098
   93POPC   GL1 1480   0.894   8.217   7.717
   93POPC   GL2 1481   1.011   7.845   7.670
   93POPC   C1A 1482   1.000   8.110   7.249
   93POPC   D2A 1483   0.878   8.046   6.823
   93POPC   C3A 1484   1.037   8.336   6.539
   93POPC   C4A 1485   1.322   8.295   6.244
   93POPC   C1B 1486   1.391   7.796   7.388
   93POPC   C2B 1487   1.377   7.773   6.923
   93POPC   C3B 1488   1.319   7.805   6.456
   93POPC   C4B 1489   1.619   7.908   6.104
   94POPC   NC3 1490   0.798   2.103   8.164
   94POPC   PO4 1491   1.392   1.787   8.224
   94POPC   GL1 1492   1.137   1.864   7.839
   94POPC   GL2 1493   1.163   2.237   7.801
   94POPC   C1A 1494   1.106   1.818   7.355
   94POPC   D2A 1495   0.955   1.691   6.900
   94POPC   C3A 1496   1.163   1.836   6.488
   94POPC   C4A 1497   1.025   1.996   6.061
   94POPC   C1B 1498   1.187   2.345   7.364
   94POPC   C2B 1499   1.126   2.185   6.939
   94POPC   C3B 1500   1.071   2.326   6.514
   94POPC   C4B 1501   1.386   2.321   6.185
   95POPC   NC3 1502   8.295   3.887   8.104
   95POPC   PO4 1503   8.068   3.231   8.114
   95POPC   GL1 1504   8.009   3.530   7.805
   95POPC   GL2 1505   8.362   3.546   7.732
   95POPC   C1A 1506   8.025   3.672   7.374
   95POPC   D2A 1507   7.828   3.544   7.000
   95POPC   C3A 1508   7.987   3.581   6.601
   95POPC   C4A 1509   7.997   3.617   6.191
   95POPC   C1B 1510   8.531   3.526   7.321
   95POPC   C2B 1511   8.370   3.479   6.912
   95POPC   C3B 1512   8.422   3.307   6.499
   95POPC   C4B 1513   8.387   3.362   6.027
   96POPC   NC3 1514   8.198   8.878   8.148
   96POPC   PO4 1515   7.892   8.265   7.898
   96POPC   GL1 1516   7.934   8.637   7.586
   96POPC   GL2 1517   8.051   8.977   7.676
   96POPC   C1A 1518   7.811   8.619   7.165
   96POPC   D2A 1519   7.931   8.336   6.837
   96POPC   C3A 1520   7.957   8.503   6.421
   96POPC   C4A 1521   7.647   8.668   6.126
   96POPC   C1B 1522   8.184   8.997   7.267
   96POPC   C2B 1523   8.230   8.773   6.878
   96POPC   C3B 1524   8.235   9.033   6.536
   96POPC   C4B 1525   8.033   8.968   6.181
   97POPC   NC3 1526   3.433   8.176   8.164
   97POPC   PO4 1527   3.336   7.595   7.840
   97POPC   GL1 1528   3.686   7.971   7.767
   97POPC   GL2 1529   3.599   8.330   7.716
   97POPC   C1A 1530   3.853   8.027   7.381
   97POPC   D2A 1531   3.646   7.947   7.013
   97POPC   C3A 1532   3.838   8.003   6.627
   97POPC   C4A 1533   3.619   8.095   6.292
   97POPC   C1B 1534   3.352   8.112   7.414
   97POPC   C2B 1535   3.169   8.137   7.038
   97POPC   C3B 1536   3.250   8.239   6.610
   97POPC   C4B 1537   3.213   8.391   6.190
   98POPC   NC3 1538   2.295   9.628   8.066
   98POPC   PO4 1539   2.928   9.965   8.135
   98POPC   GL1 1540   2.940   9.587   7.818
   98POPC   GL2 1541   2.600   9.497   7.677
   98POPC   C1A 1542   3.089   9.603   7.367
   98POPC   D2A 1543   2.826   9.626   6.977
   98POPC   C3A 1544   2.820   9.832   6.568
   98POPC   C4A 1545   2.488   9.961   6.287
   98POPC   C1B 1546   2.735   9.222   7.337
   98POPC   C2B 1547   2.918   9.119   6.928
   98POPC   C3B 1548   2.916   9.331   6.544
   98POPC   C4B 1549   2.594   9.468   6.256
   99POPC   NC3 1550   3.257   9.643   8.226
   99POPC   PO4 1551   3.931   9.377   8.128
   99POPC   GL1 1552   3.772   9.744   7.906
   99POPC   GL2 1553   3.470   9.594   7.776
   99POPC   C1A 1554   3.643   9.987   7.503
   99POPC   D2A 1555   3.435   9.959   7.082
   99POPC   C3A 1556   3.690   0.021   6.694
   99POPC   C4A 1557   3.652   0.155   6.287
   99POPC   C1B 1558   3.607   9.479   7.369
   99POPC   C2B 1559   3.407   9.451   6.963
   99POPC   C3B 1560   3.311   9.669   6.605
   99POPC   C4B 1561   3.557   9.677   6.242
  100POPC   NC3 1562   8.876   4.448   8.076
  100POPC   PO4 1563   9.485   4.547   8.343
  100POPC   GL1 1564   9.305   4.235   7.888
  100POPC   GL2 1565   8.964   4.245   7.637
  100POPC   C1A 1566   9.373   4.212   7.371
  100POPC   D2A 1567   9.403   4.117   6.901
  100POPC   C3A 1568   9.137   4.264   6.536
  100POPC   C4A 1569   9.132   4.398   6.067
  100POPC   C1B 1570   8.664   4.035   7.357
  100POPC   C2B 1571   8.697   3.862   6.942
  100POPC   C3B 1572   8.460   3.930   6.559
  100POPC   C4B 1573   8.709   4.179   6.257
  101POPC   NC3 1574   7.555   1.522   8.206
  101POPC   PO4 1575   7.132   1.997   8.320
  101POPC   GL1 1576   7.300   1.858   7.888
  101POPC   GL2 1577   7.271   2.186   7.728
  101POPC   C1A 1578   7.254   1.795   7.396
  101POPC   D2A 1579   7.144   1.718   6.930
  101POPC   C3A 1580   7.489   1.706   6.605
  101POPC   C4A 1581   7.326   1.658   6.188
  101POPC   C1B 1582   7.494   2.274   7.326
  101POPC   C2B 1583   7.340   2.197   6.901
  101POPC   C3B 1584   7.223   2.120   6.480
  101POPC   C4B 1585   7.407   2.403   6.228
  102POPC   NC3 1586   1.160   0.576   8.126
  102POPC   PO4 1587   0.947  10.000   8.079
  102POPC   GL1 1588   1.137   0.220   7.736
  102POPC   GL2 1589   0.939   0.523   7.664
  102POPC   C1A 1590   1.330   0.329   7.327
  102POPC   D2A 1591   1.138   0.413   6.948
  102POPC   C3A 1592   1.340   0.318   6.564
  102POPC   C4A 1593   1.317   0.127   6.174
  102POPC   C1B 1594   0.826   0.832   7.339
  102POPC   C2B 1595   0.733   0.711   6.919
  102POPC   C3B 1596   0.995   0.767   6.597
  102POPC   C4B 1597   0.908   0.828   6.183
  103POPC   NC3 1598   1.796   2.057   8.209
  103POPC   PO4 1599   2.297   1.625   8.100
  103POPC   GL1 1600   2.336   1.894   7.707
  103POPC   GL2 1601   2.145   2.199   7.728
  103POPC   C1A 1602   2.274   2.055   7.263
  103POPC   D2A 1603   2.041   2.068   6.873
  103POPC   C3A 1604   2.316   2.094   6.547
  103POPC   C4A 1605   2.429   1.920   6.172
  103POPC   C1B 1606   1.735   2.222   7.500
  103POPC   C2B 1607   1.619   2.301   7.066
  103POPC   C3B 1608   1.585   2.182   6.627
  103POPC   C4B 1609   1.876   2.087   6.253
  104POPC   NC3 1610   7.757   8.033   8.282
  104POPC   PO4 1611   7.204   8.464   8.178
  104POPC   GL1 1612   7.306   8.174   7.821
  104POPC   GL2 1613   7.502   8.350   7.541
  104POPC   C1A 1614   7.317   7.897   7.442
  104POPC   D2A 1615   7.508   8.078   7.052
  104POPC   C3A 1616   7.354   7.922   6.609
  104POPC   C4A 1617   7.281   7.815   6.179
  104POPC   C1B 1618   7.080   8.327   7.347
  104POPC   C2B 1619   7.067   8.244   6.901
  104POPC   C3B 1620   7.447   8.409   6.623
  104POPC   C4B 1621   7.185   8.320   6.296
  105POPC   NC3 1622   3.120   7.199   7.997
  105POPC   PO4 1623   3.098   7.860   8.217
  105POPC   GL1 1624   2.827   7.584   7.820
  105POPC   GL2 1625   3.000   7.403   7.534
  105POPC   C1A 1626   2.539   7.546   7.409
  105POPC   D2A 1627   2.369   7.523   6.972
  105POPC   C3A 1628   2.645   7.610   6.631
  105POPC   C4A 1629   2.567   7.559   6.198
  105POPC   C1B 1630   2.751   7.086   7.350
  105POPC   C2B 1631   2.622   7.041   6.915
  105POPC   C3B 1632   2.742   7.148   6.501
  105POPC   C4B 1633   3.017   7.246   6.162
  106POPC   NC3 1634   3.161   5.431   8.023
  106POPC   PO4 1635   2.854   5.912   7.998
  106POPC   GL1 1636   2.674   5.930   7.595
  106POPC   GL2 1637   2.407   6.127   7.538
  106POPC   C1A 1638   2.502   5.722   7.204
  106POPC   D2A 1639   2.566   5.515   6.761
  106POPC   C3A 1640   2.676   5.605   6.304
  106POPC   C4A 1641   2.905   5.559   5.882
  106POPC   C1B 1642   2.687   6.208   7.185
  106POPC   C2B 1643   2.686   6.017   6.797
  106POPC   C3B 1644   2.512   6.072   6.421
  106POPC   C4B 1645   2.579   6.009   5.973
  107POPC   NC3 1646   0.519   4.493   8.106
  107POPC   PO4 1647   0.224   3.903   8.143
  107POPC   GL1 1648   0.508   4.075   7.813
  107POPC   GL2 1649   0.277   4.239   7.646
  107POPC   C1A 1650   0.652   4.050   7.353
  107POPC   D2A 1651   0.816   3.907   6.976
  107POPC   C3A 1652   0.656   4.105   6.632
  107POPC   C4A 1653   0.432   4.023   6.260
  107POPC   C1B 1654   0.298   4.442   7.272
  107POPC   C2B 1655   0.389   4.466   6.860
  107POPC   C3B 1656   0.351   4.574   6.451
  107POPC   C4B 1657   0.031   4.533   6.123
  108POPC   NC3 1658   7.096   7.290   8.183
  108POPC   PO4 1659   7.738   7.560   8.180
  108POPC   GL1 1660   7.604   7.640   7.779
  108POPC   GL2 1661   7.518   7.311   7.725
  108POPC   C1A 1662   7.726   7.614   7.330
  108POPC   D2A 1663   7.443   7.572   6.948
  108POPC   C3A 1664   7.591   7.466   6.494
  108POPC   C4A 1665   7.677   7.519   6.014
  108POPC   C1B 1666   7.404   7.221   7.317
  108POPC   C2B 1667   7.435   7.068   6.901
  108POPC   C3B 1668   7.248   7.028   6.530
  108POPC   C4B 1669   7.267   7.216   6.146
  109POPC   NC3 1670   6.578   9.643   8.262
  109POPC   PO4 1671   6.217   9.881   7.797
  109POPC   GL1 1672   6.579   9.910   7.554
  109POPC   GL2 1673   6.695   9.607   7.720
  109POPC   C1A 1674   6.522   9.909   7.103
  109POPC   D2A 1675   6.597   0.095   6.745
  109POPC   C3A 1676   6.480   9.830   6.437
  109POPC   C4A 1677   6.299   9.816   6.022
  109POPC   C1B 1678   6.654   9.468   7.272
  109POPC   C2B 1679   6.813   9.585   6.825
  109POPC   C3B 1680   6.848   9.491   6.363
  109POPC   C4B 1681   6.456   9.368   6.184
  110POPC   NC3 1682   3.877   3.004   8.017
  110POPC   PO4 1683   4.423   2.731   8.210
  110POPC   GL1 1684   4.215   2.584   7.808
  110POPC   GL2 1685   3.922   2.649   7.619
  110POPC   C1A 1686   4.390   2.513   7.395
  110POPC   D2A 1687   4.423   2.296   6.996
  110POPC   C3A 1688   4.480   2.499   6.554
  110POPC   C4A 1689   4.469   2.739   6.134
  110POPC   C1B 1690   3.941   2.590   7.153
  110POPC   C2B 1691   3.960   2.515   6.688
  110POPC   C3B 1692   3.986   2.787   6.319
  110POPC   C4B 1693   4.122   3.246   6.259
  111POPC   NC3 1694   1.563   9.626   8.087
  111POPC   PO4 1695   2.171   9.185   8.089
  111POPC   GL1 1696   1.906   9.427   7.757
  111POPC   GL2 1697   2.088   9.732   7.616
  111POPC   C1A 1698   1.730   9.557   7.319
  111POPC   D2A 1699   1.842   9.819   6.926
  111POPC   C3A 1700   1.605   9.863   6.507
  111POPC   C4A 1701   1.720   9.864   6.020
  111POPC   C1B 1702   2.325   9.753   7.216
  111POPC   C2B 1703   2.335   9.781   6.754
  111POPC   C3B 1704   2.071   9.705   6.379
  111POPC   C4B 1705   2.161   9.545   5.969
  112POPC   NC3 1706   9.501   8.182   8.238
  112POPC   PO4 1707   0.029   7.754   8.236
  112POPC   GL1 1708   9.935   8.030   7.868
  112POPC   GL2 1709   9.611   8.010   7.791
  112POPC   C1A 1710   9.892   8.306   7.474
  112POPC   D2A 1711   9.902   8.146   7.041
  112POPC   C3A 1712   9.906   8.387   6.646
  112POPC   C4A 1713   9.887   8.232   6.216
  112POPC   C1B 1714   9.371   8.159   7.450
  112POPC   C2B 1715   9.367   8.203   7.009
  112POPC   C3B 1716   9.508   8.064   6.594
  112POPC   C4B 1717   9.349   8.164   6.180
  113POPC   NC3 1718   0.051   9.698   7.977
  113POPC   PO4 1719   0.456   0.050   8.393
  113POPC   GL1 1720   0.484   9.931   7.847
  113POPC   GL2 1721   0.495   9.605   7.706
  113POPC   C1A 1722   0.757   9.973   7.445
  113POPC   D2A 1723   0.863   9.664   7.113
  113POPC   C3A 1724   0.640   9.616   6.709
  113POPC   C4A 1725   0.467   9.571   6.285
  113POPC   C1B 1726   0.191   9.541   7.372
  113POPC   C2B 1727   0.204   9.698   6.952
  113POPC   C3B 1728   0.037   9.511   6.592
  113POPC   C4B 1729   0.088   9.230   6.223
  114POPC   NC3 1730   3.632   8.998   8.141
  114POPC   PO4 1731   3.139   8.534   8.123
  114POPC   GL1 1732   3.323   8.746   7.752
  114POPC   GL2 1733   3.429   9.092   7.696
  114POPC   C1A 1734   3.412   8.610   7.316
  114POPC   D2A 1735   3.580   8.446   6.927
  114POPC   C3A 1736   3.606   8.639   6.484
  114POPC   C4A 1737   3.447   8.823   6.074
  114POPC   C1B 1738   3.258   9.104   7.309
  114POPC   C2B 1739   3.398   8.938   6.904
  114POPC   C3B 1740   3.400   9.142   6.501
  114POPC   C4B 1741   3.732   9.212   6.240
  115POPC   NC3 1742   3.398   2.683   8.305
  115POPC   PO4 1743   3.487   3.281   8.059
  115POPC   GL1 1744   3.213   2.980   7.809
  115POPC   GL2 1745   3.436   2.717   7.764
  115POPC   C1A 1746   3.072   2.723   7.404
  115POPC   D2A 1747   2.890   2.611   6.982
  115POPC   C3A 1748   3.119   2.637   6.577
  115POPC   C4A 1749   3.048   2.494   6.155
  115POPC   C1B 1750   3.548   2.877   7.307
  115POPC   C2B 1751   3.575   2.888   6.784
  115POPC   C3B 1752   3.546   3.071   6.310
  115POPC   C4B 1753   3.377   3.143   5.843
  116POPC   NC3 1754   3.205   3.637   8.019
  116POPC   PO4 1755   2.701   4.103   8.059
  116POPC   GL1 1756   2.772   3.715   7.766
  116POPC   GL2 1757   2.778   3.333   7.823
  116POPC   C1A 1758   2.929   3.462   7.366
  116POPC   D2A 1759   2.968   3.199   6.980
  116POPC   C3A 1760   2.968   3.443   6.543
  116POPC   C4A 1761   3.121   3.552   6.096
  116POPC   C1B 1762   2.430   3.464   7.502
  116POPC   C2B 1763   2.493   3.449   7.050
  116POPC   C3B 1764   2.430   3.438   6.596
  116POPC   C4B 1765   2.560   3.278   6.185
  117POPC   NC3 1766   5.694   1.967   8.122
  117POPC   PO4 1767   6.269   1.533   8.122
  117POPC   GL1 1768   5.913   1.602   7.834
  117POPC   GL2 1769   6.043   1.935   7.742
  117POPC   C1A 1770   5.755   1.654   7.388
  117POPC   D2A 1771   5.964   1.816   6.991
  117POPC   C3A 1772   5.809   1.860   6.556
  117POPC   C4A 1773   6.075   1.765   6.188
  117POPC   C1B 1774   5.820   2.154   7.415
  117POPC   C2B 1775   5.847   2.305   7.005
  117POPC   C3B 1776   5.958   2.375   6.617
  117POPC   C4B 1777   5.873   2.251   6.214
  118POPC   NC3 1778   2.697   2.815   8.280
  118POPC   PO4 1779   2.145   2.407   8.183
  118POPC   GL1 1780   2.561   2.464   7.882
  118POPC   GL2 1781   2.725   2.777   7.779
  118POPC   C1A 1782   2.580   2.464   7.390
  118POPC   D2A 1783   2.377   2.453   6.940
  118POPC   C3A 1784   2.593   2.521   6.539
  118POPC   C4A 1785   2.622   2.770   6.146
  118POPC   C1B 1786   2.637   2.999   7.390
  118POPC   C2B 1787   2.507   2.946   6.961
  118POPC   C3B 1788   2.738   2.997   6.580
  118POPC   C4B 1789   3.041   3.034   6.220
  119POPC   NC3 1790   2.753   1.103   8.026
  119POPC   PO4 1791   3.124   1.670   8.033
  119POPC   GL1 1792   2.919   1.438   7.676
  119POPC   GL2 1793   2.525   1.392   7.670
  119POPC   C1A 1794   2.983   1.394   7.227
  119POPC   D2A 1795   3.009   1.603   6.846
  119POPC   C3A 1796   3.021   1.297   6.515
  119POPC   C4A 1797   2.949   0.842   6.425
  119POPC   C1B 1798   2.632   1.061   7.365
  119POPC   C2B 1799   2.654   1.152   6.887
  119POPC   C3B 1800   2.522   1.156   6.444
  119POPC   C4B 1801   2.415   1.384   6.078
  120POPC   NC3 1802   1.516   5.629   8.234
  120POPC   PO4 1803   1.219   6.192   8.207
  120POPC   GL1 1804   1.244   6.209   7.788
  120POPC   GL2 1805   1.343   5.865   7.783
  120POPC   C1A 1806   1.100   6.256   7.345
  120POPC   D2A 1807   1.253   6.085   6.929
  120POPC   C3A 1808   1.190   6.207   6.517
  120POPC   C4A 1809   1.355   6.085   6.112
  120POPC   C1B 1810   1.318   5.784   7.343
  120POPC   C2B 1811   1.222   5.579   6.918
  120POPC   C3B 1812   1.317   5.697   6.516
  120POPC   C4B 1813   0.958   5.779   6.292
  121POPC   NC3 1814   4.465   7.343   8.243
  121POPC   PO4 1815   5.083   7.482   8.091
  121POPC   GL1 1816   4.738   7.724   7.858
  121POPC   GL2 1817   4.435   7.517   7.768
  121POPC   C1A 1818   4.678   7.762   7.380
  121POPC   D2A 1819   4.551   7.537   6.967
  121POPC   C3A 1820   4.629   7.522   6.497
  121POPC   C4A 1821   4.723   7.379   6.055
  121POPC   C1B 1822   4.166   7.641   7.432
  121POPC   C2B 1823   4.132   7.801   7.006
  121POPC   C3B 1824   4.100   7.534   6.639
  121POPC   C4B 1825   3.919   7.152   6.411
  122POPC   NC3 1826   1.664   6.296   8.097
  122POPC   PO4 1827   2.213   5.951   7.991
  122POPC   GL1 1828   2.076   6.390   7.811
  122POPC   GL2 1829   2.011   6.782   7.740
  122POPC   C1A 1830   2.048   6.453   7.375
  122POPC   D2A 1831   2.051   6.589   6.933
  122POPC   C3A 1832   2.095   6.364   6.528
  122POPC   C4A 1833   2.293   6.414   6.110
  122POPC   C1B 1834   1.806   6.895   7.316
  122POPC   C2B 1835   1.659   6.908   6.887
  122POPC   C3B 1836   1.890   6.845   6.486
  122POPC   C4B 1837   1.891   6.771   6.004
  123POPC   NC3 1838   4.380   8.337   8.174
  123POPC   PO4 1839   4.165   7.694   8.192
  123POPC   GL1 1840   4.239   7.992   7.805
  123POPC   GL2 1841   4.099   8.319   7.753
  123POPC   C1A 1842   4.355   8.144   7.362
  123POPC   D2A 1843   4.550   8.129   6.932
  123POPC   C3A 1844   4.361   7.961   6.536
  123POPC   C4A 1845   4.570   7.893   6.110
  123POPC   C1B 1846   3.961   8.504   7.354
  123POPC   C2B 1847   4.060   8.314   6.988
  123POPC   C3B 1848   4.220   8.446   6.651
  123POPC   C4B 1849   4.053   8.387   6.321
  124POPC   NC3 1850   0.636   0.336   8.069
  124POPC   PO4 1851   9.992   0.139   8.073
  124POPC   GL1 1852   0.188   0.324   7.715
  124POPC   GL2 1853   0.422   0.633   7.696
  124POPC   C1A 1854   0.259   0.054   7.352
  124POPC   D2A 1855   0.548   0.109   6.979
  124POPC   C3A 1856   0.392   0.053   6.561
  124POPC   C4A 1857   0.032   9.943   6.325
  124POPC   C1B 1858   0.430   0.526   7.282
  124POPC   C2B 1859   0.233   0.626   6.884
  124POPC   C3B 1860   0.438   0.626   6.480
  124POPC   C4B 1861   0.782   0.362   6.374
  125POPC   NC3 1862   5.932   1.204   8.159
  125POPC   PO4 1863   5.394   0.734   8.175
  125POPC   GL1 1864   5.536   1.018   7.830
  125POPC   GL2 1865   5.878   0.955   7.727
  125POPC   C1A 1866   5.592   1.174   7.372
  125POPC   D2A 1867   5.369   1.181   6.968
  125POPC   C3A 1868   5.546   1.037   6.581
  125POPC   C4A 1869   5.519   0.787   6.205
  125POPC   C1B 1870   6.097   1.276   7.473
  125POPC   C2B 1871   5.988   1.308   7.032
  125POPC   C3B 1872   6.121   1.453   6.616
  125POPC   C4B 1873   5.871   1.298   6.252
  126POPC   NC3 1874   4.297   0.790   8.206
  126POPC   PO4 1875   3.840   0.259   8.407
  126POPC   GL1 1876   4.088   0.239   7.959
  126POPC   GL2 1877   4.345   0.472   7.808
  126POPC   C1A 1878   4.110   0.196   7.470
  126POPC   D2A 1879   3.839   0.305   7.111
  126POPC   C3A 1880   4.099   0.440   6.752
  126POPC   C4A 1881   4.142   0.301   6.328
  126POPC   C1B 1882   4.470   0.587   7.352
  126POPC   C2B 1883   4.665   0.540   6.939
  126POPC   C3B 1884   4.586   0.294   6.602
  126POPC   C4B 1885   4.629   0.407   6.216
  127POPC   NC3 1886   9.754   4.919   8.007
  127POPC   PO4 1887   0.376   4.889   8.314
  127POPC   GL1 1888   0.201   5.132   7.862
  127POPC   GL2 1889   9.895   5.362   7.785
  127POPC   C1A 1890   0.032   5.006   7.414
  127POPC   D2A 1891   0.098   4.847   7.022
  127POPC   C3A 1892   9.901   4.806   6.644
  127POPC   C4A 1893   9.643   5.021   6.354
  127POPC   C1B 1894   9.586   5.235   7.437
  127POPC   C2B 1895   9.611   5.093   7.007
  127POPC   C3B 1896   9.284   5.135   6.711
  127POPC   C4B 1897   9.175   5.310   6.315
  128POPC   NC3 1898   9.702   9.933   8.369
  128POPC   PO4 1899   9.367   9.363   8.151
  128POPC   GL1 1900   9.604   9.527   7.829
  128POPC   GL2 1901   9.857   9.247   7.808
  128POPC   C1A 1902   9.723   9.767   7.430
  128POPC   D2A 1903   9.705   9.660   7.002
  128POPC   C3A 1904   9.617   9.923   6.640
  128POPC   C4A 1905   9.302   9.795   6.341
  128POPC   C1B 1906   9.589   9.197   7.433
  128POPC   C2B 1907   9.463   9.187   7.005
  128POPC   C3B 1908   9.503   9.406   6.607
  128POPC   C4B 1909   9.706   9.556   6.204
  129POPC   NC3 1910   2.663   7.994   8.051
  129POPC   PO4 1911   2.355   8.520   8.325
  129POPC   GL1 1912   2.684   8.502   7.796
  129POPC   GL2 1913   2.975   8.278   7.721
  129POPC   C1A 1914   2.641   8.349   7.286
  129POPC   D2A 1915   2.320   8.330   6.913
  129POPC   C3A 1916   2.424   8.449   6.478
  129POPC   C4A 1917   2.726   8.549   6.163
  129POPC   C1B 1918   2.884   7.925   7.441
  129POPC   C2B 1919   2.724   7.890   7.049
  129POPC   C3B 1920   2.757   8.129   6.697
  129POPC   C4B 1921   2.907   7.987   6.315
  130POPC   NC3 1922   9.040   9.725   7.928
  130POPC   PO4 1923   8.523   9.278   8.162
  130POPC   GL1 1924   8.791   9.296   7.795
  130POPC   GL2 1925   9.155   9.303   7.701
  130POPC   C1A 1926   8.771   9.361   7.354
  130POPC   D2A 1927   8.974   9.342   6.959
  130POPC   C3A 1928   8.694   9.264   6.618
  130POPC   C4A 1929   8.436   9.553   6.406
  130POPC   C1B 1930   9.260   9.582   7.320
  130POPC   C2B 1931   9.181   9.844   6.934
  130POPC   C3B 1932   8.876   9.757   6.606
  130POPC   C4B 1933   8.911   9.501   6.191
  131POPC   NC3 1934   8.755   2.822   8.138
  131POPC   PO4 1935   9.270   2.314   7.919
  131POPC   GL1 1936   9.099   2.510   7.558
  131POPC   GL2 1937   8.893   2.795   7.650
  131POPC   C1A 1938   8.811   2.556   7.221
  131POPC   D2A 1939   8.974   2.804   6.904
  131POPC   C3A 1940   9.075   2.596   6.538
  131POPC   C4A 1941   9.349   2.421   6.253
  131POPC   C1B 1942   8.622   3.020   7.347
  131POPC   C2B 1943   8.501   2.987   6.920
  131POPC   C3B 1944   8.609   2.820   6.530
  131POPC   C4B 1945   8.613   2.398   6.377
  132POPC   NC3 1946   2.738   8.745   8.219
  132POPC   PO4 1947   3.199   9.201   8.155
  132POPC   GL1 1948   2.912   9.045   7.795
  132POPC   GL2 1949   2.545   8.996   7.782
  132POPC   C1A 1950   2.922   8.753   7.416
  132POPC   D2A 1951   3.001   8.595   6.973
  132POPC   C3A 1952   3.075   8.743   6.547
  132POPC   C4A 1953   2.990   8.995   6.173
  132POPC   C1B 1954   2.415   8.794   7.374
  132POPC   C2B 1955   2.527   8.788   6.938
  132POPC   C3B 1956   2.600   8.927   6.518
  132POPC   C4B 1957   2.474   9.008   6.082
  133POPC   NC3 1958   2.869   0.426   8.122
  133POPC   PO4 1959   2.341   0.839   8.060
  133POPC   GL1 1960   2.484   0.584   7.772
  133POPC   GL2 1961   2.828   0.656   7.659
  133POPC   C1A 1962   2.425   0.570   7.351
  133POPC   D2A 1963   2.737   0.680   7.047
  133POPC   C3A 1964   2.531   0.674   6.670
  133POPC   C4A 1965   2.489   0.706   6.230
  133POPC   C1B 1966   2.844   0.275   7.351
  133POPC   C2B 1967   2.714   0.207   6.878
  133POPC   C3B 1968   2.790   0.330   6.397
  133POPC   C4B 1969   2.977   0.154   5.978
  134POPC   NC3 1970   5.814   3.069   8.233
  134POPC   PO4 1971   5.809   2.424   8.046
  134POPC   GL1 1972   5.800   2.807   7.730
  134POPC   GL2 1973   6.029   2.616   7.474
  134POPC   C1A 1974   5.869   3.063   7.328
  134POPC   D2A 1975   5.957   2.811   6.957
  134POPC   C3A 1976   6.208   2.973   6.632
  134POPC   C4A 1977   5.994   3.226   6.286
  134POPC   C1B 1978   5.582   2.607   7.307
  134POPC   C2B 1979   5.356   2.427   6.925
  134POPC   C3B 1980   5.467   2.469   6.476
  134POPC   C4B 1981   5.616   2.867   6.280
  135POPC   NC3 1982   8.592   5.406   8.051
  135POPC   PO4 1983   7.920   5.310   8.093
  135POPC   GL1 1984   8.220   5.205   7.759
  135POPC   GL2 1985   8.264   4.841   7.709
  135POPC   C1A 1986   8.163   5.156   7.310
  135POPC   D2A 1987   8.097   5.306   6.893
  135POPC   C3A 1988   8.263   5.091   6.544
  135POPC   C4A 1989   8.116   5.050   6.148
  135POPC   C1B 1990   8.027   4.678   7.359
  135POPC   C2B 1991   8.124   4.750   6.917
  135POPC   C3B 1992   7.946   4.685   6.480
  135POPC   C4B 1993   7.834   4.640   6.026
  136POPC   NC3 1994   6.805   8.238   8.056
  136POPC   PO4 1995   6.701   7.607   8.062
  136POPC   GL1 1996   6.805   7.887   7.671
  136POPC   GL2 1997   6.556   8.192   7.616
  136POPC   C1A 1998   6.740   7.961   7.215
  136POPC   D2A 1999   6.781   7.766   6.837
  136POPC   C3A 2000   6.836   7.962   6.453
  136POPC   C4A 2001   6.488   7.980   6.170
  136POPC   C1B 2002   6.195   8.195   7.302
  136POPC   C2B 2003   6.034   8.128   6.867
  136POPC   C3B 2004   6.154   8.281   6.451
  136POPC   C4B 2005   6.599   8.411   6.471
  137POPC   NC3 2006   8.884   0.434   8.086
  137POPC   PO4 2007   9.419   9.985   8.007
  137POPC   GL1 2008   9.194   0.278   7.687
  137POPC   GL2 2009   8.849   0.330   7.593
  137POPC   C1A 2010   9.298   0.282   7.240
  137POPC   D2A 2011   9.096   0.427   6.862
  137POPC   C3A 2012   9.109   0.241   6.461
  137POPC   C4A 2013   9.232   0.155   6.014
  137POPC   C1B 2014   8.795   0.152   7.191
  137POPC   C2B 2015   8.591   0.389   6.870
  137POPC   C3B 2016   8.661   0.495   6.458
  137POPC   C4B 2017   8.753   0.458   6.022
  138POPC   NC3 2018   5.497   7.312   8.131
  138POPC   PO4 2019   6.056   7.207   8.363
  138POPC   GL1 2020   5.878   7.352   7.835
  138POPC   GL2 2021   5.989   7.673   7.750
  138POPC   C1A 2022   5.986   7.401   7.333
  138POPC   D2A 2023   5.917   7.607   6.922
  138POPC   C3A 2024   6.020   7.327   6.543
  138POPC   C4A 2025   6.319   7.214   6.184
  138POPC   C1B 2026   5.552   7.588   7.520
  138POPC   C2B 2027   5.410   7.547   7.085
  138POPC   C3B 2028   5.508   7.483   6.622
  138POPC   C4B 2029   5.454   7.449   6.160
  139POPC   NC3 2030   0.398   3.524   8.396
  139POPC   PO4 2031   0.990   3.658   8.106
  139POPC   GL1 2032   0.844   3.425   7.760
  139POPC   GL2 2033   0.599   3.625   7.610
  139POPC   C1A 2034   0.713   3.204   7.393
  139POPC   D2A 2035   0.545   3.481   7.082
  139POPC   C3A 2036   0.759   3.481   6.692
  139POPC   C4A 2037   0.644   3.561   6.281
  139POPC   C1B 2038   0.225   3.792   7.357
  139POPC   C2B 2039   0.278   3.980   6.983
  139POPC   C3B 2040   0.293   3.718   6.655
  139POPC   C4B 2041   0.136   3.496   6.333
  140POPC   NC3 2042   8.724   8.291   8.261
  140POPC   PO4 2043   9.244   7.757   8.209
  140POPC   GL1 2044   9.084   7.929   7.824
  140POPC   GL2 2045   9.070   8.281   7.865
  140POPC   C1A 2046   8.852   7.993   7.411
  140POPC   D2A 2047   8.906   7.861   6.978
  140POPC   C3A 2048   8.759   7.949   6.543
  140POPC   C4A 2049   8.849   7.965   6.091
  140POPC   C1B 2050   8.947   8.487   7.477
  140POPC   C2B 2051   8.857   8.387   7.039
  140POPC   C3B 2052   9.056   8.366   6.625
  140POPC   C4B 2053   8.895   8.447   6.224
  141POPC   NC3 2054   6.875   3.398   8.013
  141POPC   PO4 2055   6.223   3.119   8.042
  141POPC   GL1 2056   6.318   3.026   7.609
  141POPC   GL2 2057   6.532   3.307   7.602
  141POPC   C1A 2058   6.374   3.090   7.140
  141POPC   D2A 2059   6.657   3.318   6.807
  141POPC   C3A 2060   6.486   3.346   6.358
  141POPC   C4A 2061   6.359   3.072   5.960
  141POPC   C1B 2062   6.800   3.513   7.298
  141POPC   C2B 2063   6.872   3.796   6.944
  141POPC   C3B 2064   6.687   3.828   6.548
  141POPC   C4B 2065   6.698   3.741   6.108
  142POPC   NC3 2066   1.454   3.757   8.246
  142POPC   PO4 2067   1.506   3.091   8.135
  142POPC   GL1 2068   1.355   3.301   7.761
  142POPC   GL2 2069   1.353   3.652   7.725
  142POPC   C1A 2070   1.214   3.125   7.369
  142POPC   D2A 2071   1.020   3.140   6.966
  142POPC   C3A 2072   1.211   3.204   6.565
  142POPC   C4A 2073   0.977   3.182   6.193
  142POPC   C1B 2074   1.090   3.616   7.332
  142POPC   C2B 2075   1.248   3.620   6.894
  142POPC   C3B 2076   1.149   3.721   6.458
  142POPC   C4B 2077   0.925   3.996   6.222
  143POPC   NC3 2078   8.707   1.303   8.166
  143POPC   PO4 2079   8.467   0.693   8.068
  143POPC   GL1 2080   8.686   0.872   7.694
  143POPC   GL2 2081   9.025   0.815   7.735
  143POPC   C1A 2082   8.749   1.182   7.317
  143POPC   D2A 2083   8.744   1.549   7.023
  143POPC   C3A 2084   8.662   1.400   6.581
  143POPC   C4A 2085   8.706   1.303   6.114
  143POPC   C1B 2086   8.996   0.719   7.282
  143POPC   C2B 2087   8.811   0.871   6.878
  143POPC   C3B 2088   8.883   0.944   6.437
  143POPC   C4B 2089   9.211   1.138   6.234
  144POPC   NC3 2090   2.000   3.838   3.806
  144POPC   PO4 2091   1.973   3.112   3.925
  144POPC   GL1 2092   1.996   3.469   4.191
  144POPC   GL2 2093   1.657   3.645   4.170
  144POPC   C1A 2094   2.230   3.488   4.598
  144POPC   D2A 2095   2.378   3.587   5.022
  144POPC   C3A 2096   2.344   3.324   5.365
  144POPC   C4A 2097   2.236   3.371   5.804
  144POPC   C1B 2098   1.760   3.695   4.626
  144POPC   C2B 2099   1.858   3.445   5.003
  144POPC   C3B 2100   1.859   3.500   5.453
  144POPC   C4B 2101   1.819   3.708   5.881
  145POPC   NC3 2102   2.535   2.073   4.039
  145POPC   PO4 2103   2.553   1.472   3.764
  145POPC   GL1 2104   2.421   1.554   4.190
  145POPC   GL2 2105   2.736   1.725   4.337
  145POPC   C1A 2106   2.353   1.709   4.632
  145POPC   D2A 2107   2.714   1.650   4.920
  145POPC   C3A 2108   2.604   1.532   5.340
  145POPC   C4A 2109   2.507   1.723   5.715
  145POPC   C1B 2110   2.937   2.029   4.622
  145POPC   C2B 2111   3.069   2.062   5.058
  145POPC   C3B 2112   2.907   1.940   5.447
  145POPC   C4B 2113   3.017   1.565   5.697
  146POPC   NC3 2114   7.336   7.014   3.841
  146POPC   PO4 2115   7.675   6.599   4.107
  146POPC   GL1 2116   7.414   6.736   4.405
  146POPC   GL2 2117   7.097   6.927   4.304
  146POPC   C1A 2118   7.465   6.650   4.843
  146POPC   D2A 2119   7.570   6.833   5.242
  146POPC   C3A 2120   7.526   6.523   5.561
  146POPC   C4A 2121   7.476   6.575   6.020
  146POPC   C1B 2122   6.987   6.793   4.744
  146POPC   C2B 2123   7.087   6.646   5.208
  146POPC   C3B 2124   7.047   6.352   5.589
  146POPC   C4B 2125   7.147   6.168   6.012
  147POPC   NC3 2126   5.640   9.222   4.019
  147POPC   PO4 2127   5.375   8.618   3.935
  147POPC   GL1 2128   5.678   8.765   4.264
  147POPC   GL2 2129   5.992   8.829   4.419
  147POPC   C1A 2130   5.624   8.890   4.722
  147POPC   D2A 2131   5.859   9.029   5.069
  147POPC   C3A 2132   5.760   8.771   5.422
  147POPC   C4A 2133   5.566   8.891   5.815
  147POPC   C1B 2134   6.105   8.616   4.743
  147POPC   C2B 2135   6.222   8.674   5.120
  147POPC   C3B 2136   6.285   8.695   5.518
  147POPC   C4B 2137   6.048   8.800   5.854
  148POPC   NC3 2138   0.971   5.099   3.828
  148POPC   PO4 2139   1.572   5.320   3.975
  148POPC   GL1 2140   1.159   5.321   4.273
  148POPC   GL2 2141   1.240   5.003   4.416
  148POPC   C1A 2142   0.912   5.238   4.728
  148POPC   D2A 2143   0.984   5.001   5.147
  148POPC   C3A 2144   1.038   5.147   5.585
  148POPC   C4A 2145   0.866   5.334   5.999
  148POPC   C1B 2146   1.409   5.133   4.829
  148POPC   C2B 2147   1.478   5.062   5.281
  148POPC   C3B 2148   1.536   5.040   5.734
  148POPC   C4B 2149   1.828   5.202   6.044
  149POPC   NC3 2150   6.511   8.118   3.907
  149POPC   PO4 2151   6.125   8.608   4.005
  149POPC   GL1 2152   6.317   8.337   4.362
  149POPC   GL2 2153   6.447   7.973   4.388
  149POPC   C1A 2154   6.487   8.262   4.803
  149POPC   D2A 2155   6.288   8.182   5.196
  149POPC   C3A 2156   6.482   8.221   5.589
  149POPC   C4A 2157   6.388   8.429   5.959
  149POPC   C1B 2158   6.776   7.861   4.740
  149POPC   C2B 2159   6.769   8.000   5.167
  149POPC   C3B 2160   6.832   7.839   5.591
  149POPC   C4B 2161   6.877   8.152   5.928
  150POPC   NC3 2162   9.016   2.455   3.936
  150POPC   PO4 2163   8.945   3.109   3.938
  150POPC   GL1 2164   9.002   3.021   4.353
  150POPC   GL2 2165   9.082   2.667   4.394
  150POPC   C1A 2166   8.770   3.192   4.686
  150POPC   D2A 2167   8.525   3.025   5.031
  150POPC   C3A 2168   8.778   2.998   5.363
  150POPC   C4A 2169   8.613   2.991   5.752
  150POPC   C1B 2170   9.061   2.780   4.846
  150POPC   C2B 2171   8.933   2.523   5.201
  150POPC   C3B 2172   8.900   2.562   5.644
  150POPC   C4B 2173   8.891   2.663   6.056
  151POPC   NC3 2174   8.052   2.197   3.988
  151POPC   PO4 2175   8.674   2.162   4.107
  151POPC   GL1 2176   8.467   1.859   4.373
  151POPC   GL2 2177   8.128   1.942   4.423
  151POPC   C1A 2178   8.489   1.769   4.802
  151POPC   D2A 2179   8.651   1.740   5.207
  151POPC   C3A 2180   8.292   1.749   5.485
  151POPC   C4A 2181   8.180   1.742   5.900
  151POPC   C1B 2182   7.997   2.264   4.708
  151POPC   C2B 2183   8.027   2.123   5.111
  151POPC   C3B 2184   8.146   2.224   5.482
  151POPC   C4B 2185   7.943   2.184   5.820
  152POPC   NC3 2186   8.807   4.159   4.032
  152POPC   PO4 2187   8.994   4.796   3.808
  152POPC   GL1 2188   9.035   4.600   4.263
  152POPC   GL2 2189   9.148   4.270   4.395
  152POPC   C1A 2190   9.164   4.639   4.736
  152POPC   D2A 2191   9.329   4.538   5.154
  152POPC   C3A 2192   8.964   4.527   5.459
  152POPC   C4A 2193   8.691   4.506   5.842
  152POPC   C1B 2194   8.928   4.115   4.796
  152POPC   C2B 2195   8.811   4.038   5.256
  152POPC   C3B 2196   8.920   4.061   5.732
  152POPC   C4B 2197   9.130   3.919   6.140
  153POPC   NC3 2198   7.331   7.773   4.201
  153POPC   PO4 2199   7.632   7.325   3.688
  153POPC   GL1 2200   7.526   7.230   4.249
  153POPC   GL2 2201   7.625   7.527   4.548
  153POPC   C1A 2202   7.380   7.140   4.694
  153POPC   D2A 2203   7.538   7.322   5.066
  153POPC   C3A 2204   7.227   7.217   5.358
  153POPC   C4A 2205   7.324   6.964   5.714
  153POPC   C1B 2206   7.246   7.661   4.812
  153POPC   C2B 2207   7.247   7.790   5.214
  153POPC   C3B 2208   7.525   7.630   5.495
  153POPC   C4B 2209   7.216   7.520   5.764
  154POPC   NC3 2210   1.155   3.505   3.878
  154POPC   PO4 2211   0.613   3.726   4.099
  154POPC   GL1 2212   0.852   3.705   4.444
  154POPC   GL2 2213   1.124   3.471   4.399
  154POPC   C1A 2214   0.924   3.699   4.889
  154POPC   D2A 2215   1.031   3.385   5.192
  154POPC   C3A 2216   0.887   3.578   5.522
  154POPC   C4A 2217   0.990   3.610   5.922
  154POPC   C1B 2218   1.354   3.460   4.804
  154POPC   C2B 2219   1.437   3.720   5.181
  154POPC   C3B 2220   1.397   3.606   5.625
  154POPC   C4B 2221   1.428   3.460   6.110
  155POPC   NC3 2222   0.215   4.944   4.185
  155POPC   PO4 2223   0.757   4.643   3.851
  155POPC   GL1 2224   0.846   4.712   4.255
  155POPC   GL2 2225   0.693   5.029   4.334
  155POPC   C1A 2226   0.864   4.746   4.697
  155POPC   D2A 2227   0.516   4.961   4.970
  155POPC   C3A 2228   0.532   4.977   5.419
  155POPC   C4A 2229   0.283   4.691   5.685
  155POPC   C1B 2230   0.386   5.308   4.643
  155POPC   C2B 2231   0.105   5.397   5.028
  155POPC   C3B 2232   0.210   5.492   5.470
  155POPC   C4B 2233   0.376   5.289   5.850
  156POPC   NC3 2234   9.091   8.096   3.764
  156POPC   PO4 2235   8.610   7.737   3.846
  156POPC   GL1 2236   8.741   7.894   4.231
  156POPC   GL2 2237   9.081   7.855   4.229
  156POPC   C1A 2238   8.528   8.045   4.637
  156POPC   D2A 2239   8.406   8.323   5.016
  156POPC   C3A 2240   8.718   8.332   5.379
  156POPC   C4A 2241   8.572   8.358   5.812
  156POPC   C1B 2242   9.061   8.182   4.535
  156POPC   C2B 2243   9.315   8.320   4.878
  156POPC   C3B 2244   9.294   8.362   5.324
  156POPC   C4B 2245   9.088   8.286   5.740
  157POPC   NC3 2246   7.594   2.662   3.916
  157POPC   PO4 2247   7.022   2.283   3.923
  157POPC   GL1 2248   7.213   2.419   4.307
  157POPC   GL2 2249   7.254   2.750   4.277
  157POPC   C1A 2250   7.140   2.552   4.750
  157POPC   D2A 2251   6.939   2.557   5.161
  157POPC   C3A 2252   7.176   2.750   5.487
  157POPC   C4A 2253   7.121   2.727   5.932
  157POPC   C1B 2254   7.611   2.640   4.570
  157POPC   C2B 2255   7.613   2.518   4.991
  157POPC   C3B 2256   7.671   2.376   5.389
  157POPC   C4B 2257   7.512   2.449   5.750
  158POPC   NC3 2258   5.032   0.557   4.064
  158POPC   PO4 2259   5.093   9.916   4.025
  158POPC   GL1 2260   5.222   0.167   4.422
  158POPC   GL2 2261   5.316   0.549   4.506
  158POPC   C1A 2262   5.136   0.237   4.867
  158POPC   D2A 2263   5.338   0.467   5.214
  158POPC   C3A 2264   5.352   0.268   5.622
  158POPC   C4A 2265   5.522   0.297   6.058
  158POPC   C1B 2266   5.004   0.768   4.743
  158POPC   C2B 2267   4.851   0.617   5.106
  158POPC   C3B 2268   4.925   0.559   5.515
  158POPC   C4B 2269   4.625   0.626   5.774
  159POPC   NC3 2270   1.360   6.720   4.035
  159POPC   PO4 2271   0.840   6.242   3.892
  159POPC   GL1 2272   1.046   6.376   4.255
  159POPC   GL2 2273   1.364   6.360   4.471
  159POPC   C1A 2274   0.934   6.633   4.607
  159POPC   D2A 2275   0.990   6.855   5.000
  159POPC   C3A 2276   1.154   6.640   5.358
  159POPC   C4A 2277   0.954   6.743   5.745
  159POPC   C1B 2278   1.443   6.740   4.713
  159POPC   C2B 2279   1.514   6.947   5.108
  159POPC   C3B 2280   1.651   6.807   5.524
  159POPC   C4B 2281   1.430   6.476   5.774
  160POPC   NC3 2282   0.556   5.834   3.797
  160POPC   PO4 2283   0.502   5.152   3.874
  160POPC   GL1 2284   0.608   5.499   4.186
  160POPC   GL2 2285   0.318   5.691   4.244
  160POPC   C1A 2286   0.695   5.688   4.638
  160POPC   D2A 2287   0.618   5.478   5.082
  160POPC   C3A 2288   0.776   5.587   5.502
  160POPC   C4A 2289   0.635   5.792   5.907
  160POPC   C1B 2290   0.176   5.772   4.668
  160POPC   C2B 2291   0.361   5.956   5.030
  160POPC   C3B 2292   0.440   5.971   5.464
  160POPC   C4B 2293   0.148   5.899   5.810
  161POPC   NC3 2294   0.586   7.598   3.888
  161POPC   PO4 2295   0.119   7.065   3.860
  161POPC   GL1 2296   0.236   7.359   4.174
  161POPC   GL2 2297   0.538   7.160   4.215
  161POPC   C1A 2298   0.290   7.445   4.627
  161POPC   D2A 2299   0.172   7.634   5.048
  161POPC   C3A 2300   0.315   7.450   5.449
  161POPC   C4A 2301   0.552   7.560   5.841
  161POPC   C1B 2302   0.712   7.142   4.640
  161POPC   C2B 2303   0.664   7.346   5.048
  161POPC   C3B 2304   0.786   7.254   5.482
  161POPC   C4B 2305   0.539   7.051   5.770
  162POPC   NC3 2306   4.145   3.594   3.892
  162POPC   PO4 2307   4.657   3.845   3.986
  162POPC   GL1 2308   4.467   3.475   4.281
  162POPC   GL2 2309   4.374   3.122   4.203
  162POPC   C1A 2310   4.128   3.342   4.609
  162POPC   D2A 2311   4.045   3.188   5.063
  162POPC   C3A 2312   3.682   3.234   5.371
  162POPC   C4A 2313   3.499   3.613   5.630
  162POPC   C1B 2314   4.510   3.028   4.666
  162POPC   C2B 2315   4.425   2.877   5.125
  162POPC   C3B 2316   4.169   2.971   5.512
  162POPC   C4B 2317   3.873   3.049   5.862
  163POPC   NC3 2318   8.112   7.043   3.890
  163POPC   PO4 2319   7.757   7.622   4.088
  163POPC   GL1 2320   8.106   7.368   4.285
  163POPC   GL2 2321   8.418   7.527   4.357
  163POPC   C1A 2322   8.341   7.115   4.661
  163POPC   D2A 2323   8.439   6.949   5.089
  163POPC   C3A 2324   8.076   6.892   5.346
  163POPC   C4A 2325   7.784   7.171   5.593
  163POPC   C1B 2326   8.133   7.582   4.730
  163POPC   C2B 2327   8.081   7.333   5.090
  163POPC   C3B 2328   8.299   7.340   5.480
  163POPC   C4B 2329   8.021   7.641   5.621
  164POPC   NC3 2330   8.165   7.784   3.978
  164POPC   PO4 2331   7.538   8.138   3.940
  164POPC   GL1 2332   7.761   8.062   4.324
  164POPC   GL2 2333   8.039   8.269   4.239
  164POPC   C1A 2334   7.999   8.070   4.727
  164POPC   D2A 2335   8.004   7.900   5.152
  164POPC   C3A 2336   8.270   8.080   5.471
  164POPC   C4A 2337   8.452   7.871   5.803
  164POPC   C1B 2338   7.784   8.500   4.569
  164POPC   C2B 2339   7.892   8.504   5.004
  164POPC   C3B 2340   8.012   8.528   5.446
  164POPC   C4B 2341   8.059   8.405   5.914
  165POPC   NC3 2342   6.390   0.488   3.942
  165POPC   PO4 2343   6.083   1.043   4.085
  165POPC   GL1 2344   6.373   0.808   4.343
  165POPC   GL2 2345   6.668   0.577   4.352
  165POPC   C1A 2346   6.495   0.852   4.752
  165POPC   D2A 2347   6.385   0.599   5.076
  165POPC   C3A 2348   6.245   0.786   5.445
  165POPC   C4A 2349   6.305   0.621   5.830
  165POPC   C1B 2350   6.624   0.311   4.706
  165POPC   C2B 2351   6.625   0.128   5.117
  165POPC   C3B 2352   6.681   0.396   5.461
  165POPC   C4B 2353   6.548   0.181   5.781
  166POPC   NC3 2354   3.159   8.721   3.965
  166POPC   PO4 2355   3.777   8.964   4.012
  166POPC   GL1 2356   3.440   8.881   4.370
  166POPC   GL2 2357   3.322   9.192   4.554
  166POPC   C1A 2358   3.305   8.774   4.822
  166POPC   D2A 2359   3.370   9.126   5.113
  166POPC   C3A 2360   3.244   9.121   5.567
  166POPC   C4A 2361   3.342   9.325   5.943
  166POPC   C1B 2362   3.751   9.122   4.712
  166POPC   C2B 2363   3.845   8.922   5.076
  166POPC   C3B 2364   3.632   8.777   5.437
  166POPC   C4B 2365   3.734   9.066   5.727
  167POPC   NC3 2366   7.156   9.310   3.866
  167POPC   PO4 2367   6.917   9.932   3.942
  167POPC   GL1 2368   7.086   9.641   4.287
  167POPC   GL2 2369   7.453   9.516   4.241
  167POPC   C1A 2370   7.111   9.416   4.729
  167POPC   D2A 2371   7.333   9.306   5.123
  167POPC   C3A 2372   7.109   9.446   5.515
  167POPC   C4A 2373   7.173   9.590   5.966
  167POPC   C1B 2374   7.428   9.802   4.619
  167POPC   C2B 2375   7.579   9.772   5.043
  167POPC   C3B 2376   7.568   9.669   5.455
  167POPC   C4B 2377   7.377   9.968   5.699
  168POPC   NC3 2378   9.021   7.460   3.912
  168POPC   PO4 2379   8.536   7.105   4.054
  168POPC   GL1 2380   8.815   7.070   4.377
  168POPC   GL2 2381   8.919   7.392   4.390
  168POPC   C1A 2382   8.830   7.179   4.831
  168POPC   D2A 2383   8.794   7.342   5.235
  168POPC   C3A 2384   8.831   7.024   5.563
  168POPC   C4A 2385   9.029   7.135   5.974
  168POPC   C1B 2386   8.918   7.710   4.703
  168POPC   C2B 2387   8.940   8.003   5.053
  168POPC   C3B 2388   8.935   7.857   5.498
  168POPC   C4B 2389   8.781   7.505   5.735
  169POPC   NC3 2390   3.905   8.037   4.030
  169POPC   PO4 2391   3.254   7.800   3.856
  169POPC   GL1 2392   3.421   8.054   4.229
  169POPC   GL2 2393   3.614   8.408   4.238
  169POPC   C1A 2394   3.365   8.207   4.653
  169POPC   D2A 2395   3.253   8.232   5.095
  169POPC   C3A 2396   3.483   8.164   5.456
  169POPC   C4A 2397   3.348   8.015   5.866
  169POPC   C1B 2398   3.736   8.554   4.679
  169POPC   C2B 2399   3.834   8.419   5.125
  169POPC   C3B 2400   3.938   8.390   5.582
  169POPC   C4B 2401   3.686   8.398   5.910
  170POPC   NC3 2402   7.252   0.927   3.927
  170POPC   PO4 2403   7.372   1.566   3.917
  170POPC   GL1 2404   7.385   1.233   4.290
  170POPC   GL2 2405   7.725   1.233   4.433
  170POPC   C1A 2406   7.399   1.016   4.736
  170POPC   D2A 2407   7.525   1.201   5.135
  170POPC   C3A 2408   7.396   0.913   5.459
  170POPC   C4A 2409   7.003   0.797   5.674
  170POPC   C1B 2410   7.372   1.519   4.688
  170POPC   C2B 2411   7.141   1.565   5.049
  170POPC   C3B 2412   7.309   1.545   5.458
  170POPC   C4B 2413   7.346   1.285   5.800
  171POPC   NC3 2414   2.238   6.249   3.961
  171POPC   PO4 2415   1.587   6.318   4.039
  171POPC   GL1 2416   1.907   6.079   4.317
  171POPC   GL2 2417   1.866   5.726   4.312
  171POPC   C1A 2418   2.123   5.983   4.747
  171POPC   D2A 2419   1.940   5.953   5.202
  171POPC   C3A 2420   2.094   5.898   5.657
  171POPC   C4A 2421   2.127   5.880   6.152
  171POPC   C1B 2422   1.641   5.883   4.717
  171POPC   C2B 2423   1.421   5.963   5.118
  171POPC   C3B 2424   1.562   5.992   5.580
  171POPC   C4B 2425   1.683   5.716   5.951
  172POPC   NC3 2426   0.715   4.132   3.883
  172POPC   PO4 2427   1.355   3.859   3.681
  172POPC   GL1 2428   1.222   3.936   4.151
  172POPC   GL2 2429   1.004   4.202   4.281
  172POPC   C1A 2430   1.289   3.942   4.630
  172POPC   D2A 2431   1.123   4.161   5.024
  172POPC   C3A 2432   1.089   4.056   5.481
  172POPC   C4A 2433   0.702   3.998   5.763
  172POPC   C1B 2434   1.255   4.452   4.567
  172POPC   C2B 2435   1.297   4.639   4.980
  172POPC   C3B 2436   1.232   4.604   5.442
  172POPC   C4B 2437   1.492   4.512   5.824
  173POPC   NC3 2438   2.192   7.295   3.864
  173POPC   PO4 2439   2.423   6.640   3.802
  173POPC   GL1 2440   2.208   6.679   4.272
  173POPC   GL2 2441   1.856   6.587   4.379
  173POPC   C1A 2442   2.078   6.788   4.777
  173POPC   D2A 2443   2.001   7.082   5.127
  173POPC   C3A 2444   2.256   7.074   5.481
  173POPC   C4A 2445   2.308   6.731   5.724
  173POPC   C1B 2446   1.794   6.366   4.761
  173POPC   C2B 2447   1.690   6.420   5.182
  173POPC   C3B 2448   1.924   6.382   5.562
  173POPC   C4B 2449   1.838   6.230   5.960
  174POPC   NC3 2450   7.151   4.620   4.051
  174POPC   PO4 2451   7.480   4.065   4.004
  174POPC   GL1 2452   7.506   4.290   4.374
  174POPC   GL2 2453   7.664   4.019   4.511
  174POPC   C1A 2454   7.345   4.254   4.833
  174POPC   D2A 2455   7.418   4.277   5.293
  174POPC   C3A 2456   7.086   4.307   5.629
  174POPC   C4A 2457   7.102   4.014   5.973
  174POPC   C1B 2458   7.835   4.383   4.763
  174POPC   C2B 2459   7.982   4.387   5.173
  174POPC   C3B 2460   7.759   4.577   5.521
  174POPC   C4B 2461   7.553   4.271   5.818
  175POPC   NC3 2462   4.163   7.337   4.132
  175POPC   PO4 2463   3.953   6.781   4.091
  175POPC   GL1 2464   3.929   6.968   4.525
  175POPC   GL2 2465   3.941   7.350   4.597
  175POPC   C1A 2466   4.013   7.016   4.986
  175POPC   D2A 2467   4.352   7.257   5.217
  175POPC   C3A 2468   4.428   7.163   5.676
  175POPC   C4A 2469   4.317   7.003   6.105
  175POPC   C1B 2470   3.891   7.515   5.009
  175POPC   C2B 2471   3.960   7.465   5.446
  175POPC   C3B 2472   4.257   7.635   5.737
  175POPC   C4B 2473   4.242   7.498   6.157
  176POPC   NC3 2474   8.653   4.899   4.106
  176POPC   PO4 2475   8.290   5.412   3.706
  176POPC   GL1 2476   8.355   5.328   4.115
  176POPC   GL2 2477   8.070   5.104   4.190
  176POPC   C1A 2478   8.383   5.277   4.566
  176POPC   D2A 2479   8.302   5.159   4.987
  176POPC   C3A 2480   8.286   5.316   5.430
  176POPC   C4A 2481   8.400   5.382   5.884
  176POPC   C1B 2482   7.909   5.070   4.624
  176POPC   C2B 2483   7.870   4.873   5.039
  176POPC   C3B 2484   8.177   4.821   5.348
  176POPC   C4B 2485   8.267   4.764   5.760
  177POPC   NC3 2486   0.302   4.760   3.725
  177POPC   PO4 2487   0.237   4.101   3.885
  177POPC   GL1 2488   0.413   4.425   4.196
  177POPC   GL2 2489   0.477   4.137   4.365
  177POPC   C1A 2490   0.408   4.523   4.702
  177POPC   D2A 2491   0.737   4.522   5.111
  177POPC   C3A 2492   0.701   4.452   5.540
  177POPC   C4A 2493   0.544   4.427   6.006
  177POPC   C1B 2494   0.743   4.146   4.709
  177POPC   C2B 2495   0.629   4.034   5.145
  177POPC   C3B 2496   0.272   4.233   5.363
  177POPC   C4B 2497   0.197   4.154   5.790
  178POPC   NC3 2498   8.655   9.729   4.091
  178POPC   PO4 2499   9.278   9.442   3.871
  178POPC   GL1 2500   9.099   9.601   4.265
  178POPC   GL2 2501   9.097   9.965   4.341
  178POPC   C1A 2502   8.985   9.546   4.685
  178POPC   D2A 2503   9.153   9.387   5.056
  178POPC   C3A 2504   8.981   9.478   5.478
  178POPC   C4A 2505   9.106   9.191   5.822
  178POPC   C1B 2506   8.866   0.036   4.759
  178POPC   C2B 2507   8.977   9.933   5.222
  178POPC   C3B 2508   8.908   9.945   5.711
  178POPC   C4B 2509   8.731   9.987   6.175
  179POPC   NC3 2510   3.492   7.420   3.682
  179POPC   PO4 2511   4.081   7.668   3.789
  179POPC   GL1 2512   3.688   7.589   4.124
  179POPC   GL2 2513   3.650   7.262   4.200
  179POPC   C1A 2514   3.512   7.650   4.586
  179POPC   D2A 2515   3.249   7.704   4.984
  179POPC   C3A 2516   3.488   7.655   5.387
  179POPC   C4A 2517   3.445   7.518   5.849
  179POPC   C1B 2518   3.457   7.128   4.613
  179POPC   C2B 2519   3.489   7.196   5.081
  179POPC   C3B 2520   3.559   7.155   5.544
  179POPC   C4B 2521   3.888   7.228   5.891
  180POPC   NC3 2522   9.912   2.658   3.857
  180POPC   PO4 2523   9.969   3.259   4.210
  180POPC   GL1 2524   9.770   3.090   4.452
  180POPC   GL2 2525   9.539   2.892   4.323
  180POPC   C1A 2526   9.803   2.934   4.818
  180POPC   D2A 2527   9.592   3.083   5.106
  180POPC   C3A 2528   9.757   2.936   5.479
  180POPC   C4A 2529   9.595   3.128   5.812
  180POPC   C1B 2530   9.509   2.552   4.660
  180POPC   C2B 2531   9.464   2.557   5.100
  180POPC   C3B 2532   9.272   2.831   5.413
  180POPC   C4B 2533   9.380   2.647   5.798
  181POPC   NC3 2534   1.012   1.254   4.016
  181POPC   PO4 2535   0.857   0.705   3.658
  181POPC   GL1 2536   1.177   0.795   4.140
  181POPC   GL2 2537   1.437   1.031   4.311
  181POPC   C1A 2538   1.037   0.974   4.613
  181POPC   D2A 2539   1.197   1.270   4.937
  181POPC   C3A 2540   1.184   1.187   5.380
  181POPC   C4A 2541   1.174   1.092   5.825
  181POPC   C1B 2542   1.620   1.362   4.678
  181POPC   C2B 2543   1.615   1.528   5.154
  181POPC   C3B 2544   1.604   1.379   5.615
  181POPC   C4B 2545   1.543   1.351   6.087
  182POPC   NC3 2546   2.190   1.642   3.531
  182POPC   PO4 2547   1.915   1.801   4.118
  182POPC   GL1 2548   1.833   2.056   4.458
  182POPC   GL2 2549   1.646   2.321   4.323
  182POPC   C1A 2550   1.896   1.892   4.876
  182POPC   D2A 2551   2.295   1.894   5.105
  182POPC   C3A 2552   2.365   2.145   5.427
  182POPC   C4A 2553   2.137   2.069   5.794
  182POPC   C1B 2554   1.721   2.529   4.729
  182POPC   C2B 2555   1.938   2.350   5.122
  182POPC   C3B 2556   1.826   2.015   5.392
  182POPC   C4B 2557   1.649   2.223   5.751
  183POPC   NC3 2558   7.747   1.247   3.919
  183POPC   PO4 2559   8.350   1.548   3.712
  183POPC   GL1 2560   8.142   1.489   4.178
  183POPC   GL2 2561   8.315   1.229   4.329
  183POPC   C1A 2562   8.099   1.444   4.706
  183POPC   D2A 2563   8.271   1.384   5.149
  183POPC   C3A 2564   7.977   1.317   5.562
  183POPC   C4A 2565   7.776   1.470   5.997
  183POPC   C1B 2566   8.479   1.069   4.756
  183POPC   C2B 2567   8.498   0.936   5.202
  183POPC   C3B 2568   8.457   1.131   5.653
  183POPC   C4B 2569   8.421   0.874   6.077
  184POPC   NC3 2570   8.245   8.942   3.868
  184POPC   PO4 2571   7.581   9.110   3.858
  184POPC   GL1 2572   7.912   9.161   4.183
  184POPC   GL2 2573   8.004   8.838   4.291
  184POPC   C1A 2574   8.077   9.224   4.633
  184POPC   D2A 2575   7.879   9.321   5.040
  184POPC   C3A 2576   8.051   9.154   5.421
  184POPC   C4A 2577   7.804   8.943   5.724
  184POPC   C1B 2578   8.248   8.717   4.650
  184POPC   C2B 2579   8.270   8.862   5.054
  184POPC   C3B 2580   8.458   8.755   5.421
  184POPC   C4B 2581   8.293   8.824   5.782
  185POPC   NC3 2582   8.128   9.487   3.712
  185POPC   PO4 2583   8.355   0.111   3.963
  185POPC   GL1 2584   8.226   9.863   4.305
  185POPC   GL2 2585   7.965   9.661   4.207
  185POPC   C1A 2586   8.435   9.679   4.696
  185POPC   D2A 2587   8.636   9.590   5.072
  185POPC   C3A 2588   8.518   9.779   5.440
  185POPC   C4A 2589   8.519   9.645   5.873
  185POPC   C1B 2590   7.934   9.728   4.690
  185POPC   C2B 2591   8.095   9.763   5.147
  185POPC   C3B 2592   8.031   9.809   5.612
  185POPC   C4B 2593   7.851   0.134   5.876
  186POPC   NC3 2594   5.013   2.131   3.908
  186POPC   PO4 2595   5.173   1.436   4.048
  186POPC   GL1 2596   5.144   1.762   4.308
  186POPC   GL2 2597   5.181   2.121   4.377
  186POPC   C1A 2598   4.963   1.760   4.694
  186POPC   D2A 2599   5.137   1.818   5.099
  186POPC   C3A 2600   4.894   1.983   5.439
  186POPC   C4A 2601   5.003   1.990   5.866
  186POPC   C1B 2602   5.016   2.250   4.804
  186POPC   C2B 2603   4.869   2.426   5.202
  186POPC   C3B 2604   5.046   2.451   5.650
  186POPC   C4B 2605   5.026   2.421   6.145
  187POPC   NC3 2606   3.372   2.866   3.912
  187POPC   PO4 2607   3.985   3.167   3.880
  187POPC   GL1 2608   3.876   3.023   4.311
  187POPC   GL2 2609   3.716   2.723   4.357
  187POPC   C1A 2610   3.666   3.057   4.745
  187POPC   D2A 2611   3.319   2.844   4.978
  187POPC   C3A 2612   3.276   2.849   5.412
  187POPC   C4A 2613   3.002   2.786   5.752
  187POPC   C1B 2614   3.601   2.494   4.746
  187POPC   C2B 2615   3.446   2.383   5.203
  187POPC   C3B 2616   3.327   2.391   5.670
  187POPC   C4B 2617   3.525   2.653   6.009
  188POPC   NC3 2618   2.860   8.035   3.777
  188POPC   PO4 2619   2.246   7.810   3.799
  188POPC   GL1 2620   2.472   8.088   4.168
  188POPC   GL2 2621   2.851   8.141   4.262
  188POPC   C1A 2622   2.435   8.217   4.599
  188POPC   D2A 2623   2.236   8.065   4.975
  188POPC   C3A 2624   2.359   8.117   5.392
  188POPC   C4A 2625   2.460   8.424   5.735
  188POPC   C1B 2626   2.896   8.005   4.675
  188POPC   C2B 2627   2.774   8.318   4.980
  188POPC   C3B 2628   2.837   8.301   5.418
  188POPC   C4B 2629   2.875   8.172   5.840
  189POPC   NC3 2630   9.330   5.083   3.951
  189POPC   PO4 2631   9.969   5.316   4.067
  189POPC   GL1 2632   9.698   5.020   4.315
  189POPC   GL2 2633   9.545   4.669   4.320
  189POPC   C1A 2634   9.578   4.972   4.748
  189POPC   D2A 2635   9.625   5.142   5.119
  189POPC   C3A 2636   9.512   4.914   5.516
  189POPC   C4A 2637   9.455   5.154   5.910
  189POPC   C1B 2638   9.663   4.481   4.737
  189POPC   C2B 2639   9.861   4.654   5.125
  189POPC   C3B 2640   0.011   5.001   5.405
  189POPC   C4B 2641   9.924   4.994   5.848
  190POPC   NC3 2642   8.726   1.257   3.720
  190POPC   PO4 2643   9.327   1.424   3.934
  190POPC   GL1 2644   8.926   1.341   4.197
  190POPC   GL2 2645   8.734   1.013   4.177
  190POPC   C1A 2646   8.839   1.418   4.638
  190POPC   D2A 2647   9.071   1.464   5.035
  190POPC   C3A 2648   8.899   1.355   5.435
  190POPC   C4A 2649   9.142   1.405   5.807
  190POPC   C1B 2650   8.916   0.907   4.523
  190POPC   C2B 2651   8.985   0.957   4.958
  190POPC   C3B 2652   8.970   0.865   5.392
  190POPC   C4B 2653   8.885   0.923   5.843
  191POPC   NC3 2654   0.745   2.755   4.083
  191POPC   PO4 2655   1.353   2.427   3.916
  191POPC   GL1 2656   1.253   2.700   4.243
  191POPC   GL2 2657   1.211   3.031   4.092
  191POPC   C1A 2658   1.081   2.865   4.649
  191POPC   D2A 2659   0.895   2.893   5.085
  191POPC   C3A 2660   1.201   2.724   5.360
  191POPC   C4A 2661   1.546   2.735   5.665
  191POPC   C1B 2662   1.499   3.107   4.461
  191POPC   C2B 2663   1.509   2.991   4.925
  191POPC   C3B 2664   1.485   3.165   5.349
  191POPC   C4B 2665   1.187   3.148   5.715
  192POPC   NC3 2666   1.906   9.772   3.799
  192POPC   PO4 2667   1.330   9.677   4.098
  192POPC   GL1 2668   1.766   9.647   4.256
  192POPC   GL2 2669   2.106   9.820   4.261
  192POPC   C1A 2670   1.815   9.484   4.637
  192POPC   D2A 2671   1.870   9.423   5.054
  192POPC   C3A 2672   1.899   9.563   5.493
  192POPC   C4A 2673   1.661   9.381   5.844
  192POPC   C1B 2674   2.231   9.746   4.669
  192POPC   C2B 2675   2.389   9.913   4.993
  192POPC   C3B 2676   2.223   0.096   5.336
  192POPC   C4B 2677   2.123   9.997   5.726
  193POPC   NC3 2678   7.943   6.229   4.134
  193POPC   PO4 2679   8.349   6.636   3.764
  193POPC   GL1 2680   8.247   6.682   4.236
  193POPC   GL2 2681   7.959   6.902   4.382
  193POPC   C1A 2682   8.290   6.588   4.702
  193POPC   D2A 2683   8.441   6.439   5.149
  193POPC   C3A 2684   8.459   6.622   5.586
  193POPC   C4A 2685   8.313   6.416   5.984
  193POPC   C1B 2686   7.901   6.904   4.834
  193POPC   C2B 2687   7.924   6.493   5.064
  193POPC   C3B 2688   8.021   6.367   5.484
  193POPC   C4B 2689   7.939   6.691   5.784
  194POPC   NC3 2690   7.825   5.387   3.829
  194POPC   PO4 2691   7.528   4.785   3.871
  194POPC   GL1 2692   7.640   4.786   4.274
  194POPC   GL2 2693   7.511   5.136   4.290
  194POPC   C1A 2694   7.486   4.770   4.700
  194POPC   D2A 2695   7.425   5.133   4.995
  194POPC   C3A 2696   7.546   5.074   5.428
  194POPC   C4A 2697   7.905   5.100   5.687
  194POPC   C1B 2698   7.113   5.110   4.574
  194POPC   C2B 2699   6.946   4.966   5.012
  194POPC   C3B 2700   7.087   4.813   5.447
  194POPC   C4B 2701   7.368   4.763   5.811
  195POPC   NC3 2702   3.550   1.885   4.022
  195POPC   PO4 2703   3.680   2.497   3.904
  195POPC   GL1 2704   3.789   2.221   4.316
  195POPC   GL2 2705   3.413   2.250   4.351
  195POPC   C1A 2706   3.920   1.806   4.597
  195POPC   D2A 2707   4.105   1.707   5.038
  195POPC   C3A 2708   3.874   1.666   5.459
  195POPC   C4A 2709   3.797   1.634   5.925
  195POPC   C1B 2710   3.454   1.976   4.704
  195POPC   C2B 2711   3.560   1.888   5.116
  195POPC   C3B 2712   3.422   1.908   5.527
  195POPC   C4B 2713   3.339   1.874   5.954
  196POPC   NC3 2714   4.718   1.394   4.006
  196POPC   PO4 2715   4.015   1.555   3.929
  196POPC   GL1 2716   4.190   1.426   4.305
  196POPC   GL2 2717   4.239   1.106   4.199
  196POPC   C1A 2718   4.124   1.273   4.744
  196POPC   D2A 2719   4.095   1.215   5.215
  196POPC   C3A 2720   4.355   1.503   5.495
  196POPC   C4A 2721   4.514   1.475   5.946
  196POPC   C1B 2722   4.545   1.018   4.546
  196POPC   C2B 2723   4.572   1.031   4.994
  196POPC   C3B 2724   4.524   1.015   5.450
  196POPC   C4B 2725   4.163   1.119   5.748
  197POPC   NC3 2726   7.405   7.724   3.735
  197POPC   PO4 2727   6.901   7.978   4.100
  197POPC   GL1 2728   7.071   8.148   4.437
  197POPC   GL2 2729   7.333   8.382   4.367
  197POPC   C1A 2730   7.004   8.376   4.797
  197POPC   D2A 2731   7.216   8.553   5.133
  197POPC   C3A 2732   7.101   8.274   5.442
  197POPC   C4A 2733   7.298   8.023   5.707
  197POPC   C1B 2734   7.471   8.150   4.778
  197POPC   C2B 2735   7.577   8.170   5.228
  197POPC   C3B 2736   7.777   8.096   5.627
  197POPC   C4B 2737   7.615   8.181   6.069
  198POPC   NC3 2738   8.953   3.494   3.686
  198POPC   PO4 2739   9.279   3.898   4.057
  198POPC   GL1 2740   9.122   3.723   4.382
  198POPC   GL2 2741   8.857   3.521   4.247
  198POPC   C1A 2742   9.078   3.611   4.797
  198POPC   D2A 2743   9.123   3.281   5.049
  198POPC   C3A 2744   9.038   3.430   5.413
  198POPC   C4A 2745   9.095   3.165   5.767
  198POPC   C1B 2746   8.620   3.703   4.601
  198POPC   C2B 2747   8.622   3.561   5.050
  198POPC   C3B 2748   8.540   3.446   5.490
  198POPC   C4B 2749   8.804   3.581   5.846
  199POPC   NC3 2750   1.782   9.093   3.814
  199POPC   PO4 2751   2.333   9.487   3.938
  199POPC   GL1 2752   2.149   9.309   4.293
  199POPC   GL2 2753   2.092   8.992   4.227
  199POPC   C1A 2754   2.273   9.223   4.714
  199POPC   D2A 2755   2.100   8.950   5.023
  199POPC   C3A 2756   1.931   9.046   5.388
  199POPC   C4A 2757   2.101   9.092   5.753
  199POPC   C1B 2758   1.832   8.951   4.598
  199POPC   C2B 2759   1.594   8.827   4.994
  199POPC   C3B 2760   1.532   8.715   5.440
  199POPC   C4B 2761   1.669   8.869   5.828
  200POPC   NC3 2762   7.919   0.377   4.107
  200POPC   PO4 2763   7.661   0.829   3.732
  200POPC   GL1 2764   8.019   0.870   4.110
  200POPC   GL2 2765   8.336   0.643   4.230
  200POPC   C1A 2766   8.048   0.856   4.588
  200POPC   D2A 2767   7.977   0.997   5.009
  200POPC   C3A 2768   7.918   0.692   5.360
  200POPC   C4A 2769   8.042   0.593   5.787
  200POPC   C1B 2770   8.296   0.278   4.602
  200POPC   C2B 2771   8.423   0.139   5.016
  200POPC   C3B 2772   8.222   0.234   5.404
  200POPC   C4B 2773   8.396   0.145   5.798
  201POPC   NC3 2774   8.931   9.241   3.629
  201POPC   PO4 2775   8.395   9.346   4.060
  201POPC   GL1 2776   8.697   9.263   4.347
  201POPC   GL2 2777   8.996   9.112   4.165
  201POPC   C1A 2778   8.605   9.166   4.781
  201POPC   D2A 2779   8.749   9.105   5.210
  201POPC   C3A 2780   8.550   9.226   5.605
  201POPC   C4A 2781   8.515   9.168   6.082
  201POPC   C1B 2782   9.093   9.042   4.628
  201POPC   C2B 2783   9.088   8.777   5.024
  201POPC   C3B 2784   9.059   8.783   5.484
  201POPC   C4B 2785   8.796   8.794   5.828
  202POPC   NC3 2786   7.319   3.635   4.007
  202POPC   PO4 2787   7.615   3.102   3.772
  202POPC   GL1 2788   7.484   3.195   4.207
  202POPC   GL2 2789   7.639   3.489   4.353
  202POPC   C1A 2790   7.313   3.094   4.633
  202POPC   D2A 2791   7.146   3.026   5.035
  202POPC   C3A 2792   7.323   3.279   5.348
  202POPC   C4A 2793   7.354   3.178   5.771
  202POPC   C1B 2794   7.383   3.611   4.718
  202POPC   C2B 2795   7.252   3.781   5.119
  202POPC   C3B 2796   7.306   3.784   5.562
  202POPC   C4B 2797   7.603   3.756   5.890
  203POPC   NC3 2798   5.734   0.090   3.526
  203POPC   PO4 2799   5.500   0.492   4.056
  203POPC   GL1 2800   5.894   0.566   4.283
  203POPC   GL2 2801   5.872   0.854   4.501
  203POPC   C1A 2802   6.142   0.441   4.644
  203POPC   D2A 2803   6.135   0.122   4.982
  203POPC   C3A 2804   6.194   0.258   5.414
  203POPC   C4A 2805   6.017   0.205   5.809
  203POPC   C1B 2806   5.698   0.649   4.811
  203POPC   C2B 2807   5.864   0.527   5.147
  203POPC   C3B 2808   5.761   0.560   5.541
  203POPC   C4B 2809   5.393   0.793   5.659
  204POPC   NC3 2810   4.433   7.928   3.687
  204POPC   PO4 2811   4.127   7.748   4.311
  204POPC   GL1 2812   3.857   8.017   4.540
  204POPC   GL2 2813   4.087   8.269   4.448
  204POPC   C1A 2814   3.689   7.972   4.964
  204POPC   D2A 2815   3.951   7.951   5.325
  204POPC   C3A 2816   3.816   7.883   5.747
  204POPC   C4A 2817   4.065   7.961   6.089
  204POPC   C1B 2818   4.505   8.276   4.644
  204POPC   C2B 2819   4.574   8.344   5.085
  204POPC   C3B 2820   4.408   8.195   5.490
  204POPC   C4B 2821   4.367   8.362   5.910
  205POPC   NC3 2822   5.742   8.317   3.984
  205POPC   PO4 2823   6.155   7.791   3.945
  205POPC   GL1 2824   5.926   7.953   4.332
  205POPC   GL2 2825   5.795   8.315   4.470
  205POPC   C1A 2826   6.049   8.047   4.768
  205POPC   D2A 2827   5.816   8.342   5.071
  205POPC   C3A 2828   5.910   8.276   5.531
  205POPC   C4A 2829   6.074   8.040   5.887
  205POPC   C1B 2830   5.546   8.004   4.722
  205POPC   C2B 2831   5.403   8.051   5.159
  205POPC   C3B 2832   5.422   8.024   5.613
  205POPC   C4B 2833   5.595   7.914   6.006
  206POPC   NC3 2834   9.616   9.184   4.044
  206POPC   PO4 2835   0.014   8.693   3.908
  206POPC   GL1 2836   9.981   8.938   4.273
  206POPC   GL2 2837   9.701   8.751   4.372
  206POPC   C1A 2838   9.975   9.082   4.703
  206POPC   D2A 2839   0.214   9.167   5.068
  206POPC   C3A 2840   0.073   9.349   5.446
  206POPC   C4A 2841   9.820   9.260   5.807
  206POPC   C1B 2842   9.542   8.832   4.789
  206POPC   C2B 2843   9.565   8.818   5.241
  206POPC   C3B 2844   9.541   8.851   5.687
  206POPC   C4B 2845   9.288   8.674   6.009
  207POPC   NC3 2846   2.883   1.321   4.060
  207POPC   PO4 2847   2.317   0.974   3.950
  207POPC   GL1 2848   2.644   0.951   4.312
  207POPC   GL2 2849   2.771   1.249   4.533
  207POPC   C1A 2850   2.586   0.834   4.764
  207POPC   D2A 2851   2.633   1.128   5.035
  207POPC   C3A 2852   2.367   1.052   5.358
  207POPC   C4A 2853   2.499   0.954   5.778
  207POPC   C1B 2854   3.101   1.290   4.823
  207POPC   C2B 2855   3.144   1.033   5.167
  207POPC   C3B 2856   3.091   1.060   5.621
  207POPC   C4B 2857   2.888   1.156   6.026
  208POPC   NC3 2858   6.376   9.017   4.160
  208POPC   PO4 2859   6.917   8.912   3.822
  208POPC   GL1 2860   6.779   8.789   4.336
  208POPC   GL2 2861   6.689   9.140   4.569
  208POPC   C1A 2862   6.630   8.729   4.805
  208POPC   D2A 2863   6.698   8.509   5.210
  208POPC   C3A 2864   6.786   8.636   5.633
  208POPC   C4A 2865   6.821   8.633   6.087
  208POPC   C1B 2866   6.320   9.153   4.832
  208POPC   C2B 2867   6.371   9.145   5.251
  208POPC   C3B 2868   6.657   9.142   5.546
  208POPC   C4B 2869   6.516   8.976   5.898
  209POPC   NC3 2870   2.964   5.708   4.019
  209POPC   PO4 2871   2.281   5.772   3.963
  209POPC   GL1 2872   2.426   5.903   4.336
  209POPC   GL2 2873   2.764   6.046   4.360
  209POPC   C1A 2874   2.531   5.693   4.719
  209POPC   D2A 2875   2.464   5.899   5.136
  209POPC   C3A 2876   2.552   5.688   5.496
  209POPC   C4A 2877   2.392   5.548   5.869
  209POPC   C1B 2878   2.795   6.116   4.817
  209POPC   C2B 2879   2.849   6.240   5.252
  209POPC   C3B 2880   2.919   6.016   5.608
  209POPC   C4B 2881   3.099   6.038   6.030
  210POPC   NC3 2882   1.244   7.464   3.910
  210POPC   PO4 2883   0.925   6.886   3.967
  210POPC   GL1 2884   1.079   7.155   4.283
  210POPC   GL2 2885   0.907   7.506   4.307
  210POPC   C1A 2886   1.225   7.209   4.709
  210POPC   D2A 2887   1.168   7.322   5.154
  210POPC   C3A 2888   1.269   7.123   5.565
  210POPC   C4A 2889   1.403   6.953   5.989
  210POPC   C1B 2890   0.943   7.651   4.739
  210POPC   C2B 2891   1.193   7.821   5.099
  210POPC   C3B 2892   1.270   7.680   5.517
  210POPC   C4B 2893   1.419   7.480   5.911
  211POPC   NC3 2894   2.083   7.718   4.232
  211POPC   PO4 2895   1.685   7.305   3.918
  211POPC   GL1 2896   1.846   7.088   4.255
  211POPC   GL2 2897   2.162   7.187   4.355
  211POPC   C1A 2898   1.745   7.163   4.673
  211POPC   D2A 2899   1.600   7.487   4.934
  211POPC   C3A 2900   1.663   7.396   5.361
  211POPC   C4A 2901   1.841   7.245   5.723
  211POPC   C1B 2902   2.222   7.358   4.747
  211POPC   C2B 2903   2.082   7.589   5.096
  211POPC   C3B 2904   2.191   7.594   5.513
  211POPC   C4B 2905   2.522   7.772   5.725
  212POPC   NC3 2906   9.482   1.861   3.954
  212POPC   PO4 2907   9.508   2.494   4.017
  212POPC   GL1 2908   9.691   2.174   4.340
  212POPC   GL2 2909   9.885   1.832   4.298
  212POPC   C1A 2910   9.688   2.079   4.805
  212POPC   D2A 2911   9.813   2.162   5.238
  212POPC   C3A 2912   9.490   2.176   5.563
  212POPC   C4A 2913   9.349   1.980   5.959
  212POPC   C1B 2914   9.687   1.585   4.667
  212POPC   C2B 2915   9.539   1.662   5.131
  212POPC   C3B 2916   9.567   1.650   5.587
  212POPC   C4B 2917   9.858   1.782   5.915
  213POPC   NC3 2918   2.026   5.362   3.985
  213POPC   PO4 2919   2.483   4.926   4.100
  213POPC   GL1 2920   2.178   5.128   4.420
  213POPC   GL2 2921   1.797   5.132   4.384
  213POPC   C1A 2922   1.992   5.461   4.732
  213POPC   D2A 2923   1.671   5.515   5.081
  213POPC   C3A 2924   1.832   5.454   5.514
  213POPC   C4A 2925   2.158   5.157   5.652
  213POPC   C1B 2926   1.675   4.765   4.593
  213POPC   C2B 2927   1.803   4.691   5.011
  213POPC   C3B 2928   1.786   4.655   5.443
  213POPC   C4B 2929   1.961   4.733   5.845
  214POPC   NC3 2930   1.362   8.448   4.043
  214POPC   PO4 2931   0.958   7.885   3.955
  214POPC   GL1 2932   1.090   8.080   4.331
  214POPC   GL2 2933   1.462   8.063   4.362
  214POPC   C1A 2934   0.998   8.161   4.775
  214POPC   D2A 2935   0.717   7.997   5.145
  214POPC   C3A 2936   0.887   8.057   5.564
  214POPC   C4A 2937   1.139   7.920   5.938
  214POPC   C1B 2938   1.472   8.397   4.700
  214POPC   C2B 2939   1.321   8.348   5.130
  214POPC   C3B 2940   1.398   8.209   5.554
  214POPC   C4B 2941   1.671   8.358   5.872
  215POPC   NC3 2942   5.119   8.642   3.545
  215POPC   PO4 2943   4.777   8.974   4.017
  215POPC   GL1 2944   4.900   8.859   4.399
  215POPC   GL2 2945   5.203   8.791   4.401
  215POPC   C1A 2946   4.857   8.671   4.789
  215POPC   D2A 2947   4.724   8.833   5.163
  215POPC   C3A 2948   4.721   8.611   5.550
  215POPC   C4A 2949   4.848   8.593   5.969
  215POPC   C1B 2950   5.202   9.168   4.664
  215POPC   C2B 2951   5.073   9.215   5.083
  215POPC   C3B 2952   5.133   8.983   5.457
  215POPC   C4B 2953   5.097   9.028   5.873
  216POPC   NC3 2954   2.870   6.568   3.753
  216POPC   PO4 2955   3.317   7.055   3.913
  216POPC   GL1 2956   3.092   6.843   4.269
  216POPC   GL2 2957   2.782   6.566   4.304
  216POPC   C1A 2958   2.989   6.902   4.711
  216POPC   D2A 2959   2.684   6.625   4.977
  216POPC   C3A 2960   2.711   6.807   5.429
  216POPC   C4A 2961   3.060   6.897   5.756
  216POPC   C1B 2962   2.418   6.387   4.612
  216POPC   C2B 2963   2.245   6.369   5.078
  216POPC   C3B 2964   2.423   6.270   5.517
  216POPC   C4B 2965   2.747   6.454   5.793
  217POPC   NC3 2966   2.845   3.841   3.433
  217POPC   PO4 2967   2.867   4.136   4.054
  217POPC   GL1 2968   2.796   4.324   4.488
  217POPC   GL2 2969   2.569   4.639   4.533
  217POPC   C1A 2970   2.965   4.249   4.954
  217POPC   D2A 2971   3.171   3.984   5.323
  217POPC   C3A 2972   3.050   3.989   5.774
  217POPC   C4A 2973   2.734   4.143   6.113
  217POPC   C1B 2974   2.471   4.366   4.879
  217POPC   C2B 2975   2.505   4.066   5.197
  217POPC   C3B 2976   2.579   4.173   5.624
  217POPC   C4B 2977   2.450   4.605   5.804
  218POPC   NC3 2978   3.093   7.464   4.137
  218POPC   PO4 2979   2.498   7.566   4.174
  218POPC   GL1 2980   2.691   7.313   4.407
  218POPC   GL2 2981   2.613   7.028   4.151
  218POPC   C1A 2982   2.787   7.478   4.827
  218POPC   D2A 2983   2.724   7.832   5.136
  218POPC   C3A 2984   3.007   7.813   5.486
  218POPC   C4A 2985   2.975   7.677   5.915
  218POPC   C1B 2986   2.512   6.908   4.593
  218POPC   C2B 2987   2.523   7.088   5.028
  218POPC   C3B 2988   2.663   7.368   5.352
  218POPC   C4B 2989   2.672   7.269   5.775
  219POPC   NC3 2990   2.517   4.469   4.065
  219POPC   PO4 2991   1.940   4.123   4.154
  219POPC   GL1 2992   2.239   4.206   4.428
  219POPC   GL2 2993   2.075   4.461   4.589
  219POPC   C1A 2994   2.145   3.987   4.812
  219POPC   D2A 2995   1.979   3.922   5.200
  219POPC   C3A 2996   2.236   3.810   5.569
  219POPC   C4A 2997   2.239   3.910   6.057
  219POPC   C1B 2998   1.695   4.246   4.784
  219POPC   C2B 2999   1.563   4.241   5.215
  219POPC   C3B 3000   1.692   4.102   5.581
  219POPC   C4B 3001   2.083   4.269   5.684
  220POPC   NC3 3002   5.548   9.970   4.078
  220POPC   PO4 3003   6.202   0.077   3.857
  220POPC   GL1 3004   6.021   0.057   4.302
  220POPC   GL2 3005   5.851   9.751   4.405
  220POPC   C1A 3006   5.710   0.161   4.669
  220POPC   D2A 3007   5.570   0.039   5.076
  220POPC   C3A 3008   5.810   9.920   5.419
  220POPC   C4A 3009   5.826   9.729   5.830
  220POPC   C1B 3010   5.907   9.691   4.832
  220POPC   C2B 3011   6.021   9.503   5.208
  220POPC   C3B 3012   5.763   9.294   5.528
  220POPC   C4B 3013   5.438   9.392   5.824
  221POPC   NC3 3014   9.759   4.043   3.908
  221POPC   PO4 3015   9.957   4.617   4.008
  221POPC   GL1 3016   9.950   4.271   4.322
  221POPC   GL2 3017   9.633   4.134   4.380
  221POPC   C1A 3018   0.052   4.142   4.745
  221POPC   D2A 3019   9.769   4.124   5.101
  221POPC   C3A 3020   9.823   3.977   5.501
  221POPC   C4A 3021   9.828   4.451   5.620
  221POPC   C1B 3022   9.431   3.986   4.746
  221POPC   C2B 3023   9.303   3.925   5.194
  221POPC   C3B 3024   9.369   4.207   5.555
  221POPC   C4B 3025   9.560   4.145   5.956
  222POPC   NC3 3026   9.343   3.318   4.110
  222POPC   PO4 3027   9.888   3.376   3.738
  222POPC   GL1 3028   9.691   3.648   4.211
  222POPC   GL2 3029   9.948   3.726   4.472
  222POPC   C1A 3030   9.557   3.496   4.684
  222POPC   D2A 3031   9.701   3.611   5.088
  222POPC   C3A 3032   9.540   3.478   5.440
  222POPC   C4A 3033   9.318   3.713   5.728
  222POPC   C1B 3034   0.054   3.404   4.805
  222POPC   C2B 3035   0.080   3.223   5.187
  222POPC   C3B 3036   0.026   3.370   5.579
  222POPC   C4B 3037   9.788   3.592   5.896
  223POPC   NC3 3038   1.222   0.140   4.076
  223POPC   PO4 3039   0.721   0.635   4.169
  223POPC   GL1 3040   1.082   0.422   4.485
  223POPC   GL2 3041   1.452   0.445   4.418
  223POPC   C1A 3042   1.367   0.260   4.873
  223POPC   D2A 3043   1.164   0.220   5.241
  223POPC   C3A 3044   1.271   0.137   5.649
  223POPC   C4A 3045   0.903   0.227   5.901
  223POPC   C1B 3046   1.459   0.739   4.728
  223POPC   C2B 3047   1.218   0.743   5.092
  223POPC   C3B 3048   1.298   0.668   5.521
  223POPC   C4B 3049   1.274   0.573   5.948
  224POPC   NC3 3050   8.047   3.079   3.610
  224POPC   PO4 3051   8.530   3.495   3.854
  224POPC   GL1 3052   8.285   3.499   4.265
  224POPC   GL2 3053   8.079   3.747   4.331
  224POPC   C1A 3054   8.277   3.324   4.694
  224POPC   D2A 3055   8.137   3.400   5.134
  224POPC   C3A 3056   8.170   3.098   5.464
  224POPC   C4A 3057   7.947   3.160   5.855
  224POPC   C1B 3058   7.902   3.653   4.749
  224POPC   C2B 3059   7.739   3.943   5.034
  224POPC   C3B 3060   7.812   3.959   5.462
  224POPC   C4B 3061   8.060   3.622   5.670
  225POPC   NC3 3062   6.529   9.677   3.969
  225POPC   PO4 3063   6.023   9.309   4.254
  225POPC   GL1 3064   6.366   9.553   4.440
  225POPC   GL2 3065   6.526   9.919   4.403
  225POPC   C1A 3066   6.437   9.687   4.853
  225POPC   D2A 3067   6.620   9.612   5.232
  225POPC   C3A 3068   6.334   9.772   5.510
  225POPC   C4A 3069   6.222   9.390   5.719
  225POPC   C1B 3070   6.898   9.883   4.706
  225POPC   C2B 3071   7.080   9.831   5.132
  225POPC   C3B 3072   6.897   9.909   5.543
  225POPC   C4B 3073   6.701   9.588   5.802
  226POPC   NC3 3074   9.904   5.786   3.951
  226POPC   PO4 3075   9.282   5.512   3.781
  226POPC   GL1 3076   9.507   5.504   4.185
  226POPC   GL2 3077   9.453   5.813   4.282
  226POPC   C1A 3078   9.653   5.484   4.656
  226POPC   D2A 3079   9.631   5.664   5.117
  226POPC   C3A 3080   9.690   5.422   5.531
  226POPC   C4A 3081   9.866   5.484   5.948
  226POPC   C1B 3082   9.490   5.976   4.700
  226POPC   C2B 3083   9.863   6.102   4.925
  226POPC   C3B 3084   9.942   6.024   5.345
  226POPC   C4B 3085   9.646   5.916   5.616
  227POPC   NC3 3086   8.976   5.744   4.049
  227POPC   PO4 3087   9.140   6.328   3.877
  227POPC   GL1 3088   9.082   6.152   4.355
  227POPC   GL2 3089   8.873   5.873   4.510
  227POPC   C1A 3090   9.046   6.195   4.834
  227POPC   D2A 3091   9.131   5.797   5.061
  227POPC   C3A 3092   9.152   5.826   5.503
  227POPC   C4A 3093   9.222   6.095   5.861
  227POPC   C1B 3094   8.732   5.566   4.788
  227POPC   C2B 3095   8.746   5.386   5.175
  227POPC   C3B 3096   8.687   5.613   5.535
  227POPC   C4B 3097   8.805   5.824   5.911
  228POPC   NC3 3098   8.490   3.091   4.077
  228POPC   PO4 3099   8.064   2.651   3.825
  228POPC   GL1 3100   8.005   2.742   4.247
  228POPC   GL2 3101   7.978   3.083   4.174
  228POPC   C1A 3102   8.162   2.758   4.702
  228POPC   D2A 3103   8.080   2.672   5.154
  228POPC   C3A 3104   8.433   2.627   5.433
  228POPC   C4A 3105   8.432   2.435   5.875
  228POPC   C1B 3106   7.823   3.114   4.607
  228POPC   C2B 3107   7.688   3.052   5.033
  228POPC   C3B 3108   7.684   2.889   5.463
  228POPC   C4B 3109   7.994   2.674   5.709
  229POPC   NC3 3110   5.956   2.885   3.950
  229POPC   PO4 3111   5.318   3.076   4.110
  229POPC   GL1 3112   5.617   2.817   4.316
  229POPC   GL2 3113   5.644   2.475   4.417
  229POPC   C1A 3114   5.854   2.887   4.702
  229POPC   D2A 3115   6.149   2.812   5.026
  229POPC   C3A 3116   6.148   2.930   5.475
  229POPC   C4A 3117   5.897   2.891   5.858
  229POPC   C1B 3118   5.975   2.370   4.754
  229POPC   C2B 3119   5.958   2.341   5.208
  229POPC   C3B 3120   5.773   2.474   5.577
  229POPC   C4B 3121   5.505   2.481   5.935
  230POPC   NC3 3122   1.264   6.053   3.877
  230POPC   PO4 3123   0.956   5.586   3.781
  230POPC   GL1 3124   0.987   5.836   4.229
  230POPC   GL2 3125   1.347   5.842   4.318
  230POPC   C1A 3126   1.016   6.072   4.668
  230POPC   D2A 3127   0.871   5.935   5.078
  230POPC   C3A 3128   1.048   6.063   5.457
  230POPC   C4A 3129   0.953   6.220   5.845
  230POPC   C1B 3130   1.228   5.613   4.694
  230POPC   C2B 3131   1.149   5.492   5.114
  230POPC   C3B 3132   1.328   5.547   5.490
  230POPC   C4B 3133   1.159   5.725   5.829
  231POPC   NC3 3134   4.928   8.520   4.029
  231POPC   PO4 3135   5.435   7.968   4.025
  231POPC   GL1 3136   5.312   8.293   4.334
  231POPC   GL2 3137   4.984   8.307   4.465
  231POPC   C1A 3138   5.352   8.467   4.792
  231POPC   D2A 3139   5.118   8.502   5.210
  231POPC   C3A 3140   5.255   8.504   5.663
  231POPC   C4A 3141   5.212   8.248   6.060
  231POPC   C1B 3142   4.984   8.113   4.858
  231POPC   C2B 3143   4.907   8.043   5.308
  231POPC   C3B 3144   4.865   8.108   5.729
  231POPC   C4B 3145   5.059   7.770   5.981
  232POPC   NC3 3146   7.076   1.881   3.684
  232POPC   PO4 3147   7.601   2.151   4.044
  232POPC   GL1 3148   7.615   2.089   4.419
  232POPC   GL2 3149   7.673   1.726   4.332
  232POPC   C1A 3150   7.351   2.087   4.793
  232POPC   D2A 3151   7.410   1.981   5.209
  232POPC   C3A 3152   7.131   2.185   5.496
  232POPC   C4A 3153   7.022   2.154   5.977
  232POPC   C1B 3154   7.772   1.805   4.791
  232POPC   C2B 3155   7.820   1.634   5.173
  232POPC   C3B 3156   7.771   1.790   5.559
  232POPC   C4B 3157   7.447   1.933   5.786
  233POPC   NC3 3158   0.473   0.919   3.896
  233POPC   PO4 3159   0.710   1.611   3.953
  233POPC   GL1 3160   0.531   1.286   4.258
  233POPC   GL2 3161   0.176   1.200   4.232
  233POPC   C1A 3162   0.507   1.032   4.666
  233POPC   D2A 3163   0.769   1.010   5.076
  233POPC   C3A 3164   0.757   0.884   5.535
  233POPC   C4A 3165   0.648   1.154   5.909
  233POPC   C1B 3166   0.181   1.431   4.628
  233POPC   C2B 3167   0.431   1.406   5.004
  233POPC   C3B 3168   0.430   1.291   5.438
  233POPC   C4B 3169   0.236   1.444   5.826
  234POPC   NC3 3170   2.967   3.686   4.009
  234POPC   PO4 3171   2.437   3.950   3.638
  234POPC   GL1 3172   2.436   3.819   4.120
  234POPC   GL2 3173   2.525   3.451   4.170
  234POPC   C1A 3174   2.586   3.870   4.600
  234POPC   D2A 3175   2.861   3.746   4.980
  234POPC   C3A 3176   2.732   3.672   5.431
  234POPC   C4A 3177   2.647   3.693   5.877
  234POPC   C1B 3178   2.761   3.397   4.595
  234POPC   C2B 3179   3.024   3.263   4.963
  234POPC   C3B 3180   3.130   3.344   5.397
  234POPC   C4B 3181   2.871   3.267   5.761
  235POPC   NC3 3182   0.318   3.214   3.915
  235POPC   PO4 3183   0.372   2.513   3.888
  235POPC   GL1 3184   0.236   2.826   4.246
  235POPC   GL2 3185   9.982   2.621   4.404
  235POPC   C1A 3186   0.304   2.978   4.716
  235POPC   D2A 3187   0.371   2.793   5.148
  235POPC   C3A 3188   0.254   2.873   5.615
  235POPC   C4A 3189   0.124   3.109   5.998
  235POPC   C1B 3190   0.034   2.461   4.847
  235POPC   C2B 3191   0.346   2.260   5.149
  235POPC   C3B 3192   0.709   2.478   5.379
  235POPC   C4B 3193   0.795   2.807   5.678
  236POPC   NC3 3194   1.883   1.314   4.063
  236POPC   PO4 3195   1.666   0.615   4.011
  236POPC   GL1 3196   1.900   0.839   4.335
  236POPC   GL2 3197   2.208   0.742   4.432
  236POPC   C1A 3198   1.907   0.954   4.791
  236POPC   D2A 3199   1.652   1.021   5.137
  236POPC   C3A 3200   1.795   0.814   5.487
  236POPC   C4A 3201   1.652   0.901   5.876
  236POPC   C1B 3202   2.276   1.203   4.587
  236POPC   C2B 3203   2.135   1.409   4.986
  236POPC   C3B 3204   2.084   1.520   5.428
  236POPC   C4B 3205   2.057   1.189   5.737
  237POPC   NC3 3206   2.708   9.786   3.930
  237POPC   PO4 3207   3.057   9.174   4.105
  237POPC   GL1 3208   2.869   9.406   4.455
  237POPC   GL2 3209   2.592   9.573   4.380
  237POPC   C1A 3210   2.693   9.500   4.905
  237POPC   D2A 3211   2.366   9.365   5.207
  237POPC   C3A 3212   2.511   9.328   5.613
  237POPC   C4A 3213   2.848   9.332   5.829
  237POPC   C1B 3214   2.854   9.886   4.618
  237POPC   C2B 3215   2.908   9.978   5.060
  237POPC   C3B 3216   2.668   9.761   5.390
  237POPC   C4B 3217   2.606   9.797   5.829
  238POPC   NC3 3218   7.805   4.399   3.930
  238POPC   PO4 3219   8.466   4.479   4.019
  238POPC   GL1 3220   8.153   4.605   4.310
  238POPC   GL2 3221   8.079   4.266   4.345
  238POPC   C1A 3222   8.261   4.679   4.750
  238POPC   D2A 3223   8.517   4.395   4.997
  238POPC   C3A 3224   8.444   4.396   5.417
  238POPC   C4A 3225   8.116   4.280   5.717
  238POPC   C1B 3226   8.226   4.050   4.739
  238POPC   C2B 3227   8.266   3.932   5.184
  238POPC   C3B 3228   8.453   3.925   5.598
  238POPC   C4B 3229   8.377   3.896   6.024
  239POPC   NC3 3230   9.506   6.587   3.955
  239POPC   PO4 3231   9.901   6.160   4.225
  239POPC   GL1 3232   9.684   6.514   4.426
  239POPC   GL2 3233   9.816   6.859   4.260
  239POPC   C1A 3234   9.509   6.480   4.850
  239POPC   D2A 3235   9.433   6.199   5.213
  239POPC   C3A 3236   9.517   6.417   5.601
  239POPC   C4A 3237   9.502   6.415   6.096
  239POPC   C1B 3238   9.715   6.959   4.692
  239POPC   C2B 3239   9.730   6.865   5.127
  239POPC   C3B 3240   9.829   7.027   5.523
  239POPC   C4B 3241   9.709   6.817   5.870
  240POPC   NC3 3242   5.619   0.968   4.082
  240POPC   PO4 3243   5.880   1.482   3.686
  240POPC   GL1 3244   5.861   1.480   4.191
  240POPC   GL2 3245   5.567   1.418   4.329
  240POPC   C1A 3246   5.909   1.324   4.674
  240POPC   D2A 3247   6.026   1.020   5.010
  240POPC   C3A 3248   5.815   1.085   5.433
  240POPC   C4A 3249   5.880   0.930   5.859
  240POPC   C1B 3250   5.451   1.593   4.709
  240POPC   C2B 3251   5.486   1.439   5.115
  240POPC   C3B 3252   5.374   1.398   5.542
  240POPC   C4B 3253   5.471   1.220   5.929
  241POPC   NC3 3254   2.125   0.551   3.950
  241POPC   PO4 3255   1.707   0.183   3.587
  241POPC   GL1 3256   1.725   0.131   4.099
  241POPC   GL2 3257   1.953   0.309   4.332
  241POPC   C1A 3258   1.692   9.999   4.578
  241POPC   D2A 3259   1.842   9.954   5.000
  241POPC   C3A 3260   1.702   0.284   5.309
  241POPC   C4A 3261   1.725   0.361   5.768
  241POPC   C1B 3262   1.882   0.437   4.763
  241POPC   C2B 3263   2.108   0.606   5.119
  241POPC   C3B 3264   2.258   0.566   5.535
  241POPC   C4B 3265   2.092   0.679   5.938
  242POPC   NC3 3266   6.426   3.243   3.391
  242POPC   PO4 3267   6.253   3.404   3.978
  242POPC   GL1 3268   6.541   3.252   4.339
  242POPC   GL2 3269   6.923   3.189   4.291
  242POPC   C1A 3270   6.380   3.208   4.756
  242POPC   D2A 3271   6.176   3.321   5.140
  242POPC   C3A 3272   6.405   3.375   5.531
  242POPC   C4A 3273   6.250   3.577   5.933
  242POPC   C1B 3274   6.893   3.389   4.729
  242POPC   C2B 3275   6.845   3.448   5.191
  242POPC   C3B 3276   6.905   3.402   5.645
  242POPC   C4B 3277   6.847   3.158   6.023
  243POPC   NC3 3278   3.490   0.395   3.796
  243POPC   PO4 3279   3.195   0.984   3.950
  243POPC   GL1 3280   3.451   0.700   4.251
  243POPC   GL2 3281   3.634   0.368   4.269
  243POPC   C1A 3282   3.465   0.543   4.715
  243POPC   D2A 3283   3.425   0.142   4.987
  243POPC   C3A 3284   3.236   0.206   5.416
  243POPC   C4A 3285   3.368   0.444   5.786
  243POPC   C1B 3286   3.886   0.284   4.645
  243POPC   C2B 3287   3.836   0.469   5.066
  243POPC   C3B 3288   3.756   0.287   5.455
  243POPC   C4B 3289   3.887   0.312   5.871
  244POPC   NC3 3290   8.715   1.737   3.946
  244POPC   PO4 3291   9.184   2.100   3.715
  244POPC   GL1 3292   9.172   2.124   4.266
  244POPC   GL2 3293   9.007   1.829   4.354
  244POPC   C1A 3294   8.935   2.258   4.714
  244POPC   D2A 3295   8.546   2.232   5.052
  244POPC   C3A 3296   8.655   2.144   5.516
  244POPC   C4A 3297   8.853   2.138   5.972
  244POPC   C1B 3298   9.238   1.843   4.724
  244POPC   C2B 3299   9.198   2.048   5.137
  244POPC   C3B 3300   9.074   1.847   5.532
  244POPC   C4B 3301   8.706   1.686   5.772
  245POPC   NC3 3302   0.331   9.873   4.005
  245POPC   PO4 3303   0.728   9.361   3.878
  245POPC   GL1 3304   0.592   9.470   4.279
  245POPC   GL2 3305   0.320   9.308   4.413
  245POPC   C1A 3306   0.645   9.530   4.742
  245POPC   D2A 3307   0.513   9.567   5.162
  245POPC   C3A 3308   0.779   9.385   5.481
  245POPC   C4A 3309   0.469   9.314   5.798
  245POPC   C1B 3310   0.135   9.574   4.764
  245POPC   C2B 3311   0.075   9.831   5.132
  245POPC   C3B 3312   0.287   9.819   5.545
  245POPC   C4B 3313   0.126   9.665   5.915
  246POPC   NC3 3314   7.306   8.724   3.939
  246POPC   PO4 3315   6.766   9.295   4.118
  246POPC   GL1 3316   7.154   9.107   4.328
  246POPC   GL2 3317   7.476   8.970   4.357
  246POPC   C1A 3318   7.131   8.890   4.735
  246POPC   D2A 3319   6.922   8.986   5.134
  246POPC   C3A 3320   7.170   8.942   5.516
  246POPC   C4A 3321   7.011   9.105   5.927
  246POPC   C1B 3322   7.647   8.944   4.783
  246POPC   C2B 3323   7.629   8.873   5.238
  246POPC   C3B 3324   7.524   8.555   5.559
  246POPC   C4B 3325   7.246   8.536   5.853
  247POPC   NC3 3326   5.707   7.602   3.987
  247POPC   PO4 3327   6.129   7.067   3.967
  247POPC   GL1 3328   6.050   7.371   4.297
  247POPC   GL2 3329   6.004   7.077   4.477
  247POPC   C1A 3330   5.917   7.560   4.741
  247POPC   D2A 3331   5.879   7.818   5.184
  247POPC   C3A 3332   5.861   7.653   5.629
  247POPC   C4A 3333   5.962   7.574   6.093
  247POPC   C1B 3334   6.215   7.150   4.879
  247POPC   C2B 3335   6.136   7.326   5.287
  247POPC   C3B 3336   6.106   7.200   5.723
  247POPC   C4B 3337   5.832   7.072   6.092
  248POPC   NC3 3338   2.749   0.881   3.814
  248POPC   PO4 3339   2.584   0.233   3.908
  248POPC   GL1 3340   2.928   0.525   4.154
  248POPC   GL2 3341   3.128   0.288   4.374
  248POPC   C1A 3342   3.046   0.773   4.572
  248POPC   D2A 3343   3.048   0.558   5.015
  248POPC   C3A 3344   2.799   0.720   5.399
  248POPC   C4A 3345   2.894   0.650   5.882
  248POPC   C1B 3346   2.727   0.369   4.630
  248POPC   C2B 3347   2.574   0.384   5.078
  248POPC   C3B 3348   2.695   0.246   5.518
  248POPC   C4B 3349   2.497   0.312   5.913
  249POPC   NC3 3350   8.790   6.718   3.926
  249POPC   PO4 3351   8.576   6.111   4.158
  249POPC   GL1 3352   8.728   6.516   4.388
  249POPC   GL2 3353   9.108   6.650   4.330
  249POPC   C1A 3354   8.782   6.653   4.813
  249POPC   D2A 3355   9.082   6.602   5.158
  249POPC   C3A 3356   8.965   6.330   5.478
  249POPC   C4A 3357   8.779   6.323   5.879
  249POPC   C1B 3358   9.217   6.870   4.703
  249POPC   C2B 3359   9.259   7.074   5.123
  249POPC   C3B 3360   9.329   6.903   5.528
  249POPC   C4B 3361   9.139   6.662   5.847
  250POPC   NC3 3362   4.816   9.515   3.926
  250POPC   PO4 3363   5.509   9.600   3.799
  250POPC   GL1 3364   5.353   9.546   4.275
  250POPC   GL2 3365   5.010   9.527   4.378
  250POPC   C1A 3366   5.386   9.690   4.711
  250POPC   D2A 3367   5.498   9.523   5.130
  250POPC   C3A 3368   5.309   9.755   5.476
  250POPC   C4A 3369   5.296   9.865   5.923
  250POPC   C1B 3370   4.751   9.444   4.733
  250POPC   C2B 3371   4.864   9.696   5.082
  250POPC   C3B 3372   4.783   9.769   5.497
  250POPC   C4B 3373   4.913   9.526   5.848
  251POPC   NC3 3374   7.204   1.925   4.172
  251POPC   PO4 3375   6.576   1.878   3.837
  251POPC   GL1 3376   6.653   1.776   4.243
  251POPC   GL2 3377   6.314   1.702   4.317
  251POPC   C1A 3378   6.809   1.736   4.681
  251POPC   D2A 3379   6.860   2.016   5.053
  251POPC   C3A 3380   6.837   1.762   5.425
  251POPC   C4A 3381   6.965   1.644   5.840
  251POPC   C1B 3382   6.394   2.039   4.621
  251POPC   C2B 3383   6.329   2.018   5.079
  251POPC   C3B 3384   6.448   2.062   5.516
  251POPC   C4B 3385   6.476   1.782   5.861
  252POPC   NC3 3386   1.551   2.012   3.868
  252POPC   PO4 3387   1.435   1.436   4.019
  252POPC   GL1 3388   1.423   1.763   4.343
  252POPC   GL2 3389   1.202   2.041   4.249
  252POPC   C1A 3390   1.344   1.828   4.814
  252POPC   D2A 3391   1.083   1.706   5.209
  252POPC   C3A 3392   1.213   1.708   5.664
  252POPC   C4A 3393   1.491   1.834   6.023
  252POPC   C1B 3394   1.194   2.309   4.607
  252POPC   C2B 3395   1.029   2.219   5.021
  252POPC   C3B 3396   1.259   2.173   5.394
  252POPC   C4B 3397   1.147   2.391   5.745
  253POPC   NC3 3398   0.169   3.661   4.027
  253POPC   PO4 3399   0.777   3.243   3.884
  253POPC   GL1 3400   0.675   3.212   4.305
  253POPC   GL2 3401   0.399   3.405   4.420
  253POPC   C1A 3402   0.760   3.252   4.731
  253POPC   D2A 3403   0.532   3.416   5.062
  253POPC   C3A 3404   0.567   3.205   5.411
  253POPC   C4A 3405   0.606   3.270   5.839
  253POPC   C1B 3406   0.402   3.760   4.715
  253POPC   C2B 3407   0.180   3.793   5.109
  253POPC   C3B 3408   0.375   3.722   5.480
  253POPC   C4B 3409   0.308   3.672   5.901
  254POPC   NC3 3410   3.898   9.720   3.588
  254POPC   PO4 3411   4.359   9.404   3.816
  254POPC   GL1 3412   4.446   9.359   4.261
  254POPC   GL2 3413   4.526   9.711   4.346
  254POPC   C1A 3414   4.219   9.447   4.676
  254POPC   D2A 3415   4.341   9.611   5.117
  254POPC   C3A 3416   4.107   9.366   5.469
  254POPC   C4A 3417   3.835   9.545   5.814
  254POPC   C1B 3418   4.282   9.954   4.684
  254POPC   C2B 3419   4.035   0.008   5.082
  254POPC   C3B 3420   4.096   9.888   5.523
  254POPC   C4B 3421   4.394   9.638   5.805
  255POPC   NC3 3422   2.589   9.113   4.113
  255POPC   PO4 3423   2.741   8.486   3.867
  255POPC   GL1 3424   2.599   8.615   4.280
  255POPC   GL2 3425   2.905   8.781   4.420
  255POPC   C1A 3426   2.451   8.714   4.710
  255POPC   D2A 3427   2.359   8.550   5.141
  255POPC   C3A 3428   2.442   8.847   5.443
  255POPC   C4A 3429   2.803   8.834   5.714
  255POPC   C1B 3430   2.846   9.036   4.785
  255POPC   C2B 3431   2.853   9.069   5.215
  255POPC   C3B 3432   3.111   8.708   5.310
  255POPC   C4B 3433   3.231   8.534   5.700
  256POPC   NC3 3434   0.327   9.082   3.916
  256POPC   PO4 3435   0.993   8.738   4.039
  256POPC   GL1 3436   0.678   8.932   4.261
  256POPC   GL2 3437   0.424   8.691   4.236
  256POPC   C1A 3438   0.539   8.944   4.684
  256POPC   D2A 3439   0.717   9.106   5.034
  256POPC   C3A 3440   0.555   8.937   5.403
  256POPC   C4A 3441   0.731   8.857   5.800
  256POPC   C1B 3442   0.141   8.609   4.613
  256POPC   C2B 3443   0.232   8.664   5.050
  256POPC   C3B 3444   0.046   8.800   5.430
  256POPC   C4B 3445   0.198   8.906   5.822
  257POPC   NC3 3446   6.321   1.322   3.818
  257POPC   PO4 3447   6.776   0.763   3.887
  257POPC   GL1 3448   6.851   1.057   4.235
  257POPC   GL2 3449   6.574   1.261   4.261
  257POPC   C1A 3450   6.926   1.209   4.673
  257POPC   D2A 3451   7.024   1.066   5.116
  257POPC   C3A 3452   6.872   1.253   5.505
  257POPC   C4A 3453   6.542   1.089   5.796
  257POPC   C1B 3454   6.430   1.357   4.666
  257POPC   C2B 3455   6.614   1.421   5.069
  257POPC   C3B 3456   6.396   1.465   5.461
  257POPC   C4B 3457   6.106   1.395   5.809
  258POPC   NC3 3458   5.205   1.425   3.598
  258POPC   PO4 3459   4.789   0.923   3.891
  258POPC   GL1 3460   5.115   1.000   4.286
  258POPC   GL2 3461   4.988   1.272   4.475
  258POPC   C1A 3462   5.418   1.064   4.678
  258POPC   D2A 3463   5.417   0.948   5.119
  258POPC   C3A 3464   5.041   1.044   5.347
  258POPC   C4A 3465   4.942   1.039   5.790
  258POPC   C1B 3466   5.015   1.291   4.893
  258POPC   C2B 3467   4.748   1.489   5.166
  258POPC   C3B 3468   4.866   1.501   5.580
  258POPC   C4B 3469   5.049   1.513   5.995
  259POPC   NC3 3470   6.430   7.423   3.947
  259POPC   PO4 3471   7.076   7.387   3.965
  259POPC   GL1 3472   7.031   7.418   4.382
  259POPC   GL2 3473   6.744   7.558   4.328
  259POPC   C1A 3474   6.873   7.299   4.765
  259POPC   D2A 3475   6.820   7.507   5.137
  259POPC   C3A 3476   6.640   7.336   5.477
  259POPC   C4A 3477   6.853   7.152   5.791
  259POPC   C1B 3478   6.423   7.520   4.613
  259POPC   C2B 3479   6.355   7.703   5.006
  259POPC   C3B 3480   6.339   7.757   5.449
  259POPC   C4B 3481   6.400   7.607   5.843
  260POPC   NC3 3482   6.066   1.840   3.892
  260POPC   PO4 3483   6.072   2.423   4.047
  260POPC   GL1 3484   5.958   2.077   4.326
  260POPC   GL2 3485   5.644   1.936   4.316
  260POPC   C1A 3486   5.945   1.830   4.713
  260POPC   D2A 3487   5.760   1.860   5.115
  260POPC   C3A 3488   5.986   1.790   5.467
  260POPC   C4A 3489   6.020   2.065   5.781
  260POPC   C1B 3490   5.510   2.110   4.754
  260POPC   C2B 3491   5.412   2.238   5.210
  260POPC   C3B 3492   5.481   2.028   5.624
  260POPC   C4B 3493   5.664   1.688   5.889
  261POPC   NC3 3494   0.729   8.316   4.012
  261POPC   PO4 3495   0.236   7.896   3.881
  261POPC   GL1 3496   0.466   7.913   4.257
  261POPC   GL2 3497   0.298   8.209   4.329
  261POPC   C1A 3498   0.474   7.917   4.706
  261POPC   D2A 3499   0.229   8.149   5.029
  261POPC   C3A 3500   0.248   7.982   5.469
  261POPC   C4A 3501   0.455   8.055   5.885
  261POPC   C1B 3502   0.593   8.420   4.659
  261POPC   C2B 3503   0.712   8.507   5.100
  261POPC   C3B 3504   0.506   8.444   5.529
  261POPC   C4B 3505   0.105   8.404   5.775
  262POPC   NC3 3506   9.927   8.241   3.918
  262POPC   PO4 3507   9.408   7.766   3.806
  262POPC   GL1 3508   9.577   7.959   4.179
  262POPC   GL2 3509   9.908   7.831   4.266
  262POPC   C1A 3510   9.451   7.857   4.633
  262POPC   D2A 3511   9.663   7.922   5.049
  262POPC   C3A 3512   9.470   7.914   5.483
  262POPC   C4A 3513   9.749   7.868   5.858
  262POPC   C1B 3514   9.843   8.184   4.584
  262POPC   C2B 3515   9.798   8.423   4.961
  262POPC   C3B 3516   9.816   8.315   5.373
  262POPC   C4B 3517   9.601   8.349   5.770
  263POPC   NC3 3518   9.625   0.622   4.069
  263POPC   PO4 3519   0.041   0.133   3.741
  263POPC   GL1 3520   9.889   0.203   4.209
  263POPC   GL2 3521   9.567   0.185   4.402
  263POPC   C1A 3522   9.982   0.169   4.682
  263POPC   D2A 3523   9.809   0.281   5.120
  263POPC   C3A 3524   9.993   0.260   5.555
  263POPC   C4A 3525   0.046   0.433   6.013
  263POPC   C1B 3526   9.644   0.552   4.704
  263POPC   C2B 3527   9.426   0.690   5.072
  263POPC   C3B 3528   9.674   0.708   5.435
  263POPC   C4B 3529   9.595   0.478   5.807
  264POPC   NC3 3530   4.268   8.964   3.933
  264POPC   PO4 3531   4.544   8.359   3.803
  264POPC   GL1 3532   4.456   8.621   4.260
  264POPC   GL2 3533   4.103   8.766   4.375
  264POPC   C1A 3534   4.483   8.995   4.622
  264POPC   D2A 3535   4.327   9.118   5.044
  264POPC   C3A 3536   4.620   9.270   5.395
  264POPC   C4A 3537   4.615   9.099   5.812
  264POPC   C1B 3538   4.211   8.639   4.836
  264POPC   C2B 3539   4.253   8.676   5.296
  264POPC   C3B 3540   4.202   8.827   5.700
  264POPC   C4B 3541   3.958   8.788   6.069
  265POPC   NC3 3542   8.460   5.836   3.814
  265POPC   PO4 3543   7.815   5.815   3.968
  265POPC   GL1 3544   7.989   5.611   4.337
  265POPC   GL2 3545   8.328   5.761   4.418
  265POPC   C1A 3546   8.056   5.584   4.812
  265POPC   D2A 3547   8.253   5.761   5.197
  265POPC   C3A 3548   7.988   5.778   5.592
  265POPC   C4A 3549   7.555   5.771   5.824
  265POPC   C1B 3550   8.479   6.030   4.796
  265POPC   C2B 3551   8.694   6.003   5.193
  265POPC   C3B 3552   8.456   6.077   5.578
  265POPC   C4B 3553   8.308   5.891   5.972
  266POPC   NC3 3554   8.756   0.439   3.794
  266POPC   PO4 3555   9.339   0.286   3.965
  266POPC   GL1 3556   9.069   0.500   4.223
  266POPC   GL2 3557   8.744   0.354   4.327
  266POPC   C1A 3558   9.155   0.469   4.645
  266POPC   D2A 3559   9.343   0.177   4.921
  266POPC   C3A 3560   9.356   0.254   5.381
  266POPC   C4A 3561   9.119   0.489   5.665
  266POPC   C1B 3562   8.677   0.548   4.766
  266POPC   C2B 3563   8.926   0.440   5.105
  266POPC   C3B 3564   8.718   0.324   5.429
  266POPC   C4B 3565   8.510   0.629   5.618
  267POPC   NC3 3566   6.540   2.357   3.915
  267POPC   PO4 3567   6.270   2.862   3.608
  267POPC   GL1 3568   6.435   2.830   4.082
  267POPC   GL2 3569   6.745   2.695   4.259
  267POPC   C1A 3570   6.324   2.734   4.543
  267POPC   D2A 3571   6.515   2.471   4.875
  267POPC   C3A 3572   6.430   2.521   5.313
  267POPC   C4A 3573   6.266   2.521   5.757
  267POPC   C1B 3574   6.777   2.892   4.699
  267POPC   C2B 3575   6.625   2.989   5.146
  267POPC   C3B 3576   6.682   2.897   5.582
  267POPC   C4B 3577   6.763   2.464   5.679
  268POPC   NC3 3578   1.095   9.239   4.124
  268POPC   PO4 3579   1.565   9.468   3.666
  268POPC   GL1 3580   1.569   9.205   4.228
  268POPC   GL2 3581   1.408   8.868   4.325
  268POPC   C1A 3582   1.400   9.214   4.687
  268POPC   D2A 3583   1.200   9.305   5.047
  268POPC   C3A 3584   1.453   9.237   5.373
  268POPC   C4A 3585   1.214   9.074   5.679
  268POPC   C1B 3586   1.108   8.785   4.712
  268POPC   C2B 3587   1.105   8.821   5.173
  268POPC   C3B 3588   1.027   8.570   5.513
  268POPC   C4B 3589   1.240   8.615   5.875
  269POPC   NC3 3590   1.739   2.701   3.989
  269POPC   PO4 3591   2.351   2.447   3.852
  269POPC   GL1 3592   2.195   2.468   4.287
  269POPC   GL2 3593   2.170   2.812   4.287
  269POPC   C1A 3594   2.229   2.575   4.778
  269POPC   D2A 3595   2.361   2.647   5.261
  269POPC   C3A 3596   2.126   2.552   5.677
  269POPC   C4A 3597   2.269   2.418   6.130
  269POPC   C1B 3598   1.980   3.023   4.646
  269POPC   C2B 3599   1.991   2.949   5.090
  269POPC   C3B 3600   1.976   3.004   5.524
  269POPC   C4B 3601   1.749   3.190   5.841
  270POPC   NC3 3602   0.491   6.660   3.899
  270POPC   PO4 3603   0.170   6.079   3.702
  270POPC   GL1 3604   0.390   6.202   4.130
  270POPC   GL2 3605   0.241   6.526   4.317
  270POPC   C1A 3606   0.518   6.181   4.583
  270POPC   D2A 3607   0.585   6.459   4.963
  270POPC   C3A 3608   0.660   6.426   5.429
  270POPC   C4A 3609   0.464   6.349   5.860
  270POPC   C1B 3610   0.077   6.552   4.755
  270POPC   C2B 3611   0.100   6.488   5.203
  270POPC   C3B 3612   0.219   6.699   5.576
  270POPC   C4B 3613   0.185   6.803   6.025
  271POPC   NC3 3614   9.801   7.403   3.893
  271POPC   PO4 3615   9.261   6.989   3.975
  271POPC   GL1 3616   9.384   7.158   4.324
  271POPC   GL2 3617   9.437   7.477   4.243
  271POPC   C1A 3618   9.301   7.370   4.722
  271POPC   D2A 3619   9.250   7.606   5.108
  271POPC   C3A 3620   9.257   7.412   5.517
  271POPC   C4A 3621   9.515   7.285   5.881
  271POPC   C1B 3622   9.772   7.452   4.570
  271POPC   C2B 3623   9.718   7.384   5.032
  271POPC   C3B 3624   9.799   7.530   5.458
  271POPC   C4B 3625   0.015   7.400   5.862
  272POPC   NC3 3626   7.023   0.373   3.981
  272POPC   PO4 3627   7.553   0.656   4.208
  272POPC   GL1 3628   7.172   0.675   4.378
  272POPC   GL2 3629   7.108   0.296   4.470
  272POPC   C1A 3630   6.985   0.688   4.764
  272POPC   D2A 3631   7.065   0.325   4.994
  272POPC   C3A 3632   7.183   0.340   5.406
  272POPC   C4A 3633   7.045   0.330   5.853
  272POPC   C1B 3634   7.506   0.293   4.728
  272POPC   C2B 3635   7.870   0.203   4.979
  272POPC   C3B 3636   7.713   0.197   5.394
  272POPC   C4B 3637   7.533   0.495   5.732
  273POPC   NC3 3638   9.612   9.929   3.882
  273POPC   PO4 3639   0.013   9.429   4.036
  273POPC   GL1 3640   9.899   9.714   4.351
  273POPC   GL2 3641   9.585   9.658   4.311
  273POPC   C1A 3642   9.669   9.803   4.788
  273POPC   D2A 3643   9.483   9.771   5.199
  273POPC   C3A 3644   9.758   9.772   5.546
  273POPC   C4A 3645   9.724   9.997   5.929
  273POPC   C1B 3646   9.517   9.348   4.656
  273POPC   C2B 3647   9.687   9.305   5.076
  273POPC   C3B 3648   9.467   9.330   5.470
  273POPC   C4B 3649   9.341   9.644   5.828
  274POPC   NC3 3650   0.556   2.066   3.945
  274POPC   PO4 3651   0.571   2.487   4.415
  274POPC   GL1 3652   0.699   2.049   4.453
  274POPC   GL2 3653   0.436   1.795   4.361
  274POPC   C1A 3654   0.710   1.815   4.842
  274POPC   D2A 3655   0.567   1.803   5.290
  274POPC   C3A 3656   0.798   2.036   5.588
  274POPC   C4A 3657   0.664   2.342   5.942
  274POPC   C1B 3658   0.201   1.952   4.710
  274POPC   C2B 3659   0.033   1.724   5.043
  274POPC   C3B 3660   0.077   1.765   5.457
  274POPC   C4B 3661   0.242   2.127   5.688
  275POPC   NC3 3662   9.542   1.062   3.748
  275POPC   PO4 3663   8.953   0.861   3.761
  275POPC   GL1 3664   9.268   0.971   4.172
  275POPC   GL2 3665   9.643   1.113   4.238
  275POPC   C1A 3666   9.321   1.195   4.611
  275POPC   D2A 3667   9.581   1.176   4.982
  275POPC   C3A 3668   9.390   1.183   5.383
  275POPC   C4A 3669   9.374   0.947   5.766
  275POPC   C1B 3670   9.901   0.992   4.607
  275POPC   C2B 3671   0.077   1.034   5.039
  275POPC   C3B 3672   9.911   1.260   5.411
  275POPC   C4B 3673   9.771   1.247   5.851
  276POPC   NC3 3674   3.668   1.164   3.964
  276POPC   PO4 3675   3.172   1.662   4.112
  276POPC   GL1 3676   3.503   1.498   4.388
  276POPC   GL2 3677   3.331   1.193   4.385
  276POPC   C1A 3678   3.625   1.451   4.853
  276POPC   D2A 3679   3.410   1.439   5.280
  276POPC   C3A 3680   3.538   1.281   5.678
  276POPC   C4A 3681   3.345   1.388   6.100
  276POPC   C1B 3682   3.683   1.005   4.597
  276POPC   C2B 3683   3.670   0.954   5.026
  276POPC   C3B 3684   3.509   0.749   5.386
  276POPC   C4B 3685   3.745   0.788   5.747
  277POPC   NC3 3686   2.379   2.912   3.804
  277POPC   PO4 3687   2.991   3.205   3.980
  277POPC   GL1 3688   2.684   2.952   4.205
  277POPC   GL2 3689   2.753   2.603   4.113
  277POPC   C1A 3690   2.516   2.963   4.625
  277POPC   D2A 3691   2.777   2.796   4.955
  277POPC   C3A 3692   2.755   2.987   5.339
  277POPC   C4A 3693   2.484   2.938   5.686
  277POPC   C1B 3694   2.671   2.477   4.543
  277POPC   C2B 3695   2.629   2.299   4.972
  277POPC   C3B 3696   2.838   2.449   5.362
  277POPC   C4B 3697   2.624   2.446   5.753
  278POPC   NC3 3698   0.510   0.412   3.818
  278POPC   PO4 3699   9.965   0.892   3.874
  278POPC   GL1 3700   0.172   0.648   4.254
  278POPC   GL2 3701   0.373   0.295   4.309
  278POPC   C1A 3702   0.222   0.607   4.730
  278POPC   D2A 3703   0.413   0.631   5.162
  278POPC   C3A 3704   0.246   0.743   5.584
  278POPC   C4A 3705   0.519   0.615   5.955
  278POPC   C1B 3706   0.450   0.008   4.675
  278POPC   C2B 3707   0.528   0.097   5.129
  278POPC   C3B 3708   0.505   0.278   5.572
  278POPC   C4B 3709   0.423   0.099   6.025
  279POPC   NC3 3710   4.085   2.724   3.924
  279POPC   PO4 3711   4.586   2.289   3.950
  279POPC   GL1 3712   4.582   2.604   4.279
  279POPC   GL2 3713   4.252   2.648   4.385
  279POPC   C1A 3714   4.594   2.538   4.752
  279POPC   D2A 3715   4.337   2.403   5.094
  279POPC   C3A 3716   4.448   2.513   5.509
  279POPC   C4A 3717   4.585   2.298   5.870
  279POPC   C1B 3718   4.077   2.738   4.763
  279POPC   C2B 3719   3.833   2.731   5.136
  279POPC   C3B 3720   3.746   2.672   5.543
  279POPC   C4B 3721   4.060   2.564   5.849
  280POPC   NC3 3722   4.285   1.943   3.856
  280POPC   PO4 3723   4.876   1.735   3.719
  280POPC   GL1 3724   4.654   1.840   4.197
  280POPC   GL2 3725   4.674   2.123   4.428
  280POPC   C1A 3726   4.458   1.716   4.631
  280POPC   D2A 3727   4.597   1.975   4.994
  280POPC   C3A 3728   4.368   2.000   5.392
  280POPC   C4A 3729   4.228   1.915   5.806
  280POPC   C1B 3730   4.242   2.196   4.617
  280POPC   C2B 3731   3.924   2.184   4.962
  280POPC   C3B 3732   3.885   2.193   5.429
  280POPC   C4B 3733   3.761   2.155   5.877
  281POPC   NC3 3734   3.524   9.333   4.112
  281POPC   PO4 3735   3.523   9.929   3.751
  281POPC   GL1 3736   3.577   9.854   4.217
  281POPC   GL2 3737   3.286   9.717   4.388
  281POPC   C1A 3738   3.761   9.750   4.655
  281POPC   D2A 3739   3.798   9.527   5.062
  281POPC   C3A 3740   3.584   9.777   5.392
  281POPC   C4A 3741   3.530   9.960   5.813
  281POPC   C1B 3742   3.262   9.614   4.846
  281POPC   C2B 3743   3.114   9.541   5.271
  281POPC   C3B 3744   3.104   9.740   5.675
  281POPC   C4B 3745   3.050   9.686   6.143
  282POPC   NC3 3746   8.705   5.018   3.531
  282POPC   PO4 3747   8.898   5.294   4.114
  282POPC   GL1 3748   9.099   5.398   4.455
  282POPC   GL2 3749   9.189   5.057   4.453
  282POPC   C1A 3750   9.206   5.330   4.875
  282POPC   D2A 3751   9.135   5.029   5.177
  282POPC   C3A 3752   9.142   5.291   5.522
  282POPC   C4A 3753   8.931   5.339   5.890
  282POPC   C1B 3754   8.804   5.022   4.758
  282POPC   C2B 3755   8.660   4.856   5.174
  282POPC   C3B 3756   8.673   5.012   5.597
  282POPC   C4B 3757   8.633   4.964   6.097
  283POPC   NC3 3758   3.541   6.625   4.003
  283POPC   PO4 3759   3.055   6.161   3.939
  283POPC   GL1 3760   3.258   6.353   4.338
  283POPC   GL2 3761   3.531   6.612   4.489
  283POPC   C1A 3762   3.162   6.443   4.777
  283POPC   D2A 3763   3.125   6.673   5.184
  283POPC   C3A 3764   3.224   6.426   5.617
  283POPC   C4A 3765   3.303   6.508   6.053
  283POPC   C1B 3766   3.594   6.706   4.928
  283POPC   C2B 3767   3.564   6.698   5.371
  283POPC   C3B 3768   3.698   6.662   5.765
  283POPC   C4B 3769   3.909   6.680   6.156
  284POPC   NC3 3770   1.107   9.569   3.696
  284POPC   PO4 3771   0.782   0.063   3.947
  284POPC   GL1 3772   0.871   9.898   4.366
  284POPC   GL2 3773   1.073   9.591   4.510
  284POPC   C1A 3774   0.941   9.998   4.790
  284POPC   D2A 3775   0.972   9.750   5.131
  284POPC   C3A 3776   0.833   9.897   5.490
  284POPC   C4A 3777   0.726   9.739   5.852
  284POPC   C1B 3778   1.384   9.719   4.837
  284POPC   C2B 3779   1.453   9.763   5.294
  284POPC   C3B 3780   1.229   9.616   5.684
  284POPC   C4B 3781   1.293   9.607   6.154
  285POPC   NC3 3782   4.389   0.818   3.685
  285POPC   PO4 3783   3.810   0.726   3.843
  285POPC   GL1 3784   4.072   0.631   4.247
  285POPC   GL2 3785   4.463   0.635   4.211
  285POPC   C1A 3786   4.131   0.740   4.713
  285POPC   D2A 3787   4.335   0.585   5.112
  285POPC   C3A 3788   4.172   0.612   5.542
  285POPC   C4A 3789   4.199   0.705   6.028
  285POPC   C1B 3790   4.583   0.462   4.647
  285POPC   C2B 3791   4.619   0.159   5.015
  285POPC   C3B 3792   4.518   0.215   5.447
  285POPC   C4B 3793   4.361   0.168   5.861
  286POPC   NC3 3794   2.297   8.270   3.735
  286POPC   PO4 3795   1.764   8.666   3.986
  286POPC   GL1 3796   2.049   8.489   4.309
  286POPC   GL2 3797   1.967   8.171   4.413
  286POPC   C1A 3798   1.990   8.496   4.782
  286POPC   D2A 3799   1.845   8.382   5.187
  286POPC   C3A 3800   2.016   8.570   5.559
  286POPC   C4A 3801   2.108   8.649   6.024
  286POPC   C1B 3802   1.764   7.984   4.792
  286POPC   C2B 3803   1.673   7.904   5.221
  286POPC   C3B 3804   1.761   7.840   5.627
  286POPC   C4B 3805   2.076   8.082   5.804
  287W        W 3806   8.814   1.882   0.249
  288W        W 3807   4.571   0.976  10.767
  289W        W 3808   8.969   1.351   2.265
  290W        W 3809   0.011   7.990   1.687
  291W        W 3810   8.848   3.427   9.153
  292W        W 3811   7.150   7.392   9.524
  293W        W 3812   0.694   0.198   0.945
  294W        W 3813   3.481   7.645  11.170
  295W        W 3814   1.683   8.393   1.943
  296W        W 3815   8.603   1.699   3.304
  297W        W 3816   6.947   2.009  11.728
  298W        W 3817   2.166   0.759   8.930
  299W        W 3818   7.813   3.950   3.647
  300W        W 3819   4.681   3.652   8.909
  301W        W 3820   1.203   0.965   9.528
  302W        W 3821   5.694   6.342   2.472
  303W        W 3822   6.721   9.082  11.838
  304W        W 3823   8.694   2.637   2.455
  305W        W 3824   6.178   8.235   9.239
  306W        W 3825   4.566   6.770   9.499
  307W        W 3826   4.228   6.797   3.633
  308W        W 3827   5.130   4.615   0.919
  309W        W 3828   0.439   8.516   2.623
  310W        W 3829   7.267   6.010   1.933
  311W        W 3830   8.098   6.338  10.501
  312W        W 3831   4.485   1.862   0.435
  313W        W 3832   6.146   2.706  10.918
  314W        W 3833   2.805   3.338   3.523
  315W        W 3834   6.468   3.023  11.845
  316W        W 3835   6.920   6.915   2.748
  317W        W 3836   8.250   2.020   3.532
  318W        W 3837   5.488   0.554   1.680
  319W        W 3838   4.959   5.204  10.478
  320W        W 3839   2.760   4.698   9.469
  321W        W 3840   5.448   2.279  11.438
  322W        W 3841   2.268   9.330  10.382
  323W        W 3842   9.297   8.887   3.749
  324W        W 3843   3.676   0.526   3.303
  325W        W 3844   6.380   8.388   1.269
  326W        W 3845   8.748   4.496  11.076
  327W        W 3846   4.569   4.155  11.807
  328W        W 3847   9.504   0.672   9.550
  329W        W 3848   5.232   6.602  11.822
  330W        W 3849   8.722   2.203   3.329
  331W        W 3850   6.992   9.231   9.973
  332W        W 3851   3.357   4.602   0.958
  333W        W 3852   9.289   5.206   9.595
  334W        W 3853   5.801   7.939   3.614
  335W        W 3854   2.643   6.951   3.389
  336W        W 3855   2.654   6.679   9.565
  337W        W 3856   5.232   1.211   2.319
  338W        W 3857   1.405   2.099  10.574
  339W        W 3858   4.598   5.095   9.497
  340W        W 3859   0.450   5.932   1.681
  341W        W 3860   8.334   8.495   8.783
  342W        W 3861   6.903   2.799   0.127
  343W        W 3862   3.562   9.103   0.329
  344W        W 3863   4.090   1.869   9.463
  345W        W 3864   1.541   5.166   3.479
  346W        W 3865   0.362   3.425   2.222
  347W        W 3866   9.474   6.261   0.286
  348W        W 3867   3.094   4.758   8.639
  349W        W 3868   3.394   4.246   2.800
  350W        W 3869   2.894   0.440  11.523
  351W        W 3870   5.378   9.881   9.697
  352W        W 3871   8.016   2.398   0.494
  353W        W 3872   4.752   7.743   8.401
  354W        W 3873   4.727   0.916   0.694
  355W        W 3874   9.933   3.324  10.435
  356W        W 3875   9.365   0.608  10.046
  357W        W 3876   5.082   3.305   9.532
  358W        W 3877   7.341   3.572   9.688
  359W        W 3878   0.855   7.485   0.191
  360W        W 3879   3.068   4.141   1.761
  361W        W 3880   8.953   7.390  10.002
  362W        W 3881   0.355   0.883   8.865
  363W        W 3882   3.556   2.369  10.910
  364W        W 3883   4.644   5.078   3.079
  365W        W 3884   9.380   8.501   1.304
  366W        W 3885   1.408   3.575  11.544
  367W        W 3886   4.878   7.054   9.145
  368W        W 3887   0.148   1.082   8.418
  369W        W 3888   4.753   7.813   1.850
  370W        W 3889   9.480   9.646  11.219
  371W        W 3890   5.996   3.260   2.443
  372W        W 3891   5.537   1.743  10.778
  373W        W 3892   5.473   9.855   1.455
  374W        W 3893   2.280   3.985  11.475
  375W        W 3894   4.525   5.049   0.050
  376W        W 3895   2.680   2.215   9.286
  377W        W 3896   2.584   1.080   2.437
  378W        W 3897   5.986   8.152   1.030
  379W        W 3898   2.198   7.922  11.597
  380W        W 3899   4.610   6.164   0.289
  381W        W 3900   8.436   0.197   0.205
  382W        W 3901   3.802   3.349   2.687
  383W        W 3902   2.357   8.061   1.319
  384W        W 3903   3.943   6.353   1.319
  385W        W 3904   7.136   4.687  11.044
  386W        W 3905   9.634   2.387   9.695
  387W        W 3906   4.181   9.936   8.662
  388W        W 3907   6.886   1.486   2.730
  389W        W 3908   4.893   2.714   8.447
  390W        W 3909   3.578   8.112   9.835
  391W        W 3910   9.293   7.597   1.307
  392W        W 3911   1.175   7.320   1.500
  393W        W 3912   4.036   2.832   8.532
  394W        W 3913   2.409   1.561  11.301
  395W        W 3914   8.721   4.840   0.488
  396W        W 3915   2.528   2.516   8.693
  397W        W 3916   0.586   9.595  11.546
  398W        W 3917   7.924   9.882  11.399
  399W        W 3918   1.863   2.972   9.918
  400W        W 3919   5.242   2.675  11.199
  401W        W 3920   0.404   8.648  11.161
  402W        W 3921   4.991   5.539   8.786
  403W        W 3922   2.775   8.078   2.989
  404W        W 3923   0.349   3.240   1.121
  405W        W 3924   3.862   4.608  11.053
  406W        W 3925   1.673   0.466  10.588
  407W        W 3926   6.731   4.757   8.694
  408W        W 3927   4.830   2.426   1.103
  409W        W 3928   7.959   5.180   2.489
  410W        W 3929   4.109   6.161   0.191
  411W        W 3930   8.486   2.115   9.241
  412W        W 3931   5.999   7.404   3.596
  413W        W 3932   5.560   7.351  10.219
  414W        W 3933   2.740   6.655   9.017
  415W        W 3934   8.020   2.391  11.981
  416W        W 3935   3.220   3.151   9.497
  417W        W 3936   5.089   4.500   0.365
  418W        W 3937   8.794   1.643   1.248
  419W        W 3938   0.288   4.575   3.178
  420W        W 3939   1.890   5.351   2.726
  421W        W 3940   2.893   2.574   0.706
  422W        W 3941   3.715   4.038   9.047
  423W        W 3942   0.398   5.545   9.503
  424W        W 3943   4.071   2.800   2.690
  425W        W 3944   1.789   2.539   0.154
  426W        W 3945   5.459   0.101   9.239
  427W        W 3946   1.898   4.236   8.812
  428W        W 3947   2.921   7.640   3.258
  429W        W 3948   3.308   8.575   9.085
  430W        W 3949   6.586   5.203   8.440
  431W        W 3950   9.439   2.938   3.763
  432W        W 3951   9.773   7.779   0.704
  433W        W 3952   3.052   2.238   2.013
  434W        W 3953   0.467   7.453  11.841
  435W        W 3954   8.364   0.705   8.959
  436W        W 3955   4.960   3.570   0.299
  437W        W 3956   8.800   8.975  11.200
  438W        W 3957   4.196   9.975   3.222
  439W        W 3958   6.269   7.560   2.609
  440W        W 3959   3.601   3.631   1.178
  441W        W 3960   2.084   7.418   1.982
  442W        W 3961   6.168   1.455   1.871
  443W        W 3962   8.120   7.387   9.718
  444W        W 3963   9.694   2.924   0.929
  445W        W 3964   2.865   0.945   2.829
  446W        W 3965   8.048   5.588  11.466
  447W        W 3966   7.133   6.747   0.833
  448W        W 3967   9.201   7.417  11.489
  449W        W 3968   7.962   1.641   0.840
  450W        W 3969   6.876   9.526   0.169
  451W        W 3970   0.711   6.617   0.012
  452W        W 3971   4.233   2.054   0.900
  453W        W 3972   8.462   1.392   2.908
  454W        W 3973   2.246   8.070   2.305
  455W        W 3974   1.791   4.924   8.227
  456W        W 3975   9.720   3.685   3.153
  457W        W 3976   6.472   8.348  10.758
  458W        W 3977   4.020   6.189   0.820
  459W        W 3978   4.036   5.141   1.547
  460W        W 3979   8.493   4.640  10.094
  461W        W 3980   8.317   3.637   9.121
  462W        W 3981   3.302   1.995   0.878
  463W        W 3982   5.466   7.487  11.623
  464W        W 3983   0.845   4.516   9.186
  465W        W 3984   6.957   1.273  11.903
  466W        W 3985   0.542   4.426   0.898
  467W        W 3986   9.566   1.880   9.551
  468W        W 3987   8.936   7.040  10.436
  469W        W 3988   0.027   1.208   9.068
  470W        W 3989   5.182   3.497  11.856
  471W        W 3990   9.059   9.066   8.969
  472W        W 3991   3.213   7.380  11.507
  473W        W 3992   1.396   1.386  11.401
  474W        W 3993   1.796   5.980   3.289
  475W        W 3994   4.454   4.516   2.766
  476W        W 3995   9.400   7.712   9.966
  477W        W 3996   9.850   6.105   8.957
  478W        W 3997   6.625   2.135  10.362
  479W        W 3998   7.057   7.950  11.313
  480W        W 3999   7.538   2.594  11.899
  481W        W 4000   6.619   4.269   3.663
  482W        W 4001   7.242   5.636   2.633
  483W        W 4002   4.146   5.698   0.997
  484W        W 4003   0.536   2.717  10.755
  485W        W 4004   6.140   3.196   0.736
  486W        W 4005   8.581   1.080   0.073
  487W        W 4006   6.475   6.830   2.047
  488W        W 4007   6.642   9.769   0.926
  489W        W 4008   8.557   0.589  10.523
  490W        W 4009   0.752   8.407   8.942
  491W        W 4010   1.633   1.449   1.759
  492W        W 4011   5.440   6.633  11.334
  493W        W 4012   5.273   2.962   1.689
  494W        W 4013   6.675   9.995   9.965
  495W        W 4014   3.963   7.926   0.227
  496W        W 4015   4.138   1.713  11.625
  497W        W 4016   7.340   0.358   9.169
  498W        W 4017   6.857   4.112   9.333
  499W        W 4018   3.876   1.764   1.414
  500W        W 4019   2.240   4.648   8.717
  501W        W 4020   2.892   4.126  10.570
  502W        W 4021   5.479   5.177  11.819
  503W        W 4022   2.929   1.169   0.011
  504W        W 4023   9.548   5.075   9.174
  505W        W 4024   4.909   4.185  10.512
  506W        W 4025   4.160   1.523  10.758
  507W        W 4026   2.635   3.949   0.916
  508W        W 4027   3.737   8.812  11.955
  509W        W 4028   6.285   6.215   9.822
  510W        W 4029   9.698   4.555   3.163
  511W        W 4030   4.732   4.899   2.597
  512W        W 4031   2.973   0.781   0.401
  513W        W 4032   4.933   3.618   3.481
  514W        W 4033   8.346   3.932   1.803
  515W        W 4034   1.557   5.030   2.975
  516W        W 4035   2.954   1.404   2.278
  517W        W 4036   9.151   0.831   1.574
  518W        W 4037   2.483   5.287   0.693
  519W        W 4038   3.150   7.567   8.865
  520W        W 4039   3.315   2.088  11.911
  521W        W 4040   8.876   6.360   1.575
  522W        W 4041   0.410   5.428   1.662
  523W        W 4042   8.470   9.804  11.143
  524W        W 4043   3.234   0.979  10.875
  525W        W 4044   6.911   2.480   3.027
  526W        W 4045   4.557   5.552  10.545
  527W        W 4046   3.721   5.420   8.910
  528W        W 4047   1.352   1.672   3.517
  529W        W 4048   0.313   9.712  11.989
  530W        W 4049   5.062   2.943  10.204
  531W        W 4050   5.873   2.516   3.579
  532W        W 4051   9.539   9.767   8.855
  533W        W 4052   9.224   3.749   9.336
  534W        W 4053   7.370   7.178  11.920
  535W        W 4054   2.328   7.406   3.377
  536W        W 4055   1.242   6.455  11.404
  537W        W 4056   0.554   0.318   9.912
  538W        W 4057   1.253   5.365  11.698
  539W        W 4058   5.591   8.640   0.211
  540W        W 4059   4.054   3.774   8.352
  541W        W 4060   1.403   3.510   1.490
  542W        W 4061   1.455   8.692   3.576
  543W        W 4062   2.564   5.417   4.167
  544W        W 4063   2.694   2.665  10.794
  545W        W 4064   8.389   2.672   1.614
  546W        W 4065   6.125   6.358   1.364
  547W        W 4066   6.746   5.754   1.330
  548W        W 4067   4.961   9.601   1.749
  549W        W 4068   8.055   0.189  11.859
  550W        W 4069   7.950   9.678   0.977
  551W        W 4070   1.461   3.535  11.000
  552W        W 4071   1.657   3.306   1.892
  553W        W 4072   7.596   2.309   1.297
  554W        W 4073   7.151   5.552   2.140
  555W        W 4074   9.657   5.323   1.962
  556W        W 4075   1.685   2.762  11.697
  557W        W 4076   8.501   1.488  10.010
  558W        W 4077   3.684   8.845   2.124
  559W        W 4078   5.074   8.044   0.093
  560W        W 4079   7.624   4.633   1.290
  561W        W 4080   2.401   7.002   2.079
  562W        W 4081   7.047   0.651   0.783
  563W        W 4082   5.947   9.959  10.444
  564W        W 4083   7.998   5.092   9.062
  565W        W 4084   5.851   7.548   9.829
  566W        W 4085   0.960   9.510   1.899
  567W        W 4086   1.907   3.084   2.823
  568W        W 4087   9.484   3.409   9.726
  569W        W 4088   6.585   8.850   1.207
  570W        W 4089   7.741   6.178   2.027
  571W        W 4090   5.096   6.947   1.474
  572W        W 4091   0.428   0.817   9.850
  573W        W 4092   4.611   3.376   3.786
  574W        W 4093   1.374   6.086   2.544
  575W        W 4094   6.990   4.581   1.854
  576W        W 4095   9.586   2.963  11.060
  577W        W 4096   1.134   4.618   9.619
  578W        W 4097   0.348   9.588  11.073
  579W        W 4098   6.566   4.359   9.004
  580W        W 4099   4.321   1.121   2.444
  581W        W 4100   9.450   2.927   1.487
  582W        W 4101   9.730   9.367   1.268
  583W        W 4102   9.647   6.104  11.048
  584W        W 4103   0.261   0.497  11.752
  585W        W 4104   6.947   5.107  11.242
  586W        W 4105   4.961   2.337   2.130
  587W        W 4106   1.388   6.434   1.463
  588W        W 4107   5.800   0.186   9.950
  589W        W 4108   6.074   0.868   2.810
  590W        W 4109   5.107   3.142  11.480
  591W        W 4110   8.205   7.200  11.469
  592W        W 4111   1.660   4.553   2.704
  593W        W 4112   3.701   6.392   2.227
  594W        W 4113   2.264   2.416  11.061
  595W        W 4114   8.987   4.705   0.913
  596W        W 4115   6.613   5.120   4.304
  597W        W 4116   1.244   5.282   8.508
  598W        W 4117   3.599   7.308  10.353
  599W        W 4118   2.851   0.900   1.764
  600W        W 4119   8.394   2.206   2.491
  601W        W 4120   2.259   8.836   0.746
  602W        W 4121   9.955   6.196   1.909
  603W        W 4122   5.778   5.929   1.301
  604W        W 4123   6.901   3.862   3.254
  605W        W 4124   4.737   3.165   3.315
  606W        W 4125   4.288   2.727   1.910
  607W        W 4126   9.985   4.633  10.484
  608W        W 4127   3.269   5.545   0.855
  609W        W 4128   4.157   0.546   8.657
  610W        W 4129   0.412   4.177   2.866
  611W        W 4130   0.825   4.274  11.729
  612W        W 4131   1.666   2.272  11.445
  613W        W 4132   1.213   8.035  11.240
  614W        W 4133   3.986   0.318  10.927
  615W        W 4134   5.648   7.825   2.784
  616W        W 4135   0.194   0.047   2.210
  617W        W 4136   1.289   1.166   2.011
  618W        W 4137   2.132   3.724  10.397
  619W        W 4138   8.425   2.905   2.099
  620W        W 4139   5.473   5.671   3.193
  621W        W 4140   8.304   8.486  10.618
  622W        W 4141   6.434   2.532   3.268
  623W        W 4142   9.920   5.724   0.999
  624W        W 4143   6.734   1.829  11.060
  625W        W 4144   5.314   2.024   1.952
  626W        W 4145   5.872   5.979   9.991
  627W        W 4146   7.593   8.253   9.394
  628W        W 4147   2.241   5.970   9.230
  629W        W 4148   7.276   0.752  11.791
  630W        W 4149   4.938   4.027   1.989
  631W        W 4150   3.813   5.511   0.132
  632W        W 4151   7.897   4.989   2.947
  633W        W 4152   7.178   0.005  10.980
  634W        W 4153   6.129   6.956   3.217
  635W        W 4154   5.026   7.466  10.283
  636W        W 4155   0.768   7.397   0.696
  637W        W 4156   9.442   9.984  10.809
  638W        W 4157   8.002   1.164  10.119
  639W        W 4158   5.253   6.797   3.694
  640W        W 4159   4.747   3.831   9.886
  641W        W 4160   5.238   5.370   0.834
  642W        W 4161   7.439   1.229  11.023
  643W        W 4162   2.100   7.991   0.474
  644W        W 4163   9.848   1.495  10.491
  645W        W 4164   5.304   0.997   1.865
  646W        W 4165   2.905   8.317  10.893
  647W        W 4166   6.095   8.540  10.422
  648W        W 4167   0.012   9.379   9.546
  649W        W 4168   9.350   6.065   0.743
  650W        W 4169   7.043   0.911   1.222
  651W        W 4170   4.681   4.610   1.207
  652W        W 4171   8.378   2.032   2.982
  653W        W 4172   9.467   8.478   9.745
  654W        W 4173   1.760   3.670   0.238
  655W        W 4174   7.191   3.534  11.978
  656W        W 4175   6.957   0.441   0.330
  657W        W 4176   4.216   3.506  11.954
  658W        W 4177   9.307   3.536   0.313
  659W        W 4178   8.805   6.626   9.179
  660W        W 4179   3.661   5.440   1.262
  661W        W 4180   2.900   9.358   3.251
  662W        W 4181   9.730   1.903   9.033
  663W        W 4182   2.326   7.651  11.064
  664W        W 4183   7.045   5.138   4.017
  665W        W 4184   5.532   9.440   1.156
  666W        W 4185   9.207   3.281   1.815
  667W        W 4186   4.600   6.007   3.162
  668W        W 4187   0.353   7.069   9.752
  669W        W 4188   1.976   6.378   1.714
  670W        W 4189   2.041   0.387  10.963
  671W        W 4190   2.706   0.396   1.173
  672W        W 4191   3.848   2.921  11.250
  673W        W 4192   5.732   9.115   9.242
  674W        W 4193   5.527   7.210   0.426
  675W        W 4194   8.064   6.647  11.871
  676W        W 4195   6.055   7.578  10.329
  677W        W 4196   7.627   6.105   0.280
  678W        W 4197   3.020   1.292   3.584
  679W        W 4198   6.584   1.508   0.918
  680W        W 4199   3.324   3.455   3.681
  681W        W 4200   9.466   5.306   1.430
  682W        W 4201   3.618   0.736   1.325
  683W        W 4202   5.013   2.325   1.596
  684W        W 4203   5.664   7.115   3.161
  685W        W 4204   9.883   0.852  11.756
  686W        W 4205   5.213   7.503   0.083
  687W        W 4206   6.543   5.573   9.248
  688W        W 4207   2.322   9.107   0.292
  689W        W 4208   2.158   5.525  11.654
  690W        W 4209   8.812   9.063   2.808
  691W        W 4210   6.780   4.488  10.021
  692W        W 4211   4.041   9.264   2.805
  693W        W 4212   8.381   8.461   3.287
  694W        W 4213   2.305   7.568   2.413
  695W        W 4214   6.429   2.205  10.934
  696W        W 4215   4.261   1.424  10.243
  697W        W 4216   6.417   1.586   2.913
  698W        W 4217   4.647   0.751   1.179
  699W        W 4218   4.155   9.827   1.420
  700W        W 4219   5.437   7.052  11.929
  701W        W 4220   5.162   2.787  10.692
  702W        W 4221   0.075   9.559  11.533
  703W        W 4222   7.955   5.084   0.013
  704W        W 4223   4.271   5.117   2.701
  705W        W 4224   4.466   6.710   3.164
  706W        W 4225   3.903   3.922  10.355
  707W        W 4226   3.864   4.727   3.981
  708W        W 4227   0.859   9.887   9.738
  709W        W 4228   9.401   1.342   0.295
  710W        W 4229   9.786   3.781   0.674
  711W        W 4230   2.756   0.040  10.503
  712W        W 4231   3.199   4.933   8.157
  713W        W 4232   9.949   6.991   8.999
  714W        W 4233   2.400   8.370   9.055
  715W        W 4234   8.803   7.921   3.399
  716W        W 4235   4.230   3.845  11.580
  717W        W 4236   9.385   7.000  10.697
  718W        W 4237   5.686   6.497   1.120
  719W        W 4238   3.383   5.395   0.379
  720W        W 4239   5.614   7.835  10.410
  721W        W 4240   8.968   7.435   2.383
  722W        W 4241   8.598   4.797   3.073
  723W        W 4242   9.843   1.481   3.089
  724W        W 4243   2.804   1.462  11.619
  725W        W 4244   7.709   3.121   3.202
  726W        W 4245   5.041   5.434   3.090
  727W        W 4246   4.440   0.092   2.424
  728W        W 4247   9.502   0.208   9.737
  729W        W 4248   9.762   2.388  10.866
  730W        W 4249   7.636   5.302  11.667
  731W        W 4250   3.134   6.931   1.200
  732W        W 4251   8.863   6.242   0.819
  733W        W 4252   5.124   2.033   1.178
  734W        W 4253   4.180   5.792   3.429
  735W        W 4254   6.668   1.189   3.128
  736W        W 4255   3.823   4.604   0.053
  737W        W 4256   8.378   3.846   2.313
  738W        W 4257   8.138   5.888   1.150
  739W        W 4258   4.483   2.591   1.443
  740W        W 4259   7.182   7.261   0.791
  741W        W 4260   3.867   3.652   9.837
  742W        W 4261   8.926   4.599   0.059
  743W        W 4262   3.557   7.875  10.315
  744W        W 4263   4.041   8.249   1.531
  745W        W 4264   9.026   8.328   2.126
  746W        W 4265   7.528   8.935  10.508
  747W        W 4266   9.065   4.188   0.870
  748W        W 4267   0.398   2.878   3.552
  749W        W 4268   4.778   2.747  11.404
  750W        W 4269   1.765   0.733   2.260
  751W        W 4270   7.808   1.238  10.632
  752W        W 4271   2.833   3.375   3.002
  753W        W 4272   4.117   0.876  11.026
  754W        W 4273   2.804   8.020   1.647
  755W        W 4274   3.706   4.504   9.341
  756W        W 4275   7.502   4.430   3.091
  757W        W 4276   7.881   4.661   0.305
  758W        W 4277   9.811   7.660   2.026
  759W        W 4278   8.369   4.565  11.460
  760W        W 4279   1.493   0.553   9.383
  761W        W 4280   5.090   2.730   2.721
  762W        W 4281   8.725   6.108  11.949
  763W        W 4282   0.090   5.643   9.078
  764W        W 4283   8.984   7.040   9.457
  765W        W 4284   3.297   9.238   1.410
  766W        W 4285   0.471   6.597   9.919
  767W        W 4286   4.619   5.758   2.231
  768W        W 4287   7.896   1.860   1.337
  769W        W 4288   3.209   3.560  11.926
  770W        W 4289   7.022   6.405   8.241
  771W        W 4290   2.324   2.117  10.108
  772W        W 4291   7.026   6.366   8.746
  773W        W 4292   5.018   9.840   9.204
  774W        W 4293   2.324   1.904  10.907
  775W        W 4294   8.817   6.207  10.590
  776W        W 4295   7.373   3.172   2.723
  777W        W 4296   5.192   3.921  10.145
  778W        W 4297   2.626   7.987  11.295
  779W        W 4298   5.918   2.252  11.023
  780W        W 4299   9.149   9.259  11.540
  781W        W 4300   7.154   6.501   4.034
  782W        W 4301   8.474   7.927  11.036
  783W        W 4302   9.875   1.226  10.052
  784W        W 4303   1.682   3.769   0.738
  785W        W 4304   0.953   8.858   3.542
  786W        W 4305   2.022   3.406   3.223
  787W        W 4306   9.536   8.125   1.999
  788W        W 4307   9.395   4.849  11.822
  789W        W 4308   3.104   3.713   0.905
  790W        W 4309   2.301   3.730   1.819
  791W        W 4310   8.352   8.782   0.217
  792W        W 4311   5.159   8.719  10.940
  793W        W 4312   6.203   9.889   0.306
  794W        W 4313   5.893   1.624   8.451
  795W        W 4314   2.753   4.413   2.140
  796W        W 4315   2.763   2.098   0.937
  797W        W 4316   0.325   6.157   3.215
  798W        W 4317   6.569   9.269   2.371
  799W        W 4318   9.612   7.513  11.781
  800W        W 4319   4.153   8.899   8.851
  801W        W 4320   2.910   0.430   9.335
  802W        W 4321   8.729   6.423  11.226
  803W        W 4322   2.730   3.650  10.620
  804W        W 4323   5.433   0.864  11.063
  805W        W 4324   5.633   1.717   2.293
  806W        W 4325   5.148   8.867  10.447
  807W        W 4326   1.404   0.278   8.940
  808W        W 4327   5.969   8.034   3.142
  809W        W 4328   6.971   2.561   9.819
  810W        W 4329   3.392   4.919   3.818
  811W        W 4330   3.826   1.447   8.681
  812W        W 4331   9.882   6.843   9.957
  813W        W 4332   3.924   8.054   9.080
  814W        W 4333   6.845   2.823  10.226
  815W        W 4334   1.799   5.669   9.584
  816W        W 4335   8.870   0.875   8.948
  817W        W 4336   0.484   1.683   9.841
  818W        W 4337   3.316   8.460  10.623
  819W        W 4338   4.760   7.515   2.317
  820W        W 4339   3.837   9.794  11.850
  821W        W 4340   2.684   3.637   0.064
  822W        W 4341   5.076   6.368   0.240
  823W        W 4342   3.492   0.645   2.248
  824W        W 4343   5.216   5.710   1.216
  825W        W 4344   8.259   4.344   2.363
  826W        W 4345   6.679   8.496   1.806
  827W        W 4346   3.400   9.336   8.599
  828W        W 4347   7.215   1.975   1.458
  829W        W 4348   3.746   9.015   1.630
  830W        W 4349   8.962   9.894  10.928
  831W        W 4350   3.202   8.279   3.174
  832W        W 4351   0.047   1.739   2.698
  833W        W 4352   6.747   5.993   8.959
  834W        W 4353   0.313   0.026  11.583
  835W        W 4354   4.858   1.840   1.794
  836W        W 4355   6.567   8.753  10.452
  837W        W 4356   1.174   0.380  10.729
  838W        W 4357   6.433   2.770  10.515
  839W        W 4358   2.777   9.215  10.647
  840W        W 4359   6.234   3.704   0.775
  841W        W 4360   0.446   1.358  11.267
  842W        W 4361   4.542   9.204   2.791
  843W        W 4362   6.394   9.280   2.843
  844W        W 4363   5.868   4.618  10.464
  845W        W 4364   9.635   1.759   0.103
  846W        W 4365   6.107   9.064  11.163
  847W        W 4366   2.196   3.841   8.995
  848W        W 4367   7.628   2.572  11.382
  849W        W 4368   2.717   6.865   2.841
  850W        W 4369   1.359   3.856   9.277
  851W        W 4370   0.864   2.893  11.517
  852W        W 4371   2.132   0.990   0.838
  853W        W 4372   6.206   5.930   1.669
  854W        W 4373   0.623   2.848   9.529
  855W        W 4374   4.227   2.806   9.541
  856W        W 4375   9.605   0.566   3.572
  857W        W 4376   7.965   7.398   0.409
  858W        W 4377   9.429   8.614  10.265
  859W        W 4378   5.240   5.502   0.185
  860W        W 4379   2.759   3.342   9.658
  861W        W 4380   8.677   3.456   3.266
  862W        W 4381   8.304   1.980   1.693
  863W        W 4382   3.999   8.517   3.862
  864W        W 4383   8.305   3.209  11.454
  865W        W 4384   9.560   3.038   0.256
  866W        W 4385   3.958   2.388  11.266
  867W        W 4386   8.044   5.986   9.552
  868W        W 4387   3.360   4.404   4.043
  869W        W 4388   7.396   4.805   0.412
  870W        W 4389   5.206   2.281   0.179
  871W        W 4390   3.972   7.882   9.564
  872W        W 4391   7.772   1.615  10.285
  873W        W 4392   0.961   9.243   9.540
  874W        W 4393   5.012   5.963   8.296
  875W        W 4394   9.484   1.563   9.974
  876W        W 4395   6.563   2.421   0.926
  877W        W 4396   7.089   6.578   1.325
  878W        W 4397   7.588   3.739   1.980
  879W        W 4398   9.078   9.780  10.402
  880W        W 4399   9.909   4.752   0.880
  881W        W 4400   2.160   9.625   2.164
  882W        W 4401   0.350   4.529   1.746
  883W        W 4402   7.251   2.150   3.239
  884W        W 4403   2.177   3.024  11.445
  885W        W 4404   7.835   3.656   9.538
  886W        W 4405   1.347   9.463   2.643
  887W        W 4406   6.329   6.251   4.104
  888W        W 4407   8.633   5.067  10.376
  889W        W 4408   9.031   4.301  10.643
  890W        W 4409   4.498   7.671  11.370
  891W        W 4410   6.469   1.152   2.662
  892W        W 4411   7.965   0.196   0.979
  893W        W 4412   8.371   3.634  10.215
  894W        W 4413   8.975   4.707  10.281
  895W        W 4414   3.179   6.689  10.872
  896W        W 4415   6.478   7.165   3.514
  897W        W 4416   9.296   2.572  10.828
  898W        W 4417   9.936   9.783   9.223
  899W        W 4418   0.684   4.663  10.899
  900W        W 4419   4.194   4.295  10.601
  901W        W 4420   4.708   2.292   9.032
  902W        W 4421   0.312   3.943   2.176
  903W        W 4422   7.103   2.793  10.684
  904W        W 4423   1.786   6.179   1.243
  905W        W 4424   0.241   5.511   8.448
  906W        W 4425   2.465   3.178   0.202
  907W        W 4426   4.830   6.695   1.976
  908W        W 4427   1.527   8.593   2.797
  909W        W 4428   5.120   0.963   3.325
  910W        W 4429   0.787   7.974   0.017
  911W        W 4430   9.300   7.566   2.766
  912W        W 4431   6.528   7.151   2.977
  913W        W 4432   5.046   4.000  11.965
  914W        W 4433   3.039   7.374   2.846
  915W        W 4434   6.932   2.975   2.859
  916W        W 4435   7.583   1.217   0.506
  917W        W 4436   7.704   9.979   0.376
  918W        W 4437   3.234   7.842   2.861
  919W        W 4438   4.184   6.796   1.420
  920W        W 4439   6.064   3.355   9.150
  921W        W 4440   2.584   8.708   2.411
  922W        W 4441   0.935   7.599  11.679
  923W        W 4442   5.043   8.840   9.087
  924W        W 4443   1.010   5.623  10.905
  925W        W 4444   4.422   4.095   1.949
  926W        W 4445   6.032   5.142   9.276
  927W        W 4446   3.828   9.877   1.018
  928W        W 4447   5.618   0.624   0.759
  929W        W 4448   0.596   7.469  10.886
  930W        W 4449   6.689   9.944   0.451
  931W        W 4450   6.723   0.273   3.601
  932W        W 4451   6.242   4.187   8.247
  933W        W 4452   6.472   4.618   0.480
  934W        W 4453   0.520   3.528  11.765
  935W        W 4454   2.601   0.726   0.781
  936W        W 4455   1.993   2.664   9.538
  937W        W 4456   0.181   0.581  10.754
  938W        W 4457   3.360   2.126   3.542
  939W        W 4458   5.736   2.094  10.426
  940W        W 4459   9.989   2.156  11.475
  941W        W 4460   9.786   1.411   8.666
  942W        W 4461   3.296   3.673  11.058
  943W        W 4462   1.291   3.815   1.911
  944W        W 4463   4.749   2.829   0.813
  945W        W 4464   5.000   9.822   1.274
  946W        W 4465   3.993   3.402  10.408
  947W        W 4466   2.578   3.340  11.601
  948W        W 4467   0.133   6.522   8.862
  949W        W 4468   3.325   1.366   9.961
  950W        W 4469   5.299   6.443   0.746
  951W        W 4470   9.380   2.602  11.357
  952W        W 4471   9.661   6.968   3.622
  953W        W 4472   1.753   2.223   2.369
  954W        W 4473   3.289   3.064   2.365
  955W        W 4474   5.781   1.842   2.769
  956W        W 4475   0.331   0.931   3.385
  957W        W 4476   4.676   5.475   2.720
  958W        W 4477   4.361   7.680   1.098
  959W        W 4478   6.172   7.218  11.418
  960W        W 4479   8.664   2.412   9.644
  961W        W 4480   1.400   9.337   9.809
  962W        W 4481   4.954   9.377  10.505
  963W        W 4482   5.836   0.924   1.762
  964W        W 4483   6.527   3.745   3.603
  965W        W 4484   2.712   0.856  10.624
  966W        W 4485   1.879   7.007   0.868
  967W        W 4486   3.187   7.036   2.527
  968W        W 4487   9.843   4.365   1.268
  969W        W 4488   8.501   4.675   1.425
  970W        W 4489   2.251   1.295  10.903
  971W        W 4490   5.797   5.020   1.335
  972W        W 4491   7.535   6.347   1.587
  973W        W 4492   0.647   5.785   3.139
  974W        W 4493   2.893   0.652  11.056
  975W        W 4494   4.132   1.367   1.625
  976W        W 4495   7.334   6.180   9.537
  977W        W 4496   9.029   6.216   2.674
  978W        W 4497   0.560   7.642   3.199
  979W        W 4498   9.786   0.331   2.174
  980W        W 4499   1.957   9.905  11.997
  981W        W 4500   2.215   5.066   1.863
  982W        W 4501   9.223   7.223   3.532
  983W        W 4502   5.748   6.713   2.821
  984W        W 4503   1.728   2.253   1.433
  985W        W 4504   1.660   5.199   1.086
  986W        W 4505   7.429   3.005  11.563
  987W        W 4506   9.419   5.751   1.143
  988W        W 4507   0.833   7.887   8.854
  989W        W 4508   1.763   5.238  11.781
  990W        W 4509   3.244   8.251   0.459
  991W        W 4510   3.037   7.835  11.024
  992W        W 4511   9.575   5.022  10.437
  993W        W 4512   1.849   8.190   2.941
  994W        W 4513   6.083   1.454   2.387
  995W        W 4514   3.348   3.855  11.522
  996W        W 4515   8.860   3.300  10.488
  997W        W 4516   2.869   2.822   3.124
  998W        W 4517   3.082   9.445   2.361
  999W        W 4518   2.772   1.232  10.987
 1000W        W 4519   1.299   3.324   9.310
 1001W        W 4520   7.007   7.984   0.217
 1002W        W 4521   2.400   8.949  11.346
 1003W        W 4522   3.088   6.578   9.852
 1004W        W 4523   6.658   1.295   1.739
 1005W        W 4524   6.966   4.247   2.247
 1006W        W 4525   9.870   8.271   0.852
 1007W        W 4526   5.100   3.729   8.623
 1008W        W 4527   2.091   1.783   0.391
 1009W        W 4528   4.283   8.417   8.948
 1010W        W 4529   7.854   1.748   3.795
 1011W        W 4530   0.619   0.736   1.182
 1012W        W 4531   6.022   8.541   8.844
 1013W        W 4532   3.110   8.542   2.606
 1014W        W 4533   3.001   1.868   0.483
 1015W        W 4534   9.344   7.918   0.028
 1016W        W 4535   9.944   8.431  11.552
 1017W        W 4536   5.666   8.071   1.807
 1018W        W 4537   1.261   4.053  11.488
 1019W        W 4538   9.111   5.202  10.311
 1020W        W 4539   1.302   0.242   2.589
 1021W        W 4540   2.387   6.689   1.691
 1022W        W 4541   4.130   1.867  11.153
 1023W        W 4542   3.985   8.034   3.441
 1024W        W 4543   8.436   1.193   0.546
 1025W        W 4544   9.839   4.581  11.820
 1026W        W 4545   5.682   0.761  11.923
 1027W        W 4546   3.981   4.937   8.807
 1028W        W 4547   6.585   4.744   2.879
 1029W        W 4548   6.289   5.234   3.912
 1030W        W 4549   8.941   6.468   9.655
 1031W        W 4550   9.051   8.563  10.981
 1032W        W 4551   2.740   2.705   0.213
 1033W        W 4552   9.457   4.736   2.754
 1034W        W 4553   8.621   6.060   1.239
 1035W        W 4554   3.043   6.881  11.440
 1036W        W 4555   7.973   2.759   2.951
 1037W        W 4556   2.166   4.538   1.324
 1038W        W 4557   5.543   3.206   0.067
 1039W        W 4558   5.551   2.276   0.547
 1040W        W 4559   9.814   5.245   0.961
 1041W        W 4560   1.113   5.564   3.207
 1042W        W 4561   6.049   3.500  11.394
 1043W        W 4562   2.274   2.826   9.094
 1044W        W 4563   5.503   4.409  10.754
 1045W        W 4564   4.615   8.191   8.628
 1046W        W 4565   0.777   8.572   1.799
 1047W        W 4566   8.721   9.937   2.015
 1048W        W 4567   1.279   9.987   0.818
 1049W        W 4568   3.560   2.033  11.318
 1050W        W 4569   5.524   5.171   3.130
 1051W        W 4570   4.146   8.608  11.193
 1052W        W 4571   6.790   9.382   1.927
 1053W        W 4572   3.466   2.604   0.606
 1054W        W 4573   0.213   4.302  11.515
 1055W        W 4574   5.161   8.007   2.082
 1056W        W 4575   7.532   7.527   2.319
 1057W        W 4576   7.869   0.632   0.749
 1058W        W 4577   4.220   4.248   2.396
 1059W        W 4578   4.245   3.676   1.695
 1060W        W 4579   4.167   9.878  10.699
 1061W        W 4580   7.882   2.967  10.246
 1062W        W 4581   3.198   9.062   9.780
 1063W        W 4582   6.909   6.971   3.297
 1064W        W 4583   8.259   6.396  11.017
 1065W        W 4584   9.435   4.120   0.539
 1066W        W 4585   5.318   4.400  10.287
 1067W        W 4586   7.033   9.549   0.646
 1068W        W 4587   3.833   9.285   2.343
 1069W        W 4588   3.555   1.885   8.659
 1070W        W 4589   9.821   3.872  11.078
 1071W        W 4590   4.850   5.395  11.872
 1072W        W 4591   6.976   8.606  10.768
 1073W        W 4592   9.678   3.869   0.161
 1074W        W 4593   4.198   2.686  10.894
 1075W        W 4594   1.225   6.722  10.578
 1076W        W 4595   0.959   3.271   0.444
 1077W        W 4596   1.731   8.476  11.809
 1078W        W 4597   1.293   9.726   9.524
 1079W        W 4598   5.637   8.972   0.921
 1080W        W 4599   0.194   7.283  11.161
 1081W        W 4600   0.233   5.908  11.763
 1082W        W 4601   7.574   4.673   1.796
 1083W        W 4602   9.775   5.627  11.793
 1084W        W 4603   4.495   2.257  11.634
 1085W        W 4604   8.269   4.650  10.992
 1086W        W 4605   3.562   5.963   2.934
 1087W        W 4606   4.076   6.858   9.624
 1088W        W 4607   5.204   0.578  11.437
 1089W        W 4608   1.053   1.549   1.734
 1090W        W 4609   5.303   1.191   9.263
 1091W        W 4610   6.780   8.359  11.162
 1092W        W 4611   1.871   2.287   9.910
 1093W        W 4612   8.886   5.696  10.438
 1094W        W 4613   7.117   3.554   0.873
 1095W        W 4614   9.449   8.381  10.722
 1096W        W 4615   8.040   5.002  11.480
 1097W        W 4616   5.584   0.687  10.070
 1098W        W 4617   2.445   3.656   3.205
 1099W        W 4618   7.649   3.900  10.829
 1100W        W 4619   6.112   4.670   9.509
 1101W        W 4620   9.330   9.496   0.898
 1102W        W 4621   4.697   8.639  10.475
 1103W        W 4622   7.002   8.067   2.718
 1104W        W 4623   9.773   7.364   1.065
 1105W        W 4624   6.954   5.330   0.223
 1106W        W 4625   0.672   6.599   2.146
 1107W        W 4626   3.674   2.463   2.719
 1108W        W 4627   7.523   1.571   1.519
 1109W        W 4628   1.936   9.582   3.333
 1110W        W 4629   3.646   8.493   1.747
 1111W        W 4630   3.748   4.171  10.807
 1112W        W 4631   3.694   8.894   2.641
 1113W        W 4632   6.552   6.616   3.213
 1114W        W 4633   8.913   6.489  11.705
 1115W        W 4634   0.408   8.480   9.345
 1116W        W 4635   3.168   9.873   2.665
 1117W        W 4636   0.533   0.441   3.309
 1118W        W 4637   1.156   8.857   0.347
 1119W        W 4638   8.520   5.451  10.751
 1120W        W 4639   5.909   5.424   3.327
 1121W        W 4640   3.705   9.596   8.955
 1122W        W 4641   0.833   8.846  11.438
 1123W        W 4642   4.230   0.643  10.568
 1124W        W 4643   2.085   6.509  11.432
 1125W        W 4644   1.031   4.988  10.493
 1126W        W 4645   6.476   8.177  11.512
 1127W        W 4646   3.784   5.958  10.752
 1128W        W 4647   9.798   4.066  11.689
 1129W        W 4648   0.612   7.594   2.700
 1130W        W 4649   3.197   7.348   0.887
 1131W        W 4650   0.062   5.410   2.916
 1132W        W 4651   1.456   2.954   0.182
 1133W        W 4652   3.687   5.986   0.446
 1134W        W 4653   8.537   8.925   9.012
 1135W        W 4654   9.783   6.531   9.238
 1136W        W 4655   9.122   5.727   2.817
 1137W        W 4656   8.489   2.736  11.474
 1138W        W 4657   6.837   4.982  10.217
 1139W        W 4658   1.646   3.499  10.529
 1140W        W 4659   8.609   3.956   0.901
 1141W        W 4660   7.422   9.456  11.728
 1142W        W 4661   0.348   2.603   9.949
 1143W        W 4662   5.550   7.067   1.174
 1144W        W 4663   8.877   1.278   3.239
 1145W        W 4664   9.946   0.099   8.788
 1146W        W 4665   4.910   3.409   1.522
 1147W        W 4666   4.825   2.987   4.033
 1148W        W 4667   3.056   6.250   2.231
 1149W        W 4668   7.973   3.922   1.413
 1150W        W 4669   3.173   3.309   1.900
 1151W        W 4670   0.633   9.784   2.203
 1152W        W 4671   1.367   9.321   2.165
 1153W        W 4672   1.177   4.602  10.828
 1154W        W 4673   2.200   9.193   3.537
 1155W        W 4674   4.777   3.712  10.382
 1156W        W 4675   2.146   7.109  10.409
 1157W        W 4676   6.276   6.424   2.373
 1158W        W 4677   1.120   7.165  10.346
 1159W        W 4678   6.903   9.513  11.660
 1160W        W 4679   8.536   7.647   9.855
 1161W        W 4680   2.761   7.886   2.146
 1162W        W 4681   6.201   3.215   1.381
 1163W        W 4682   3.024   9.313   1.863
 1164W        W 4683   4.918   2.204  10.801
 1165W        W 4684   8.947   6.692   1.160
 1166W        W 4685   1.221   6.166  10.973
 1167W        W 4686   6.487   2.623   9.542
 1168W        W 4687   1.835   5.254   9.223
 1169W        W 4688   3.197   5.159   2.345
 1170W        W 4689   6.853   7.181  11.870
 1171W        W 4690   7.416   9.866  11.412
 1172W        W 4691   0.616   6.150  10.182
 1173W        W 4692   6.077   0.018   2.620
 1174W        W 4693   9.255   3.668   0.823
 1175W        W 4694   7.579   7.627   0.155
 1176W        W 4695   3.045   2.846   1.383
 1177W        W 4696   0.796   2.604   0.785
 1178W        W 4697   3.826   6.653   8.754
 1179W        W 4698   5.533   4.551   0.613
 1180W        W 4699   3.851   4.032   0.840
 1181W        W 4700   4.653   8.203   0.348
 1182W        W 4701   9.875   9.136   0.294
 1183W        W 4702   1.958   8.698   3.040
 1184W        W 4703   8.842   3.960   3.146
 1185W        W 4704   7.658   1.485   2.935
 1186W        W 4705   4.650   3.980  11.338
 1187W        W 4706   4.843   2.246   2.612
 1188W        W 4707   3.628   3.422   2.156
 1189W        W 4708   3.233   3.152   3.277
 1190W        W 4709   9.786   1.490   3.621
 1191W        W 4710   0.377   9.450   9.182
 1192W        W 4711   2.615   0.584   2.567
 1193W        W 4712   3.119   7.579  11.964
 1194W        W 4713   2.565   6.206   1.645
 1195W        W 4714   7.256   8.960   9.612
 1196W        W 4715   5.618   8.344  10.330
 1197W        W 4716   6.908   4.651  11.509
 1198W        W 4717   8.491   3.499   0.182
 1199W        W 4718   4.500   8.299   2.731
 1200W        W 4719   3.730   8.268  11.914
 1201W        W 4720   7.111   8.693  11.826
 1202W        W 4721   7.788   9.162   8.719
 1203W        W 4722   2.099   6.514  10.036
 1204W        W 4723   3.737   8.109   0.639
 1205W        W 4724   1.642   4.655   1.276
 1206W        W 4725   1.808   1.673   8.576
 1207W        W 4726   5.179   3.182   2.488
 1208W        W 4727   3.571   6.442   7.920
 1209W        W 4728   5.163   7.997  10.166
 1210W        W 4729   9.597   3.321   0.661
 1211W        W 4730   8.169   5.356   1.893
 1212W        W 4731   1.267   0.773  10.374
 1213W        W 4732   8.764   6.453   3.469
 1214W        W 4733   8.780   3.797   9.943
 1215W        W 4734   9.415   8.033   0.996
 1216W        W 4735   6.447   6.021  11.977
 1217W        W 4736   4.139   4.897  11.394
 1218W        W 4737   0.411   6.214   2.703
 1219W        W 4738   3.581   4.063   0.267
 1220W        W 4739   0.822   2.590   9.122
 1221W        W 4740   8.648   7.437  11.905
 1222W        W 4741   8.403   1.378   1.018
 1223W        W 4742   6.042   0.045  11.318
 1224W        W 4743   2.730   9.681  10.851
 1225W        W 4744   9.124   4.196   9.090
 1226W        W 4745   9.254   7.394   8.619
 1227W        W 4746   6.324   1.719   0.294
 1228W        W 4747   6.650   1.677  10.059
 1229W        W 4748   1.036   4.169   0.203
 1230W        W 4749   2.697   0.397   1.694
 1231W        W 4750   1.858   1.291  11.898
 1232W        W 4751   8.524   7.107   2.517
 1233W        W 4752   1.447   1.794   1.457
 1234W        W 4753   8.550   4.988   1.826
 1235W        W 4754   0.483   2.936   2.343
 1236W        W 4755   9.840   8.013  11.293
 1237W        W 4756   3.510   6.318   0.812
 1238W        W 4757   4.989   0.267  11.848
 1239W        W 4758   7.857   4.519  11.369
 1240W        W 4759   4.155   7.019   0.481
 1241W        W 4760   9.034   2.406  10.424
 1242W        W 4761   6.460   9.772   2.377
 1243W        W 4762   7.472   1.920   1.002
 1244W        W 4763   0.113   2.418  10.452
 1245W        W 4764   2.197   2.486   2.575
 1246W        W 4765   5.799   6.484   9.995
 1247W        W 4766   7.482   8.839   1.379
 1248W        W 4767   2.739   1.666  10.689
 1249W        W 4768   0.708   2.584  10.312
 1250W        W 4769   9.046   1.703  10.868
 1251W        W 4770   4.980   7.044   2.349
 1252W        W 4771   5.730   6.465  11.739
 1253W        W 4772   9.063   5.525   0.324
 1254W        W 4773   7.024   7.686   1.623
 1255W        W 4774   4.619   6.837   8.368
 1256W        W 4775   5.514   3.313   9.041
 1257W        W 4776   8.868   4.948   9.381
 1258W        W 4777   7.410   0.300   1.913
 1259W        W 4778   5.631   8.891  11.069
 1260W        W 4779   3.053   6.038   2.720
 1261W        W 4780   1.643   6.766  11.991
 1262W        W 4781   7.582   3.584   2.510
 1263W        W 4782   2.020   7.818   3.284
 1264W        W 4783   9.213   6.708   3.541
 1265W        W 4784   3.209   8.954   2.285
 1266W        W 4785   8.695   8.409   0.303
 1267W        W 4786   2.610   0.883   1.281
 1268W        W 4787   4.789   8.752   2.684
 1269W        W 4788   3.999   8.027  10.955
 1270W        W 4789   2.688   6.225   9.312
 1271W        W 4790   5.451   5.953   9.056
 1272W        W 4791   0.405   8.996   9.473
 1273W        W 4792   9.116   0.949   9.396
 1274W        W 4793   7.617   6.260   3.707
 1275W        W 4794   3.863   3.897   2.095
 1276W        W 4795   0.388   5.127   2.617
 1277W        W 4796   8.951   8.489  10.455
 1278W        W 4797   9.844   0.425  11.479
 1279W        W 4798   2.740   1.327   8.892
 1280W        W 4799   2.673   8.846   9.128
 1281W        W 4800   8.670   9.447  11.443
 1282W        W 4801   8.746   0.363   9.096
 1283W        W 4802   5.579   3.181   0.571
 1284W        W 4803   8.049   7.110  10.933
 1285W        W 4804   6.213   4.503  10.852
 1286W        W 4805   9.700   8.153  10.216
 1287W        W 4806   3.048   9.057   2.766
 1288W        W 4807   1.437   1.764  11.043
 1289W        W 4808   0.403   3.366  11.281
 1290W        W 4809   9.732   1.232   0.936
 1291W        W 4810   6.928   0.425   1.263
 1292W        W 4811   1.991   5.141   3.211
 1293W        W 4812   2.139   2.296   0.447
 1294W        W 4813   4.353   9.435   8.533
 1295W        W 4814   0.265   1.492   3.396
 1296W        W 4815   1.830   5.200   9.764
 1297W        W 4816   9.983   5.089  10.740
 1298W        W 4817   6.959   2.080   1.033
 1299W        W 4818   2.216   6.484   9.144
 1300W        W 4819   3.916   4.224   2.894
 1301W        W 4820   3.827   2.120   9.036
 1302W        W 4821   0.634   7.203  10.449
 1303W        W 4822   7.492   7.176   0.396
 1304W        W 4823   8.093   3.317   9.896
 1305W        W 4824   0.233   2.913  10.366
 1306W        W 4825   5.240   0.707   2.481
 1307W        W 4826   8.972   0.166   0.933
 1308W        W 4827   3.804   8.556   9.054
 1309W        W 4828   7.163   3.979   1.769
 1310W        W 4829   2.815   1.780   1.955
 1311W        W 4830   8.360   7.136   3.011
 1312W        W 4831   7.337   9.834  10.534
 1313W        W 4832   3.780   0.597   2.681
 1314W        W 4833   9.394   0.609  11.681
 1315W        W 4834   3.147   4.909  11.632
 1316W        W 4835   4.754   3.131   8.121
 1317W        W 4836   3.273   4.002   3.693
 1318W        W 4837   6.957   3.691  10.040
 1319W        W 4838   6.433   9.000   9.938
 1320W        W 4839   9.995   6.498  10.900
 1321W        W 4840   5.098   2.707   9.744
 1322W        W 4841   7.898   8.545   3.546
 1323W        W 4842   6.929   3.330   2.451
 1324W        W 4843   3.906   7.161   3.733
 1325W        W 4844   1.762   9.650  10.509
 1326W        W 4845   6.692   1.689   1.405
 1327W        W 4846   2.172   7.484   8.862
 1328W        W 4847   4.941   9.030   0.421
 1329W        W 4848   9.849   0.392   0.578
 1330W        W 4849   8.887   7.675  11.186
 1331W        W 4850   5.628   9.823  11.508
 1332W        W 4851   5.059   3.023  11.985
 1333W        W 4852   7.571   0.674   3.241
 1334W        W 4853   4.015   3.211   1.872
 1335W        W 4854   7.394   3.067   0.075
 1336W        W 4855   0.734   0.560   9.008
 1337W        W 4856   2.543   1.350   9.374
 1338W        W 4857   9.255   1.452   9.537
 1339W        W 4858   0.827   1.804  11.735
 1340W        W 4859   7.044   9.739   9.715
 1341W        W 4860   0.278   9.907   9.578
 1342W        W 4861   6.144   8.060   9.714
 1343W        W 4862   3.245   9.001  10.752
 1344W        W 4863   1.578   0.781   1.346
 1345W        W 4864   8.454   3.547   2.791
 1346W        W 4865   1.411   7.050   9.089
 1347W        W 4866   0.676   7.497   2.197
 1348W        W 4867   8.499   3.616  11.221
 1349W        W 4868   3.502   5.512  11.690
 1350W        W 4869   2.294   3.173  10.099
 1351W        W 4870   0.859   6.351   1.445
 1352W        W 4871   3.493   5.745   9.782
 1353W        W 4872   8.955   1.390   2.762
 1354W        W 4873   2.618   8.486  11.309
 1355W        W 4874   1.826   9.314   2.422
 1356W        W 4875   4.520   2.384  10.097
 1357W        W 4876   7.883   3.186   2.699
 1358W        W 4877   2.260   3.792  10.909
 1359W        W 4878   1.422   9.317  11.909
 1360W        W 4879   7.340   7.957  11.831
 1361W        W 4880   4.710   1.396   0.197
 1362W        W 4881   7.458   8.418   1.643
 1363W        W 4882   4.079   2.889  10.419
 1364W        W 4883   5.682   4.211   1.583
 1365W        W 4884   3.689   0.369   0.741
 1366W        W 4885   1.699   0.014  10.856
 1367W        W 4886   9.015   6.996   8.897
 1368W        W 4887   1.000   4.067   8.992
 1369W        W 4888   9.426   0.400   0.885
 1370W        W 4889   6.552   8.014   2.502
 1371W        W 4890   2.146   0.370  10.449
 1372W        W 4891   5.207   8.969  11.421
 1373W        W 4892   2.987   3.859   8.416
 1374W        W 4893   1.871   5.423  10.781
 1375W        W 4894   2.272   3.525   1.343
 1376W        W 4895   4.343   3.998   0.644
 1377W        W 4896   4.070   6.114   3.072
 1378W        W 4897   9.098   4.989  11.222
 1379W        W 4898   1.940   7.013   9.020
 1380W        W 4899   6.630   5.487   2.181
 1381W        W 4900   8.544   3.778  11.713
 1382W        W 4901   7.015   1.887  10.595
 1383W        W 4902   5.797   2.657  11.321
 1384W        W 4903   7.445   8.163   2.942
 1385W        W 4904   6.277   6.148  10.315
 1386W        W 4905   6.488   5.758  11.064
 1387W        W 4906   3.074   2.162  11.443
 1388W        W 4907   4.327   7.608   3.198
 1389W        W 4908   7.706   4.626   0.784
 1390W        W 4909   6.718   4.187   1.660
 1391W        W 4910   4.028   2.283   1.822
 1392W        W 4911   4.755   9.588   2.487
 1393W        W 4912   0.977   1.220  10.392
 1394W        W 4913   4.448   7.418   1.919
 1395W        W 4914   4.935   8.002   3.916
 1396W        W 4915   9.388   9.682  11.757
 1397W        W 4916   4.686   2.325   0.633
 1398W        W 4917   5.346   3.454   1.814
 1399W        W 4918   1.212   0.962   0.481
 1400W        W 4919   8.264   5.629   2.500
 1401W        W 4920   0.013   0.206   1.723
 1402W        W 4921   3.655   6.848   2.499
 1403W        W 4922   1.343   4.605   0.331
 1404W        W 4923   2.966   4.671  10.523
 1405W        W 4924   8.725   7.243  11.435
 1406W        W 4925   0.747   2.110  11.109
 1407W        W 4926   1.105   2.983   3.124
 1408W        W 4927   1.042   8.384   9.366
 1409W        W 4928   1.860   7.051   2.273
 1410W        W 4929   4.565   4.120   9.152
 1411W        W 4930   6.010   7.156   0.888
 1412W        W 4931   9.247   5.213   2.781
 1413W        W 4932   4.190   6.357   9.527
 1414W        W 4933   2.468   1.678   1.129
 1415W        W 4934   4.309   3.760   9.617
 1416W        W 4935   5.896   9.434   3.007
 1417W        W 4936   8.471   6.568   1.334
 1418W        W 4937   1.401   7.102   9.918
 1419W        W 4938   3.132   9.501  10.027
 1420W        W 4939   4.171   0.403   9.164
 1421W        W 4940   3.268   1.119   1.340
 1422W        W 4941   3.128   6.524   9.343
 1423W        W 4942   8.903   4.629   9.778
 1424W        W 4943   2.199   0.129   0.436
 1425W        W 4944   3.239   1.758   2.690
 1426W        W 4945   0.405   4.002  11.878
 1427W        W 4946   5.459   5.770  10.264
 1428W        W 4947   8.852   7.918   0.205
 1429W        W 4948   2.561   9.950   1.343
 1430W        W 4949   5.593   4.033   3.364
 1431W        W 4950   3.504   0.861   0.796
 1432W        W 4951   0.153   3.337   3.297
 1433W        W 4952   5.537   1.208  10.674
 1434W        W 4953   7.782   7.438   1.282
 1435W        W 4954   4.715   3.919   1.545
 1436W        W 4955   4.068   8.191   9.965
 1437W        W 4956   8.603   5.373   0.634
 1438W        W 4957   5.044   4.650  10.694
 1439W        W 4958   9.765   8.619   2.855
 1440W        W 4959   9.022   5.490  11.346
 1441W        W 4960   9.997   3.082  11.969
 1442W        W 4961   2.277   1.254   1.460
 1443W        W 4962   6.948   6.846  10.192
 1444W        W 4963   7.647   8.862   1.857
 1445W        W 4964   2.047   1.274   0.401
 1446W        W 4965   1.579   2.744   3.090
 1447W        W 4966   5.885   0.498   8.955
 1448W        W 4967   7.876   0.795   1.230
 1449W        W 4968   1.874   5.710   0.448
 1450W        W 4969   1.764   9.857   8.795
 1451W        W 4970   2.283   2.114   1.331
 1452W        W 4971   4.889   2.755   8.951
 1453W        W 4972   2.193   1.683   9.869
 1454W        W 4973   9.304   3.183   2.940
 1455W        W 4974   2.674   9.484   9.787
 1456W        W 4975   6.927   5.946   2.363
 1457W        W 4976   6.380   6.759  11.020
 1458W        W 4977   8.331   2.884  10.023
 1459W        W 4978   0.174   9.139   1.140
 1460W        W 4979   8.181   9.311   9.125
 1461W        W 4980   3.671   1.612   2.442
 1462W        W 4981   3.708   9.034   9.837
 1463W        W 4982   2.011   8.692   3.548
 1464W        W 4983   3.943   9.195   3.579
 1465W        W 4984   6.076   5.834   2.540
 1466W        W 4985   7.433   6.080   2.434
 1467W        W 4986   5.667   7.021   9.812
 1468W        W 4987   1.754   1.812  10.118
 1469W        W 4988   9.783   9.844   2.022
 1470W        W 4989   7.829   1.601  11.891
 1471W        W 4990   8.572   5.558   1.124
 1472W        W 4991   4.912   2.667   0.317
 1473W        W 4992   2.559   1.983   8.837
 1474W        W 4993   6.231   5.935   0.445
 1475W        W 4994   8.442   3.135   9.052
 1476W        W 4995   6.113   5.461   0.263
 1477W        W 4996   9.223   3.633   3.260
 1478W        W 4997   3.041   1.079   0.875
 1479W        W 4998   8.552   8.377   1.925
 1480W        W 4999   8.455   0.048   9.669
 1481W        W 5000   9.434   1.405  11.253
 1482W        W 5001   6.837   0.213   9.533
 1483W        W 5002   7.086   4.831   3.593
 1484W        W 5003   1.403   1.486   1.045
 1485W        W 5004   8.499   0.317  11.665
 1486W        W 5005   2.320   6.027  10.096
 1487W        W 5006   5.795   7.289  10.675
 1488W        W 5007   2.720   8.873   0.549
 1489W        W 5008   6.653   4.140   0.354
 1490W        W 5009   3.782   4.687   1.671
 1491W        W 5010   6.936   3.436   3.595
 1492W        W 5011   3.170   4.165   9.656
 1493W        W 5012   0.904   9.357   2.395
 1494W        W 5013   7.341   6.530   2.047
 1495W        W 5014   9.296   3.181   9.310
 1496W        W 5015   7.137   6.080   3.722
 1497W        W 5016   2.212   4.980  11.527
 1498W        W 5017   6.486   4.864  11.236
 1499W        W 5018   9.471   9.003   0.585
 1500W        W 5019   5.045   6.723   8.660
 1501W        W 5020   1.232   2.871   0.673
 1502W        W 5021   7.099   2.494   1.343
 1503W        W 5022   1.077   7.461   3.043
 1504W        W 5023   8.113   3.805   0.941
 1505W        W 5024   7.553   0.768  10.822
 1506W        W 5025   8.515   9.834   3.043
 1507W        W 5026   7.776   4.696   2.383
 1508W        W 5027   9.400   0.459  10.638
 1509W        W 5028   0.004   3.036   2.144
 1510W        W 5029   8.536   2.304  10.527
 1511W        W 5030   3.009   5.032   3.253
 1512W        W 5031   4.855   6.076   1.439
 1513W        W 5032   4.050   3.908   1.287
 1514W        W 5033   3.524   3.709   8.425
 1515W        W 5034   3.666   0.036   1.503
 1516W        W 5035   8.476   7.055  10.084
 1517W        W 5036   5.099   5.274   1.867
 1518W        W 5037   3.356   0.884   1.791
 1519W        W 5038   9.467   2.419   1.767
 1520W        W 5039   8.318   6.663   9.055
 1521W        W 5040   8.896   3.081   2.660
 1522W        W 5041   1.728   6.315   2.880
 1523W        W 5042   4.973   0.669  10.964
 1524W        W 5043   8.948   7.093   0.798
 1525W        W 5044   3.996   4.329   0.463
 1526W        W 5045   1.540   6.934   3.587
 1527W        W 5046   9.197   6.074   1.862
 1528W        W 5047   1.319   6.685   0.372
 1529W        W 5048   7.466   0.914   0.892
 1530W        W 5049   9.816   3.241   2.914
 1531W        W 5050   4.053   3.209  10.877
 1532W        W 5051   5.455   2.298   9.927
 1533W        W 5052   8.111   8.409   9.421
 1534W        W 5053   7.630   2.331   2.230
 1535W        W 5054   7.535   1.105   8.530
 1536W        W 5055   6.094   6.724   9.669
 1537W        W 5056   7.428   8.532   9.847
 1538W        W 5057   9.249   4.479  11.110
 1539W        W 5058   3.334   7.953   0.894
 1540W        W 5059   4.170   2.547   3.116
 1541W        W 5060   0.223   1.811  10.284
 1542W        W 5061   9.172   3.145   0.816
 1543W        W 5062   3.474   1.223  10.468
 1544W        W 5063   5.933   2.733  10.323
 1545W        W 5064   4.258   4.450   8.552
 1546W        W 5065   7.397   9.567   0.232
 1547W        W 5066   4.998   6.587  10.583
 1548W        W 5067   7.914   6.313   3.226
 1549W        W 5068   1.730   5.764   9.096
 1550W        W 5069   6.389   1.365  11.510
 1551W        W 5070   0.001   5.875   0.187
 1552W        W 5071   1.852   9.212   9.603
 1553W        W 5072   5.407   8.499  11.343
 1554W        W 5073   1.865   4.704  11.259
 1555W        W 5074   4.721   1.427   0.704
 1556W        W 5075   9.645   7.456   3.393
 1557W        W 5076   5.540   2.251   1.558
 1558W        W 5077   7.049   5.543   8.355
 1559W        W 5078   9.658   6.462   8.636
 1560W        W 5079   1.346   8.451   0.111
 1561W        W 5080   6.537   7.831   9.444
 1562W        W 5081   8.492   6.953   1.007
 1563W        W 5082   9.518   4.114   2.894
 1564W        W 5083   5.055   6.416  11.068
 1565W        W 5084   5.861   1.868   1.286
 1566W        W 5085   4.640   3.587   8.397
 1567W        W 5086   8.095   9.448  11.199
 1568W        W 5087   4.061   3.291   9.502
 1569W        W 5088   9.866   1.304  11.468
 1570W        W 5089   0.223   1.030   1.025
 1571W        W 5090   6.367   3.739   0.281
 1572W        W 5091   2.611   1.952  11.571
 1573W        W 5092   7.685   2.116  11.719
 1574W        W 5093   5.161   7.052   9.980
 1575W        W 5094   3.776   1.732   0.912
 1576W        W 5095   4.166   3.182   9.982
 1577W        W 5096   0.306   3.746  10.935
 1578W        W 5097   8.541   6.614   0.080
 1579W        W 5098   1.247   1.592  11.916
 1580W        W 5099   9.450   3.161   2.430
 1581W        W 5100   2.868   0.149  11.056
 1582W        W 5101   7.529   1.178  11.983
 1583W        W 5102   2.908   4.367   0.843
 1584W        W 5103   0.892   0.082   8.900
 1585W        W 5104   7.029   5.487   1.647
 1586W        W 5105   8.872   6.961   3.264
 1587W        W 5106   8.080   0.065  10.919
 1588W        W 5107   7.226   4.649  10.185
 1589W        W 5108   4.758   3.704   9.399
 1590W        W 5109   6.684   5.195   8.943
 1591W        W 5110   5.405   7.615   1.829
 1592W        W 5111   5.761   6.159  10.444
 1593W        W 5112   7.828   6.635  10.860
 1594W        W 5113   7.473   1.862   1.991
 1595W        W 5114   9.131   3.042   9.896
 1596W        W 5115   1.107   5.735   2.226
 1597W        W 5116   2.122   2.585   1.367
 1598W        W 5117   8.758   4.318   0.499
 1599W        W 5118   8.085   2.808   8.885
 1600W        W 5119   3.571   3.655   0.668
 1601W        W 5120   3.392   0.334  11.060
 1602W        W 5121   9.676   8.587   8.550
 1603W        W 5122   0.223   0.003   0.834
 1604W        W 5123   7.023   9.031  10.469
 1605W        W 5124   4.944   4.083   3.251
 1606W        W 5125   7.125   5.962  11.491
 1607W        W 5126   3.284   0.759  11.381
 1608W        W 5127   5.203   0.064  11.345
 1609W        W 5128   3.814   8.301  10.517
 1610W        W 5129   1.785   3.122   9.393
 1611W        W 5130   9.846   8.027  10.710
 1612W        W 5131   7.384   7.496   9.991
 1613W        W 5132   4.936   5.327   1.363
 1614W        W 5133   7.542   5.596  10.236
 1615W        W 5134   4.958   7.521  11.621
 1616W        W 5135   5.170   0.726  11.940
 1617W        W 5136   9.017   3.176   8.719
 1618W        W 5137   3.069   7.870  11.532
 1619W        W 5138   4.021   2.196  10.784
 1620W        W 5139   9.357   9.954   0.662
 1621W        W 5140   9.509   6.493   2.730
 1622W        W 5141   2.282   0.132   1.903
 1623W        W 5142   8.695   1.832  11.709
 1624W        W 5143   3.748   3.726   7.947
 1625W        W 5144   8.496   0.324   0.778
 1626W        W 5145   6.638   3.239  10.452
 1627W        W 5146   7.840   6.097  10.876
 1628W        W 5147   3.205   2.901   0.297
 1629W        W 5148   2.762   6.422  11.033
 1630W        W 5149   3.637   0.975   3.035
 1631W        W 5150   7.742   8.472  11.289
 1632W        W 5151   3.687   8.798  10.581
 1633W        W 5152   9.820   9.983  11.755
 1634W        W 5153   4.607   3.263  10.232
 1635W        W 5154   1.039   9.681   0.480
 1636W        W 5155   6.674   7.551   3.232
 1637W        W 5156   1.068   2.839  10.714
 1638W        W 5157   5.437   2.747   0.292
 1639W        W 5158   3.217   8.286  10.145
 1640W        W 5159   3.576   4.253  11.275
 1641W        W 5160   0.674   4.923   0.950
 1642W        W 5161   3.585   5.886   9.170
 1643W        W 5162   4.172   0.070   1.863
 1644W        W 5163   1.825   5.849   2.725
 1645W        W 5164   0.426   9.274   8.675
 1646W        W 5165   4.148   2.239   2.690
 1647W        W 5166   3.767   6.383  10.439
 1648W        W 5167   3.797   6.111   9.994
 1649W        W 5168   2.049   1.500   0.885
 1650W        W 5169   9.656   1.014   1.410
 1651W        W 5170   4.656   7.217   3.174
 1652W        W 5171   2.703   8.986   9.627
 1653W        W 5172   6.768   9.967   1.376
 1654W        W 5173   5.098   4.974   3.325
 1655W        W 5174   3.362   1.096   0.332
 1656W        W 5175   4.304   9.100  11.246
 1657W        W 5176   3.756   9.211   1.144
 1658W        W 5177   0.474   4.176   9.544
 1659W        W 5178   1.964   2.706   2.177
 1660W        W 5179   2.314   8.827   8.763
 1661W        W 5180   1.297   7.603   9.970
 1662W        W 5181   0.000   8.076   2.233
 1663W        W 5182   8.132   5.405   0.868
 1664W        W 5183   0.923   0.869   9.994
 1665W        W 5184   1.347   4.923  11.946
 1666W        W 5185   4.193   8.586   0.692
 1667W        W 5186   5.220   5.941   0.446
 1668W        W 5187   2.614   6.432  10.031
 1669W        W 5188   0.852   7.198   9.526
 1670W        W 5189   7.947   6.875   2.102
 1671W        W 5190   0.024   2.179   9.398
 1672W        W 5191   1.678   0.010   9.302
 1673W        W 5192   8.858   0.909   2.553
 1674W        W 5193   4.534   5.152   1.763
 1675W        W 5194   7.482   9.436   0.889
 1676W        W 5195   5.556   3.855  11.827
 1677W        W 5196   6.443   5.973   2.212
 1678W        W 5197   7.455   0.315   0.069
 1679W        W 5198   6.371   0.475   9.274
 1680W        W 5199   0.583   9.042   9.983
 1681W        W 5200   7.934   0.189   2.552
 1682W        W 5201   2.752   5.498   3.203
 1683W        W 5202   7.264   1.797   2.862
 1684W        W 5203   6.173   4.591   3.122
 1685W        W 5204   0.906   2.498   9.858
 1686W        W 5205   2.898   9.581   1.442
 1687W        W 5206   5.087   4.969   0.065
 1688W        W 5207   9.461   0.085   3.417
 1689W        W 5208   5.589   2.583   9.531
 1690W        W 5209   7.429   8.857  11.043
 1691W        W 5210   6.544   4.355   4.169
 1692W        W 5211   6.921   8.221  11.751
 1693W        W 5212   6.134   7.640  10.836
 1694W        W 5213   6.372   6.922   8.726
 1695W        W 5214   3.527   7.590   0.569
 1696W        W 5215   8.007   9.523   1.624
 1697W        W 5216   7.225   6.149  10.092
 1698W        W 5217   0.870   3.982   2.951
 1699W        W 5218   4.630   6.546   2.400
 1700W        W 5219   6.676   0.561  10.456
 1701W        W 5220   8.619   9.063   9.844
 1702W        W 5221   4.260   8.731   2.884
 1703W        W 5222   7.891   8.856   0.448
 1704W        W 5223   3.360   9.174   3.179
 1705W        W 5224   9.817   6.706  10.470
 1706W        W 5225   8.659   3.156  11.830
 1707W        W 5226   2.098   1.488   1.924
 1708W        W 5227   7.194   7.065  11.461
 1709W        W 5228   0.040   7.075   3.289
 1710W        W 5229   2.989   6.405   8.623
 1711W        W 5230   0.713   7.956  10.970
 1712W        W 5231   1.215   3.118  11.165
 1713W        W 5232   1.571   1.214   8.749
 1714W        W 5233   9.786   7.509   8.970
 1715W        W 5234   5.924   9.515  11.802
 1716W        W 5235   4.044   7.170  10.612
 1717W        W 5236   3.336   0.422  10.116
 1718W        W 5237   0.854   8.502   1.270
 1719W        W 5238   8.073   0.212   9.990
 1720W        W 5239   9.576   9.247   3.486
 1721W        W 5240   4.911   8.462  11.342
 1722W        W 5241   2.672   8.291  10.393
 1723W        W 5242   5.999   9.278   1.273
 1724W        W 5243   8.169   7.474   2.655
 1725W        W 5244   0.869   4.078   1.203
 1726W        W 5245   2.082   0.787   1.295
 1727W        W 5246   9.832   8.323   3.266
 1728W        W 5247   5.225   8.003   9.576
 1729W        W 5248   8.375   1.732   0.556
 1730W        W 5249   0.456   5.676   0.352
 1731W        W 5250   0.274   7.975   0.747
 1732W        W 5251   6.285   5.903   1.171
 1733W        W 5252   8.682   8.850  10.717
 1734W        W 5253   4.370   9.741   0.606
 1735W        W 5254   5.335   7.491  10.691
 1736W        W 5255   6.546   0.240   2.121
 1737W        W 5256   3.900   5.107  10.950
 1738W        W 5257   1.764   2.638   9.081
 1739W        W 5258   7.593   0.362  10.118
 1740W        W 5259   1.634   8.033  10.495
 1741W        W 5260   4.645   6.021   4.171
 1742W        W 5261   2.135   2.528  11.558
 1743W        W 5262   0.188   7.504   3.540
 1744W        W 5263   1.424   5.349   0.199
 1745W        W 5264   7.079   7.857   3.213
 1746W        W 5265   2.293   7.403  11.559
 1747W        W 5266   5.836   9.624   8.584
 1748W        W 5267   8.668   3.266  10.013
 1749W        W 5268   4.407   7.828  10.007
 1750W        W 5269   4.586   9.531   1.370
 1751W        W 5270   3.013   1.839   9.935
 1752W        W 5271   6.308   5.064   1.495
 1753W        W 5272   4.422   5.126  10.817
 1754W        W 5273   3.423   6.827   0.796
 1755W        W 5274   9.591   1.806  11.530
 1756W        W 5275   5.062   5.417   8.289
 1757W        W 5276   3.155   5.999   1.056
 1758W        W 5277   5.128   0.137   1.704
 1759W        W 5278   1.381   0.204   2.071
 1760W        W 5279   9.080   6.707   2.540
 1761W        W 5280   7.187   0.810   2.143
 1762W        W 5281   7.688   4.553   9.505
 1763W        W 5282   3.779   4.435  10.350
 1764W        W 5283   8.457   2.621   0.480
 1765W        W 5284   1.223   3.361   2.169
 1766W        W 5285   2.787   8.876   1.976
 1767W        W 5286   1.404   9.412  10.869
 1768W        W 5287   3.312   3.363   2.809
 1769W        W 5288   2.822   5.562   8.876
 1770W        W 5289   8.393   4.509   8.309
 1771W        W 5290   1.324   6.161   2.039
 1772W        W 5291   1.980   0.483   9.477
 1773W        W 5292   1.871   9.190  10.671
 1774W        W 5293  10.000   6.510   1.403
 1775W        W 5294   9.106   6.543   3.061
 1776W        W 5295   8.811   3.129  11.333
 1777W        W 5296   5.791   4.230   3.803
 1778W        W 5297   7.278   9.038   8.787
 1779W        W 5298   0.434   5.682   2.663
 1780W        W 5299   7.675   9.867   1.822
 1781W        W 5300   0.672   5.185   2.016
 1782W        W 5301   6.445   9.785   2.899
 1783W        W 5302   7.091   1.421   1.263
 1784W        W 5303   6.858   0.072  10.561
 1785W        W 5304   1.146   3.321  10.652
 1786W        W 5305   5.446   8.911   1.874
 1787W        W 5306   1.356   4.002   1.398
 1788W        W 5307   5.113   1.741   2.348
 1789W        W 5308   7.917   9.802   3.277
 1790W        W 5309   3.246   0.866   9.874
 1791W        W 5310   6.131   0.226   0.680
 1792W        W 5311   9.869   2.724   1.771
 1793W        W 5312   5.948   6.478   3.259
 1794W        W 5313   6.350   9.053   0.185
 1795W        W 5314   4.135   8.014   8.607
 1796W        W 5315   3.156   6.041   9.529
 1797W        W 5316   8.011   1.423   0.358
 1798W        W 5317   7.541   9.840   9.492
 1799W        W 5318   1.694   7.476   0.810
 1800W        W 5319   6.059   3.713  11.858
 1801W        W 5320   5.891   0.576   3.761
 1802W        W 5321   4.648   1.381   9.896
 1803W        W 5322   2.897   1.718  11.190
 1804W        W 5323   8.009   6.992   2.584
 1805W        W 5324   3.008   5.567   9.721
 1806W        W 5325   2.786   3.062   0.565
 1807W        W 5326   4.005   1.842   9.973
 1808W        W 5327   2.686   9.307   8.201
 1809W        W 5328   5.255   6.211   8.669
 1810W        W 5329   8.041   8.889  10.409
 1811W        W 5330   1.333   4.071  10.979
 1812W        W 5331   5.223   4.468   3.433
 1813W        W 5332   8.213   4.278   3.601
 1814W        W 5333   5.540   6.120   8.224
 1815W        W 5334   8.633   0.825  11.649
 1816W        W 5335   1.264   6.522   2.838
 1817W        W 5336   3.591   5.304  10.518
 1818W        W 5337   6.648   8.132   0.540
 1819W        W 5338   6.576   6.475   8.538
 1820W        W 5339   4.491   9.271  10.784
 1821W        W 5340   9.969   8.999   8.610
 1822W        W 5341   8.874   7.393   1.861
 1823W        W 5342   8.424   4.728   9.577
 1824W        W 5343   8.831   5.789  10.962
 1825W        W 5344   3.732   5.517   2.757
 1826W        W 5345   1.251   2.221  11.108
 1827W        W 5346   6.471   2.115   9.235
 1828W        W 5347   0.991   1.710   1.239
 1829W        W 5348   1.474   4.972  11.455
 1830W        W 5349   2.792   3.152   2.520
 1831W        W 5350   9.999   3.876   1.149
 1832W        W 5351   3.402   0.261   1.139
 1833W        W 5352   3.821   1.217   1.237
 1834W        W 5353   9.112   3.717   8.815
 1835W        W 5354   3.716   7.018   1.346
 1836W        W 5355   0.458   1.870   9.373
 1837W        W 5356   4.551   8.709   0.334
 1838W        W 5357   4.654   6.875   9.994
 1839W        W 5358   3.710   0.770  11.821
 1840W        W 5359   0.183   8.033   0.252
 1841W        W 5360   3.984   0.334   2.261
 1842W        W 5361   7.591   9.787   2.730
 1843W        W 5362   4.990   6.077   0.934
 1844W        W 5363   4.793   8.335  10.880
 1845W        W 5364   6.072   1.359  10.777
 1846W        W 5365   6.007   2.277   3.142
 1847W        W 5366   6.267   4.029   8.756
 1848W        W 5367   0.690   3.597  10.618
 1849W        W 5368   4.707   6.911   2.757
 1850W        W 5369   7.552   4.887   9.873
 1851W        W 5370   5.069   6.102  10.285
 1852W        W 5371   7.310   1.158  10.520
 1853W        W 5372   9.844   7.144   1.938
 1854W        W 5373   2.528   5.970  11.682
 1855W        W 5374   6.331   7.873   3.471
 1856W        W 5375   8.631   3.518   8.697
 1857W        W 5376   2.624   4.053   0.401
 1858W        W 5377   8.242   1.468  10.458
 1859W        W 5378   8.869   5.459   9.487
 1860W        W 5379   1.206   3.742   0.482
 1861W        W 5380   8.377   5.217   2.822
 1862W        W 5381   2.802   4.099   8.827
 1863W        W 5382   0.585   0.202   0.045
 1864W        W 5383   6.901   2.925   8.863
 1865W        W 5384   1.314   5.471   9.044
 1866W        W 5385   3.719   4.253   2.425
 1867W        W 5386   0.021   1.962  10.724
 1868W        W 5387   6.085   6.485   8.709
 1869W        W 5388   5.742   8.467   0.679
 1870W        W 5389   9.717   3.258   1.759
 1871W        W 5390   4.044   9.571   1.922
 1872W        W 5391   9.346   5.694  11.000
 1873W        W 5392   2.614   8.563   0.985
 1874W        W 5393   2.415   0.361   9.238
 1875W        W 5394   8.489   6.083   2.462
 1876W        W 5395   6.825   2.024   2.762
 1877W        W 5396   0.658   3.550   0.752
 1878W        W 5397   9.022   5.333  10.814
 1879W        W 5398   5.840   5.144  10.307
 1880W        W 5399   8.901   0.186   0.416
 1881W        W 5400   2.690   3.427   1.046
 1882W        W 5401   1.959   2.606  10.711
 1883W        W 5402   7.480   1.257  10.018
 1884W        W 5403   9.482   3.650   3.685
 1885W        W 5404   6.742   5.552   2.684
 1886W        W 5405   3.288   9.002   0.919
 1887W        W 5406   7.294   5.487  11.320
 1888W        W 5407   3.800   2.494   9.470
 1889W        W 5408   9.882   9.325  11.073
 1890W        W 5409   0.034   3.618  11.864
 1891W        W 5410   6.324   9.693   1.356
 1892W        W 5411   4.700   1.464  10.539
 1893W        W 5412   5.445   4.677   3.001
 1894W        W 5413   1.841   7.816   2.571
 1895W        W 5414   2.372   4.651   2.390
 1896W        W 5415   0.910   6.565  10.985
 1897W        W 5416   9.944   5.233  11.218
 1898W        W 5417   2.226   9.667   9.981
 1899W        W 5418   3.791   2.618   1.028
 1900W        W 5419   2.377   7.038   0.699
 1901W        W 5420   8.539   6.223   0.408
 1902W        W 5421   3.913   6.695   0.921
 1903W        W 5422   0.486   4.090   9.045
 1904W        W 5423   4.231   8.854  10.699
 1905W        W 5424   3.200   0.702   3.216
 1906W        W 5425   0.339   2.084   1.324
 1907W        W 5426   9.451   9.335  10.785
 1908W        W 5427   8.016   2.004   2.196
 1909W        W 5428   6.469   9.312   1.043
 1910W        W 5429   8.511   6.811  11.601
 1911W        W 5430   2.364   8.451   0.434
 1912W        W 5431   6.815   9.779   9.257
 1913W        W 5432   7.473   2.028  10.356
 1914W        W 5433   2.576   6.989  11.305
 1915W        W 5434   4.601   4.717   9.863
 1916W        W 5435   4.596   1.297   2.954
 1917W        W 5436   0.235   0.409   9.092
 1918W        W 5437   9.445   5.855  11.470
 1919W        W 5438   1.361   9.213   1.668
 1920W        W 5439   3.571   9.249  10.285
 1921W        W 5440   4.746   9.488   0.874
 1922W        W 5441   8.574   8.164  11.509
 1923W        W 5442   0.148   3.744   9.791
 1924W        W 5443   8.532   8.564   9.726
 1925W        W 5444   8.771   5.611  11.780
 1926W        W 5445   8.979   2.585   2.010
 1927W        W 5446   4.093   7.580   9.168
 1928W        W 5447   8.476   8.010  10.520
 1929W        W 5448   7.882   5.935   1.599
 1930W        W 5449   3.255   4.230   9.150
 1931W        W 5450   8.165   6.645   8.538
 1932W        W 5451   2.682   5.271   1.168
 1933W        W 5452   5.391   9.768   1.961
 1934W        W 5453   8.033   0.649   2.342
 1935W        W 5454   0.245   6.005   8.637
 1936W        W 5455   4.659   8.514   1.449
 1937W        W 5456   8.583   8.431   9.228
 1938W        W 5457   1.589   6.737   8.708
 1939W        W 5458   2.340   3.251   0.720
 1940W        W 5459   6.659   4.536  11.980
 1941W        W 5460   0.765   2.495   2.475
 1942W        W 5461   5.035   0.842   8.996
 1943W        W 5462   4.649   2.653   3.254
 1944W        W 5463   8.065   7.686   3.109
 1945W        W 5464   8.443   4.169   1.338
 1946W        W 5465   9.983   6.845   0.523
 1947W        W 5466   1.318   6.318   9.528
 1948W        W 5467   6.408   1.008   0.848
 1949W        W 5468   1.590   7.480   2.278
 1950W        W 5469   4.234   3.563   2.203
 1951W        W 5470   1.211   8.512   9.974
 1952W        W 5471   4.757   2.006   9.457
 1953W        W 5472   5.681   9.693  10.070
 1954W        W 5473   1.911   3.932   9.807
 1955W        W 5474   9.131   6.183  10.993
 1956W        W 5475   5.979   4.431   0.381
 1957W        W 5476   8.816   7.752   1.468
 1958W        W 5477   7.370   0.778   9.864
 1959W        W 5478   0.047   9.656   0.455
 1960W        W 5479   5.195   6.586   2.362
 1961W        W 5480   7.114   1.087   1.708
 1962W        W 5481   1.220   7.097   8.611
 1963W        W 5482   4.701   7.976   1.347
 1964W        W 5483   0.684   3.894  11.399
 1965W        W 5484   0.466   2.378  11.447
 1966W        W 5485   5.867   9.404  10.815
 1967W        W 5486   5.571   1.881   0.872
 1968W        W 5487   7.323   7.695   2.751
 1969W        W 5488   4.288   3.061   2.300
 1970W        W 5489   8.877   9.222   0.936
 1971W        W 5490   0.965   5.785   2.744
 1972W        W 5491   1.600   5.010   2.476
 1973W        W 5492   5.168   2.579   4.137
 1974W        W 5493   4.683   6.977   1.192
 1975W        W 5494   2.098   3.518  11.397
 1976W        W 5495   8.329   3.813   3.213
 1977W        W 5496   6.427   8.869   3.626
 1978W        W 5497   1.396   8.102   2.742
 1979W        W 5498   3.441   4.106   8.133
 1980W        W 5499   6.369   5.543   3.476
 1981W        W 5500   8.381   4.536   0.236
 1982W        W 5501   0.011   9.803  10.258
 1983W        W 5502   5.238   3.543   0.755
 1984W        W 5503   5.599   7.880   2.280
 1985W        W 5504   5.788   7.396   0.028
 1986W        W 5505   2.684   8.580   2.901
 1987W        W 5506   2.928   1.812   3.624
 1988W        W 5507   4.473   2.336  10.599
 1989W        W 5508   5.227   9.485   3.006
 1990W        W 5509   6.875   8.968   1.599
 1991W        W 5510   8.470   7.133  10.626
 1992W        W 5511   0.101   4.054   1.693
 1993W        W 5512   9.804   1.000   3.307
 1994W        W 5513   5.055   9.192   2.628
 1995W        W 5514   1.158   8.493  10.496
 1996W        W 5515   9.629   2.367   3.532
 1997W        W 5516   0.883   0.620   0.267
 1998W        W 5517   1.582   9.052   1.243
 1999W        W 5518   5.480   7.284   3.623
 2000W        W 5519   7.497   1.086   1.380
 2001W        W 5520   6.203   0.757   0.026
 2002W        W 5521   7.818   0.383  10.575
 2003W        W 5522   0.498   1.597   1.368
 2004W        W 5523   5.496   5.057  11.310
 2005W        W 5524   2.350   4.384   0.775
 2006W        W 5525   7.651   7.622  10.420
 2007W        W 5526   4.832   9.956   0.622
 2008W        W 5527   7.305   2.123   9.056
 2009W        W 5528   7.330   5.593   4.030
 2010W        W 5529   1.209   2.218   1.320
 2011W        W 5530   4.197   5.261   3.335
 2012W        W 5531   3.369   5.936   7.927
 2013W        W 5532   1.052   7.088   3.510
 2014W        W 5533   0.484   3.617   3.622
 2015W        W 5534   8.913   7.801  11.683
 2016W        W 5535   5.495   4.239  11.480
 2017W        W 5536   2.606   7.936  10.756
 2018W        W 5537   5.611   1.038   3.584
 2019W        W 5538   4.295   4.675   1.798
 2020W        W 5539   4.972   6.822   3.207
 2021W        W 5540   9.413   7.961  11.017
 2022W        W 5541   9.326   8.971  11.161
 2023W        W 5542   5.997   8.829   0.457
 2024W        W 5543   0.388   7.591   0.426
 2025W        W 5544   8.191   2.919   9.544
 2026W        W 5545   6.173   7.938   0.592
 2027W        W 5546   2.759   7.477  11.297
 2028W        W 5547   0.348   2.646   1.948
 2029W        W 5548   6.879   6.273  11.850
 2030W        W 5549   6.848   7.320   9.067
 2031W        W 5550   2.755   9.751   8.955
 2032W        W 5551   6.875   3.350   8.523
 2033W        W 5552   1.755   8.783   9.341
 2034W        W 5553   5.649   3.828   9.913
 2035W        W 5554   5.907   7.586   1.837
 2036W        W 5555   6.239   4.013   3.932
 2037W        W 5556   6.647   7.352   9.531
 2038W        W 5557   2.270   2.789   0.468
 2039W        W 5558   8.021   2.271   9.067
 2040W        W 5559   9.115   8.151   1.671
 2041W        W 5560   0.782   5.176  11.529
 2042W        W 5561   4.971   0.530   2.982
 2043W        W 5562   6.100   7.414   0.436
 2044W        W 5563   6.331   0.848  11.544
 2045W        W 5564   3.040   6.481   0.925
 2046W        W 5565   9.945   2.173   2.133
 2047W        W 5566   8.704   3.826   9.437
 2048W        W 5567   0.855   7.104  11.832
 2049W        W 5568   2.509   3.544   2.289
 2050W        W 5569   0.898   7.006   9.043
 2051W        W 5570   1.339   7.423   9.468
 2052W        W 5571   2.943   7.056   9.301
 2053W        W 5572   2.803   3.831   9.754
 2054W        W 5573   7.201   3.191   3.232
 2055W        W 5574   5.192   7.088  11.452
 2056W        W 5575   7.185   8.695   0.684
 2057W        W 5576   6.526   3.865   2.892
 2058W        W 5577   9.989   9.516   8.798
 2059W        W 5578   0.263   7.207   2.790
 2060W        W 5579   9.730   7.719   2.524
 2061W        W 5580   2.814   3.669   1.877
 2062W        W 5581   9.258   1.809   0.500
 2063W        W 5582   9.343   2.079  10.650
 2064W        W 5583   0.170   6.610   2.112
 2065W        W 5584   3.262   4.250   8.627
 2066W        W 5585   2.870   5.975  11.301
 2067W        W 5586   8.201   5.408   0.325
 2068W        W 5587   4.574   8.527   2.283
 2069W        W 5588   4.190   7.216  11.388
 2070W        W 5589   9.668   9.092   3.005
 2071W        W 5590   5.044   8.335   1.174
 2072W        W 5591   5.319   5.141   8.689
 2073W        W 5592   1.636   8.214   1.025
 2074W        W 5593   2.676   9.074   1.016
 2075W        W 5594   9.369   5.508   2.390
 2076W        W 5595   1.762   1.354   3.566
 2077W        W 5596   0.925   6.755   3.143
 2078W        W 5597   7.080   0.840   3.102
 2079W        W 5598   0.313   2.738   3.069
 2080W        W 5599   7.964   2.137   0.915
 2081W        W 5600   1.557   7.641   1.291
 2082W        W 5601   9.223   0.383   1.356
 2083W        W 5602   6.215   3.670   3.218
 2084W        W 5603   5.158   4.471   2.061
 2085W        W 5604   5.549   3.082   3.286
 2086W        W 5605   4.879   7.414   0.993
 2087W        W 5606   6.474   9.853   3.467
 2088W        W 5607   5.189   7.280   3.205
 2089W        W 5608   3.309   2.972  11.201
 2090W        W 5609   1.183   5.793   8.622
 2091W        W 5610   0.814   1.151   0.794
 2092W        W 5611   5.440   1.392  11.142
 2093W        W 5612   9.283   7.094   1.204
 2094W        W 5613   3.604   3.433   0.222
 2095W        W 5614   2.635   4.345   1.268
 2096W        W 5615   7.759   8.447   2.651
 2097W        W 5616   9.015   2.235  11.508
 2098W        W 5617   0.680   2.440   3.486
 2099W        W 5618   6.411   7.636   1.753
 2100W        W 5619   8.303   1.275   8.566
 2101W        W 5620   0.639   4.116   1.747
 2102W        W 5621   7.448   4.925  11.375
 2103W        W 5622   9.025   1.339  10.105
 2104W        W 5623   3.250   2.479   1.053
 2105W        W 5624   6.011   8.123  10.715
 2106W        W 5625   0.464   1.392   9.238
 2107W        W 5626   2.846   6.429  10.536
 2108W        W 5627   7.135   7.390   3.475
 2109W        W 5628   7.494   1.809   9.905
 2110W        W 5629   4.950   8.446   1.900
 2111W        W 5630   7.911   8.855   2.322
 2112W        W 5631   4.004   3.129   8.981
 2113W        W 5632   9.584   4.837  11.346
 2114W        W 5633   1.800   2.159  10.954
 2115W        W 5634   0.500   1.251  10.113
 2116W        W 5635   0.066   9.305   3.236
 2117W        W 5636   4.086   4.131  11.998
 2118W        W 5637   7.346   2.701   0.423
 2119W        W 5638   9.419   6.908  10.196
 2120W        W 5639   2.188   6.128   2.994
 2121W        W 5640   5.405   7.073   8.560
 2122W        W 5641   7.191   2.104   0.567
 2123W        W 5642   8.275   3.094   0.411
 2124W        W 5643   3.545   4.047   1.500
 2125W        W 5644   9.909   2.218   1.595
 2126W        W 5645   0.750   2.844   1.695
 2127W        W 5646   5.135   3.831  11.487
 2128W        W 5647   2.482   2.791   2.288
 2129W        W 5648   5.106   8.225   0.675
 2130W        W 5649   2.790   1.353   1.376
 2131W        W 5650   6.412   7.515   0.811
 2132W        W 5651   5.700   5.612  11.977
 2133W        W 5652   8.902   2.202  10.891
 2134W        W 5653   1.679   6.591   9.753
 2135W        W 5654   6.443   3.697  10.507
 2136W        W 5655   0.819   5.383   2.453
 2137W        W 5656   0.820   1.265  11.744
 2138W        W 5657   0.334   5.083   3.162
 2139W        W 5658   9.069   5.664   9.066
 2140W        W 5659   5.666   9.865  10.995
 2141W        W 5660   5.226   4.956   0.540
 2142W        W 5661   4.275   7.804   1.610
 2143W        W 5662   2.051   4.857   2.792
 2144W        W 5663   1.804   7.000   2.781
 2145W        W 5664   8.089   8.701   0.910
 2146W        W 5665   8.302   9.205   8.626
 2147W        W 5666   1.874   5.224  11.246
 2148W        W 5667   5.445   8.439   2.122
 2149W        W 5668   3.476   2.400   8.732
 2150W        W 5669   4.796   8.383   9.065
 2151W        W 5670   1.866   9.594  11.095
 2152W        W 5671   8.975   7.148   2.802
 2153W        W 5672   2.782   3.046  10.457
 2154W        W 5673   6.605   4.289   3.149
 2155W        W 5674   9.120   4.913   3.178
 2156W        W 5675   5.807   6.126   4.077
 2157W        W 5676   8.791   7.886   1.961
 2158W        W 5677   0.831   6.085   0.844
 2159W        W 5678   1.229   2.560  10.316
 2160W        W 5679   7.276   9.863   9.018
 2161W        W 5680   0.277   9.274   1.614
 2162W        W 5681   1.582   8.901  10.948
 2163W        W 5682   3.206   5.664   1.440
 2164W        W 5683   3.340   0.403   9.046
 2165W        W 5684   3.295   9.693   3.124
 2166W        W 5685   7.254   1.558   8.635
 2167W        W 5686   2.334   4.865   9.191
 2168W        W 5687   8.491   4.865   9.035
 2169W        W 5688   0.263   8.842   0.166
 2170W        W 5689   9.832   4.147   9.798
 2171W        W 5690   5.901   1.908   0.490
 2172W        W 5691   3.550   0.169   2.455
 2173W        W 5692   4.185   0.227   0.796
 2174W        W 5693   9.340   9.018   1.072
 2175W        W 5694   3.626   9.564   9.876
 2176W        W 5695   1.044   4.733  11.569
 2177W        W 5696   7.996   6.371   1.252
 2178W        W 5697   1.333   4.257  10.500
 2179W        W 5698   9.357   2.683   0.555
 2180W        W 5699   3.858   1.230   0.727
 2181W        W 5700   2.329   5.412   1.528
 2182W        W 5701   0.559   8.098   2.928
 2183W        W 5702   4.119   1.929   8.535
 2184W        W 5703   9.506   0.599   3.080
 2185W        W 5704   0.920   6.358   9.840
 2186W        W 5705   6.165   9.970  11.808
 2187W        W 5706   6.234   6.662  10.177
 2188W        W 5707   9.260   7.135   0.390
 2189W        W 5708   2.246   9.631   0.356
 2190W        W 5709   6.576   3.327   1.706
 2191W        W 5710   8.227   4.804   0.652
 2192W        W 5711   4.505   7.638   9.490
 2193W        W 5712   7.964   1.397   9.196
 2194W        W 5713   7.089   2.621  11.673
 2195W        W 5714   3.457   6.479   3.116
 2196W        W 5715   7.024   5.140   2.769
 2197W        W 5716   7.134   2.656  11.177
 2198W        W 5717   9.831   9.406   8.326
 2199W        W 5718   8.892   4.554   8.779
 2200W        W 5719   6.232   8.270   1.810
 2201W        W 5720   3.534   7.412   2.606
 2202W        W 5721   6.476   3.187   2.218
 2203W        W 5722   6.533   5.020   0.175
 2204W        W 5723   5.943   5.655  10.406
 2205W        W 5724   9.897   0.757   9.860
 2206W        W 5725   2.177   0.638   0.482
 2207W        W 5726   2.595   8.237  11.764
 2208W        W 5727   1.245   6.831   9.523
 2209W        W 5728   2.668   9.104   1.522
 2210W        W 5729   7.542   4.255  10.463
 2211W        W 5730   8.308   1.001   1.389
 2212W        W 5731   6.309   7.409  11.905
 2213W        W 5732   0.948   2.197   0.043
 2214W        W 5733   2.709   5.015   3.664
 2215W        W 5734   5.059   8.516  10.058
 2216W        W 5735   0.277   7.386   8.859
 2217W        W 5736   7.433   2.328   9.951
 2218W        W 5737   9.212   3.781   1.758
 2219W        W 5738   0.081   1.750   1.666
 2220W        W 5739   2.515   7.912   3.390
 2221W        W 5740   9.889   2.152   1.040
 2222W        W 5741   5.496   8.785  10.061
 2223W        W 5742   5.355   4.189   2.902
 2224W        W 5743   1.150   6.959  11.298
 2225W        W 5744   3.758   5.021   0.382
 2226W        W 5745   3.575   3.080  10.332
 2227W        W 5746   8.393   0.926   9.883
 2228W        W 5747   7.595   6.056   1.170
 2229W        W 5748   2.601   6.483  11.505
 2230W        W 5749   8.951   7.918   9.758
 2231W        W 5750   7.166   9.701   1.713
 2232W        W 5751   4.672   9.733  10.814
 2233W        W 5752   4.845   9.875   9.684
 2234W        W 5753   5.458   6.664   3.250
 2235W        W 5754   9.438   7.378   2.203
 2236W        W 5755   0.004   2.985   0.517
 2237W        W 5756   4.572   6.540  10.885
 2238W        W 5757   5.317   6.172  10.707
 2239W        W 5758   3.059   2.162   3.978
 2240W        W 5759   4.499   5.086   1.259
 2241W        W 5760   1.025   5.608   0.901
 2242W        W 5761   9.434   7.030  11.747
 2243W        W 5762   2.264   0.735  11.558
 2244W        W 5763   6.790   7.717   3.687
 2245W        W 5764   4.446   8.211  11.344
 2246W        W 5765   1.657   3.932  10.240
 2247W        W 5766   3.617   9.375  10.783
 2248W        W 5767   0.968   0.879  10.784
 2249W        W 5768   5.876   9.802   9.569
 2250W        W 5769   9.562   8.879   8.955
 2251W        W 5770   7.599   6.761   9.487
 2252W        W 5771   5.518   8.496   1.116
 2253W        W 5772   7.482   2.784   1.113
 2254W        W 5773   7.380   1.849   0.048
 2255W        W 5774   8.865   3.768   0.488
 2256W        W 5775   3.431   5.435   4.007
 2257W        W 5776   0.527   9.469   9.681
 2258W        W 5777   7.382   9.346  10.792
 2259W        W 5778   8.010   3.563   1.788
 2260W        W 5779   8.062   8.211  10.969
 2261W        W 5780   7.848   9.371  10.362
 2262W        W 5781   2.786   0.970  11.443
 2263W        W 5782   0.424   8.822   8.955
 2264W        W 5783   3.626   3.118   0.635
 2265W        W 5784   1.721   5.137   2.012
 2266W        W 5785   6.709   7.113   0.762
 2267W        W 5786   9.889   8.948   2.024
 2268W        W 5787   0.816   9.715   9.268
 2269W        W 5788   2.046   4.234  11.076
 2270W        W 5789   9.495   0.139  10.254
 2271W        W 5790   4.821   4.859   2.086
 2272W        W 5791   5.948   3.249   3.516
 2273W        W 5792   1.089   3.567   8.917
 2274W        W 5793   8.161   8.020   8.614
 2275W        W 5794   2.208   9.144  11.780
 2276W        W 5795   1.279   8.837   2.037
 2277W        W 5796   1.189   8.899   3.071
 2278W        W 5797   9.841   9.298   0.786
 2279W        W 5798   8.625   1.636  11.209
 2280W        W 5799   8.677   5.229   0.150
 2281W        W 5800   5.800   1.553  10.394
 2282W        W 5801   0.986   8.994  10.484
 2283W        W 5802   7.140   4.644   9.670
 2284W        W 5803   1.381   5.314   9.541
 2285W        W 5804   0.998   1.819  10.758
 2286W        W 5805   4.668   4.727   3.474
 2287W        W 5806   2.619   3.787   2.732
 2288W        W 5807   2.356   6.844  11.772
 2289W        W 5808   8.342   8.441   1.321
 2290W        W 5809   4.248   7.643   2.318
 2291W        W 5810   2.821   2.322  11.884
 2292W        W 5811   0.909   3.148   0.945
 2293W        W 5812   6.049   2.250   8.962
 2294W        W 5813   9.266   5.527  11.846
 2295W        W 5814   1.760   0.781  11.748
 2296W        W 5815   0.965   9.288   0.171
 2297W        W 5816   8.939   2.646   3.459
 2298W        W 5817   6.277   1.252   8.551
 2299W        W 5818   5.768   5.810   3.643
 2300W        W 5819   3.559   4.589   8.346
 2301W        W 5820   8.035   9.188   0.823
 2302W        W 5821   2.338   4.437   0.235
 2303W        W 5822   9.089   8.324   2.612
 2304W        W 5823   4.130   6.279  11.132
 2305W        W 5824   5.583   7.984  11.426
 2306W        W 5825   2.674   7.284  10.287
 2307W        W 5826   6.708   0.520   9.925
 2308W        W 5827   7.749   7.846   9.064
 2309W        W 5828   2.461   8.541   9.554
 2310W        W 5829   0.986   6.011   3.450
 2311W        W 5830   7.906   3.770  10.052
 2312W        W 5831   6.790   8.297  10.363
 2313W        W 5832   3.265   7.037  10.052
 2314W        W 5833   0.210   8.983   0.653
 2315W        W 5834   8.299   3.781   9.729
 2316W        W 5835   8.472   4.308   3.157
 2317W        W 5836   8.514   6.624  10.624
 2318W        W 5837   5.340   7.535   9.796
 2319W        W 5838   8.993   7.951   2.929
 2320W        W 5839   4.178   2.517  11.990
 2321W        W 5840   7.858   9.157  10.841
 2322W        W 5841   1.298   4.057   0.898
 2323W        W 5842   3.315   5.806   3.647
 2324W        W 5843   6.058   8.605  10.929
 2325W        W 5844   6.510   2.959   1.054
 2326W        W 5845   8.931   6.726   8.374
 2327W        W 5846   6.673   3.649  11.020
 2328W        W 5847   9.794   3.947   2.396
 2329W        W 5848   8.457   3.141  10.950
 2330W        W 5849   1.375   7.016   2.113
 2331W        W 5850   3.102   3.841   2.775
 2332W        W 5851   2.398   6.198  10.693
 2333W        W 5852   0.270   7.497   0.943
 2334W        W 5853   7.844   6.977   9.882
 2335W        W 5854   9.889   8.558  10.001
 2336W        W 5855   3.268   6.136  10.048
 2337W        W 5856   5.970   8.971  10.171
 2338W        W 5857   3.823   3.817  11.295
 2339W        W 5858   7.440   4.979   9.371
 2340W        W 5859   0.345   0.216   1.335
 2341W        W 5860   3.307   0.351   8.529
 2342W        W 5861   5.410   5.728   8.540
 2343W        W 5862   7.493   1.339   9.025
 2344W        W 5863   5.595   5.476   8.936
 2345W        W 5864   9.434   7.066   2.600
 2346W        W 5865   9.896   3.431   2.440
 2347W        W 5866   7.099   6.912   1.719
 2348W        W 5867   3.703   1.273  10.921
 2349W        W 5868   7.912   6.157  11.869
 2350W        W 5869   4.441   5.363  11.281
 2351W        W 5870   6.927   6.919   9.507
 2352W        W 5871   8.441   7.506   8.825
 2353W        W 5872   4.448   2.286  11.125
 2354W        W 5873   9.542   8.751   0.144
 2355W        W 5874   4.608   9.023   1.411
 2356W        W 5875   2.826   5.302   1.648
 2357W        W 5876   1.537   0.421  11.107
 2358W        W 5877   0.229   4.571   0.515
 2359W        W 5878   3.367   5.819   0.079
 2360W        W 5879   6.021   3.706   2.716
 2361W        W 5880   1.762   8.257   3.441
 2362W        W 5881   1.975   4.890  10.785
 2363W        W 5882   3.280   1.787   2.170
 2364W        W 5883   8.420   9.224  10.452
 2365W        W 5884   4.228   8.516   3.403
 2366W        W 5885   1.893   4.208   0.983
 2367W        W 5886   8.827   1.091   0.893
 2368W        W 5887   1.588   8.891   9.943
 2369W        W 5888   5.882   0.727   3.265
 2370W        W 5889   5.510   5.374  10.612
 2371W        W 5890   7.595   9.720   1.341
 2372W        W 5891   9.412   8.017   9.526
 2373W        W 5892   0.710   5.679  10.463
 2374W        W 5893   2.069   4.178   1.969
 2375W        W 5894   3.797   1.210  10.076
 2376W        W 5895   7.360   5.127  10.305
 2377W        W 5896   7.887   0.713   9.842
 2378W        W 5897   0.623   0.198   9.366
 2379W        W 5898   9.890   8.369   1.346
 2380W        W 5899   9.448   9.849   9.370
 2381W        W 5900   8.121   7.547  11.919
 2382W        W 5901   9.468   4.507   0.925
 2383W        W 5902   0.084   3.503   1.480
 2384W        W 5903   9.867   7.880   9.798
 2385W        W 5904   8.045   5.807   9.069
 2386W        W 5905   0.443   0.175  10.422
 2387W        W 5906   5.594   4.591   9.433
 2388W        W 5907   5.638   3.524  10.802
 2389W        W 5908   9.116   7.538   9.493
 2390W        W 5909   6.658   4.779   3.902
 2391W        W 5910   1.620   1.388   3.075
 2392W        W 5911   2.590   2.307   2.233
 2393W        W 5912   0.112   6.384  10.204
 2394W        W 5913   4.956   3.188   2.004
 2395W        W 5914   8.639   0.732   1.675
 2396W        W 5915   2.048   1.354   9.493
 2397W        W 5916   5.073   4.696   9.673
 2398W        W 5917   7.330   6.550   9.119
 2399W        W 5918   2.983   1.328  10.357
 2400W        W 5919   3.651   4.695  11.567
 2401W        W 5920   3.738   1.536   9.662
 2402W        W 5921   1.967   2.142  11.865
 2403W        W 5922   4.293   4.963   3.734
 2404W        W 5923   8.063   4.112  11.079
 2405W        W 5924   7.545   3.985   2.816
 2406W        W 5925   6.196   2.974  11.400
 2407W        W 5926   9.740   7.520  10.751
 2408W        W 5927   8.758   1.682   1.759
 2409W        W 5928   7.470   5.663   1.466
 2410W        W 5929   3.016   8.274   1.134
 2411W        W 5930   4.510   1.559   8.586
 2412W        W 5931   3.126   9.959   2.161
 2413W        W 5932   0.961   2.865   2.153
 2414W        W 5933   7.030   3.951   3.736
 2415W        W 5934   5.433   1.815   3.854
 2416W        W 5935   6.961   5.572  10.920
 2417W        W 5936   7.234   5.690   3.142
 2418W        W 5937   9.264   4.178   8.610
 2419W        W 5938   7.203   3.758   9.235
 2420W        W 5939   8.587   9.801   9.234
 2421W        W 5940   9.752   5.201   2.551
 2422W        W 5941   5.125   1.003  10.408
 2423W        W 5942   8.949   6.032   3.202
 2424W        W 5943   5.079   9.668   3.501
 2425W        W 5944   1.319   8.363   3.195
 2426W        W 5945   8.578   5.709   9.845
 2427W        W 5946   7.488   7.776   9.539
 2428W        W 5947   9.279   9.313  10.195
 2429W        W 5948   3.705   7.258  11.574
 2430W        W 5949   4.386   3.646   7.955
 2431W        W 5950   4.450   7.957   9.081
 2432W        W 5951   5.928   5.923   3.177
 2433W        W 5952   6.634   9.827   8.750
 2434W        W 5953   1.499   5.768  10.893
 2435W        W 5954   0.903   1.985   9.771
 2436W        W 5955   3.590   5.773  10.313
 2437W        W 5956   2.356   9.346   0.744
 2438W        W 5957   1.151   1.092   2.491
 2439W        W 5958   1.732   3.568   2.795
 2440W        W 5959   1.876   0.818  11.204
 2441W        W 5960   4.639   4.608   9.358
 2442W        W 5961   0.763   9.312   3.376
 2443W        W 5962   6.516   7.135   0.278
 2444W        W 5963   1.402   7.087   0.658
 2445W        W 5964   1.809   7.622  11.777
 2446W        W 5965   2.070   7.006  11.297
 2447W        W 5966   3.775   1.808   1.926
 2448W        W 5967   3.086   7.623   1.846
 2449W        W 5968   2.167   8.405  10.383
 2450W        W 5969   7.442   9.001   8.308
 2451W        W 5970   7.433   9.874  10.025
 2452W        W 5971   1.471   6.661  11.005
 2453W        W 5972   7.708   9.318   2.533
 2454W        W 5973   1.662   9.765   2.246
 2455W        W 5974   8.173   6.608  10.001
 2456W        W 5975   7.626   6.988   0.836
 2457W        W 5976   8.416   5.216   9.441
 2458W        W 5977   6.104   1.020   1.330
 2459W        W 5978   5.899   7.650   0.907
 2460W        W 5979   4.100   4.153   9.369
 2461W        W 5980   7.693   9.373   2.023
 2462W        W 5981   9.355   0.423   0.360
 2463W        W 5982   5.480   3.360   8.536
 2464W        W 5983   1.453   2.195  11.913
 2465W        W 5984   6.903   1.850   0.230
 2466W        W 5985   7.201   4.067   0.703
 2467W        W 5986   7.028   7.946   9.337
 2468W        W 5987   9.383   2.207   1.319
 2469W        W 5988   1.750   3.855  11.241
 2470W        W 5989   3.655   9.742  10.411
 2471W        W 5990   2.216   6.148   2.489
 2472W        W 5991   7.450   8.692   0.225
 2473W        W 5992   1.215   4.613   2.961
 2474W        W 5993   9.344   3.849  11.778
 2475W        W 5994   6.264   0.490   2.473
 2476W        W 5995   4.791   7.671   3.400
 2477W        W 5996   3.701   2.913   0.173
 2478W        W 5997   9.459   1.073  10.335
 2479W        W 5998   7.283   7.047   9.179
 2480W        W 5999   3.583   6.305   9.560
 2481W        W 6000   5.468   6.156   3.283
 2482W        W 6001   1.482   3.911   8.770
 2483W        W 6002   6.506   4.330  11.521
 2484W        W 6003   5.982   0.531   1.497
 2485W        W 6004   6.299   4.357   9.881
 2486W        W 6005   1.905   7.009   9.974
 2487W        W 6006   2.690   5.748   1.414
 2488W        W 6007   3.375   6.923   9.572
 2489W        W 6008   2.697   9.582  10.302
 2490W        W 6009   8.435   8.952   3.132
 2491W        W 6010   9.739   6.998   9.473
 2492W        W 6011   6.202   9.320   3.787
 2493W        W 6012   5.631   8.743   3.500
 2494W        W 6013   4.945   5.906  11.983
 2495W        W 6014   4.590   1.185   1.471
 2496W        W 6015   7.063   4.349   3.414
 2497W        W 6016   3.547   4.189   3.281
 2498W        W 6017   8.823   3.482   1.031
 2499W        W 6018   5.451   8.446   9.690
 2500W        W 6019   2.640   2.232   0.441
 2501W        W 6020   3.180   0.722  11.901
 2502W        W 6021   6.048   6.915   0.415
 2503W        W 6022   8.704   9.132   0.224
 2504W        W 6023   8.495   7.542   2.261
 2505W        W 6024   0.260   6.900  10.299
 2506W        W 6025   1.464   2.868   2.100
 2507W        W 6026   0.024   3.814   3.529
 2508W        W 6027   8.578   1.205   1.901
 2509W        W 6028   9.017   6.033   0.363
 2510W        W 6029   1.131   6.544   9.107
 2511W        W 6030   5.924   3.581   8.695
 2512W        W 6031   4.076   8.922   0.314
 2513W        W 6032   8.363   1.893   1.136
 2514W        W 6033   8.715   8.244  10.070
 2515W        W 6034   8.027   2.322   3.192
 2516W        W 6035   6.854   3.459   9.546
 2517W        W 6036   0.928   6.681   8.645
 2518W        W 6037   7.946   5.002   9.559
 2519W        W 6038   8.143   0.842  11.508
 2520W        W 6039   2.722   3.571   0.566
 2521W        W 6040   0.668   8.865   0.457
 2522W        W 6041   7.430   2.175  10.826
 2523W        W 6042   4.678   3.606   1.942
 2524W        W 6043   7.294   6.013   8.441
 2525W        W 6044   1.178   7.428   0.996
 2526W        W 6045   0.560   0.841  11.968
 2527W        W 6046   1.489   3.386   8.624
 2528W        W 6047   8.960   8.174   1.199
 2529W        W 6048   3.996   3.814   2.583
 2530W        W 6049   7.278   7.540   1.200
 2531W        W 6050   9.486   8.363  11.812
 2532W        W 6051   5.110   8.081   8.577
 2533W        W 6052   4.718   3.676   0.740
 2534W        W 6053   6.307   5.695  10.046
 2535W        W 6054   5.228   1.825  11.371
 2536W        W 6055   0.756   8.101   1.585
 2537W        W 6056   3.454   7.674   9.286
 2538W        W 6057   5.855   2.338   2.687
 2539W        W 6058   7.995   4.413  10.663
 2540W        W 6059   2.689   6.121   0.632
 2541W        W 6060   7.755   9.372   3.043
 2542W        W 6061   4.513   5.251   2.267
 2543W        W 6062   3.100   1.375   1.784
 2544W        W 6063   4.977   0.046   8.644
 2545W        W 6064   7.513   2.931  11.029
 2546W        W 6065   2.322   6.664  10.990
 2547W        W 6066   1.386   7.182  11.694
 2548W        W 6067   9.500   6.941   8.731
 2549W        W 6068   6.480   1.176   2.175
 2550W        W 6069   0.645   7.137  11.348
 2551W        W 6070   2.112   8.809  10.948
 2552W        W 6071   4.447   7.369   2.716
 2553W        W 6072   5.623   4.031  10.423
 2554W        W 6073   8.028   7.319  10.239
 2555W        W 6074   0.616   8.978   0.945
 2556W        W 6075   2.795   3.200   9.180
 2557W        W 6076   5.452   0.683   2.957
 2558W        W 6077   6.043   2.789   1.125
 2559W        W 6078   7.377   3.258   2.188
 2560W        W 6079   9.249   0.940   3.368
 2561W        W 6080   5.453   4.095   9.305
 2562W        W 6081   1.049   4.531   1.012
 2563W        W 6082   6.970   2.081   1.902
 2564W        W 6083   4.216   2.303   0.454
 2565W        W 6084   6.472   5.301   0.596
 2566W        W 6085   6.501   7.976   1.005
 2567W        W 6086   5.993   8.293   0.260
 2568W        W 6087   2.561   1.252   0.867
 2569W        W 6088   6.683   6.423   3.752
 2570W        W 6089   5.845   4.826   8.899
 2571W        W 6090   5.435   0.316   8.756
 2572W        W 6091   8.388   6.328  11.628
 2573W        W 6092   6.472   9.765  10.448
 2574W        W 6093   7.178   5.656   0.540
 2575W        W 6094   0.352   6.943  11.767
 2576W        W 6095   7.074   1.597   1.775
 2577W        W 6096   8.114   1.106   2.149
 2578W        W 6097   5.723   3.082   9.457
 2579W        W 6098   8.848   9.575   2.722
 2580W        W 6099   4.095   3.667   3.094
 2581W        W 6100   9.353   4.008  10.313
 2582W        W 6101   4.143   3.320  11.456
 2583W        W 6102   6.533   7.101   2.478
 2584W        W 6103   1.858   3.097   8.871
 2585W        W 6104   8.174   2.226  10.916
 2586W        W 6105   2.245   6.980   3.054
 2587W        W 6106   7.795   1.243  11.510
 2588W        W 6107   0.423   1.147   2.031
 2589W        W 6108   8.977   1.263  11.121
 2590W        W 6109   3.649   3.196   9.821
 2591W        W 6110   3.530   4.314   1.940
 2592W        W 6111   1.307   6.587  10.098
 2593W        W 6112   2.144   8.925   2.605
 2594W        W 6113   4.357   1.141   0.999
 2595W        W 6114   1.324   2.907   9.006
 2596W        W 6115   7.110   6.560   3.037
 2597W        W 6116   5.481   6.133  11.180
 2598W        W 6117   8.455   6.034   3.341
 2599W        W 6118   7.554   3.415  10.933
 2600W        W 6119   7.065   2.547   0.832
 2601W        W 6120   3.658   2.110   2.325
 2602W        W 6121   5.638   3.618   9.428
 2603W        W 6122   4.311   3.668  10.113
 2604W        W 6123   0.774   7.897   0.524
 2605W        W 6124   6.638   2.133   2.314
 2606W        W 6125   6.540   7.910  11.040
 2607W        W 6126   9.834   4.179  10.303
 2608W        W 6127   9.750   1.171   9.539
 2609W        W 6128   9.427   2.221   0.798
 2610W        W 6129   5.203   9.231   0.823
 2611W        W 6130   1.133   0.182   9.368
 2612W        W 6131   1.177   4.728   1.460
 2613W        W 6132   9.920   8.300   9.498
 2614W        W 6133   9.919   2.628  11.307
 2615W        W 6134   3.868   5.083   3.001
 2616W        W 6135   7.006   5.954   7.998
 2617W        W 6136   9.399   7.916  11.529
 2618W        W 6137   4.597   5.922   3.671
 2619W        W 6138   4.590   2.069   1.375
 2620W        W 6139   7.567   1.744   0.525
 2621W        W 6140   3.002   5.719  11.737
 2622W        W 6141   2.123   7.911   9.169
 2623W        W 6142   6.861   1.452   3.884
 2624W        W 6143   2.556   2.835  11.739
 2625W        W 6144   3.176   3.311   1.210
 2626W        W 6145   1.825   5.939   3.812
 2627W        W 6146   1.580   4.829   9.486
 2628W        W 6147   9.904   1.474   0.463
 2629W        W 6148   1.356   9.791  10.044
 2630W        W 6149   1.316   5.814   9.558
 2631W        W 6150   9.570   3.909   8.999
 2632W        W 6151   0.995   8.456   2.782
 2633W        W 6152   7.868   5.189  10.145
 2634W        W 6153   8.322   6.082   8.407
 2635W        W 6154   7.094   6.544   9.792
 2636W        W 6155   7.504   7.127   3.229
 2637W        W 6156   0.583   7.139   3.698
 2638W        W 6157   9.756   0.645  10.345
 2639W        W 6158   2.617   7.439   1.943
 2640W        W 6159   1.723   6.134   0.194
 2641W        W 6160   2.626   5.522  11.464
 2642W        W 6161   3.190   9.458   9.036
 2643W        W 6162   1.966   5.949  10.877
 2644W        W 6163   9.012   8.367   9.524
 2645W        W 6164   3.033   7.781   0.480
 2646W        W 6165   1.289   8.812   9.537
 2647W        W 6166   9.375   3.972  11.271
 2648W        W 6167   0.268   9.396  10.122
 2649W        W 6168   1.775   3.956  10.733
 2650W        W 6169   0.262   6.555   9.429
 2651W        W 6170   7.645   0.835  10.311
 2652W        W 6171   7.764   5.079   2.039
 2653W        W 6172   5.561   1.146   3.097
 2654W        W 6173   9.906   0.759   9.264
 2655W        W 6174   3.277   2.218   2.996
 2656W        W 6175   7.474   1.705   3.394
 2657W        W 6176   2.678   0.064   2.695
 2658W        W 6177   7.790   5.337   3.335
 2659W        W 6178   8.082   8.057  11.445
 2660W        W 6179   5.334   6.197   1.295
 2661W        W 6180   4.135   7.110   3.246
 2662W        W 6181   0.362   7.704   1.427
 2663W        W 6182   5.123   3.150   3.635
 2664W        W 6183   7.487   3.173   0.735
 2665W        W 6184   2.230   7.400   1.067
 2666W        W 6185   6.762   9.323   9.534
 2667W        W 6186   1.441   1.486   2.596
 2668W        W 6187   3.566   7.804  11.666
 2669W        W 6188   9.874   9.692   3.524
 2670W        W 6189   5.538   8.778   8.899
 2671W        W 6190   5.015   6.536  10.038
 2672W        W 6191   0.527   0.192   1.858
 2673W        W 6192   2.104   8.724   0.055
 2674W        W 6193   9.764   4.981   9.669
 2675W        W 6194   9.891   7.355   9.853
 2676W        W 6195   5.680   2.646   9.024
 2677W        W 6196   7.462   1.628  10.686
 2678W        W 6197   9.267   7.488  10.896
 2679W        W 6198   7.551   5.751   9.362
 2680W        W 6199   7.715   6.553   2.401
 2681W        W 6200   0.840   6.142   1.915
 2682W        W 6201   1.691   1.940   1.027
 2683W        W 6202   2.328   7.562  10.540
 2684W        W 6203   1.027   5.406  10.159
 2685W        W 6204   6.965   7.789  10.314
 2686W        W 6205   0.944   1.764   8.497
 2687W        W 6206   5.899   1.072   0.856
 2688W        W 6207   6.550   9.812   1.812
 2689W        W 6208   2.652   9.811  11.365
 2690W        W 6209   0.917   9.989  10.235
 2691W        W 6210   6.125   6.646   0.884
 2692W        W 6211   9.398   4.390  11.580
 2693W        W 6212   8.085   3.912  10.562
 2694W        W 6213   7.965   3.669   2.844
 2695W        W 6214   0.552   3.758   2.592
 2696W        W 6215   9.316   9.763   9.939
 2697W        W 6216   0.283   1.175  11.707
 2698W        W 6217   6.728   7.002  10.637
 2699W        W 6218   8.941   4.238  10.115
 2700W        W 6219   3.134   2.383  10.577
 2701W        W 6220   4.217   0.640  11.993
 2702W        W 6221   4.380   3.997   2.843
 2703W        W 6222   0.007   9.343  10.558
 2704W        W 6223   2.132   8.575   2.186
 2705W        W 6224   0.533   3.063   9.976
 2706W        W 6225   0.581   4.965   1.551
 2707W        W 6226   5.337   5.263  10.104
 2708W        W 6227   1.158   6.541   3.592
 2709W        W 6228   1.052   5.160   1.678
 2710W        W 6229   3.383   0.282   2.919
 2711W        W 6230   8.870   6.934   1.628
 2712W        W 6231   4.497   9.526  11.788
 2713W        W 6232   0.741   5.326   2.941
 2714W        W 6233   9.658   1.725   0.828
 2715W        W 6234   7.103   7.306   2.489
 2716W        W 6235   8.307   1.916  10.254
 2717W        W 6236   6.080   2.801   2.662
 2718W        W 6237   5.525   9.057   3.075
 2719W        W 6238   6.491   9.443   0.523
 2720W        W 6239   5.647   1.433   1.113
 2721W        W 6240   0.613   2.829   1.203
 2722W        W 6241   2.418   7.009   9.232
 2723W        W 6242   5.515   9.285   8.799
 2724W        W 6243   3.914   1.274  11.790
 2725W        W 6244   7.708   7.135  11.323
 2726W        W 6245   7.299   1.153   9.467
 2727W        W 6246   6.444   5.603  10.552
 2728W        W 6247   6.210   0.867   8.877
 2729W        W 6248   2.760   0.963   3.315
 2730W        W 6249   3.025   8.075  11.999
 2731W        W 6250   2.790   7.442  10.769
 2732W        W 6251   1.115   2.740   1.207
 2733W        W 6252   8.917   4.945   1.370
 2734W        W 6253   2.601   6.031   8.837
 2735W        W 6254   4.059   7.517  10.233
 2736W        W 6255   1.190   8.314   1.895
 2737W        W 6256   6.941   8.482   1.380
 2738W        W 6257   9.572   7.802   8.604
 2739W        W 6258   0.878   0.229   2.291
 2740W        W 6259   6.709   7.242   1.650
 2741W        W 6260   1.072   8.873  10.967
 2742W        W 6261   3.733   0.628   9.284
 2743W        W 6262   5.650   4.469   2.025
 2744W        W 6263   0.077   0.863  11.277
 2745W        W 6264   1.962   3.372  10.921
 2746W        W 6265   0.172   7.760  10.996
 2747W        W 6266   4.492   5.039  10.298
 2748W        W 6267   5.482   9.688  10.532
 2749W        W 6268   9.768   5.441   9.456
 2750W        W 6269   4.714   2.061   8.576
 2751W        W 6270   5.112   0.782   1.424
 2752W        W 6271   3.180   5.602   9.260
 2753W        W 6272   0.618   6.552   0.906
 2754W        W 6273   3.669   1.649   9.158
 2755W        W 6274   9.090   0.456   3.376
 2756W        W 6275   0.775   1.196   0.279
 2757W        W 6276   6.179   4.989  10.682
 2758W        W 6277   0.416   1.450   2.465
 2759W        W 6278   5.511   0.691  10.583
 2760W        W 6279   9.982   6.409   2.934
 2761W        W 6280   9.177   5.561   1.916
 2762W        W 6281   2.818   8.481   0.212
 2763W        W 6282   9.029   6.546   0.220
 2764W        W 6283   0.860   4.132  10.759
 2765W        W 6284   4.953   0.399   0.353
 2766W        W 6285   3.474   5.074   0.796
 2767W        W 6286   4.947   6.921  10.978
 2768W        W 6287   0.253   5.920  10.443
 2769W        W 6288   8.780   2.973   1.712
 2770W        W 6289   7.653   4.283  11.789
 2771W        W 6290   3.086   2.528  11.083
 2772W        W 6291   9.831   7.990  11.838
 2773W        W 6292   6.509   6.476   9.042
 2774W        W 6293   6.152   4.173  10.437
 2775W        W 6294   0.738   8.173  10.484
 2776W        W 6295   2.032   5.538   1.953
 2777W        W 6296   1.495   8.885  10.447
 2778W        W 6297   2.212   7.705   0.064
 2779W        W 6298   9.043   8.761   0.027
 2780W        W 6299   0.888   3.883   3.450
 2781W        W 6300   9.817   7.898   3.557
 2782W        W 6301   1.795   4.230   1.523
 2783W        W 6302   8.367   0.815   0.901
 2784W        W 6303   3.978   5.972   2.605
 2785W        W 6304   4.376   6.024   1.752
 2786W        W 6305   4.563   0.812   8.803
 2787W        W 6306   3.657   5.864   0.979
 2788W        W 6307   0.366   1.356   0.654
 2789W        W 6308   7.548   6.564   1.108
 2790W        W 6309   2.674   6.165   1.132
 2791W        W 6310   0.165   8.954   2.870
 2792W        W 6311   0.562   5.678   8.885
 2793W        W 6312   8.796   1.260   9.651
 2794W        W 6313   2.644   0.208   0.699
 2795W        W 6314   6.743   7.549   1.210
 2796W        W 6315   2.715   6.657   1.306
 2797W        W 6316   6.258   8.753   1.596
 2798W        W 6317   1.806   2.832   1.702
 2799W        W 6318   4.752   2.933   9.415
 2800W        W 6319   0.636   7.525   9.200
 2801W        W 6320   3.391   3.850  10.597
 2802W        W 6321   4.262   5.840  11.402
 2803W        W 6322   6.066   9.360   9.836
 2804W        W 6323   6.244   4.615   1.279
 2805W        W 6324   8.226   5.051   3.331
 2806W        W 6325   7.896   4.382   2.752
 2807W        W 6326   9.294   0.166  11.902
 2808W        W 6327   1.323   6.001   1.074
 2809W        W 6328   4.833   6.159   1.956
 2810W        W 6329   8.866   2.757   0.735
 2811W        W 6330   5.139   6.957   0.886
 2812W        W 6331   8.570   6.944   8.677
 2813W        W 6332   9.913   8.502  10.525
 2814W        W 6333   9.039   6.822  11.345
 2815W        W 6334   6.256   1.954   1.609
 2816W        W 6335   8.143   0.698   1.801
 2817W        W 6336   8.282   0.156  10.451
 2818W        W 6337   8.210   9.257   0.333
 2819W        W 6338   5.760   0.470   2.599
 2820W        W 6339   6.518   6.697   0.561
 2821W        W 6340   4.535   1.873  10.828
 2822W        W 6341   4.504   6.032   0.763
 2823W        W 6342   0.717   4.818   2.915
 2824W        W 6343   2.416   8.863  10.542
 2825W        W 6344   9.802   6.130  10.544
 2826W        W 6345   9.805   4.916   1.354
 2827W        W 6346   9.571   2.797   2.771
 2828W        W 6347   6.880   4.582  10.562
 2829W        W 6348   2.125   2.120   8.607
 2830W        W 6349   1.276   7.749   8.553
 2831W        W 6350   2.191   2.316   9.093
 2832W        W 6351   5.760   6.887  10.346
 2833W        W 6352   9.504   0.514   2.569
 2834W        W 6353   4.158   4.620   9.592
 2835W        W 6354   3.785   1.349   3.431
 2836W        W 6355   2.268   4.878   0.004
 2837W        W 6356   3.771   6.418   2.737
 2838W        W 6357   1.526   4.141   0.428
 2839W        W 6358   2.099   2.683   3.049
 2840W        W 6359   2.306   3.432   3.676
 2841W        W 6360   1.424   8.993   0.758
 2842W        W 6361   2.766   9.269   8.742
 2843W        W 6362   3.399   8.153  11.287
 2844W        W 6363   6.408   9.233   1.584
 2845W        W 6364   2.796   5.865   3.567
 2846W        W 6365   3.792   2.236  11.732
 2847W        W 6366   7.556   2.395   0.779
 2848W        W 6367   5.660   4.532   2.541
 2849W        W 6368   8.602   1.649   9.375
 2850W        W 6369   8.927   2.372   9.192
 2851W        W 6370   8.955   1.368   9.130
 2852W        W 6371   2.222   9.694   1.664
 2853W        W 6372   9.268   1.344   0.784
 2854W        W 6373   5.478   7.363   2.764
 2855W        W 6374   6.623   4.298   2.624
 2856W        W 6375   2.150   0.013   9.568
 2857W        W 6376   2.577   8.014   0.246
 2858W        W 6377   6.455   3.405   2.670
 2859W        W 6378   5.712   5.720   0.478
 2860W        W 6379   3.182   9.489  10.517
 2861W        W 6380   4.674   4.063   8.630
 2862W        W 6381   2.359   4.099   2.390
 2863W        W 6382   0.880   4.530   0.542
 2864W        W 6383   6.415   8.843   2.607
 2865W        W 6384   8.840   8.843   9.430
 2866W        W 6385   0.646   5.600  11.877
 2867W        W 6386   3.989   6.028   8.736
 2868W        W 6387   8.072   7.476   9.196
 2869W        W 6388   6.872   3.411   9.032
 2870W        W 6389   2.879   1.816  11.986
 2871W        W 6390   5.998   6.859   1.317
 2872W        W 6391   6.918   4.096  11.322
 2873W        W 6392   5.382   6.864   9.029
 2874W        W 6393   2.745   9.302  11.194
 2875W        W 6394   5.090   0.544   2.002
 2876W        W 6395   3.775   0.550  11.339
 2877W        W 6396   1.790   8.300   2.439
 2878W        W 6397   7.252   7.651  10.747
 2879W        W 6398   0.861   1.064   1.771
 2880W        W 6399   2.032   4.487   9.540
 2881W        W 6400   3.704   1.044  11.370
 2882W        W 6401   9.559   1.880   2.916
 2883W        W 6402   8.109   1.746   2.651
 2884W        W 6403   0.849   3.469   2.933
 2885W        W 6404   6.895   1.904   8.807
 2886W        W 6405   6.598   1.657  11.867
 2887W        W 6406   2.900   8.725  10.475
 2888W        W 6407   0.656   8.032   9.326
 2889W        W 6408   7.158   4.404  11.887
 2890W        W 6409   8.950   1.439   0.058
 2891W        W 6410   7.575   0.761   0.308
 2892W        W 6411   8.651   7.550   2.800
 2893W        W 6412   5.624   7.865  10.920
 2894W        W 6413   7.869   7.779   3.573
 2895W        W 6414   9.354   5.475   8.648
 2896W        W 6415   9.299   1.163   8.799
 2897W        W 6416   8.905   8.762   2.433
 2898W        W 6417   8.258   9.666  10.223
 2899W        W 6418   8.447   3.160   1.353
 2900W        W 6419   8.581   3.066   3.578
 2901W        W 6420   6.127   6.193   3.641
 2902W        W 6421   1.403   3.154   9.781
 2903W        W 6422   3.962   6.592   3.223
 2904W        W 6423   0.931   3.730   1.577
 2905W        W 6424   1.207   7.905   9.232
 2906W        W 6425   6.936   7.065   1.225
 2907W        W 6426   9.930   5.481   0.507
 2908W        W 6427   6.065   0.921   2.285
 2909W        W 6428   5.294   6.400   2.839
 2910W        W 6429   6.956   9.113   0.924
 2911W        W 6430   5.434   9.360   1.652
 2912W        W 6431   3.767   4.161   8.559
 2913W        W 6432   1.754   0.994   9.203
 2914W        W 6433   6.226   7.527   1.283
 2915W        W 6434   7.038   5.286   9.308
 2916W        W 6435   6.988   1.427  10.820
 2917W        W 6436   9.802   9.908   2.534
 2918W        W 6437   3.956   5.833   1.451
 2919W        W 6438   6.154   3.611  10.915
 2920W        W 6439   1.321   5.924  11.456
 2921W        W 6440   6.498   5.465  11.925
 2922W        W 6441   7.745   8.499  10.266
 2923W        W 6442   3.744   2.363   0.229
 2924W        W 6443   4.882   0.548   3.531
 2925W        W 6444   9.941   6.241   2.442
 2926W        W 6445   3.187   2.219   2.496
 2927W        W 6446   0.283   0.075  10.888
 2928W        W 6447   1.138   2.822   2.626
 2929W        W 6448   0.314   6.945   1.771
 2930W        W 6449   8.568   8.442  11.069
 2931W        W 6450   8.644   4.437   2.687
 2932W        W 6451   9.298   6.049  10.529
 2933W        W 6452   9.749   0.269   9.263
 2934W        W 6453   3.612   3.517   9.368
 2935W        W 6454   8.065   7.229   0.909
 2936W        W 6455   5.560   3.390  11.521
 2937W        W 6456   0.860   5.259   9.683
 2938W        W 6457   4.602   0.034  10.092
 2939W        W 6458   5.660   5.494   9.433
 2940W        W 6459   6.252   6.063   8.436
 2941W        W 6460   6.701   6.460   2.745
 2942W        W 6461   8.562   2.196  11.269
 2943W        W 6462   0.992   0.511   1.883
 2944W        W 6463   0.226   1.265   9.674
 2945W        W 6464   3.086   3.527   2.354
 2946W        W 6465   6.183   6.702   8.261
 2947W        W 6466   3.534   7.633   2.119
 2948W        W 6467   9.403   8.519   0.774
 2949W        W 6468   5.152   4.661   8.667
 2950W        W 6469   8.959   8.892   3.260
 2951W        W 6470   7.978   1.924   0.267
 2952W        W 6471   1.491   5.567   9.999
 2953W        W 6472   6.482   8.130   0.052
 2954W        W 6473   0.904   0.634   0.777
 2955W        W 6474   5.779   9.252   3.500
 2956W        W 6475   6.055   5.614   9.089
 2957W        W 6476   1.853   0.916   9.714
 2958W        W 6477   0.413   6.114   9.693
 2959W        W 6478   5.705   1.245   2.118
 2960W        W 6479   5.407   2.219  10.927
 2961W        W 6480   1.380   2.423   0.876
 2962W        W 6481   5.286   8.980  11.993
 2963W        W 6482   2.691   0.242   2.188
 2964W        W 6483   1.643   5.679   2.263
 2965W        W 6484   9.006   6.497   2.066
 2966W        W 6485   7.029   3.036   0.970
 2967W        W 6486   7.080   9.543  11.184
 2968W        W 6487   6.509   0.220  11.272
 2969W        W 6488   3.746   1.422   0.275
 2970W        W 6489   3.768   5.549   3.261
 2971W        W 6490   8.991   8.620  11.499
 2972W        W 6491   4.453   3.060  11.152
 2973W        W 6492   8.160   5.980   2.927
 2974W        W 6493   0.730   1.157   9.612
 2975W        W 6494   6.961   6.884   2.222
 2976W        W 6495   0.520   9.307   2.063
 2977W        W 6496   2.140   2.038  11.386
 2978W        W 6497   2.633   2.438  11.399
 2979W        W 6498   7.123   4.205  10.828
 2980W        W 6499   7.853   7.106  11.838
 2981W        W 6500   6.009   4.113  11.483
 2982W        W 6501   8.759   1.801   8.901
 2983W        W 6502   1.730   1.838   2.815
 2984W        W 6503   0.244   1.152   0.214
 2985W        W 6504   7.456   3.525   3.540
 2986W        W 6505   1.486   1.240  10.482
 2987W        W 6506   6.657   3.785   8.322
 2988W        W 6507   6.077   8.773   1.084
 2989W        W 6508   8.425   7.672  11.502
 2990W        W 6509   0.258   4.683   1.258
 2991W        W 6510   9.054   1.636   3.563
 2992W        W 6511   4.212   1.130   8.573
 2993W        W 6512   0.458   9.336   2.644
 2994W        W 6513   5.781   1.849   1.812
 2995W        W 6514   7.229   9.454   9.329
 2996W        W 6515   9.770   9.391  10.052
 2997W        W 6516   1.360   5.408  11.211
 2998W        W 6517   2.327   7.179  10.886
 2999W        W 6518   9.662   6.497   0.698
 3000W        W 6519   5.628   9.832   2.832
 3001W        W 6520   4.905   4.313   9.986
 3002W        W 6521   8.412   9.547   9.730
 3003W        W 6522   0.773   3.289   1.933
 3004W        W 6523   0.343   4.822   2.152
 3005W        W 6524   6.612   6.005  11.495
 3006W        W 6525   2.269   7.206   0.122
 3007W        W 6526   3.961   7.676  11.316
 3008W        W 6527   6.044   1.698  11.663
 3009W        W 6528   7.631   6.587  10.369
 3010W        W 6529   7.605   4.193   1.621
 3011W        W 6530   3.309   2.017   9.091
 3012W        W 6531   2.287   5.275   9.495
 3013W        W 6532   0.004   6.255  11.379
 3014W        W 6533   2.148   8.219   0.013
 3015W        W 6534   0.300   9.807   2.627
 3016W        W 6535   9.750   7.364   2.911
 3017W        W 6536   2.605   3.056   8.724
 3018W        W 6537   8.621   6.418   8.699
 3019W        W 6538   9.988   4.860   2.846
 3020W        W 6539   1.295   2.457   0.356
 3021W        W 6540   1.802   4.990   0.226
 3022W        W 6541   3.879   8.041   1.984
 3023W        W 6542   3.225   1.490  10.842
 3024W        W 6543   1.098   4.991   9.262
 3025W        W 6544   7.573   6.727  11.608
 3026W        W 6545   7.305   3.220   9.267
 3027W        W 6546   0.870   5.270   8.877
 3028W        W 6547   2.584   3.674   9.299
 3029W        W 6548   7.275   3.952  11.687
 3030W        W 6549   9.601   1.914   1.868
 3031W        W 6550   0.555   7.129   3.208
 3032W        W 6551   3.066   5.289  11.996
 3033W        W 6552   5.411   7.456   0.875
 3034W        W 6553   4.180   1.811   3.003
 3035W        W 6554   7.474   7.371   1.698
 3036W        W 6555   5.698   2.219   2.225
 3037W        W 6556   1.965   5.270   0.688
 3038W        W 6557   5.722   1.010   9.041
 3039W        W 6558   2.489   2.060   3.484
 3040W        W 6559   5.584   2.754   1.345
 3041W        W 6560   2.260   0.547   2.208
 3042W        W 6561   2.668   7.363   8.944
 3043W        W 6562   4.536   9.957   1.069
 3044W        W 6563   5.160   5.043   2.795
 3045W        W 6564   7.494   5.310   2.924
 3046W        W 6565   2.707   7.790  10.266
 3047W        W 6566   6.351   0.338   8.767
 3048W        W 6567   9.203   9.745   8.455
 3049W        W 6568   0.006   1.718  11.202
 3050W        W 6569   9.934   8.822   3.390
 3051W        W 6570   7.056   4.729   3.087
 3052W        W 6571   5.580   7.870  11.940
 3053W        W 6572   7.748   8.757   9.519
 3054W        W 6573   3.513   9.312   1.960
 3055W        W 6574   8.674   4.967  10.876
 3056W        W 6575   8.738   9.481  10.143
 3057W        W 6576   8.475   4.136  10.276
 3058W        W 6577   0.320   4.615   9.175
 3059W        W 6578   9.091   9.315   0.466
 3060W        W 6579   8.832   5.120   9.883
 3061W        W 6580   1.922   0.380  11.465
 3062W        W 6581   7.568   9.103   9.206
 3063W        W 6582   7.227   0.367  11.344
 3064W        W 6583   2.141   9.928  11.492
 3065W        W 6584   4.643   6.930   0.687
 3066W        W 6585   2.795   5.997  10.282
 3067W        W 6586   6.898   1.758   3.210
 3068W        W 6587   5.269   7.013  10.507
 3069W        W 6588   8.169   9.302   2.308
 3070W        W 6589   0.501   9.971   3.502
 3071W        W 6590   8.391   7.524   1.763
 3072W        W 6591   9.009   9.825  11.444
 3073W        W 6592   4.353   8.262   1.112
 3074W        W 6593   9.162   1.845   2.583
 3075W        W 6594   1.403   7.642  11.483
 3076W        W 6595   8.373   1.172   3.352
 3077W        W 6596   3.229   0.180   3.388
 3078W        W 6597   8.398   9.343   2.754
 3079W        W 6598   7.443   7.857   1.938
 3080W        W 6599   8.193   2.679  10.527
 3081W        W 6600   6.914   1.568  11.459
 3082W        W 6601   2.226   9.888   2.911
 3083W        W 6602   9.341   7.766   9.071
 3084W        W 6603   9.864   3.270   9.385
 3085W        W 6604   7.982   5.484   9.444
 3086W        W 6605   7.928   4.347   1.998
 3087W        W 6606   6.052   2.329   9.471
 3088W        W 6607   9.496   2.273  11.735
 3089W        W 6608   0.968   9.230   0.694
 3090W        W 6609   2.040   2.243   3.284
 3091W        W 6610   2.524   6.347   0.020
 3092W        W 6611   5.582   6.559   9.519
 3093W        W 6612   7.644   0.292  11.594
 3094W        W 6613   8.253   0.216   9.185
 3095W        W 6614   4.269   3.243   8.253
 3096W        W 6615   5.388   9.788   8.797
 3097W        W 6616   0.275   9.121  11.339
 3098W        W 6617   6.359   1.976   1.099
 3099W        W 6618   1.392   4.380   9.217
 3100W        W 6619   2.263   0.342   1.444
 3101W        W 6620   7.046   5.016   8.311
 3102W        W 6621   4.061   9.418  10.518
 3103W        W 6622   3.703   6.089   8.303
 3104W        W 6623   1.353   9.019  11.380
 3105W        W 6624   5.993   1.042   9.875
 3106W        W 6625   1.847   7.886   1.999
 3107W        W 6626   0.192   6.783  11.310
 3108W        W 6627   4.189   7.014  10.145
 3109W        W 6628   7.081   5.220   3.255
 3110W        W 6629   7.129   6.067   1.440
 3111W        W 6630   1.798   8.485  10.718
 3112W        W 6631   7.458   9.414   9.785
 3113W        W 6632   6.197   4.251   1.649
 3114W        W 6633   4.308   9.415   2.348
 3115W        W 6634   7.169   5.911  10.577
 3116W        W 6635   3.376   6.369   1.814
 3117W        W 6636   3.975   2.505   2.280
 3118W        W 6637   0.301   8.158   8.935
 3119W        W 6638   0.741   6.709  10.385
 3120W        W 6639   1.205   4.640   3.503
 3121W        W 6640   0.813   9.979  10.731
 3122W        W 6641   1.065   7.783   1.336
 3123W        W 6642   7.797   0.701  11.862
 3124W        W 6643   9.519   8.961   9.893
 3125W        W 6644   3.298   8.955  11.745
 3126W        W 6645   3.147   2.797  10.189
 3127W        W 6646   9.446   4.525  10.394
 3128W        W 6647   5.240   2.037  10.444
 3129W        W 6648   9.088   5.125   8.953
 3130W        W 6649   4.005   9.828   2.368
 3131W        W 6650   5.709   7.522   1.370
 3132W        W 6651   0.523   5.668   2.137
 3133W        W 6652   4.664   7.868  11.847
 3134W        W 6653   5.091   1.160   9.825
 3135W        W 6654   4.066   9.442  11.548
 3136W        W 6655   7.431   5.203   2.411
 3137W        W 6656   4.589   2.811  10.445
 3138W        W 6657   2.408   6.519   3.239
 3139W        W 6658   0.244   9.739   1.804
 3140W        W 6659   7.805   7.878   2.728
 3141W        W 6660   1.401   2.171  10.040
 3142W        W 6661   8.563   8.555  11.824
 3143W        W 6662   3.531   4.546   0.474
 3144W        W 6663   1.801   6.708   3.193
 3145W        W 6664   8.275   7.953   2.548
 3146W        W 6665   9.228   6.052  11.887
 3147W        W 6666   9.249   0.989   2.880
 3148W        W 6667   0.360   7.795  10.523
 3149W        W 6668   1.897   2.404   0.935
 3150W        W 6669   3.575   2.580  10.345
 3151W        W 6670   6.212   2.695   0.668
 3152W        W 6671   7.518   5.372   9.029
 3153W        W 6672   9.858   7.101   0.056
 3154W        W 6673   7.936   1.640   1.815
 3155W        W 6674   2.933   8.629   9.914
 3156W        W 6675   4.981   1.383  11.365
 3157W        W 6676   4.632   6.521   1.515
 3158W        W 6677   5.645   6.814   0.722
 3159W        W 6678   5.879   0.312   9.442
 3160W        W 6679   2.229   7.929  10.200
 3161W        W 6680   0.026   4.207  10.780
 3162W        W 6681   9.885   3.434   0.293
 3163W        W 6682   8.027   5.778  10.452
 3164W        W 6683   4.740   6.316   9.405
 3165W        W 6684   8.569   0.573  11.224
 3166W        W 6685   8.949   5.731   0.793
 3167W        W 6686   6.078   6.728   9.158
 3168W        W 6687   1.293   3.099  11.680
 3169W        W 6688   4.271   5.554   1.916
 3170W        W 6689   4.116   1.344  11.243
 3171W        W 6690   9.212   4.589   0.478
 3172W        W 6691   4.807   0.910   2.197
 3173W        W 6692   6.946   2.290  10.864
 3174W        W 6693   4.876   1.605   1.345
 3175W        W 6694   5.271   0.231   0.740
 3176W        W 6695   2.188   4.961   3.665
 3177W        W 6696   3.333   6.582  11.738
 3178W        W 6697   4.633   1.773   2.728
 3179W        W 6698   3.599   1.126   9.097
 3180W        W 6699   3.457   4.554   7.844
 3181W        W 6700   2.791   3.778  11.104
 3182W        W 6701   2.656   4.314   9.802
 3183W        W 6702   1.321   2.663  11.355
 3184W        W 6703   3.261   0.807   9.376
 3185W        W 6704   6.223   5.771   3.913
 3186W        W 6705   0.835   6.984   0.369
 3187W        W 6706   1.580   3.043  10.821
 3188W        W 6707   9.229   8.364   0.295
 3189W        W 6708   6.936   5.084   2.284
 3190W        W 6709   5.428   7.105  11.010
 3191W        W 6710   6.014   9.538  11.296
 3192W        W 6711   8.144   2.662   2.465
 3193W        W 6712   5.247   9.973   0.293
 3194W        W 6713   6.921   9.830   2.184
 3195W        W 6714   5.212   5.083  10.904
 3196W        W 6715   3.834   8.926   3.150
 3197W        W 6716   9.384   3.443  11.110
 3198W        W 6717   4.474   7.053   2.290
 3199W        W 6718   0.424   6.438   1.707
 3200W        W 6719   5.751   4.529   3.389
 3201W        W 6720   0.804   1.062   9.093
 3202W        W 6721   5.069   1.456   3.116
 3203W        W 6722   6.593   9.236  11.344
 3204W        W 6723   1.773   4.267  11.529
 3205W        W 6724   8.322   7.075   0.020
 3206W        W 6725   4.557   6.398   9.868
 3207W        W 6726   6.607   3.879   9.708
 3208W        W 6727   8.627   1.075  10.315
 3209W        W 6728   3.381   2.582  11.931
 3210W        W 6729   0.419   9.678  10.558
 3211W        W 6730   1.339   5.999   3.048
 3212W        W 6731   7.284   4.381   9.262
 3213W        W 6732   5.209   1.522  10.412
 3214W        W 6733   3.613   4.987   9.168
 3215W        W 6734   8.573   4.298  11.827
 3216W        W 6735   4.369   4.289   1.445
 3217W        W 6736   9.521   1.868   3.417
 3218W        W 6737   3.074   3.799  10.196
 3219W        W 6738   6.428   6.267  11.083
 3220W        W 6739   5.270   7.750   3.576
 3221W        W 6740   0.428   4.363  10.523
 3222W        W 6741   1.366   0.298   1.572
 3223W        W 6742   1.248   2.423   2.278
 3224W        W 6743   9.962   1.701   9.865
 3225W        W 6744   1.772   7.489   9.782
 3226W        W 6745   2.344   3.359   2.791
 3227W        W 6746   5.267   3.734   3.113
 3228W        W 6747   0.521   2.151  10.058
 3229W        W 6748   1.623   1.024   2.699
 3230W        W 6749   7.541   4.783  11.885
 3231W        W 6750   6.555   7.663   0.327
 3232W        W 6751   6.629   4.728   3.391
 3233W        W 6752   6.839   9.290   3.123
 3234W        W 6753   2.086   9.193   3.032
 3235W        W 6754   0.449   6.393  11.135
 3236W        W 6755   4.300   3.037   3.073
 3237W        W 6756   2.243   5.605  11.124
 3238W        W 6757   5.717   3.602   2.191
 3239W        W 6758   8.998   1.015   0.383
 3240W        W 6759   3.144   7.103  10.536
 3241W        W 6760   4.291   4.620  11.858
 3242W        W 6761   0.695   8.289   0.837
 3243W        W 6762   0.878   7.657  10.487
 3244W        W 6763   0.902   1.549   2.669
 3245W        W 6764   4.296   2.398   8.712
 3246W        W 6765   0.105   0.686   1.419
 3247W        W 6766   0.365   1.840   0.434
 3248W        W 6767   0.232   5.652   3.400
 3249W        W 6768   4.705   1.269   3.485
 3250W        W 6769   9.510   6.638   1.161
 3251W        W 6770   6.934   0.179   1.791
 3252W        W 6771   4.172   1.590   2.547
 3253W        W 6772   5.033   5.899  11.107
 3254W        W 6773   6.670   8.208   9.064
 3255W        W 6774   8.089   9.091   1.862
 3256W        W 6775   4.372   6.207   9.039
 3257W        W 6776   7.120   1.648   9.219
 3258W        W 6777   8.919   3.994  11.055
 3259W        W 6778   2.929   6.519   3.211
 3260W        W 6779   6.010   4.379   9.080
 3261W        W 6780   1.622   3.577   9.611
 3262W        W 6781   9.826   9.525  11.984
 3263W        W 6782   6.906   7.706   0.725
 3264W        W 6783   9.843   6.879   2.859
 3265W        W 6784   2.014   0.839  10.711
 3266W        W 6785   4.152   1.994   2.227
 3267W        W 6786   6.876   7.787   8.848
 3268W        W 6787   9.443   0.728   9.035
 3269W        W 6788   0.624   4.694   9.603
 3270W        W 6789   6.626   5.937   3.656
 3271W        W 6790   8.622   5.781   2.868
 3272W        W 6791   8.479   1.338   2.409
 3273W        W 6792   9.275   2.688   1.062
 3274W        W 6793   5.955   6.137   0.851
 3275W        W 6794   1.968   1.700   1.405
 3276W        W 6795   7.890   9.747   2.309
 3277W        W 6796   7.011   6.994   0.352
 3278W        W 6797   9.349   0.057   2.285
 3279W        W 6798   0.461   0.352   0.511
 3280W        W 6799   3.686   0.750  10.305
 3281W        W 6800   2.373   0.663   3.528
 3282W        W 6801   8.731   4.148   8.489
 3283W        W 6802   6.478   4.649   1.766
 3284W        W 6803   2.490   5.506   8.462
 3285W        W 6804   7.592   2.253   0.275
 3286W        W 6805   0.730   3.985  10.289
 3287W        W 6806   3.679   1.549  11.386
 3288W        W 6807   4.896   7.250   8.578
 3289W        W 6808   1.299   6.313   8.685
 3290W        W 6809   9.556   5.017   0.569
 3291W        W 6810   4.639   2.715  11.894
 3292W        W 6811   8.057   6.494   9.499
 3293W        W 6812   1.843   3.235   1.397
 3294W        W 6813   7.677   9.859  11.871
 3295W        W 6814   7.039   4.873   0.032
 3296W        W 6815   7.569   8.415  11.785
 3297W        W 6816   9.961   0.944   0.582
 3298W        W 6817   6.313   5.378  11.409
 3299W        W 6818   5.130   4.620   9.177
 3300W        W 6819   4.052   4.105   3.358
 3301W        W 6820   4.501   3.165   1.726
 3302W        W 6821   9.949   9.447   2.747
 3303W        W 6822   7.062   8.161   1.789
 3304W        W 6823   7.686   3.095   9.638
 3305W        W 6824   0.834   9.751   0.005
 3306W        W 6825   3.502   3.797   2.478
 3307W        W 6826   5.294   7.892   9.026
 3308W        W 6827   5.883   9.639   1.696
 3309W        W 6828   3.957   2.717   0.554
 3310W        W 6829   5.082   3.316  10.566
 3311W        W 6830   6.551   7.082   4.309
 3312W        W 6831   8.108   8.594   1.795
 3313W        W 6832   3.903   0.289  11.805
 3314W        W 6833   0.337   0.424  11.241
 3315W        W 6834   7.933   1.356   1.260
 3316W        W 6835   0.178   1.734   0.949
 3317W        W 6836   3.501   8.884   3.578
 3318W        W 6837   3.902   6.417   3.715
 3319W        W 6838   6.319   0.136   9.641
 3320W        W 6839   8.068   6.424   0.348
 3321W        W 6840   6.358   4.803   9.074
 3322W        W 6841   0.785   4.848   2.396
 3323W        W 6842   2.905   2.326   3.334
 3324W        W 6843   5.442   1.493   9.674
 3325W        W 6844   6.701   5.552   4.008
 3326W        W 6845   8.481   7.997   3.012
 3327W        W 6846   9.921   9.949  11.256
 3328W        W 6847   2.183   1.045   2.142
 3329W        W 6848   2.407   6.918   9.987
 3330W        W 6849   8.959   3.541   2.857
 3331W        W 6850   7.499   3.720   1.456
 3332W        W 6851   1.079   6.622   1.835
 3333W        W 6852   6.017   2.744   9.777
 3334W        W 6853   8.844   1.482   0.557
 3335W        W 6854   9.048   9.631   2.262
 3336W        W 6855   4.711   7.041  10.489
 3337W        W 6856   3.909   5.864  11.773
 3338W        W 6857   6.105   3.198  10.542
 3339W        W 6858   9.823   8.802   9.485
 3340W        W 6859   9.252   0.862  10.897
 3341W        W 6860   5.606   8.364  11.799
 3342W        W 6861   0.646   8.668  10.698
 3343W        W 6862   7.377   9.133   0.499
 3344W        W 6863   1.167   5.069   1.047
 3345W        W 6864   4.674   1.770   9.014
 3346W        W 6865   2.034   2.647   8.641
 3347W        W 6866   5.638   5.228   0.358
 3348W        W 6867   1.216   6.272   0.084
 3349W        W 6868   5.579   9.353   9.711
 3350W        W 6869   1.752   0.877  10.248
 3351W        W 6870   6.531   2.133   0.051
 3352W        W 6871   2.282   9.915  10.989
 3353W        W 6872   5.804   9.070   0.028
 3354W        W 6873   0.201   1.609   3.917
 3355W        W 6874   3.761   3.751  11.838
 3356W        W 6875   2.214   6.012   1.986
 3357W        W 6876   8.128   7.086   8.873
 3358W        W 6877   4.892   4.048   0.447
 3359W        W 6878   5.152   6.845   0.366
 3360W        W 6879   7.955   5.473   1.373
 3361W        W 6880   6.101   5.608   0.797
 3362W        W 6881   1.000   4.130   9.521
 3363W        W 6882   3.390   0.363   9.575
 3364W        W 6883   6.325   8.669  11.413
 3365W        W 6884   8.453   2.630   9.213
 3366W        W 6885   9.457   0.268   8.804
 3367W        W 6886   7.724   5.095   1.039
 3368W        W 6887   7.971   7.590  11.213
 3369W        W 6888   3.513   6.072   1.427
 3370W        W 6889   0.787   1.695   8.968
 3371W        W 6890   6.833   7.493  11.257
 3372W        W 6891   0.850   9.703   0.959
 3373W        W 6892   4.069   3.054   0.910
 3374W        W 6893   7.849   8.239   9.831
 3375W        W 6894   1.905   7.126  11.765
 3376W        W 6895   0.151   7.844   9.319
 3377W        W 6896   5.379   4.263   9.784
 3378W        W 6897   7.507   5.744   3.567
 3379W        W 6898   8.243   4.212   0.610
 3380W        W 6899   0.966   2.315  11.541
 3381W        W 6900   4.798   6.457   0.668
 3382W        W 6901   4.692   0.859   2.687
 3383W        W 6902   6.358   7.566   9.885
 3384W        W 6903   3.685   0.472   1.793
 3385W        W 6904   9.772   6.742   2.372
 3386W        W 6905   4.759   0.359  11.385
 3387W        W 6906   7.395   8.317  10.932
 3388W        W 6907   3.759   0.032  11.384
 3389W        W 6908   0.518   3.704   1.237
 3390W        W 6909   3.181   5.950   0.555
 3391W        W 6910   7.874   8.162   1.775
 3392W        W 6911   3.931   5.908   9.532
 3393W        W 6912   9.253   5.456   3.252
 3394W        W 6913   8.547   7.446   0.827
 3395W        W 6914   9.612   5.270   0.136
 3396W        W 6915   8.132   0.675  10.283
 3397W        W 6916   2.658   4.491   8.472
 3398W        W 6917   0.476   0.851   0.570
 3399W        W 6918   7.110   6.585   3.551
 3400W        W 6919   9.564   3.382  11.889
 3401W        W 6920   9.216   8.193  10.089
 3402W        W 6921   3.057   4.360   0.360
 3403W        W 6922   4.723   6.727   3.630
 3404W        W 6923   3.674   0.725  10.823
 3405W        W 6924   9.687   1.796   1.330
 3406W        W 6925   9.824   0.250   1.216
 3407W        W 6926   2.652   0.762  11.886
 3408W        W 6927   4.907   6.289   3.803
 3409W        W 6928   8.968   9.909   9.572
 3410W        W 6929   5.717   0.134   1.812
 3411W        W 6930   4.978   9.387  11.923
 3412W        W 6931   0.341   7.970  11.764
 3413W        W 6932   7.814   6.707   9.020
 3414W        W 6933   4.525   7.914  10.908
 3415W        W 6934   8.651   0.319   3.137
 3416W        W 6935   3.067   3.371  11.438
 3417W        W 6936   2.230   6.032   0.910
 3418W        W 6937   9.035   0.758  10.416
 3419W        W 6938   8.393   9.351  11.872
 3420W        W 6939   5.233   1.933   8.504
 3421W        W 6940   0.785   8.071  11.506
 3422W        W 6941   7.928   3.401   1.310
 3423W        W 6942   2.164   4.363   2.797
 3424W        W 6943   8.028   4.646   9.890
 3425W        W 6944   3.775   8.893   0.753
 3426W        W 6945   0.448   4.227  11.067
 3427W        W 6946   4.999   2.078  11.763
 3428W        W 6947   4.971   9.983   2.184
 3429W        W 6948   4.328   9.008   3.283
 3430W        W 6949   0.278   8.774  10.312
 3431W        W 6950   2.565   4.706   2.866
 3432W        W 6951   3.131   2.178   9.547
 3433W        W 6952   6.297   3.021  10.105
 3434W        W 6953   1.482   2.130   3.233
 3435W        W 6954   2.494   2.635   9.525
 3436W        W 6955   6.596   1.758   1.924
 3437W        W 6956   2.831   5.967   0.166
 3438W        W 6957   7.393   2.667   9.573
 3439W        W 6958   3.586   4.576   8.854
 3440W        W 6959   8.469   2.619  10.961
 3441W        W 6960   0.335   5.950   0.766
 3442W        W 6961   1.245   8.062  11.767
 3443W        W 6962   9.263   3.782  10.757
 3444W        W 6963   9.600   1.741  10.906
 3445W        W 6964   1.441   3.054  10.307
 3446W        W 6965   7.169   5.047   8.819
 3447W        W 6966   1.336   9.365  10.337
 3448W        W 6967   6.386   0.985  10.617
 3449W        W 6968   3.125   9.009   9.280
 3450W        W 6969   6.317   1.756   8.725
 3451W        W 6970   3.730   8.559  10.078
 3452W        W 6971   3.771   7.912   2.479
 3453W        W 6972   1.803   1.793   9.578
 3454W        W 6973   8.084   3.055   1.715
 3455W        W 6974   6.064   1.863  10.730
 3456W        W 6975   5.947   3.389  10.032
 3457W        W 6976   6.023   9.526   9.122
 3458W        W 6977   6.010   4.158   1.180
 3459W        W 6978   9.543   5.346  10.021
 3460W        W 6979   6.384   0.182   1.123
 3461W        W 6980   0.458   9.323   0.323
 3462W        W 6981   7.961   3.244   9.222
 3463W        W 6982   1.636   2.714   2.568
 3464W        W 6983   6.908   2.365   9.262
 3465W        W 6984   3.128   9.966   9.241
 3466W        W 6985   3.474   9.419   3.609
 3467W        W 6986   5.244   6.911   2.802
 3468W        W 6987   1.848   3.804  11.741
 3469W        W 6988   8.187   1.450  10.975
 3470W        W 6989   5.140   3.498   8.155
 3471W        W 6990   0.933   2.868   3.607
 3472W        W 6991   8.726   9.323   1.433
 3473W        W 6992   5.273   4.609  11.156
 3474W        W 6993   4.873   7.714   9.845
 3475W        W 6994   7.949   2.241  10.430
 3476W        W 6995   5.960   4.717   1.703
 3477W        W 6996   1.550   4.291   9.705
 3478W        W 6997   6.072   6.264   2.817
 3479W        W 6998   5.489   3.523  10.299
 3480W        W 6999   5.331   2.920   8.757
 3481W        W 7000   7.596   8.454   2.146
 3482W        W 7001   3.720   3.553   8.868
 3483W        W 7002   3.277   4.608   3.422
 3484W        W 7003   4.618   3.595   3.071
 3485W        W 7004   3.465   7.907   0.173
 3486W        W 7005   6.987   4.654   2.594
 3487W        W 7006   2.210   4.610   3.252
 3488W        W 7007   8.465   3.365   1.846
 3489W        W 7008   4.237   7.518   0.257
 3490W        W 7009   0.284   5.409  10.501
 3491W        W 7010   2.327   0.163  10.026
 3492W        W 7011   1.326   2.346   9.058
 3493W        W 7012   7.385   6.155   3.266
 3494W        W 7013   2.720   7.023   0.270
 3495W        W 7014   3.836   5.189   3.715
 3496W        W 7015   2.727   6.899  10.753
 3497W        W 7016   1.738   8.968  11.732
 3498W        W 7017   4.103   8.566  11.713
 3499W        W 7018   5.523   2.894  11.670
 3500W        W 7019   5.465   0.448   0.286
 3501W        W 7020   0.364   4.186   1.297
 3502W        W 7021   9.726   6.113   8.269
 3503W        W 7022   4.458   7.042   8.810
 3504W        W 7023   8.902   9.484  11.908
 3505W        W 7024   6.099   5.113   0.941
 3506W        W 7025   9.064   2.679   2.932
 3507W        W 7026   2.775   3.292   1.526
 3508W        W 7027   5.764   7.103   1.931
 3509W        W 7028   5.174   7.759   3.066
 3510W        W 7029   4.153   7.383   9.746
 3511W        W 7030   3.523   6.839  11.268
 3512W        W 7031   0.886   2.773   0.296
 3513W        W 7032   1.367   1.853   9.295
 3514W        W 7033   4.215   5.609   2.937
 3515W        W 7034   9.385   7.237   9.158
 3516W        W 7035   5.202   0.031   3.158
 3517W        W 7036   6.573   6.745   1.550
 3518W        W 7037   2.143   4.780  10.303
 3519W        W 7038   3.404   0.315  11.637
 3520W        W 7039   3.505   9.446   0.762
 3521W        W 7040   5.538   1.941  11.818
 3522W        W 7041   8.487   6.876  11.094
 3523W        W 7042   8.746   0.073   2.636
 3524W        W 7043   7.303   0.118   1.436
 3525W        W 7044   2.019   8.346   9.392
 3526W        W 7045   1.990   1.399   2.687
 3527W        W 7046   4.432   7.029  10.929
 3528W        W 7047   5.165   1.395   0.438
 3529W        W 7048   9.925   8.444  11.031
 3530W        W 7049   0.011   0.374   2.663
 3531W        W 7050   6.237   6.500  11.937
 3532W        W 7051   2.890   7.762   1.047
 3533W        W 7052   5.618   0.705   2.158
 3534W        W 7053   0.343   6.103   9.156
 3535W        W 7054   1.770   9.499   1.417
 3536W        W 7055   5.084   6.973   8.176
 3537W        W 7056   9.494   8.454   9.239
 3538W        W 7057   6.695   4.456  11.048
 3539W        W 7058   1.004   0.752  11.717
 3540W        W 7059   7.148   6.512   0.373
 3541W        W 7060   8.941   3.590  11.967
 3542W        W 7061   2.351   1.178   9.869
 3543W        W 7062   1.279   8.227   1.404
 3544W        W 7063   9.374   8.585   1.815
 3545W        W 7064   5.555   3.813   8.323
 3546W        W 7065   9.922   0.208  10.530
 3547W        W 7066   8.250   4.762   2.649
 3548W        W 7067   8.963   8.234   0.706
 3549W        W 7068   6.117   0.716   0.521
 3550W        W 7069   5.487   5.043   9.195
 3551W        W 7070   5.850   6.941   8.769
 3552W        W 7071   0.626   7.853  10.083
 3553W        W 7072   6.735   5.721   3.171
 3554W        W 7073   0.346   3.960   0.794
 3555W        W 7074   2.191   1.667  11.760
 3556W        W 7075   5.123   1.588  11.841
 3557W        W 7076   7.910   6.839   3.053
 3558W        W 7077   0.939   1.473   9.947
 3559W        W 7078   0.648   9.817   1.487
 3560W        W 7079   4.349   9.147   9.585
 3561W        W 7080   7.822   3.222  11.322
 3562W        W 7081   6.936   3.758  10.567
 3563W        W 7082   6.940   8.492   0.270
 3564W        W 7083   6.922   1.048   9.904
 3565W        W 7084   1.736   2.625  10.272
 3566W        W 7085   0.932   9.539  11.155
 3567W        W 7086   6.566   8.000  10.009
 3568W        W 7087   6.966   9.688  10.219
 3569W        W 7088   1.792   8.881   1.814
 3570W        W 7089   1.104   5.061   3.219
 3571W        W 7090   9.837   6.034   0.614
 3572W        W 7091   8.676   2.957   3.097
 3573W        W 7092   4.563   7.357  10.063
 3574W        W 7093   4.577   7.003   1.682
 3575W        W 7094   4.529   9.086  10.265
 3576W        W 7095   9.335   7.201   1.709
 3577W        W 7096   8.706   4.438   9.267
 3578W        W 7097   9.789   8.800   1.027
 3579W        W 7098   9.226   0.317   9.301
 3580W        W 7099   1.346   1.170   9.999
 3581W        W 7100   8.073   8.704   9.904
 3582W        W 7101   7.727   6.217   9.202
 3583W        W 7102   4.309   8.366  10.768
 3584W        W 7103   1.761   6.131   0.718
 3585W        W 7104   1.668   0.690   8.781
 3586W        W 7105   4.204   7.868   2.771
 3587W        W 7106   6.703   9.341   3.609
 3588W        W 7107   6.441   0.910  10.117
 3589W        W 7108   4.911   8.183   3.435
 3590W        W 7109   5.280   7.450   2.292
 3591W        W 7110   5.736   7.432   8.742
 3592W        W 7111   1.757   2.028   8.962
 3593W        W 7112   2.778   0.894   9.580
 3594W        W 7113   5.004   7.298   0.519
 3595W        W 7114   9.901   9.764  10.793
 3596W        W 7115   3.234   5.146   9.498
 3597W        W 7116   1.506   9.904   1.266
 3598W        W 7117   0.487   1.716   2.966
 3599W        W 7118   7.191   9.101  11.460
 3600W        W 7119   1.948   0.302   8.993
 3601W        W 7120   7.383   5.242   3.653
 3602W        W 7121   9.565   9.664  10.424
 3603W        W 7122   4.689   0.722   1.700
 3604W        W 7123   6.972   1.308   2.188
 3605W        W 7124   1.774   5.713   1.017
 3606W        W 7125   2.307   1.159   3.438
 3607W        W 7126   6.559   4.895   0.935
 3608W        W 7127   9.546   0.127   2.915
 3609W        W 7128   5.549   8.294   2.609
 3610W        W 7129   1.334   7.620  11.998
 3611W        W 7130   6.643   3.373   0.791
 3612W        W 7131   4.769   1.134   9.372
 3613W        W 7132   2.612   2.188   1.726
 3614W        W 7133   0.668   3.232   3.332
 3615W        W 7134   8.532   8.904   1.164
 3616W        W 7135   6.129   1.227   3.300
 3617W        W 7136   5.200   7.479   4.011
 3618W        W 7137   6.125   4.648  11.520
 3619W        W 7138   2.310   9.852   0.847
 3620W        W 7139   2.405   2.469   0.867
 3621W        W 7140   7.229   2.577   3.527
 3622W        W 7141   5.635   6.608   2.059
 3623W        W 7142   4.743   2.192   3.477
 3624W        W 7143   1.811   0.014   1.707
 3625W        W 7144   6.618   8.305   9.567
 3626W        W 7145   1.309   4.165   2.687
 3627W        W 7146   6.378   3.056   8.793
 3628W        W 7147   3.229   5.559   2.694
 3629W        W 7148   5.337   6.015   3.802
 3630W        W 7149   9.640   5.111   3.134
 3631W        W 7150   5.502   9.071   0.449
 3632W        W 7151   3.623   2.094  10.454
 3633W        W 7152   6.896   7.306   9.970
 3634W        W 7153   3.032   9.440   0.981
 3635W        W 7154   3.330   3.674   9.764
 3636W        W 7155   5.670   9.937   0.992
 3637W        W 7156   8.897   5.976   9.530
 3638W        W 7157   8.598   5.728   0.256
 3639W        W 7158   7.619   3.248   1.732
 3640W        W 7159   5.245   5.875   1.695
 3641W        W 7160   7.767   0.052   9.064
 3642W        W 7161   0.517   9.178  10.499
 3643W        W 7162   1.536   5.077   1.554
 3644W        W 7163   8.358   8.849   2.638
 3645W        W 7164   4.307   0.671   0.526
 3646W        W 7165   5.168   9.347   2.158
 3647W        W 7166   4.698   3.653  11.767
 3648W        W 7167   4.505   1.887   9.887
 3649W        W 7168   8.855   2.227   2.814
 3650W        W 7169   5.301   7.605   8.534
 3651W        W 7170   0.433   1.857  11.433
 3652W        W 7171   1.871   9.053   8.936
 3653W        W 7172   0.420   7.024   0.783
 3654W        W 7173   4.308   3.408   2.704
 3655W        W 7174   8.094   3.723  11.945
 3656W        W 7175   6.786   2.319  11.338
 3657W        W 7176   0.967   2.348  10.707
 3658W        W 7177   2.885   2.810   3.643
 3659W        W 7178   6.118   9.961   2.057
 3660W        W 7179   6.755   4.634   1.338
 3661W        W 7180   6.564   8.844   3.104
 3662W        W 7181   8.152   9.198   9.996
 3663W        W 7182   3.149   7.534  10.186
 3664W        W 7183   9.664   2.816  11.715
 3665W        W 7184   9.652   4.699  10.857
 3666W        W 7185   6.045   9.906   3.169
 3667W        W 7186   1.767   8.066   1.501
 3668W        W 7187   3.605   6.614   9.961
 3669W        W 7188   1.848   1.726   2.317
 3670W        W 7189   0.665   5.998  10.865
 3671W        W 7190   7.120   0.267   3.175
 3672W        W 7191   1.622   7.393   1.768
 3673W        W 7192   4.626   8.732   8.654
 3674W        W 7193   2.277   7.061   2.565
 3675W        W 7194   7.680   7.868  10.894
 3676W        W 7195   1.290   0.431   1.081
 3677W        W 7196   0.565   0.824  11.459
 3678W        W 7197   3.190   4.681   2.059
 3679W        W 7198   7.125   5.281  11.744
 3680W        W 7199   5.135   7.850   1.065
 3681W        W 7200   4.536   0.199  10.573
 3682W        W 7201   4.933   3.105  11.008
 3683W        W 7202   8.410   9.903   1.056
 3684W        W 7203   1.671   4.471  10.831
 3685W        W 7204   8.369   0.423   2.725
 3686W        W 7205   4.026   3.357   1.345
 3687W        W 7206   0.448   1.754  10.923
 3688W        W 7207   5.135   5.721   2.167
 3689W        W 7208   6.791   5.539  11.433
 3690W        W 7209   5.605   2.634   1.903
 3691W        W 7210   0.787   4.345   9.932
 3692W        W 7211   2.997   8.790   1.295
 3693W        W 7212   9.056   9.930   8.996
 3694W        W 7213   2.238   4.456  11.691
 3695W        W 7214   6.268   9.115   9.427
 3696W        W 7215   9.344   5.717   9.536
 3697W        W 7216   8.085   6.253   8.839
 3698W        W 7217   4.249   7.500  10.940
 3699W        W 7218   8.335   6.629   3.245
 3700W        W 7219   7.430   4.056   8.874
 3701W        W 7220   7.813   2.686   9.304
 3702W        W 7221   0.422   4.895  10.535
 3703W        W 7222   3.055   8.409  11.583
 3704W        W 7223   2.262   7.424   9.997
 3705W        W 7224   7.980   7.918   1.307
 3706W        W 7225   2.196   1.982   2.593
 3707W        W 7226   6.194   5.268   9.749
 3708W        W 7227   2.421   0.254   3.217
 3709W        W 7228   0.355   6.413  11.700
 3710W        W 7229   4.740   9.613   3.076
 3711W        W 7230   2.597   0.450   0.262
 3712W        W 7231   3.875   4.644   2.163
 3713W        W 7232   2.292   5.221  10.563
 3714W        W 7233   5.381   1.100   0.837
 3715W        W 7234   9.250   2.019  10.132
 3716W        W 7235   2.273   0.907   9.404
 3717W        W 7236   1.804   8.688   0.889
 3718W        W 7237   7.250   6.831  10.617
 3719W        W 7238   4.091   8.546   2.023
 3720W        W 7239   2.848   4.624  11.034
 3721W        W 7240   4.763   5.654   1.736
 3722W        W 7241   1.699   8.819   2.342
 3723W        W 7242   0.265   8.238  10.236
 3724W        W 7243   6.692   6.676   0.094
 3725W        W 7244   6.575   5.086   9.435
 3726W        W 7245   0.434   2.097  11.897
 3727W        W 7246   7.552   8.918   2.812
 3728W        W 7247   3.676   0.067   9.990
 3729W        W 7248   2.255   6.391   1.291
 3730W        W 7249   5.467   3.647   0.304
 3731W        W 7250   3.572   5.031   2.004
 3732W        W 7251   1.119   4.294   1.732
 3733W        W 7252   5.893   8.424  11.365
 3734W        W 7253   8.733   8.554   2.906
 3735W        W 7254   0.926   7.919   2.064
 3736W        W 7255   3.235   9.935   9.764
 3737W        W 7256   7.455   6.910   2.735
 3738W        W 7257   4.841   5.262   0.403
 3739W        W 7258   2.735   8.387   3.383
 3740W        W 7259   5.479   9.492   0.167
 3741W        W 7260   2.353   4.586   1.859
 3742W        W 7261   3.538   9.285   9.429
 3743W        W 7262   5.671   4.025   2.491
 3744W        W 7263   8.888   9.734   0.660
 3745W        W 7264   3.892   2.624   8.987
 3746W        W 7265   6.013   2.796   1.633
 3747W        W 7266   9.058   0.466   2.825
 3748W        W 7267   1.238   8.225   8.813
 3749W        W 7268   6.774   1.251  10.361
 3750W        W 7269   5.120   8.581   8.667
 3751W        W 7270   9.410   4.648   1.941
 3752W        W 7271   9.773   9.786   0.934
 3753W        W 7272   4.922   0.322   1.264
 3754W        W 7273   0.330   5.537  10.993
 3755W        W 7274   8.113   4.136  11.635
 3756W        W 7275   0.392   4.681  10.079
 3757W        W 7276   2.238   8.422   2.688
 3758W        W 7277   3.968   1.854   0.445
 3759W        W 7278   3.816   2.747  11.716
 3760W        W 7279   1.239   2.081   1.838
 3761W        W 7280   6.330   4.147   9.395
 3762W        W 7281   6.227   6.058   8.946
 3763W        W 7282   6.003   9.432   0.308
 3764W        W 7283   4.895   1.133  11.808
 3765W        W 7284   5.890   5.231   1.803
 3766W        W 7285   2.855   5.978  10.788
 3767W        W 7286   1.279   2.379   2.833
 3768W        W 7287   2.263   0.040   2.412
 3769W        W 7288   7.189   9.140   0.030
 3770W        W 7289   6.899   4.935   0.548
 3771W        W 7290   6.899   5.340   0.860
 3772W        W 7291   9.045   3.883   1.272
 3773W        W 7292   4.184   0.915  11.532
 3774W        W 7293   6.815   8.782  11.415
 3775W        W 7294   6.678   9.040   8.767
 3776W        W 7295   4.562   0.279   8.850
 3777W        W 7296   8.480   8.078   9.600
 3778W        W 7297   8.930   4.408   1.312
 3779W        W 7298   1.793   9.586   2.854
 3780W        W 7299   2.699   9.258  11.712
 3781W        W 7300   2.259   9.510   9.480
 3782W        W 7301   8.018   7.909   0.349
 3783W        W 7302   6.934   4.773   9.181
 3784W        W 7303   0.116   0.123   0.209
 3785W        W 7304   7.654   5.580   1.935
 3786W        W 7305   4.591   0.831   3.198
 3787W        W 7306   4.285   1.844   1.730
 3788W        W 7307   7.184   1.341   3.100
 3789W        W 7308   2.350   9.872   3.554
 3790W        W 7309   6.806   2.882   3.372
 3791W        W 7310   0.062   7.610  11.545
 3792W        W 7311   4.955   1.357   8.891
 3793W        W 7312   7.566   7.099  10.301
 3794W        W 7313   4.798   8.951   0.950
 3795W        W 7314   2.400   0.822  11.069
 3796W        W 7315   5.062   3.113   0.515
 3797W        W 7316   5.662   5.991   9.526
 3798W        W 7317   3.217   9.924  10.775
 3799W        W 7318   1.624   2.409   1.919
 3800W        W 7319   2.238   4.027   1.345
 3801W        W 7320   0.788   8.886   2.217
 3802W        W 7321   2.162   3.167   2.351
 3803W        W 7322   6.071   2.659  11.803
 3804W        W 7323   9.721   4.566   0.421
 3805W        W 7324   1.509   4.500   0.810
 3806W        W 7325   5.174   4.082   2.430
 3807W        W 7326   8.929   7.510   0.484
 3808W        W 7327   3.296   6.614  10.365
 3809W        W 7328   4.546   2.269   1.841
 3810W        W 7329   2.834   1.458   2.771
 3811W        W 7330   5.824   4.216   8.561
 3812W        W 7331   8.346   9.070  11.419
 3813W        W 7332   8.175   1.863  11.281
 3814W        W 7333   0.365   0.716   2.908
 3815W        W 7334   5.793   5.514   2.831
 3816W        W 7335   4.771   4.336  10.992
 3817W        W 7336   1.795   2.328   2.860
 3818W        W 7337   4.426   2.787   0.388
 3819W        W 7338   8.297   3.893   8.641
 3820W        W 7339   1.253   0.647   2.303
 3821W        W 7340   2.062   7.457   2.861
 3822W        W 7341   3.442   4.692   2.510
 3823W        W 7342   7.813   9.510   0.509
 3824W        W 7343   7.615   0.757  11.369
 3825W        W 7344   5.464   8.169   3.116
 3826W        W 7345   1.354   4.422  11.838
 3827W        W 7346   9.518   1.266  10.790
 3828W        W 7347   3.955   7.506   1.900
 3829W        W 7348   6.233   0.364   3.443
 3830W        W 7349   4.672   7.463   1.456
 3831W        W 7350   3.526   3.283  10.828
 3832W        W 7351   7.868   3.996   2.390
 3833W        W 7352   2.418   1.995   0.063
 3834W        W 7353   7.318   7.008   9.845
 3835W        W 7354   3.616   2.025   9.517
 3836W        W 7355   9.272   1.337   1.288
 3837W        W 7356   5.389   9.217  10.731
 3838W        W 7357   3.610   6.408  10.940
 3839W        W 7358   2.254   3.623   0.384
 3840W        W 7359   1.273   0.341  11.524
 3841W        W 7360   3.801   3.252  11.804
 3842W        W 7361   0.401   9.469   0.814
 3843W        W 7362   2.290   3.114   9.575
 3844W        W 7363   4.158   6.012   3.910
 3845W        W 7364   1.381   5.497   2.664
 3846W        W 7365   0.018   1.267  10.953
 3847W        W 7366   6.655   6.657   1.051
 3848W        W 7367   4.551   8.796   1.869
 3849W        W 7368   5.885   4.067  10.872
 3850W        W 7369   1.774   5.712  11.330
 3851W        W 7370   0.888   1.911   2.194
 3852W        W 7371   0.806   7.122   2.778
 3853W        W 7372   6.593   5.210   3.095
 3854W        W 7373   7.711   1.976   3.029
 3855W        W 7374   2.769   5.176   9.247
 3856W        W 7375   7.471   5.235   0.161
 3857W        W 7376   0.379   3.475  10.201
 3858W        W 7377   1.130   7.469   8.979
 3859W        W 7378   0.232   3.878  10.448
 3860W        W 7379   7.425   1.685  11.567
 3861W        W 7380   8.004   2.880   1.229
 3862W        W 7381   8.939   6.988  11.828
 3863W        W 7382   5.447   3.544   3.564
 3864W        W 7383   3.771   4.392   1.211
 3865W        W 7384   2.874   1.743   9.174
 3866W        W 7385   0.156   2.411   3.444
 3867W        W 7386   9.205   5.066   1.773
 3868W        W 7387   3.496   8.743   1.307
 3869W        W 7388   5.568   2.301   3.949
 3870W        W 7389   8.927   8.804   1.945
 3871W        W 7390   1.633   9.081   2.822
 3872W        W 7391   6.658   1.927   0.659
 3873W        W 7392   0.968   2.103  10.275
 3874W        W 7393   3.903   5.478   9.973
 3875W        W 7394   3.205   1.273  11.309
 3876W        W 7395   2.123   5.111   2.346
 3877W        W 7396   3.085   9.267   0.506
 3878W        W 7397   8.282   1.452  11.567
 3879W        W 7398   1.163   8.002   0.866
 3880W        W 7399   6.710   3.815   2.440
 3881W        W 7400   5.633   8.007   9.918
 3882W        W 7401   9.369   1.382  11.756
 3883W        W 7402   4.654   8.120  10.432
 3884W        W 7403   3.688   6.289  11.956
 3885W        W 7404   8.497   7.965   1.096
 3886W        W 7405   0.403   2.843  11.240
 3887W        W 7406   1.837   8.429   0.395
 3888W        W 7407   1.872   3.463  10.046
 3889W        W 7408   8.447   9.486   0.741
 3890W        W 7409   6.996   0.144   0.839
 3891W        W 7410   7.253   8.525   2.612
 3892W        W 7411   8.812   4.100   1.687
 3893W        W 7412   7.905   4.080   3.167
 3894W        W 7413   9.188   3.517  10.156
 3895W        W 7414   4.492   0.410   2.821
 3896W        W 7415   5.558   1.629   3.227
 3897W        W 7416   4.222   4.370   0.951
 3898W        W 7417   2.682   7.648   9.782
 3899W        W 7418   4.397   0.620   2.337
 3900W        W 7419   3.732   3.623   1.686
 3901W        W 7420   4.102   3.672   9.172
 3902W        W 7421   4.743   9.176  11.500
 3903W        W 7422   5.093   8.033  11.578
 3904W        W 7423   3.556   6.873   3.476
 3905W        W 7424   9.873   7.126  11.520
 3906W        W 7425   5.238   9.728   2.531
 3907W        W 7426   9.870   6.393   9.727
 3908W        W 7427   3.274   1.559   0.134
 3909W        W 7428   2.183   7.488   0.557
 3910W        W 7429   1.351   8.448  10.965
 3911W        W 7430   3.809   3.285   8.457
 3912W        W 7431   8.805   8.520   1.519
 3913W        W 7432   7.494   3.093  10.537
 3914W        W 7433   4.326   3.800  10.615
 3915W        W 7434   6.937   8.324   2.267
 3916W        W 7435   2.976   2.306   8.835
 3917W        W 7436   0.468   8.029   2.439
 3918W        W 7437   6.072   8.924   3.233
 3919W        W 7438   7.653   0.749   1.923
 3920W        W 7439   2.790   3.568   8.819
 3921W        W 7440   4.660   9.429   9.881
 3922W        W 7441   8.966   8.666   1.039
 3923W        W 7442   5.163   8.352  10.549
 3924W        W 7443   1.834   7.074   0.361
 3925W        W 7444   9.938   7.857   1.178
 3926W        W 7445   4.139   9.393   9.989
 3927W        W 7446   3.071   5.365   3.634
 3928W        W 7447   4.208   8.955   1.075
 3929W        W 7448   6.276   6.742   2.776
 3930W        W 7449   9.139   3.125  11.990
 3931W        W 7450   3.481   5.980   2.430
 3932W        W 7451   0.143   2.590  11.779
 3933W        W 7452   0.834   6.164   9.361
 3934W        W 7453   3.326   2.644   3.328
 3935W        W 7454   7.170   1.567  10.253
 3936W        W 7455   7.896   9.708   9.876
 3937W        W 7456   5.639   0.356  11.280
 3938W        W 7457   3.763   5.487   1.789
 3939W        W 7458   7.699   3.393  11.816
 3940W        W 7459   4.041   0.174   2.771
 3941W        W 7460   9.601   2.921   9.682
 3942W        W 7461   3.673   7.604   9.886
 3943W        W 7462   2.968   2.674   2.294
 3944W        W 7463   5.642   4.713  11.639
 3945W        W 7464   4.215   4.134  11.082
 3946W        W 7465   7.570   8.000  11.380
 3947W        W 7466   1.988   1.281  10.461
 3948W        W 7467   3.579   9.047   8.993
 3949W        W 7468   5.042   9.315   1.302
 3950W        W 7469   2.908   0.455   9.840
 3951W        W 7470   8.049   4.609  11.840
 3952W        W 7471   3.018   7.048   8.788
 3953W        W 7472   9.526   4.204  10.786
 3954W        W 7473   5.487   0.298  11.772
 3955W        W 7474   9.390   7.018   3.106
 3956W        W 7475   6.531   1.657  10.607
 3957W        W 7476   2.717   4.710   0.541
 3958W        W 7477   3.565   3.150   1.627
 3959W        W 7478   4.721   9.288   3.482
 3960W        W 7479   4.835   5.170   9.947
 3961W        W 7480   1.971   6.187  10.407
 3962W        W 7481   7.277   2.907   1.591
 3963W        W 7482   2.151   6.590   2.736
 3964W        W 7483   0.429   4.135   3.419
 3965W        W 7484   5.391   6.188   9.911
 3966W        W 7485   4.686   9.093   2.278
 3967W        W 7486   0.069   5.087   9.245
 3968W        W 7487   4.460   3.285   9.182
 3969W        W 7488   4.657   7.497   8.980
 3970W        W 7489   5.940   9.127   1.760
 3971W        W 7490   7.619   3.846   0.068
 3972W        W 7491   9.596   5.584   2.869
 3973W        W 7492   6.934   6.412   1.771
 3974W        W 7493   5.422   6.095  11.993
 3975W        W 7494   4.254   9.848   0.115
 3976W        W 7495   9.047   9.981   3.053
 3977W        W 7496   7.738   4.067   0.647
 3978W        W 7497   4.439   1.515   2.091
 3979W        W 7498   6.157   1.244   0.435
 3980W        W 7499   9.277   7.887   0.528
 3981W        W 7500   9.410   8.660   2.330
 3982W        W 7501   0.648   9.351   1.281
 3983W        W 7502   2.815   6.539   0.395
 3984W        W 7503   8.725   4.209   2.200
 3985W        W 7504   3.735   7.829   1.559
 3986W        W 7505   2.537   9.391   1.916
 3987W        W 7506   2.488   2.859   2.794
 3988W        W 7507   6.206   4.575   3.701
 3989W        W 7508   9.740   2.608   2.318
 3990W        W 7509   7.832   5.115   0.531
 3991W        W 7510   5.236   3.883   1.582
 3992W        W 7511   1.367   0.268  10.245
 3993W        W 7512   8.238   8.388   2.797
 3994W        W 7513   4.970   7.368   2.756
 3995W        W 7514   3.912   2.883   3.432
 3996W        W 7515   9.865   5.118  11.723
 3997W        W 7516   6.022   5.446  10.878
 3998W        W 7517   3.927   2.739   9.950
 3999W        W 7518   0.287   2.625   9.195
 4000W        W 7519   6.389   6.116   3.209
 4001W        W 7520   7.098   7.324   2.990
 4002W        W 7521   1.452   6.919   1.627
 4003W        W 7522   2.353   4.610  11.188
 4004W        W 7523   0.375   2.830   0.198
 4005W        W 7524   3.620   3.082   1.139
 4006W        W 7525   8.435   7.565   0.339
 4007W        W 7526   4.978   5.111   9.116
 4008W        W 7527   4.243   4.463   3.659
 4009W        W 7528   1.443   5.673   3.584
 4010W        W 7529   8.518   2.345   1.993
 4011W        W 7530   4.483   7.410   0.682
 4012W        W 7531   5.549   8.011   0.814
 4013W        W 7532   1.953   4.778   0.904
 4014W        W 7533   7.435   8.078   2.428
 4015W        W 7534   4.829   9.085   9.465
 4016W        W 7535   7.616   5.621  10.734
 4017W        W 7536   9.377   4.203   1.520
 4018W        W 7537   4.168   1.710   8.986
 4019W        W 7538   6.992   2.408   8.703
 4020W        W 7539   8.871   2.154   2.301
 4021W        W 7540   7.028   8.006   1.157
 4022W        W 7541   3.106   9.792   0.294
 4023W        W 7542   8.037   4.579   3.206
 4024W        W 7543   3.161   3.383  10.485
 4025W        W 7544   3.184   7.192  11.037
 4026W        W 7545   7.395   6.237  11.816
 4027W        W 7546   0.884   5.655  11.413
 4028W        W 7547   4.278   2.726  11.500
 4029W        W 7548   8.495   8.723  10.215
 4030W        W 7549   6.877   8.834   2.360
 4031W        W 7550   0.263   7.447   1.865
 4032W        W 7551   4.980   9.065   1.766
 4033W        W 7552   3.603   0.255  10.542
 4034W        W 7553   7.001   5.787   9.379
 4035W        W 7554   2.264   6.884   1.185
 4036W        W 7555   7.182   6.517   2.531
 4037W        W 7556   4.363   1.623   1.245
 4038W        W 7557   4.169   8.739   1.536
 4039W        W 7558   1.835   7.482   9.254
 4040W        W 7559   4.151   5.771   0.498
 4041W        W 7560   7.154   0.611   3.547
 4042W        W 7561   5.784   8.580   9.310
 4043W        W 7562   5.081   9.543  11.412
 4044W        W 7563   6.429   6.941  11.760
 4045W        W 7564   1.800   9.389   1.908
 4046W        W 7565   9.434   2.281   9.230
 4047W        W 7566   2.520   4.907   1.488
 4048W        W 7567   8.550   0.455  10.037
 4049W        W 7568   0.832   9.837   2.695
 4050W        W 7569   8.789   2.683  10.071
 4051W        W 7570   5.966   0.045   1.380
 4052W        W 7571   5.440   3.103  11.041
 4053W        W 7572   8.579   5.008   0.980
 4054W        W 7573   5.706   0.017   0.505
 4055W        W 7574   3.062   2.807   8.686
 4056W        W 7575   7.127   9.996   2.713
 4057W        W 7576   0.232   5.076   0.651
 4058W        W 7577   6.551   1.639   2.406
 4059W        W 7578   1.179   3.791  10.513
 4060W        W 7579   2.298   3.333   9.038
 4061W        W 7580   4.121   5.694   9.106
 4062W        W 7581   2.038   8.761   9.756
 4063W        W 7582   6.695   6.592   4.244
 4064W        W 7583   6.669   9.943  11.929
 4065W        W 7584   0.661   0.457  10.818
 4066W        W 7585   7.118   2.345   2.303
 4067W        W 7586   2.645   7.728  11.760
 4068W        W 7587   6.877   0.424  10.944
 4069W        W 7588   6.241   1.731  11.176
 4070W        W 7589   7.058   4.210   2.901
 4071W        W 7590   1.779   4.412  10.331
 4072W        W 7591   7.973   1.129   0.817
 4073W        W 7592   4.098   5.057   9.319
 4074W        W 7593   5.130   1.884   2.849
 4075W        W 7594   0.803   2.153   0.528
 4076W        W 7595   3.938   0.352   1.229
 4077W        W 7596   7.430   3.895  10.081
 4078W        W 7597   6.443   6.250   0.832
 4079W        W 7598   6.422   8.484  10.027
 4080W        W 7599   5.771   5.495   9.934
 4081W        W 7600   0.969   0.249   3.001
 4082W        W 7601   8.657   1.782   2.639
 4083W        W 7602   2.352   6.119  11.207
 4084W        W 7603   4.236   9.919  11.559
 4085W        W 7604   2.428   8.806   3.284
 4086W        W 7605   6.567   4.679   8.222
 4087W        W 7606   6.767   5.917   1.825
 4088W        W 7607   8.000   4.184   0.157
 4089W        W 7608   7.881   6.697   3.614
 4090W        W 7609   9.268   0.864   1.084
 4091W        W 7610   0.857   0.795   3.144
 4092W        W 7611   7.360   8.418   1.099
 4093W        W 7612   9.564   0.909  11.313
 4094W        W 7613   6.952   8.060  10.782
 4095W        W 7614   7.452   2.772   2.045
 4096W        W 7615   6.429   2.585   1.408
 4097W        W 7616   3.292   1.244   2.626
 4098W        W 7617   6.305   2.486  11.346
 4099W        W 7618   7.091   0.515   2.719
 4100W        W 7619   4.197   4.546   9.067
 4101W        W 7620   8.810   9.991  11.908
 4102W        W 7621   3.220   1.781  10.425
 4103W        W 7622   3.700   8.475  10.997
 4104W        W 7623   2.960   5.941   1.817
 4105W        W 7624   3.208   4.961   1.644
 4106W        W 7625   7.502   0.335   3.815
 4107W        W 7626   2.560   3.965  10.202
 4108W        W 7627   6.127   9.726   0.842
 4109W        W 7628   4.086   1.306   3.008
 4110W        W 7629   3.628   3.791   2.961
 4111W        W 7630   9.912   2.890   3.399
 4112W        W 7631   5.393   0.399   9.680
 4113W        W 7632   9.563   5.757   1.624
 4114W        W 7633   7.629   7.506   0.784
 4115W        W 7634   6.765   7.606   2.730
 4116W        W 7635   9.289   6.675   1.622
 4117W        W 7636   1.318   1.194   1.477
 4118W        W 7637   2.347   4.096   8.567
 4119W        W 7638   4.152   0.825   9.520
 4120W        W 7639   3.094   0.276   0.465
 4121W        W 7640   4.455   1.274   9.004
 4122W        W 7641   9.374   6.187   9.721
 4123W        W 7642   8.961   2.308   1.042
 4124W        W 7643   1.286   3.443   0.071
 4125W        W 7644   0.728   3.729   0.261
 4126W        W 7645   4.561   3.346  10.733
 4127W        W 7646   7.233   8.458  11.391
 4128W        W 7647   3.630   3.707   4.011
 4129W        W 7648   6.127   5.726  11.720
 4130W        W 7649   5.410   1.200   0.033
 4131W        W 7650   6.631   4.541   9.511
 4132W        W 7651   0.946   6.953   0.874
 4133W        W 7652   3.686   8.451   3.346
 4134W        W 7653   7.154   3.464   1.752
 4135W        W 7654   6.090   6.707  11.454
 4136W        W 7655   5.131   2.806   3.252
 4137W        W 7656   6.219   7.018  10.571
 4138W        W 7657   8.688   3.973   8.964
 4139W        W 7658   0.732   8.910   2.746
 4140W        W 7659   6.160   4.145   3.415
 4141W        W 7660   5.186   3.689   9.144
 4142W        W 7661   1.154   1.472   0.592
 4143W        W 7662   6.252   1.991   2.648
 4144W        W 7663   8.891   2.899   9.133
 4145W        W 7664   2.823   4.703   0.032
 4146W        W 7665   6.011   4.785  10.000
 4147W        W 7666   1.414   0.380   3.209
 4148W        W 7667   6.054   6.672   1.792
 4149W        W 7668   5.422   6.513  10.327
 4150W        W 7669   8.293   1.303   9.568
 4151W        W 7670   5.681   5.475   1.049
 4152W        W 7671   5.172   6.473   8.231
 4153W        W 7672   7.653   7.288   9.485
 4154W        W 7673   1.644   8.894   0.233
 4155W        W 7674   7.388   6.353  10.802
 4156W        W 7675   8.069   8.429  11.943
 4157W        W 7676   0.775   0.839   2.225
 4158W        W 7677   6.017   6.857   2.327
 4159W        W 7678   8.519   8.917   1.664
 4160W        W 7679   2.188   0.376   2.769
 4161W        W 7680   1.361   7.925   3.622
 4162W        W 7681   5.586   6.572   8.536
 4163W        W 7682   9.323   7.398  10.373
 4164W        W 7683   0.143   6.016  10.924
 4165W        W 7684   2.689   1.508   3.263
 4166W        W 7685   2.887   4.774   2.468
 4167W        W 7686   4.777   5.194   3.684
 4168W        W 7687   4.847   6.002   9.835
 4169W        W 7688   3.165   0.834  10.378
 4170W        W 7689   0.397   3.334   0.233
 4171W        W 7690   9.862   6.999  10.901
 4172W        W 7691   5.327   4.898   2.271
 4173W        W 7692   4.669   1.833  11.345
 4174W        W 7693   5.860   1.323   9.441
 4175W        W 7694   6.389   0.275  10.770
 4176W        W 7695   2.818   1.939   2.981
 4177W        W 7696   7.000   1.007   2.613
 4178W        W 7697   3.848   3.678  10.811
 4179W        W 7698   2.155   8.086   8.675
 4180W        W 7699   5.921   8.250   2.205
 4181W        W 7700   6.952   9.273   8.377
 4182W        W 7701   3.292   6.703   2.169
 4183W        W 7702   9.835   5.600  10.834
 4184W        W 7703   2.839   3.800  11.617
 4185W        W 7704   8.814   1.723  10.383
 4186W        W 7705   9.286   2.576  10.001
 4187W        W 7706   3.726   4.498   9.854
 4188W        W 7707   2.651   5.122   0.258
 4189W        W 7708   6.363   9.638   9.522
 4190W        W 7709   4.530   8.721  11.507
 4191W        W 7710   8.535   8.466   0.834
 4192W        W 7711   5.976   0.429  11.669
 4193W        W 7712   9.731   3.683  10.093
 4194W        W 7713   6.077   1.595   0.854
 4195W        W 7714   9.019   7.871   8.676
 4196W        W 7715   2.290   9.454  11.376
 4197W        W 7716   0.367   4.608   2.607
 4198W        W 7717   0.781   1.956   1.632
 4199W        W 7718   5.906   6.926  11.017
 4200W        W 7719   7.034   2.009  10.050
 4201W        W 7720   8.347   1.498   1.520
 4202W        W 7721   2.128   6.757   9.570
 4203W        W 7722   1.235   0.811   9.026
 4204W        W 7723   2.224   1.785   9.232
 4205W        W 7724   2.551   7.362   2.922
 4206W        W 7725   2.305   6.715   0.314
 4207W        W 7726   0.179   0.432   9.584
 4208W        W 7727   3.612   1.487   2.953
 4209W        W 7728   8.877   9.710   1.154
 4210W        W 7729   4.442   5.948  11.857
 4211W        W 7730   8.804   5.447   2.545
 4212W        W 7731   1.461   2.652   9.847
 4213W        W 7732   9.655   0.569   1.651
 4214W        W 7733   7.889   3.512   3.898
 4215W        W 7734   6.631   8.013   2.010
 4216W        W 7735   0.476   0.214   2.852
 4217W        W 7736   5.587   2.183   9.214
 4218W        W 7737   1.521   3.756   2.359
 4219W        W 7738   5.260   2.399   8.814
 4220W        W 7739   6.464   7.890  10.507
 4221W        W 7740   7.396   7.527  11.209
 4222W        W 7741   3.530   7.057   8.599
 4223W        W 7742   6.752   0.791  11.913
 4224W        W 7743   5.275   5.655  11.658
 4225W        W 7744   3.361   4.133   0.750
 4226W        W 7745   4.236   8.527  10.293
 4227W        W 7746   8.941   0.251  10.507
 4228W        W 7747   4.329   5.487   3.808
 4229W        W 7748   6.040   6.283   9.379
 4230W        W 7749   7.620   5.907   9.848
 4231W        W 7750   1.718   4.736   3.712
 4232W        W 7751   8.207   9.856   1.947
 4233W        W 7752   7.174   4.363   1.410
 4234W        W 7753   5.555   3.821   4.012
 4235W        W 7754   9.934   5.684   2.444
 4236W        W 7755   5.569   3.065  10.508
 4237W        W 7756   6.412   7.669  11.467
 4238W        W 7757   1.059   3.742   2.539
 4239W        W 7758   8.229   8.290  10.149
 4240W        W 7759   0.807   3.309   2.450
 4241W        W 7760   3.888   9.248   8.611
 4242W        W 7761   0.246   2.580   1.449
 4243W        W 7762   8.646   9.301   9.353
 4244W        W 7763   3.110   4.112   1.233
 4245W        W 7764   1.155   1.206   2.980
 4246W        W 7765   9.074   0.971  11.868
 4247W        W 7766   3.232   1.736   3.204
 4248W        W 7767   5.697   0.976   0.388
 4249W        W 7768   8.043   3.555  10.957
 4250W        W 7769   0.826   6.124   8.829
 4251W        W 7770   2.788   7.049   1.631
 4252W        W 7771   4.347   4.755   2.308
 4253W        W 7772   5.951   0.338   0.177
 4254W        W 7773   2.714   5.156   9.757
 4255W        W 7774   0.815   2.385   1.970
 4256W        W 7775   6.200   3.197   9.631
 4257W        W 7776   1.238   1.321  10.907
 4258W        W 7777   3.103   9.518   9.523
 4259W        W 7778   8.744   4.428   3.567
 4260W        W 7779   4.690   7.156  11.370
 4261W        W 7780   8.947   7.743   0.940
 4262W        W 7781   1.256   2.290   9.560
 4263W        W 7782   3.158   3.257   9.993
 4264W        W 7783   1.126   5.784  11.926
 4265W        W 7784   4.160   8.402   0.208
 4266W        W 7785   0.025   9.083   9.112
 4267W        W 7786   6.074   1.791   9.252
 4268W        W 7787   4.669   1.746   3.240
 4269W        W 7788   7.643   0.292  11.061
 4270W        W 7789   0.927   4.335  11.222
 4271W        W 7790   5.014   3.773   1.144
 4272W        W 7791   6.770   5.990   8.455
 4273W        W 7792   4.733   3.111   2.807
 4274W        W 7793   7.831   1.505   2.292
 4275W        W 7794   6.522   4.182   1.199
 4276W        W 7795   2.364   6.649  10.456
 4277W        W 7796   2.157   8.308   0.887
 4278W        W 7797   8.101   8.376   2.264
 4279W        W 7798   1.549   3.252   3.170
 4280W        W 7799   0.883   8.404   0.361
 4281W        W 7800   5.398   1.757   1.474
 4282W        W 7801   8.979   6.095  10.068
 4283W        W 7802   2.968   6.231  11.749
 4284W        W 7803   2.859   9.741  11.819
 4285W        W 7804   4.208   6.705   9.134
 4286W        W 7805   0.903   2.098   9.255
 4287W        W 7806   9.337   0.990   2.390
 4288W        W 7807   8.060   9.993   1.443
 4289W        W 7808   8.373   2.758  11.992
 4290W        W 7809   6.075   8.060   2.649
 4291W        W 7810   4.686   6.614   9.001
 4292W        W 7811   6.003   0.808   9.407
 4293W        W 7812   7.359   9.380  10.284
 4294W        W 7813   1.078   4.176   2.229
 4295W        W 7814   7.406   4.376   2.565
 4296W        W 7815   9.215   9.302   3.013
 4297W        W 7816   1.626   5.534   3.116
 4298W        W 7817   6.915   9.981  11.449
 4299W        W 7818   2.782   9.096  10.132
 4300W        W 7819   5.067   5.937   2.925
 4301W        W 7820   3.719   3.755   3.507
 4302W        W 7821   1.861   0.235   2.183
 4303W        W 7822   5.591   3.115   2.112
 4304W        W 7823   7.837   0.273   9.527
 4305W        W 7824   9.273   1.694   8.831
 4306W        W 7825   1.815   5.211  10.299
 4307W        W 7826   5.254   7.356   8.969
 4308W        W 7827   9.756   7.515   1.552
 4309W        W 7828   3.963   7.411   2.867
 4310W        W 7829   5.489   4.740   9.966
 4311W        W 7830   3.955   0.838   2.219
 4312W        W 7831   7.116   3.996   8.469
 4313W        W 7832   9.983   5.954   9.967
 4314W        W 7833   5.052   9.115   8.631
 4315W        W 7834   3.258   1.667   9.518
 4316W        W 7835   6.778   2.381   0.439
 4317W        W 7836   9.618   9.627   3.098
 4318W        W 7837   5.607   0.883   1.265
 4319W        W 7838   3.475   6.562   1.277
 4320W        W 7839   4.680   0.406   0.806
 4321W        W 7840   1.903   0.515   1.759
 4322W        W 7841   0.769   5.515   8.416
 4323W        W 7842   5.939   7.651  11.621
 4324W        W 7843   1.937   6.925   1.784
 4325W        W 7844   3.688   0.018   3.241
 4326W        W 7845   8.484   6.024  10.246
 4327W        W 7846   9.051   0.221   9.995
 4328W        W 7847   1.730   2.777   0.611
 4329W        W 7848   7.069   7.484   0.238
 4330W        W 7849   4.919   3.973   8.176
 4331W        W 7850   1.400   7.959   2.255
 4332W        W 7851   5.166   6.459   1.686
 4333W        W 7852   9.220   1.769   1.548
 4334W        W 7853   8.458   5.730   9.356
 4335W        W 7854   8.510   4.109  11.322
 4336W        W 7855   2.594   5.581  10.028
 4337W        W 7856   6.536   0.794  11.063
 4338W        W 7857   2.241   9.861   9.077
 4339W        W 7858   6.620   4.154  10.661
 4340W        W 7859   4.619   3.886   2.390
 4341W        W 7860   2.499   1.482   0.140
 4342W        W 7861   0.088   9.480   2.252
 4343W        W 7862   0.554   5.444   0.803
 4344W        W 7863   2.833   0.464   3.509
 4345W        W 7864   8.419   1.568   0.068
 4346W        W 7865   0.327   3.257  10.749
 4347W        W 7866   2.148   4.385   3.719
 4348W        W 7867   9.424   8.838  11.652
 4349W        W 7868   5.459   2.524  10.379
 4350W        W 7869   7.963   0.404   0.307
 4351W        W 7870   2.435   9.523   3.182
 4352W        W 7871   3.673   2.974   9.337
 4353W        W 7872   8.125   9.599  10.719
 4354W        W 7873   9.931   5.744  11.320
 4355W        W 7874   6.902   5.749  11.882
 4356W        W 7875   7.761   4.712  10.311
 4357W        W 7876   0.977   0.216   3.507
 4358W        W 7877   6.640   3.518  11.915
 4359W        W 7878   6.973   5.467  10.379
 4360W        W 7879   8.046   4.707   8.670
 4361W        W 7880   9.905   8.932  11.814
 4362W        W 7881   4.364   1.035   1.938
 4363W        W 7882   3.302   9.726   1.743
 4364W        W 7883   3.317   8.815  10.212
 4365W        W 7884   6.078   3.310   1.909
 4366W        W 7885   7.672   7.253   8.956
 4367W        W 7886   4.311   2.578   0.932
 4368W        W 7887   9.565   3.255   3.369
 4369W        W 7888   7.714   9.555   9.068
 4370W        W 7889   2.091   4.064   3.297
 4371W        W 7890   4.144   4.727   1.291
 4372W        W 7891   5.960   5.621   8.577
 4373W        W 7892   0.697   4.862   3.419
 4374W        W 7893   7.076   4.512   8.336
 4375W        W 7894   0.400   1.111   1.514
 4376W        W 7895   9.745   3.763  10.597
 4377W        W 7896   7.427   7.044   1.294
 4378W        W 7897   3.345   4.687  11.127
 4379W        W 7898   5.468   0.366   1.209
 4380W        W 7899   2.447   4.701  10.702
 4381W        W 7900   4.667   6.682   0.219
 4382W        W 7901   9.484   6.359   2.197
 4383W        W 7902   8.092   0.362  11.352
 4384W        W 7903   7.844   7.978  11.876
 4385W        W 7904   6.597   2.526  11.767
 4386W        W 7905   9.320   7.902   3.330
 4387W        W 7906   9.320   4.696   9.478
 4388W        W 7907   4.705   4.795   0.436
 4389W        W 7908   2.988   5.119   4.085
 4390W        W 7909   2.428   3.097   3.260
 4391W        W 7910   4.425   6.555   1.029
 4392W        W 7911   4.248   1.567   3.462
 4393W        W 7912   7.174   3.764   2.258
 4394W        W 7913   0.034   5.062  10.196
 4395W        W 7914   8.539   7.604   9.354
 4396W        W 7915   5.075   0.763   9.505
 4397W        W 7916   3.616   4.226  11.777
 4398W        W 7917   9.568   4.096   3.426
 4399W        W 7918   2.754   7.215  11.770
 4400W        W 7919   3.264   3.796   8.858
 4401W        W 7920   2.828   3.943   2.288
 4402W        W 7921   1.742   1.251  10.936
 4403W        W 7922   3.087   0.564   0.879
 4404W        W 7923   8.479   1.852  10.766
 4405W        W 7924   0.384   4.529  11.942
 4406W        W 7925   3.049   6.302   1.443
 4407W        W 7926   6.681   0.837   9.105
 4408W        W 7927   8.471   6.222   9.761
 4409W        W 7928   6.100   7.147  10.070
 4410W        W 7929   5.628   5.821   2.317
 4411W        W 7930   5.293   2.996   0.977
 4412W        W 7931   7.862   8.965  11.331
 4413W        W 7932   0.355   8.422   2.125
 4414W        W 7933   0.955   5.506   0.404
 4415W        W 7934   7.594   0.730   9.421
 4416W        W 7935   8.225   3.203   3.135
 4417W        W 7936   0.897   7.033   2.296
 4418W        W 7937   0.331   8.160  11.285
 4419W        W 7938   7.403   3.977   3.318
 4420W        W 7939   8.067   6.858  10.449
 4421W        W 7940   9.778   0.728   1.014
 4422W        W 7941   8.548   6.621   1.865
 4423W        W 7942   8.599   9.740  10.608
 4424W        W 7943   0.340   9.225  11.832
 4425W        W 7944   6.527   6.000   2.727
 4426W        W 7945   3.278   3.294   9.002
 4427W        W 7946   9.078   4.537   2.418
 4428W        W 7947   3.973   4.215   1.722
 4429W        W 7948   2.752   7.291   8.390
 4430W        W 7949   6.428   2.522  10.056
 4431W        W 7950   9.344   0.545   2.078
 4432W        W 7951   4.647   0.701  11.723
 4433W        W 7952   0.859   6.159  11.325
 4434W        W 7953   1.378   3.536  10.106
 4435W        W 7954   6.385   1.362   9.742
 4436W        W 7955   6.517   5.274  10.948
 4437W        W 7956   2.959   8.020   8.658
 4438W        W 7957   7.585   9.383  11.258
 4439W        W 7958   9.403   6.540  11.859
 4440W        W 7959   8.184   6.397   2.145
 4441W        W 7960   7.011   8.361   3.136
 4442W        W 7961   8.232   9.431   3.210
 4443W        W 7962   8.072   6.992   9.385
 4444W        W 7963   4.640   9.975   1.603
 4445W        W 7964   9.770   0.347  10.989
 4446W        W 7965   5.796   6.887   3.607
 4447W        W 7966   5.427   0.540   3.480
 4448W        W 7967   4.595   7.173   0.239
 4449W        W 7968   7.789   1.178   9.634
 4450W        W 7969   4.869   1.309   1.883
 4451W        W 7970   5.446   1.469   8.725
 4452W        W 7971   4.040   5.179   1.024
 4453W        W 7972   9.256   8.780   2.821
 4454W        W 7973   8.092   9.713   0.107
 4455W        W 7974   6.765   7.547  10.744
 4456W        W 7975   2.414   9.480   1.234
 4457W        W 7976   7.437   0.379   0.592
 4458W        W 7977   5.986   2.802   3.176
 4459W        W 7978   8.596   6.584   2.384
 4460W        W 7979   3.966   6.801  11.578
 4461W        W 7980   6.601   0.871   0.395
 4462W        W 7981   3.123   5.143  10.384
 4463W        W 7982   7.378   9.163   3.330
 4464W        W 7983   4.535   5.827  10.989
 4465W        W 7984   4.235   8.140   2.315
 4466W        W 7985   3.069   9.728   3.584
 4467W        W 7986   4.067   7.139  11.963
 4468W        W 7987   0.809   0.643   9.521
 4469W        W 7988   2.561   9.090   2.886
 4470W        W 7989   4.492   7.387  11.797
 4471W        W 7990   7.393   2.826  10.092
 4472W        W 7991   5.206   2.772   2.176
 4473W        W 7992   2.780   9.960   9.972
 4474W        W 7993   8.510   9.771   1.542
 4475W        W 7994   0.917   9.780   3.222
 4476W        W 7995   2.362   9.634  11.855
 4477W        W 7996   1.773   9.702   9.719
 4478W        W 7997   4.537   9.317   1.839
 4479W        W 7998   5.691   4.911  10.848
 4480W        W 7999   2.390   1.200  11.710
 4481W        W 8000   4.746   2.855   2.344
 4482W        W 8001   8.673   6.105   1.983
 4483W        W 8002   0.902   5.175   0.026
 4484W        W 8003   9.040   8.557   9.030
 4485W        W 8004   4.467   2.427   2.310
 4486W        W 8005   2.425   6.979   8.706
 4487W        W 8006   3.945   7.114   8.967
 4488W        W 8007   1.769   0.357   0.349
 4489W        W 8008   3.578   9.801   9.404
 4490W        W 8009   5.140   3.621   2.234
 4491W        W 8010   9.355   4.691   1.434
 4492W        W 8011   6.971   7.775   9.801
 4493W        W 8012   3.707   6.964   2.984
 4494W        W 8013   5.737   3.624   0.760
 4495W        W 8014   3.967   6.546   8.262
 4496W        W 8015   6.071   8.643  11.897
 4497W        W 8016   0.194   9.666   1.258
 4498W        W 8017   7.218   7.225   8.695
 4499W        W 8018   0.477   8.394   0.039
 4500W        W 8019   8.945   3.056   2.174
 4501W        W 8020   2.168   7.837   9.690
 4502W        W 8021   9.161   1.776   2.077
 4503W        W 8022   9.346   4.987   2.315
 4504W        W 8023   9.864   5.609  10.326
 4505W        W 8024   2.418   0.736   3.028
 4506W        W 8025   5.514   6.632  10.819
 4507W        W 8026   7.955   7.549   8.653
 4508W        W 8027   1.818   2.708  11.185
 4509W        W 8028   6.258   3.673   2.243
 4510W        W 8029   1.615   7.949   0.601
 4511W        W 8030   6.148   4.733   2.589
 4512W        W 8031   5.992   2.346   1.349
 4513W        W 8032   2.180   1.994   0.849
 4514W        W 8033   6.188   5.199   8.786
 4515W        W 8034   6.843   6.093   9.743
 4516W        W 8035   4.721   2.659  10.914
 4517W        W 8036   8.377   2.942   0.881
 4518W        W 8037   3.036   8.058   9.153
 4519W        W 8038   9.389   7.213   9.785
 4520W        W 8039   8.584   4.557  10.583
 4521W        W 8040   6.016   6.547  10.642
 4522W        W 8041   1.708   7.977   9.989
 4523W        W 8042   4.610   4.057   1.074
 4524W        W 8043   5.919   1.541   9.906
 4525W        W 8044   8.979   2.297   0.010
 4526W        W 8045   9.345   4.876   9.980
 4527W        W 8046   2.546   6.575   0.831
 4528W        W 8047   3.067   0.102   1.497
 4529W        W 8048   4.194   0.572   1.838
 4530W        W 8049   9.161   9.776   0.223
 4531W        W 8050   2.319   4.040   9.537
 4532W        W 8051   6.661   2.179   9.740
 4533W        W 8052   8.448   2.373   0.930
 4534W        W 8053   0.265   2.341  10.986
 4535W        W 8054   0.515   8.845   1.409
 4536W        W 8055   6.716   8.473   2.730
 4537W        W 8056   8.471   3.355   9.524
 4538W        W 8057   6.706   2.855  11.409
 4539W        W 8058   2.913   7.595   9.329
 4540W        W 8059   9.740   9.030   2.506
 4541W        W 8060   4.363   7.179   9.300
 4542W        W 8061   8.072   9.774   9.397
 4543W        W 8062   3.767   7.275   9.435
 4544W        W 8063   6.449   5.415   1.115
 4545W        W 8064   5.904   3.946   0.287
 4546W        W 8065   9.519   0.875   0.116
 4547W        W 8066   8.429   8.822   2.150
 4548W        W 8067   4.161   9.275   1.490
 4549W        W 8068   9.690   8.155   0.360
 4550W        W 8069   2.127   0.874   2.620
 4551W        W 8070   9.990   6.879   1.035
 4552W        W 8071   6.064   0.478   1.999
 4553W        W 8072   6.306   9.431   8.630
 4554W        W 8073   0.014   4.172   9.290
 4555W        W 8074   0.416   6.181   0.192
 4556W        W 8075   6.154   7.508   3.117
 4557W        W 8076   0.514   1.342   8.705
 4558W        W 8077   3.128   5.629  10.194
 4559W        W 8078   5.520   2.140   3.074
 4560W        W 8079   2.057   9.131   1.103
 4561W        W 8080   0.322   8.260  10.771
 4562W        W 8081   3.365   8.056   1.889
 4563W        W 8082   0.800   0.577   2.658
 4564W        W 8083   4.294   6.517   0.543
 4565W        W 8084   0.675   1.271   3.166
 4566W        W 8085   0.561   0.660   1.677
 4567W        W 8086   7.385   2.735   3.036
 4568W        W 8087   3.412   1.584   3.655
 4569W        W 8088   7.944   2.837  11.688
 4570W        W 8089   7.339   4.400  11.408
 4571W        W 8090   4.253   0.426  11.449
 4572W        W 8091   0.060   2.884   2.642
 4573W        W 8092   3.402   9.938   0.702
 4574W        W 8093   0.031   7.577   0.072
 4575W        W 8094   5.356   6.184   2.086
 4576W        W 8095   3.094   7.188   3.460
 4577W        W 8096   7.163   5.754   1.040
 4578W        W 8097   3.326   5.966  11.052
 4579W        W 8098   4.622   0.306   1.987
 4580W        W 8099   7.597   6.600   0.100
 4581W        W 8100   6.815   0.671   1.745
 4582W        W 8101   2.718   4.936   2.002
 4583W        W 8102   8.295   4.121   9.286
 4584W        W 8103   3.779   0.588   9.824
 4585W        W 8104   3.385   5.095   2.842
 4586W        W 8105   7.044   4.381   8.830
 4587W        W 8106   5.751   7.082   9.294
 4588W        W 8107   5.008   0.351   9.177
 4589W        W 8108   9.945   5.447   1.451
 4590W        W 8109   4.712   8.013   2.341
 4591W        W 8110   6.466   8.919   0.710
 4592W        W 8111   1.936   9.492   8.452
 4593W        W 8112   9.707   0.449   8.355
 4594W        W 8113   3.209   2.879  10.696
 4595W        W 8114   4.464   3.058   1.218
 4596W        W 8115   2.721   4.590   8.970
 4597W        W 8116   2.722   4.214  11.357
 4598W        W 8117   8.857   0.518   0.017
 4599W        W 8118   8.108   4.796   1.144
 4600W        W 8119   1.991   8.877  10.266
 4601W        W 8120   9.760   9.814   1.505
 4602W        W 8121   0.391   6.154   2.181
 4603W        W 8122   0.528   2.129  10.581
 4604W        W 8123   4.498   4.308   3.228
 4605W        W 8124   8.397   7.050   1.496
 4606W        W 8125   4.075   2.286   1.320
 4607W        W 8126   7.597   0.176   3.355
 4608W        W 8127   6.022   2.061   0.023
 4609W        W 8128   3.390   8.712   2.999
 4610W        W 8129   3.697   9.872  10.912
 4611W        W 8130   3.616   6.886  10.682
 4612W        W 8131   7.091   6.505  11.428
 4613W        W 8132   9.056   5.169   0.698
 4614W        W 8133   5.237   7.604  11.183
 4615W        W 8134   1.401   4.504  11.277
 4616W        W 8135   3.716   6.385  11.442
 4617W        W 8136   3.803   5.688   3.754
 4618W        W 8137   6.277   0.863   3.621
 4619W        W 8138   5.699   2.725   0.755
 4620W        W 8139   1.974   1.274  11.407
 4621W        W 8140   3.300   8.526   0.021
 4622W        W 8141   9.508   4.221   9.414
 4623W        W 8142   0.038   5.693   1.901
 4624W        W 8143   2.482   3.368  11.094
 4625W        W 8144   6.906   5.060  10.713
 4626W        W 8145   2.310   7.202   1.574
 4627W        W 8146   4.630   9.194   8.925
 4628W        W 8147   0.427   7.581   9.676
 4629W        W 8148   9.574   6.383  10.154
 4630W        W 8149   6.815   0.261   9.027
 4631W        W 8150   1.688   4.596   3.213
 4632W        W 8151   0.123   6.579   3.487
 4633W        W 8152   5.920   2.475   0.295
 4634W        W 8153   9.552   8.008   1.487
 4635W        W 8154   3.716   2.821  10.772
 4636W        W 8155   4.269   6.171  10.656
 4637W        W 8156   6.809   3.898   8.868
 4638W        W 8157   0.948   7.964   2.586
 4639W        W 8158   1.842   4.137   2.455
 4640W        W 8159   5.974   1.171  11.786
 4641W        W 8160   6.474   3.489  10.008
 4642W        W 8161   3.340   6.401   3.594
 4643W        W 8162   7.524   4.128   1.116
 4644W        W 8163   0.767   6.630   2.654
 4645W        W 8164   8.581   8.385   2.430
 4646W        W 8165   5.771   7.457  11.177
 4647W        W 8166   5.647   9.519   0.662
 4648W        W 8167   0.028   4.923   0.185
 4649W        W 8168   7.918   6.905   0.331
 4650W        W 8169   1.032   1.301   8.687
 4651W        W 8170   3.248   1.694  11.610
 4652W        W 8171   6.530   8.830  10.965
 4653W        W 8172   8.524   4.485   0.942
 4654W        W 8173   3.160   3.336   8.489
 4655W        W 8174   2.080   6.599   2.190
 4656W        W 8175   8.109   2.365  11.469
 4657W        W 8176   5.572   6.753   1.571
 4658W        W 8177   3.191   2.299  10.067
 4659W        W 8178   0.137   0.655   1.948
 4660W        W 8179   5.205   8.116  11.073
 4661W        W 8180   1.814   6.085   9.921
 4662W        W 8181   7.826   9.904  10.382
 4663W        W 8182   6.485   4.864   9.872
 4664W        W 8183   0.878   6.479   0.482
 4665W        W 8184   2.044   7.639   1.504
 4666W        W 8185   4.348   6.318   3.477
 4667W        W 8186   6.275   6.694   3.636
 4668W        W 8187   9.691   6.660  11.281
 4669W        W 8188   6.534   3.120   9.270
 4670W        W 8189   2.009   3.666   2.254
 4671W        W 8190   7.041   0.320   2.267
 4672W        W 8191   4.761   9.897  11.574
 4673W        W 8192   4.481   6.876  11.773
 4674W        W 8193   4.800   7.432  10.934
 4675W        W 8194   0.397   1.970   2.382
 4676W        W 8195   7.450   4.233   2.097
 4677W        W 8196   0.420   6.382  10.618
 4678W        W 8197   9.022   8.156  11.289
 4679W        W 8198   3.859   8.999  11.007
 4680W        W 8199   1.836   4.059   9.303
 4681W        W 8200   0.839   4.035   0.689
 4682W        W 8201   9.218   8.900  10.643
 4683W        W 8202   0.208   7.605   2.368
 4684W        W 8203   0.687   2.983   2.821
 4685W        W 8204   7.621   9.542   3.602
 4686W        W 8205   4.800   2.734   1.832
 4687W        W 8206   8.192   4.885  10.532
 4688W        W 8207   0.368   2.145   1.854
 4689W        W 8208   3.085   6.077   9.025
 4690W        W 8209   3.990   3.760   0.359
 4691W        W 8210   4.068   7.026   8.460
 4692W        W 8211   5.109   9.461   9.596
 4693W        W 8212   0.660   2.583  11.869
 4694W        W 8213   6.083   7.806   0.114
 4695W        W 8214   4.194   4.007   8.807
 4696W        W 8215   0.446   1.984   3.430
 4697W        W 8216   3.350   9.812  11.797
 4698W        W 8217   2.885   5.174   2.789
 4699W        W 8218   3.045   1.260   9.319
 4700W        W 8219   8.907   7.146  10.963
 4701W        W 8220   8.412   0.270   1.751
 4702W        W 8221   4.628   2.473   9.570
 4703W        W 8222   9.395   9.089   2.027
 4704W        W 8223   5.547   2.851   9.986
 4705W        W 8224   9.588   8.214   2.526
 4706W        W 8225   8.967   9.311   1.870
 4707W        W 8226   8.789   1.164   1.412
 4708W        W 8227   9.072   3.122   3.385
 4709W        W 8228   7.576   6.396   2.849
 4710W        W 8229   4.515   9.571  11.265
 4711W        W 8230   9.746   0.421   0.007
 4712W        W 8231   4.716   4.392   2.309
 4713W        W 8232   6.852   3.635   0.391
 4714W        W 8233   4.234   4.754   3.171
 4715W        W 8234   4.694   5.702   1.127
 4716W        W 8235   7.605   7.990   0.940
 4717W        W 8236   7.024   8.905   2.847
 4718W        W 8237   5.865   0.306  10.815
 4719W        W 8238   1.791   0.109   0.816
 4720W        W 8239   3.381   1.501   0.665
 4721W        W 8240   4.032   7.618  11.802
 4722W        W 8241   3.946   8.947   9.358
 4723W        W 8242   2.608   1.640  10.142
 4724W        W 8243   6.232   8.627   9.573
 4725W        W 8244   0.976   3.683  11.030
 4726W        W 8245   1.880   7.468  10.786
 4727W        W 8246   7.930   8.189   3.152
 4728W        W 8247   7.934   1.021   8.851
 4729W        W 8248   8.513   5.894   8.856
 4730W        W 8249   3.403   1.201  11.783
 4731W        W 8250   6.956   1.100   3.534
 4732W        W 8251   6.694   0.717   2.298
 4733W        W 8252   0.952   2.090   3.231
 4734W        W 8253   4.087   4.802  10.574
 4735W        W 8254   8.052   4.900   1.653
 4736W        W 8255   5.468   0.615   9.221
 4737W        W 8256   7.912   0.271   2.029
 4738W        W 8257   2.134   5.134   8.572
 4739W        W 8258   0.730   8.904  11.953
 4740W        W 8259   1.019   5.007  11.111
 4741W        W 8260   3.971   9.365   0.588
 4742W        W 8261   7.114   6.040   0.236
 4743W        W 8262   4.775   9.857   0.104
 4744W        W 8263   3.238   9.900  11.308
 4745W        W 8264   3.321   4.581  11.988
 4746W        W 8265   5.041   2.341   3.071
 4747W        W 8266   6.159   1.916   2.146
 4748W        W 8267   9.991   4.125   3.136
 4749W        W 8268   1.424   7.433   3.439
 4750W        W 8269   9.892   2.023   0.497
 4751W        W 8270   8.084   8.205   0.910
 4752W        W 8271   9.963   3.136  11.434
 4753W        W 8272   4.979   3.230   8.559
 4754W        W 8273   8.312   0.089   3.454
 4755W        W 8274   5.538   3.889   8.840
 4756W        W 8275   0.839   1.711   0.260
 4757W        W 8276   9.453   0.876   0.618
 4758W        W 8277   3.771   6.543   0.428
 4759W        W 8278   4.940   5.617  10.161
 4760W        W 8279   8.465   5.977  11.264
 4761W        W 8280   4.985   4.769  10.196
 4762W        W 8281   9.956   0.243  10.004
 4763W        W 8282   1.298   5.506   1.327
 4764W        W 8283   8.807   7.293   1.258
 4765W        W 8284   1.884   9.358   0.123
 4766W        W 8285   4.841   0.010   2.763
 4767W        W 8286   6.403   2.662   0.209
 4768W        W 8287   0.852   9.070   1.703
 4769W        W 8288   6.301   2.221   0.488
 4770W        W 8289   2.039   9.914   1.255
 4771W        W 8290   9.928   2.154  11.988
 4772W        W 8291   6.662   0.190   2.613
 4773W        W 8292   7.623   5.143   1.544
 4774W        W 8293   1.653   1.157   0.744
 4775W        W 8294   0.984   9.302  11.648
 4776W        W 8295   9.483   5.860  10.091
 4777W        W 8296   1.742   0.644   0.842
 4778W        W 8297   7.031   8.186   3.643
 4779W        W 8298   0.763   3.698   9.331
 4780W        W 8299   5.039   3.435  10.032
 4781W        W 8300   8.493   7.533   3.323
 4782W        W 8301   8.721   0.197   1.361
 4783W        W 8302   5.996   2.326   1.845
 4784W        W 8303   7.237   9.445   2.315
 4785W        W 8304   4.111   6.685   2.323
 4786W        W 8305   0.268   0.931   2.460
 4787W        W 8306   3.134   2.345   0.315
 4788W        W 8307   0.653   3.785   9.827
 4789W        W 8308   5.992   4.616   0.848
 4790W        W 8309   6.802   9.467   1.405
 4791W        W 8310   3.451   7.385   3.129
 4792W        W 8311   8.517   4.844  11.857
 4793W        W 8312   4.107   6.516  10.053
 4794W        W 8313   1.943   2.948   3.448
 4795W        W 8314   0.846   0.484  10.330
 4796W        W 8315   2.291   1.928   2.082
 4797W        W 8316   7.584   3.349  10.071
 4798W        W 8317   8.498   4.109  10.798
 4799W        W 8318   9.887   7.229   2.437
 4800W        W 8319   8.491   8.964   0.668
 4801W        W 8320   7.654   8.990  10.008
 4802W        W 8321   8.503   0.760   2.197
 4803W        W 8322   1.299   1.971   2.531
 4804W        W 8323   9.007   3.604  11.447
 4805W        W 8324   9.848   4.545   1.734
 4806W        W 8325   2.028   4.690   4.131
 4807W        W 8326   0.507   1.645   1.936
 4808W        W 8327   9.064   2.578   1.511
 4809W        W 8328   8.769   1.924   0.793
 4810W        W 8329   6.555   6.286   8.056
 4811W        W 8330   4.709   0.825   0.206
 4812W        W 8331   5.917   0.873  10.877
 4813W        W 8332   3.929   7.967   1.094
 4814W        W 8333   1.641   1.657   0.609
 4815W        W 8334   5.816   7.887   8.952
 4816W        W 8335   0.696   1.073   2.701
 4817W        W 8336   8.987   0.621   0.706
 4818W        W 8337   0.332   9.506   3.615
 4819W        W 8338   6.309   1.203   9.249
 4820W        W 8339   2.529   6.393   2.123
 4821W        W 8340   8.524   4.244   9.752
 4822W        W 8341   2.784   2.431   2.710
 4823W        W 8342   5.254   9.169   3.513
 4824W        W 8343   1.650   6.615   9.226
 4825W        W 8344   5.173   1.578   0.923
 4826W        W 8345   8.446   6.224   9.252
 4827W        W 8346   0.303   3.136   9.127
 4828W        W 8347   7.418   9.947   2.275
 4829W        W 8348   4.887   0.165  10.942
 4830W        W 8349   4.012   7.621   0.712
 4831W        W 8350   5.673   1.949   8.771
 4832W        W 8351   3.567   2.153   1.297
 4833W        W 8352   8.061   6.715   0.802
 4834W        W 8353   5.755   1.939   9.635
 4835W        W 8354   3.673   1.039   9.604
 4836W        W 8355   4.787   8.897  11.928
 4837W        W 8356   3.186   3.359   0.514
 4838W        W 8357   4.770   4.425   1.725
 4839W        W 8358   2.909   4.742   9.959
 4840W        W 8359   5.666   8.813  10.560
 4841W        W 8360   4.919   4.879   1.579
 4842W        W 8361   9.568   1.428   9.146
 4843W        W 8362   2.280   9.464   2.637
 4844W        W 8363   9.376   2.773   8.989
 4845W        W 8364   6.445   3.819  11.526
 4846W        W 8365   9.297   7.698   1.825
 4847W        W 8366   7.477   8.612   3.218
 4848W        W 8367   8.985   2.307   0.517
 4849W        W 8368   6.145   6.204  11.539
 4850W        W 8369   0.683   7.792   1.018
 4851W        W 8370   0.349   7.120   0.250
 4852W        W 8371   6.434   2.025  11.551
 4853W        W 8372   1.250   0.969   1.000
 4854W        W 8373   8.956   0.355   1.802
 4855W        W 8374   5.297   2.973   8.235
 4856W        W 8375   9.366   6.014   8.728
 4857W        W 8376   9.547   8.985   1.548
 4858W        W 8377   1.366   8.793   9.007
 4859W        W 8378   8.033   3.667  11.451
 4860W        W 8379   3.399   6.010  11.588
 4861W        W 8380   3.574   5.505   2.269
 4862W        W 8381   1.014   7.466  11.181
 4863W        W 8382   4.423   9.113   0.651
 4864W        W 8383   0.674   0.000  11.211
 4865W        W 8384   1.638   6.766  11.481
 4866W        W 8385   1.785   0.342   1.271
 4867W        W 8386   3.984   6.774  11.034
 4868W        W 8387   2.293   9.164   9.897
 4869W        W 8388   7.080   7.171  10.962
 4870W        W 8389   1.369   5.822   0.363
 4871W        W 8390   8.162   6.502   2.727
 4872W        W 8391   7.090   2.390  10.369
 4873W        W 8392   1.237   1.734   3.008
 4874W        W 8393   4.027   2.847   1.435
 4875W        W 8394   2.792   2.056  10.363
 4876W        W 8395   2.718   7.252   2.432
 4877W        W 8396   2.810   9.910   3.172
 4878W        W 8397   3.459   1.226   2.150
 4879W        W 8398   5.025   5.279  11.401
 4880W        W 8399   4.981   6.545   1.153
 4881W        W 8400   8.610   9.693   3.576
 4882W        W 8401   0.438   8.911   3.420
 4883W        W 8402   1.675   8.455  10.213
 4884W        W 8403   8.084   1.144  11.926
 4885W        W 8404   0.153   5.292   2.189
 4886W        W 8405   3.690   2.289   9.941
 4887W        W 8406   7.583   4.381  10.966
 4888W        W 8407   6.560   0.509   0.774
 4889W        W 8408   4.058   9.500  11.033
 4890W        W 8409   8.418   2.177   0.237
 4891W        W 8410   4.660   0.946  11.278
 4892W        W 8411   7.721   1.838   9.026
 4893W        W 8412   5.588   5.982   2.803
 4894W        W 8413   5.810   4.317  10.057
 4895W        W 8414   4.393   6.693  11.322
 4896W        W 8415   9.961   7.334   0.562
 4897W        W 8416   6.451   0.368   0.278
 4898W        W 8417   9.005   9.375   9.730
 4899W        W 8418   5.584   1.479  11.626
 4900W        W 8419   9.972   4.387   3.562
 4901W        W 8420   7.012   5.599   3.603
 4902W        W 8421   5.125   2.572  11.740
 4903W        W 8422   1.403   5.516   1.836
 4904W        W 8423   6.938   6.143  11.061
 4905W        W 8424   2.243   4.881   0.502
 4906W        W 8425   5.207   3.784   9.655
 4907W        W 8426   9.788   8.961  10.330
 4908W        W 8427   6.575   6.520  11.509
 4909W        W 8428   2.889   0.243   8.845
 4910W        W 8429   1.839   4.255   0.032
 4911W        W 8430   0.975   0.581  11.196
 4912W        W 8431   2.990   2.673   9.605
 4913W        W 8432   6.901   3.396   1.308
 4914W        W 8433   7.243   8.540  10.334
 4915W        W 8434   8.418   1.953   9.754
 4916W        W 8435   7.304   7.588   9.078
 4917W        W 8436   1.277   8.067   9.712
 4918W        W 8437   1.382   5.053  10.000
 4919W        W 8438   2.182   1.273   8.997
 4920W        W 8439   0.182   2.741   0.955
 4921W        W 8440   0.228   8.015   3.304
 4922W        W 8441   1.946   5.540   3.521
 4923W        W 8442   3.417   9.063  11.255
 4924W        W 8443   9.071   5.581   9.956
 4925W        W 8444   0.917   9.363   2.902
 4926W        W 8445   5.153   6.428   9.111
 4927W        W 8446   9.939   8.566   2.382
 4928W        W 8447   4.417   7.309   3.634
 4929W        W 8448   2.785   8.201   0.674
 4930W        W 8449   5.646   7.615   3.248
 4931W        W 8450   0.764   8.459   3.249
 4932W        W 8451   4.773   1.358   2.466
 4933W        W 8452   3.777   5.088   2.478
 4934W        W 8453   8.984   8.790   0.545
 4935W        W 8454   2.893   5.532   0.435
 4936W        W 8455   8.474   9.419   1.905
 4937W        W 8456   3.758   7.206   0.876
 4938W        W 8457   7.671   8.441   0.679
 4939W        W 8458   4.219   8.085  11.805
 4940W        W 8459   0.459   2.197   8.979
 4941W        W 8460   5.172   6.069   9.463
 4942W        W 8461   1.152   7.454   2.002
 4943W        W 8462   4.117   9.878   9.172
 4944W        W 8463   0.423   6.650   3.060
 4945W        W 8464   8.000   6.108  11.367
 4946W        W 8465   3.523   5.131  11.342
 4947W        W 8466   3.850   0.965   1.746
 4948W        W 8467   8.440   2.538   2.895
 4949W        W 8468   6.256   8.446   3.000
 4950W        W 8469   3.968   8.487   2.534
 4951W        W 8470   2.186   8.657   1.280
 4952W        W 8471   5.652   5.043   2.651
 4953W        W 8472   7.071   7.353   2.000
 4954W        W 8473   1.476   3.313   0.559
 4955W        W 8474   8.479   1.108  11.218
 4956W        W 8475   9.070   3.508   2.377
 4957W        W 8476   9.552   9.514   0.432
 4958W        W 8477   6.644   2.670   2.301
 4959W        W 8478   9.887   8.465   1.870
 4960W        W 8479   4.569   9.790   3.551
 4961W        W 8480   4.652   1.944   2.247
 4962W        W 8481   6.180   7.823   2.184
 4963W        W 8482   3.054   4.300  10.131
 4964W        W 8483   4.746   6.276   8.622
 4965W        W 8484   1.387   5.351  10.574
 4966W        W 8485   1.296   9.770   9.026
 4967W        W 8486   7.166   2.041   9.562
 4968W        W 8487   2.002   5.626  10.063
 4969W        W 8488   4.109   5.577  10.907
 4970W        W 8489   5.365   3.434   1.283
 4971W        W 8490   3.688   8.546   0.385
 4972W        W 8491   7.825   2.155   1.745
 4973W        W 8492   2.362   3.308  10.596
 4974W        W 8493   4.219   3.343   3.456
 4975W        W 8494   2.717   3.809   1.396
 4976W        W 8495   4.979   8.218   2.920
 4977W        W 8496   8.960   2.732  11.686
 4978W        W 8497   6.102   9.014   2.245
 4979W        W 8498   3.256   5.144  10.903
 4980W        W 8499   8.830   4.944   2.646
 4981W        W 8500   5.774   5.447  11.475
 4982W        W 8501   0.799   3.764   2.110
 4983W        W 8502   9.724   1.936  10.290
 4984W        W 8503   6.566   6.548   9.565
 4985W        W 8504   6.348   0.242  10.239
 4986W        W 8505   1.701   7.923   9.477
 4987W        W 8506   1.632   0.274  11.869
 4988W        W 8507   8.969   6.882   9.947
 4989W        W 8508   8.983   8.265  11.855
 4990W        W 8509   3.810   1.144   2.589
 4991W        W 8510   7.428   6.095   4.164
 4992W        W 8511   5.242   4.129   0.802
 4993W        W 8512   0.444   9.630   3.088
 4994W        W 8513   8.650   9.972  10.143
 4995W        W 8514   6.432   7.090   1.186
 4996W        W 8515   1.750   7.566   0.291
 4997W        W 8516   6.252   1.891   9.728
 4998W        W 8517   7.127   2.321   0.084
 4999W        W 8518   0.907   3.402  11.459
 5000W        W 8519   1.372   9.880   3.417
 5001W        W 8520   1.728   5.932   1.771
 5002W        W 8521   1.705   1.759   0.079
 5003W        W 8522   7.601   6.833   1.718
 5004W        W 8523   7.116   0.744  10.293
 5005W        W 8524   8.169   5.872   2.047
 5006W        W 8525   9.805   7.195  10.341
 5007W        W 8526   9.722   6.183   1.090
 5008W        W 8527   6.099   5.102   2.942
 5009W        W 8528   3.776   6.678   1.740
 5010W        W 8529   8.345   3.172  10.440
 5011W        W 8530   5.794   4.514  11.164
 5012W        W 8531   8.058   1.864   9.410
 5013W        W 8532   1.384   7.592  10.475
 5014W        W 8533   1.215   8.726   1.563
 5015W        W 8534   1.461   5.465   0.702
 5016W        W 8535   7.390   8.075  10.489
 5017W        W 8536   3.617   9.535  11.313
 5018W        W 8537   8.761   2.151  10.080
 5019W        W 8538   9.500   5.992   2.570
 5020W        W 8539   0.329   8.411   1.623
 5021W        W 8540   0.778   5.351   1.279
 5022W        W 8541   6.693   1.393   0.413
 5023W        W 8542   5.304   0.236   2.706
 5024W        W 8543   4.647   8.805  11.005
 5025W        W 8544   0.260   2.469   2.421
 5026W        W 8545   2.090   3.580   9.436
 5027W        W 8546   9.381   5.000   1.042
 5028W        W 8547   5.936   6.083   0.044
 5029W        W 8548   0.456   3.646   1.760
 5030W        W 8549   1.834   7.199   1.342
 5031W        W 8550   0.175   7.235   1.377
 5032W        W 8551   1.091   0.213  11.976
 5033W        W 8552   4.192   0.834   2.851
 5034W        W 8553   7.966   7.183   1.700
 5035W        W 8554   6.829   6.074   4.127
 5036W        W 8555   2.486   5.059   3.222
 5037W        W 8556   3.078   4.440   8.198
 5038W        W 8557   9.234   2.270   3.216
 5039W        W 8558   5.178   2.565   0.731
 5040W        W 8559   6.811   6.933   3.846
 5041W        W 8560   0.699   5.248  10.768
 5042W        W 8561   5.128   1.067   2.811
 5043W        W 8562   4.934   6.693   4.111
 5044W        W 8563   0.159   3.448   0.714
 5045W        W 8564   7.993   4.249  10.194
 5046W        W 8565   5.279   7.148   9.463
 5047W        W 8566   8.048   3.475   2.308
 5048W        W 8567   6.463   9.728  11.464
 5049W        W 8568   5.862   9.988   8.951
 5050W        W 8569   9.362   6.875   2.109
 5051W        W 8570   9.257   7.864   2.329
 5052W        W 8571   2.124   6.926   3.525
 5053W        W 8572   4.274   6.531   1.866
 5054W        W 8573   5.348   2.288   2.596
 5055W        W 8574   6.039   5.504   1.409
 5056W        W 8575   7.151   7.539  11.650
 5057W        W 8576   0.994   0.001   1.821
 5058W        W 8577   7.271   6.032   9.025
 5059W        W 8578   8.745   9.396   3.182
 5060W        W 8579   3.874   8.979  11.503
 5061W        W 8580   9.568   7.531   0.297
 5062W        W 8581   1.902   6.449  10.829
 5063W        W 8582   1.291   9.855  10.571
 5064W        W 8583   7.900   9.291   9.555
 5065W        W 8584   8.359   6.326   0.884
 5066W        W 8585   3.193   8.052   2.397
 5067W        W 8586   5.915   1.020  10.381
 5068W        W 8587   1.638   2.745   1.218
 5069W        W 8588   2.703   9.347   9.264
 5070W        W 8589   3.296   4.659   9.642
 5071W        W 8590   5.160   7.863   2.574
 5072W        W 8591   2.289   5.954   3.479
 5073W        W 8592   6.565   9.253  10.398
 5074W        W 8593   6.462   2.446   2.758
 5075W        W 8594   1.316   8.457   2.366
 5076W        W 8595   6.506   5.119   2.557
 5077W        W 8596   0.809   4.407   3.218
 5078W        W 8597   5.833   4.911   2.191
 5079W        W 8598   7.847   2.637   9.856
 5080W        W 8599   6.074   9.451  10.350
 5081W        W 8600   7.905   3.449  10.459
 5082W        W 8601   2.468   2.595   3.381
 5083W        W 8602   9.551   6.758   0.278
 5084W        W 8603   7.725   5.635   2.442
 5085W        W 8604   3.475   0.967   3.529
 5086W        W 8605   9.442   4.328   0.069
 5087W        W 8606   5.743   8.583   3.016
 5088W        W 8607   8.398   7.084   2.013
 5089W        W 8608   8.701   9.236   2.331
 5090W        W 8609   3.538   8.279   2.766
 5091W        W 8610   8.715   2.921   9.612
 5092W        W 8611   3.191   2.956   0.860
 5093W        W 8612   4.810   0.376   9.690
 5094W        W 8613   3.774   7.246  11.049
 5095W        W 8614   4.438   5.503  10.048
 5096W        W 8615   3.546   8.236   1.302
 5097W        W 8616   3.717   5.435   9.434
 5098W        W 8617   1.212   1.936   0.828
 5099W        W 8618   4.247   2.315   9.250
 5100W        W 8619   1.964   1.008   3.093
 5101W        W 8620   9.703   3.593  11.468
 5102W        W 8621   4.566   5.645   0.239
 5103W        W 8622   3.896   8.187  11.423
 5104W        W 8623   8.775   7.064   0.287
 5105W        W 8624   1.136   3.434   3.385
 5106W        W 8625   0.752   0.866   8.570
 5107W        W 8626   9.497   9.400   9.628
 5108W        W 8627   4.016   0.917   3.366
 5109W        W 8628   7.969   8.736   3.056
 5110W        W 8629   7.563   4.372   9.957
 5111W        W 8630   0.509   3.038   0.654
 5112W        W 8631   8.123   6.202   3.675
 5113W        W 8632   0.404   3.346   9.582
 5114W        W 8633   0.919   2.211   8.740
 5115W        W 8634   5.560   8.282   8.739
 5116W        W 8635   1.542   7.438   2.808
 5117W        W 8636   5.832   8.915   9.691
 5118W        W 8637   3.172   4.732   9.155
 5119W        W 8638   8.395   5.705   1.587
 5120W        W 8639   3.979   4.670   2.671
 5121W        W 8640   2.204   6.220   0.428
 5122W        W 8641   6.796   0.587  11.444
 5123W        W 8642   2.925   8.961   0.092
 5124W        W 8643   1.359   0.643   0.078
 5125W        W 8644   9.830   4.853   2.174
 5126W        W 8645   6.280   5.600   2.960
 5127W        W 8646   3.481   0.601   0.315
 5128W        W 8647   2.154   9.199   1.595
 5129W        W 8648   8.634   2.255   1.424
 5130W        W 8649   9.496   5.339  11.431
 5131W        W 8650   4.192   0.850   1.400
 5132W        W 8651   8.457   3.495   0.692
 5133W        W 8652   7.308   0.633   1.552
 5134W        W 8653   9.009   5.869   2.306
 5135W        W 8654   8.577   9.673   0.261
 5136W        W 8655   5.858   3.050   8.759
 5137W        W 8656   0.026   5.450   9.874
 5138W        W 8657   1.055   0.346   9.856
 5139W        W 8658   3.067   6.837   8.341
 5140W        W 8659   8.268   0.686   3.188
 5141W        W 8660   4.487   3.237   0.680
 5142W        W 8661   2.746   5.529  10.988
 5143W        W 8662   1.693   3.187  11.340
 5144W        W 8663   2.130   0.403  11.973
 5145W        W 8664   7.877   3.014   2.184
 5146W        W 8665   5.713   9.818   2.335
 5147W        W 8666   3.523   2.655   1.451
 5148W        W 8667   9.639   9.973   0.239
 5149W        W 8668   8.319   5.109   9.934
 5150W        W 8669   6.159   9.016  10.642
 5151W        W 8670   5.915   6.375  11.104
 5152W        W 8671   0.449   1.561  11.993
 5153W        W 8672   6.167   4.698   0.010
 5154W        W 8673   6.294   4.207   0.731
 5155W        W 8674   9.441   9.285   8.653
 5156W        W 8675   9.441   7.087  11.193
 5157W        W 8676   5.660   1.451   0.587
 5158W        W 8677   4.212   5.061   9.862
 5159W        W 8678   7.623   4.652   8.986
 5160W        W 8679   1.283   7.151   0.176
 5161W        W 8680   2.389   5.241   2.761
 5162W        W 8681   5.410   4.890  10.443
 5163W        W 8682   9.442   5.517   0.695
 5164W        W 8683   2.348   7.868   1.838
 5165W        W 8684   6.754   1.460   8.572
 5166W        W 8685   4.279   6.434   2.749
 5167W        W 8686   6.881   8.743  10.045
 5168W        W 8687   4.222   8.914   2.424
 5169W        W 8688   0.764   6.122  11.820
 5170W        W 8689   9.804   4.624  10.024
 5171W        W 8690   7.643   1.000   2.362
 5172W        W 8691   6.039   2.845   2.139
 5173W        W 8692   7.928   9.419  11.676
 5174W        W 8693   3.712   1.969   2.826
 5175W        W 8694   2.858   5.096  11.264
 5176W        W 8695   3.749   4.259   3.745
 5177W        W 8696   9.021   9.865   1.611
 5178W        W 8697   8.943   8.067  10.780
 5179W        W 8698   8.433   5.183   2.317
 5180W        W 8699   4.500   4.236   9.682
 5181W        W 8700   8.786   3.723   2.026
 5182W        W 8701   5.947   6.927  11.911
 5183W        W 8702   1.036   5.016   0.521
 5184W        W 8703   1.877   7.665  11.270
 5185W        W 8704   3.785   2.980   2.325
 5186W        W 8705   2.960   8.840   3.254
 5187W        W 8706   5.625   7.080   4.071
 5188W        W 8707   5.538   2.636   2.979
 5189W        W 8708   1.787   0.050   2.648
 5190W        W 8709   0.558   3.552   8.893
 5191W        W 8710   7.994   1.217   2.678
 5192W        W 8711   7.664   9.770  10.933
 5193W        W 8712   5.095   3.542   3.969
 5194W        W 8713   3.893   9.896   0.509
 5195W        W 8714   6.977   9.032   9.187
 5196W        W 8715   2.136   3.853   2.818
 5197W        W 8716   7.395   3.623   0.461
 5198W        W 8717  10.000   5.971   1.452
 5199W        W 8718   9.609   1.447   1.677
 5200W        W 8719   6.888   9.800   3.151
 5201W        W 8720   7.899   7.672   1.750
 5202W        W 8721   6.433   7.262  10.987
 5203W        W 8722   1.717   5.414   8.707
 5204W        W 8723   1.815   5.503   1.486
 5205W        W 8724   9.767   8.051   9.055
 5206W        W 8725   1.544   0.183   9.756
 5207W        W 8726   0.698   7.297   1.231
 5208W        W 8727   2.381   4.753   9.831
 5209W        W 8728   2.046   4.069   0.487
 5210W        W 8729   7.036   5.578   8.876
 5211W        W 8730   9.753   0.827  10.840
 5212W        W 8731   8.027   6.124  10.047
 5213W        W 8732   2.195   4.224  10.539
 5214W        W 8733   3.944   5.420  11.416
 5215W        W 8734   1.380   8.424   0.617
 5216W        W 8735   5.505   1.807  10.068
 5217W        W 8736   8.309   2.391  10.060
 5218W        W 8737   9.515   1.419   2.174
 5219W        W 8738   3.766   2.215   0.740
 5220W        W 8739   1.745   1.536   9.113
 5221W        W 8740   3.505   6.198   8.769
 5222W        W 8741   3.034   1.860   8.581
 5223W        W 8742   9.320   6.347  11.415
 5224W        W 8743   0.149   0.645   0.220
 5225W        W 8744   4.542   2.192   3.014
 5226W        W 8745   9.814   9.383   1.789
 5227W        W 8746   8.959   5.118  11.725
 5228W        W 8747   2.178   3.745   0.883
 5229W        W 8748   3.504   1.834  10.007
 5230W        W 8749   4.585   9.548   9.369
 5231W        W 8750   6.276   3.754   1.713
 5232W        W 8751   2.260   8.315   3.208
 5233W        W 8752   7.917   2.271   2.677
 5234W        W 8753   5.296   4.976   1.244
 5235W        W 8754   4.242   5.482   9.570
 5236W        W 8755   4.196   4.584  10.118
 5237W        W 8756   9.354   9.918   1.204
 5238W        W 8757   5.507   2.347   1.060
 5239W        W 8758   2.650   0.479  10.280
 5240W        W 8759   8.515   5.485  11.279
 5241W        W 8760   4.937   7.051  11.893
 5242W        W 8761   6.045   1.759   3.221
 5243W        W 8762   3.959   0.358   0.313
 5244W        W 8763   9.047   5.387   1.158
 5245W        W 8764   1.688   6.221  11.233
 5246W        W 8765   0.417   3.033  11.709
 5247W        W 8766   9.114   9.487   9.244
 5248W        W 8767   3.078   0.365   2.489
 5249W        W 8768   4.991   6.334   3.313
 5250W        W 8769   6.481   3.680   9.240
 5251W        W 8770   1.441   2.952   3.602
 5252W        W 8771   1.686   8.074  11.007
 5253W        W 8772   3.200   5.611  10.696
 5254W        W 8773   8.573   3.363   2.339
 5255W        W 8774   1.404   6.990   1.143
 5256W        W 8775   9.183   4.216   2.011
 5257W        W 8776   1.205   3.096   1.701
 5258W        W 8777   4.172   9.379   9.042
 5259W        W 8778   8.305   7.513   1.271
 5260W        W 8779   3.499   8.177   9.340
 5261W        W 8780   3.186   5.987   8.400
 5262W        W 8781   5.460   6.581   4.120
 5263W        W 8782   6.780   4.029  11.845
 5264W        W 8783   0.812   7.086   1.805
 5265W        W 8784   7.704   5.617   0.447
 5266W        W 8785   2.163   0.903   0.046
 5267W        W 8786   0.058   2.839  10.867
 5268W        W 8787   8.722   9.454   8.858
 5269W        W 8788   5.958   4.040   2.044
 5270W        W 8789   7.619   6.534   0.601
 5271W        W 8790   2.737   7.735   2.634
 5272W        W 8791   5.691   9.354   2.124
 5273W        W 8792   1.306   6.066  10.025
 5274W        W 8793   1.177   6.718  11.828
 5275W        W 8794   3.335   6.668   8.904
 5276W        W 8795   2.685   5.667   2.731
 5277W        W 8796   3.455   8.007   8.851
 5278W        W 8797   8.090   5.655  10.968
 5279W        W 8798   9.396   6.181   9.215
 5280W        W 8799   4.942   1.846   0.241
 5281W        W 8800   7.706   7.356   2.815
 5282W        W 8801   2.678   4.238  11.873
 5283W        W 8802   8.774   3.943   2.627
 5284W        W 8803   4.957   9.231  11.019
 5285W        W 8804   0.273   8.513   3.112
 5286W        W 8805   6.476   4.142   2.107
 5287W        W 8806   4.037   4.343  11.509
 5288W        W 8807   1.417   9.719   1.794
 5289W        W 8808   8.385   3.036   2.680
 5290W        W 8809   3.315   1.856   1.669
 5291W        W 8810   8.445   3.060   8.514
 5292W        W 8811   8.427   4.430   1.855
 5293W        W 8812   7.565   6.376   8.707
 5294W        W 8813   0.731   4.511   1.412
 5295W        W 8814   1.166   8.041  10.213
 5296W        W 8815   2.263   2.931  10.950
 5297W        W 8816   4.298   3.630  11.092
 5298W        W 8817   3.521   0.111   0.175
 5299W        W 8818   5.219   4.094  11.057
 5300W        W 8819   4.511   1.371  11.559
 5301W        W 8820   9.137   2.206   9.669
 5302W        W 8821   1.775   6.233   8.891
 5303W        W 8822   5.489   3.336   9.826
 5304W        W 8823   6.656   2.680  10.953
 5305W        W 8824   6.069   4.958   0.447
 5306W        W 8825   3.189   1.223   3.121
 5307W        W 8826   4.970   8.549   9.524
 5308W        W 8827   0.712   1.675  10.356
 5309W        W 8828   8.850   3.233   0.425
 5310W        W 8829   8.086   9.741   2.789
 5311W        W 8830   9.882   3.376  10.964
 5312W        W 8831   0.018   8.830   1.516
 5313W        W 8832   1.175   8.019  10.731
 5314W        W 8833   0.865   8.421  11.130
 5315W        W 8834   3.680   9.997   1.994
 5316W        W 8835   3.219   1.998  10.911
 5317W        W 8836   4.082   0.900   9.015
 5318W        W 8837   0.062   1.013  10.482
 5319W        W 8838   4.098   5.807  10.344
 5320W        W 8839   9.729   6.991   1.458
 5321W        W 8840   4.324   1.170   0.465
 5322W        W 8841   1.619   7.225  11.242
 5323W        W 8842   8.383   0.241   2.259
 5324W        W 8843   6.111   6.417   0.421
 5325W        W 8844   8.990   2.147   1.780
 5326W        W 8845   8.194   1.946  11.788
 5327W        W 8846   4.990   4.325  11.502
 5328W        W 8847   0.272   2.352   0.317
 5329W        W 8848   2.031   2.090   3.743
 5330W        W 8849   4.799   5.550   9.625
 5331W        W 8850   3.724   9.533   1.531
 5332W        W 8851   9.194   1.861  11.878
 5333W        W 8852   3.920   6.305   4.269
 5334W        W 8853   2.673   7.516   0.213
 5335W        W 8854   1.388   0.854  11.369
 5336W        W 8855   2.721   2.937  11.245
 5337W        W 8856   2.583   8.033   9.423
 5338W        W 8857   2.192   3.468  11.903
 5339W        W 8858   9.144   7.445   0.003
 5340W        W 8859   4.603   3.162  11.655
 5341W        W 8860   3.617   7.436   0.050
 5342W        W 8861   8.117   7.623  10.700
 5343W        W 8862   8.659   6.518  10.138
 5344W        W 8863   3.842   5.764   4.260
 5345W        W 8864   1.010   9.319   8.998
 5346W        W 8865   0.861   2.605  11.122
 5347W        W 8866   4.188   6.333  11.655
 5348W        W 8867   5.101   8.826   2.231
 5349W        W 8868   6.239   4.553   8.636
 5350W        W 8869   1.754   6.666  10.378
 5351W        W 8870   6.764   8.479   0.891
 5352W        W 8871   4.648   8.388  11.872
 5353W        W 8872   8.911   4.615   1.801
 5354W        W 8873   2.351   0.784   1.735
 5355W        W 8874   4.614   5.489   9.144
 5356W        W 8875   8.422   5.843   0.728
 5357W        W 8876   2.437   0.325  11.291
 5358W        W 8877   5.719   6.862   8.130
 5359W        W 8878   7.923   9.081   3.453
 5360W        W 8879   8.985   6.661  10.837
 5361W        W 8880   5.650   2.668  10.829
 5362W        W 8881   6.521   6.534  10.586
 5363W        W 8882   3.308   7.557  10.689
 5364W        W 8883   3.216   4.243   2.329
 5365W        W 8884   7.389   9.737   3.189
 5366W        W 8885   8.542   2.328  11.764
 5367W        W 8886   8.918   1.749   9.799
 5368W        W 8887   3.513   5.061   8.583
 5369W        W 8888   2.264   2.622   9.984
 5370W        W 8889   0.943   7.591   3.521
 5371W        W 8890   8.383   0.918   2.719
 5372W        W 8891   2.972   9.973   1.006
 5373W        W 8892   1.919   0.478   9.989
 5374W        W 8893   1.248   4.628   2.413
 5375W        W 8894   5.981   3.196  11.813
 5376W        W 8895   5.143   6.195   4.239
 5377W        W 8896   5.970   2.264   0.859
 5378W        W 8897   7.513   3.548   3.038
 5379W        W 8898   2.662   2.911   1.023
 5380W        W 8899   1.449   0.731   1.833
 5381W        W 8900   2.524   1.028   0.377
 5382W        W 8901   3.256   1.500   8.901
 5383W        W 8902   1.793   4.723   9.938
 5384W        W 8903   0.041   1.708  11.744
 5385W        W 8904   6.134   5.997  10.765
 5386W        W 8905   8.220   8.567  11.440
 5387W        W 8906   1.467   0.847  10.846
 5388W        W 8907   6.848   9.019   0.386
 5389W        W 8908   0.089   4.785  11.431
 5390W        W 8909   0.434   5.908  11.320
 5391W        W 8910   2.581   1.306   1.921
 5392W        W 8911   6.675   6.423  10.088
 5393W        W 8912   6.718   3.897   0.814
 5394W        W 8913   6.710   5.192   3.611
 5395W        W 8914   6.678   9.842  10.991
 5396W        W 8915   4.508   5.810   8.732
 5397W        W 8916   2.235   5.628   2.427
 5398W        W 8917   7.013   0.708   9.489
 5399W        W 8918   0.322   3.326   2.759
 5400W        W 8919   6.506   2.226   8.709
 5401W        W 8920   6.942   6.228   0.963
 5402W        W 8921   6.187   1.876  10.236
 5403W        W 8922   9.375   9.228   0.024
 5404W        W 8923   6.760   5.899  10.197
 5405W        W 8924   2.171   4.310  10.013
 5406W        W 8925   6.662   5.793   0.827
 5407W        W 8926   8.935   5.997  11.461
 5408W        W 8927   6.580   8.027   3.028
 5409W        W 8928   6.489   0.674   1.294
 5410W        W 8929   2.963   3.278  10.934
 5411W        W 8930   2.325   9.291  10.896
 5412W        W 8931   1.285   6.235   0.615
 5413W        W 8932   7.741   2.677   3.424
 5414W        W 8933   1.668   3.238   2.397
 5415W        W 8934   1.730   1.245   2.238
 5416W        W 8935   5.578   4.469   1.132
 5417W        W 8936   2.042   6.450  11.948
 5418W        W 8937   0.878   8.857   9.190
 5419W        W 8938   8.045   5.621   9.933
 5420W        W 8939   6.909   8.242   8.576
 5421W        W 8940   5.336   1.050  11.545
 5422W        W 8941   5.024   1.708   9.934
 5423W        W 8942   9.460   1.428   2.695
 5424W        W 8943   5.954   0.513  10.365
 5425W        W 8944   8.447   9.723   2.398
 5426W        W 8945   1.199   2.523   3.367
 5427W        W 8946   9.473   6.496  10.771
 5428W        W 8947   6.058   7.966  11.223
 5429W        W 8948   2.297   7.923   2.838
 5430W        W 8949   1.250   1.330   9.148
 5431W        W 8950   5.264   1.976   9.560
 5432W        W 8951   5.705   8.076   9.411
 5433W        W 8952   6.468   2.046   3.115
 5434W        W 8953   1.213   8.951   2.542
 5435W        W 8954   3.495   5.106   3.349
 5436W        W 8955   2.654   6.368   2.665
 5437W        W 8956   9.017   4.182   9.590
 5438W        W 8957   3.368   4.715  10.172
 5439W        W 8958   2.642   9.203   2.383
 5440W        W 8959   2.244   2.171   9.590
 5441W        W 8960   2.713   7.423   0.700
 5442W        W 8961   0.221   1.726   8.914
 5443W        W 8962   5.425   1.480   2.718
 5444W        W 8963   9.213   1.812   1.032
 5445W        W 8964   5.437   1.823   0.308
 5446W        W 8965   6.171   2.331  10.516
 5447W        W 8966   1.525   8.333   9.221
 5448W        W 8967   9.183   6.636   0.702
 5449W        W 8968   9.977   4.806   8.806
 5450W        W 8969   1.862   4.668   9.086
 5451W        W 8970   9.466   2.226   0.272
 5452W        W 8971   0.574   4.647  11.430
 5453W        W 8972   7.771   9.256   1.260
 5454W        W 8973   6.532   1.312  11.019
 5455W        W 8974   0.118   2.882   9.601
 5456W        W 8975   4.688   6.375   8.110
 5457W        W 8976   2.841   6.825  10.235
 5458W        W 8977   3.214   8.758   0.475
 5459W        W 8978   3.601   7.101   2.055
 5460W        W 8979   7.979   4.169   9.699
 5461W        W 8980   2.142   8.320   1.718
 5462W        W 8981   9.249   4.501   3.442
 5463W        W 8982   9.998   3.257   9.915
 5464W        W 8983   2.682   7.168   1.138
 5465W        W 8984   0.019   4.244   0.160
 5466W        W 8985   4.328   5.460  11.788
 5467W        W 8986   8.914   4.624  11.548
 5468W        W 8987   9.627   6.589   3.253
 5469W        W 8988   4.695   3.376   2.386
 5470W        W 8989   2.314   2.767   1.812
 5471W        W 8990   1.887   9.167   0.603
 5472W        W 8991   9.088   1.739  11.387
 5473W        W 8992   5.489   5.952   0.873
 5474W        W 8993   9.841   2.500   0.666
 5475W        W 8994   9.800   5.743   8.595
 5476W        W 8995   9.975   1.132   1.815
 5477W        W 8996   0.340   1.407  10.573
 5478W        W 8997   7.671   7.550  11.645
 5479W        W 8998   2.639   8.476   1.493
 5480W        W 8999   3.959   1.345   2.108
 5481W        W 9000   6.072   8.071  10.212
 5482W        W 9001   1.194   5.153   2.180
 5483W        W 9002   7.093   1.537   9.748
 5484W        W 9003   9.919   4.250   0.774
 5485W        W 9004   1.189   4.034  10.031
 5486W        W 9005   9.885   2.221   2.657
 5487W        W 9006   5.214   5.191   9.602
 5488W        W 9007   6.058   7.940   1.487
 5489W        W 9008   8.122   5.921   0.304
 5490W        W 9009   8.971   0.886   2.042
 5491W        W 9010   4.137   8.785   9.858
 5492W        W 9011   9.505   8.349   3.643
 5493W        W 9012   9.820   1.298  11.984
 5494W        W 9013   2.056   6.526   0.856
 5495W        W 9014   5.522   4.416   8.920
 5496W        W 9015   5.109   0.168  10.047
 5497W        W 9016   9.499   3.601   2.138
 5498W        W 9017   0.881   5.629   1.763
 5499W        W 9018   8.998   7.496   3.182
 5500W        W 9019   5.730   1.824  11.255
 5501W        W 9020   0.744   2.414   1.456
 5502W        W 9021   6.119   5.756   9.575
 5503W        W 9022   5.950   1.435   8.918
 5504W        W 9023   9.858   0.859   2.805
 5505W        W 9024   6.443   3.552   8.746
 5506W        W 9025   9.376   4.394   3.921
 5507W        W 9026   8.879   7.972   9.224
 5508W        W 9027   7.102   0.944   0.295
 5509W        W 9028   3.762   9.475   3.169
 5510W        W 9029   9.933   8.153   8.570
 5511W        W 9030   1.107   7.478   2.513
 5512W        W 9031   5.168   1.914   3.366
 5513W        W 9032   8.474   7.072   3.536
 5514W        W 9033   3.160   4.398  11.531
 5515W        W 9034   4.508   3.821   0.207
 5516W        W 9035   7.479   1.314   1.978
 5517W        W 9036   0.352   5.184   8.821
 5518W        W 9037   7.395   5.704  11.990
 5519W        W 9038   9.040   0.405  11.014
 5520W        W 9039   9.013   5.813   1.465
 5521W        W 9040   3.486   1.949   0.384
 5522W        W 9041   8.348   7.069   0.531
 5523W        W 9042   4.175   7.953  10.469
 5524W        W 9043   0.020   2.207   9.968
 5525W        W 9044   8.170   0.571  10.890
 5526W        W 9045   5.222   8.714   0.750
 5527W        W 9046   7.081   1.647   0.777
 5528W        W 9047   7.894   1.138   1.700
 5529W        W 9048   6.395   4.633  10.347
 5530W        W 9049   6.924   6.333   9.292
 5531W        W 9050   0.184   7.316  10.644
 5532W        W 9051   4.162   7.315   1.462
 5533W        W 9052   9.678   2.868  10.554
 5534W        W 9053   9.642   4.803   3.631
 5535W        W 9054   9.504   5.192  10.932
 5536W        W 9055   5.291   4.450  11.903
 5537W        W 9056   8.369   9.815  11.666
 5538W        W 9057   5.229   9.736   0.840
 5539W        W 9058   0.396   9.922   8.972
 5540W        W 9059   3.737   9.740   8.449
 5541W        W 9060   6.665   4.261   8.514
 5542W        W 9061   1.511   9.378   8.774
 5543W        W 9062   6.048   5.171  11.827
 5544W        W 9063   7.735   1.611  11.153
 5545W        W 9064   7.575   5.385   9.747
 5546W        W 9065   3.479   2.529  11.412
 5547W        W 9066   7.832   8.426   1.302
 5548W        W 9067   6.153   4.171   2.516
 5549W        W 9068   4.110   7.020   1.909
 5550W        W 9069   9.340   3.880   9.819
 5551W        W 9070   5.358   0.280  10.864
 5552W        W 9071   6.612   4.676   2.259
 5553W        W 9072   5.996   8.564   2.568
 5554W        W 9073   2.401   5.735   0.471
 5555W        W 9074   5.793   4.309  11.917
 5556W        W 9075   4.168   0.847  10.068
 5557W        W 9076   3.601   4.650   3.018
 5558W        W 9077   7.357   0.854   8.983
 5559W        W 9078   5.323   8.935   9.541
 5560W        W 9079   1.347   9.880   2.921
 5561W        W 9080   0.130   4.550   9.649
 5562W        W 9081   3.467   6.549   8.406
 5563W        W 9082   2.260   5.203  10.025
 5564W        W 9083   4.374   6.092   1.250
 5565W        W 9084   3.232   7.873   1.418
 5566W        W 9085   6.429   6.342   1.857
 5567W        W 9086   2.458   4.844   0.982
 5568W        W 9087   8.799   5.379   1.624
 5569W        W 9088   7.129   9.732   1.119
 5570W        W 9089   2.383   2.298  10.580
 5571W        W 9090   7.463   8.634   9.074
 5572W        W 9091   2.908   3.146  11.956
 5573W        W 9092   4.380   4.841   0.825
 5574W        W 9093   6.468   0.383  11.765
 5575W        W 9094   3.912   8.527   1.109
 5576W        W 9095   2.442   5.442   3.609
 5577W        W 9096   6.529   8.934   1.993
 5578W        W 9097   1.078   1.189   3.490
 5579W        W 9098   8.711   2.811  10.567
 5580W        W 9099   3.635   4.920   1.256
 5581W        W 9100   7.344   5.183  10.907
 5582W        W 9101   7.425   3.525  11.425
 5583W        W 9102   2.163   3.248   1.835
 5584W        W 9103   3.200   3.681   1.535
 5585W        W 9104   4.374   1.104  11.957
 5586W        W 9105   7.107   7.292  10.429
 5587W        W 9106   0.891   3.470  10.153
 5588W        W 9107   8.011   7.244   3.370
 5589W        W 9108   0.824   2.054   2.732
 5590W        W 9109   4.042   9.387   0.088
 5591W        W 9110   7.646   6.435   9.877
 5592W        W 9111   8.205   5.152  11.010
 5593W        W 9112   4.474   5.366   0.790
 5594W        W 9113   7.911   2.103   9.927
 5595W        W 9114   3.256   5.410   1.879
 5596W        W 9115   4.206   0.474   3.236
 5597W        W 9116   7.674   2.178   3.544
 5598W        W 9117   8.024   0.246   3.059
 5599W        W 9118   7.332   0.288   9.678
 5600W        W 9119   8.840   3.499   1.545
 5601W        W 9120   8.444   1.232   9.071
 5602W        W 9121   4.864   5.676   0.660
 5603W        W 9122   5.757   3.715   1.681
 5604W        W 9123   9.425   3.321  10.610
 5605W        W 9124   6.522   2.617   9.031
 5606W        W 9125   1.439   7.643  10.974
 5607W        W 9126   4.800   4.864  11.112
 5608W        W 9127   4.295   9.040  11.824
 5609W        W 9128   9.428   2.871   2.005
 5610W        W 9129   5.474   5.390   1.526
 5611W        W 9130   2.755   5.695   0.899
 5612W        W 9131   1.133   2.823   9.486
 5613W        W 9132   4.627   4.982  11.574
 5614W        W 9133   5.552   9.330   2.618
 5615W        W 9134   9.013   8.676   9.929
 5616W        W 9135   3.704   1.752  11.895
 5617W        W 9136   7.004   3.904   1.258
 5618W        W 9137   4.684   8.569   3.146
 5619W        W 9138   6.615   1.165   1.274
 5620W        W 9139   5.314   8.388   9.182
 5621W        W 9140   6.106   2.824   9.239
 5622W        W 9141   9.318   6.723   9.230
 5623W        W 9142   3.077   8.464   2.098
 5624W        W 9143   7.069   1.808   2.341
 5625W        W 9144   5.698   7.048  11.482
 5626W        W 9145   5.877   8.651   1.919
 5627W        W 9146   7.609   8.908   0.897
 5628W        W 9147   6.044   8.411   3.509
 5629W        W 9148   5.906   8.472   9.931
 5630W        W 9149   1.729   3.561   9.075
 5631W        W 9150   9.048   1.807   3.077
 5632W        W 9151   1.036   2.038   3.746
 5633W        W 9152   9.041   0.823  11.356
 5634W        W 9153   0.967   3.773  11.816
 5635W        W 9154   7.298   0.364  10.609
 5636W        W 9155   2.340   8.775   1.768
 5637W        W 9156   5.774   6.080   8.679
 5638W        W 9157   1.156   9.797   2.290
 5639W        W 9158   7.291   8.154   8.959
 5640W        W 9159   4.218   7.492   8.680
 5641W        W 9160   9.049   8.947   1.476
 5642W        W 9161   0.281   5.182   1.178
 5643W        W 9162   0.467   9.840  10.048
 5644W        W 9163   5.204   3.547  11.078
 5645W        W 9164   0.845   4.394   2.655
 5646W        W 9165   1.905   2.169  10.441
 5647W        W 9166   7.102   5.151   9.809
 5648W        W 9167   1.378   7.019   3.108
 5649W        W 9168   2.952   4.611   3.830
 5650W        W 9169   5.958   3.677  10.444
 5651W        W 9170   7.401   4.744  10.642
 5652W        W 9171   7.953   3.062  10.783
 5653W        W 9172   1.255   0.882   8.519
 5654W        W 9173   6.729   8.806   9.566
 5655W        W 9174   6.737   7.728  11.853
 5656W        W 9175   3.728   2.341   3.224
 5657W        W 9176   4.041   0.357  10.208
 5658W        W 9177   2.111   2.309   1.802
 5659W        W 9178   1.735   2.254   9.411
 5660W        W 9179   4.619   5.532   3.341
 5661W        W 9180   3.032   0.875   2.278
 5662W        W 9181   6.964   9.086  10.987
 5663W        W 9182   4.926   2.872   1.336
 5664W        W 9183   1.875   6.719   3.899
 5665W        W 9184   3.334   2.570   9.210
 5666W        W 9185   5.035   9.524   0.422
 5667W        W 9186   1.347   1.726   9.797
 5668W        W 9187   4.486   4.987   8.998
 5669W        W 9188   1.629   9.974  11.393
 5670W        W 9189   0.534   4.218   0.324
 5671W        W 9190   7.265   9.291   1.341
 5672W        W 9191   9.781   2.657   9.287
 5673W        W 9192   0.834   5.864   1.306
 5674W        W 9193   1.432   9.363   0.418
 5675W        W 9194   0.134   6.422   0.841
 5676W        W 9195   9.405   8.283   2.998
 5677W        W 9196   3.637   2.915   2.959
 5678W        W 9197   1.106   6.487   1.027
 5679W        W 9198   9.372   8.244   8.769
 5680W        W 9199   3.778   2.746   1.877
 5681W        W 9200   5.444   4.152   0.296
 5682W        W 9201   7.875   8.326   8.958
 5683W        W 9202   9.417   6.691   9.734
 5684W        W 9203   1.720   1.693  10.623
 5685W        W 9204   2.930   4.773   1.187
 5686W        W 9205   0.764   7.585   1.697
 5687W        W 9206   9.566   4.408   2.352
 5688W        W 9207   3.815   4.715   3.473
 5689W        W 9208   8.070   3.732   0.444
 5690W        W 9209   5.197   7.762   0.526
 5691W        W 9210   5.110   7.814   4.399
 5692W        W 9211   5.230   3.804  10.640
 5693W        W 9212   6.219   7.288   2.130
 5694W        W 9213   7.773   0.396   1.541
 5695W        W 9214   0.860   6.170   2.429
 5696W        W 9215   6.809   4.429   0.844
 5697W        W 9216   3.333   4.509   1.473
 5698W        W 9217   9.438   0.127   1.767
 5699W        W 9218   2.723   6.006   9.772
 5700W        W 9219   2.737   4.593   3.347
 5701W        W 9220   9.683   8.857  10.820
 5702W        W 9221   0.871   5.825   9.803
 5703W        W 9222   5.107   5.700  10.639
 5704W        W 9223   5.296   5.680   9.778
 5705W        W 9224   6.677   5.726   0.337
 5706W        W 9225   1.522   4.827  10.466
 5707W        W 9226   6.929   2.589   1.850
 5708W        W 9227   1.107   9.577   1.400
 5709W        W 9228   7.532   0.484   2.383
 5710W        W 9229   1.774   8.551  11.268
 5711W        W 9230   1.396   9.525  11.391
 5712W        W 9231   7.855   0.547   9.030
 5713W        W 9232   1.869   9.578   0.911
 5714W        W 9233   6.047   5.301   2.450
 5715W        W 9234   1.969   0.957   8.471
 5716W        W 9235   1.735   1.744  11.566
 5717W        W 9236   4.267   9.489   3.257
 5718W        W 9237   2.487   1.267  10.447
 5719W        W 9238   3.195   5.207   1.216
 5720W        W 9239   5.939   9.018   2.744
 5721W        W 9240   6.629   6.248   1.382
 5722W        W 9241   1.926   3.085  10.448
 5723W        W 9242   2.241   8.996   9.343
 5724W        W 9243   5.085   9.355   9.090
 5725W        W 9244   6.174   9.826  10.006
 5726W        W 9245   7.080   6.085   2.835
 5727W        W 9246   2.856   4.581   1.664
 5728W        W 9247   6.004   5.037  11.211
 5729W        W 9248   3.265   2.802   1.869
 5730W        W 9249   0.452   6.918   8.709
 5731W        W 9250   7.138   3.996   0.196
 5732W        W 9251   5.120   6.168  11.552
 5733W        W 9252   7.106   8.462   9.421
 5734W        W 9253   9.810   9.806   9.757
 5735W        W 9254   7.553   6.322  11.300
 5736W        W 9255   1.956   0.518   3.248
 5737W        W 9256   8.802   7.565  10.696
 5738W        W 9257   3.234   6.303   0.188
 5739W        W 9258   1.271   6.015   9.096
 5740W        W 9259   5.519   9.392  11.191
 5741W        W 9260   1.550   1.333   9.553
 5742W        W 9261   0.516   6.424   8.543
 5743W        W 9262   9.519   4.016   1.063
 5744W        W 9263   3.305   6.884   1.673
 5745W        W 9264   5.170   3.257   3.003
 5746W        W 9265   5.016   0.461  10.490
 5747W        W 9266   8.306   2.702   3.364
 5748W        W 9267   3.200   6.396  11.293
 5749W        W 9268   3.166   6.060   3.237
 5750W        W 9269   4.962   3.246   9.050
 5751W        W 9270   3.649   4.029   9.560
 5752W        W 9271   7.942   1.013  11.071
 5753W        W 9272   6.984   9.454   8.870
 5754W        W 9273   6.487   0.862   9.605
 5755W        W 9274   8.907   0.829   9.912
 5756W        W 9275   6.160   7.212   9.561
 5757W        W 9276   6.218   1.508   1.347
 5758W        W 9277   8.477   3.994   0.213
 5759W        W 9278   3.501   8.021  10.815
 5760W        W 9279   3.201   6.921   3.036
 5761W        W 9280   1.282   4.177   3.244
 5762W        W 9281   1.719   4.122   2.966
 5763W        W 9282   2.730   5.507  10.494
 5764W        W 9283   1.367   7.846   1.751
 5765W        W 9284   4.642   2.256   0.126
 5766W        W 9285   7.512   1.416   0.972
 5767W        W 9286   3.568   8.367   2.251
 5768W        W 9287   5.428   0.232   2.219
 5769W        W 9288   2.701   8.231   2.509
 5770W        W 9289   7.720   6.910   8.546
 5771W        W 9290   6.784   2.230   3.469
 5772W        W 9291   1.305   8.497  11.477
 5773W        W 9292   2.584   7.602   1.432
 5774W        W 9293   2.742   8.823  10.956
 5775W        W 9294   9.599   5.864   2.102
 5776W        W 9295   5.942   1.372   2.857
 5777W        W 9296   5.887   8.425   1.457
 5778W        W 9297   0.446   6.795   1.304
 5779W        W 9298   3.892   0.177   9.532
 5780W        W 9299   4.296   6.186   2.247
 5781W        W 9300   9.960   6.413   0.239
 5782W        W 9301   4.601   8.300   9.976
 5783W        W 9302   9.033   9.418  11.080
 5784W        W 9303   2.337   3.634   9.869
 5785W        W 9304   3.264   5.546   3.192
 5786W        W 9305   4.723   8.096   9.511
 5787W        W 9306   6.804   5.147   1.325
 5788W        W 9307   4.278   5.967   9.884
 5789W        W 9308   8.344   5.323  11.774
 5790W        W 9309   5.710   8.869  11.576
 5791W        W 9310   2.753   0.942  10.091
 5792W        W 9311   9.164   6.513   8.791
 5793W        W 9312   6.670   6.244   0.378
 5794W        W 9313   6.477   1.599   3.428
 5795W        W 9314   4.202   4.774   0.349
 5796W        W 9315   7.007   8.815   3.348
 5797W        W 9316   6.495   6.057   9.386
 5798W        W 9317   4.923   2.628   3.691
 5799W        W 9318   6.639   8.025   1.502
 5800W        W 9319   0.175   4.657  10.957
 5801W        W 9320   0.297   4.179  10.035
 5802W        W 9321   4.585   1.412  11.043
 5803W        W 9322   3.566   8.578  11.517
 5804W        W 9323   5.613   2.440  11.897
 5805W        W 9324   5.671   6.433   9.029
 5806W        W 9325   5.532   3.921   1.167
 5807W        W 9326   4.836   4.174   2.774
 5808W        W 9327   0.932   0.168   0.477
 5809W        W 9328   4.501   5.974   2.673
 5810W        W 9329   4.488   3.577   1.221
 5811W        W 9330   0.851   9.473  10.116
 5812W        W 9331   9.329   9.718   2.691
 5813W        W 9332   1.437   0.673   9.893
 5814W        W 9333   3.210   9.956  10.272
 5815W        W 9334   9.470   8.440  11.285
 5816W        W 9335   7.060   3.304  10.755
 5817W        W 9336   9.826   6.118   3.348
 5818W        W 9337   8.484   1.806   2.162
 5819W        W 9338   4.214   1.544   0.124
 5820W        W 9339   3.693   7.542   8.834
 5821W        W 9340   1.263   1.671  10.311
 5822W        W 9341   9.257   3.996   2.455
 5823W        W 9342   7.277   5.281   1.196
 5824W        W 9343   5.482   2.797   3.728
 5825W        W 9344   7.143   6.725  11.888
 5826W        W 9345   2.653   9.890   9.453
 5827W        W 9346   4.548   2.640   2.764
 5828W        W 9347   6.965   3.143  11.747
 5829W        W 9348   1.798   3.750   1.247
 5830W        W 9349   0.843   6.245   2.996
 5831W        W 9350   4.120   9.065   1.962
 5832W        W 9351   6.339   9.974   9.145
 5833W        W 9352   9.738   3.764   9.473
 5834W        W 9353   2.578   8.358   2.004
 5835W        W 9354   4.011   8.994  10.271
 5836W        W 9355   4.178   6.931   2.767
 5837W        W 9356   3.135   4.178  11.026
 5838W        W 9357   0.316   3.121   1.727
 5839W        W 9358   1.806   8.125   3.933
 5840W        W 9359   1.019   2.952  10.055
 5841W        W 9360   7.065   3.190  11.241
 5842W        W 9361   0.870   5.994   0.333
 5843W        W 9362   3.121   3.844   0.389
 5844W        W 9363   0.940   1.104  11.264
 5845W        W 9364   0.882   7.049  10.860
 5846W        W 9365   6.711   6.991  11.333
 5847W        W 9366   6.544   3.332  11.424
 5848W        W 9367   3.466   2.580   2.270
 5849W        W 9368   9.075   4.417   2.960
 5850W        W 9369   8.447   7.415  11.049
 5851W        W 9370   8.240   8.847  10.977
 5852W        W 9371   0.180   8.927  10.810
 5853W        W 9372   4.744   3.481  11.288
 5854W        W 9373   3.744   7.103   9.914
 5855W        W 9374   3.786   5.909  11.267
 5856W        W 9375   5.688   5.959  11.595
 5857W        W 9376   1.230   8.861  11.841
 5858W        W 9377   1.269   1.910  11.510
 5859W        W 9378   2.826   7.135   9.797
 5860W        W 9379   4.741   4.257   3.686
 5861W        W 9380   6.054   9.476   2.508
 5862W        W 9381   8.962   4.110  11.561
 5863W        W 9382   3.452   2.724   9.780
 5864W        W 9383   7.932   3.547   3.366
 5865W        W 9384   0.919   7.714   9.626
 5866W        W 9385   4.751   1.956  10.341
 5867W        W 9386   8.661   6.757   2.856
 5868W        W 9387   3.109   0.617   1.411
 5869W        W 9388   4.605   2.858   9.916
 5870W        W 9389   5.062   0.682  10.017
 5871W        W 9390   7.402   6.780  11.102
 5872W        W 9391   4.465   8.240   1.848
 5873W        W 9392   9.899   6.658  11.764
 5874W        W 9393   1.344   1.707   8.805
 5875W        W 9394   4.308   6.548   8.653
 5876W        W 9395   9.098   4.024   3.601
 5877W        W 9396   2.795   2.655   1.808
 5878W        W 9397   0.814   2.527   2.994
 5879W        W 9398   6.074   3.247   2.965
 5880W        W 9399   6.883   6.828   8.906
 5881W        W 9400   9.837   5.958   9.454
 5882W        W 9401   7.424   8.010   9.993
 5883W        W 9402   9.954   2.012   3.719
 5884W        W 9403   0.298   7.426  10.149
 5885W        W 9404   4.632   6.221  11.320
 5886W        W 9405   4.094   3.570   0.852
 5887W        W 9406   3.087   0.407  10.632
 5888W        W 9407   6.798   1.232   9.444
 5889W        W 9408   5.332   2.372   3.500
 5890W        W 9409   5.621   4.760   0.155
 5891W        W 9410   1.841   0.002  10.153
 5892W        W 9411   5.133   4.561   2.585
 5893W        W 9412   7.316   2.655   9.065
 5894W        W 9413   2.863   0.425   2.988
 5895W        W 9414   0.282   8.949   2.373
 5896W        W 9415   7.928   6.900   1.269
 5897W        W 9416   0.861   1.381   2.191
 5898W        W 9417   0.918   8.455  11.810
 5899W        W 9418   7.288   1.188  11.512
 5900W        W 9419   9.125   6.534  10.354
 5901W        W 9420   2.655   9.723   2.310
 5902W        W 9421   2.684   3.150   2.001
 5903W        W 9422   7.153   5.677   9.886
 5904W        W 9423   3.872   4.728   0.813
 5905W        W 9424   2.399   0.622   9.808
 5906W        W 9425   0.384   0.876   9.356
 5907W        W 9426   0.850   1.215   1.286
 5908W        W 9427   3.990   9.499   9.503
 5909W        W 9428   7.532   8.157   0.268
 5910W        W 9429   2.369   5.114  11.064
 5911W        W 9430   0.177   0.641   8.140
 5912W        W 9431   9.860   2.719  10.066
 5913W        W 9432   6.489   5.491   1.687
 5914W        W 9433   5.008   1.575   9.392
 5915W        W 9434   1.336   0.468   0.568
 5916W        W 9435  10.000   1.625   9.371
 5917W        W 9436   0.613   6.542   9.035
 5918W        W 9437   5.121   4.819  11.585
 5919W        W 9438   7.196   4.866   1.484
 5920W        W 9439   6.503   8.588   8.608
 5921W        W 9440   8.157   2.371   9.555
 5922W        W 9441   1.630   7.151  10.384
 5923W        W 9442   6.243   9.455   2.020
 5924W        W 9443   3.136   8.907   8.727
 5925W        W 9444   5.575   8.020   1.312
 5926W        W 9445   5.765   4.127   0.743
 5927W        W 9446   2.785   9.546   2.783
 5928W        W 9447   1.243   5.958   1.586
 5929W        W 9448   1.868   3.326   0.895
 5930W        W 9449   8.589   6.282   2.928
 5931W        W 9450   3.423   5.258   9.978
 5932W        W 9451   8.917   6.147   9.042
 5933W        W 9452   8.092   4.582   9.199
 5934W        W 9453   8.854   2.759   0.205
 5935W        W 9454   6.249   2.155   3.558
 5936W        W 9455   0.551   5.199  10.130
 5937W        W 9456   3.682   8.760   8.591
 5938W        W 9457   5.538   5.348   2.168
 5939W        W 9458   1.688   4.226   3.571
 5940W        W 9459   9.559   6.994   0.774
 5941W        W 9460   1.357   9.476   0.951
 5942W        W 9461   7.649   5.599   0.956
 5943W        W 9462   0.775   3.278   1.419
 5944W        W 9463   9.187   9.634   3.404
 5945W        W 9464   1.303   6.998   2.613
 5946W        W 9465   3.048   4.210   3.162
 5947W        W 9466   3.559   2.939   8.752
 5948W        W 9467   5.271   1.270   1.437
 5949W        W 9468   4.471   0.222   0.367
 5950W        W 9469   2.211   5.614   3.074
 5951W        W 9470   9.024   8.377   3.315
 5952W        W 9471   6.207   9.103  11.677
 5953W        W 9472   7.145   8.681   1.944
 5954W        W 9473   1.387   4.735   1.932
 5955W        W 9474   3.249   7.078  11.903
 5956W        W 9475   5.968   2.277   9.996
 5957W        W 9476   3.067   7.400   1.384
 5958W        W 9477   1.818   6.569   0.420
 5959W        W 9478   4.206   2.127   3.398
 5960W        W 9479   1.073   0.747   1.434
 5961W        W 9480   8.292   0.651  11.983
 5962W        W 9481   4.024   5.063  11.897
 5963W        W 9482   2.666   5.682   9.346
 5964W        W 9483   4.699   4.409   0.740
 5965W        W 9484   5.685   6.265   1.670
 5966W        W 9485   7.486   1.004   2.842
 5967W        W 9486   1.630   7.402   8.776
 5968W        W 9487   1.900   9.124  11.284
 5969W        W 9488   8.497   8.005   0.584
 5970W        W 9489   3.695   6.065   3.416
 5971W        W 9490   6.698   2.856   0.601
 5972W        W 9491   5.627   2.710   2.437
 5973W        W 9492   4.389   2.772   9.063
 5974W        W 9493   6.573   8.385   3.429
 5975W        W 9494   4.152   6.646   0.073
 5976W        W 9495   3.307   5.682   8.779
 5977W        W 9496   2.617   1.806   9.615
 5978W        W 9497   0.357   2.237   2.912
 5979W        W 9498   5.152   1.943   9.035
 5980W        W 9499   1.865   7.587  10.287
 5981W        W 9500   0.025   1.632   2.153
 5982W        W 9501   3.305   9.876   8.743
 5983W        W 9502   5.870   4.166   9.581
 5984W        W 9503   2.002   6.385   3.532
 5985W        W 9504   5.331   1.519   1.911
 5986W        W 9505   4.599   1.781  11.866
 5987W        W 9506   8.604   0.863   9.399
 5988W        W 9507   0.641   9.135  10.990
 5989W        W 9508   2.745   2.171  10.949
 5990W        W 9509   9.162   4.831  10.731
 5991W        W 9510   5.000   7.858  10.677
 5992W        W 9511   9.408   5.541  10.520
 5993W        W 9512   0.714   3.098  10.454
 5994W        W 9513   5.552   1.664   9.203
 5995W        W 9514   3.223   8.620  11.121
 5996W        W 9515   1.508   4.988  10.947
 5997W        W 9516   9.743   6.147  11.820
 5998W        W 9517   4.935   7.212   3.638
 5999W        W 9518   7.975   0.456   3.575
 6000W        W 9519   3.341   4.350  10.567
 6001W        W 9520   4.518   3.043   8.655
 6002W        W 9521   6.409   9.508  11.957
 6003W        W 9522   2.716   2.276   9.829
 6004W        W 9523   3.111   7.549   2.361
 6005W        W 9524   5.137   8.537  11.783
 6006W        W 9525   9.828   8.863  11.308
 6007W        W 9526   7.646   3.994  11.341
 6008W        W 9527   4.479   4.140  10.210
 6009W        W 9528   6.997   8.272   9.900
 6010W        W 9529   9.777   3.420   1.100
 6011W        W 9530   3.697   9.800   2.784
 6012W        W 9531   8.856   3.835  10.457
 6013W        W 9532   0.026   5.183   3.565
 6014W        W 9533   4.929   9.045   3.102
 6015W        W 9534   8.977   0.343  11.527
 6016W        W 9535   2.703   2.926   9.942
 6017W        W 9536   9.088   3.029  10.896
 6018W        W 9537   9.381   2.314   2.727
 6019W        W 9538   1.453   1.015   3.776
 6020W        W 9539   0.372   8.859   1.888
 6021W        W 9540   9.365   2.244   2.222
 6022W        W 9541   3.657   0.704   8.753
 6023W        W 9542   0.341   2.671   8.685
 6024W        W 9543   8.789   0.669   1.187
 6025W        W 9544   6.205   7.161   1.651
 6026W        W 9545   6.468   2.845   1.848
 6027W        W 9546   8.289   0.515   9.596
 6028W        W 9547   7.188   9.986   0.393
 6029W        W 9548   4.941   2.272  11.300
 6030W        W 9549   4.093   5.310  10.449
 6031W        W 9550   5.399   8.240   3.603
 6032W        W 9551   7.951   6.090   2.489
 6033W        W 9552   9.746   6.655   1.845
 6034W        W 9553   7.811   8.610  10.783
 6035W        W 9554   5.645   6.220   0.450
 6036W        W 9555   5.028   1.704  10.903
 6037W        W 9556   7.121   2.841   2.415
 6038W        W 9557   9.784   4.365  11.232
 6039W        W 9558   7.975   5.810   3.396
 6040W        W 9559   6.767   6.409   2.243
 6041W        W 9560   2.626   8.178   9.905
 6042W        W 9561   4.350   5.529   1.431
 6043W        W 9562   4.413   6.458   3.978
 6044W        W 9563   3.793   1.614  10.399
 6045W        W 9564   3.060   7.147   2.044
 6046W        W 9565   2.576   7.861   8.947
 6047W        W 9566   4.690   8.478   0.790
 6048W        W 9567   2.948   1.603   0.939
 6049W        W 9568   4.068   3.232   0.388
 6050W        W 9569   3.525   2.294   1.836
 6051W        W 9570   0.260   8.610   1.024
 6052W        W 9571   1.212   8.015   0.303
 6053W        W 9572   4.522   4.498  11.420
 6054W        W 9573   2.098   2.880   0.961
 6055W        W 9574   9.992   5.912   2.898
 6056W        W 9575   0.891   4.508  10.403
 6057W        W 9576   4.968   4.203   9.470
 6058W        W 9577   3.272   8.865   1.777
 6059W        W 9578   0.368   8.153   1.208
 6060W        W 9579   2.173   5.902   1.459
 6061W        W 9580   0.926   1.597   9.447
 6062W        W 9581   1.430   2.162   8.578
 6063W        W 9582   4.501   8.798   9.216
 6064W        W 9583   5.722   3.343   3.957
 6065W        W 9584   0.811   8.724   9.670
 6066W        W 9585   0.805   8.236   9.809
 6067W        W 9586   8.742   9.016  11.722
 6068W        W 9587   0.444   3.720   3.121
 6069W        W 9588   5.103   4.020   4.199
 6070W        W 9589   5.652   2.616   8.499
 6071W        W 9590   0.538   9.835   0.449
 6072W        W 9591   2.438   1.715   1.628
 6073W        W 9592   6.471   5.635   8.726
 6074W        W 9593   0.057   4.380   2.180
 6075W        W 9594   0.327   8.089   9.733
 6076W        W 9595   6.932   3.071   1.988
 6077W        W 9596   3.084   7.993   9.671
 6078W        W 9597   8.066   0.903   0.366
 6079W        W 9598   7.089   0.243  10.139
 6080W        W 9599   5.482   3.582   2.662
 6081W        W 9600   7.864   2.820   0.730
 6082W        W 9601   2.286   6.272   9.636
 6083W        W 9602   6.675   3.034   9.782
 6084W        W 9603   5.717   3.202   1.577
 6085W        W 9604   0.596   4.370   2.200
 6086W        W 9605   6.532   7.367  10.327
 6087W        W 9606   0.288   5.052   9.713
 6088W        W 9607   9.829   2.617   0.176
 6089W        W 9608   3.727   4.971   9.668
 6090W        W 9609   7.738   2.685   1.615
 6091W        W 9610   3.396   7.839   3.369
 6092W        W 9611   9.118   1.316   1.785
 6093W        W 9612   8.008   7.393   2.175
 6094W        W 9613   9.364   1.068   9.842
 6095W        W 9614   7.937   1.822  10.725
 6096W        W 9615   5.273   2.897   9.273
 6097W        W 9616   3.147   0.428   1.935
 6098W        W 9617   1.486   0.898   3.268
 6099W        W 9618   1.351   9.421   3.178
 6100W        W 9619   4.968   3.664   2.710
 6101W        W 9620   5.705   9.917   0.017
 6102W        W 9621   1.362   1.670   2.126
 6103W        W 9622   6.688   5.502   9.746
 6104W        W 9623   3.759   1.841   3.333
 6105W        W 9624   9.830   5.293   8.810
 6106W        W 9625   2.419   2.251   2.984
 6107W        W 9626   6.636   7.540   2.226
 6108W        W 9627   2.150   8.187  11.177
 6109W        W 9628   5.999   5.832  11.219
 6110W        W 9629   8.083   8.933  11.825
 6111W        W 9630   2.733   9.871   1.826
 6112W        W 9631   0.095   7.347   9.365
 6113W        W 9632   1.900   8.499   8.900
 6114W        W 9633   3.596   1.399   1.670
 6115W        W 9634   0.214   3.809   0.328
 6116W        W 9635   2.542   4.166   3.099
 6117W        W 9636   4.768   4.474   8.366
 6118W        W 9637   1.812   6.689   1.314
 6119W        W 9638   1.512   1.317   0.265
 6120W        W 9639   8.113   2.347   1.353
 6121W        W 9640   6.145   9.038   8.915
 6122W        W 9641   6.747   3.734   1.945
 6123W        W 9642   3.789   5.466   0.679
 6124W        W 9643   5.088   9.654  10.080
 6125W        W 9644   1.483   6.250  10.539
 6126W        W 9645   4.465   8.097   3.199
 6127W        W 9646   0.434   5.059  11.160
 6128W        W 9647   7.893   9.966   3.770
 6129W        W 9648   6.936   3.624  11.508
 6130W        W 9649   6.285   4.170  11.975
 6131W        W 9650   8.009   4.299   1.042
 6132W        W 9651   5.936   1.315  11.272
 6133W        W 9652   4.779   6.402   2.864
 6134W        W 9653   5.658   8.894   1.416
 6135W        W 9654   0.412   6.632   0.431
 6136W        W 9655   1.170   6.570   2.329
 6137W        W 9656   9.635   1.851   2.403
 6138W        W 9657   7.365   6.105   0.713
 6139W        W 9658   3.997   1.091  10.540
 6140W        W 9659   0.888   5.627   9.299
 6141W        W 9660   9.989   1.980   3.182
 6142W        W 9661   0.585   5.096   9.277
 6143W        W 9662   1.729   3.287  11.858
 6144W        W 9663   5.170   5.578   9.266
 6145W        W 9664   5.923   3.737   3.641
 6146W        W 9665   8.808   5.309   3.058
 6147W        W 9666   1.865   4.543   0.454
 6148W        W 9667   2.572   8.750  11.804
 6149W        W 9668   6.611   0.234   3.110
 6150W        W 9669   7.408   3.605  10.487
 6151W        W 9670   9.427   2.763   3.272
 6152W        W 9671   8.901   3.489  10.954
 6153W        W 9672   1.698   8.075  11.516
 6154W        W 9673   7.538   0.297   2.863
 6155W        W 9674   6.478   8.694   9.124
 6156W        W 9675   1.070   9.067   1.193
 6157W        W 9676   9.771   4.338   8.819
 6158W        W 9677   8.031   6.710  11.353
 6159W        W 9678   0.395   5.011  11.803
 6160W        W 9679   1.875   4.630   2.241
 6161W        W 9680   9.904   2.905   8.857
 6162W        W 9681   0.572   0.899  10.469
 6163W        W 9682   4.531   9.766   2.052
 6164W        W 9683   6.269   1.369  10.260
 6165W        W 9684   9.325   2.652   0.039
 6166W        W 9685   1.036   9.876  11.554
 6167W        W 9686   6.421   0.287   1.631
 6168W        W 9687   6.356   5.200  10.241
 6169W        W 9688   9.484   3.611   2.703
 6170W        W 9689   6.458   2.937   2.974
 6171W        W 9690   6.966   1.153   0.775
 6172W        W 9691   6.654   6.048  10.665
 6173W        W 9692   3.092   4.661   2.919
 6174W        W 9693   2.626   9.947   0.226
 6175W        W 9694   1.972   7.842   1.026
 6176W        W 9695   1.211   9.990  11.080
 6177W        W 9696   9.349   7.459   0.798
 6178W        W 9697   3.306   0.749   2.718
 6179W        W 9698   1.878   1.018   1.729
 6180W        W 9699   7.108   3.255  10.241
 6181W        W 9700   8.912   2.631  11.182
 6182W        W 9701   4.409   0.366   1.408
 6183W        W 9702   7.067   4.173  10.311
 6184W        W 9703   5.053   8.369   2.445
 6185W        W 9704   3.502   7.384   1.646
 6186W        W 9705   0.393   6.867  10.828
 6187W        W 9706   4.960   7.329   1.869
 6188W        W 9707   1.808   6.171   9.418
 6189W        W 9708   3.075   6.385   8.082
 6190W        W 9709   0.478   0.938  10.968
 6191W        W 9710   1.932   1.677  11.100
 6192W        W 9711   9.581   9.483   2.317
 6193W        W 9712   9.608   9.359   9.145
 6194W        W 9713   9.305   3.117  11.496
 6195W        W 9714   7.278   5.125   1.907
 6196W        W 9715   3.547   3.567  10.211
 6197W        W 9716   0.781   2.138   1.042
 6198W        W 9717   8.903   5.155   2.152
 6199W        W 9718   7.567   7.233  10.803
 6200W        W 9719   3.330   5.847   4.341
 6201W        W 9720   8.632   5.383   9.009
 6202W        W 9721   4.717   6.374  11.819
 6203W        W 9722   2.037   5.029   1.365
 6204W        W 9723   4.598   9.740   8.899
 6205W        W 9724   7.084   3.687   2.792
 6206W        W 9725   4.598   0.646   9.295
 6207W        W 9726   1.356   1.100  11.832
 6208W        W 9727   7.332   0.615   8.527
 6209W        W 9728   1.833   1.337   9.984
 6210W        W 9729   8.523   9.319  10.945
 6211W        W 9730   2.207   1.741  10.437
 6212W        W 9731   8.552   7.112   9.178
 6213W        W 9732   8.476   3.600  10.704
 6214W        W 9733   2.289   9.350   8.960
 6215W        W 9734   2.654   2.493   1.317
 6216W        W 9735   1.682   3.761   3.312
 6217W        W 9736   4.703   7.798   2.839
 6218W        W 9737   5.151   7.997   1.577
 6219W        W 9738   3.358   3.055  11.733
 6220W        W 9739   5.638   1.020   2.588
 6221W        W 9740   3.735   7.855   2.992
 6222W        W 9741   1.787   6.174   2.236
 6223W        W 9742   7.751   2.115  11.198
 6224W        W 9743   4.560   0.099   9.328
 6225W        W 9744   3.593   3.370  11.357
 6226W        W 9745   8.307   8.002   3.501
 6227W        W 9746   1.523   7.833   3.143
 6228W        W 9747   3.415   7.159   9.097
 6229W        W 9748   0.855   0.292   1.420
 6230W        W 9749   5.724   5.052   9.667
 6231W        W 9750   8.002   8.820   9.059
 6232W        W 9751   5.265   4.201   8.491
 6233W        W 9752   6.153   7.292   9.038
 6234W        W 9753   3.107   2.330   1.518
 6235W        W 9754   7.192   1.449   0.316
 6236W        W 9755   2.898   6.594   1.837
 6237W        W 9756   7.896   0.694   2.823
 6238W        W 9757   4.947   5.647   3.901
 6239W        W 9758   2.344   3.037   1.390
 6240W        W 9759   5.450   3.999   2.015
 6241W        W 9760   8.472   7.537  10.326
 6242W        W 9761   7.542   7.643   3.217
 6243W        W 9762   2.675   6.045   3.095
 6244W        W 9763   4.612   0.859   9.776
 6245W        W 9764   5.230   9.816  11.816
 6246W        W 9765   0.429   7.001   9.227
 6247W        W 9766   6.481   3.665   1.236
 6248W        W 9767   6.226   5.029   3.437
 6249W        W 9768   6.596   4.044  10.175
 6250W        W 9769   5.636   8.875   2.338
 6251W        W 9770   0.723   1.692   0.794
 6252W        W 9771   2.524   0.401  10.783
 6253W        W 9772   4.882   3.286   1.022
 6254W        W 9773   0.898   4.853  10.013
 6255W        W 9774   3.152   8.406   1.596
 6256W        W 9775   0.826   3.167   9.165
 6257W        W 9776   6.143   4.516   2.131
 6258W        W 9777   5.711   0.934   8.544
 6259W        W 9778   9.378   4.378   9.900
 6260W        W 9779   1.909   0.873   3.616
 6261W        W 9780   4.644   8.793   3.586
 6262W        W 9781   9.960   8.457   0.053
 6263W        W 9782   7.613   5.833  11.548
 6264W        W 9783   2.539   1.713   0.613
 6265W        W 9784   6.944   2.853   9.376
 6266W        W 9785   9.448   8.715   3.285
 6267W        W 9786   9.933   4.362   2.699
 6268W        W 9787   1.067   8.342   3.640
 6269W        W 9788   0.437   5.688  10.024
 6270W        W 9789   4.794   7.218   9.630
 6271W        W 9790   9.366   1.413   3.213
 6272W        W 9791   2.539   4.223  10.900
 6273W        W 9792   9.427   6.095   3.051
 6274W        W 9793   4.168   2.292   9.758
 6275W        W 9794   3.520   5.060  11.943
 6276W        W 9795   3.186   6.537   2.667
 6277W        W 9796   3.573   6.105   3.959
 6278W        W 9797   0.363   8.584   9.840
 6279W        W 9798   3.147   9.415  11.518
 6280W        W 9799   4.455   3.825   3.503
 6281W        W 9800   9.239   9.424   1.407
 6282W        W 9801   8.276   1.012  10.679
 6283W        W 9802   0.356   8.716  11.662
 6284W        W 9803   3.300   6.135  10.567
 6285W        W 9804   4.071   5.109   2.053
 6286W        W 9805   7.389   5.907  11.062
 6287W        W 9806   7.872   2.827   0.212
 6288W        W 9807   7.256   9.191   1.851
 6289W        W 9808   1.857   6.956  10.822
 6290W        W 9809   4.241   1.909  10.411
 6291W        W 9810   6.457   3.221   0.320
 6292W        W 9811   8.189   9.921   0.575
 6293W        W 9812   1.734   0.863   0.334
 6294W        W 9813   9.496   0.992   1.903
 6295W        W 9814   5.511   9.590   9.259
 6296W        W 9815   4.544   7.588  10.508
 6297W        W 9816   0.432   7.926   1.945
 6298W        W 9817   5.965   6.142   2.078
 6299W        W 9818   6.606   0.684   2.830
 6300W        W 9819   2.262   9.854  10.470
 6301W        W 9820   3.167   5.524  11.284
 6302W        W 9821   7.656   2.196   9.472
 6303W        W 9822   9.657   4.073   1.927
 6304W        W 9823   3.297   8.421   8.596
 6305W        W 9824   7.280   3.571   8.753
 6306W        W 9825   8.372   5.191   1.401
 6307W        W 9826   8.191   9.763   8.886
 6308W        W 9827   1.403   3.187   1.081
 6309W        W 9828   5.564   7.568   9.326
 6310W        W 9829   7.793   3.322   0.322
 6311W        W 9830   3.154   4.078  11.941
 6312W        W 9831   6.313   5.066   2.055
 6313W        W 9832   8.283   9.377   1.224
 6314W        W 9833   8.277   8.934   9.479
 6315W        W 9834   9.903   1.284   2.505
 6316W        W 9835   7.172   3.105   9.753
 6317W        W 9836   7.886   1.090   3.188
 6318W        W 9837   1.847   9.520  11.639
 6319W        W 9838   2.111   8.298   9.890
 6320W        W 9839   5.059   4.153   8.958
 6321W        W 9840   4.236   1.569   0.760
 6322W        W 9841   2.654   5.118  11.752
 6323W        W 9842   1.674   2.158   0.535
 6324W        W 9843   0.858   4.706   1.902
 6325W        W 9844   7.411   9.491   8.552
 6326W        W 9845   9.338   1.610  10.451
 6327W        W 9846   8.286   0.474   1.294
 6328W        W 9847   1.183   2.641  11.874
 6329W        W 9848   9.088   1.868   9.292
 6330W        W 9849   1.691   2.491   3.534
 6331W        W 9850   2.713   3.450  10.156
 6332W        W 9851   3.456   5.881   1.918
 6333W        W 9852   8.918   7.820  10.275
 6334W        W 9853   6.067   2.136   8.440
 6335W        W 9854   7.237   1.782  11.104
 6336W        W 9855   6.847   9.572   2.665
 6337W        W 9856   5.589   8.395  10.864
 6338W        W 9857   2.908   1.365   0.473
 6339W        W 9858   5.174   9.713  10.939
 6340W        W 9859   0.261   8.557   8.547
 6341W        W 9860   4.324   9.719   2.778
 6342W        W 9861   3.518   9.673   2.325
 6343W        W 9862   0.183   3.806  11.427
 6344W        W 9863   8.870   6.980   2.159
 6345W        W 9864   4.181   1.275   9.762
 6346W        W 9865   7.523   6.637   3.294
 6347W        W 9866   1.284   1.921   0.323
 6348W        W 9867   6.557   9.502   9.967
 6349W        W 9868   4.952   2.216   9.893
 6350W        W 9869   4.888   5.980   9.039
 6351W        W 9870   7.485   0.446   1.095
 6352W        W 9871   8.771   0.818   3.072
 6353W        W 9872   8.075   6.645   1.679
 6354W        W 9873   1.431   9.243   9.289
 6355W        W 9874   1.698   5.763  10.431
 6356W        W 9875   6.875   6.200   3.296
 6357W        W 9876   3.030   5.292   8.499
 6358W        W 9877   6.456   3.158  10.942
 6359W        W 9878   5.500   0.208  10.375
 6360W        W 9879   1.279   3.299   2.714
 6361W        W 9880   5.120   2.048   0.668
 6362W        W 9881   3.249   6.785   0.315
 6363W        W 9882   1.786   3.783   1.772
 6364W        W 9883   0.370   5.687   1.223
 6365W        W 9884   4.619   1.030  10.264
 6366W        W 9885   7.364   5.220   0.691
 6367W        W 9886   1.077   3.619   1.076
 6368W        W 9887   3.441   8.490   0.864
 6369W        W 9888   4.454   2.910   3.651
 6370W        W 9889   2.266   0.839  10.259
 6371W        W 9890   3.082   7.987  10.531
 6372W        W 9891   9.852   8.653   0.524
 6373W        W 9892   2.866   6.714  11.901
 6374W        W 9893   6.145   0.558   9.862
 6375W        W 9894   8.757   0.877  10.864
 6376W        W 9895   8.046   2.544   1.989
 6377W        W 9896   2.528   0.153  11.769
 6378W        W 9897   9.740   2.567   1.277
 6379W        W 9898   2.914   6.940   0.728
 6380W        W 9899   2.282   1.736   3.030
 6381W        W 9900   8.975   3.439   9.645
 6382W        W 9901   0.661   6.440   3.462
 6383W        W 9902   6.054   9.221   0.767
 6384W        W 9903   6.435   9.382  10.881
 6385W        W 9904   5.199   4.001   3.691
 6386W        W 9905   9.959   2.358   8.894
 6387W        W 9906   4.022   8.288   2.992
 6388W        W 9907   0.252   6.707   2.592
 6389W        W 9908   2.161   5.353   0.197
 6390W        W 9909   4.884   6.685  11.458
 6391W        W 9910   0.009   1.386   1.329
 6392W        W 9911   7.994   3.310   0.807
 6393W        W 9912   5.525   1.217  10.108
 6394W        W 9913   8.398   5.981  10.748
 6395W        W 9914   8.588   5.004  11.374
 6396W        W 9915   6.999   6.399  10.485
 6397W        W 9916   8.107   7.717   0.819
 6398W        W 9917   4.792   4.592  11.923
 6399W        W 9918   4.032   1.321   9.291
 6400W        W 9919   7.369   2.356   1.771
 6401W        W 9920   2.442   7.851   0.830
 6402W        W 9921   5.112   2.407   9.326
 6403W        W 9922   8.083   0.899   9.338
 6404W        W 9923   7.149   0.832  11.160
 6405W        W 9924   1.714   0.534   2.790
 6406W        W 9925   0.834   1.649   3.454
 6407W        W 9926   6.587   8.595  11.850
 6408W        W 9927   9.332   8.951   9.411
 6409W        W 9928   3.016   0.214  11.971
 6410W        W 9929   1.593   6.580   1.974
 6411W        W 9930   7.575   1.617   9.460
 6412W        W 9931   1.129   5.055   2.702
 6413W        W 9932   8.670   6.674   0.612
 6414W        W 9933   2.337   2.802  10.450
 6415W        W 9934   9.186   2.897  10.398
 6416W        W 9935   0.969   6.850   1.378
 6417W        W 9936   5.795   0.844  11.423
 6418W        W 9937   3.998   0.764   0.925
 6419W        W 9938   7.397   8.946   2.315
 6420W        W 9939   3.181   9.378   0.019
 6421W        W 9940   1.592   6.300  11.733
 6422W        W 9941   3.089   3.679   9.321
 6423W        W 9942   6.897   6.645  10.966
 6424W        W 9943   2.327   2.486   0.025
 6425W        W 9944   9.794   4.636   9.268
 6426W        W 9945   2.452   8.683  10.059
 6427W        W 9946   4.489   4.346   0.275
 6428W        W 9947   1.298   3.728   2.995
 6429W        W 9948   9.383   2.129  11.164
 6430W        W 9949   5.973   2.961   0.280
 6431W        W 9950   5.658   5.816  10.812
 6432W        W 9951   0.756   3.150  10.985
 6433W        W 9952   2.742   9.680   0.645
 6434W        W 9953   8.410   4.381   8.831
 6435W        W 9954   7.627   6.081  10.399
 6436W        W 9955   0.752   8.601  10.188
 6437W        W 9956   3.216   2.706   2.754
 6438W        W 9957   9.427   0.145  11.360
 6439W        W 9958   2.702   9.428   0.202
 6440W        W 9959   8.249   1.728   8.941
 6441W        W 9960   5.930   3.155  11.017
 6442W        W 9961   9.510   5.765   0.247
 6443W        W 9962   0.001   0.488   3.208
 6444W        W 9963   7.599   1.895   2.505
 6445W        W 9964   8.150   3.217  11.940
 6446W        W 9965   1.635   8.429   9.708
 6447W        W 9966   8.003   1.610   9.843
 6448W        W 9967   1.193   5.821  10.461
 6449W        W 9968   8.410   5.503  10.267
 6450W        W 9969   8.321   5.849  11.804
 6451W        W 9970   9.584   2.413  10.369
 6452W        W 9971   4.685   0.167   3.229
 6453W        W 9972   8.620   5.595   2.068
 6454W        W 9973   8.897   0.434   2.313
 6455W        W 9974   2.882   1.871   1.395
 6456W        W 9975   1.944   3.198   0.366
 6457W        W 9976   3.244   7.412   9.679
 6458W        W 9977   2.092   2.932  11.954
 6459W        W 9978   3.933   4.267   8.094
 6460W        W 9979   5.739   2.026   3.525
 6461W        W 9980   9.559   3.143  10.146
 6462W        W 9981   8.793   1.320  11.593
 6463W        W 9982   0.410   6.206   1.230
 6464W        W 9983   1.255   7.563   0.515
 6465W        W 9984   0.959   6.274  10.538
 6466W        W 9985   8.044   4.424   1.519
 6467W        W 9986   2.410   1.229   2.920
 6468W        W 9987   0.917   1.628  11.246
 6469W        W 9988   0.053   8.196   2.755
 6470W        W 9989   1.530   4.971   0.647
 6471W        W 9990   3.466   9.352   2.719
 6472W        W 9991   7.378   2.300   2.748
 6473W        W 9992   1.561   4.248   2.023
 6474W        W 9993   3.569   7.576   1.156
 6475W        W 9994   9.151   5.036   0.218
 6476W        W 9995   6.903   0.924  10.734
 6477W        W 9996   4.305   9.849   9.706
 6478W        W 9997   3.693   1.788  10.878
 6479W        W 9998   0.759   6.689   9.487
 6480W        W 9999   6.521   9.402   9.087
 6481W        W10000   2.636   4.998  10.279
 6482W        W10001   5.724   5.751   1.800
 6483W        W10002   2.857   8.470   8.856
 6484W        W10003   4.236   7.095   0.996
 6485W        W10004   6.490   2.333   1.886
 6486W        W10005   8.287   7.998   9.112
 6487W        W10006   5.938   2.199  11.546
 6488W        W10007   8.285   4.052   2.769
 6489W        W10008   5.196   7.452   1.392
 6490W        W10009   3.071   5.696   2.248
 6491W        W10010   1.838   7.239   3.252
 6492W        W10011   9.373   9.612   1.864
 6493W        W10012   5.277   6.944   1.951
 6494W        W10013   0.168   5.406   0.033
 6495W        W10014   8.559   0.691   0.421
 6496W        W10015   0.101   5.023   1.746
 6497W        W10016   7.833   1.497   8.674
 6498W        W10017   7.169   8.176   0.673
 6499W        W10018   9.202   6.226   1.209
 6500W        W10019   0.349   8.417   3.630
 6501W        W10020   8.072   7.804  10.059
 6502W        W10021   2.390   7.512   9.360
 6503W        W10022   3.197   5.198   8.962
 6504W        W10023   6.057   7.682   9.374
 6505W        W10024   2.919   8.890  11.433
 6506W        W10025   2.958   5.120   0.764
 6507W        W10026   5.117   0.675   0.926
 6508W        W10027   2.265   3.971   0.005
 6509W        W10028   5.623   4.994   0.845
 6510W        W10029   0.917   9.483  10.641
 6511W        W10030   7.456   1.209   3.493
 6512W        W10031   2.305   4.332   9.118
 6513W        W10032   5.012   9.939  10.495
 6514W        W10033   9.879   7.692  10.289
 6515W        W10034   5.832   1.549   0.109
 6516W        W10035   4.950   2.456  10.353
 6517W        W10036   5.967   3.870   9.138
 6518W        W10037   6.792   1.080  11.439
 6519W        W10038   7.620   3.648   0.943
 6520W        W10039   6.153   0.388   2.954
 6521W        W10040   4.257   8.067   0.644
 6522W        W10041   9.961   3.016   1.362
 6523W        W10042   2.673   0.837   9.084
 6524W        W10043   2.645   5.946   2.313
 6525W        W10044   5.689   7.706   0.430
 6526W        W10045   2.578   5.562  11.995
 6527W        W10046   6.173   9.823  10.880
 6528W        W10047   7.501   8.133   3.435
 6529W        W10048   9.373   4.636   8.950
 6530W        W10049   5.531   6.994   2.398
 6531W        W10050   1.651   7.895   8.954
 6532W        W10051   7.652   5.835   8.762
 6533W        W10052   5.464   9.341  11.687
 6534W        W10053   9.376   7.886  10.511
 6535W        W10054   8.986   4.085   0.091
 6536W        W10055   1.655   8.128   8.496
 6537W        W10056   8.069   8.886   1.386
 6538W        W10057   1.421   3.932  11.968
 6539W        W10058   4.694   4.534   8.862
 6540W        W10059   2.948   8.483   9.425
 6541W        W10060   2.771   4.171   9.326
 6542W        W10061   1.469   2.549  10.798
 6543W        W10062   2.285   5.751   9.672
 6544W        W10063   1.801   4.718  11.783
 6545W        W10064   8.066   2.801  11.197
 6546W        W10065   3.894   0.921   0.296
 6547W        W10066   3.715   3.339   3.222
 6548W        W10067   9.637   7.564   9.463
 6549W        W10068   5.651   6.409   3.679
 6550W        W10069   8.508   6.760   9.604
 6551W        W10070   7.823   6.121   8.359
 6552W        W10071   2.211   0.391   0.937
 6553W        W10072   3.182   9.469  11.018
 6554W        W10073   9.801   0.830   2.281
 6555W        W10074   4.487   0.231  11.862
 6556W        W10075   3.627   9.330  11.794
 6557W        W10076   7.406   3.273   1.245
 6558W        W10077   8.603   3.932   3.614
 6559W        W10078   0.070   9.006   9.883
 6560W        W10079   4.305   6.129   8.349
 6561W        W10080   1.838   9.529   9.186
 6562W        W10081   2.798   2.695   9.116
 6563W        W10082   3.648   7.091   0.409
 6564W        W10083   5.317   5.548   2.661
 6565W        W10084   7.749   5.324  11.162
 6566W        W10085   7.459   7.029   2.188
 6567W        W10086   4.965   6.127   2.456
 6568W        W10087   7.180   3.743  11.038
 6569W        W10088   9.968   3.642   1.964
 6570W        W10089   4.580   0.531  10.178
 6571W        W10090   5.621   3.100   2.771
 6572W        W10091   2.723   2.539  10.270
 6573W        W10092   9.652   9.286  11.546
 6574W        W10093   5.272   5.397   3.573
 6575W        W10094   9.655   7.540  11.253
 6576W        W10095   6.769   5.062   1.814
 6577W        W10096   7.623   2.737   2.558
 6578W        W10097   8.814   0.430   9.594
 6579W        W10098   7.479   7.949   1.441
 6580W        W10099   2.417   8.423  10.823
 6581W        W10100   4.779   3.809  10.883
 6582W        W10101   6.446   1.198   0.001
 6583W        W10102   7.177   9.877  11.890
 6584W        W10103   3.541   5.571   8.350
 6585W        W10104   5.184   0.866   0.432
 6586W        W10105   5.376   8.414   8.248
 6587W        W10106   0.742   0.336  11.585
 6588W        W10107   4.802   6.131  10.708
 6589W        W10108   9.731   5.595   3.374
 6590W        W10109   6.067   0.606   1.013
 6591W        W10110   0.365   7.092   2.268
 6592W        W10111   4.612   3.226   0.172
 6593W        W10112   5.004   5.276   2.368
 6594W        W10113   6.297   9.407   3.307
 6595W        W10114   2.550   5.626   1.931
 6596W        W10115   1.207   2.587   1.697
 6597W        W10116   4.210   3.004  11.945
 6598W        W10117   4.759   5.734  11.500
 6599W        W10118   7.511   4.902   3.289
 6600W        W10119   6.801   2.923   1.465
 6601W        W10120   7.448   4.832   2.763
 6602W        W10121   5.492   8.171   0.337
 6603W        W10122   4.056   4.122   9.905
 6604W        W10123   4.519   9.602  10.351
 6605W        W10124   1.822   9.341  10.107
 6606W        W10125   9.572   6.260   1.570
 6607W        W10126   8.918   7.476   9.024
 6608W        W10127   2.562   4.146   1.748
 6609W        W10128   2.814   4.287   2.672
 6610W        W10129   3.347   3.816   2.003
 6611W        W10130   3.961   0.243   3.637
 6612W        W10131   5.387   5.531  11.130
 6613W        W10132   9.207   2.698   2.440
 6614W        W10133   5.637   3.809  11.243
 6615W        W10134   4.850   0.409   2.448
 6616W        W10135   5.747   1.387   1.599
 6617W        W10136   2.776   5.077  10.762
 6618W        W10137   0.325   8.461   0.527
 6619W        W10138   1.776   1.924   1.853
 6620W        W10139   7.281   2.200  11.391
 6621W        W10140   7.018   4.472   0.376
 6622W        W10141   0.760   6.656  11.492
 6623W        W10142   4.479   5.899   9.425
 6624W        W10143   1.445   9.808  11.851
 6625W        W10144   4.932   1.157   1.085
 6626W        W10145   1.649   5.739  11.863
 6627W        W10146   0.532   2.336   9.543
 6628W        W10147   8.571   0.217  10.868
 6629W        W10148   5.570   9.677   3.307
 6630W        W10149   0.806   7.384  10.003
 6631W        W10150   0.751   1.352  10.836
 6632W        W10151   4.171   2.029   0.017
 6633W        W10152   8.366   5.536   3.223
 6634W        W10153   7.362   1.408   2.517
 6635W        W10154   7.305   4.732   2.220
 6636W        W10155   4.586   4.583  10.481
 6637W        W10156   3.984   7.221   2.379
 6638W        W10157   5.388   8.461   1.610
 6639W        W10158   7.924   8.072  10.491
 6640W        W10159   4.241   3.481   8.715
 6641W        W10160   0.915   6.887   9.938
 6642W        W10161   7.898   6.102   0.743
 6643W        W10162   1.694   9.067   3.322
 6644W        W10163   3.817   7.630  10.696
 6645W        W10164   5.069   6.693   9.552
 6646W        W10165   5.038   1.186  10.883
 6647W        W10166   7.050   7.803   2.273
 6648W        W10167   9.966   8.553   9.008
 6649W        W10168   1.653   3.423   3.682
 6650W        W10169   3.864   7.530   3.363
 6651W        W10170   6.963   8.598   8.942
 6652W        W10171   6.043   8.133  11.748
 6653W        W10172   5.887   4.161   2.962
 6654W        W10173   4.856   5.038   0.899
 6655W        W10174   0.219   3.696   9.270
 6656W        W10175   5.058   8.547   0.280
 6657W        W10176   0.533   7.653  11.359
 6658W        W10177   4.559   9.393   0.263
 6659W        W10178   1.368   7.162  10.815
 6660W        W10179   2.427   9.653   8.565
 6661W        W10180   4.708   1.879   0.917
 6662W        W10181   5.952   3.450   0.310
 6663W        W10182   4.418   4.109   8.189
 6664W        W10183   5.546   0.944   9.633
 6665W        W10184   8.312   6.200   1.645
 6666W        W10185   8.409   3.662   1.336
 6667W        W10186   1.653   6.616   2.482
 6668W        W10187   0.336   2.236   0.808
 6669W        W10188   4.835   5.414  10.957
 6670W        W10189   1.247   0.707   2.836
 6671W        W10190   9.207   9.189   2.501
 6672W        W10191   6.716   2.181   1.465
 6673W        W10192   1.677   8.030   0.074
 6674W        W10193   5.964   3.642   1.225
 6675W        W10194   2.097   7.991  10.705
 6676W        W10195   1.798   1.232   1.253
 6677W        W10196   8.161   8.392   0.455
 6678W        W10197   0.666   5.368   3.441
 6679W        W10198   2.252   5.548   1.054
 6680W        W10199   6.356   4.063  11.089
 6681W        W10200   5.983   7.165   2.753
 6682W        W10201   0.423   0.467   2.338
 6683W        W10202   1.088   9.003   9.999
 6684W        W10203   3.372   9.730   1.214
 6685W        W10204   6.661   0.702   3.347
 6686W        W10205   4.107   9.858  10.189
 6687W        W10206   4.577   5.991  10.278
 6688W        W10207   0.666   8.020   3.557
 6689W        W10208   2.576   4.475  10.273
 6690W        W10209   6.130   5.604   2.061
 6691W        W10210   6.155   2.625   8.624
 6692W        W10211   3.565   4.806  10.653
 6693W        W10212   1.005   7.965   3.149
 6694W        W10213   7.966   5.508   2.896
 6695W        W10214   3.679   6.817  11.996
 6696W        W10215   2.848   1.361   9.791
 6697W        W10216   7.196   4.797   0.967
 6698W        W10217   6.689   1.732   9.510
 6699W        W10218   7.061   3.183   0.454
 6700W        W10219   6.504   6.963   9.240
 6701W        W10220   6.990   0.334  11.831
 6702W        W10221   7.637   5.893   2.895
 6703W        W10222   0.241   0.588  10.243
 6704W        W10223   3.510   4.073  10.067
 6705ION    NA+10224   4.479   0.503  10.991
 6706ION    NA+10225   7.934   4.199   8.821
 6707ION    NA+10226   6.268   8.439   0.728
 6708ION    NA+10227   3.385   1.608   1.225
 6709ION    NA+10228   3.877   6.180   1.808
 6710ION    NA+10229   2.249   5.727  10.511
 6711ION    NA+10230   4.548   6.512  10.363
 6712ION    NA+10231   6.651   5.053  11.680
 6713ION    NA+10232   9.509   3.095   8.560
 6714ION    NA+10233   4.652   8.780   9.823
 6715ION    NA+10234   6.115   3.698   9.610
 6716ION    NA+10235   4.726   7.866   0.745
 6717ION    NA+10236   7.896   5.616  11.963
 6718ION    NA+10237   0.850   3.173  11.954
 6719ION    NA+10238   0.034   9.974   3.055
 6720ION    NA+10239   7.577   8.939  11.760
 6721ION    NA+10240   1.715   7.052   9.500
 6722ION    NA+10241   4.049   2.373  10.297
 6723ION    NA+10242   3.784   0.199   8.868
 6724ION    NA+10243   3.885   8.453   9.553
 6725ION    NA+10244   6.979   1.218   8.966
 6726ION    NA+10245   3.603   5.521  11.000
 6727ION    NA+10246   7.472   4.051   9.584
 6728ION    NA+10247   5.371   9.256  10.186
 6729ION    NA+10248   6.914   9.515  10.685
 6730ION    NA+10249   3.147   0.968   8.915
 6731ION    NA+10250   0.307   5.440  11.516
 6732ION    NA+10251   9.317   3.429   1.337
 6733ION    NA+10252   8.100   1.632   3.164
 6734ION    NA+10253   2.614   5.059   8.772
 6735ION    NA+10254   6.342   0.865   1.775
 6736ION    NA+10255   8.642   1.371  10.755
 6737ION    NA+10256   5.318   8.750   2.691
 6738ION    NA+10257   1.865   4.697   1.736
 6739ION    NA+10258   7.280   9.366   2.838
 6740ION    NA+10259   1.758   9.762   0.445
 6741ION    NA+10260   7.870   7.904   2.223
 6742ION    NA+10261   2.803   6.755   2.335
 6743ION    NA+10262   1.558   6.600   0.857
 6744ION    NA+10263   1.344   8.621   1.096
 6745ION    NA+10264   2.155   5.888   0.032
 6746ION    NA+10265   8.190   4.792   2.127
 6747ION    NA+10266   8.890   9.015  10.280
 6748ION    NA+10267   8.393   8.001  11.973
 6749ION    NA+10268   8.388   8.012   1.598
 6750ION    NA+10269   5.973   6.640   4.043
 6751ION    NA+10270   4.209   9.488   1.023
 6752ION    NA+10271   0.902   3.269   9.665
 6753ION    NA+10272   1.311   0.548   3.708
 6754ION    NA+10273   4.091   5.523   2.393
 6755ION    NA+10274   8.705   2.741   1.214
 6756ION    NA+10275   6.418   8.462   2.259
 6757ION    NA+10276   7.788   4.846  10.971
 6758ION    NA+10277   4.207   5.282   0.366
 6759ION    NA+10278   0.575   4.876   0.297
 6760ION    NA+10279   1.801   0.041   3.153
 6761ION    NA+10280   3.814   4.959  10.176
 6762ION    NA+10281   9.718   7.871   3.013
 6763ION    NA+10282   5.038   5.838   3.426
 6764ION    NA+10283   3.578   9.600   0.255
 6765ION    NA+10284   0.289   0.443   8.600
 6766ION    NA+10285   8.771   7.923   2.462
 6767ION    NA+10286   3.863   6.318   9.137
 6768ION    NA+10287   4.305   0.390   9.750
 6769ION    NA+10288   8.008   7.865   9.527
 6770ION    NA+10289   2.758   1.878   2.463
 6771ION    NA+10290   3.027   2.703  11.584
 6772ION    NA+10291   7.558   2.567  10.485
 6773ION    NA+10292   2.144   5.767   8.797
 6774ION    NA+10293   5.295   4.547   1.563
 6775ION    NA+10294   6.534   6.960   9.866
 6776ION    CL-10295   8.614   4.709   2.246
 6777ION    CL-10296   0.237   1.223   2.909
 6778ION    CL-10297   5.142   8.818   1.325
 6779ION    CL-10298   6.126   0.531  11.187
 6780ION    CL-10299   4.901   4.607   3.032
 6781ION    CL-10300   6.136   3.888  10.012
 6782ION    CL-10301   1.127   3.651   9.686
 6783ION    CL-10302   2.353   5.390   8.972
 6784ION    CL-10303   3.931   5.854   2.119
 6785ION    CL-10304   1.829   1.786   3.314
 6786ION    CL-10305   6.432   8.566   0.335
 6787ION    CL-10306   4.359   8.473   9.571
 6788ION    CL-10307   4.484   1.558   9.443
 6789ION    CL-10308   2.683   5.329   2.334
 6790ION    CL-10309   0.886   4.664   0.055
 6791ION    CL-10310   7.026   1.027   8.536
 6792ION    CL-10311   7.775   4.115   9.243
 6793ION    CL-10312   4.728   7.694   0.330
 6794ION    CL-10313   2.181   8.514  11.577
 6795ION    CL-10314   4.186   6.682  10.560
 6796ION    CL-10315   2.181   9.095   2.128
 6797ION    CL-10316   7.722   9.195   0.097
 6798ION    CL-10317   9.190   2.690   9.499
 6799ION    CL-10318   5.064   4.264   1.293
 6800ION    CL-10319   1.407   0.006   0.318
 6801ION    CL-10320   9.006   3.078   1.281
 6802ION    CL-10321   3.227   3.702   3.245
 6803ION    CL-10322   5.801   7.434   2.357
 6804ION    CL-10323   3.197   4.917   0.367
 6805ION    CL-10324   0.230   0.518   0.926
 6806ION    CL-10325   6.194   2.400   2.316
 6807ION    CL-10326   4.815   5.045   8.601
 6808ION    CL-10327   9.037   1.235  10.605
 6809ION    CL-10328   7.506   4.326   0.278
 6810ION    CL-10329   7.779   5.150  10.646
 6811ION    CL-10330   5.616   6.662   0.214
 6812ION    CL-10331   1.002   8.695   0.808
 6813ION    CL-10332   0.828   8.376   2.288
 6814ION    CL-10333   6.644   1.519   9.049
 6815ION    CL-10334   1.313   4.548  10.089
 6816ION    CL-10335   0.122   7.713   2.894
 6817ION    CL-10336   4.360   4.636  10.963
 6818ION    CL-10337   4.414   0.075  11.107
 6819ION    CL-10338   3.456   8.603   9.621
 6820ION    CL-10339   3.149   7.284   0.381
 6821ION    CL-10340   2.024   6.036  11.632
 6822ION    CL-10341   2.445   1.564   2.406
 6823ION    CL-10342   5.473   4.910   1.772
 6824ION    CL-10343   8.293   7.950   2.046
 6825ION    CL-10344   7.081   4.135   9.796
 6826ION    CL-10345   9.906   0.714   8.733
 6827ION    CL-10346   5.213   8.630   3.110
 6828ION    CL-10347   5.754   3.195   1.063
 6829ION    CL-10348   6.726   3.407   3.097
 6830ION    CL-10349   7.511   9.954   0.864
 6831ION    CL-10350   8.924   9.324  10.599
 6832ION    CL-10351   8.477   9.199   3.571
 6833ION    CL-10352   3.715   6.723   9.259
 6834ION    CL-10353   0.063   3.773   2.782
 6835ION    CL-10354   6.324   7.837   8.960
 6836ION    CL-10355   4.585   3.337   9.714
 6837ION    CL-10356   5.012   9.050   9.983
 6838ION    CL-10357   5.676   0.257   3.100
 6839ION    CL-10358   5.739   3.565   3.136
 6840ION    CL-10359   5.013   7.591   9.355
 6841ION    CL-10360   9.574   5.694   9.076
 6842ION    CL-10361   9.834   2.504   3.072
 6843ION    CL-10362   2.695   4.672  11.537
 6844ION    CL-10363   7.793   2.542  10.861
 6845ION    CL-10364   1.683   8.569   1.401
 6846ION    CL-10365   9.627   3.731   1.488
  10.00000  10.00000  12.00000
