Protein in INSANE! Membrane UpperLeaflet>POPC=1.0 LowerLeaflet>POPC=1.0
11125
    1AU     AUC    1   5.250   5.300   6.007
    1AU     AUC    2   5.544   5.301   5.828
    1AU     AUC    3   5.521   5.303   6.176
    1AU     AUC    4   4.965   5.290   5.843
    1AU     AUC    5   4.979   5.334   6.199
    1AU     AUC    6   5.069   5.575   6.007
    1AU     AUC    7   5.436   5.573   5.992
    1AU     AUC    8   5.059   5.035   6.015
    1AU     AUC    9   5.414   5.016   6.009
    1AU     AUC   10   5.251   5.136   6.290
    1AU     AUC   11   5.239   5.476   6.274
    1AU     AUC   12   5.246   5.130   5.734
    1AU     AUC   13   5.275   5.451   5.729
    1AU     AUC   14   5.859   5.296   5.657
    1AU     AUC   15   5.862   5.281   6.015
    1AU     AUC   16   5.805   5.296   6.357
    1AU     AUC   17   4.658   5.288   5.673
    1AU     AUC   18   4.637   5.325   6.037
    1AU     AUC   19   4.680   5.358   6.396
    1AU     AUC   20   4.898   5.886   5.983
    1AU     AUC   21   5.249   5.901   5.954
    1AU     AUC   22   5.617   5.867   5.979
    1AU     AUC   23   4.850   4.758   6.021
    1AU     AUC   24   5.202   4.705   6.008
    1AU     AUC   25   5.575   4.711   5.999
    1AU     AUC   26   5.239   4.966   6.586
    1AU     AUC   27   5.277   5.341   6.620
    1AU     AUC   28   5.263   5.672   6.560
    1AU     AUC   29   5.264   4.948   5.457
    1AU     AUC   30   5.269   5.281   5.404
    1AU     AUC   31   5.270   5.607   5.426
    1AU     AUC   32   5.532   5.121   6.501
    1AU     AUC   33   5.563   5.491   6.490
    1AU     AUC   34   5.589   5.129   5.508
    1AU     AUC   35   5.596   5.478   5.527
    1AU     AUC   36   4.944   5.173   6.529
    1AU     AUC   37   4.966   5.531   6.499
    1AU     AUC   38   4.946   5.108   5.549
    1AU     AUC   39   4.930   5.427   5.506
    1AU     AUC   40   5.779   5.577   5.835
    1AU     AUC   41   5.746   5.606   6.178
    1AU     AUC   42   4.754   5.595   5.838
    1AU     AUC   43   4.764   5.646   6.196
    1AU     AUC   44   5.734   4.987   5.830
    1AU     AUC   45   5.705   4.973   6.178
    1AU     AUC   46   4.721   4.995   5.862
    1AU     AUC   47   4.780   5.055   6.222
    1AU     AUC   48   5.065   5.836   6.271
    1AU     AUC   49   5.428   5.786   6.247
    1AU     AUC   50   5.042   4.840   6.315
    1AU     AUC   51   5.379   4.798   6.291
    1AU     AUC   52   5.073   5.725   5.697
    1AU     AUC   53   5.458   5.763   5.668
    1AU     AUC   54   5.041   4.824   5.717
    1AU     AUC   55   5.435   4.835   5.718
    1AU    AUSL   56   5.821   5.268   6.692
    1AU    AUSL   57   5.534   4.802   6.679
    1AU     AUL   58   5.867   4.854   6.838
    1AU       S   59   5.866   4.448   6.639
    1AU     LIG   60   5.772   4.319   7.012
    1AU     LIG   61   5.990   3.984   7.233
    1AU     LIG   62   6.240   3.639   7.424
    1AU     LIG   63   6.405   3.489   7.828
    1AU       S   64   6.079   5.242   6.766
    1AU     LIG   65   6.072   5.164   7.221
    1AU     LIG   66   6.165   5.054   7.678
    1AU     LIG   67   6.486   5.055   8.041
    1AU     LIG   68   6.826   5.156   8.366
    1AU    AUSL   69   5.434   5.165   6.882
    1AU    AUSL   70   5.133   5.501   6.910
    1AU     AUL   71   5.350   5.455   7.236
    1AU       S   72   5.598   5.124   7.064
    1AU     LIG   73   5.426   4.947   7.399
    1AU     LIG   74   5.603   4.807   7.811
    1AU     LIG   75   5.748   4.606   8.223
    1AU     LIG   76   5.904   4.625   8.667
    1AU       S   77   4.968   5.236   7.168
    1AU     LIG   78   5.009   5.159   7.630
    1AU     LIG   79   4.712   5.169   7.981
    1AU     LIG   80   4.542   5.203   8.416
    1AU     LIG   81   4.551   5.460   8.817
    1AU    AUSL   82   5.537   5.591   6.843
    1AU    AUSL   83   5.891   5.677   6.581
    1AU     AUL   84   5.830   5.550   6.978
    1AU       S   85   5.403   5.880   6.974
    1AU     LIG   86   5.642   5.853   7.362
    1AU     LIG   87   5.717   5.906   7.843
    1AU     LIG   88   5.765   5.941   8.330
    1AU     LIG   89   5.801   5.906   8.810
    1AU       S   90   5.973   5.920   6.746
    1AU     LIG   91   6.327   5.712   6.854
    1AU     LIG   92   6.650   5.879   7.151
    1AU     LIG   93   6.934   6.134   7.438
    1AU     LIG   94   7.232   6.425   7.658
    1AU    AUSL   95   5.812   5.379   5.286
    1AU    AUSL   96   5.663   5.789   5.328
    1AU     AUL   97   5.941   5.680   5.064
    1AU       S   98   5.641   5.447   4.840
    1AU     LIG   99   6.099   5.424   4.650
    1AU     LIG  100   6.224   5.133   4.327
    1AU     LIG  101   6.267   5.007   3.887
    1AU     LIG  102   6.479   5.036   3.470
    1AU       S  103   6.003   6.008   5.383
    1AU     LIG  104   6.096   6.181   4.980
    1AU     LIG  105   6.259   6.375   4.571
    1AU     LIG  106   6.494   6.664   4.279
    1AU     LIG  107   6.729   6.976   4.027
    1AU    AUSL  108   5.555   5.079   5.113
    1AU    AUSL  109   5.927   4.992   5.411
    1AU     AUL  110   5.967   5.148   5.094
    1AU       S  111   6.013   4.693   5.178
    1AU     LIG  112   6.197   4.397   4.848
    1AU     LIG  113   6.482   4.030   4.729
    1AU     LIG  114   6.754   3.740   4.460
    1AU     LIG  115   7.172   3.743   4.220
    1AU       S  116   5.664   5.265   4.772
    1AU     LIG  117   5.846   4.912   4.625
    1AU     LIG  118   5.895   4.752   4.178
    1AU     LIG  119   5.848   4.771   3.704
    1AU     LIG  120   6.033   4.869   3.279
    1AU    AUSL  121   5.391   5.463   5.262
    1AU    AUSL  122   5.148   5.087   5.240
    1AU     AUL  123   5.284   5.125   4.954
    1AU       S  124   4.838   5.138   4.820
    1AU     LIG  125   4.910   4.808   4.563
    1AU     LIG  126   4.725   4.666   4.149
    1AU     LIG  127   4.511   4.674   3.714
    1AU     LIG  128   4.572   4.767   3.252
    1AU       S  129   5.466   5.565   4.928
    1AU     LIG  130   5.470   5.479   4.382
    1AU     LIG  131   5.780   5.253   4.054
    1AU     LIG  132   5.931   5.274   3.592
    1AU     LIG  133   5.905   5.477   3.163
    1AU    AUSL  134   4.733   5.424   6.769
    1AU    AUSL  135   5.011   5.779   6.617
    1AU     AUL  136   4.887   5.734   6.963
    1AU       S  137   4.793   5.371   7.236
    1AU     LIG  138   4.538   5.044   7.413
    1AU     LIG  139   4.279   4.947   7.812
    1AU     LIG  140   4.110   4.958   8.263
    1AU     LIG  141   3.769   5.081   8.575
    1AU       S  142   4.584   6.018   6.729
    1AU     LIG  143   4.686   6.196   7.119
    1AU     LIG  144   4.528   6.474   7.467
    1AU     LIG  145   4.218   6.731   7.717
    1AU     LIG  146   4.032   6.895   8.125
    1AU    AUSL  147   5.050   5.137   6.696
    1AU    AUSL  148   4.591   5.038   6.629
    1AU     AUL  149   4.615   5.153   6.881
    1AU       S  150   4.426   4.733   6.860
    1AU     LIG  151   4.021   4.634   6.659
    1AU     LIG  152   3.802   4.248   6.780
    1AU     LIG  153   3.646   3.940   7.081
    1AU     LIG  154   3.408   3.715   7.400
    1AU       S  155   5.026   5.067   7.084
    1AU     LIG  156   4.951   4.732   7.355
    1AU     LIG  157   4.737   4.694   7.758
    1AU     LIG  158   4.564   4.710   8.191
    1AU     LIG  159   4.442   4.570   8.616
    1AU    AUSL  160   4.742   5.205   5.284
    1AU    AUSL  161   4.911   4.812   5.451
    1AU     AUL  162   4.956   4.816   5.119
    1AU       S  163   4.635   5.115   4.959
    1AU     LIG  164   4.409   4.858   4.659
    1AU     LIG  165   4.269   4.891   4.197
    1AU     LIG  166   4.038   4.922   3.780
    1AU     LIG  167   3.596   5.049   3.622
    1AU       S  168   4.545   4.718   5.279
    1AU     LIG  169   4.582   4.454   4.974
    1AU     LIG  170   4.259   4.140   4.852
    1AU     LIG  171   3.907   3.915   4.632
    1AU     LIG  172   3.670   3.722   4.269
    1AU    AUSL  173   5.015   5.492   5.079
    1AU    AUSL  174   4.541   5.556   5.429
    1AU     AUL  175   4.664   5.549   5.099
    1AU       S  176   4.262   5.732   5.250
    1AU     LIG  177   4.089   5.940   4.882
    1AU     LIG  178   3.978   6.281   4.600
    1AU     LIG  179   3.657   6.455   4.316
    1AU     LIG  180   3.184   6.461   4.195
    1AU       S  181   4.922   5.364   4.760
    1AU     LIG  182   4.655   5.229   4.370
    1AU     LIG  183   4.633   5.136   3.916
    1AU     LIG  184   4.624   5.232   3.460
    1AU     LIG  185   4.769   5.473   3.074
    1AU    AUSL  186   6.017   5.793   5.998
    1AU    AUSL  187   5.977   5.597   5.607
    1AU     AUL  188   6.307   5.910   5.819
    1AU       S  189   6.100   5.717   5.485
    1AU     LIG  190   6.425   5.803   5.193
    1AU     LIG  191   6.542   5.986   4.783
    1AU     LIG  192   6.779   6.304   4.532
    1AU     LIG  193   7.030   6.619   4.278
    1AU       S  194   6.466   5.661   6.185
    1AU     LIG  195   6.826   5.875   6.018
    1AU     LIG  196   7.263   6.072   6.054
    1AU     LIG  197   7.478   6.514   6.061
    1AU     LIG  198   7.722   6.775   6.366
    1AU    AUSL  199   6.220   5.399   5.893
    1AU    AUSL  200   6.157   5.076   6.202
    1AU     AUL  201   6.533   5.172   6.223
    1AU       S  202   6.359   5.475   5.946
    1AU     LIG  203   6.801   5.391   5.851
    1AU     LIG  204   7.251   5.578   5.863
    1AU     LIG  205   7.674   5.745   5.731
    1AU     LIG  206   8.054   5.479   5.575
    1AU       S  207   6.395   4.788   6.023
    1AU     LIG  208   6.796   4.640   6.122
    1AU     LIG  209   7.227   4.484   6.195
    1AU     LIG  210   7.661   4.402   6.310
    1AU     LIG  211   8.097   4.540   6.442
    1AU    AUSL  212   5.958   5.446   6.242
    1AU    AUSL  213   5.800   6.005   6.296
    1AU     AUL  214   6.089   5.884   6.303
    1AU       S  215   5.999   6.205   6.629
    1AU     LIG  216   6.385   6.240   6.886
    1AU     LIG  217   6.705   6.499   7.138
    1AU     LIG  218   6.871   6.937   7.265
    1AU     LIG  219   6.918   7.438   7.231
    1AU       S  220   6.274   5.492   6.382
    1AU     LIG  221   6.712   5.501   6.576
    1AU     LIG  222   7.115   5.597   6.357
    1AU     LIG  223   7.571   5.720   6.323
    1AU     LIG  224   7.992   5.868   6.524
    1AU    AUSL  225   4.567   5.862   6.030
    1AU    AUSL  226   4.639   5.656   6.430
    1AU     AUL  227   4.335   5.966   6.285
    1AU       S  228   4.496   5.800   6.678
    1AU     LIG  229   4.392   5.759   7.113
    1AU     LIG  230   4.178   6.123   7.329
    1AU     LIG  231   3.871   6.371   7.597
    1AU     LIG  232   3.565   6.450   7.958
    1AU       S  233   4.550   6.233   5.956
    1AU     LIG  234   4.077   6.159   5.882
    1AU     LIG  235   3.608   6.273   5.866
    1AU     LIG  236   3.195   6.515   5.867
    1AU     LIG  237   2.791   6.685   6.041
    1AU    AUSL  238   4.546   5.475   5.834
    1AU    AUSL  239   4.680   5.922   5.626
    1AU     AUL  240   4.366   5.799   5.702
    1AU       S  241   4.174   5.294   5.483
    1AU     LIG  242   3.858   5.656   5.570
    1AU     LIG  243   3.421   5.830   5.676
    1AU     LIG  244   3.105   6.137   5.505
    1AU     LIG  245   2.637   6.207   5.434
    1AU       S  246   4.502   6.172   5.441
    1AU     LIG  247   4.266   6.396   5.082
    1AU     LIG  248   4.236   6.704   4.741
    1AU     LIG  249   3.955   7.026   4.562
    1AU     LIG  250   3.623   7.325   4.733
    1AU    AUSL  251   4.315   5.517   6.208
    1AU    AUSL  252   4.288   5.153   5.905
    1AU     AUL  253   4.146   5.470   5.924
    1AU       S  254   4.078   5.070   6.161
    1AU     LIG  255   3.779   5.129   5.820
    1AU     LIG  256   3.385   4.900   5.704
    1AU     LIG  257   2.974   4.674   5.727
    1AU     LIG  258   2.568   4.813   5.639
    1AU       S  259   4.166   5.532   6.426
    1AU     LIG  260   3.744   5.524   6.230
    1AU     LIG  261   3.320   5.726   6.367
    1AU     LIG  262   2.881   5.935   6.392
    1AU     LIG  263   2.481   6.220   6.353
    1AU    AUSL  264   5.934   4.729   6.047
    1AU    AUSL  265   5.785   4.989   6.383
    1AU     AUL  266   6.120   4.881   6.424
    1AU       S  267   6.208   4.608   6.046
    1AU     LIG  268   6.471   4.342   5.799
    1AU     LIG  269   6.906   4.164   5.906
    1AU     LIG  270   7.356   4.006   6.035
    1AU     LIG  271   7.703   3.876   6.337
    1AU       S  272   5.999   4.457   6.492
    1AU     LIG  273   6.268   4.235   6.849
    1AU     LIG  274   6.517   4.009   7.186
    1AU     LIG  275   6.734   3.803   7.551
    1AU     LIG  276   7.050   3.891   7.907
    1AU    AUSL  277   5.949   5.092   5.815
    1AU    AUSL  278   5.835   4.633   5.643
    1AU     AUL  279   6.094   4.787   5.642
    1AU       S  280   6.442   4.968   5.828
    1AU     LIG  281   6.753   4.734   5.621
    1AU     LIG  282   7.167   4.543   5.687
    1AU     LIG  283   7.592   4.386   5.776
    1AU     LIG  284   8.000   4.346   5.565
    1AU       S  285   6.016   4.469   5.317
    1AU     LIG  286   6.153   4.048   5.236
    1AU     LIG  287   6.317   3.654   5.034
    1AU     LIG  288   6.595   3.342   4.817
    1AU     LIG  289   6.796   2.913   4.933
    1AU    AUSL  290   4.486   4.793   6.060
    1AU    AUSL  291   4.594   5.033   5.643
    1AU     AUL  292   4.242   4.862   5.765
    1AU       S  293   4.421   4.865   5.344
    1AU     LIG  294   4.088   4.538   5.155
    1AU     LIG  295   3.748   4.229   5.012
    1AU     LIG  296   3.393   4.025   4.767
    1AU     LIG  297   3.029   4.092   4.470
    1AU       S  298   4.048   4.821   6.186
    1AU     LIG  299   3.718   4.630   5.987
    1AU     LIG  300   3.276   4.553   6.122
    1AU     LIG  301   2.904   4.377   6.368
    1AU     LIG  302   2.559   4.018   6.340
    1AU    AUSL  303   4.561   5.182   6.241
    1AU    AUSL  304   4.805   4.810   6.338
    1AU     AUL  305   4.454   4.808   6.394
    1AU       S  306   4.495   4.528   6.739
    1AU     LIG  307   4.293   4.116   6.641
    1AU     LIG  308   3.974   3.739   6.724
    1AU     LIG  309   3.682   3.424   6.966
    1AU     LIG  310   3.249   3.297   7.142
    1AU       S  311   4.088   5.074   6.332
    1AU     LIG  312   3.585   5.031   6.284
    1AU     LIG  313   3.143   5.046   6.131
    1AU     LIG  314   2.744   4.865   6.153
    1AU     LIG  315   2.432   4.657   6.423
    1AU    AUSL  316   5.234   6.112   6.468
    1AU    AUSL  317   4.819   6.033   6.327
    1AU     AUL  318   5.029   6.126   6.709
    1AU       S  319   4.660   6.258   6.461
    1AU     LIG  320   4.342   6.438   6.815
    1AU     LIG  321   4.118   6.642   7.197
    1AU     LIG  322   3.925   7.045   7.395
    1AU     LIG  323   3.687   7.481   7.369
    1AU       S  324   5.268   6.443   6.429
    1AU     LIG  325   5.385   6.481   6.839
    1AU     LIG  326   5.492   6.890   7.007
    1AU     LIG  327   5.615   7.319   7.138
    1AU     LIG  328   5.667   7.674   7.442
    1AU    AUSL  329   5.061   6.251   6.060
    1AU    AUSL  330   5.411   6.207   5.712
    1AU     AUL  331   5.258   6.555   5.859
    1AU       S  332   5.083   6.513   6.282
    1AU     LIG  333   5.297   6.923   6.511
    1AU     LIG  334   5.349   7.365   6.686
    1AU     LIG  335   5.223   7.836   6.700
    1AU     LIG  336   4.882   8.152   6.839
    1AU       S  337   5.164   6.371   5.460
    1AU     LIG  338   5.522   6.712   5.456
    1AU     LIG  339   5.726   7.175   5.380
    1AU     LIG  340   5.979   7.620   5.316
    1AU     LIG  341   6.160   8.084   5.246
    1AU    AUSL  342   5.436   6.029   6.098
    1AU    AUSL  343   5.481   5.776   6.482
    1AU     AUL  344   5.556   6.106   6.534
    1AU       S  345   5.838   6.039   6.879
    1AU     LIG  346   6.119   5.980   7.238
    1AU     LIG  347   6.423   6.230   7.475
    1AU     LIG  348   6.711   6.536   7.693
    1AU     LIG  349   6.767   6.769   8.103
    1AU       S  350   5.514   6.387   6.185
    1AU     LIG  351   5.737   6.639   6.504
    1AU     LIG  352   5.799   7.098   6.652
    1AU     LIG  353   5.831   7.567   6.740
    1AU     LIG  354   5.854   8.020   6.771
    1AU    AUSL  355   5.200   4.646   6.457
    1AU    AUSL  356   5.609   4.609   6.291
    1AU     AUL  357   5.414   4.494   6.672
    1AU       S  358   5.203   4.121   6.520
    1AU     LIG  359   4.985   3.969   6.858
    1AU     LIG  360   4.871   3.523   6.946
    1AU     LIG  361   4.880   3.044   6.947
    1AU     LIG  362   4.702   2.640   7.154
    1AU       S  363   5.762   4.377   6.351
    1AU     LIG  364   5.889   3.956   6.628
    1AU     LIG  365   6.240   3.692   6.885
    1AU     LIG  366   6.628   3.481   7.115
    1AU     LIG  367   6.869   3.040   7.128
    1AU    AUSL  368   4.872   4.432   6.192
    1AU    AUSL  369   4.924   4.750   6.757
    1AU     AUL  370   4.895   4.470   6.538
    1AU       S  371   4.979   4.054   6.351
    1AU     LIG  372   4.691   3.731   6.503
    1AU     LIG  373   4.582   3.267   6.576
    1AU     LIG  374   4.488   2.807   6.691
    1AU     LIG  375   4.587   2.351   6.728
    1AU       S  376   4.708   4.660   6.934
    1AU     LIG  377   4.583   4.213   7.091
    1AU     LIG  378   4.175   3.978   7.130
    1AU     LIG  379   3.955   3.640   7.373
    1AU     LIG  380   4.031   3.431   7.795
    1AU    AUSL  381   5.297   4.370   6.140
    1AU    AUSL  382   5.051   4.592   5.836
    1AU     AUL  383   4.935   4.260   5.941
    1AU       S  384   5.294   4.160   5.700
    1AU     LIG  385   4.900   3.849   5.654
    1AU     LIG  386   4.727   3.384   5.589
    1AU     LIG  387   4.743   2.897   5.478
    1AU     LIG  388   4.610   2.491   5.249
    1AU       S  389   5.304   4.159   6.260
    1AU     LIG  390   5.297   3.675   6.301
    1AU     LIG  391   5.136   3.302   6.546
    1AU     LIG  392   5.347   2.892   6.685
    1AU     LIG  393   5.769   2.641   6.665
    1AU    AUSL  394   5.263   5.925   5.381
    1AU    AUSL  395   5.693   5.898   5.742
    1AU     AUL  396   5.559   6.127   5.392
    1AU       S  397   5.149   6.309   5.248
    1AU     LIG  398   5.471   6.486   5.011
    1AU     LIG  399   5.515   6.948   4.956
    1AU     LIG  400   5.494   7.305   4.637
    1AU     LIG  401   5.563   7.599   4.262
    1AU       S  402   5.940   6.099   5.634
    1AU     LIG  403   6.391   6.284   5.419
    1AU     LIG  404   6.564   6.463   4.994
    1AU     LIG  405   6.802   6.790   4.715
    1AU     LIG  406   7.170   7.114   4.647
    1AU    AUSL  407   5.067   5.954   5.767
    1AU    AUSL  408   4.966   5.634   5.466
    1AU     AUL  409   4.911   5.934   5.334
    1AU       S  410   4.952   6.318   5.592
    1AU     LIG  411   5.011   6.826   5.482
    1AU     LIG  412   5.196   7.246   5.333
    1AU     LIG  413   5.045   7.718   5.309
    1AU     LIG  414   4.776   8.044   5.080
    1AU       S  415   4.476   5.963   5.210
    1AU     LIG  416   4.586   6.091   4.804
    1AU     LIG  417   4.454   6.349   4.427
    1AU     LIG  418   4.157   6.669   4.227
    1AU     LIG  419   4.154   7.119   4.050
    1AU    AUSL  420   5.243   4.547   5.445
    1AU    AUSL  421   4.650   4.599   5.723
    1AU     AUL  422   4.907   4.432   5.492
    1AU       S  423   4.465   4.572   5.484
    1AU     LIG  424   4.405   4.159   5.374
    1AU     LIG  425   4.040   3.872   5.240
    1AU     LIG  426   3.682   3.637   5.013
    1AU     LIG  427   3.499   3.188   4.886
    1AU       S  428   5.287   4.137   5.480
    1AU     LIG  429   5.208   3.693   5.283
    1AU     LIG  430   4.977   3.270   5.151
    1AU     LIG  431   4.819   2.861   4.945
    1AU     LIG  432   4.747   2.574   4.556
    1AU    AUSL  433   5.473   4.582   5.829
    1AU    AUSL  434   5.509   4.869   5.470
    1AU     AUL  435   5.577   4.494   5.454
    1AU       S  436   5.532   4.179   5.786
    1AU     LIG  437   5.387   3.692   5.786
    1AU     LIG  438   5.230   3.277   5.605
    1AU     LIG  439   5.240   2.857   5.369
    1AU     LIG  440   5.389   2.404   5.406
    1AU       S  441   5.772   4.671   5.089
    1AU     LIG  442   5.714   4.233   4.996
    1AU     LIG  443   5.967   3.917   4.757
    1AU     LIG  444   6.237   3.637   4.487
    1AU     LIG  445   6.415   3.583   4.050
    2POPC   NC3  446  10.078   5.929   8.078
    2POPC   PO4  447  10.492   5.389   7.973
    2POPC   GL1  448  10.328   5.440   7.656
    2POPC   GL2  449  10.020   5.580   7.710
    2POPC   C1A  450  10.193   5.334   7.278
    2POPC   D2A  451  10.387   5.382   6.896
    2POPC   C3A  452  10.178   5.456   6.491
    2POPC   C4A  453  10.144   5.441   6.010
    2POPC   C1B  454  10.278   5.844   7.388
    2POPC   C2B  455  10.294   5.912   6.969
    2POPC   C3B  456  10.068   5.952   6.613
    2POPC   C4B  457  10.268   5.880   6.235
    3POPC   NC3  458   0.454   9.286   8.331
    3POPC   PO4  459   0.675   9.636   7.863
    3POPC   GL1  460   0.502   9.508   7.503
    3POPC   GL2  461   0.351   9.225   7.561
    3POPC   C1A  462   0.253   9.563   7.176
    3POPC   D2A  463   0.386   9.699   6.809
    3POPC   C3A  464   0.086   9.673   6.522
    3POPC   C4A  465   0.263   9.718   6.160
    3POPC   C1B  466   0.284   9.027   7.176
    3POPC   C2B  467   0.551   9.114   6.811
    3POPC   C3B  468   0.437   9.310   6.421
    3POPC   C4B  469   0.491   9.316   5.932
    4POPC   NC3  470   9.381   7.419   8.182
    4POPC   PO4  471   8.891   7.008   8.041
    4POPC   GL1  472   9.118   6.991   7.709
    4POPC   GL2  473   9.456   7.104   7.759
    4POPC   C1A  474   9.173   7.152   7.330
    4POPC   D2A  475   9.254   7.001   6.946
    4POPC   C3A  476   9.202   7.189   6.567
    4POPC   C4A  477   9.202   7.079   6.157
    4POPC   C1B  478   9.704   7.162   7.378
    4POPC   C2B  479   9.793   6.995   6.977
    4POPC   C3B  480   9.854   7.235   6.606
    4POPC   C4B  481   9.611   7.414   6.261
    5POPC   NC3  482   5.888   8.551   8.059
    5POPC   PO4  483   5.695   9.227   8.132
    5POPC   GL1  484   5.883   8.972   7.790
    5POPC   GL2  485   5.592   8.939   7.533
    5POPC   C1A  486   6.060   9.009   7.382
    5POPC   D2A  487   5.810   9.227   7.025
    5POPC   C3A  488   5.750   9.056   6.586
    5POPC   C4A  489   5.700   8.689   6.310
    5POPC   C1B  490   5.727   8.711   7.144
    5POPC   C2B  491   5.537   8.500   6.782
    5POPC   C3B  492   5.524   8.207   6.426
    5POPC   C4B  493   5.663   8.251   5.993
    6POPC   NC3  494   6.468   1.894   8.105
    6POPC   PO4  495   6.049   2.381   7.986
    6POPC   GL1  496   6.421   2.157   7.660
    6POPC   GL2  497   6.408   1.778   7.618
    6POPC   C1A  498   6.530   2.054   7.182
    6POPC   D2A  499   6.326   2.222   6.786
    6POPC   C3A  500   6.591   2.310   6.405
    6POPC   C4A  501   6.436   2.256   5.988
    6POPC   C1B  502   6.668   1.525   7.337
    6POPC   C2B  503   6.748   1.629   6.930
    6POPC   C3B  504   6.647   1.854   6.623
    6POPC   C4B  505   6.411   1.837   6.266
    7POPC   NC3  506   8.779   5.838   7.879
    7POPC   PO4  507   8.822   5.252   8.112
    7POPC   GL1  508   8.676   5.306   7.680
    7POPC   GL2  509   8.480   5.580   7.561
    7POPC   C1A  510   8.903   5.458   7.322
    7POPC   D2A  511   8.990   5.616   6.908
    7POPC   C3A  512   8.881   5.548   6.493
    7POPC   C4A  513   8.920   5.644   6.077
    7POPC   C1B  514   8.478   5.639   7.116
    7POPC   C2B  515   8.468   5.407   6.732
    7POPC   C3B  516   8.403   5.579   6.304
    7POPC   C4B  517   8.079   5.690   6.035
    8POPC   NC3  518   3.707   9.679   8.058
    8POPC   PO4  519   3.041   9.713   8.170
    8POPC   GL1  520   3.270   9.709   7.778
    8POPC   GL2  521   3.369   9.349   7.789
    8POPC   C1A  522   3.337   9.828   7.343
    8POPC   D2A  523   3.169   9.728   6.899
    8POPC   C3A  524   3.468   9.578   6.577
    8POPC   C4A  525   3.460   9.432   6.152
    8POPC   C1B  526   3.444   9.183   7.387
    8POPC   C2B  527   3.448   9.250   6.964
    8POPC   C3B  528   3.563   9.055   6.554
    8POPC   C4B  529   3.759   8.951   6.165
    9POPC   NC3  530   2.607   7.857   8.413
    9POPC   PO4  531   3.041   8.211   8.089
    9POPC   GL1  532   2.675   7.979   7.879
    9POPC   GL2  533   2.450   8.190   7.702
    9POPC   C1A  534   2.592   7.777   7.432
    9POPC   D2A  535   2.840   7.655   7.045
    9POPC   C3A  536   2.668   7.716   6.625
    9POPC   C4A  537   2.492   7.521   6.256
    9POPC   C1B  538   2.877   8.210   7.447
    9POPC   C2B  539   3.007   8.145   7.026
    9POPC   C3B  540   3.004   8.094   6.561
    9POPC   C4B  541   2.793   7.966   6.169
   10POPC   NC3  542   8.470   7.009   8.224
   10POPC   PO4  543   8.527   7.603   8.428
   10POPC   GL1  544   8.648   7.460   7.926
   10POPC   GL2  545   8.530   7.134   7.718
   10POPC   C1A  546   8.745   7.498   7.409
   10POPC   D2A  547   8.593   7.679   6.967
   10POPC   C3A  548   8.445   7.490   6.532
   10POPC   C4A  549   8.429   7.479   6.054
   10POPC   C1B  550   8.688   6.996   7.286
   10POPC   C2B  551   8.752   7.126   6.823
   10POPC   C3B  552   8.724   7.040   6.347
   10POPC   C4B  553   8.788   7.164   5.882
   11POPC   NC3  554   6.107   9.082   8.251
   11POPC   PO4  555   6.292   8.404   8.200
   11POPC   GL1  556   6.320   8.631   7.771
   11POPC   GL2  557   6.663   8.733   7.694
   11POPC   C1A  558   6.340   8.609   7.289
   11POPC   D2A  559   6.668   8.448   6.988
   11POPC   C3A  560   6.587   8.515   6.539
   11POPC   C4A  561   6.436   8.545   6.100
   11POPC   C1B  562   6.739   8.904   7.301
   11POPC   C2B  563   6.548   8.955   6.904
   11POPC   C3B  564   6.596   9.013   6.472
   11POPC   C4B  565   6.173   8.982   6.238
   12POPC   NC3  566   4.992   1.134   8.038
   12POPC   PO4  567   5.275   1.759   8.105
   12POPC   GL1  568   4.921   1.571   7.774
   12POPC   GL2  569   4.933   1.255   7.563
   12POPC   C1A  570   4.689   1.604   7.322
   12POPC   D2A  571   4.926   1.504   6.921
   12POPC   C3A  572   4.798   1.499   6.478
   12POPC   C4A  573   4.844   1.463   5.997
   12POPC   C1B  574   4.946   1.034   7.179
   12POPC   C2B  575   4.905   1.041   6.735
   12POPC   C3B  576   5.041   1.071   6.319
   12POPC   C4B  577   4.640   1.017   6.149
   13POPC   NC3  578   0.195   9.542   7.907
   13POPC   PO4  579   9.956   9.448   8.084
   13POPC   GL1  580  10.190   9.578   7.746
   13POPC   GL2  581  10.309   9.235   7.681
   13POPC   C1A  582  10.143   9.841   7.369
   13POPC   D2A  583  10.327   9.791   6.955
   13POPC   C3A  584  10.107   9.882   6.566
   13POPC   C4A  585  10.216   9.674   6.163
   13POPC   C1B  586  10.300   9.335   7.266
   13POPC   C2B  587  10.444   9.271   6.848
   13POPC   C3B  588  10.122   9.358   6.562
   13POPC   C4B  589   9.989   9.226   6.168
   14POPC   NC3  590   1.610   5.541   8.348
   14POPC   PO4  591   0.949   5.557   8.208
   14POPC   GL1  592   1.108   5.587   7.751
   14POPC   GL2  593   1.335   5.330   7.593
   14POPC   C1A  594   1.119   5.826   7.352
   14POPC   D2A  595   1.255   5.689   6.914
   14POPC   C3A  596   1.122   5.926   6.527
   14POPC   C4A  597   1.138   5.709   6.139
   14POPC   C1B  598   0.929   5.366   7.319
   14POPC   C2B  599   0.802   5.397   6.855
   14POPC   C3B  600   0.846   5.370   6.386
   14POPC   C4B  601   0.870   5.314   5.908
   15POPC   NC3  602   8.586   3.362   8.004
   15POPC   PO4  603   8.705   3.987   7.780
   15POPC   GL1  604   8.682   3.653   7.465
   15POPC   GL2  605   8.685   3.267   7.499
   15POPC   C1A  606   8.820   3.531   7.039
   15POPC   D2A  607   8.599   3.417   6.658
   15POPC   C3A  608   8.863   3.292   6.348
   15POPC   C4A  609   8.812   3.544   6.007
   15POPC   C1B  610   8.356   3.382   7.168
   15POPC   C2B  611   8.204   3.680   6.855
   15POPC   C3B  612   8.108   3.533   6.440
   15POPC   C4B  613   8.357   3.350   6.128
   16POPC   NC3  614   0.500   2.756   8.057
   16POPC   PO4  615   0.326   2.102   8.173
   16POPC   GL1  616   0.269   2.374   7.781
   16POPC   GL2  617   0.123   2.708   7.718
   16POPC   C1A  618   0.092   2.402   7.333
   16POPC   D2A  619   0.153   2.645   6.935
   16POPC   C3A  620   0.440   2.530   6.581
   16POPC   C4A  621   0.117   2.447   6.265
   16POPC   C1B  622   0.411   2.811   7.351
   16POPC   C2B  623   0.464   3.054   6.964
   16POPC   C3B  624   0.323   3.033   6.532
   16POPC   C4B  625   0.460   2.848   6.151
   17POPC   NC3  626   8.908   7.848   8.329
   17POPC   PO4  627   8.572   8.242   7.956
   17POPC   GL1  628   8.654   7.966   7.639
   17POPC   GL2  629   8.984   7.805   7.735
   17POPC   C1A  630   8.605   8.226   7.266
   17POPC   D2A  631   8.355   8.286   6.919
   17POPC   C3A  632   8.468   8.050   6.608
   17POPC   C4A  633   8.604   8.184   6.206
   17POPC   C1B  634   9.042   7.945   7.293
   17POPC   C2B  635   8.930   8.122   6.872
   17POPC   C3B  636   8.944   7.913   6.474
   17POPC   C4B  637   8.912   7.502   6.277
   18POPC   NC3  638   2.800  10.071   8.363
   18POPC   PO4  639   3.284  10.261   7.912
   18POPC   GL1  640   3.606  10.228   7.624
   18POPC   GL2  641   3.913  10.086   7.757
   18POPC   C1A  642   3.579  10.294   7.189
   18POPC   D2A  643   3.431  10.197   6.766
   18POPC   C3A  644   3.595  10.418   6.381
   18POPC   C4A  645   3.401  10.332   5.945
   18POPC   C1B  646   3.864   9.862   7.373
   18POPC   C2B  647   3.695   9.807   6.982
   18POPC   C3B  648   3.817   9.939   6.579
   18POPC   C4B  649   3.556   9.939   6.226
   19POPC   NC3  650   9.658   8.300   8.067
   19POPC   PO4  651   9.354   7.809   8.422
   19POPC   GL1  652   9.491   7.812   7.902
   19POPC   GL2  653   9.440   8.071   7.669
   19POPC   C1A  654   9.390   7.603   7.462
   19POPC   D2A  655   9.169   7.543   7.008
   19POPC   C3A  656   9.367   7.661   6.612
   19POPC   C4A  657   9.314   7.789   6.145
   19POPC   C1B  658   9.556   8.181   7.304
   19POPC   C2B  659   9.436   8.041   6.933
   19POPC   C3B  660   9.455   8.144   6.495
   19POPC   C4B  661   9.710   8.100   6.124
   20POPC   NC3  662   8.391   9.355   8.229
   20POPC   PO4  663   8.925   9.060   8.038
   20POPC   GL1  664   8.627   9.102   7.692
   20POPC   GL2  665   8.452   9.425   7.672
   20POPC   C1A  666   8.595   9.172   7.226
   20POPC   D2A  667   8.754   9.120   6.825
   20POPC   C3A  668   8.564   9.121   6.457
   20POPC   C4A  669   8.791   9.124   6.087
   20POPC   C1B  670   8.880   9.513   7.444
   20POPC   C2B  671   8.926   9.574   6.995
   20POPC   C3B  672   8.621   9.603   6.668
   20POPC   C4B  673   8.658   9.585   6.245
   21POPC   NC3  674   9.498   4.591   8.537
   21POPC   PO4  675   9.407   4.476   7.876
   21POPC   GL1  676   9.491   4.774   7.609
   21POPC   GL2  677   9.516   5.059   7.795
   21POPC   C1A  678   9.481   4.809   7.163
   21POPC   D2A  679   9.188   4.745   6.857
   21POPC   C3A  680   9.331   4.670   6.452
   21POPC   C4A  681   9.051   4.788   6.172
   21POPC   C1B  682   9.669   5.247   7.405
   21POPC   C2B  683   9.386   5.330   7.079
   21POPC   C3B  684   9.231   5.225   6.686
   21POPC   C4B  685   9.393   5.174   6.307
   22POPC   NC3  686   0.856   0.896   8.143
   22POPC   PO4  687   1.418   0.770   8.025
   22POPC   GL1  688   1.175   0.909   7.685
   22POPC   GL2  689   1.039   1.232   7.780
   22POPC   C1A  690   1.195   1.074   7.263
   22POPC   D2A  691   1.391   1.094   6.887
   22POPC   C3A  692   1.206   0.887   6.573
   22POPC   C4A  693   1.166   1.082   6.202
   22POPC   C1B  694   1.291   1.495   7.509
   22POPC   C2B  695   1.247   1.576   7.069
   22POPC   C3B  696   1.083   1.455   6.667
   22POPC   C4B  697   1.391   1.513   6.370
   23POPC   NC3  698   6.865   8.742   8.152
   23POPC   PO4  699   7.334   9.242   8.137
   23POPC   GL1  700   7.107   9.036   7.789
   23POPC   GL2  701   7.224   8.718   7.723
   23POPC   C1A  702   7.211   9.063   7.360
   23POPC   D2A  703   7.189   8.785   7.008
   23POPC   C3A  704   7.275   8.897   6.577
   23POPC   C4A  705   7.027   8.816   6.202
   23POPC   C1B  706   7.017   8.468   7.398
   23POPC   C2B  707   7.148   8.255   7.028
   23POPC   C3B  708   7.084   8.427   6.624
   23POPC   C4B  709   6.929   8.332   6.204
   24POPC   NC3  710   0.066   6.413   8.276
   24POPC   PO4  711   9.941   6.391   8.114
   24POPC   GL1  712   9.930   6.447   7.682
   24POPC   GL2  713  10.184   6.237   7.667
   24POPC   C1A  714   9.804   6.324   7.238
   24POPC   D2A  715   9.964   6.513   6.819
   24POPC   C3A  716   9.749   6.356   6.465
   24POPC   C4A  717   9.802   6.043   6.170
   24POPC   C1B  718  10.299   6.377   7.254
   24POPC   C2B  719  10.451   6.395   6.819
   24POPC   C3B  720  10.298   6.373   6.384
   24POPC   C4B  721  10.423   6.590   6.003
   25POPC   NC3  722   5.344   0.358   8.219
   25POPC   PO4  723   4.623   0.169   8.222
   25POPC   GL1  724   4.739   0.395   7.809
   25POPC   GL2  725   4.930   0.710   7.718
   25POPC   C1A  726   4.949   0.264   7.402
   25POPC   D2A  727   5.115   0.368   7.014
   25POPC   C3A  728   4.947   0.101   6.695
   25POPC   C4A  729   5.024   0.146   6.247
   25POPC   C1B  730   4.647   0.661   7.356
   25POPC   C2B  731   4.656   0.621   6.901
   25POPC   C3B  732   4.892   0.581   6.509
   25POPC   C4B  733   4.954   0.620   6.063
   26POPC   NC3  734   5.877   1.202   8.158
   26POPC   PO4  735   5.372   0.784   7.978
   26POPC   GL1  736   5.379   0.994   7.560
   26POPC   GL2  737   5.443   1.355   7.656
   26POPC   C1A  738   5.445   1.123   7.091
   26POPC   D2A  739   5.787   1.239   6.754
   26POPC   C3A  740   5.611   1.045   6.356
   26POPC   C4A  741   5.403   0.852   5.999
   26POPC   C1B  742   5.685   1.510   7.273
   26POPC   C2B  743   5.499   1.683   6.893
   26POPC   C3B  744   5.450   1.547   6.482
   26POPC   C4B  745   5.826   1.476   6.227
   27POPC   NC3  746   9.403   5.168   8.283
   27POPC   PO4  747   9.630   5.828   8.228
   27POPC   GL1  748   9.496   5.772   7.807
   27POPC   GL2  749   9.710   6.002   7.689
   27POPC   C1A  750   9.289   5.765   7.383
   27POPC   D2A  751   9.456   5.839   6.947
   27POPC   C3A  752   9.340   5.748   6.541
   27POPC   C4A  753   9.316   6.095   6.289
   27POPC   C1B  754   9.790   5.782   7.317
   27POPC   C2B  755   9.891   5.560   6.960
   27POPC   C3B  756   9.722   5.344   6.660
   27POPC   C4B  757   9.729   5.558   6.275
   28POPC   NC3  758   5.280   9.117   7.911
   28POPC   PO4  759   5.658   9.712   7.988
   28POPC   GL1  760   5.517   9.493   7.686
   28POPC   GL2  761   5.806   9.407   7.575
   28POPC   C1A  762   5.368   9.326   7.285
   28POPC   D2A  763   5.190   9.475   6.907
   28POPC   C3A  764   5.327   9.354   6.510
   28POPC   C4A  765   5.409   9.575   6.152
   28POPC   C1B  766   5.772   9.700   7.297
   28POPC   C2B  767   5.597   9.806   6.923
   28POPC   C3B  768   5.738   9.636   6.549
   28POPC   C4B  769   5.940   9.472   6.221
   29POPC   NC3  770   9.681   2.571   8.045
   29POPC   PO4  771   9.758   3.223   8.086
   29POPC   GL1  772   9.579   2.952   7.733
   29POPC   GL2  773   9.237   2.771   7.693
   29POPC   C1A  774   9.605   2.716   7.355
   29POPC   D2A  775   9.268   2.798   7.056
   29POPC   C3A  776   9.419   2.857   6.663
   29POPC   C4A  777   9.658   2.642   6.337
   29POPC   C1B  778   9.214   2.396   7.381
   29POPC   C2B  779   9.110   2.322   6.943
   29POPC   C3B  780   9.266   2.368   6.528
   29POPC   C4B  781   9.293   2.383   6.088
   30POPC   NC3  782   2.700   3.439   8.504
   30POPC   PO4  783   2.294   3.302   8.158
   30POPC   GL1  784   2.330   3.473   7.754
   30POPC   GL2  785   2.343   3.159   7.593
   30POPC   C1A  786   2.574   3.548   7.354
   30POPC   D2A  787   2.725   3.345   6.977
   30POPC   C3A  788   2.589   3.473   6.549
   30POPC   C4A  789   2.435   3.471   6.122
   30POPC   C1B  790   2.805   3.084   7.463
   30POPC   C2B  791   2.948   2.891   7.064
   30POPC   C3B  792   2.960   3.032   6.634
   30POPC   C4B  793   3.150   3.239   6.275
   31POPC   NC3  794   4.644  10.159   8.362
   31POPC   PO4  795   4.154   9.816   8.124
   31POPC   GL1  796   4.447   9.937   7.808
   31POPC   GL2  797   4.396  10.258   7.680
   31POPC   C1A  798   4.420   9.872   7.344
   31POPC   D2A  799   4.180   9.945   6.956
   31POPC   C3A  800   4.312   9.811   6.561
   31POPC   C4A  801   4.450   9.945   6.161
   31POPC   C1B  802   4.121  10.308   7.319
   31POPC   C2B  803   3.972  10.397   6.898
   31POPC   C3B  804   4.159  10.309   6.517
   31POPC   C4B  805   4.081   0.023   6.179
   32POPC   NC3  806   2.814   5.313   8.600
   32POPC   PO4  807   2.353   5.226   8.155
   32POPC   GL1  808   2.421   5.342   7.656
   32POPC   GL2  809   2.424   5.716   7.619
   32POPC   C1A  810   2.584   5.446   7.205
   32POPC   D2A  811   2.694   5.631   6.794
   32POPC   C3A  812   2.867   5.420   6.389
   32POPC   C4A  813   3.096   5.521   5.968
   32POPC   C1B  814   2.449   5.953   7.200
   32POPC   C2B  815   2.280   5.950   6.764
   32POPC   C3B  816   2.417   5.717   6.380
   32POPC   C4B  817   2.387   5.887   5.942
   33POPC   NC3  818   5.651  10.167   8.126
   33POPC   PO4  819   6.281  10.083   8.018
   33POPC   GL1  820   5.960  10.092   7.652
   33POPC   GL2  821   5.584  10.096   7.645
   33POPC   C1A  822   5.808  10.185   7.221
   33POPC   D2A  823   5.960  10.332   6.872
   33POPC   C3A  824   5.807  10.133   6.550
   33POPC   C4A  825   5.939  10.096   6.154
   33POPC   C1B  826   5.297  10.317   7.343
   33POPC   C2B  827   5.415  10.300   6.909
   33POPC   C3B  828   5.382  10.404   6.496
   33POPC   C4B  829   5.460  10.248   6.113
   34POPC   NC3  830   6.123   9.655   7.892
   34POPC   PO4  831   6.540   9.121   8.109
   34POPC   GL1  832   6.444   9.232   7.667
   34POPC   GL2  833   6.765   9.355   7.531
   34POPC   C1A  834   6.227   9.463   7.296
   34POPC   D2A  835   6.103   9.628   6.909
   34POPC   C3A  836   6.201   9.323   6.615
   34POPC   C4A  837   6.457   9.412   6.211
   34POPC   C1B  838   6.657   9.650   7.186
   34POPC   C2B  839   6.606   9.566   6.770
   34POPC   C3B  840   6.758   9.745   6.444
   34POPC   C4B  841   6.946   9.806   6.078
   35POPC   NC3  842   0.558   1.806   7.881
   35POPC   PO4  843  10.476   1.607   7.960
   35POPC   GL1  844   0.121   1.648   7.605
   35POPC   GL2  845   0.171   1.938   7.557
   35POPC   C1A  846   0.303   1.552   7.252
   35POPC   D2A  847   0.473   1.670   6.919
   35POPC   C3A  848   0.535   1.521   6.574
   35POPC   C4A  849   0.406   1.685   6.201
   35POPC   C1B  850   0.466   2.051   7.292
   35POPC   C2B  851   0.343   2.163   6.927
   35POPC   C3B  852   0.276   2.039   6.542
   35POPC   C4B  853   0.562   2.162   6.194
   36POPC   NC3  854   3.456   0.981   8.252
   36POPC   PO4  855   3.130   1.405   7.930
   36POPC   GL1  856   3.386   1.170   7.671
   36POPC   GL2  857   3.538   0.832   7.626
   36POPC   C1A  858   3.273   1.132   7.268
   36POPC   D2A  859   3.015   1.086   6.938
   36POPC   C3A  860   3.280   1.213   6.599
   36POPC   C4A  861   3.170   1.351   6.196
   36POPC   C1B  862   3.778   1.028   7.302
   36POPC   C2B  863   3.841   1.251   6.967
   36POPC   C3B  864   3.853   1.100   6.605
   36POPC   C4B  865   3.659   1.175   6.239
   37POPC   NC3  866   9.809   4.292   8.022
   37POPC   PO4  867   0.015   4.390   8.012
   37POPC   GL1  868  10.315   4.425   7.673
   37POPC   GL2  869  10.086   4.159   7.614
   37POPC   C1A  870  10.395   4.433   7.275
   37POPC   D2A  871  10.123   4.481   6.960
   37POPC   C3A  872  10.360   4.488   6.633
   37POPC   C4A  873  10.236   4.639   6.232
   37POPC   C1B  874  10.285   3.928   7.290
   37POPC   C2B  875  10.145   3.969   6.900
   37POPC   C3B  876   9.967   4.199   6.564
   37POPC   C4B  877  10.138   4.129   6.168
   38POPC   NC3  878   8.071   0.433   8.607
   38POPC   PO4  879   7.598   0.788   8.328
   38POPC   GL1  880   7.761   0.598   7.903
   38POPC   GL2  881   7.844   0.224   7.817
   38POPC   C1A  882   7.807   0.613   7.440
   38POPC   D2A  883   7.878   0.822   7.055
   38POPC   C3A  884   7.737   0.652   6.689
   38POPC   C4A  885   7.935   0.689   6.312
   38POPC   C1B  886   8.039   0.168   7.382
   38POPC   C2B  887   7.771   0.223   6.992
   38POPC   C3B  888   7.925   0.167   6.542
   38POPC   C4B  889   7.928   0.250   6.061
   39POPC   NC3  890   8.175   1.756   8.191
   39POPC   PO4  891   7.554   1.541   8.225
   39POPC   GL1  892   7.684   1.580   7.798
   39POPC   GL2  893   7.916   1.837   7.762
   39POPC   C1A  894   7.686   1.620   7.351
   39POPC   D2A  895   7.854   1.729   6.954
   39POPC   C3A  896   7.612   1.672   6.591
   39POPC   C4A  897   7.662   1.776   6.193
   39POPC   C1B  898   7.966   2.049   7.374
   39POPC   C2B  899   8.202   2.120   6.993
   39POPC   C3B  900   8.026   2.049   6.580
   39POPC   C4B  901   7.945   2.175   6.176
   40POPC   NC3  902  10.289   7.846   7.977
   40POPC   PO4  903   9.817   7.378   8.010
   40POPC   GL1  904   9.897   7.584   7.619
   40POPC   GL2  905   9.926   7.941   7.620
   40POPC   C1A  906   9.807   7.665   7.164
   40POPC   D2A  907   9.940   7.947   6.832
   40POPC   C3A  908  10.026   7.806   6.404
   40POPC   C4A  909  10.407   7.781   6.110
   40POPC   C1B  910  10.265   7.851   7.324
   40POPC   C2B  911  10.445   8.024   6.961
   40POPC   C3B  912  10.399   8.144   6.532
   40POPC   C4B  913  10.211   8.262   6.136
   41POPC   NC3  914   2.174   4.768   8.058
   41POPC   PO4  915   1.685   5.271   7.993
   41POPC   GL1  916   1.892   5.266   7.582
   41POPC   GL2  917   1.849   4.927   7.532
   41POPC   C1A  918   2.218   5.101   7.244
   41POPC   D2A  919   2.194   4.963   6.792
   41POPC   C3A  920   2.394   5.164   6.412
   41POPC   C4A  921   2.268   4.976   6.002
   41POPC   C1B  922   1.751   5.202   7.107
   41POPC   C2B  923   1.688   5.112   6.679
   41POPC   C3B  924   1.913   4.892   6.348
   41POPC   C4B  925   1.777   4.660   5.958
   42POPC   NC3  926   7.630   8.753   8.185
   42POPC   PO4  927   8.227   8.456   8.337
   42POPC   GL1  928   8.081   8.507   7.843
   42POPC   GL2  929   7.756   8.638   7.700
   42POPC   C1A  930   8.070   8.399   7.357
   42POPC   D2A  931   7.886   8.500   6.930
   42POPC   C3A  932   7.955   8.268   6.532
   42POPC   C4A  933   8.148   8.373   6.129
   42POPC   C1B  934   7.664   8.836   7.280
   42POPC   C2B  935   7.820   8.990   6.858
   42POPC   C3B  936   7.762   8.818   6.447
   42POPC   C4B  937   7.517   8.945   6.078
   43POPC   NC3  938   1.175   5.947   8.092
   43POPC   PO4  939   1.255   6.626   8.126
   43POPC   GL1  940   1.357   6.304   7.800
   43POPC   GL2  941   1.067   6.237   7.656
   43POPC   C1A  942   1.483   6.164   7.391
   43POPC   D2A  943   1.259   6.211   7.018
   43POPC   C3A  944   1.461   6.353   6.660
   43POPC   C4A  945   1.497   6.174   6.266
   43POPC   C1B  946   1.178   6.608   7.419
   43POPC   C2B  947   1.190   6.809   7.035
   43POPC   C3B  948   1.230   6.903   6.604
   43POPC   C4B  949   1.155   6.597   6.308
   44POPC   NC3  950   1.466   3.182   8.369
   44POPC   PO4  951   0.891   3.012   8.024
   44POPC   GL1  952   1.156   3.201   7.685
   44POPC   GL2  953   1.261   3.567   7.734
   44POPC   C1A  954   1.225   3.318   7.257
   44POPC   D2A  955   1.161   3.591   6.921
   44POPC   C3A  956   1.246   3.318   6.623
   44POPC   C4A  957   1.058   3.274   6.256
   44POPC   C1B  958   1.474   3.758   7.356
   44POPC   C2B  959   1.669   3.538   7.009
   44POPC   C3B  960   1.604   3.682   6.612
   44POPC   C4B  961   1.412   3.617   6.231
   45POPC   NC3  962   1.189   9.530   7.967
   45POPC   PO4  963   0.737   8.966   8.155
   45POPC   GL1  964   0.853   9.155   7.726
   45POPC   GL2  965   1.004   9.468   7.520
   45POPC   C1A  966   0.792   9.114   7.272
   45POPC   D2A  967   1.053   9.359   6.982
   45POPC   C3A  968   0.906   9.445   6.603
   45POPC   C4A  969   0.888   9.172   6.257
   45POPC   C1B  970   1.341   9.593   7.332
   45POPC   C2B  971   1.433   9.727   6.922
   45POPC   C3B  972   1.419   9.504   6.572
   45POPC   C4B  973   1.242   9.498   6.197
   46POPC   NC3  974   8.856   2.460   8.392
   46POPC   PO4  975   8.428   2.974   8.221
   46POPC   GL1  976   8.468   2.818   7.755
   46POPC   GL2  977   8.754   2.555   7.750
   46POPC   C1A  978   8.347   2.867   7.285
   46POPC   D2A  979   8.564   2.974   6.907
   46POPC   C3A  980   8.397   2.955   6.481
   46POPC   C4A  981   8.631   2.916   6.104
   46POPC   C1B  982   8.769   2.600   7.289
   46POPC   C2B  983   8.603   2.461   6.890
   46POPC   C3B  984   8.768   2.602   6.506
   46POPC   C4B  985   9.094   2.810   6.275
   47POPC   NC3  986   0.448   8.591   8.085
   47POPC   PO4  987   0.058   9.143   8.116
   47POPC   GL1  988   0.138   8.815   7.748
   47POPC   GL2  989   0.520   8.751   7.601
   47POPC   C1A  990   0.095   8.554   7.371
   47POPC   D2A  991   0.208   8.467   6.952
   47POPC   C3A  992   0.308   8.712   6.612
   47POPC   C4A  993   0.131   8.553   6.215
   47POPC   C1B  994   0.644   8.650   7.158
   47POPC   C2B  995   0.790   8.428   6.784
   47POPC   C3B  996   0.859   8.692   6.429
   47POPC   C4B  997   0.511   8.864   6.165
   48POPC   NC3  998   2.816   0.533   8.091
   48POPC   PO4  999   2.647  10.419   8.069
   48POPC   GL1 1000   2.572   0.269   7.722
   48POPC   GL2 1001   2.651   0.638   7.609
   48POPC   C1A 1002   2.559   0.253   7.284
   48POPC   D2A 1003   2.581   0.526   6.948
   48POPC   C3A 1004   2.729   0.346   6.560
   48POPC   C4A 1005   2.517   0.374   6.172
   48POPC   C1B 1006   2.955   0.704   7.284
   48POPC   C2B 1007   3.080   0.598   6.854
   48POPC   C3B 1008   3.039   0.779   6.518
   48POPC   C4B 1009   2.918   0.678   6.179
   49POPC   NC3 1010   9.899   0.346   8.330
   49POPC   PO4 1011   9.819   0.880   7.872
   49POPC   GL1 1012   9.587   0.536   7.618
   49POPC   GL2 1013   9.199   0.476   7.651
   49POPC   C1A 1014   9.483   0.309   7.223
   49POPC   D2A 1015   9.126   0.154   6.937
   49POPC   C3A 1016   9.316   0.239   6.512
   49POPC   C4A 1017   9.662   0.193   6.185
   49POPC   C1B 1018   9.275   0.756   7.284
   49POPC   C2B 1019   9.206   0.651   6.890
   49POPC   C3B 1020   9.296   0.790   6.496
   49POPC   C4B 1021   9.428   0.627   6.157
   50POPC   NC3 1022   3.883   1.027   7.919
   50POPC   PO4 1023   4.528   1.163   8.171
   50POPC   GL1 1024   4.512   1.009   7.769
   50POPC   GL2 1025   4.323   0.717   7.778
   50POPC   C1A 1026   4.458   1.127   7.345
   50POPC   D2A 1027   4.397   1.363   6.968
   50POPC   C3A 1028   4.388   1.215   6.573
   50POPC   C4A 1029   4.364   1.466   6.180
   50POPC   C1B 1030   4.138   0.680   7.376
   50POPC   C2B 1031   4.193   0.867   6.986
   50POPC   C3B 1032   4.219   0.723   6.593
   50POPC   C4B 1033   4.139   0.954   6.219
   51POPC   NC3 1034   3.194   2.711   8.022
   51POPC   PO4 1035   3.763   2.744   8.092
   51POPC   GL1 1036   3.622   2.727   7.648
   51POPC   GL2 1037   3.403   2.424   7.630
   51POPC   C1A 1038   3.646   2.930   7.202
   51POPC   D2A 1039   3.438   2.981   6.786
   51POPC   C3A 1040   3.638   3.020   6.367
   51POPC   C4A 1041   3.539   3.155   5.924
   51POPC   C1B 1042   3.295   2.527   7.200
   51POPC   C2B 1043   3.151   2.529   6.776
   51POPC   C3B 1044   3.282   2.659   6.392
   51POPC   C4B 1045   3.200   2.357   6.055
   52POPC   NC3 1046   2.526   1.186   7.948
   52POPC   PO4 1047   2.866   1.610   8.359
   52POPC   GL1 1048   2.718   1.613   7.765
   52POPC   GL2 1049   2.845   1.255   7.555
   52POPC   C1A 1050   2.659   1.588   7.237
   52POPC   D2A 1051   2.895   1.546   6.803
   52POPC   C3A 1052   2.754   1.216   6.470
   52POPC   C4A 1053   2.546   1.347   6.066
   52POPC   C1B 1054   2.578   1.036   7.262
   52POPC   C2B 1055   2.354   0.992   6.874
   52POPC   C3B 1056   2.472   0.786   6.508
   52POPC   C4B 1057   2.442   0.864   6.091
   53POPC   NC3 1058   3.456   7.942   8.083
   53POPC   PO4 1059   3.909   8.460   8.006
   53POPC   GL1 1060   3.664   8.332   7.620
   53POPC   GL2 1061   3.343   8.146   7.648
   53POPC   C1A 1062   3.529   8.217   7.181
   53POPC   D2A 1063   3.416   8.304   6.772
   53POPC   C3A 1064   3.484   8.013   6.423
   53POPC   C4A 1065   3.298   8.080   6.019
   53POPC   C1B 1066   3.254   7.819   7.355
   53POPC   C2B 1067   3.357   7.783   6.906
   53POPC   C3B 1068   3.164   7.605   6.530
   53POPC   C4B 1069   3.163   7.602   6.087
   54POPC   NC3 1070   3.612   8.812   7.907
   54POPC   PO4 1071   3.045   8.985   8.000
   54POPC   GL1 1072   3.046   8.920   7.585
   54POPC   GL2 1073   3.242   8.639   7.578
   54POPC   C1A 1074   2.960   8.702   7.173
   54POPC   D2A 1075   3.243   8.786   6.869
   54POPC   C3A 1076   3.197   8.684   6.479
   54POPC   C4A 1077   3.231   8.950   6.132
   54POPC   C1B 1078   3.588   8.714   7.240
   54POPC   C2B 1079   3.788   8.653   6.801
   54POPC   C3B 1080   3.670   8.489   6.366
   54POPC   C4B 1081   3.514   8.563   5.918
   55POPC   NC3 1082   1.391   4.150   8.131
   55POPC   PO4 1083   0.979   4.582   8.116
   55POPC   GL1 1084   0.927   4.355   7.727
   55POPC   GL2 1085   1.086   4.054   7.725
   55POPC   C1A 1086   1.171   4.418   7.323
   55POPC   D2A 1087   1.278   4.596   6.898
   55POPC   C3A 1088   1.019   4.503   6.552
   55POPC   C4A 1089   1.089   4.414   6.132
   55POPC   C1B 1090   1.007   3.936   7.295
   55POPC   C2B 1091   1.327   4.077   6.945
   55POPC   C3B 1092   1.254   4.046   6.497
   55POPC   C4B 1093   0.928   3.750   6.385
   56POPC   NC3 1094   9.025   8.599   8.067
   56POPC   PO4 1095   9.613   8.820   8.064
   56POPC   GL1 1096   9.437   8.615   7.697
   56POPC   GL2 1097   9.194   8.856   7.641
   56POPC   C1A 1098   9.505   8.702   7.235
   56POPC   D2A 1099   9.281   8.521   6.841
   56POPC   C3A 1100   9.483   8.647   6.513
   56POPC   C4A 1101   9.481   8.560   6.093
   56POPC   C1B 1102   9.133   9.091   7.269
   56POPC   C2B 1103   9.243   9.017   6.857
   56POPC   C3B 1104   9.080   8.936   6.455
   56POPC   C4B 1105   9.295   9.029   6.067
   57POPC   NC3 1106   1.082   7.844   8.131
   57POPC   PO4 1107   1.400   8.305   7.820
   57POPC   GL1 1108   1.237   7.950   7.640
   57POPC   GL2 1109   0.852   7.908   7.679
   57POPC   C1A 1110   1.393   7.989   7.231
   57POPC   D2A 1111   1.493   7.742   6.917
   57POPC   C3A 1112   1.336   7.875   6.560
   57POPC   C4A 1113   1.531   7.849   6.209
   57POPC   C1B 1114   0.829   7.744   7.278
   57POPC   C2B 1115   0.967   7.934   6.924
   57POPC   C3B 1116   0.812   7.927   6.531
   57POPC   C4B 1117   0.971   7.949   6.166
   58POPC   NC3 1118   2.090   7.336   7.987
   58POPC   PO4 1119   1.475   7.598   8.042
   58POPC   GL1 1120   1.605   7.310   7.682
   58POPC   GL2 1121   1.918   7.305   7.519
   58POPC   C1A 1122   1.546   7.084   7.285
   58POPC   D2A 1123   1.757   7.298   6.926
   58POPC   C3A 1124   1.614   7.226   6.482
   58POPC   C4A 1125   1.668   6.790   6.267
   58POPC   C1B 1126   2.326   7.326   7.346
   58POPC   C2B 1127   2.384   7.411   6.921
   58POPC   C3B 1128   2.107   7.461   6.591
   58POPC   C4B 1129   2.057   7.215   6.208
   59POPC   NC3 1130   6.898   9.418   8.041
   59POPC   PO4 1131   7.261   9.884   8.026
   59POPC   GL1 1132   7.166   9.664   7.687
   59POPC   GL2 1133   7.421   9.422   7.667
   59POPC   C1A 1134   7.140   9.571   7.260
   59POPC   D2A 1135   6.939   9.265   6.991
   59POPC   C3A 1136   7.034   9.338   6.577
   59POPC   C4A 1137   6.970   9.311   6.164
   59POPC   C1B 1138   7.622   9.362   7.291
   59POPC   C2B 1139   7.431   9.298   6.925
   59POPC   C3B 1140   7.565   9.329   6.542
   59POPC   C4B 1141   7.460   9.437   6.189
   60POPC   NC3 1142   0.491   7.541   7.864
   60POPC   PO4 1143   0.631   8.168   8.072
   60POPC   GL1 1144   0.426   8.236   7.683
   60POPC   GL2 1145   0.197   7.950   7.629
   60POPC   C1A 1146   0.542   8.175   7.265
   60POPC   D2A 1147   0.450   8.031   6.876
   60POPC   C3A 1148   0.398   8.226   6.507
   60POPC   C4A 1149   0.619   8.340   6.177
   60POPC   C1B 1150   0.285   7.703   7.242
   60POPC   C2B 1151   0.519   7.547   6.858
   60POPC   C3B 1152   0.289   7.724   6.480
   60POPC   C4B 1153   0.446   7.888   6.074
   61POPC   NC3 1154   2.656   1.952   8.155
   61POPC   PO4 1155   2.059   2.196   8.291
   61POPC   GL1 1156   2.311   2.159   7.790
   61POPC   GL2 1157   2.651   2.120   7.672
   61POPC   C1A 1158   2.383   2.036   7.270
   61POPC   D2A 1159   2.578   1.930   6.816
   61POPC   C3A 1160   2.441   2.160   6.402
   61POPC   C4A 1161   2.325   2.196   5.909
   61POPC   C1B 1162   2.980   1.964   7.399
   61POPC   C2B 1163   3.102   2.049   6.963
   61POPC   C3B 1164   3.002   2.037   6.526
   61POPC   C4B 1165   2.750   1.711   6.341
   62POPC   NC3 1166   4.180   2.559   8.093
   62POPC   PO4 1167   4.593   3.053   7.918
   62POPC   GL1 1168   4.352   2.783   7.576
   62POPC   GL2 1169   4.107   2.497   7.590
   62POPC   C1A 1170   4.184   2.741   7.122
   62POPC   D2A 1171   3.977   2.988   6.785
   62POPC   C3A 1172   4.158   3.021   6.367
   62POPC   C4A 1173   4.000   2.939   5.966
   62POPC   C1B 1174   3.788   2.442   7.255
   62POPC   C2B 1175   3.699   2.551   6.816
   62POPC   C3B 1176   3.906   2.567   6.406
   62POPC   C4B 1177   4.344   2.514   6.270
   63POPC   NC3 1178   2.801   8.603   7.992
   63POPC   PO4 1179   2.301   9.086   8.122
   63POPC   GL1 1180   2.552   8.993   7.755
   63POPC   GL2 1181   2.604   8.655   7.548
   63POPC   C1A 1182   2.637   9.100   7.343
   63POPC   D2A 1183   2.521   8.888   6.990
   63POPC   C3A 1184   2.737   8.892   6.614
   63POPC   C4A 1185   2.597   8.890   6.210
   63POPC   C1B 1186   2.488   8.405   7.204
   63POPC   C2B 1187   2.651   8.417   6.797
   63POPC   C3B 1188   2.683   8.425   6.374
   63POPC   C4B 1189   3.007   8.488   6.064
   64POPC   NC3 1190   5.754   0.501   7.904
   64POPC   PO4 1191   5.266  10.433   8.036
   64POPC   GL1 1192   5.516   0.111   7.701
   64POPC   GL2 1193   5.386   0.454   7.565
   64POPC   C1A 1194   5.677   0.159   7.267
   64POPC   D2A 1195   5.578   0.254   6.826
   64POPC   C3A 1196   5.836   0.149   6.465
   64POPC   C4A 1197   5.792   0.118   6.006
   64POPC   C1B 1198   5.676   0.666   7.236
   64POPC   C2B 1199   5.611   0.747   6.787
   64POPC   C3B 1200   5.453   0.535   6.408
   64POPC   C4B 1201   5.838   0.603   6.204
   65POPC   NC3 1202   8.970   4.347   7.912
   65POPC   PO4 1203   9.521   4.110   8.345
   65POPC   GL1 1204   9.359   3.984   7.852
   65POPC   GL2 1205   9.633   3.882   7.667
   65POPC   C1A 1206   9.308   4.175   7.353
   65POPC   D2A 1207   9.458   4.313   6.933
   65POPC   C3A 1208   9.098   4.250   6.644
   65POPC   C4A 1209   9.193   4.097   6.251
   65POPC   C1B 1210   9.734   3.908   7.215
   65POPC   C2B 1211   9.670   3.828   6.767
   65POPC   C3B 1212   9.651   3.892   6.332
   65POPC   C4B 1213   9.648   4.332   6.173
   66POPC   NC3 1214   1.446  10.221   8.259
   66POPC   PO4 1215   0.882   0.040   8.147
   66POPC   GL1 1216   1.164  10.390   7.786
   66POPC   GL2 1217   1.218  10.028   7.761
   66POPC   C1A 1218   1.348  10.461   7.373
   66POPC   D2A 1219   1.314  10.219   6.958
   66POPC   C3A 1220   1.425  10.391   6.601
   66POPC   C4A 1221   1.330  10.371   6.202
   66POPC   C1B 1222   1.056  10.017   7.348
   66POPC   C2B 1223   0.932   9.874   6.912
   66POPC   C3B 1224   1.109   9.945   6.482
   66POPC   C4B 1225   1.141   9.948   6.013
   67POPC   NC3 1226  10.279   1.200   8.037
   67POPC   PO4 1227   0.530   1.218   8.126
   67POPC   GL1 1228   0.309   1.211   7.761
   67POPC   GL2 1229   0.567   1.344   7.624
   67POPC   C1A 1230   0.251   1.062   7.319
   67POPC   D2A 1231   0.058   1.236   6.947
   67POPC   C3A 1232   0.220   1.114   6.565
   67POPC   C4A 1233   0.266   0.973   6.145
   67POPC   C1B 1234   0.806   1.455   7.294
   67POPC   C2B 1235   0.760   1.189   6.958
   67POPC   C3B 1236   0.727   1.043   6.546
   67POPC   C4B 1237   0.720   1.288   6.172
   68POPC   NC3 1238   8.702   6.611   7.904
   68POPC   PO4 1239   8.436   6.065   7.677
   68POPC   GL1 1240   8.801   6.220   7.516
   68POPC   GL2 1241   8.957   6.568   7.468
   68POPC   C1A 1242   8.833   6.018   7.142
   68POPC   D2A 1243   8.610   5.940   6.723
   68POPC   C3A 1244   8.786   6.083   6.338
   68POPC   C4A 1245   8.976   6.159   5.938
   68POPC   C1B 1246   8.714   6.512   7.102
   68POPC   C2B 1247   8.652   6.457   6.687
   68POPC   C3B 1248   8.556   6.565   6.292
   68POPC   C4B 1249   8.403   6.866   5.958
   69POPC   NC3 1250   7.659   9.627   8.062
   69POPC   PO4 1251   8.036   9.066   8.144
   69POPC   GL1 1252   7.910   9.159   7.711
   69POPC   GL2 1253   7.943   9.513   7.662
   69POPC   C1A 1254   8.086   9.120   7.281
   69POPC   D2A 1255   8.258   9.280   6.862
   69POPC   C3A 1256   8.062   9.253   6.450
   69POPC   C4A 1257   8.261   9.335   6.056
   69POPC   C1B 1258   8.089   9.627   7.272
   69POPC   C2B 1259   7.866   9.585   6.888
   69POPC   C3B 1260   7.795   9.819   6.526
   69POPC   C4B 1261   7.902   9.689   6.132
   70POPC   NC3 1262   1.273   4.952   8.110
   70POPC   PO4 1263   1.753   4.426   8.154
   70POPC   GL1 1264   1.452   4.614   7.743
   70POPC   GL2 1265   1.125   4.814   7.672
   70POPC   C1A 1266   1.418   4.875   7.299
   70POPC   D2A 1267   1.248   5.156   6.997
   70POPC   C3A 1268   1.190   5.023   6.594
   70POPC   C4A 1269   1.418   4.759   6.314
   70POPC   C1B 1270   0.883   4.854   7.327
   70POPC   C2B 1271   0.804   4.790   6.942
   70POPC   C3B 1272   0.698   4.900   6.554
   70POPC   C4B 1273   0.923   4.888   6.175
   71POPC   NC3 1274  10.376   2.064   7.940
   71POPC   PO4 1275   9.861   2.285   8.363
   71POPC   GL1 1276   9.892   2.174   7.833
   71POPC   GL2 1277   9.985   1.908   7.663
   71POPC   C1A 1278  10.039   2.276   7.346
   71POPC   D2A 1279  10.291   2.260   6.951
   71POPC   C3A 1280  10.240   2.026   6.559
   71POPC   C4A 1281  10.449   1.933   6.167
   71POPC   C1B 1282  10.236   1.802   7.303
   71POPC   C2B 1283  10.462   1.770   6.944
   71POPC   C3B 1284   0.020   1.593   6.564
   71POPC   C4B 1285  10.494   1.410   6.182
   72POPC   NC3 1286   7.420   1.188   8.520
   72POPC   PO4 1287   7.124   0.895   8.003
   72POPC   GL1 1288   7.190   0.991   7.631
   72POPC   GL2 1289   7.229   1.338   7.678
   72POPC   C1A 1290   6.929   1.034   7.283
   72POPC   D2A 1291   6.675   0.936   6.952
   72POPC   C3A 1292   6.813   1.062   6.577
   72POPC   C4A 1293   7.052   1.025   6.205
   72POPC   C1B 1294   7.204   1.471   7.273
   72POPC   C2B 1295   7.125   1.315   6.910
   72POPC   C3B 1296   7.135   1.445   6.544
   72POPC   C4B 1297   7.321   1.432   6.165
   73POPC   NC3 1298  10.485   3.945   7.911
   73POPC   PO4 1299   0.645   3.947   8.012
   73POPC   GL1 1300   0.529   4.032   7.631
   73POPC   GL2 1301   0.339   4.326   7.612
   73POPC   C1A 1302   0.357   3.922   7.240
   73POPC   D2A 1303   0.124   4.130   6.937
   73POPC   C3A 1304   0.014   4.016   6.535
   73POPC   C4A 1305   0.119   4.290   6.227
   73POPC   C1B 1306   0.668   4.359   7.271
   73POPC   C2B 1307   0.789   4.165   6.886
   73POPC   C3B 1308   0.596   4.159   6.493
   73POPC   C4B 1309   0.592   4.488   6.209
   74POPC   NC3 1310   1.682   6.439   8.159
   74POPC   PO4 1311   1.839   6.958   7.987
   74POPC   GL1 1312   1.661   6.694   7.666
   74POPC   GL2 1313   1.852   6.352   7.674
   74POPC   C1A 1314   1.661   6.594   7.206
   74POPC   D2A 1315   1.670   6.800   6.811
   74POPC   C3A 1316   2.044   6.903   6.617
   74POPC   C4A 1317   2.335   6.735   6.306
   74POPC   C1B 1318   1.973   6.170   7.248
   74POPC   C2B 1319   2.006   6.396   6.865
   74POPC   C3B 1320   1.965   6.354   6.449
   74POPC   C4B 1321   1.970   5.941   6.255
   75POPC   NC3 1322   9.963   0.271   7.846
   75POPC   PO4 1323  10.142   0.813   8.291
   75POPC   GL1 1324  10.254   0.672   7.791
   75POPC   GL2 1325  10.450   0.859   7.681
   75POPC   C1A 1326  10.004   0.604   7.309
   75POPC   D2A 1327   9.946   0.299   6.962
   75POPC   C3A 1328   9.768   0.484   6.595
   75POPC   C4A 1329   9.937   0.619   6.206
   75POPC   C1B 1330   0.010   0.607   7.309
   75POPC   C2B 1331   0.007   0.553   6.881
   75POPC   C3B 1332  10.377   0.647   6.470
   75POPC   C4B 1333  10.363   0.257   6.217
   76POPC   NC3 1334   6.464   7.978   8.250
   76POPC   PO4 1335   6.890   7.617   8.058
   76POPC   GL1 1336   6.551   7.838   7.767
   76POPC   GL2 1337   6.206   8.047   7.816
   76POPC   C1A 1338   6.511   8.170   7.442
   76POPC   D2A 1339   6.232   8.158   7.088
   76POPC   C3A 1340   6.373   8.085   6.692
   76POPC   C4A 1341   6.488   8.061   6.267
   76POPC   C1B 1342   6.183   7.764   7.417
   76POPC   C2B 1343   6.312   7.639   6.977
   76POPC   C3B 1344   6.286   7.626   6.507
   76POPC   C4B 1345   5.990   7.901   6.276
   77POPC   NC3 1346   1.868   8.939   8.121
   77POPC   PO4 1347   1.568   8.430   8.304
   77POPC   GL1 1348   1.832   8.531   7.820
   77POPC   GL2 1349   2.205   8.611   7.885
   77POPC   C1A 1350   1.661   8.590   7.312
   77POPC   D2A 1351   1.617   8.811   6.886
   77POPC   C3A 1352   1.726   8.648   6.459
   77POPC   C4A 1353   1.792   8.736   5.996
   77POPC   C1B 1354   2.132   8.743   7.430
   77POPC   C2B 1355   2.082   8.607   6.991
   77POPC   C3B 1356   2.247   8.663   6.597
   77POPC   C4B 1357   2.216   8.557   6.208
   78POPC   NC3 1358   1.965   9.965   8.261
   78POPC   PO4 1359   1.660   0.083   8.048
   78POPC   GL1 1360   1.711  10.218   7.742
   78POPC   GL2 1361   1.993  10.260   7.477
   78POPC   C1A 1362   1.605  10.022   7.319
   78POPC   D2A 1363   1.835  10.109   6.908
   78POPC   C3A 1364   1.650   9.958   6.517
   78POPC   C4A 1365   1.635   9.784   6.117
   78POPC   C1B 1366   2.146   0.000   7.151
   78POPC   C2B 1367   2.323   0.070   6.760
   78POPC   C3B 1368   2.152  10.324   6.442
   78POPC   C4B 1369   2.106   9.917   6.317
   79POPC   NC3 1370   0.486   7.168   8.368
   79POPC   PO4 1371   0.028   7.443   7.912
   79POPC   GL1 1372   0.251   7.123   7.685
   79POPC   GL2 1373   0.611   7.029   7.753
   79POPC   C1A 1374   0.358   7.198   7.261
   79POPC   D2A 1375   0.157   7.189   6.887
   79POPC   C3A 1376   0.369   7.208   6.493
   79POPC   C4A 1377   0.683   7.484   6.289
   79POPC   C1B 1378   0.622   6.765   7.336
   79POPC   C2B 1379   0.371   6.706   6.915
   79POPC   C3B 1380   0.265   6.669   6.466
   79POPC   C4B 1381   0.448   6.873   6.119
   80POPC   NC3 1382   1.872   0.838   8.054
   80POPC   PO4 1383   2.133   1.466   7.952
   80POPC   GL1 1384   2.083   1.102   7.653
   80POPC   GL2 1385   1.714   0.978   7.582
   80POPC   C1A 1386   2.140   1.278   7.256
   80POPC   D2A 1387   2.188   1.630   6.997
   80POPC   C3A 1388   2.356   1.488   6.631
   80POPC   C4A 1389   2.165   1.184   6.360
   80POPC   C1B 1390   1.802   0.920   7.143
   80POPC   C2B 1391   1.883   1.217   6.801
   80POPC   C3B 1392   1.670   1.103   6.418
   80POPC   C4B 1393   1.543   0.728   6.216
   81POPC   NC3 1394   2.876  10.061   7.861
   81POPC   PO4 1395   2.202  10.048   7.870
   81POPC   GL1 1396   2.510  10.266   7.561
   81POPC   GL2 1397   2.885  10.416   7.528
   81POPC   C1A 1398   2.559  10.216   7.118
   81POPC   D2A 1399   2.386   9.967   6.782
   81POPC   C3A 1400   2.609  10.013   6.407
   81POPC   C4A 1401   2.644  10.415   6.281
   81POPC   C1B 1402   3.062  10.222   7.148
   81POPC   C2B 1403   2.962  10.407   6.729
   81POPC   C3B 1404   3.107  10.206   6.358
   81POPC   C4B 1405   3.057   9.755   6.330
   82POPC   NC3 1406   8.312  10.379   8.148
   82POPC   PO4 1407   8.195   9.743   8.058
   82POPC   GL1 1408   8.153   9.997   7.696
   82POPC   GL2 1409   7.855  10.186   7.711
   82POPC   C1A 1410   8.168  10.138   7.272
   82POPC   D2A 1411   8.233   9.942   6.877
   82POPC   C3A 1412   8.213  10.227   6.557
   82POPC   C4A 1413   7.927  10.255   6.216
   82POPC   C1B 1414   7.688  10.323   7.293
   82POPC   C2B 1415   7.762  10.231   6.846
   82POPC   C3B 1416   7.496  10.327   6.480
   82POPC   C4B 1417   7.493  10.434   6.004
   83POPC   NC3 1418   1.388   7.084   8.066
   83POPC   PO4 1419   0.814   7.456   8.186
   83POPC   GL1 1420   1.059   7.432   7.770
   83POPC   GL2 1421   1.134   7.086   7.631
   83POPC   C1A 1422   1.277   7.515   7.358
   83POPC   D2A 1423   1.234   7.303   6.951
   83POPC   C3A 1424   1.074   7.441   6.599
   83POPC   C4A 1425   1.197   7.470   6.169
   83POPC   C1B 1426   0.867   7.218   7.308
   83POPC   C2B 1427   0.733   7.075   6.910
   83POPC   C3B 1428   0.735   6.846   6.548
   83POPC   C4B 1429   0.913   7.050   6.231
   84POPC   NC3 1430   6.811   9.937   8.213
   84POPC   PO4 1431   6.851   0.147   8.151
   84POPC   GL1 1432   7.064  10.472   7.685
   84POPC   GL2 1433   7.343  10.224   7.676
   84POPC   C1A 1434   7.177  10.259   7.215
   84POPC   D2A 1435   6.943   9.978   6.932
   84POPC   C3A 1436   6.843  10.217   6.594
   84POPC   C4A 1437   7.054  10.278   6.209
   84POPC   C1B 1438   7.540   9.865   7.399
   84POPC   C2B 1439   7.439   9.835   6.947
   84POPC   C3B 1440   7.267   9.813   6.528
   84POPC   C4B 1441   7.445   9.937   6.139
   85POPC   NC3 1442   4.367   0.568   8.269
   85POPC   PO4 1443   3.732   0.614   8.089
   85POPC   GL1 1444   3.922   0.374   7.745
   85POPC   GL2 1445   4.228   0.212   7.879
   85POPC   C1A 1446   3.865   0.246   7.315
   85POPC   D2A 1447   3.852   0.485   6.950
   85POPC   C3A 1448   3.908   0.293   6.584
   85POPC   C4A 1449   3.939   0.500   6.215
   85POPC   C1B 1450   4.392   0.227   7.457
   85POPC   C2B 1451   4.306   0.274   7.024
   85POPC   C3B 1452   4.439   0.242   6.590
   85POPC   C4B 1453   4.471   0.485   6.208
   86POPC   NC3 1454   1.626   2.369   8.396
   86POPC   PO4 1455   1.525   2.977   7.966
   86POPC   GL1 1456   1.654   2.810   7.577
   86POPC   GL2 1457   2.001   2.779   7.626
   86POPC   C1A 1458   1.628   2.543   7.213
   86POPC   D2A 1459   1.653   2.353   6.790
   86POPC   C3A 1460   1.499   2.520   6.465
   86POPC   C4A 1461   1.767   2.675   6.182
   86POPC   C1B 1462   2.146   2.491   7.341
   86POPC   C2B 1463   2.065   2.598   6.952
   86POPC   C3B 1464   2.106   2.569   6.548
   86POPC   C4B 1465   2.308   2.619   6.171
   87POPC   NC3 1466   8.401   5.054   8.040
   87POPC   PO4 1467   8.792   4.575   8.315
   87POPC   GL1 1468   9.021   4.838   7.916
   87POPC   GL2 1469   8.726   4.801   7.747
   87POPC   C1A 1470   9.063   4.977   7.418
   87POPC   D2A 1471   8.824   5.101   6.995
   87POPC   C3A 1472   8.803   4.972   6.575
   87POPC   C4A 1473   8.702   5.170   6.205
   87POPC   C1B 1474   8.599   4.776   7.310
   87POPC   C2B 1475   8.731   4.535   6.949
   87POPC   C3B 1476   8.635   4.480   6.516
   87POPC   C4B 1477   8.474   4.718   6.158
   88POPC   NC3 1478  10.151   9.867   8.196
   88POPC   PO4 1479   9.770  10.427   8.168
   88POPC   GL1 1480   9.945  10.270   7.743
   88POPC   GL2 1481  10.302  10.148   7.785
   88POPC   C1A 1482   9.811  10.401   7.293
   88POPC   D2A 1483   9.577  10.401   6.892
   88POPC   C3A 1484   9.843  10.346   6.541
   88POPC   C4A 1485  10.040  10.372   6.140
   88POPC   C1B 1486  10.312  10.347   7.371
   88POPC   C2B 1487  10.199  10.295   6.940
   88POPC   C3B 1488   0.023  10.194   6.639
   88POPC   C4B 1489  10.454  10.108   6.224
   89POPC   NC3 1490   0.743   1.901   8.351
   89POPC   PO4 1491   1.374   1.985   8.345
   89POPC   GL1 1492   1.390   2.077   7.906
   89POPC   GL2 1493   1.109   1.840   7.819
   89POPC   C1A 1494   1.457   1.974   7.469
   89POPC   D2A 1495   1.367   2.083   7.081
   89POPC   C3A 1496   1.286   1.942   6.658
   89POPC   C4A 1497   1.405   2.007   6.246
   89POPC   C1B 1498   0.966   1.988   7.397
   89POPC   C2B 1499   0.883   1.939   7.004
   89POPC   C3B 1500   0.771   1.983   6.626
   89POPC   C4B 1501   0.918   1.767   6.294
   90POPC   NC3 1502   8.624   5.074   8.506
   90POPC   PO4 1503   8.272   5.498   8.034
   90POPC   GL1 1504   8.140   5.229   7.636
   90POPC   GL2 1505   8.201   4.875   7.608
   90POPC   C1A 1506   8.310   5.166   7.193
   90POPC   D2A 1507   8.374   4.881   6.817
   90POPC   C3A 1508   8.218   5.064   6.428
   90POPC   C4A 1509   8.167   5.130   5.981
   90POPC   C1B 1510   8.101   4.678   7.198
   90POPC   C2B 1511   7.868   4.811   6.801
   90POPC   C3B 1512   7.715   4.919   6.363
   90POPC   C4B 1513   7.478   4.868   5.951
   91POPC   NC3 1514   5.616   2.097   7.991
   91POPC   PO4 1515   6.134   1.571   8.055
   91POPC   GL1 1516   5.824   1.726   7.703
   91POPC   GL2 1517   5.947   2.025   7.627
   91POPC   C1A 1518   5.590   2.001   7.294
   91POPC   D2A 1519   5.776   2.166   6.886
   91POPC   C3A 1520   5.539   2.177   6.483
   91POPC   C4A 1521   5.540   1.902   6.121
   91POPC   C1B 1522   6.074   1.859   7.242
   91POPC   C2B 1523   6.038   1.727   6.848
   91POPC   C3B 1524   5.953   1.890   6.464
   91POPC   C4B 1525   6.017   1.973   5.994
   92POPC   NC3 1526   1.688   8.038   8.063
   92POPC   PO4 1527   2.261   7.724   8.160
   92POPC   GL1 1528   2.122   7.758   7.681
   92POPC   GL2 1529   1.756   7.800   7.615
   92POPC   C1A 1530   2.094   7.755   7.184
   92POPC   D2A 1531   2.324   8.030   6.871
   92POPC   C3A 1532   2.320   8.017   6.396
   92POPC   C4A 1533   2.033   7.724   6.171
   92POPC   C1B 1534   1.946   8.178   7.418
   92POPC   C2B 1535   1.816   8.176   6.989
   92POPC   C3B 1536   1.854   7.966   6.608
   92POPC   C4B 1537   1.871   8.205   6.223
   93POPC   NC3 1538   9.588   3.657   8.189
   93POPC   PO4 1539   8.886   3.694   8.218
   93POPC   GL1 1540   9.056   3.565   7.803
   93POPC   GL2 1541   9.391   3.427   7.772
   93POPC   C1A 1542   9.202   3.689   7.376
   93POPC   D2A 1543   9.219   3.860   6.960
   93POPC   C3A 1544   9.100   3.689   6.575
   93POPC   C4A 1545   9.275   3.595   6.166
   93POPC   C1B 1546   9.244   3.191   7.392
   93POPC   C2B 1547   9.301   3.352   6.962
   93POPC   C3B 1548   9.541   3.377   6.587
   93POPC   C4B 1549   9.481   3.139   6.245
   94POPC   NC3 1550   0.522   4.418   8.097
   94POPC   PO4 1551   0.286   5.049   8.298
   94POPC   GL1 1552   0.270   4.826   7.825
   94POPC   GL2 1553   0.613   4.781   7.749
   94POPC   C1A 1554   0.334   4.730   7.315
   94POPC   D2A 1555   0.359   4.566   6.855
   94POPC   C3A 1556   0.232   4.759   6.448
   94POPC   C4A 1557   0.184   4.737   5.980
   94POPC   C1B 1558   0.488   5.173   7.498
   94POPC   C2B 1559   0.387   5.158   7.029
   94POPC   C3B 1560   0.338   5.262   6.584
   94POPC   C4B 1561   0.460   5.133   6.140
   95POPC   NC3 1562   1.205   8.644   8.085
   95POPC   PO4 1563   1.596   9.256   7.947
   95POPC   GL1 1564   1.412   8.897   7.682
   95POPC   GL2 1565   1.060   8.693   7.600
   95POPC   C1A 1566   1.292   8.971   7.255
   95POPC   D2A 1567   1.064   8.852   6.895
   95POPC   C3A 1568   1.271   9.010   6.547
   95POPC   C4A 1569   1.312   8.806   6.171
   95POPC   C1B 1570   1.120   8.434   7.212
   95POPC   C2B 1571   1.331   8.351   6.810
   95POPC   C3B 1572   1.271   8.336   6.351
   95POPC   C4B 1573   1.059   8.406   5.942
   96POPC   NC3 1574   6.688   0.854   7.854
   96POPC   PO4 1575   6.065   0.764   8.122
   96POPC   GL1 1576   6.177   0.970   7.741
   96POPC   GL2 1577   6.404   1.266   7.740
   96POPC   C1A 1578   6.320   0.902   7.321
   96POPC   D2A 1579   6.120   0.819   6.947
   96POPC   C3A 1580   6.312   0.919   6.583
   96POPC   C4A 1581   6.140   1.072   6.223
   96POPC   C1B 1582   6.169   1.378   7.382
   96POPC   C2B 1583   6.310   1.312   6.965
   96POPC   C3B 1584   6.320   1.429   6.545
   96POPC   C4B 1585   6.589   1.336   6.210
   97POPC   NC3 1586   3.274   1.732   8.209
   97POPC   PO4 1587   3.825   1.345   8.246
   97POPC   GL1 1588   3.696   1.549   7.819
   97POPC   GL2 1589   3.396   1.791   7.708
   97POPC   C1A 1590   3.637   1.527   7.348
   97POPC   D2A 1591   3.388   1.580   6.963
   97POPC   C3A 1592   3.482   1.686   6.508
   97POPC   C4A 1593   3.271   1.862   6.124
   97POPC   C1B 1594   3.498   2.019   7.312
   97POPC   C2B 1595   3.622   2.052   6.886
   97POPC   C3B 1596   3.506   2.204   6.485
   97POPC   C4B 1597   3.722   2.157   6.121
   98POPC   NC3 1598   6.385   0.342   8.202
   98POPC   PO4 1599   5.763   0.142   8.195
   98POPC   GL1 1600   6.075   0.115   7.776
   98POPC   GL2 1601   6.125   0.458   7.538
   98POPC   C1A 1602   6.186   0.022   7.310
   98POPC   D2A 1603   6.054   0.322   6.955
   98POPC   C3A 1604   6.281   0.410   6.564
   98POPC   C4A 1605   6.239   0.283   6.140
   98POPC   C1B 1606   6.490   0.438   7.171
   98POPC   C2B 1607   6.768   0.451   6.824
   98POPC   C3B 1608   6.770   0.585   6.419
   98POPC   C4B 1609   6.585   0.823   6.160
   99POPC   NC3 1610   1.287   2.598   7.886
   99POPC   PO4 1611   0.790   2.188   7.982
   99POPC   GL1 1612   0.739   2.439   7.589
   99POPC   GL2 1613   0.847   2.781   7.586
   99POPC   C1A 1614   0.753   2.459   7.121
   99POPC   D2A 1615   1.082   2.394   6.801
   99POPC   C3A 1616   1.019   2.342   6.357
   99POPC   C4A 1617   0.871   2.566   5.986
   99POPC   C1B 1618   1.177   2.794   7.283
   99POPC   C2B 1619   1.319   2.849   6.879
   99POPC   C3B 1620   1.070   2.833   6.515
   99POPC   C4B 1621   1.262   2.848   6.142
  100POPC   NC3 1622   1.968   4.002   8.120
  100POPC   PO4 1623   2.315   4.361   7.894
  100POPC   GL1 1624   1.919   4.406   7.677
  100POPC   GL2 1625   1.658   4.133   7.706
  100POPC   C1A 1626   1.688   4.442   7.284
  100POPC   D2A 1627   1.779   4.668   6.913
  100POPC   C3A 1628   1.762   4.424   6.532
  100POPC   C4A 1629   2.091   4.362   6.209
  100POPC   C1B 1630   1.928   3.998   7.370
  100POPC   C2B 1631   1.881   4.008   6.932
  100POPC   C3B 1632   2.044   3.949   6.523
  100POPC   C4B 1633   1.721   4.011   6.232
  101POPC   NC3 1634   8.048   2.743   8.094
  101POPC   PO4 1635   8.181   3.248   7.777
  101POPC   GL1 1636   7.945   2.895   7.602
  101POPC   GL2 1637   8.035   2.512   7.652
  101POPC   C1A 1638   7.850   3.014   7.175
  101POPC   D2A 1639   8.056   3.159   6.802
  101POPC   C3A 1640   7.897   3.045   6.383
  101POPC   C4A 1641   8.113   2.918   5.998
  101POPC   C1B 1642   7.959   2.529   7.239
  101POPC   C2B 1643   8.118   2.645   6.870
  101POPC   C3B 1644   8.022   2.566   6.482
  101POPC   C4B 1645   8.335   2.499   6.204
  102POPC   NC3 1646   1.236   0.331   8.024
  102POPC   PO4 1647   0.578   0.537   8.072
  102POPC   GL1 1648   0.757   0.262   7.707
  102POPC   GL2 1649   1.048   0.418   7.547
  102POPC   C1A 1650   0.838   0.010   7.317
  102POPC   D2A 1651   1.088   0.165   6.949
  102POPC   C3A 1652   0.918  10.461   6.566
  102POPC   C4A 1653   0.762   0.136   6.192
  102POPC   C1B 1654   1.402   0.594   7.303
  102POPC   C2B 1655   1.503   0.573   6.856
  102POPC   C3B 1656   1.316   0.367   6.489
  102POPC   C4B 1657   1.207   0.332   6.049
  103POPC   NC3 1658  10.372   4.975   8.126
  103POPC   PO4 1659   9.746   4.835   8.239
  103POPC   GL1 1660   9.954   4.748   7.847
  103POPC   GL2 1661  10.030   5.050   7.732
  103POPC   C1A 1662   9.940   4.695   7.384
  103POPC   D2A 1663   9.936   4.982   7.008
  103POPC   C3A 1664   9.819   4.796   6.609
  103POPC   C4A 1665   9.897   5.034   6.234
  103POPC   C1B 1666  10.390   4.917   7.469
  103POPC   C2B 1667  10.449   4.879   7.011
  103POPC   C3B 1668  10.296   4.982   6.611
  103POPC   C4B 1669  10.465   5.129   6.234
  104POPC   NC3 1670  10.181   7.101   7.946
  104POPC   PO4 1671   0.282   6.809   8.149
  104POPC   GL1 1672  10.473   6.693   7.768
  104POPC   GL2 1673  10.159   6.862   7.517
  104POPC   C1A 1674   0.105   6.762   7.340
  104POPC   D2A 1675  10.295   6.856   7.032
  104POPC   C3A 1676  10.348   6.893   6.629
  104POPC   C4A 1677  10.093   6.831   6.363
  104POPC   C1B 1678  10.225   7.296   7.303
  104POPC   C2B 1679  10.268   7.529   6.913
  104POPC   C3B 1680  10.369   7.415   6.503
  104POPC   C4B 1681  10.096   7.355   6.175
  105POPC   NC3 1682   8.214   5.953   8.057
  105POPC   PO4 1683   8.311   6.591   8.171
  105POPC   GL1 1684   8.231   6.549   7.711
  105POPC   GL2 1685   7.965   6.300   7.686
  105POPC   C1A 1686   8.215   6.524   7.245
  105POPC   D2A 1687   8.206   6.252   6.887
  105POPC   C3A 1688   8.122   6.425   6.501
  105POPC   C4A 1689   8.270   6.151   6.208
  105POPC   C1B 1690   7.709   6.506   7.343
  105POPC   C2B 1691   7.749   6.525   6.866
  105POPC   C3B 1692   7.642   6.261   6.489
  105POPC   C4B 1693   7.778   6.110   6.090
  106POPC   NC3 1694   1.788   1.827   8.158
  106POPC   PO4 1695   1.743   2.491   7.962
  106POPC   GL1 1696   1.835   2.237   7.628
  106POPC   GL2 1697   1.918   1.857   7.648
  106POPC   C1A 1698   1.880   2.088   7.174
  106POPC   D2A 1699   2.097   2.088   6.779
  106POPC   C3A 1700   1.891   2.136   6.372
  106POPC   C4A 1701   1.832   2.230   5.941
  106POPC   C1B 1702   1.745   1.602   7.279
  106POPC   C2B 1703   1.695   1.709   6.844
  106POPC   C3B 1704   1.886   1.622   6.466
  106POPC   C4B 1705   2.224   1.749   6.204
  107POPC   NC3 1706   9.523   6.277   8.238
  107POPC   PO4 1707   8.941   6.241   8.027
  107POPC   GL1 1708   9.270   6.249   7.717
  107POPC   GL2 1709   9.431   6.557   7.773
  107POPC   C1A 1710   9.279   6.243   7.234
  107POPC   D2A 1711   9.108   6.195   6.764
  107POPC   C3A 1712   9.108   6.545   6.442
  107POPC   C4A 1713   9.376   6.557   6.068
  107POPC   C1B 1714   9.460   6.705   7.340
  107POPC   C2B 1715   9.468   6.557   6.886
  107POPC   C3B 1716   9.550   6.814   6.533
  107POPC   C4B 1717   9.674   6.938   6.152
  108POPC   NC3 1718   2.203   2.582   8.058
  108POPC   PO4 1719   2.871   2.369   8.053
  108POPC   GL1 1720   2.881   2.574   7.640
  108POPC   GL2 1721   2.528   2.655   7.627
  108POPC   C1A 1722   2.794   2.420   7.238
  108POPC   D2A 1723   2.519   2.409   6.936
  108POPC   C3A 1724   2.597   2.679   6.655
  108POPC   C4A 1725   2.812   2.497   6.348
  108POPC   C1B 1726   2.453   2.853   7.195
  108POPC   C2B 1727   2.296   3.070   6.856
  108POPC   C3B 1728   2.315   3.054   6.414
  108POPC   C4B 1729   2.700   2.976   6.206
  109POPC   NC3 1730   6.592  10.383   7.863
  109POPC   PO4 1731   6.587   9.699   7.862
  109POPC   GL1 1732   6.494   9.957   7.569
  109POPC   GL2 1733   6.833  10.029   7.504
  109POPC   C1A 1734   6.276  10.004   7.211
  109POPC   D2A 1735   6.415  10.026   6.801
  109POPC   C3A 1736   6.241   9.816   6.439
  109POPC   C4A 1737   6.259   9.770   5.925
  109POPC   C1B 1738   6.670  10.351   7.197
  109POPC   C2B 1739   6.462   0.025   6.837
  109POPC   C3B 1740   6.274  10.363   6.450
  109POPC   C4B 1741   6.548  10.123   6.176
  110POPC   NC3 1742   2.075   5.530   7.962
  110POPC   PO4 1743   1.667   5.973   8.184
  110POPC   GL1 1744   1.587   5.795   7.756
  110POPC   GL2 1745   1.909   5.838   7.616
  110POPC   C1A 1746   1.593   5.667   7.286
  110POPC   D2A 1747   1.771   5.845   6.880
  110POPC   C3A 1748   1.566   5.704   6.496
  110POPC   C4A 1749   1.615   5.577   6.069
  110POPC   C1B 1750   2.087   5.608   7.254
  110POPC   C2B 1751   2.165   5.464   6.853
  110POPC   C3B 1752   1.987   5.446   6.460
  110POPC   C4B 1753   2.122   5.472   6.067
  111POPC   NC3 1754   0.793   3.463   7.973
  111POPC   PO4 1755   0.190   3.097   8.033
  111POPC   GL1 1756   0.461   3.170   7.704
  111POPC   GL2 1757   0.384   3.536   7.672
  111POPC   C1A 1758   0.717   3.289   7.346
  111POPC   D2A 1759   0.643   3.567   6.985
  111POPC   C3A 1760   0.721   3.343   6.616
  111POPC   C4A 1761   0.570   3.371   6.169
  111POPC   C1B 1762   0.214   3.421   7.277
  111POPC   C2B 1763   0.056   3.614   6.900
  111POPC   C3B 1764   0.288   3.596   6.531
  111POPC   C4B 1765   0.360   3.849   6.155
  112POPC   NC3 1766   6.312   2.750   7.962
  112POPC   PO4 1767   6.834   3.016   8.013
  112POPC   GL1 1768   6.680   2.904   7.618
  112POPC   GL2 1769   6.716   2.560   7.688
  112POPC   C1A 1770   6.385   3.051   7.281
  112POPC   D2A 1771   6.363   3.150   6.826
  112POPC   C3A 1772   6.695   3.058   6.515
  112POPC   C4A 1773   6.637   3.059   6.052
  112POPC   C1B 1774   6.506   2.551   7.282
  112POPC   C2B 1775   6.593   2.676   6.858
  112POPC   C3B 1776   6.301   2.708   6.518
  112POPC   C4B 1777   6.055   2.364   6.333
  113POPC   NC3 1778  10.050   8.983   8.076
  113POPC   PO4 1779  10.134   8.286   8.017
  113POPC   GL1 1780   9.943   8.457   7.640
  113POPC   GL2 1781   9.902   8.824   7.610
  113POPC   C1A 1782  10.046   8.326   7.221
  113POPC   D2A 1783   9.783   8.432   6.900
  113POPC   C3A 1784   9.919   8.371   6.528
  113POPC   C4A 1785   9.936   8.727   6.304
  113POPC   C1B 1786  10.146   8.832   7.224
  113POPC   C2B 1787  10.248   8.699   6.794
  113POPC   C3B 1788  10.381   8.934   6.430
  113POPC   C4B 1789   0.006   9.251   6.167
  114POPC   NC3 1790  10.201   3.045   8.028
  114POPC   PO4 1791  10.041   3.815   8.003
  114POPC   GL1 1792   9.997   3.517   7.711
  114POPC   GL2 1793  10.365   3.411   7.683
  114POPC   C1A 1794   9.708   3.407   7.350
  114POPC   D2A 1795   9.720   3.077   7.026
  114POPC   C3A 1796   9.918   3.019   6.616
  114POPC   C4A 1797   9.959   3.271   6.237
  114POPC   C1B 1798  10.199   3.431   7.247
  114POPC   C2B 1799  10.016   3.468   6.858
  114POPC   C3B 1800  10.098   3.693   6.480
  114POPC   C4B 1801  10.408   3.646   6.182
  115POPC   NC3 1802   7.223   0.445   8.106
  115POPC   PO4 1803   6.576   0.409   7.789
  115POPC   GL1 1804   6.983   0.492   7.614
  115POPC   GL2 1805   7.360   0.397   7.615
  115POPC   C1A 1806   7.033   0.262   7.233
  115POPC   D2A 1807   7.289   0.305   6.863
  115POPC   C3A 1808   7.072   0.166   6.529
  115POPC   C4A 1809   6.680   0.112   6.304
  115POPC   C1B 1810   7.327   0.682   7.252
  115POPC   C2B 1811   7.216   0.825   6.851
  115POPC   C3B 1812   7.267   0.650   6.464
  115POPC   C4B 1813   7.508   0.334   6.323
  116POPC   NC3 1814   9.224  10.242   8.225
  116POPC   PO4 1815   9.435   0.414   8.118
  116POPC   GL1 1816   9.449   0.045   7.777
  116POPC   GL2 1817   9.447  10.159   7.796
  116POPC   C1A 1818   9.295  10.366   7.365
  116POPC   D2A 1819   9.193  10.047   7.057
  116POPC   C3A 1820   9.153  10.227   6.633
  116POPC   C4A 1821   9.388  10.283   6.285
  116POPC   C1B 1822   9.631   9.958   7.447
  116POPC   C2B 1823   9.740   9.917   7.003
  116POPC   C3B 1824   9.570   9.893   6.575
  116POPC   C4B 1825   9.773   9.943   6.173
  117POPC   NC3 1826   7.555   1.118   8.000
  117POPC   PO4 1827   8.293   1.325   8.026
  117POPC   GL1 1828   8.145   1.333   7.631
  117POPC   GL2 1829   7.905   1.073   7.635
  117POPC   C1A 1830   8.301   1.098   7.276
  117POPC   D2A 1831   8.342   0.909   6.858
  117POPC   C3A 1832   8.031   1.123   6.588
  117POPC   C4A 1833   8.077   1.528   6.370
  117POPC   C1B 1834   7.580   1.123   7.329
  117POPC   C2B 1835   7.618   1.253   6.907
  117POPC   C3B 1836   7.518   1.100   6.505
  117POPC   C4B 1837   7.708   1.093   6.110
  118POPC   NC3 1838   9.371   9.257   8.051
  118POPC   PO4 1839   9.039   9.845   8.060
  118POPC   GL1 1840   9.308   9.647   7.707
  118POPC   GL2 1841   9.659   9.474   7.663
  118POPC   C1A 1842   9.363   9.573   7.254
  118POPC   D2A 1843   9.477   9.460   6.845
  118POPC   C3A 1844   9.134   9.461   6.521
  118POPC   C4A 1845   9.121   9.843   6.266
  118POPC   C1B 1846   9.722   9.183   7.286
  118POPC   C2B 1847   9.769   8.975   6.859
  118POPC   C3B 1848   9.596   9.133   6.468
  118POPC   C4B 1849   9.533   9.488   6.187
  119POPC   NC3 1850   0.431   5.493   8.135
  119POPC   PO4 1851   0.744   6.048   7.970
  119POPC   GL1 1852   0.616   5.735   7.703
  119POPC   GL2 1853   0.265   5.728   7.694
  119POPC   C1A 1854   0.626   5.785   7.284
  119POPC   D2A 1855   0.813   5.914   6.920
  119POPC   C3A 1856   0.616   5.797   6.542
  119POPC   C4A 1857   0.617   5.883   6.123
  119POPC   C1B 1858   0.182   5.544   7.306
  119POPC   C2B 1859   0.302   5.673   6.922
  119POPC   C3B 1860   0.097   5.722   6.587
  119POPC   C4B 1861   0.191   5.590   6.208
  120POPC   NC3 1862   4.250   1.534   8.300
  120POPC   PO4 1863   4.422   2.142   8.157
  120POPC   GL1 1864   4.364   1.910   7.737
  120POPC   GL2 1865   4.411   1.529   7.779
  120POPC   C1A 1866   4.063   2.030   7.375
  120POPC   D2A 1867   4.122   2.243   6.934
  120POPC   C3A 1868   4.078   2.083   6.510
  120POPC   C4A 1869   4.228   2.050   6.066
  120POPC   C1B 1870   4.147   1.527   7.396
  120POPC   C2B 1871   4.013   1.721   6.987
  120POPC   C3B 1872   4.017   1.582   6.578
  120POPC   C4B 1873   3.897   1.675   6.172
  121POPC   NC3 1874   2.118   9.516   8.031
  121POPC   PO4 1875   1.561   9.811   8.066
  121POPC   GL1 1876   1.758   9.679   7.660
  121POPC   GL2 1877   2.110   9.693   7.551
  121POPC   C1A 1878   1.815   9.539   7.189
  121POPC   D2A 1879   2.020   9.622   6.796
  121POPC   C3A 1880   1.900   9.465   6.413
  121POPC   C4A 1881   1.638   9.203   6.165
  121POPC   C1B 1882   2.168   9.263   7.424
  121POPC   C2B 1883   2.073   9.119   7.004
  121POPC   C3B 1884   2.283   9.169   6.606
  121POPC   C4B 1885   2.139   9.089   6.180
  122POPC   NC3 1886   8.776   1.364   8.102
  122POPC   PO4 1887   8.544   1.989   8.298
  122POPC   GL1 1888   8.597   1.797   7.875
  122POPC   GL2 1889   8.959   1.825   7.836
  122POPC   C1A 1890   8.383   1.772   7.454
  122POPC   D2A 1891   8.334   1.562   7.043
  122POPC   C3A 1892   8.438   1.787   6.665
  122POPC   C4A 1893   8.413   1.957   6.254
  122POPC   C1B 1894   8.812   2.077   7.468
  122POPC   C2B 1895   8.734   1.979   7.027
  122POPC   C3B 1896   8.829   2.092   6.548
  122POPC   C4B 1897   8.783   2.293   6.095
  123POPC   NC3 1898   8.617   9.861   7.899
  123POPC   PO4 1899   8.770  10.445   8.196
  123POPC   GL1 1900   8.945  10.354   7.769
  123POPC   GL2 1901   8.980  10.026   7.574
  123POPC   C1A 1902   8.783  10.447   7.333
  123POPC   D2A 1903   8.452  10.496   7.020
  123POPC   C3A 1904   8.659   0.040   6.642
  123POPC   C4A 1905   8.907   0.040   6.270
  123POPC   C1B 1906   8.667   9.953   7.237
  123POPC   C2B 1907   8.717  10.075   6.824
  123POPC   C3B 1908   8.674  10.088   6.369
  123POPC   C4B 1909   8.328   9.970   6.090
  124POPC   NC3 1910   1.918   3.202   7.927
  124POPC   PO4 1911   1.579   3.731   8.138
  124POPC   GL1 1912   1.798   3.632   7.714
  124POPC   GL2 1913   1.658   3.314   7.520
  124POPC   C1A 1914   2.065   3.514   7.328
  124POPC   D2A 1915   2.243   3.603   6.937
  124POPC   C3A 1916   2.037   3.430   6.601
  124POPC   C4A 1917   1.937   3.554   6.200
  124POPC   C1B 1918   1.872   3.051   7.178
  124POPC   C2B 1919   1.794   2.968   6.727
  124POPC   C3B 1920   1.648   3.148   6.347
  124POPC   C4B 1921   1.877   3.118   5.961
  125POPC   NC3 1922   4.880   2.015   8.068
  125POPC   PO4 1923   5.312   2.371   7.784
  125POPC   GL1 1924   5.220   1.968   7.652
  125POPC   GL2 1925   4.860   2.033   7.549
  125POPC   C1A 1926   5.192   1.682   7.332
  125POPC   D2A 1927   5.021   1.980   7.043
  125POPC   C3A 1928   5.094   1.919   6.625
  125POPC   C4A 1929   5.063   1.846   6.212
  125POPC   C1B 1930   4.541   2.076   7.205
  125POPC   C2B 1931   4.490   1.844   6.806
  125POPC   C3B 1932   4.595   1.959   6.392
  125POPC   C4B 1933   4.826   2.310   6.201
  126POPC   NC3 1934   2.797   9.297   8.221
  126POPC   PO4 1935   2.420   9.797   8.303
  126POPC   GL1 1936   2.573   9.656   7.853
  126POPC   GL2 1937   2.839   9.426   7.740
  126POPC   C1A 1938   2.581   9.711   7.378
  126POPC   D2A 1939   2.476   9.458   7.019
  126POPC   C3A 1940   2.665   9.535   6.631
  126POPC   C4A 1941   2.417   9.532   6.270
  126POPC   C1B 1942   3.012   9.435   7.335
  126POPC   C2B 1943   2.947   9.220   6.955
  126POPC   C3B 1944   3.091   9.245   6.545
  126POPC   C4B 1945   2.869   9.308   6.182
  127POPC   NC3 1946   7.457   2.018   8.080
  127POPC   PO4 1947   6.831   2.216   8.077
  127POPC   GL1 1948   7.135   2.216   7.714
  127POPC   GL2 1949   7.212   1.854   7.668
  127POPC   C1A 1950   7.459   2.162   7.341
  127POPC   D2A 1951   7.690   2.228   6.937
  127POPC   C3A 1952   7.558   2.220   6.512
  127POPC   C4A 1953   7.442   2.203   6.044
  127POPC   C1B 1954   7.013   1.932   7.275
  127POPC   C2B 1955   7.244   1.875   6.885
  127POPC   C3B 1956   7.161   1.931   6.437
  127POPC   C4B 1957   6.901   1.734   6.197
  128POPC   NC3 1958   3.503   0.164   7.969
  128POPC   PO4 1959   3.185   0.750   7.953
  128POPC   GL1 1960   3.109   0.375   7.640
  128POPC   GL2 1961   3.396   0.181   7.494
  128POPC   C1A 1962   3.053   0.218   7.161
  128POPC   D2A 1963   3.409   0.205   6.838
  128POPC   C3A 1964   3.233   0.285   6.419
  128POPC   C4A 1965   3.014   0.185   6.029
  128POPC   C1B 1966   3.440   0.559   7.239
  128POPC   C2B 1967   3.503   0.853   6.913
  128POPC   C3B 1968   3.565   0.681   6.554
  128POPC   C4B 1969   3.435   0.711   6.186
  129POPC   NC3 1970   8.213   0.861   8.005
  129POPC   PO4 1971   8.900   0.910   8.044
  129POPC   GL1 1972   8.644   1.079   7.700
  129POPC   GL2 1973   8.902   0.950   7.535
  129POPC   C1A 1974   8.728   1.414   7.377
  129POPC   D2A 1975   8.837   1.469   6.915
  129POPC   C3A 1976   8.520   1.307   6.609
  129POPC   C4A 1977   8.452   0.938   6.346
  129POPC   C1B 1978   8.784   0.956   7.125
  129POPC   C2B 1979   8.864   0.969   6.702
  129POPC   C3B 1980   8.937   1.118   6.289
  129POPC   C4B 1981   9.170   0.990   5.923
  130POPC   NC3 1982   8.275   7.990   8.219
  130POPC   PO4 1983   7.740   7.688   7.923
  130POPC   GL1 1984   7.783   8.095   7.702
  130POPC   GL2 1985   8.146   8.022   7.697
  130POPC   C1A 1986   7.575   8.327   7.318
  130POPC   D2A 1987   7.635   8.057   6.912
  130POPC   C3A 1988   7.448   8.085   6.489
  130POPC   C4A 1989   7.438   8.459   6.255
  130POPC   C1B 1990   8.180   7.908   7.244
  130POPC   C2B 1991   8.013   7.702   6.862
  130POPC   C3B 1992   7.849   7.685   6.445
  130POPC   C4B 1993   8.168   7.863   6.258
  131POPC   NC3 1994   7.312   7.802   8.028
  131POPC   PO4 1995   7.242   8.470   8.162
  131POPC   GL1 1996   7.281   8.210   7.742
  131POPC   GL2 1997   6.921   8.185   7.832
  131POPC   C1A 1998   7.420   7.863   7.356
  131POPC   D2A 1999   7.217   7.753   6.930
  131POPC   C3A 2000   7.335   7.586   6.503
  131POPC   C4A 2001   7.450   7.670   6.067
  131POPC   C1B 2002   6.942   7.939   7.434
  131POPC   C2B 2003   6.740   7.929   7.032
  131POPC   C3B 2004   6.875   7.969   6.602
  131POPC   C4B 2005   6.974   7.820   6.196
  132POPC   NC3 2006   0.230   0.848   8.102
  132POPC   PO4 2007  10.412   0.185   7.954
  132POPC   GL1 2008   0.259   0.368   7.673
  132POPC   GL2 2009   0.431   0.712   7.637
  132POPC   C1A 2010   0.491   0.408   7.244
  132POPC   D2A 2011   0.469   0.765   6.945
  132POPC   C3A 2012   0.385   0.642   6.539
  132POPC   C4A 2013   0.362   0.475   6.176
  132POPC   C1B 2014   0.752   0.857   7.382
  132POPC   C2B 2015   0.976   0.682   7.012
  132POPC   C3B 2016   0.850   0.494   6.628
  132POPC   C4B 2017   0.846   0.664   6.225
  133POPC   NC3 2018   4.182   8.064   8.083
  133POPC   PO4 2019   3.790   7.634   8.079
  133POPC   GL1 2020   3.869   7.868   7.690
  133POPC   GL2 2021   4.222   7.814   7.648
  133POPC   C1A 2022   3.934   7.917   7.213
  133POPC   D2A 2023   3.902   8.129   6.775
  133POPC   C3A 2024   3.979   7.896   6.354
  133POPC   C4A 2025   3.676   7.659   6.058
  133POPC   C1B 2026   4.406   8.094   7.352
  133POPC   C2B 2027   4.383   7.978   6.941
  133POPC   C3B 2028   4.490   7.975   6.535
  133POPC   C4B 2029   4.482   8.029   6.123
  134POPC   NC3 2030   8.504   8.686   8.052
  134POPC   PO4 2031   9.142   8.166   8.058
  134POPC   GL1 2032   9.005   8.322   7.656
  134POPC   GL2 2033   8.759   8.586   7.627
  134POPC   C1A 2034   9.088   8.442   7.290
  134POPC   D2A 2035   8.835   8.695   7.077
  134POPC   C3A 2036   8.749   8.578   6.667
  134POPC   C4A 2037   9.036   8.416   6.358
  134POPC   C1B 2038   8.430   8.729   7.391
  134POPC   C2B 2039   8.324   8.789   6.965
  134POPC   C3B 2040   8.255   8.708   6.540
  134POPC   C4B 2041   8.544   8.688   6.194
  135POPC   NC3 2042   0.405   0.008   8.054
  135POPC   PO4 2043   0.115   9.893   8.192
  135POPC   GL1 2044   0.322  10.055   7.759
  135POPC   GL2 2045   0.687  10.159   7.719
  135POPC   C1A 2046   0.330  10.412   7.408
  135POPC   D2A 2047   0.153   0.072   7.004
  135POPC   C3A 2048   0.380   0.109   6.584
  135POPC   C4A 2049   0.285  10.470   6.154
  135POPC   C1B 2050   0.559   9.982   7.286
  135POPC   C2B 2051   0.524  10.204   6.893
  135POPC   C3B 2052   0.510  10.086   6.457
  135POPC   C4B 2053   0.670  10.142   6.052
  136POPC   NC3 2054   9.750   1.171   8.225
  136POPC   PO4 2055  10.038   1.802   8.191
  136POPC   GL1 2056   9.899   1.467   7.841
  136POPC   GL2 2057  10.172   1.388   7.590
  136POPC   C1A 2058   9.762   1.553   7.366
  136POPC   D2A 2059  10.004   1.417   6.996
  136POPC   C3A 2060   9.833   1.541   6.609
  136POPC   C4A 2061  10.036   1.646   6.268
  136POPC   C1B 2062  10.219   1.064   7.303
  136POPC   C2B 2063  10.157   0.917   6.901
  136POPC   C3B 2064  10.217   1.172   6.560
  136POPC   C4B 2065  10.130   1.079   6.166
  137POPC   NC3 2066   0.603   6.469   7.994
  137POPC   PO4 2067   0.061   6.004   8.101
  137POPC   GL1 2068   0.191   6.226   7.693
  137POPC   GL2 2069   0.520   6.231   7.564
  137POPC   C1A 2070   0.204   6.082   7.229
  137POPC   D2A 2071   0.412   6.193   6.866
  137POPC   C3A 2072   0.262   6.164   6.462
  137POPC   C4A 2073   0.163   6.146   6.048
  137POPC   C1B 2074   0.789   6.292   7.249
  137POPC   C2B 2075   0.845   6.475   6.879
  137POPC   C3B 2076   0.777   6.301   6.506
  137POPC   C4B 2077   0.597   6.395   6.158
  138POPC   NC3 2078   9.349   0.847   7.940
  138POPC   PO4 2079   9.368   1.436   8.177
  138POPC   GL1 2080   9.171   1.331   7.754
  138POPC   GL2 2081   9.489   1.230   7.647
  138POPC   C1A 2082   9.197   1.257   7.252
  138POPC   D2A 2083   9.478   1.364   6.938
  138POPC   C3A 2084   9.346   1.323   6.523
  138POPC   C4A 2085   9.514   1.550   6.176
  138POPC   C1B 2086   9.701   1.054   7.281
  138POPC   C2B 2087   9.657   0.868   6.918
  138POPC   C3B 2088   9.751   1.005   6.521
  138POPC   C4B 2089   9.640   1.073   6.099
  139POPC   NC3 2090   2.175   0.007   7.908
  139POPC   PO4 2091   2.381   0.740   8.026
  139POPC   GL1 2092   2.125   0.554   7.704
  139POPC   GL2 2093   1.743   0.481   7.729
  139POPC   C1A 2094   2.208   0.649   7.306
  139POPC   D2A 2095   2.043   0.480   6.963
  139POPC   C3A 2096   1.954   0.731   6.636
  139POPC   C4A 2097   2.058   0.566   6.272
  139POPC   C1B 2098   1.784   0.259   7.381
  139POPC   C2B 2099   1.671   0.108   6.986
  139POPC   C3B 2100   1.822   0.212   6.574
  139POPC   C4B 2101   1.698   0.238   6.150
  140POPC   NC3 2102   5.279   9.550   8.187
  140POPC   PO4 2103   4.804   9.060   8.051
  140POPC   GL1 2104   4.802   9.230   7.692
  140POPC   GL2 2105   4.995   9.488   7.678
  140POPC   C1A 2106   4.910   9.077   7.307
  140POPC   D2A 2107   4.705   9.139   6.963
  140POPC   C3A 2108   4.875   9.160   6.600
  140POPC   C4A 2109   4.750   8.925   6.276
  140POPC   C1B 2110   4.831   9.581   7.256
  140POPC   C2B 2111   4.737   9.671   6.803
  140POPC   C3B 2112   4.830   9.630   6.395
  140POPC   C4B 2113   4.935   9.539   5.971
  141POPC   NC3 2114   9.603   1.911   8.227
  141POPC   PO4 2115   9.232   2.404   8.052
  141POPC   GL1 2116   9.403   2.101   7.739
  141POPC   GL2 2117   9.481   1.753   7.760
  141POPC   C1A 2118   9.592   2.042   7.315
  141POPC   D2A 2119   9.868   1.929   6.969
  141POPC   C3A 2120   9.740   2.126   6.598
  141POPC   C4A 2121   9.651   2.049   6.203
  141POPC   C1B 2122   9.196   1.735   7.401
  141POPC   C2B 2123   9.234   1.821   6.971
  141POPC   C3B 2124   9.298   1.846   6.538
  141POPC   C4B 2125   9.128   1.913   6.120
  142POPC   NC3 2126  10.286   2.117   8.435
  142POPC   PO4 2127  10.190   2.565   7.955
  142POPC   GL1 2128  10.065   2.715   7.594
  142POPC   GL2 2129  10.033   3.038   7.541
  142POPC   C1A 2130  10.078   2.730   7.132
  142POPC   D2A 2131   9.800   2.562   6.869
  142POPC   C3A 2132  10.095   2.521   6.556
  142POPC   C4A 2133  10.065   2.348   6.177
  142POPC   C1B 2134  10.438   2.995   7.351
  142POPC   C2B 2135  10.453   3.116   6.929
  142POPC   C3B 2136  10.376   3.265   6.542
  142POPC   C4B 2137  10.338   2.908   6.319
  143POPC   NC3 2138   4.479   9.492   8.065
  143POPC   PO4 2139   3.895   9.172   7.986
  143POPC   GL1 2140   4.223   9.207   7.716
  143POPC   GL2 2141   4.123   9.553   7.671
  143POPC   C1A 2142   4.427   9.293   7.361
  143POPC   D2A 2143   4.336   9.482   7.011
  143POPC   C3A 2144   4.400   9.322   6.593
  143POPC   C4A 2145   4.437   9.426   6.160
  143POPC   C1B 2146   3.917   9.356   7.277
  143POPC   C2B 2147   3.900   9.379   6.803
  143POPC   C3B 2148   3.938   9.367   6.395
  143POPC   C4B 2149   3.997   9.675   6.186
  144POPC   NC3 2150   4.906   8.590   8.125
  144POPC   PO4 2151   5.473   8.712   7.977
  144POPC   GL1 2152   5.131   8.710   7.642
  144POPC   GL2 2153   4.762   8.716   7.655
  144POPC   C1A 2154   5.224   8.698   7.203
  144POPC   D2A 2155   5.326   8.984   6.899
  144POPC   C3A 2156   5.249   8.838   6.509
  144POPC   C4A 2157   5.161   8.520   6.259
  144POPC   C1B 2158   4.772   8.484   7.251
  144POPC   C2B 2159   4.815   8.660   6.819
  144POPC   C3B 2160   4.683   8.450   6.443
  144POPC   C4B 2161   4.528   8.527   6.032
  145POPC   NC3 2162   8.681   4.113   8.231
  145POPC   PO4 2163   8.312   4.611   8.027
  145POPC   GL1 2164   8.445   4.396   7.637
  145POPC   GL2 2165   8.800   4.358   7.448
  145POPC   C1A 2166   8.331   4.202   7.254
  145POPC   D2A 2167   8.284   4.300   6.841
  145POPC   C3A 2168   8.210   4.042   6.457
  145POPC   C4A 2169   8.024   4.156   6.047
  145POPC   C1B 2170   8.797   4.052   7.127
  145POPC   C2B 2171   8.659   3.935   6.725
  145POPC   C3B 2172   8.695   3.983   6.278
  145POPC   C4B 2173   8.815   4.367   6.055
  146POPC   NC3 2174   7.056   2.630   8.077
  146POPC   PO4 2175   7.679   2.429   8.055
  146POPC   GL1 2176   7.510   2.580   7.641
  146POPC   GL2 2177   7.183   2.747   7.593
  146POPC   C1A 2178   7.464   2.652   7.179
  146POPC   D2A 2179   7.630   2.758   6.785
  146POPC   C3A 2180   7.372   2.912   6.468
  146POPC   C4A 2181   7.565   2.642   6.233
  146POPC   C1B 2182   7.000   2.448   7.275
  146POPC   C2B 2183   6.900   2.256   6.869
  146POPC   C3B 2184   7.091   2.426   6.509
  146POPC   C4B 2185   6.943   2.694   6.240
  147POPC   NC3 2186   4.828  10.395   7.900
  147POPC   PO4 2187   4.860   9.776   8.174
  147POPC   GL1 2188   5.142   9.939   7.835
  147POPC   GL2 2189   4.891  10.013   7.574
  147POPC   C1A 2190   5.281   9.813   7.368
  147POPC   D2A 2191   5.061   9.977   7.015
  147POPC   C3A 2192   5.219   9.912   6.577
  147POPC   C4A 2193   4.998  10.063   6.196
  147POPC   C1B 2194   4.722  10.309   7.273
  147POPC   C2B 2195   4.518  10.317   6.921
  147POPC   C3B 2196   4.668  10.183   6.563
  147POPC   C4B 2197   4.584  10.428   6.202
  148POPC   NC3 2198   8.946   0.379   8.127
  148POPC   PO4 2199   8.209   0.341   8.184
  148POPC   GL1 2200   8.318   0.438   7.740
  148POPC   GL2 2201   8.660   0.546   7.730
  148POPC   C1A 2202   8.340   0.591   7.300
  148POPC   D2A 2203   8.197   0.436   6.908
  148POPC   C3A 2204   8.360   0.453   6.513
  148POPC   C4A 2205   8.372   0.106   6.231
  148POPC   C1B 2206   8.839   0.465   7.311
  148POPC   C2B 2207   8.704   0.488   6.913
  148POPC   C3B 2208   8.870   0.487   6.533
  148POPC   C4B 2209   8.915   0.613   6.163
  149POPC   NC3 2210   4.210   8.815   8.046
  149POPC   PO4 2211   4.583   8.272   8.090
  149POPC   GL1 2212   4.315   8.472   7.677
  149POPC   GL2 2213   4.002   8.723   7.585
  149POPC   C1A 2214   4.393   8.795   7.297
  149POPC   D2A 2215   4.186   8.980   6.945
  149POPC   C3A 2216   4.274   8.847   6.506
  149POPC   C4A 2217   4.269   8.963   6.078
  149POPC   C1B 2218   4.034   8.434   7.221
  149POPC   C2B 2219   4.300   8.462   6.840
  149POPC   C3B 2220   4.176   8.366   6.392
  149POPC   C4B 2221   4.024   8.544   6.001
  150POPC   NC3 2222   9.822  10.324   4.014
  150POPC   PO4 2223   9.179  10.330   3.747
  150POPC   GL1 2224   9.233   9.982   4.169
  150POPC   GL2 2225   9.526  10.039   4.343
  150POPC   C1A 2226   9.107  10.087   4.679
  150POPC   D2A 2227   9.081  10.355   5.072
  150POPC   C3A 2228   9.267  10.222   5.460
  150POPC   C4A 2229   9.113  10.260   5.864
  150POPC   C1B 2230   9.605  10.172   4.779
  150POPC   C2B 2231   9.840  10.078   5.158
  150POPC   C3B 2232   9.884  10.359   5.523
  150POPC   C4B 2233   9.627  10.318   5.845
  151POPC   NC3 2234   6.363   9.972   3.878
  151POPC   PO4 2235   6.817  10.343   3.746
  151POPC   GL1 2236   6.625  10.249   4.187
  151POPC   GL2 2237   6.370  10.428   4.263
  151POPC   C1A 2238   6.407   9.981   4.531
  151POPC   D2A 2239   6.259  10.015   4.958
  151POPC   C3A 2240   6.552   9.921   5.265
  151POPC   C4A 2241   6.652   9.975   5.687
  151POPC   C1B 2242   6.248  10.462   4.667
  151POPC   C2B 2243   6.209   0.072   5.093
  151POPC   C3B 2244   6.346  10.357   5.432
  151POPC   C4B 2245   6.252  10.340   5.847
  152POPC   NC3 2246   0.814   9.561   4.128
  152POPC   PO4 2247   1.270   9.312   3.613
  152POPC   GL1 2248   1.214   9.255   4.095
  152POPC   GL2 2249   1.417   9.499   4.176
  152POPC   C1A 2250   1.067   9.195   4.594
  152POPC   D2A 2251   1.032   9.007   5.048
  152POPC   C3A 2252   0.802   9.119   5.442
  152POPC   C4A 2253   0.984   9.377   5.784
  152POPC   C1B 2254   1.436   9.632   4.609
  152POPC   C2B 2255   1.369   9.393   4.961
  152POPC   C3B 2256   1.267   9.362   5.364
  152POPC   C4B 2257   1.500   9.506   5.728
  153POPC   NC3 2258   1.299  10.330   3.877
  153POPC   PO4 2259   0.725  10.010   4.077
  153POPC   GL1 2260   1.021  10.234   4.295
  153POPC   GL2 2261   1.219   9.961   4.291
  153POPC   C1A 2262   1.231  10.277   4.697
  153POPC   D2A 2263   0.866  10.305   4.946
  153POPC   C3A 2264   0.879  10.271   5.393
  153POPC   C4A 2265   1.030  10.404   5.795
  153POPC   C1B 2266   0.962   9.846   4.685
  153POPC   C2B 2267   1.099   9.847   5.088
  153POPC   C3B 2268   1.145   9.839   5.515
  153POPC   C4B 2269   1.494  10.054   5.678
  154POPC   NC3 2270   1.148   1.384   4.075
  154POPC   PO4 2271   1.622   0.889   3.839
  154POPC   GL1 2272   1.530   1.090   4.269
  154POPC   GL2 2273   1.216   1.017   4.456
  154POPC   C1A 2274   1.510   1.368   4.704
  154POPC   D2A 2275   1.331   1.425   5.129
  154POPC   C3A 2276   1.560   1.492   5.533
  154POPC   C4A 2277   1.559   1.255   5.932
  154POPC   C1B 2278   0.963   1.344   4.684
  154POPC   C2B 2279   0.816   1.481   5.056
  154POPC   C3B 2280   0.785   1.210   5.393
  154POPC   C4B 2281   1.062   1.241   5.715
  155POPC   NC3 2282   8.778   7.783   3.871
  155POPC   PO4 2283   8.265   8.304   3.848
  155POPC   GL1 2284   8.346   8.012   4.194
  155POPC   GL2 2285   8.692   7.952   4.328
  155POPC   C1A 2286   8.313   7.997   4.647
  155POPC   D2A 2287   8.552   8.143   4.986
  155POPC   C3A 2288   8.520   8.025   5.413
  155POPC   C4A 2289   8.331   7.978   5.809
  155POPC   C1B 2290   8.845   7.836   4.695
  155POPC   C2B 2291   8.810   7.701   5.111
  155POPC   C3B 2292   9.023   7.857   5.494
  155POPC   C4B 2293   8.840   7.854   5.921
  156POPC   NC3 2294   2.755   1.076   3.959
  156POPC   PO4 2295   3.151   1.557   3.633
  156POPC   GL1 2296   3.099   1.379   4.140
  156POPC   GL2 2297   2.752   1.421   4.316
  156POPC   C1A 2298   3.110   1.364   4.648
  156POPC   D2A 2299   3.047   1.073   5.025
  156POPC   C3A 2300   3.088   1.217   5.455
  156POPC   C4A 2301   2.891   1.060   5.853
  156POPC   C1B 2302   2.563   1.227   4.670
  156POPC   C2B 2303   2.606   1.406   5.091
  156POPC   C3B 2304   2.587   1.304   5.513
  156POPC   C4B 2305   2.328   0.986   5.621
  157POPC   NC3 2306   0.595   3.318   3.993
  157POPC   PO4 2307  10.458   3.420   3.858
  157POPC   GL1 2308   0.164   3.538   4.254
  157POPC   GL2 2309   0.327   3.223   4.396
  157POPC   C1A 2310   0.103   3.620   4.703
  157POPC   D2A 2311   0.290   3.442   5.054
  157POPC   C3A 2312   0.142   3.429   5.458
  157POPC   C4A 2313   0.334   3.154   5.753
  157POPC   C1B 2314   0.638   3.420   4.655
  157POPC   C2B 2315   0.826   3.428   5.043
  157POPC   C3B 2316   0.742   3.350   5.460
  157POPC   C4B 2317   0.536   3.642   5.730
  158POPC   NC3 2318   8.797   5.369   3.816
  158POPC   PO4 2319   8.835   6.035   3.941
  158POPC   GL1 2320   8.811   5.770   4.326
  158POPC   GL2 2321   8.475   5.746   4.309
  158POPC   C1A 2322   8.953   5.536   4.728
  158POPC   D2A 2323   8.787   5.506   5.136
  158POPC   C3A 2324   8.881   5.523   5.548
  158POPC   C4A 2325   8.541   5.400   5.794
  158POPC   C1B 2326   8.475   5.705   4.746
  158POPC   C2B 2327   8.287   5.661   5.126
  158POPC   C3B 2328   8.446   5.816   5.475
  158POPC   C4B 2329   8.538   5.891   5.885
  159POPC   NC3 2330   7.904   4.920   3.838
  159POPC   PO4 2331   8.420   4.730   3.927
  159POPC   GL1 2332   8.220   4.808   4.313
  159POPC   GL2 2333   7.857   4.745   4.331
  159POPC   C1A 2334   8.208   4.890   4.777
  159POPC   D2A 2335   8.084   4.702   5.188
  159POPC   C3A 2336   7.854   4.839   5.577
  159POPC   C4A 2337   7.951   4.673   5.987
  159POPC   C1B 2338   7.722   5.008   4.717
  159POPC   C2B 2339   7.807   5.169   5.170
  159POPC   C3B 2340   7.581   5.259   5.587
  159POPC   C4B 2341   7.698   5.323   6.027
  160POPC   NC3 2342   1.990  10.236   3.813
  160POPC   PO4 2343   1.562   0.231   3.891
  160POPC   GL1 2344   1.829   0.050   4.225
  160POPC   GL2 2345   1.607  10.296   4.324
  160POPC   C1A 2346   2.105   0.029   4.657
  160POPC   D2A 2347   2.226  10.427   5.120
  160POPC   C3A 2348   2.029   0.091   5.529
  160POPC   C4A 2349   2.155   0.074   5.995
  160POPC   C1B 2350   1.736  10.161   4.759
  160POPC   C2B 2351   1.854  10.065   5.204
  160POPC   C3B 2352   1.993  10.089   5.646
  160POPC   C4B 2353   1.801  10.242   6.052
  161POPC   NC3 2354   1.881   4.497   4.043
  161POPC   PO4 2355   1.855   3.846   3.842
  161POPC   GL1 2356   2.048   4.027   4.226
  161POPC   GL2 2357   1.789   4.096   4.432
  161POPC   C1A 2358   2.194   4.002   4.702
  161POPC   D2A 2359   1.943   4.093   5.086
  161POPC   C3A 2360   2.168   3.997   5.496
  161POPC   C4A 2361   2.209   3.941   5.963
  161POPC   C1B 2362   1.768   4.481   4.683
  161POPC   C2B 2363   1.762   4.662   5.082
  161POPC   C3B 2364   1.772   4.429   5.438
  161POPC   C4B 2365   1.783   4.179   5.780
  162POPC   NC3 2366   7.035   0.601   3.998
  162POPC   PO4 2367   7.680   0.534   3.971
  162POPC   GL1 2368   7.490   0.627   4.310
  162POPC   GL2 2369   7.350   0.288   4.319
  162POPC   C1A 2370   7.505   0.510   4.744
  162POPC   D2A 2371   7.463   0.408   5.172
  162POPC   C3A 2372   7.389   0.713   5.496
  162POPC   C4A 2373   7.414   0.697   5.966
  162POPC   C1B 2374   7.167   0.131   4.740
  162POPC   C2B 2375   6.988   0.263   5.128
  162POPC   C3B 2376   7.096   0.289   5.588
  162POPC   C4B 2377   7.077   0.323   6.043
  163POPC   NC3 2378   7.936   0.177   3.903
  163POPC   PO4 2379   8.569   0.099   3.825
  163POPC   GL1 2380   8.310   0.210   4.236
  163POPC   GL2 2381   8.161   0.578   4.194
  163POPC   C1A 2382   7.912   0.188   4.542
  163POPC   D2A 2383   7.668  10.484   4.891
  163POPC   C3A 2384   7.825   0.069   5.329
  163POPC   C4A 2385   7.616   0.293   5.669
  163POPC   C1B 2386   7.963   0.701   4.594
  163POPC   C2B 2387   7.953   0.467   4.984
  163POPC   C3B 2388   7.885   0.634   5.375
  163POPC   C4B 2389   7.895   0.716   5.800
  164POPC   NC3 2390   8.827  10.263   4.084
  164POPC   PO4 2391   8.717   9.617   3.940
  164POPC   GL1 2392   8.878   9.715   4.369
  164POPC   GL2 2393   8.662  10.008   4.480
  164POPC   C1A 2394   8.826   9.656   4.810
  164POPC   D2A 2395   8.801   9.949   5.105
  164POPC   C3A 2396   8.988   9.808   5.496
  164POPC   C4A 2397   8.796   9.882   5.875
  164POPC   C1B 2398   8.681  10.375   4.745
  164POPC   C2B 2399   8.566  10.457   5.152
  164POPC   C3B 2400   8.649  10.226   5.509
  164POPC   C4B 2401   8.618  10.339   5.904
  165POPC   NC3 2402   2.175   2.661   3.887
  165POPC   PO4 2403   1.533   2.636   3.889
  165POPC   GL1 2404   1.648   2.758   4.290
  165POPC   GL2 2405   1.997   2.768   4.342
  165POPC   C1A 2406   1.586   2.765   4.736
  165POPC   D2A 2407   1.807   2.726   5.137
  165POPC   C3A 2408   1.547   2.858   5.383
  165POPC   C4A 2409   1.541   2.798   5.733
  165POPC   C1B 2410   2.083   2.622   4.737
  165POPC   C2B 2411   2.313   2.465   5.058
  165POPC   C3B 2412   2.161   2.370   5.442
  165POPC   C4B 2413   2.020   2.652   5.740
  166POPC   NC3 2414   6.645   8.479   3.759
  166POPC   PO4 2415   6.160   8.892   3.861
  166POPC   GL1 2416   6.179   8.743   4.373
  166POPC   GL2 2417   6.545   8.760   4.529
  166POPC   C1A 2418   6.278   8.428   4.764
  166POPC   D2A 2419   6.499   8.569   5.158
  166POPC   C3A 2420   6.320   8.446   5.565
  166POPC   C4A 2421   6.163   8.164   5.861
  166POPC   C1B 2422   6.233   8.942   4.842
  166POPC   C2B 2423   6.161   9.029   5.267
  166POPC   C3B 2424   6.438   8.932   5.580
  166POPC   C4B 2425   6.611   9.007   5.956
  167POPC   NC3 2426  10.209   7.237   3.978
  167POPC   PO4 2427   9.797   6.813   3.856
  167POPC   GL1 2428   9.840   7.049   4.303
  167POPC   GL2 2429  10.194   7.148   4.457
  167POPC   C1A 2430   9.863   7.026   4.789
  167POPC   D2A 2431   9.971   6.865   5.149
  167POPC   C3A 2432  10.018   7.102   5.485
  167POPC   C4A 2433  10.079   6.977   5.866
  167POPC   C1B 2434  10.240   7.416   4.843
  167POPC   C2B 2435  10.429   7.209   5.220
  167POPC   C3B 2436   0.034   6.955   5.643
  167POPC   C4B 2437  10.496   7.062   6.138
  168POPC   NC3 2438   8.358   1.606   4.167
  168POPC   PO4 2439   8.123   0.995   3.823
  168POPC   GL1 2440   8.196   1.105   4.246
  168POPC   GL2 2441   7.859   1.103   4.327
  168POPC   C1A 2442   8.384   1.067   4.657
  168POPC   D2A 2443   8.160   0.927   5.049
  168POPC   C3A 2444   8.299   0.958   5.497
  168POPC   C4A 2445   8.182   1.142   5.922
  168POPC   C1B 2446   7.922   1.248   4.714
  168POPC   C2B 2447   7.839   1.322   5.126
  168POPC   C3B 2448   7.810   1.139   5.527
  168POPC   C4B 2449   7.711   1.473   5.789
  169POPC   NC3 2450   4.904   8.424   4.031
  169POPC   PO4 2451   4.860   9.132   3.947
  169POPC   GL1 2452   4.916   8.999   4.346
  169POPC   GL2 2453   4.628   8.780   4.322
  169POPC   C1A 2454   4.757   9.021   4.770
  169POPC   D2A 2455   4.603   8.962   5.181
  169POPC   C3A 2456   4.792   8.790   5.479
  169POPC   C4A 2457   4.949   8.701   5.843
  169POPC   C1B 2458   4.810   8.517   4.658
  169POPC   C2B 2459   4.927   8.535   5.081
  169POPC   C3B 2460   4.915   8.304   5.494
  169POPC   C4B 2461   4.928   8.195   5.936
  170POPC   NC3 2462   7.782   6.497   3.906
  170POPC   PO4 2463   7.543   7.016   4.043
  170POPC   GL1 2464   7.742   6.699   4.388
  170POPC   GL2 2465   8.022   6.469   4.361
  170POPC   C1A 2466   7.920   6.546   4.839
  170POPC   D2A 2467   7.819   6.302   5.218
  170POPC   C3A 2468   7.804   6.541   5.615
  170POPC   C4A 2469   8.014   6.557   6.005
  170POPC   C1B 2470   8.197   6.143   4.625
  170POPC   C2B 2471   8.341   6.185   5.032
  170POPC   C3B 2472   8.282   6.404   5.390
  170POPC   C4B 2473   8.091   6.116   5.700
  171POPC   NC3 2474   5.628   2.300   4.016
  171POPC   PO4 2475   5.361   1.670   3.845
  171POPC   GL1 2476   5.540   1.659   4.253
  171POPC   GL2 2477   5.799   1.884   4.262
  171POPC   C1A 2478   5.755   1.566   4.660
  171POPC   D2A 2479   5.899   1.688   5.055
  171POPC   C3A 2480   5.597   1.758   5.359
  171POPC   C4A 2481   5.733   1.628   5.745
  171POPC   C1B 2482   5.653   2.067   4.671
  171POPC   C2B 2483   5.769   2.187   5.101
  171POPC   C3B 2484   5.832   2.180   5.561
  171POPC   C4B 2485   5.677   2.369   5.962
  172POPC   NC3 2486   1.476   3.795   4.109
  172POPC   PO4 2487   0.951   3.434   3.734
  172POPC   GL1 2488   1.008   3.578   4.180
  172POPC   GL2 2489   1.070   3.277   4.365
  172POPC   C1A 2490   1.080   3.712   4.648
  172POPC   D2A 2491   1.279   3.709   5.080
  172POPC   C3A 2492   0.983   3.787   5.442
  172POPC   C4A 2493   1.019   3.588   5.861
  172POPC   C1B 2494   1.371   3.254   4.693
  172POPC   C2B 2495   1.247   3.161   5.101
  172POPC   C3B 2496   1.342   3.368   5.475
  172POPC   C4B 2497   1.398   3.253   5.878
  173POPC   NC3 2498   0.786   2.316   4.043
  173POPC   PO4 2499   0.749   2.928   4.185
  173POPC   GL1 2500   0.659   2.636   4.423
  173POPC   GL2 2501   0.340   2.693   4.451
  173POPC   C1A 2502   0.690   2.420   4.768
  173POPC   D2A 2503   0.461   2.492   5.120
  173POPC   C3A 2504   0.647   2.616   5.526
  173POPC   C4A 2505   0.400   2.458   5.831
  173POPC   C1B 2506   0.488   2.944   4.819
  173POPC   C2B 2507   0.451   2.993   5.249
  173POPC   C3B 2508   0.161   2.735   5.478
  173POPC   C4B 2509   0.004   2.785   5.875
  174POPC   NC3 2510   1.860   7.185   4.023
  174POPC   PO4 2511   2.525   7.268   3.880
  174POPC   GL1 2512   2.262   7.149   4.307
  174POPC   GL2 2513   1.939   7.332   4.486
  174POPC   C1A 2514   2.179   7.011   4.768
  174POPC   D2A 2515   2.125   7.253   5.165
  174POPC   C3A 2516   2.147   6.943   5.493
  174POPC   C4A 2517   2.039   6.823   5.900
  174POPC   C1B 2518   1.685   7.161   4.810
  174POPC   C2B 2519   1.696   6.972   5.213
  174POPC   C3B 2520   1.692   7.130   5.621
  174POPC   C4B 2521   1.662   7.425   5.951
  175POPC   NC3 2522   7.251   7.370   4.029
  175POPC   PO4 2523   6.789   7.903   3.863
  175POPC   GL1 2524   7.096   7.807   4.252
  175POPC   GL2 2525   7.388   8.021   4.355
  175POPC   C1A 2526   7.085   7.802   4.725
  175POPC   D2A 2527   7.252   7.759   5.179
  175POPC   C3A 2528   7.079   7.725   5.618
  175POPC   C4A 2529   7.050   7.382   5.936
  175POPC   C1B 2530   7.369   8.254   4.720
  175POPC   C2B 2531   7.398   8.424   5.116
  175POPC   C3B 2532   7.251   8.207   5.475
  175POPC   C4B 2533   7.271   8.114   5.903
  176POPC   NC3 2534   1.539   2.198   3.741
  176POPC   PO4 2535   1.581   1.577   4.101
  176POPC   GL1 2536   1.474   1.862   4.381
  176POPC   GL2 2537   1.144   1.759   4.443
  176POPC   C1A 2538   1.438   1.869   4.825
  176POPC   D2A 2539   1.359   1.978   5.197
  176POPC   C3A 2540   1.091   1.735   5.468
  176POPC   C4A 2541   1.235   1.646   5.918
  176POPC   C1B 2542   0.904   1.915   4.801
  176POPC   C2B 2543   0.907   2.203   5.165
  176POPC   C3B 2544   0.749   2.132   5.566
  176POPC   C4B 2545   0.988   2.084   5.908
  177POPC   NC3 2546   5.027   0.555   3.840
  177POPC   PO4 2547   4.428   0.607   4.112
  177POPC   GL1 2548   4.646   0.624   4.455
  177POPC   GL2 2549   4.896   0.380   4.306
  177POPC   C1A 2550   4.674   0.708   4.897
  177POPC   D2A 2551   4.642   0.431   5.208
  177POPC   C3A 2552   4.760   0.596   5.576
  177POPC   C4A 2553   4.714   0.240   5.820
  177POPC   C1B 2554   4.955   0.318   4.730
  177POPC   C2B 2555   5.121   0.507   5.093
  177POPC   C3B 2556   5.168   0.315   5.495
  177POPC   C4B 2557   5.346   0.327   5.901
  178POPC   NC3 2558   3.498   1.837   3.846
  178POPC   PO4 2559   2.935   1.830   4.063
  178POPC   GL1 2560   3.215   1.832   4.398
  178POPC   GL2 2561   3.522   1.994   4.340
  178POPC   C1A 2562   3.131   1.829   4.862
  178POPC   D2A 2563   3.415   1.917   5.194
  178POPC   C3A 2564   3.254   1.693   5.502
  178POPC   C4A 2565   2.942   1.591   5.813
  178POPC   C1B 2566   3.415   2.214   4.729
  178POPC   C2B 2567   3.609   2.393   5.066
  178POPC   C3B 2568   3.747   2.283   5.445
  178POPC   C4B 2569   3.469   2.108   5.699
  179POPC   NC3 2570   6.500   2.275   3.936
  179POPC   PO4 2571   6.819   1.686   4.040
  179POPC   GL1 2572   6.606   1.833   4.376
  179POPC   GL2 2573   6.300   1.848   4.243
  179POPC   C1A 2574   6.650   1.992   4.786
  179POPC   D2A 2575   6.811   1.902   5.184
  179POPC   C3A 2576   6.625   2.137   5.516
  179POPC   C4A 2577   6.610   1.816   5.801
  179POPC   C1B 2578   6.155   1.941   4.692
  179POPC   C2B 2579   6.264   2.036   5.154
  179POPC   C3B 2580   6.178   1.800   5.527
  179POPC   C4B 2581   6.212   1.500   5.900
  180POPC   NC3 2582   8.938   0.350   3.896
  180POPC   PO4 2583   9.276  10.458   4.217
  180POPC   GL1 2584   8.866   0.183   4.382
  180POPC   GL2 2585   8.684   0.546   4.312
  180POPC   C1A 2586   8.901   0.379   4.795
  180POPC   D2A 2587   9.146   0.378   5.181
  180POPC   C3A 2588   8.950   0.149   5.493
  180POPC   C4A 2589   8.721   0.316   5.816
  180POPC   C1B 2590   8.435   0.556   4.711
  180POPC   C2B 2591   8.447   0.485   5.174
  180POPC   C3B 2592   8.273   0.397   5.592
  180POPC   C4B 2593   8.335   0.575   6.009
  181POPC   NC3 2594  10.342   0.507   3.814
  181POPC   PO4 2595   9.670   0.646   3.959
  181POPC   GL1 2596   9.892   0.304   4.160
  181POPC   GL2 2597  10.193   0.333   4.266
  181POPC   C1A 2598   9.840   0.113   4.597
  181POPC   D2A 2599   9.750   0.410   4.945
  181POPC   C3A 2600   9.885   0.387   5.379
  181POPC   C4A 2601  10.025   0.284   5.809
  181POPC   C1B 2602  10.174   0.466   4.689
  181POPC   C2B 2603  10.186   0.667   5.088
  181POPC   C3B 2604  10.338   0.671   5.500
  181POPC   C4B 2605  10.381   0.679   5.954
  182POPC   NC3 2606   8.464   2.583   3.985
  182POPC   PO4 2607   8.947   3.096   3.884
  182POPC   GL1 2608   8.964   2.881   4.262
  182POPC   GL2 2609   8.618   2.984   4.357
  182POPC   C1A 2610   9.102   2.749   4.674
  182POPC   D2A 2611   8.924   2.875   5.041
  182POPC   C3A 2612   8.950   2.577   5.355
  182POPC   C4A 2613   8.964   2.661   5.793
  182POPC   C1B 2614   8.613   2.583   4.617
  182POPC   C2B 2615   8.559   2.484   5.037
  182POPC   C3B 2616   8.498   2.815   5.344
  182POPC   C4B 2617   8.456   2.648   5.726
  183POPC   NC3 2618   4.625  10.168   3.879
  183POPC   PO4 2619   5.203   0.077   3.854
  183POPC   GL1 2620   5.222  10.431   4.260
  183POPC   GL2 2621   5.054  10.123   4.155
  183POPC   C1A 2622   5.322  10.466   4.691
  183POPC   D2A 2623   5.083  10.467   5.076
  183POPC   C3A 2624   5.275  10.330   5.437
  183POPC   C4A 2625   5.065  10.380   5.806
  183POPC   C1B 2626   4.804  10.252   4.549
  183POPC   C2B 2627   4.808  10.053   4.973
  183POPC   C3B 2628   4.969   9.888   5.352
  183POPC   C4B 2629   4.763   9.953   5.747
  184POPC   NC3 2630   9.195   1.240   3.975
  184POPC   PO4 2631   9.776   1.453   4.230
  184POPC   GL1 2632   9.741   1.114   4.447
  184POPC   GL2 2633   9.433   0.998   4.375
  184POPC   C1A 2634   9.842   0.873   4.758
  184POPC   D2A 2635   9.686   0.843   5.174
  184POPC   C3A 2636   9.765   1.113   5.477
  184POPC   C4A 2637   9.487   1.350   5.706
  184POPC   C1B 2638   9.414   1.220   4.800
  184POPC   C2B 2639   9.386   1.344   5.208
  184POPC   C3B 2640   9.046   1.251   5.497
  184POPC   C4B 2641   9.028   1.470   5.910
  185POPC   NC3 2642   2.423   8.722   3.922
  185POPC   PO4 2643   2.828   8.212   3.747
  185POPC   GL1 2644   2.635   8.454   4.269
  185POPC   GL2 2645   2.324   8.515   4.410
  185POPC   C1A 2646   2.719   8.710   4.671
  185POPC   D2A 2647   2.935   8.758   5.073
  185POPC   C3A 2648   2.757   9.072   5.365
  185POPC   C4A 2649   2.850   8.918   5.787
  185POPC   C1B 2650   2.184   8.376   4.790
  185POPC   C2B 2651   2.423   8.547   5.092
  185POPC   C3B 2652   2.632   8.588   5.470
  185POPC   C4B 2653   2.559   8.407   5.877
  186POPC   NC3 2654   7.290  10.238   3.853
  186POPC   PO4 2655   6.865   0.208   4.153
  186POPC   GL1 2656   7.093  10.342   4.318
  186POPC   GL2 2657   7.060   9.971   4.214
  186POPC   C1A 2658   6.858  10.205   4.658
  186POPC   D2A 2659   6.662  10.357   5.007
  186POPC   C3A 2660   6.864  10.350   5.396
  186POPC   C4A 2661   6.769  10.447   5.822
  186POPC   C1B 2662   7.299   9.941   4.604
  186POPC   C2B 2663   7.216  10.110   5.016
  186POPC   C3B 2664   7.073   9.887   5.381
  186POPC   C4B 2665   7.173  10.111   5.743
  187POPC   NC3 2666   7.185   9.280   3.825
  187POPC   PO4 2667   7.534   9.858   3.987
  187POPC   GL1 2668   7.337   9.517   4.249
  187POPC   GL2 2669   6.941   9.468   4.233
  187POPC   C1A 2670   7.219   9.343   4.661
  187POPC   D2A 2671   7.287   9.606   5.002
  187POPC   C3A 2672   7.257   9.394   5.373
  187POPC   C4A 2673   7.270   9.580   5.757
  187POPC   C1B 2674   6.847   9.693   4.631
  187POPC   C2B 2675   6.799   9.521   5.062
  187POPC   C3B 2676   6.822   9.148   5.328
  187POPC   C4B 2677   7.067   9.057   5.718
  188POPC   NC3 2678   9.152   8.925   3.835
  188POPC   PO4 2679   9.702   8.584   3.826
  188POPC   GL1 2680   9.718   8.700   4.230
  188POPC   GL2 2681   9.400   8.624   4.312
  188POPC   C1A 2682   9.750   8.776   4.674
  188POPC   D2A 2683   9.601   8.872   5.091
  188POPC   C3A 2684   9.867   8.824   5.444
  188POPC   C4A 2685   9.766   8.908   5.860
  188POPC   C1B 2686   9.225   8.790   4.716
  188POPC   C2B 2687   9.119   8.725   5.143
  188POPC   C3B 2688   9.261   8.763   5.584
  188POPC   C4B 2689   8.968   8.669   5.918
  189POPC   NC3 2690   3.670  10.127   3.827
  189POPC   PO4 2691   2.992   9.692   3.912
  189POPC   GL1 2692   3.151   9.767   4.288
  189POPC   GL2 2693   3.405   9.961   4.217
  189POPC   C1A 2694   2.987   9.833   4.705
  189POPC   D2A 2695   3.080  10.072   5.073
  189POPC   C3A 2696   3.023   9.892   5.474
  189POPC   C4A 2697   3.228   9.836   5.860
  189POPC   C1B 2698   3.414  10.116   4.637
  189POPC   C2B 2699   3.606  10.130   5.050
  189POPC   C3B 2700   3.521  10.162   5.480
  189POPC   C4B 2701   3.839  10.478   5.681
  190POPC   NC3 2702   8.298   9.372   3.938
  190POPC   PO4 2703   8.400  10.062   3.942
  190POPC   GL1 2704   8.395   9.615   4.342
  190POPC   GL2 2705   8.683   9.260   4.266
  190POPC   C1A 2706   8.475   9.279   4.693
  190POPC   D2A 2707   8.651   9.212   5.082
  190POPC   C3A 2708   8.596   9.540   5.317
  190POPC   C4A 2709   8.619   9.449   5.725
  190POPC   C1B 2710   8.998   9.229   4.590
  190POPC   C2B 2711   9.152   9.302   5.033
  190POPC   C3B 2712   9.037   9.281   5.474
  190POPC   C4B 2713   9.092   9.474   5.907
  191POPC   NC3 2714   2.421   0.473   3.810
  191POPC   PO4 2715   3.007   0.754   3.724
  191POPC   GL1 2716   2.786   0.543   4.145
  191POPC   GL2 2717   2.828   0.179   4.105
  191POPC   C1A 2718   2.710   0.699   4.637
  191POPC   D2A 2719   2.573   0.876   5.064
  191POPC   C3A 2720   2.771   0.825   5.412
  191POPC   C4A 2721   2.677   0.596   5.748
  191POPC   C1B 2722   2.559   0.230   4.500
  191POPC   C2B 2723   2.459   0.360   4.931
  191POPC   C3B 2724   2.473   0.325   5.370
  191POPC   C4B 2725   2.589   0.094   5.740
  192POPC   NC3 2726   8.782   6.511   3.882
  192POPC   PO4 2727   8.154   6.766   3.983
  192POPC   GL1 2728   8.492   6.625   4.287
  192POPC   GL2 2729   8.518   6.272   4.264
  192POPC   C1A 2730   8.468   6.590   4.737
  192POPC   D2A 2731   8.751   6.541   5.099
  192POPC   C3A 2732   8.728   6.746   5.528
  192POPC   C4A 2733   8.903   6.674   5.959
  192POPC   C1B 2734   8.740   6.147   4.660
  192POPC   C2B 2735   8.806   6.005   5.086
  192POPC   C3B 2736   8.764   6.206   5.485
  192POPC   C4B 2737   8.512   6.385   5.827
  193POPC   NC3 2738   9.702   8.091   3.860
  193POPC   PO4 2739   9.036   8.152   3.967
  193POPC   GL1 2740   9.209   8.158   4.352
  193POPC   GL2 2741   9.542   8.077   4.343
  193POPC   C1A 2742   9.453   8.338   4.753
  193POPC   D2A 2743   9.584   8.091   5.108
  193POPC   C3A 2744   9.430   8.244   5.511
  193POPC   C4A 2745   9.195   8.206   5.895
  193POPC   C1B 2746   9.349   7.846   4.712
  193POPC   C2B 2747   9.322   7.644   5.113
  193POPC   C3B 2748   9.550   7.713   5.514
  193POPC   C4B 2749   9.863   7.682   5.867
  194POPC   NC3 2750   1.206   2.957   3.983
  194POPC   PO4 2751   1.068   2.333   3.693
  194POPC   GL1 2752   1.268   2.299   4.183
  194POPC   GL2 2753   1.159   2.607   4.324
  194POPC   C1A 2754   1.213   2.299   4.692
  194POPC   D2A 2755   1.344   2.484   5.086
  194POPC   C3A 2756   1.177   2.437   5.534
  194POPC   C4A 2757   1.361   2.408   5.964
  194POPC   C1B 2758   1.067   2.809   4.730
  194POPC   C2B 2759   0.921   2.766   5.134
  194POPC   C3B 2760   1.059   2.932   5.537
  194POPC   C4B 2761   0.843   3.061   5.867
  195POPC   NC3 2762   6.599   1.060   3.458
  195POPC   PO4 2763   7.135   1.132   3.883
  195POPC   GL1 2764   7.134   1.017   4.275
  195POPC   GL2 2765   7.175   1.337   4.412
  195POPC   C1A 2766   7.042   0.698   4.625
  195POPC   D2A 2767   7.103   0.808   5.041
  195POPC   C3A 2768   6.869   0.704   5.382
  195POPC   C4A 2769   6.939   0.798   5.778
  195POPC   C1B 2770   7.466   1.027   4.642
  195POPC   C2B 2771   7.601   0.906   5.037
  195POPC   C3B 2772   7.365   1.191   5.309
  195POPC   C4B 2773   7.325   1.148   5.746
  196POPC   NC3 2774   1.904   1.286   3.931
  196POPC   PO4 2775   2.449   1.556   3.941
  196POPC   GL1 2776   2.195   1.461   4.332
  196POPC   GL2 2777   2.085   1.097   4.358
  196POPC   C1A 2778   2.066   1.357   4.782
  196POPC   D2A 2779   2.122   1.105   5.126
  196POPC   C3A 2780   2.098   1.404   5.431
  196POPC   C4A 2781   2.082   1.392   5.858
  196POPC   C1B 2782   1.783   0.951   4.670
  196POPC   C2B 2783   1.630   0.947   5.092
  196POPC   C3B 2784   1.768   1.015   5.526
  196POPC   C4B 2785   1.937   0.928   5.955
  197POPC   NC3 2786   3.403   9.239   4.051
  197POPC   PO4 2787   4.104   9.145   4.043
  197POPC   GL1 2788   3.785   9.174   4.369
  197POPC   GL2 2789   3.673   9.541   4.342
  197POPC   C1A 2790   3.726   9.195   4.820
  197POPC   D2A 2791   3.678   9.197   5.257
  197POPC   C3A 2792   3.866   9.556   5.411
  197POPC   C4A 2793   3.708   9.730   5.768
  197POPC   C1B 2794   3.392   9.545   4.679
  197POPC   C2B 2795   3.406   9.668   5.094
  197POPC   C3B 2796   3.347   9.517   5.472
  197POPC   C4B 2797   3.018   9.391   5.712
  198POPC   NC3 2798   8.436  10.257   3.503
  198POPC   PO4 2799   7.756  10.305   3.712
  198POPC   GL1 2800   7.920  10.260   4.174
  198POPC   GL2 2801   7.602  10.307   4.304
  198POPC   C1A 2802   8.222  10.275   4.545
  198POPC   D2A 2803   8.307   9.997   4.932
  198POPC   C3A 2804   8.135  10.121   5.363
  198POPC   C4A 2805   8.139  10.407   5.743
  198POPC   C1B 2806   7.793  10.036   4.621
  198POPC   C2B 2807   7.730   9.896   5.036
  198POPC   C3B 2808   7.579  10.060   5.407
  198POPC   C4B 2809   7.784  10.036   5.777
  199POPC   NC3 2810   4.944   1.891   3.768
  199POPC   PO4 2811   4.526   2.277   3.934
  199POPC   GL1 2812   4.741   1.952   4.248
  199POPC   GL2 2813   5.012   1.668   4.254
  199POPC   C1A 2814   4.681   1.713   4.656
  199POPC   D2A 2815   4.890   1.671   5.074
  199POPC   C3A 2816   4.665   1.694   5.479
  199POPC   C4A 2817   4.680   1.934   5.863
  199POPC   C1B 2818   5.224   1.761   4.656
  199POPC   C2B 2819   5.245   2.039   5.034
  199POPC   C3B 2820   4.963   2.113   5.409
  199POPC   C4B 2821   5.171   2.153   5.821
  200POPC   NC3 2822   2.541   2.042   4.107
  200POPC   PO4 2823   2.065   2.265   3.657
  200POPC   GL1 2824   1.890   2.281   4.111
  200POPC   GL2 2825   2.000   1.960   4.250
  200POPC   C1A 2826   1.713   2.297   4.552
  200POPC   D2A 2827   1.829   2.226   5.015
  200POPC   C3A 2828   1.665   2.323   5.446
  200POPC   C4A 2829   1.458   2.015   5.682
  200POPC   C1B 2830   1.915   1.827   4.675
  200POPC   C2B 2831   1.817   1.708   5.126
  200POPC   C3B 2832   1.943   1.869   5.566
  200POPC   C4B 2833   1.748   1.735   5.988
  201POPC   NC3 2834   3.028   3.526   4.064
  201POPC   PO4 2835   2.437   3.171   3.859
  201POPC   GL1 2836   2.363   3.327   4.269
  201POPC   GL2 2837   2.717   3.339   4.435
  201POPC   C1A 2838   2.295   3.484   4.686
  201POPC   D2A 2839   2.586   3.359   5.016
  201POPC   C3A 2840   2.520   3.350   5.439
  201POPC   C4A 2841   2.810   3.271   5.801
  201POPC   C1B 2842   2.722   3.751   4.730
  201POPC   C2B 2843   2.565   3.857   5.196
  201POPC   C3B 2844   2.628   3.784   5.699
  201POPC   C4B 2845   2.892   3.684   6.102
  202POPC   NC3 2846   5.267   9.347   3.905
  202POPC   PO4 2847   4.705   9.717   3.966
  202POPC   GL1 2848   4.845   9.697   4.378
  202POPC   GL2 2849   5.139   9.510   4.363
  202POPC   C1A 2850   4.938   9.593   4.814
  202POPC   D2A 2851   4.655   9.450   5.081
  202POPC   C3A 2852   4.744   9.426   5.503
  202POPC   C4A 2853   4.665   9.131   5.819
  202POPC   C1B 2854   5.239   9.198   4.710
  202POPC   C2B 2855   5.110   9.041   5.146
  202POPC   C3B 2856   5.148   9.111   5.612
  202POPC   C4B 2857   5.177   9.103   6.074
  203POPC   NC3 2858   9.417   2.878   3.918
  203POPC   PO4 2859   9.422   2.233   3.713
  203POPC   GL1 2860   9.408   2.365   4.165
  203POPC   GL2 2861   9.487   2.678   4.363
  203POPC   C1A 2862   9.295   2.267   4.584
  203POPC   D2A 2863   9.328   2.244   5.053
  203POPC   C3A 2864   9.736   2.366   5.291
  203POPC   C4A 2865   9.737   2.355   5.772
  203POPC   C1B 2866   9.625   2.595   4.780
  203POPC   C2B 2867   9.412   2.757   5.116
  203POPC   C3B 2868   9.410   2.651   5.527
  203POPC   C4B 2869   9.465   2.803   5.889
  204POPC   NC3 2870   2.220   5.126   4.047
  204POPC   PO4 2871   1.582   4.919   3.968
  204POPC   GL1 2872   1.716   5.167   4.307
  204POPC   GL2 2873   1.927   4.884   4.390
  204POPC   C1A 2874   1.692   5.436   4.728
  204POPC   D2A 2875   1.884   5.439   5.151
  204POPC   C3A 2876   1.639   5.424   5.542
  204POPC   C4A 2877   1.802   5.149   5.883
  204POPC   C1B 2878   2.044   5.049   4.786
  204POPC   C2B 2879   2.167   4.961   5.196
  204POPC   C3B 2880   2.060   4.838   5.554
  204POPC   C4B 2881   2.186   4.472   5.715
  205POPC   NC3 2882   2.213   5.774   3.645
  205POPC   PO4 2883   1.625   5.752   3.898
  205POPC   GL1 2884   1.969   5.581   4.129
  205POPC   GL2 2885   2.156   5.881   4.162
  205POPC   C1A 2886   2.164   5.524   4.563
  205POPC   D2A 2887   2.156   5.787   4.914
  205POPC   C3A 2888   2.275   5.753   5.376
  205POPC   C4A 2889   2.166   5.354   5.584
  205POPC   C1B 2890   1.814   5.902   4.504
  205POPC   C2B 2891   1.704   6.000   4.908
  205POPC   C3B 2892   1.793   5.932   5.334
  205POPC   C4B 2893   1.925   5.818   5.747
  206POPC   NC3 2894   5.821   0.682   3.959
  206POPC   PO4 2895   5.985   0.044   3.960
  206POPC   GL1 2896   5.801   0.006   4.359
  206POPC   GL2 2897   5.721   0.339   4.341
  206POPC   C1A 2898   5.787   0.110   4.802
  206POPC   D2A 2899   5.528   0.214   5.117
  206POPC   C3A 2900   5.700   0.160   5.478
  206POPC   C4A 2901   6.109   0.271   5.623
  206POPC   C1B 2902   5.517   0.526   4.686
  206POPC   C2B 2903   5.540   0.791   5.035
  206POPC   C3B 2904   5.412   0.765   5.459
  206POPC   C4B 2905   5.730   0.604   5.709
  207POPC   NC3 2906   6.619   1.283   3.990
  207POPC   PO4 2907   6.638   0.715   3.777
  207POPC   GL1 2908   6.648   0.866   4.250
  207POPC   GL2 2909   6.334   1.071   4.377
  207POPC   C1A 2910   6.737   1.102   4.665
  207POPC   D2A 2911   6.585   1.023   5.093
  207POPC   C3A 2912   6.857   1.214   5.412
  207POPC   C4A 2913   6.905   1.395   5.821
  207POPC   C1B 2914   6.256   1.426   4.640
  207POPC   C2B 2915   6.391   1.544   5.053
  207POPC   C3B 2916   6.300   1.310   5.425
  207POPC   C4B 2917   6.496   1.096   5.751
  208POPC   NC3 2918   6.802   3.196   3.605
  208POPC   PO4 2919   6.746   2.681   3.983
  208POPC   GL1 2920   7.108   2.667   4.280
  208POPC   GL2 2921   7.232   2.315   4.300
  208POPC   C1A 2922   7.234   2.962   4.636
  208POPC   D2A 2923   7.235   3.191   5.055
  208POPC   C3A 2924   7.257   3.067   5.516
  208POPC   C4A 2925   7.158   3.108   5.995
  208POPC   C1B 2926   7.355   2.475   4.692
  208POPC   C2B 2927   7.255   2.664   5.055
  208POPC   C3B 2928   7.419   2.603   5.449
  208POPC   C4B 2929   7.243   2.625   5.837
  209POPC   NC3 2930   9.911   3.710   3.666
  209POPC   PO4 2931  10.394   3.990   3.901
  209POPC   GL1 2932  10.210   4.157   4.259
  209POPC   GL2 2933  10.307   4.438   4.378
  209POPC   C1A 2934   9.958   4.183   4.639
  209POPC   D2A 2935   9.735   4.321   5.015
  209POPC   C3A 2936   9.935   4.074   5.315
  209POPC   C4A 2937   9.959   4.119   5.699
  209POPC   C1B 2938  10.464   4.119   4.687
  209POPC   C2B 2939  10.393   3.963   5.081
  209POPC   C3B 2940  10.414   4.260   5.397
  209POPC   C4B 2941  10.373   4.407   5.784
  210POPC   NC3 2942   7.805   3.326   4.108
  210POPC   PO4 2943   8.224   3.720   4.022
  210POPC   GL1 2944   8.133   3.543   4.441
  210POPC   GL2 2945   8.107   3.160   4.508
  210POPC   C1A 2946   8.175   3.536   4.912
  210POPC   D2A 2947   8.130   3.188   5.215
  210POPC   C3A 2948   8.089   3.323   5.660
  210POPC   C4A 2949   7.968   3.651   5.956
  210POPC   C1B 2950   7.740   3.315   4.803
  210POPC   C2B 2951   7.666   3.407   5.269
  210POPC   C3B 2952   7.562   3.444   5.715
  210POPC   C4B 2953   7.577   3.388   6.183
  211POPC   NC3 2954   0.270   8.911   3.995
  211POPC   PO4 2955   0.562   8.324   3.946
  211POPC   GL1 2956   0.525   8.519   4.320
  211POPC   GL2 2957   0.189   8.610   4.395
  211POPC   C1A 2958   0.473   8.368   4.728
  211POPC   D2A 2959   0.481   8.091   5.042
  211POPC   C3A 2960   0.419   8.314   5.404
  211POPC   C4A 2961   0.533   8.567   5.745
  211POPC   C1B 2962   0.448   8.915   4.647
  211POPC   C2B 2963   0.459   9.075   5.047
  211POPC   C3B 2964   0.338   8.868   5.394
  211POPC   C4B 2965   0.172   8.960   5.781
  212POPC   NC3 2966   2.338   6.838   3.789
  212POPC   PO4 2967   1.706   6.746   3.962
  212POPC   GL1 2968   1.797   6.824   4.386
  212POPC   GL2 2969   2.114   6.641   4.358
  212POPC   C1A 2970   1.789   6.659   4.802
  212POPC   D2A 2971   1.711   6.429   5.159
  212POPC   C3A 2972   1.766   6.581   5.553
  212POPC   C4A 2973   1.856   6.348   5.951
  212POPC   C1B 2974   2.120   6.279   4.676
  212POPC   C2B 2975   2.186   6.235   5.126
  212POPC   C3B 2976   2.149   6.237   5.557
  212POPC   C4B 2977   2.372   6.416   5.892
  213POPC   NC3 2978  10.136   4.444   3.850
  213POPC   PO4 2979   9.993   5.134   3.733
  213POPC   GL1 2980   9.986   4.852   4.128
  213POPC   GL2 2981  10.301   4.929   4.210
  213POPC   C1A 2982   9.956   4.700   4.603
  213POPC   D2A 2983  10.215   4.503   4.972
  213POPC   C3A 2984  10.025   4.579   5.388
  213POPC   C4A 2985   9.906   4.594   5.835
  213POPC   C1B 2986  10.266   5.099   4.642
  213POPC   C2B 2987  10.126   5.006   5.062
  213POPC   C3B 2988   9.973   5.073   5.489
  213POPC   C4B 2989  10.212   4.972   5.833
  214POPC   NC3 2990   3.368   2.549   3.817
  214POPC   PO4 2991   3.205   3.122   4.140
  214POPC   GL1 2992   3.503   2.779   4.273
  214POPC   GL2 2993   3.323   2.475   4.316
  214POPC   C1A 2994   3.774   2.705   4.668
  214POPC   D2A 2995   3.843   2.848   5.116
  214POPC   C3A 2996   3.661   2.779   5.550
  214POPC   C4A 2997   3.593   2.643   5.984
  214POPC   C1B 2998   3.277   2.712   4.728
  214POPC   C2B 2999   3.276   2.755   5.174
  214POPC   C3B 3000   3.182   2.586   5.589
  214POPC   C4B 3001   3.121   2.853   5.942
  215POPC   NC3 3002   1.433   8.857   3.871
  215POPC   PO4 3003   2.152   9.151   3.867
  215POPC   GL1 3004   2.043   8.915   4.220
  215POPC   GL2 3005   1.803   8.634   4.236
  215POPC   C1A 3006   2.023   8.837   4.657
  215POPC   D2A 3007   1.881   8.699   5.054
  215POPC   C3A 3008   2.096   8.754   5.420
  215POPC   C4A 3009   2.300   8.827   5.780
  215POPC   C1B 3010   1.682   8.434   4.640
  215POPC   C2B 3011   1.684   8.182   5.007
  215POPC   C3B 3012   1.899   8.238   5.371
  215POPC   C4B 3013   2.054   8.364   5.762
  216POPC   NC3 3014   0.505   9.407   3.677
  216POPC   PO4 3015  10.372   9.012   3.778
  216POPC   GL1 3016  10.456   9.141   4.287
  216POPC   GL2 3017   0.318   9.315   4.343
  216POPC   C1A 3018   0.018   9.223   4.754
  216POPC   D2A 3019   0.204   9.532   5.040
  216POPC   C3A 3020   0.296   9.373   5.456
  216POPC   C4A 3021   0.029   9.549   5.760
  216POPC   C1B 3022   0.604   9.449   4.734
  216POPC   C2B 3023   0.718   9.540   5.209
  216POPC   C3B 3024   0.662   9.748   5.680
  216POPC   C4B 3025   0.758   9.667   6.169
  217POPC   NC3 3026   4.165   7.899   3.880
  217POPC   PO4 3027   3.700   8.272   3.830
  217POPC   GL1 3028   3.834   8.094   4.259
  217POPC   GL2 3029   4.173   7.947   4.384
  217POPC   C1A 3030   3.783   7.851   4.681
  217POPC   D2A 3031   3.784   8.050   5.101
  217POPC   C3A 3032   3.878   7.814   5.501
  217POPC   C4A 3033   4.161   7.740   5.855
  217POPC   C1B 3034   4.317   8.052   4.826
  217POPC   C2B 3035   4.306   7.974   5.272
  217POPC   C3B 3036   4.630   7.880   5.601
  217POPC   C4B 3037   4.839   7.682   5.962
  218POPC   NC3 3038   0.616   7.040   4.055
  218POPC   PO4 3039   0.058   7.123   3.680
  218POPC   GL1 3040   0.152   7.146   4.208
  218POPC   GL2 3041   0.415   7.410   4.352
  218POPC   C1A 3042   0.160   7.146   4.703
  218POPC   D2A 3043   0.416   7.322   5.066
  218POPC   C3A 3044   0.316   7.362   5.514
  218POPC   C4A 3045   0.294   7.423   5.971
  218POPC   C1B 3046   0.684   7.123   4.674
  218POPC   C2B 3047   0.881   7.027   5.051
  218POPC   C3B 3048   0.820   7.272   5.394
  218POPC   C4B 3049   0.689   7.145   5.785
  219POPC   NC3 3050   0.894   0.528   4.183
  219POPC   PO4 3051   0.281   0.323   3.880
  219POPC   GL1 3052   0.401   0.544   4.248
  219POPC   GL2 3053   0.099   0.649   4.252
  219POPC   C1A 3054   0.482   0.557   4.706
  219POPC   D2A 3055   0.710   0.377   5.046
  219POPC   C3A 3056   0.765   0.648   5.397
  219POPC   C4A 3057   0.712   0.441   5.784
  219POPC   C1B 3058   0.113   0.271   4.538
  219POPC   C2B 3059   0.076   0.350   4.988
  219POPC   C3B 3060   0.315   0.356   5.369
  219POPC   C4B 3061   0.179   0.337   5.748
  220POPC   NC3 3062   6.454   2.799   4.318
  220POPC   PO4 3063   6.068   2.343   4.096
  220POPC   GL1 3064   6.369   2.315   4.439
  220POPC   GL2 3065   6.715   2.334   4.376
  220POPC   C1A 3066   6.376   2.428   4.858
  220POPC   D2A 3067   6.420   2.674   5.222
  220POPC   C3A 3068   6.247   2.506   5.589
  220POPC   C4A 3069   6.228   2.720   6.002
  220POPC   C1B 3070   6.869   2.453   4.718
  220POPC   C2B 3071   6.831   2.398   5.114
  220POPC   C3B 3072   6.901   2.655   5.432
  220POPC   C4B 3073   6.715   2.624   5.795
  221POPC   NC3 3074   1.738   8.177   3.998
  221POPC   PO4 3075   1.561   7.518   3.978
  221POPC   GL1 3076   1.984   7.743   4.199
  221POPC   GL2 3077   1.981   8.074   4.422
  221POPC   C1A 3078   2.248   7.700   4.644
  221POPC   D2A 3079   2.208   7.932   5.026
  221POPC   C3A 3080   2.133   7.720   5.406
  221POPC   C4A 3081   2.147   7.436   5.742
  221POPC   C1B 3082   1.747   7.793   4.670
  221POPC   C2B 3083   1.760   7.601   5.055
  221POPC   C3B 3084   1.627   7.653   5.464
  221POPC   C4B 3085   1.811   7.906   5.767
  222POPC   NC3 3086   1.072   7.791   3.921
  222POPC   PO4 3087   1.363   8.435   4.029
  222POPC   GL1 3088   1.321   8.218   4.358
  222POPC   GL2 3089   1.436   7.898   4.277
  222POPC   C1A 3090   1.193   8.257   4.779
  222POPC   D2A 3091   0.983   8.208   5.169
  222POPC   C3A 3092   1.324   8.244   5.469
  222POPC   C4A 3093   1.538   8.316   5.870
  222POPC   C1B 3094   1.238   7.774   4.615
  222POPC   C2B 3095   1.301   7.813   5.033
  222POPC   C3B 3096   1.115   7.781   5.403
  222POPC   C4B 3097   1.282   7.864   5.789
  223POPC   NC3 3098   0.187   7.919   3.900
  223POPC   PO4 3099   0.743   7.847   3.603
  223POPC   GL1 3100   0.630   7.859   4.152
  223POPC   GL2 3101   0.332   8.014   4.370
  223POPC   C1A 3102   0.753   7.918   4.623
  223POPC   D2A 3103   0.812   7.638   4.993
  223POPC   C3A 3104   0.612   7.765   5.393
  223POPC   C4A 3105   0.764   8.087   5.693
  223POPC   C1B 3106   0.252   7.728   4.745
  223POPC   C2B 3107   0.099   7.722   5.183
  223POPC   C3B 3108   0.160   7.831   5.632
  223POPC   C4B 3109   0.142   8.228   5.839
  224POPC   NC3 3110  10.170   3.670   4.132
  224POPC   PO4 3111   9.697   3.282   3.749
  224POPC   GL1 3112   9.875   3.235   4.227
  224POPC   GL2 3113  10.248   3.194   4.293
  224POPC   C1A 3114   9.959   3.392   4.696
  224POPC   D2A 3115  10.220   3.466   5.089
  224POPC   C3A 3116  10.032   3.551   5.512
  224POPC   C4A 3117   9.965   3.693   5.954
  224POPC   C1B 3118  10.455   3.130   4.692
  224POPC   C2B 3119  10.465   3.020   5.101
  224POPC   C3B 3120  10.288   3.070   5.480
  224POPC   C4B 3121  10.310   3.261   5.870
  225POPC   NC3 3122   1.863   0.552   4.035
  225POPC   PO4 3123   2.300   0.905   3.924
  225POPC   GL1 3124   2.277   0.623   4.317
  225POPC   GL2 3125   1.908   0.476   4.505
  225POPC   C1A 3126   2.229   0.766   4.729
  225POPC   D2A 3127   1.963   0.543   4.996
  225POPC   C3A 3128   2.063   0.624   5.387
  225POPC   C4A 3129   2.180   0.518   5.781
  225POPC   C1B 3130   1.617   0.163   4.686
  225POPC   C2B 3131   1.696   0.080   5.102
  225POPC   C3B 3132   1.595   0.442   5.334
  225POPC   C4B 3133   1.631   0.570   5.745
  226POPC   NC3 3134   7.265   1.630   3.940
  226POPC   PO4 3135   7.939   1.500   4.008
  226POPC   GL1 3136   7.635   1.581   4.329
  226POPC   GL2 3137   7.365   1.830   4.379
  226POPC   C1A 3138   7.531   1.574   4.775
  226POPC   D2A 3139   7.711   1.813   5.105
  226POPC   C3A 3140   7.423   1.734   5.435
  226POPC   C4A 3141   7.250   1.789   5.831
  226POPC   C1B 3142   7.172   1.999   4.739
  226POPC   C2B 3143   7.275   2.151   5.137
  226POPC   C3B 3144   7.129   2.200   5.565
  226POPC   C4B 3145   6.940   2.206   6.005
  227POPC   NC3 3146   7.905   7.997   3.924
  227POPC   PO4 3147   8.398   7.531   3.988
  227POPC   GL1 3148   8.082   7.597   4.271
  227POPC   GL2 3149   7.880   7.870   4.406
  227POPC   C1A 3150   8.070   7.549   4.737
  227POPC   D2A 3151   8.154   7.819   5.105
  227POPC   C3A 3152   8.118   7.625   5.523
  227POPC   C4A 3153   7.927   7.559   5.918
  227POPC   C1B 3154   7.625   7.800   4.771
  227POPC   C2B 3155   7.684   8.001   5.165
  227POPC   C3B 3156   7.651   7.894   5.610
  227POPC   C4B 3157   7.761   8.058   6.037
  228POPC   NC3 3158   4.355   2.690   3.890
  228POPC   PO4 3159   3.810   2.271   3.869
  228POPC   GL1 3160   3.866   2.368   4.280
  228POPC   GL2 3161   4.195   2.502   4.347
  228POPC   C1A 3162   3.930   2.224   4.697
  228POPC   D2A 3163   4.129   2.385   5.087
  228POPC   C3A 3164   4.144   2.609   5.470
  228POPC   C4A 3165   4.038   2.455   5.850
  228POPC   C1B 3166   4.295   2.712   4.749
  228POPC   C2B 3167   4.346   2.950   5.139
  228POPC   C3B 3168   4.290   3.086   5.577
  228POPC   C4B 3169   4.511   2.928   5.970
  229POPC   NC3 3170   9.652   5.306   4.001
  229POPC   PO4 3171   9.132   5.071   3.660
  229POPC   GL1 3172   9.251   4.914   4.199
  229POPC   GL2 3173   9.549   4.998   4.359
  229POPC   C1A 3174   9.158   5.053   4.662
  229POPC   D2A 3175   9.301   5.288   5.044
  229POPC   C3A 3176   9.198   5.091   5.464
  229POPC   C4A 3177   9.145   5.237   5.881
  229POPC   C1B 3178   9.693   5.126   4.743
  229POPC   C2B 3179   9.634   4.884   5.118
  229POPC   C3B 3180   9.541   4.707   5.504
  229POPC   C4B 3181   9.490   4.838   5.942
  230POPC   NC3 3182   7.954   7.187   3.940
  230POPC   PO4 3183   7.587   7.671   4.043
  230POPC   GL1 3184   7.651   7.368   4.399
  230POPC   GL2 3185   7.973   7.139   4.433
  230POPC   C1A 3186   7.663   7.252   4.836
  230POPC   D2A 3187   7.746   7.488   5.213
  230POPC   C3A 3188   7.531   7.389   5.624
  230POPC   C4A 3189   7.553   7.170   6.044
  230POPC   C1B 3190   8.152   6.996   4.808
  230POPC   C2B 3191   8.058   6.890   5.277
  230POPC   C3B 3192   7.963   7.047   5.737
  230POPC   C4B 3193   8.054   7.154   6.207
  231POPC   NC3 3194  10.492   6.289   4.008
  231POPC   PO4 3195   9.928   6.013   3.967
  231POPC   GL1 3196  10.080   6.273   4.298
  231POPC   GL2 3197  10.180   6.642   4.265
  231POPC   C1A 3198  10.267   6.235   4.698
  231POPC   D2A 3199  10.083   6.330   5.090
  231POPC   C3A 3200  10.233   6.068   5.434
  231POPC   C4A 3201  10.198   6.160   5.836
  231POPC   C1B 3202  10.325   6.740   4.725
  231POPC   C2B 3203  10.440   6.690   5.173
  231POPC   C3B 3204  10.141   6.583   5.555
  231POPC   C4B 3205   9.913   6.517   6.006
  232POPC   NC3 3206   5.591  10.311   3.912
  232POPC   PO4 3207   5.961   9.755   3.901
  232POPC   GL1 3208   5.900  10.012   4.253
  232POPC   GL2 3209   5.530  10.015   4.309
  232POPC   C1A 3210   5.807  10.102   4.711
  232POPC   D2A 3211   5.824  10.233   5.146
  232POPC   C3A 3212   6.029   9.977   5.458
  232POPC   C4A 3213   5.760  10.216   5.703
  232POPC   C1B 3214   5.218   9.985   4.612
  232POPC   C2B 3215   5.355  10.013   5.014
  232POPC   C3B 3216   5.513   9.895   5.395
  232POPC   C4B 3217   5.279   9.908   5.780
  233POPC   NC3 3218   0.551  10.403   3.877
  233POPC   PO4 3219   0.336   9.818   3.734
  233POPC   GL1 3220   0.301   9.833   4.260
  233POPC   GL2 3221   0.293  10.227   4.296
  233POPC   C1A 3222   0.436   9.955   4.701
  233POPC   D2A 3223   0.528   9.984   5.131
  233POPC   C3A 3224   0.243   9.867   5.428
  233POPC   C4A 3225   0.224  10.053   5.798
  233POPC   C1B 3226   0.552  10.484   4.569
  233POPC   C2B 3227   0.373  10.453   4.968
  233POPC   C3B 3228   0.273  10.365   5.380
  233POPC   C4B 3229   0.526  10.476   5.707
  234POPC   NC3 3230  10.488  10.037   3.935
  234POPC   PO4 3231  10.181   0.070   3.808
  234POPC   GL1 3232  10.272  10.347   4.269
  234POPC   GL2 3233  10.017  10.148   4.460
  234POPC   C1A 3234  10.318  10.429   4.734
  234POPC   D2A 3235  10.087   0.037   5.066
  234POPC   C3A 3236  10.333   0.148   5.410
  234POPC   C4A 3237  10.406  10.437   5.797
  234POPC   C1B 3238  10.394   9.933   4.616
  234POPC   C2B 3239   0.021  10.039   5.011
  234POPC   C3B 3240  10.315  10.136   5.384
  234POPC   C4B 3241  10.154  10.008   5.792
  235POPC   NC3 3242   3.376   0.570   3.978
  235POPC   PO4 3243   3.341  10.424   3.947
  235POPC   GL1 3244   3.564   0.126   4.261
  235POPC   GL2 3245   3.282   0.285   4.375
  235POPC   C1A 3246   3.622   0.088   4.730
  235POPC   D2A 3247   3.297   0.041   5.091
  235POPC   C3A 3248   3.410   0.166   5.526
  235POPC   C4A 3249   3.569   0.301   5.945
  235POPC   C1B 3250   3.031   0.287   4.703
  235POPC   C2B 3251   2.971   0.512   5.045
  235POPC   C3B 3252   2.984   0.378   5.422
  235POPC   C4B 3253   3.182   0.578   5.757
  236POPC   NC3 3254   9.682   6.373   3.826
  236POPC   PO4 3255   9.148   6.616   4.136
  236POPC   GL1 3256   9.598   6.556   4.281
  236POPC   GL2 3257   9.589   6.188   4.399
  236POPC   C1A 3258   9.836   6.555   4.645
  236POPC   D2A 3259   9.547   6.665   4.958
  236POPC   C3A 3260   9.662   6.493   5.333
  236POPC   C4A 3261   9.658   6.752   5.654
  236POPC   C1B 3262   9.614   6.173   4.894
  236POPC   C2B 3263   9.221   6.305   5.157
  236POPC   C3B 3264   9.219   6.426   5.584
  236POPC   C4B 3265   9.576   6.210   5.758
  237POPC   NC3 3266   1.180   4.597   3.942
  237POPC   PO4 3267   0.843   5.181   3.899
  237POPC   GL1 3268   1.141   4.973   4.293
  237POPC   GL2 3269   1.427   4.696   4.380
  237POPC   C1A 3270   1.071   4.789   4.749
  237POPC   D2A 3271   0.971   5.056   5.118
  237POPC   C3A 3272   1.054   4.953   5.561
  237POPC   C4A 3273   1.316   5.094   5.925
  237POPC   C1B 3274   1.534   4.959   4.722
  237POPC   C2B 3275   1.485   5.120   5.130
  237POPC   C3B 3276   1.555   4.894   5.508
  237POPC   C4B 3277   1.349   4.535   5.714
  238POPC   NC3 3278   8.657   8.378   4.072
  238POPC   PO4 3279   8.446   8.937   3.960
  238POPC   GL1 3280   8.533   8.781   4.366
  238POPC   GL2 3281   8.899   8.739   4.336
  238POPC   C1A 3282   8.683   8.808   4.788
  238POPC   D2A 3283   8.622   8.603   5.160
  238POPC   C3A 3284   8.737   8.860   5.475
  238POPC   C4A 3285   8.467   8.970   5.757
  238POPC   C1B 3286   8.916   8.373   4.686
  238POPC   C2B 3287   9.059   8.193   5.087
  238POPC   C3B 3288   8.913   8.358   5.497
  238POPC   C4B 3289   8.514   8.454   5.729
  239POPC   NC3 3290   7.124   8.223   3.977
  239POPC   PO4 3291   6.905   8.896   3.860
  239POPC   GL1 3292   6.991   8.692   4.232
  239POPC   GL2 3293   7.318   8.558   4.316
  239POPC   C1A 3294   7.069   8.841   4.661
  239POPC   D2A 3295   7.240   8.941   5.068
  239POPC   C3A 3296   7.002   8.661   5.352
  239POPC   C4A 3297   6.783   8.575   5.733
  239POPC   C1B 3298   7.598   8.722   4.668
  239POPC   C2B 3299   7.745   8.784   5.099
  239POPC   C3B 3300   7.525   8.865   5.507
  239POPC   C4B 3301   7.271   8.605   5.791
  240POPC   NC3 3302   4.249   0.955   3.848
  240POPC   PO4 3303   3.859   1.538   3.844
  240POPC   GL1 3304   3.973   1.220   4.178
  240POPC   GL2 3305   4.283   1.117   4.316
  240POPC   C1A 3306   3.925   1.254   4.643
  240POPC   D2A 3307   4.143   1.276   5.059
  240POPC   C3A 3308   4.067   1.103   5.461
  240POPC   C4A 3309   3.982   1.255   5.857
  240POPC   C1B 3310   4.269   0.902   4.685
  240POPC   C2B 3311   4.174   0.728   5.059
  240POPC   C3B 3312   4.257   0.639   5.439
  240POPC   C4B 3313   4.350   0.788   5.805
  241POPC   NC3 3314   9.858   9.311   3.905
  241POPC   PO4 3315  10.053   9.928   4.021
  241POPC   GL1 3316   9.851   9.665   4.281
  241POPC   GL2 3317  10.179   9.555   4.350
  241POPC   C1A 3318   9.869   9.735   4.713
  241POPC   D2A 3319  10.188   9.577   4.986
  241POPC   C3A 3320  10.159   9.651   5.423
  241POPC   C4A 3321   9.875   9.590   5.797
  241POPC   C1B 3322  10.009   9.232   4.593
  241POPC   C2B 3323  10.073   9.053   4.991
  241POPC   C3B 3324  10.345   9.169   5.306
  241POPC   C4B 3325  10.192   9.182   5.709
  242POPC   NC3 3326   6.363   7.747   3.951
  242POPC   PO4 3327   6.320   8.368   4.064
  242POPC   GL1 3328   6.684   8.281   4.250
  242POPC   GL2 3329   6.625   7.969   4.364
  242POPC   C1A 3330   6.866   8.356   4.642
  242POPC   D2A 3331   6.961   8.184   5.048
  242POPC   C3A 3332   6.716   8.164   5.400
  242POPC   C4A 3333   6.730   8.075   5.820
  242POPC   C1B 3334   6.545   7.983   4.815
  242POPC   C2B 3335   6.534   7.735   5.190
  242POPC   C3B 3336   6.391   7.764   5.613
  242POPC   C4B 3337   6.531   7.615   6.025
  243POPC   NC3 3338   8.553   0.911   3.930
  243POPC   PO4 3339   8.803   1.511   4.024
  243POPC   GL1 3340   8.791   1.172   4.308
  243POPC   GL2 3341   9.052   1.337   4.464
  243POPC   C1A 3342   8.873   0.900   4.678
  243POPC   D2A 3343   8.668   0.957   5.093
  243POPC   C3A 3344   8.794   0.757   5.488
  243POPC   C4A 3345   8.665   0.940   5.877
  243POPC   C1B 3346   8.764   1.410   4.816
  243POPC   C2B 3347   8.660   1.481   5.258
  243POPC   C3B 3348   8.580   1.389   5.678
  243POPC   C4B 3349   8.558   1.443   6.130
  244POPC   NC3 3350   2.585   9.404   3.887
  244POPC   PO4 3351   2.888   8.822   4.023
  244POPC   GL1 3352   2.600   9.074   4.280
  244POPC   GL2 3353   2.863   9.343   4.308
  244POPC   C1A 3354   2.307   9.266   4.598
  244POPC   D2A 3355   2.337   9.054   5.015
  244POPC   C3A 3356   2.282   9.238   5.414
  244POPC   C4A 3357   2.485   9.286   5.829
  244POPC   C1B 3358   2.796   9.342   4.744
  244POPC   C2B 3359   2.825   9.563   5.125
  244POPC   C3B 3360   2.586   9.644   5.486
  244POPC   C4B 3361   2.715   9.741   5.920
  245POPC   NC3 3362   5.841   8.598   4.009
  245POPC   PO4 3363   5.327   8.255   4.065
  245POPC   GL1 3364   5.318   8.666   4.295
  245POPC   GL2 3365   5.637   8.773   4.424
  245POPC   C1A 3366   5.280   8.706   4.755
  245POPC   D2A 3367   5.444   8.482   5.098
  245POPC   C3A 3368   5.312   8.657   5.455
  245POPC   C4A 3369   5.446   8.698   5.865
  245POPC   C1B 3370   5.815   8.650   4.764
  245POPC   C2B 3371   5.964   8.569   5.160
  245POPC   C3B 3372   5.807   8.485   5.540
  245POPC   C4B 3373   5.981   8.689   5.879
  246POPC   NC3 3374   9.218   3.469   3.790
  246POPC   PO4 3375   9.712   3.706   4.090
  246POPC   GL1 3376   9.402   3.551   4.313
  246POPC   GL2 3377   9.369   3.216   4.274
  246POPC   C1A 3378   9.421   3.601   4.731
  246POPC   D2A 3379   9.694   3.750   5.022
  246POPC   C3A 3380   9.518   3.645   5.427
  246POPC   C4A 3381   9.587   3.400   5.818
  246POPC   C1B 3382   9.544   3.094   4.678
  246POPC   C2B 3383   9.620   3.237   5.113
  246POPC   C3B 3384   9.324   3.138   5.479
  246POPC   C4B 3385   9.098   3.154   5.882
  247POPC   NC3 3386   0.272   1.779   3.799
  247POPC   PO4 3387   0.833   1.858   4.060
  247POPC   GL1 3388   0.513   1.648   4.330
  247POPC   GL2 3389   0.129   1.729   4.289
  247POPC   C1A 3390   0.384   1.801   4.735
  247POPC   D2A 3391   0.485   1.938   5.131
  247POPC   C3A 3392   0.557   1.674   5.446
  247POPC   C4A 3393   0.743   1.657   5.823
  247POPC   C1B 3394   0.069   2.148   4.519
  247POPC   C2B 3395   0.038   2.125   4.979
  247POPC   C3B 3396   0.166   2.213   5.416
  247POPC   C4B 3397   0.308   1.963   5.783
  248POPC   NC3 3398   9.437   0.251   3.901
  248POPC   PO4 3399   9.011   0.799   3.984
  248POPC   GL1 3400   9.187   0.569   4.344
  248POPC   GL2 3401   9.464   0.406   4.396
  248POPC   C1A 3402   9.334   0.688   4.783
  248POPC   D2A 3403   9.168   0.890   5.136
  248POPC   C3A 3404   9.329   0.728   5.527
  248POPC   C4A 3405   9.720   0.691   5.749
  248POPC   C1B 3406   9.364   0.151   4.784
  248POPC   C2B 3407   9.549   0.025   5.177
  248POPC   C3B 3408   9.463   0.215   5.580
  248POPC   C4B 3409   9.219   0.243   5.932
  249POPC   NC3 3410   8.508   3.331   3.924
  249POPC   PO4 3411   8.876   3.843   3.851
  249POPC   GL1 3412   8.705   3.671   4.227
  249POPC   GL2 3413   8.909   3.426   4.257
  249POPC   C1A 3414   8.581   3.442   4.628
  249POPC   D2A 3415   8.618   3.280   5.052
  249POPC   C3A 3416   8.451   3.560   5.349
  249POPC   C4A 3417   8.430   3.717   5.749
  249POPC   C1B 3418   9.043   3.258   4.661
  249POPC   C2B 3419   9.133   3.373   5.083
  249POPC   C3B 3420   8.935   3.479   5.496
  249POPC   C4B 3421   8.602   3.198   5.682
  250POPC   NC3 3422  10.151   5.636   3.746
  250POPC   PO4 3423   0.292   5.579   3.919
  250POPC   GL1 3424   0.114   5.600   4.333
  250POPC   GL2 3425  10.370   5.834   4.207
  250POPC   C1A 3426   0.035   5.505   4.786
  250POPC   D2A 3427   0.015   5.315   5.201
  250POPC   C3A 3428  10.255   5.515   5.487
  250POPC   C4A 3429  10.473   5.749   5.782
  250POPC   C1B 3430  10.138   5.747   4.564
  250POPC   C2B 3431  10.125   5.818   5.011
  250POPC   C3B 3432   9.767   5.917   5.322
  250POPC   C4B 3433   9.870   5.775   5.742
  251POPC   NC3 3434   9.008   9.872   3.697
  251POPC   PO4 3435   9.414   9.298   3.789
  251POPC   GL1 3436   9.342   9.467   4.195
  251POPC   GL2 3437   9.432   9.138   4.287
  251POPC   C1A 3438   9.345   9.656   4.624
  251POPC   D2A 3439   9.307   9.827   5.056
  251POPC   C3A 3440   9.517   9.738   5.420
  251POPC   C4A 3441   9.414   9.850   5.829
  251POPC   C1B 3442   9.514   9.205   4.690
  251POPC   C2B 3443   9.671   9.403   5.018
  251POPC   C3B 3444   9.797   9.307   5.375
  251POPC   C4B 3445   9.498   9.280   5.678
  252POPC   NC3 3446   3.080   5.517   4.058
  252POPC   PO4 3447   2.445   5.507   3.928
  252POPC   GL1 3448   2.610   5.583   4.298
  252POPC   GL2 3449   2.588   5.925   4.424
  252POPC   C1A 3450   2.649   5.496   4.736
  252POPC   D2A 3451   2.420   5.372   5.086
  252POPC   C3A 3452   2.656   5.306   5.490
  252POPC   C4A 3453   2.605   5.364   5.949
  252POPC   C1B 3454   2.608   5.993   4.882
  252POPC   C2B 3455   2.765   5.745   5.222
  252POPC   C3B 3456   2.786   5.775   5.664
  252POPC   C4B 3457   2.825   6.153   5.939
  253POPC   NC3 3458   2.063   3.443   3.814
  253POPC   PO4 3459   1.467   3.343   4.032
  253POPC   GL1 3460   1.823   3.248   4.243
  253POPC   GL2 3461   1.898   3.559   4.324
  253POPC   C1A 3462   1.916   3.146   4.670
  253POPC   D2A 3463   1.734   3.237   5.075
  253POPC   C3A 3464   1.940   3.191   5.464
  253POPC   C4A 3465   2.133   3.505   5.714
  253POPC   C1B 3466   1.816   3.654   4.756
  253POPC   C2B 3467   2.089   3.598   5.137
  253POPC   C3B 3468   1.760   3.688   5.396
  253POPC   C4B 3469   1.658   3.682   5.796
  254POPC   NC3 3470   0.277   4.190   3.804
  254POPC   PO4 3471   0.915   4.185   3.844
  254POPC   GL1 3472   0.577   4.313   4.187
  254POPC   GL2 3473   0.242   4.148   4.286
  254POPC   C1A 3474   0.507   4.400   4.636
  254POPC   D2A 3475   0.272   4.332   5.023
  254POPC   C3A 3476   0.389   4.447   5.425
  254POPC   C4A 3477   0.375   4.244   5.798
  254POPC   C1B 3478   0.513   3.901   4.541
  254POPC   C2B 3479   0.554   3.878   4.992
  254POPC   C3B 3480   0.311   3.927   5.382
  254POPC   C4B 3481  10.455   3.866   5.717
  255POPC   NC3 3482   5.054   1.286   3.901
  255POPC   PO4 3483   4.634   0.764   3.643
  255POPC   GL1 3484   4.716   0.993   4.075
  255POPC   GL2 3485   5.010   0.886   4.228
  255POPC   C1A 3486   4.739   1.174   4.522
  255POPC   D2A 3487   4.629   1.255   4.933
  255POPC   C3A 3488   4.557   1.014   5.300
  255POPC   C4A 3489   4.504   1.247   5.696
  255POPC   C1B 3490   5.103   0.818   4.655
  255POPC   C2B 3491   5.082   1.036   5.060
  255POPC   C3B 3492   4.961   1.278   5.408
  255POPC   C4B 3493   4.990   1.036   5.767
  256POPC   NC3 3494   8.041   8.764   3.805
  256POPC   PO4 3495   7.566   8.296   3.949
  256POPC   GL1 3496   7.823   8.382   4.308
  256POPC   GL2 3497   7.981   8.724   4.312
  256POPC   C1A 3498   7.880   8.267   4.753
  256POPC   D2A 3499   8.089   8.359   5.151
  256POPC   C3A 3500   7.774   8.387   5.478
  256POPC   C4A 3501   7.750   8.533   5.866
  256POPC   C1B 3502   8.181   8.679   4.731
  256POPC   C2B 3503   8.228   8.915   5.122
  256POPC   C3B 3504   8.044   8.818   5.550
  256POPC   C4B 3505   8.063   8.877   6.043
  257POPC   NC3 3506   2.796   4.412   3.649
  257POPC   PO4 3507   2.334   4.680   4.036
  257POPC   GL1 3508   2.242   4.464   4.430
  257POPC   GL2 3509   2.510   4.227   4.356
  257POPC   C1A 3510   2.222   4.504   4.899
  257POPC   D2A 3511   2.541   4.537   5.210
  257POPC   C3A 3512   2.628   4.278   5.555
  257POPC   C4A 3513   2.579   4.397   5.992
  257POPC   C1B 3514   2.645   4.251   4.785
  257POPC   C2B 3515   2.967   4.171   5.080
  257POPC   C3B 3516   3.142   4.235   5.493
  257POPC   C4B 3517   3.010   4.149   5.913
  258POPC   NC3 3518   5.738   1.351   3.833
  258POPC   PO4 3519   5.388   0.852   3.911
  258POPC   GL1 3520   5.455   1.151   4.237
  258POPC   GL2 3521   5.813   1.207   4.303
  258POPC   C1A 3522   5.361   1.253   4.676
  258POPC   D2A 3523   5.580   1.294   5.093
  258POPC   C3A 3524   5.435   1.268   5.544
  258POPC   C4A 3525   5.356   1.372   6.001
  258POPC   C1B 3526   5.855   0.965   4.647
  258POPC   C2B 3527   6.055   1.025   5.033
  258POPC   C3B 3528   5.870   1.015   5.429
  258POPC   C4B 3529   5.816   1.115   5.852
  259POPC   NC3 3530   9.225   5.841   4.064
  259POPC   PO4 3531   9.698   5.612   3.665
  259POPC   GL1 3532   9.677   5.703   4.274
  259POPC   GL2 3533   9.396   5.536   4.467
  259POPC   C1A 3534   9.694   5.676   4.804
  259POPC   D2A 3535   9.812   5.426   5.147
  259POPC   C3A 3536   9.542   5.467   5.483
  259POPC   C4A 3537   9.667   5.295   5.852
  259POPC   C1B 3538   9.241   5.920   4.705
  259POPC   C2B 3539   9.274   5.795   5.133
  259POPC   C3B 3540   9.221   5.902   5.548
  259POPC   C4B 3541   9.392   5.735   5.932
  260POPC   NC3 3542   6.174   9.360   3.780
  260POPC   PO4 3543   5.597   9.032   3.992
  260POPC   GL1 3544   5.595   9.258   4.342
  260POPC   GL2 3545   5.654   9.538   4.241
  260POPC   C1A 3546   5.779   9.186   4.765
  260POPC   D2A 3547   5.616   8.970   5.124
  260POPC   C3A 3548   5.723   9.007   5.553
  260POPC   C4A 3549   5.676   9.120   6.003
  260POPC   C1B 3550   5.520   9.614   4.696
  260POPC   C2B 3551   5.397   9.464   5.147
  260POPC   C3B 3552   5.481   9.461   5.633
  260POPC   C4B 3553   5.764   9.730   5.834
  261POPC   NC3 3554   9.363   6.974   3.921
  261POPC   PO4 3555   9.680   7.584   3.810
  261POPC   GL1 3556   9.548   7.568   4.243
  261POPC   GL2 3557   9.363   7.289   4.316
  261POPC   C1A 3558   9.644   7.444   4.680
  261POPC   D2A 3559   9.785   7.436   5.088
  261POPC   C3A 3560   9.540   7.207   5.365
  261POPC   C4A 3561   9.619   7.250   5.778
  261POPC   C1B 3562   9.127   7.385   4.682
  261POPC   C2B 3563   9.257   7.110   4.957
  261POPC   C3B 3564   9.182   6.827   5.274
  261POPC   C4B 3565   9.205   6.944   5.678
  262POPC   NC3 3566   2.707   1.820   3.665
  262POPC   PO4 3567   2.932   2.432   3.946
  262POPC   GL1 3568   2.872   2.241   4.431
  262POPC   GL2 3569   2.743   1.881   4.529
  262POPC   C1A 3570   2.743   2.184   4.914
  262POPC   D2A 3571   3.058   2.274   5.201
  262POPC   C3A 3572   2.969   2.097   5.619
  262POPC   C4A 3573   2.794   2.071   6.012
  262POPC   C1B 3574   2.415   1.738   4.726
  262POPC   C2B 3575   2.266   1.940   5.076
  262POPC   C3B 3576   2.490   1.982   5.429
  262POPC   C4B 3577   2.457   1.735   5.758
  263POPC   NC3 3578   4.167   1.951   3.887
  263POPC   PO4 3579   4.673   1.550   3.892
  263POPC   GL1 3580   4.331   1.632   4.274
  263POPC   GL2 3581   4.246   1.994   4.365
  263POPC   C1A 3582   4.153   1.700   4.751
  263POPC   D2A 3583   3.909   1.919   5.091
  263POPC   C3A 3584   3.855   1.780   5.513
  263POPC   C4A 3585   4.219   1.673   5.734
  263POPC   C1B 3586   4.443   2.174   4.713
  263POPC   C2B 3587   4.446   1.983   5.113
  263POPC   C3B 3588   4.322   2.128   5.522
  263POPC   C4B 3589   4.548   2.440   5.777
  264POPC   NC3 3590   2.972  10.155   3.978
  264POPC   PO4 3591   2.347   0.025   3.906
  264POPC   GL1 3592   2.557  10.252   4.267
  264POPC   GL2 3593   2.619   9.861   4.224
  264POPC   C1A 3594   2.815  10.310   4.673
  264POPC   D2A 3595   2.778   0.000   5.105
  264POPC   C3A 3596   2.994  10.383   5.495
  264POPC   C4A 3597   2.896  10.209   5.889
  264POPC   C1B 3598   2.485   9.793   4.654
  264POPC   C2B 3599   2.562  10.007   5.061
  264POPC   C3B 3600   2.522  10.153   5.495
  264POPC   C4B 3601   2.389  10.123   5.946
  265POPC   NC3 3602   4.326   0.375   3.736
  265POPC   PO4 3603   3.786   0.813   3.840
  265POPC   GL1 3604   3.932   0.688   4.258
  265POPC   GL2 3605   4.047   0.315   4.269
  265POPC   C1A 3606   3.800   0.621   4.698
  265POPC   D2A 3607   3.573   0.465   5.080
  265POPC   C3A 3608   3.800   0.469   5.469
  265POPC   C4A 3609   3.827   0.768   5.804
  265POPC   C1B 3610   4.250   0.367   4.687
  265POPC   C2B 3611   4.062   0.222   5.042
  265POPC   C3B 3612   4.241   0.128   5.400
  265POPC   C4B 3613   4.204   0.308   5.804
  266POPC   NC3 3614   1.334   7.020   3.896
  266POPC   PO4 3615   0.911   7.403   4.119
  266POPC   GL1 3616   1.085   7.056   4.331
  266POPC   GL2 3617   1.422   7.228   4.365
  266POPC   C1A 3618   1.323   6.835   4.642
  266POPC   D2A 3619   1.291   6.702   5.061
  266POPC   C3A 3620   1.231   6.891   5.491
  266POPC   C4A 3621   1.325   6.995   5.956
  266POPC   C1B 3622   1.195   7.309   4.774
  266POPC   C2B 3623   1.316   7.319   5.210
  266POPC   C3B 3624   1.225   7.377   5.660
  266POPC   C4B 3625   0.841   7.605   5.820
  267POPC   NC3 3626   7.471   2.510   3.892
  267POPC   PO4 3627   8.022   2.933   3.992
  267POPC   GL1 3628   7.997   2.592   4.247
  267POPC   GL2 3629   7.668   2.632   4.336
  267POPC   C1A 3630   8.092   2.477   4.640
  267POPC   D2A 3631   8.124   2.720   5.007
  267POPC   C3A 3632   8.081   2.514   5.406
  267POPC   C4A 3633   7.842   2.505   5.809
  267POPC   C1B 3634   7.726   2.823   4.706
  267POPC   C2B 3635   7.676   2.921   5.125
  267POPC   C3B 3636   7.802   2.935   5.516
  267POPC   C4B 3637   7.630   2.976   5.882
  268POPC   NC3 3638   1.702   9.280   3.764
  268POPC   PO4 3639   1.626   9.972   3.645
  268POPC   GL1 3640   1.789   9.848   4.127
  268POPC   GL2 3641   1.947   9.511   4.156
  268POPC   C1A 3642   1.957   9.713   4.614
  268POPC   D2A 3643   2.184   9.615   5.041
  268POPC   C3A 3644   1.938   9.608   5.447
  268POPC   C4A 3645   2.064   9.606   5.897
  268POPC   C1B 3646   1.752   9.245   4.482
  268POPC   C2B 3647   1.852   9.236   4.916
  268POPC   C3B 3648   1.735   9.137   5.318
  268POPC   C4B 3649   1.895   9.151   5.726
  269POPC   NC3 3650   9.147   1.875   3.808
  269POPC   PO4 3651   8.466   2.085   3.959
  269POPC   GL1 3652   8.791   2.115   4.308
  269POPC   GL2 3653   8.747   1.786   4.463
  269POPC   C1A 3654   8.869   2.147   4.793
  269POPC   D2A 3655   8.627   1.978   5.115
  269POPC   C3A 3656   8.680   2.161   5.504
  269POPC   C4A 3657   8.687   1.864   5.837
  269POPC   C1B 3658   8.397   2.068   4.645
  269POPC   C2B 3659   8.140   2.136   5.012
  269POPC   C3B 3660   8.185   2.010   5.415
  269POPC   C4B 3661   8.272   2.183   5.802
  270POPC   NC3 3662   2.892   2.887   3.879
  270POPC   PO4 3663   2.412   2.463   4.225
  270POPC   GL1 3664   2.549   2.838   4.290
  270POPC   GL2 3665   2.896   2.784   4.368
  270POPC   C1A 3666   2.430   2.998   4.681
  270POPC   D2A 3667   2.214   3.020   5.064
  270POPC   C3A 3668   2.355   2.869   5.437
  270POPC   C4A 3669   2.357   3.031   5.847
  270POPC   C1B 3670   2.781   2.648   4.745
  270POPC   C2B 3671   2.753   2.722   5.145
  270POPC   C3B 3672   2.662   2.468   5.470
  270POPC   C4B 3673   2.708   2.563   5.864
  271POPC   NC3 3674  10.096   8.676   3.620
  271POPC   PO4 3675  10.140   8.032   3.694
  271POPC   GL1 3676  10.101   8.352   4.072
  271POPC   GL2 3677  10.229   8.682   4.145
  271POPC   C1A 3678   9.953   8.345   4.525
  271POPC   D2A 3679  10.045   8.494   4.979
  271POPC   C3A 3680   9.939   8.333   5.367
  271POPC   C4A 3681   9.867   8.422   5.779
  271POPC   C1B 3682  10.268   8.772   4.603
  271POPC   C2B 3683   0.002   8.750   5.016
  271POPC   C3B 3684  10.358   8.678   5.471
  271POPC   C4B 3685  10.253   8.727   5.918
  272POPC   NC3 3686   8.883   4.740   3.931
  272POPC   PO4 3687   9.163   5.380   4.085
  272POPC   GL1 3688   8.789   5.260   4.327
  272POPC   GL2 3689   8.736   4.935   4.351
  272POPC   C1A 3690   8.625   5.172   4.765
  272POPC   D2A 3691   8.872   5.017   5.083
  272POPC   C3A 3692   8.656   5.055   5.418
  272POPC   C4A 3693   8.784   4.899   5.776
  272POPC   C1B 3694   8.794   4.679   4.707
  272POPC   C2B 3695   8.575   4.623   5.041
  272POPC   C3B 3696   8.556   4.535   5.410
  272POPC   C4B 3697   8.330   4.732   5.675
  273POPC   NC3 3698  10.138   3.111   3.789
  273POPC   PO4 3699   9.822   2.622   3.985
  273POPC   GL1 3700   9.989   2.750   4.388
  273POPC   GL2 3701  10.331   2.687   4.393
  273POPC   C1A 3702  10.036   2.891   4.811
  273POPC   D2A 3703   9.903   2.834   5.207
  273POPC   C3A 3704   9.812   3.005   5.585
  273POPC   C4A 3705   9.973   2.830   5.971
  273POPC   C1B 3706   0.003   2.609   4.809
  273POPC   C2B 3707  10.287   2.520   5.174
  273POPC   C3B 3708  10.166   2.556   5.571
  273POPC   C4B 3709  10.406   2.295   5.829
  274POPC   NC3 3710   0.343   0.782   3.811
  274POPC   PO4 3711   0.904   0.966   4.059
  274POPC   GL1 3712   0.642   0.992   4.417
  274POPC   GL2 3713   0.336   1.103   4.248
  274POPC   C1A 3714   0.596   1.016   4.890
  274POPC   D2A 3715   0.297   0.804   5.162
  274POPC   C3A 3716   0.321   0.810   5.630
  274POPC   C4A 3717   0.669   0.940   5.827
  274POPC   C1B 3718   0.212   1.319   4.627
  274POPC   C2B 3719   0.318   1.415   5.046
  274POPC   C3B 3720   0.272   1.260   5.416
  274POPC   C4B 3721   0.353   1.355   5.815
  275POPC   NC3 3722   4.302   9.578   3.776
  275POPC   PO4 3723   4.242  10.346   3.700
  275POPC   GL1 3724   4.171  10.291   4.149
  275POPC   GL2 3725   3.861  10.199   4.295
  275POPC   C1A 3726   4.292  10.358   4.598
  275POPC   D2A 3727   4.566   0.010   4.948
  275POPC   C3A 3728   4.670  10.344   5.387
  275POPC   C4A 3729   4.393  10.299   5.756
  275POPC   C1B 3730   3.943   9.995   4.679
  275POPC   C2B 3731   4.139  10.184   5.075
  275POPC   C3B 3732   4.018  10.054   5.491
  275POPC   C4B 3733   3.975  10.100   5.961
  276POPC   NC3 3734   6.520   9.010   4.103
  276POPC   PO4 3735   6.589   9.569   3.850
  276POPC   GL1 3736   6.390   9.515   4.245
  276POPC   GL2 3737   6.106   9.269   4.293
  276POPC   C1A 3738   6.469   9.361   4.667
  276POPC   D2A 3739   6.288   9.481   5.046
  276POPC   C3A 3740   6.440   9.466   5.460
  276POPC   C4A 3741   6.746   9.471   5.744
  276POPC   C1B 3742   6.023   9.628   4.608
  276POPC   C2B 3743   5.850   9.711   5.051
  276POPC   C3B 3744   5.931   9.470   5.424
  276POPC   C4B 3745   6.125   9.261   5.799
  277POPC   NC3 3746   1.358   5.342   3.933
  277POPC   PO4 3747   1.082   5.964   3.975
  277POPC   GL1 3748   1.071   5.582   4.263
  277POPC   GL2 3749   1.418   5.608   4.344
  277POPC   C1A 3750   1.105   5.329   4.667
  277POPC   D2A 3751   0.904   5.549   5.005
  277POPC   C3A 3752   1.041   5.454   5.432
  277POPC   C4A 3753   0.892   5.774   5.707
  277POPC   C1B 3754   1.281   5.807   4.692
  277POPC   C2B 3755   1.392   5.649   5.096
  277POPC   C3B 3756   1.306   5.872   5.439
  277POPC   C4B 3757   1.455   6.000   5.799
  278POPC   NC3 3758   1.157   3.833   3.682
  278POPC   PO4 3759   1.469   4.264   4.077
  278POPC   GL1 3760   1.270   4.165   4.407
  278POPC   GL2 3761   1.018   4.399   4.410
  278POPC   C1A 3762   1.439   4.115   4.809
  278POPC   D2A 3763   1.340   4.350   5.165
  278POPC   C3A 3764   1.394   4.064   5.488
  278POPC   C4A 3765   1.301   4.015   5.923
  278POPC   C1B 3766   0.935   4.193   4.806
  278POPC   C2B 3767   0.821   4.262   5.221
  278POPC   C3B 3768   0.895   4.283   5.652
  278POPC   C4B 3769   0.793   4.031   5.995
  279POPC   NC3 3770  10.104   1.448   3.915
  279POPC   PO4 3771  10.392   2.022   3.839
  279POPC   GL1 3772  10.140   1.902   4.202
  279POPC   GL2 3773  10.066   2.240   4.310
  279POPC   C1A 3774  10.205   1.812   4.638
  279POPC   D2A 3775  10.340   1.608   5.006
  279POPC   C3A 3776   0.040   1.725   5.350
  279POPC   C4A 3777  10.420   1.646   5.738
  279POPC   C1B 3778  10.075   2.328   4.732
  279POPC   C2B 3779  10.043   2.042   5.064
  279POPC   C3B 3780  10.154   2.055   5.460
  279POPC   C4B 3781  10.019   1.940   5.855
  280POPC   NC3 3782   9.270   3.988   4.054
  280POPC   PO4 3783   9.807   4.154   3.665
  280POPC   GL1 3784   9.716   4.213   4.161
  280POPC   GL2 3785   9.577   4.499   4.260
  280POPC   C1A 3786   9.473   4.108   4.624
  280POPC   D2A 3787   9.260   4.057   5.027
  280POPC   C3A 3788   9.437   4.168   5.432
  280POPC   C4A 3789   9.502   3.945   5.844
  280POPC   C1B 3790   9.452   4.623   4.691
  280POPC   C2B 3791   9.188   4.600   5.056
  280POPC   C3B 3792   9.054   4.570   5.479
  280POPC   C4B 3793   9.260   4.409   5.843
  281POPC   NC3 3794   2.630   7.794   3.804
  281POPC   PO4 3795   2.168   8.312   3.997
  281POPC   GL1 3796   2.460   7.992   4.260
  281POPC   GL2 3797   2.541   7.615   4.259
  281POPC   C1A 3798   2.621   8.135   4.691
  281POPC   D2A 3799   2.751   8.156   5.147
  281POPC   C3A 3800   2.406   8.149   5.451
  281POPC   C4A 3801   2.354   7.935   5.849
  281POPC   C1B 3802   2.798   7.670   4.634
  281POPC   C2B 3803   2.648   7.652   5.019
  281POPC   C3B 3804   2.646   7.713   5.432
  281POPC   C4B 3805   2.727   7.582   5.825
  282POPC   NC3 3806   0.746   6.279   3.946
  282POPC   PO4 3807   0.252   6.653   4.105
  282POPC   GL1 3808   0.489   6.458   4.387
  282POPC   GL2 3809   0.722   6.677   4.380
  282POPC   C1A 3810   0.395   6.509   4.814
  282POPC   D2A 3811   0.289   6.238   5.139
  282POPC   C3A 3812   0.109   6.379   5.527
  282POPC   C4A 3813   0.371   6.553   5.751
  282POPC   C1B 3814   0.903   6.582   4.742
  282POPC   C2B 3815   0.812   6.497   5.142
  282POPC   C3B 3816   0.735   6.748   5.466
  282POPC   C4B 3817   0.899   6.695   5.875
  283POPC   NC3 3818  10.076   7.588   3.584
  283POPC   PO4 3819  10.431   7.599   4.131
  283POPC   GL1 3820  10.048   7.618   4.360
  283POPC   GL2 3821   9.998   7.888   4.226
  283POPC   C1A 3822   9.876   7.873   4.723
  283POPC   D2A 3823  10.090   7.930   5.091
  283POPC   C3A 3824  10.136   7.610   5.401
  283POPC   C4A 3825  10.339   7.424   5.736
  283POPC   C1B 3826  10.338   8.029   4.571
  283POPC   C2B 3827  10.498   8.230   4.923
  283POPC   C3B 3828  10.434   8.195   5.353
  283POPC   C4B 3829  10.187   8.023   5.691
  284POPC   NC3 3830   8.435   7.101   4.146
  284POPC   PO4 3831   8.930   6.953   3.748
  284POPC   GL1 3832   8.924   7.077   4.207
  284POPC   GL2 3833   8.806   7.434   4.299
  284POPC   C1A 3834   8.835   6.959   4.663
  284POPC   D2A 3835   8.743   7.069   5.109
  284POPC   C3A 3836   9.022   7.314   5.380
  284POPC   C4A 3837   9.168   7.467   5.785
  284POPC   C1B 3838   8.564   7.407   4.729
  284POPC   C2B 3839   8.311   7.334   5.134
  284POPC   C3B 3840   8.416   7.192   5.525
  284POPC   C4B 3841   8.626   7.551   5.593
  285POPC   NC3 3842   6.464   0.298   3.921
  285POPC   PO4 3843   6.126   1.030   3.919
  285POPC   GL1 3844   6.195   0.604   4.260
  285POPC   GL2 3845   6.471   0.422   4.397
  285POPC   C1A 3846   6.099   0.499   4.721
  285POPC   D2A 3847   5.971   0.524   5.166
  285POPC   C3A 3848   6.283   0.727   5.445
  285POPC   C4A 3849   6.192   0.720   5.864
  285POPC   C1B 3850   6.636   0.303   4.746
  285POPC   C2B 3851   6.520   0.477   5.078
  285POPC   C3B 3852   6.585   0.294   5.454
  285POPC   C4B 3853   6.614   0.424   5.849
  286POPC   NC3 3854   4.511   9.331   4.181
  286POPC   PO4 3855   3.953   9.778   3.973
  286POPC   GL1 3856   4.277   9.795   4.268
  286POPC   GL2 3857   4.154   9.516   4.484
  286POPC   C1A 3858   4.448   9.857   4.678
  286POPC   D2A 3859   4.212   9.680   5.014
  286POPC   C3A 3860   4.441   9.827   5.358
  286POPC   C4A 3861   4.295   9.701   5.750
  286POPC   C1B 3862   4.251   9.173   4.771
  286POPC   C2B 3863   4.123   9.012   5.149
  286POPC   C3B 3864   4.253   9.228   5.514
  286POPC   C4B 3865   3.981   9.306   5.859
  287POPC   NC3 3866   8.467   4.105   3.970
  287POPC   PO4 3867   9.037   4.386   4.191
  287POPC   GL1 3868   8.622   4.443   4.298
  287POPC   GL2 3869   8.673   4.119   4.443
  287POPC   C1A 3870   8.329   4.414   4.639
  287POPC   D2A 3871   8.516   4.131   4.944
  287POPC   C3A 3872   8.368   4.062   5.353
  287POPC   C4A 3873   8.445   4.214   5.779
  287POPC   C1B 3874   8.944   3.817   4.654
  287POPC   C2B 3875   8.834   3.769   5.072
  287POPC   C3B 3876   8.879   4.069   5.402
  287POPC   C4B 3877   8.987   3.963   5.799
  288POPC   NC3 3878   8.152   1.807   3.741
  288POPC   PO4 3879   7.519   2.055   3.879
  288POPC   GL1 3880   7.736   2.136   4.243
  288POPC   GL2 3881   8.027   1.986   4.260
  288POPC   C1A 3882   7.703   2.133   4.686
  288POPC   D2A 3883   7.713   2.408   5.048
  288POPC   C3A 3884   7.688   2.192   5.431
  288POPC   C4A 3885   7.785   1.967   5.739
  288POPC   C1B 3886   8.005   1.745   4.670
  288POPC   C2B 3887   8.233   1.624   5.024
  288POPC   C3B 3888   8.149   1.513   5.469
  288POPC   C4B 3889   8.176   1.680   5.886
  289POPC   NC3 3890   9.849   2.157   3.865
  289POPC   PO4 3891   9.532   1.519   3.772
  289POPC   GL1 3892   9.542   1.871   4.134
  289POPC   GL2 3893   9.243   1.838   4.293
  289POPC   C1A 3894   9.704   1.982   4.584
  289POPC   D2A 3895   9.641   1.743   4.976
  289POPC   C3A 3896   9.552   1.907   5.366
  289POPC   C4A 3897   9.516   1.846   5.770
  289POPC   C1B 3898   9.226   1.750   4.691
  289POPC   C2B 3899   9.085   1.733   5.079
  289POPC   C3B 3900   9.064   1.790   5.494
  289POPC   C4B 3901   9.176   2.200   5.640
  290POPC   NC3 3902   3.282   8.438   3.707
  290POPC   PO4 3903   3.022   7.834   4.062
  290POPC   GL1 3904   3.353   7.916   4.330
  290POPC   GL2 3905   3.371   7.549   4.357
  290POPC   C1A 3906   3.439   8.224   4.699
  290POPC   D2A 3907   3.273   8.235   5.146
  290POPC   C3A 3908   3.497   8.141   5.552
  290POPC   C4A 3909   3.796   8.120   5.914
  290POPC   C1B 3910   3.292   7.726   4.796
  290POPC   C2B 3911   3.413   7.717   5.229
  290POPC   C3B 3912   3.169   7.761   5.603
  290POPC   C4B 3913   2.886   8.085   5.681
  291POPC   NC3 3914   0.360   5.129   3.932
  291POPC   PO4 3915   0.071   4.550   3.978
  291POPC   GL1 3916   0.261   4.719   4.297
  291POPC   GL2 3917   0.241   5.099   4.424
  291POPC   C1A 3918   0.097   4.692   4.692
  291POPC   D2A 3919   0.141   4.851   5.052
  291POPC   C3A 3920   0.002   4.806   5.445
  291POPC   C4A 3921   0.150   5.159   5.695
  291POPC   C1B 3922   0.605   4.911   4.604
  291POPC   C2B 3923   0.625   4.715   5.013
  291POPC   C3B 3924   0.541   4.921   5.400
  291POPC   C4B 3925   0.645   4.743   5.780
  292POPC   NC3 3926   0.960   8.523   3.787
  292POPC   PO4 3927   0.680   9.128   3.998
  292POPC   GL1 3928   0.947   8.813   4.234
  292POPC   GL2 3929   1.309   8.814   4.359
  292POPC   C1A 3930   0.913   8.668   4.675
  292POPC   D2A 3931   0.703   8.625   5.101
  292POPC   C3A 3932   0.980   8.640   5.472
  292POPC   C4A 3933   0.919   8.875   5.861
  292POPC   C1B 3934   1.461   8.881   4.763
  292POPC   C2B 3935   1.388   8.612   5.113
  292POPC   C3B 3936   1.587   8.678   5.507
  292POPC   C4B 3937   1.398   9.009   5.724
  293POPC   NC3 3938   7.968   9.903   3.831
  293POPC   PO4 3939   7.885   9.225   3.757
  293POPC   GL1 3940   7.874   9.259   4.219
  293POPC   GL2 3941   7.888   9.622   4.270
  293POPC   C1A 3942   7.988   9.145   4.668
  293POPC   D2A 3943   8.147   9.440   5.029
  293POPC   C3A 3944   8.181   9.307   5.462
  293POPC   C4A 3945   8.175   9.695   5.690
  293POPC   C1B 3946   7.682   9.539   4.660
  293POPC   C2B 3947   7.669   9.299   5.061
  293POPC   C3B 3948   7.731   9.539   5.451
  293POPC   C4B 3949   7.800   9.288   5.820
  294POPC   NC3 3950   3.493   1.217   3.804
  294POPC   PO4 3951   3.137   0.866   4.233
  294POPC   GL1 3952   3.494   1.102   4.348
  294POPC   GL2 3953   3.564   1.479   4.272
  294POPC   C1A 3954   3.501   1.058   4.786
  294POPC   D2A 3955   3.725   0.950   5.119
  294POPC   C3A 3956   3.448   0.844   5.427
  294POPC   C4A 3957   3.388   1.042   5.828
  294POPC   C1B 3958   3.575   1.620   4.699
  294POPC   C2B 3959   3.658   1.464   5.089
  294POPC   C3B 3960   3.615   1.328   5.482
  294POPC   C4B 3961   3.538   1.521   5.872
  295POPC   NC3 3962   3.063   8.302   4.129
  295POPC   PO4 3963   3.498   8.817   3.889
  295POPC   GL1 3964   3.509   8.572   4.247
  295POPC   GL2 3965   3.195   8.681   4.420
  295POPC   C1A 3966   3.642   8.727   4.641
  295POPC   D2A 3967   3.463   8.788   5.024
  295POPC   C3A 3968   3.520   8.613   5.397
  295POPC   C4A 3969   3.129   8.518   5.574
  295POPC   C1B 3970   3.210   9.049   4.655
  295POPC   C2B 3971   3.187   9.209   5.065
  295POPC   C3B 3972   3.242   9.015   5.454
  295POPC   C4B 3973   3.509   9.128   5.755
  296POPC   NC3 3974   2.964   7.377   4.065
  296POPC   PO4 3975   3.478   7.050   4.088
  296POPC   GL1 3976   3.126   7.054   4.418
  296POPC   GL2 3977   2.763   6.951   4.265
  296POPC   C1A 3978   3.088   7.255   4.845
  296POPC   D2A 3979   3.015   7.387   5.293
  296POPC   C3A 3980   3.031   7.186   5.742
  296POPC   C4A 3981   2.899   7.190   6.209
  296POPC   C1B 3982   2.632   7.200   4.629
  296POPC   C2B 3983   2.612   7.142   5.068
  296POPC   C3B 3984   2.566   7.219   5.502
  296POPC   C4B 3985   2.484   7.094   5.930
  297POPC   NC3 3986   1.502   6.230   3.975
  297POPC   PO4 3987   0.948   6.730   3.909
  297POPC   GL1 3988   1.184   6.515   4.251
  297POPC   GL2 3989   0.986   6.224   4.398
  297POPC   C1A 3990   1.400   6.336   4.652
  297POPC   D2A 3991   1.225   6.183   5.042
  297POPC   C3A 3992   1.297   6.379   5.451
  297POPC   C4A 3993   1.382   6.507   5.866
  297POPC   C1B 3994   0.777   6.077   4.783
  297POPC   C2B 3995   0.778   5.998   5.249
  297POPC   C3B 3996   0.845   6.264   5.623
  297POPC   C4B 3997   1.029   6.185   6.031
  298POPC   NC3 3998   0.741   5.646   3.845
  298POPC   PO4 3999   0.350   6.241   3.711
  298POPC   GL1 4000   0.372   6.017   4.161
  298POPC   GL2 4001   0.637   5.856   4.305
  298POPC   C1A 4002   0.263   6.013   4.620
  298POPC   D2A 4003   0.422   5.757   4.965
  298POPC   C3A 4004   0.194   5.788   5.333
  298POPC   C4A 4005   0.420   6.012   5.643
  298POPC   C1B 4006   0.597   5.461   4.560
  298POPC   C2B 4007   0.483   5.245   4.965
  298POPC   C3B 4008   0.539   5.423   5.375
  298POPC   C4B 4009   0.445   5.540   5.782
  299POPC   NC3 4010   1.342   0.564   3.650
  299POPC   PO4 4011   0.946   0.151   3.921
  299POPC   GL1 4012   1.255   0.197   4.297
  299POPC   GL2 4013   1.410   0.549   4.266
  299POPC   C1A 4014   1.084   0.250   4.726
  299POPC   D2A 4015   1.185   0.140   5.137
  299POPC   C3A 4016   1.155   0.319   5.527
  299POPC   C4A 4017   1.516   0.071   5.712
  299POPC   C1B 4018   1.419   0.621   4.705
  299POPC   C2B 4019   1.177   0.659   5.061
  299POPC   C3B 4020   1.255   0.856   5.432
  299POPC   C4B 4021   1.151   0.759   5.818
  300POPC   NC3 4022   3.936   8.668   3.970
  300POPC   PO4 4023   4.469   8.215   4.027
  300POPC   GL1 4024   4.218   8.447   4.342
  300POPC   GL2 4025   4.122   8.788   4.441
  300POPC   C1A 4026   3.950   8.349   4.688
  300POPC   D2A 4027   3.915   8.554   5.084
  300POPC   C3A 4028   3.963   8.355   5.476
  300POPC   C4A 4029   4.282   8.223   5.709
  300POPC   C1B 4030   4.355   8.650   4.820
  300POPC   C2B 4031   4.435   8.475   5.242
  300POPC   C3B 4032   4.311   8.723   5.596
  300POPC   C4B 4033   3.903   8.859   5.621
  301POPC   NC3 4034   9.717   1.096   3.953
  301POPC   PO4 4035  10.433   1.038   3.830
  301POPC   GL1 4036  10.310   1.107   4.252
  301POPC   GL2 4037  10.132   0.828   4.320
  301POPC   C1A 4038  10.190   1.276   4.653
  301POPC   D2A 4039   9.903   1.310   5.016
  301POPC   C3A 4040   9.948   1.593   5.391
  301POPC   C4A 4041   9.970   1.428   5.823
  301POPC   C1B 4042  10.484   0.856   4.687
  301POPC   C2B 4043  10.424   1.105   5.048
  301POPC   C3B 4044  10.267   1.212   5.396
  301POPC   C4B 4045  10.410   1.132   5.760
  302W        W 4046  10.389   3.574   8.983
  303W        W 4047   3.399   7.454   2.235
  304W        W 4048   8.007   2.752   1.864
  305W        W 4049   6.080   0.503   0.253
  306W        W 4050   9.168   2.125   8.605
  307W        W 4051   9.863   3.097   8.693
  308W        W 4052   8.197   5.505   9.722
  309W        W 4053   2.280   3.562   0.839
  310W        W 4054  10.040   3.167   0.973
  311W        W 4055   0.250   7.413  10.556
  312W        W 4056   5.249   1.841   2.186
  313W        W 4057   9.746   7.182   9.579
  314W        W 4058   9.864   7.972   8.939
  315W        W 4059   8.436   5.667   0.078
  316W        W 4060   9.008   0.709   3.154
  317W        W 4061   5.239   6.454   1.662
  318W        W 4062   8.010   6.168   1.459
  319W        W 4063   5.654  10.455  11.899
  320W        W 4064   6.520  10.332   1.465
  321W        W 4065   1.850   5.705  11.740
  322W        W 4066   3.499   6.667  11.482
  323W        W 4067   6.444   8.066   0.339
  324W        W 4068   8.981   7.679   9.863
  325W        W 4069   0.979   1.865   9.799
  326W        W 4070  10.290   1.784   9.113
  327W        W 4071   4.627   0.756  10.126
  328W        W 4072   9.999   8.585  10.913
  329W        W 4073   9.757   2.276   0.756
  330W        W 4074   1.969   6.931   2.841
  331W        W 4075   1.363   6.999   1.774
  332W        W 4076   9.568   2.107  11.791
  333W        W 4077   6.352   3.138   9.998
  334W        W 4078   2.197   2.818   2.510
  335W        W 4079   0.396   1.027   9.390
  336W        W 4080   8.737   2.216   2.164
  337W        W 4081   8.900   8.826  10.588
  338W        W 4082   4.966   0.446   1.495
  339W        W 4083   2.734   9.475  11.147
  340W        W 4084   3.513   7.381   2.994
  341W        W 4085   9.080   0.912   2.695
  342W        W 4086   1.378   2.549   0.095
  343W        W 4087   2.368   4.692   2.677
  344W        W 4088   6.702   0.263   3.482
  345W        W 4089  10.467   4.211   9.650
  346W        W 4090   6.993  10.313   1.737
  347W        W 4091   7.413   3.678   9.892
  348W        W 4092   1.655   6.802  10.295
  349W        W 4093  10.299   5.067   2.009
  350W        W 4094   8.438   5.608   0.609
  351W        W 4095   3.558   6.898  11.018
  352W        W 4096   6.981   4.101   1.876
  353W        W 4097   4.694   4.160  10.395
  354W        W 4098   8.513   7.609   9.095
  355W        W 4099   5.149  10.106  10.714
  356W        W 4100   8.549   7.646   9.614
  357W        W 4101   6.504   9.111   2.049
  358W        W 4102   2.264   1.290   1.693
  359W        W 4103   7.549   4.668   9.464
  360W        W 4104   0.894   0.747   0.273
  361W        W 4105   4.804   8.448   9.708
  362W        W 4106   5.304   4.779   0.320
  363W        W 4107   8.393   3.181   1.928
  364W        W 4108   0.423   0.793   1.414
  365W        W 4109   8.919   8.147   0.202
  366W        W 4110   5.182   3.035  11.398
  367W        W 4111   9.465   2.676   3.477
  368W        W 4112   2.129   1.819   3.104
  369W        W 4113   4.854   0.931   1.765
  370W        W 4114   8.469   0.211   1.735
  371W        W 4115   8.973   9.124  10.163
  372W        W 4116   9.239   1.382   1.115
  373W        W 4117   8.046   6.030   2.900
  374W        W 4118   6.141   3.719   0.681
  375W        W 4119   4.919   7.939   0.240
  376W        W 4120   8.725   9.768  10.938
  377W        W 4121   0.945   8.635   9.465
  378W        W 4122   5.688   9.447  10.215
  379W        W 4123   1.003   7.150   2.595
  380W        W 4124   1.907   0.956   1.765
  381W        W 4125   4.585   9.909   9.801
  382W        W 4126   6.697   9.702  11.725
  383W        W 4127   0.959   4.674   2.981
  384W        W 4128   7.134   3.552  10.481
  385W        W 4129   8.123   7.302   1.658
  386W        W 4130   4.779   2.196   2.892
  387W        W 4131   9.661   9.861   0.748
  388W        W 4132   8.471   9.523   3.107
  389W        W 4133   6.685   4.591   9.150
  390W        W 4134   7.014   9.448  10.251
  391W        W 4135   0.760   7.754   0.027
  392W        W 4136   5.441   7.574  10.482
  393W        W 4137   7.488   6.259  11.809
  394W        W 4138   1.624   0.549   1.748
  395W        W 4139   7.904   1.393   2.904
  396W        W 4140   0.916   3.732   8.802
  397W        W 4141   3.527   2.392  11.386
  398W        W 4142   4.052   9.627   9.787
  399W        W 4143   3.101   5.266   2.794
  400W        W 4144   7.196   4.341   3.331
  401W        W 4145   9.398   8.067   2.577
  402W        W 4146   7.695   1.434   9.488
  403W        W 4147   2.332   5.508   8.577
  404W        W 4148   8.184   3.765   2.913
  405W        W 4149   9.797   8.564   1.537
  406W        W 4150   7.585   4.600   3.137
  407W        W 4151   0.749  10.319   0.694
  408W        W 4152   2.625   2.754   2.223
  409W        W 4153   8.090   9.250   9.302
  410W        W 4154   1.752   4.494   8.682
  411W        W 4155   0.397   4.371   9.925
  412W        W 4156   7.897  10.269  10.584
  413W        W 4157   1.187   9.175  11.192
  414W        W 4158   7.048   8.192  11.949
  415W        W 4159   1.266   3.605   9.613
  416W        W 4160   6.356   9.780  11.323
  417W        W 4161   3.652   0.446   0.483
  418W        W 4162   9.243   7.191   2.914
  419W        W 4163   6.695   9.393  11.244
  420W        W 4164   8.069   1.216  10.123
  421W        W 4165   7.863   0.434  11.998
  422W        W 4166   7.727   2.692   8.816
  423W        W 4167  10.019   3.334   3.343
  424W        W 4168   0.986  10.482   1.792
  425W        W 4169   4.201   2.504  11.777
  426W        W 4170   4.770   4.117   2.218
  427W        W 4171   5.299   6.111   3.404
  428W        W 4172   7.299   8.609   3.682
  429W        W 4173   2.077   0.875   3.384
  430W        W 4174   4.259   0.812   1.867
  431W        W 4175  10.091   6.840  11.792
  432W        W 4176   1.989   9.114   1.246
  433W        W 4177   7.524   7.671   2.720
  434W        W 4178   1.792   2.104   0.397
  435W        W 4179   9.915   2.826  10.069
  436W        W 4180   0.241   4.646   9.532
  437W        W 4181   4.449   3.164   3.645
  438W        W 4182   6.513   5.017  11.575
  439W        W 4183   7.926   1.650   3.330
  440W        W 4184   1.858   0.621   8.928
  441W        W 4185   4.986   6.692   0.316
  442W        W 4186   3.722   3.732   1.959
  443W        W 4187   4.112   8.521  10.935
  444W        W 4188   1.277   0.476   2.819
  445W        W 4189   4.547   1.706   1.931
  446W        W 4190   8.190   5.776   9.255
  447W        W 4191   6.913   9.907   0.363
  448W        W 4192   3.461   0.825   0.796
  449W        W 4193   9.552   5.587   2.172
  450W        W 4194   6.683  10.014   2.992
  451W        W 4195   8.976   4.306   3.693
  452W        W 4196   5.092   5.241  11.399
  453W        W 4197   6.659   9.548   2.802
  454W        W 4198  10.331  10.368   2.455
  455W        W 4199   8.408   0.231  11.327
  456W        W 4200   2.867   1.301   8.782
  457W        W 4201   6.089   3.784  11.200
  458W        W 4202   0.762   8.626   1.762
  459W        W 4203   2.173   7.217   1.271
  460W        W 4204   9.500   9.583   2.438
  461W        W 4205   6.689   4.093  11.839
  462W        W 4206   6.940   4.148   9.290
  463W        W 4207   3.233   2.330   2.889
  464W        W 4208   8.169   3.747   0.307
  465W        W 4209   1.773   2.255  11.878
  466W        W 4210   7.957   1.153   3.358
  467W        W 4211   1.487  10.319  11.897
  468W        W 4212   5.495   6.622   9.420
  469W        W 4213   2.073   0.790   0.908
  470W        W 4214   5.958   8.160   0.497
  471W        W 4215  10.378   2.020   1.563
  472W        W 4216   6.628   4.087   9.687
  473W        W 4217   9.023   0.277   9.122
  474W        W 4218   8.023   4.671   2.899
  475W        W 4219   5.137   2.492   1.704
  476W        W 4220   3.083   8.250   2.605
  477W        W 4221   7.413   8.928  11.728
  478W        W 4222   2.880   0.336  11.793
  479W        W 4223  10.381   0.229   1.666
  480W        W 4224   1.960   0.889   0.414
  481W        W 4225   9.270   8.364   3.564
  482W        W 4226   9.836   6.418   9.032
  483W        W 4227   6.038   9.180  11.940
  484W        W 4228   9.393   6.632  10.848
  485W        W 4229   7.643   8.925   9.201
  486W        W 4230   2.390   4.242   9.875
  487W        W 4231   5.497   3.289   1.270
  488W        W 4232   4.502   9.965  11.320
  489W        W 4233   5.224   3.742   1.179
  490W        W 4234   5.032   0.748   9.782
  491W        W 4235   5.122   0.806   9.281
  492W        W 4236   1.273   4.989   3.542
  493W        W 4237   8.121   4.175  10.033
  494W        W 4238   2.918   2.405   3.288
  495W        W 4239   8.532   8.434  11.468
  496W        W 4240   9.773   2.366  10.303
  497W        W 4241   2.363   6.285   8.796
  498W        W 4242   5.971   6.295   9.481
  499W        W 4243   6.136   3.735   1.197
  500W        W 4244   2.812   7.418   0.988
  501W        W 4245   9.322   5.140  10.485
  502W        W 4246   6.858   2.128   1.659
  503W        W 4247   7.217   5.348   2.109
  504W        W 4248   6.103   6.027   2.530
  505W        W 4249   3.254   1.366   2.476
  506W        W 4250   0.065   3.887   0.833
  507W        W 4251   0.170   1.263   2.295
  508W        W 4252  10.137   3.946   8.669
  509W        W 4253   7.344   5.901   8.138
  510W        W 4254   2.789   5.868   9.466
  511W        W 4255  10.151   4.233  10.058
  512W        W 4256   2.149   5.221   2.936
  513W        W 4257   3.830   2.793  11.528
  514W        W 4258   8.310   6.489   0.041
  515W        W 4259   6.866   0.114  10.854
  516W        W 4260   6.633   4.561   1.916
  517W        W 4261   5.640   6.519   3.256
  518W        W 4262   6.149   3.713   2.831
  519W        W 4263   7.723   3.578   2.908
  520W        W 4264   6.560   5.950   1.808
  521W        W 4265   4.613   5.452   2.410
  522W        W 4266   2.933   3.394   0.313
  523W        W 4267   5.076   0.831   0.674
  524W        W 4268   1.404   7.603   1.144
  525W        W 4269   2.825   2.714  11.765
  526W        W 4270   6.518   1.434   2.691
  527W        W 4271   1.769   5.888   9.381
  528W        W 4272   3.577   2.358   2.212
  529W        W 4273  10.019   0.023  10.473
  530W        W 4274   6.502   1.659  10.082
  531W        W 4275   5.810   6.232   4.208
  532W        W 4276   6.690   7.031   0.097
  533W        W 4277   7.714   4.324  11.842
  534W        W 4278   9.313   8.576   9.498
  535W        W 4279   9.063  10.228  10.885
  536W        W 4280   9.122   4.662  10.575
  537W        W 4281   4.231   1.252  10.586
  538W        W 4282   9.899   4.753   1.234
  539W        W 4283   1.664   6.102   0.760
  540W        W 4284   9.643   4.215  10.002
  541W        W 4285   3.480   2.289   3.357
  542W        W 4286   0.470   5.265   9.788
  543W        W 4287   0.396   4.527   2.450
  544W        W 4288   2.402   6.041  10.316
  545W        W 4289   5.555  10.448  10.470
  546W        W 4290   1.921   0.707   2.223
  547W        W 4291   7.683   3.539   8.933
  548W        W 4292   7.993   1.868   9.334
  549W        W 4293   6.634   5.459   0.463
  550W        W 4294   9.810   7.171  10.562
  551W        W 4295  10.170   4.654  10.392
  552W        W 4296   3.748   6.615  10.641
  553W        W 4297   9.578   2.656   2.999
  554W        W 4298   7.561   1.149  11.477
  555W        W 4299   6.651   8.626   2.703
  556W        W 4300   4.542   1.801   3.374
  557W        W 4301   5.046   2.774   8.032
  558W        W 4302   4.196   0.579   9.897
  559W        W 4303   6.475   5.666   2.249
  560W        W 4304   8.874   5.042   9.497
  561W        W 4305   8.940   2.176   0.482
  562W        W 4306   8.488   2.739   2.190
  563W        W 4307   2.175   4.718   9.881
  564W        W 4308   1.432   0.728   0.322
  565W        W 4309   7.879   7.438   1.224
  566W        W 4310   6.905   3.141   1.216
  567W        W 4311  10.148   5.077  10.088
  568W        W 4312   0.789   2.786   9.718
  569W        W 4313   5.236   4.322   2.331
  570W        W 4314   1.206   4.765   9.622
  571W        W 4315   6.583   5.887   0.207
  572W        W 4316   2.022   8.009  11.920
  573W        W 4317   4.722   4.947  11.631
  574W        W 4318   0.659   1.695   1.738
  575W        W 4319   7.106   5.584  11.928
  576W        W 4320   3.343   1.870   2.158
  577W        W 4321   8.860   4.245   1.529
  578W        W 4322   0.342   9.895   1.785
  579W        W 4323   0.476   5.632   1.905
  580W        W 4324   8.554   8.930   8.766
  581W        W 4325   6.066   6.929   2.760
  582W        W 4326   6.250   6.539   9.856
  583W        W 4327   2.708   5.186   3.169
  584W        W 4328   7.132   6.507   9.382
  585W        W 4329   3.789   2.584   0.051
  586W        W 4330   3.255   8.239   0.552
  587W        W 4331   9.356   7.309   9.193
  588W        W 4332   6.688   9.250   0.664
  589W        W 4333   3.102   3.323   2.592
  590W        W 4334   9.413   7.537   2.480
  591W        W 4335   9.058   4.112   0.413
  592W        W 4336   4.518   4.113   0.694
  593W        W 4337   5.211   7.079   9.319
  594W        W 4338   5.127   9.940   9.050
  595W        W 4339   1.953   6.697   9.879
  596W        W 4340   3.776   6.076  10.487
  597W        W 4341   5.945   9.719   3.409
  598W        W 4342   9.438   3.768   0.453
  599W        W 4343   0.877   0.335  10.486
  600W        W 4344   2.354   4.575   0.989
  601W        W 4345   6.682   1.773   8.646
  602W        W 4346   2.710   3.545   3.395
  603W        W 4347   7.694   3.784   3.858
  604W        W 4348   6.039   3.225  10.797
  605W        W 4349   1.304   3.813   9.135
  606W        W 4350   9.540   4.733   1.959
  607W        W 4351   0.884   8.344  11.195
  608W        W 4352   3.585   1.554   3.397
  609W        W 4353   1.199   7.504   8.748
  610W        W 4354   4.778   1.038   1.200
  611W        W 4355   7.677   2.828   1.346
  612W        W 4356   1.350   2.390  11.058
  613W        W 4357   4.603   2.169  10.585
  614W        W 4358   3.260   9.756   9.159
  615W        W 4359   9.285   6.304   9.808
  616W        W 4360   4.086   8.396   9.070
  617W        W 4361   6.976   1.845  11.012
  618W        W 4362   4.115   5.995  11.769
  619W        W 4363   3.413   0.997   2.111
  620W        W 4364   9.053   1.702   0.661
  621W        W 4365   5.148   3.830   0.663
  622W        W 4366   3.363   5.021   9.852
  623W        W 4367   2.138   5.709   9.994
  624W        W 4368   4.569   2.827   8.810
  625W        W 4369   1.591   0.207   9.069
  626W        W 4370   6.934   7.010   3.516
  627W        W 4371   7.669   1.027   9.807
  628W        W 4372   2.395   7.343   0.246
  629W        W 4373   7.615   4.135  10.018
  630W        W 4374   6.130   8.351   1.863
  631W        W 4375   4.801   4.588   2.442
  632W        W 4376   7.251   3.628  11.968
  633W        W 4377   3.617   6.137   2.682
  634W        W 4378   4.724   7.332   0.950
  635W        W 4379   2.421   6.552  10.086
  636W        W 4380   7.494   0.843  11.864
  637W        W 4381   5.042   6.496  10.356
  638W        W 4382   3.218  10.296  11.381
  639W        W 4383   9.889   8.468   9.035
  640W        W 4384   9.214   5.728   0.699
  641W        W 4385   0.423   5.986   0.349
  642W        W 4386  10.117   2.805   1.747
  643W        W 4387   5.520   5.126  10.930
  644W        W 4388   2.151   2.082   9.948
  645W        W 4389   3.289   8.413  10.497
  646W        W 4390   4.738   0.005   1.996
  647W        W 4391  10.062   8.286   9.946
  648W        W 4392   5.659   4.137   9.544
  649W        W 4393   4.078   2.349   2.303
  650W        W 4394   4.514   4.243   1.201
  651W        W 4395   7.982  10.447   0.443
  652W        W 4396   9.501   6.735   9.955
  653W        W 4397   0.035   6.578  11.064
  654W        W 4398   1.744   6.927   3.304
  655W        W 4399   9.034   4.242   0.996
  656W        W 4400   1.934   8.797  10.509
  657W        W 4401   8.636   7.215   2.305
  658W        W 4402   9.823   1.375   0.259
  659W        W 4403   3.298   5.083   8.365
  660W        W 4404   2.353   2.077   1.002
  661W        W 4405   9.305   7.692   2.974
  662W        W 4406   6.739   6.003   8.698
  663W        W 4407   5.227   5.778   9.077
  664W        W 4408   7.624   5.689   2.129
  665W        W 4409   4.841   2.689  11.255
  666W        W 4410   9.082   2.341   1.353
  667W        W 4411   5.634   5.587   1.089
  668W        W 4412   5.935   8.643   1.480
  669W        W 4413   4.063   3.283   2.294
  670W        W 4414   6.122   0.308   2.492
  671W        W 4415   9.468   9.403   8.896
  672W        W 4416   3.826   0.038   1.696
  673W        W 4417   4.972   3.245   3.629
  674W        W 4418  10.063   3.633   1.725
  675W        W 4419   1.229   4.205   1.951
  676W        W 4420   0.428   3.374   3.509
  677W        W 4421   8.082   8.619  11.021
  678W        W 4422   6.519   3.604  11.726
  679W        W 4423   5.388  10.366   2.962
  680W        W 4424   5.116   6.029   1.377
  681W        W 4425   8.008   1.733   0.836
  682W        W 4426   0.822   0.948  11.809
  683W        W 4427   9.822   6.984   0.955
  684W        W 4428   1.944   3.639  11.918
  685W        W 4429   6.552   0.551   2.209
  686W        W 4430   0.317   2.085   1.842
  687W        W 4431   0.356   3.958  10.540
  688W        W 4432   6.225   4.690   0.515
  689W        W 4433   9.628   0.589   0.099
  690W        W 4434   0.504   4.722   1.957
  691W        W 4435   9.965   2.308   1.723
  692W        W 4436  10.233   7.803   9.743
  693W        W 4437   6.733   7.253   2.219
  694W        W 4438   0.863   8.593   2.248
  695W        W 4439   2.343   1.563   9.992
  696W        W 4440   8.639   6.518   1.899
  697W        W 4441   4.806   0.345   3.425
  698W        W 4442   1.970  10.441   3.343
  699W        W 4443   0.271   4.800  11.142
  700W        W 4444   7.262   1.825   8.558
  701W        W 4445   2.017   3.964   9.337
  702W        W 4446   3.732   7.626   2.600
  703W        W 4447   8.928   3.115   0.561
  704W        W 4448   7.794   3.129   3.136
  705W        W 4449   3.830   0.178   3.618
  706W        W 4450   8.013   8.353   3.115
  707W        W 4451   4.746   0.345   0.027
  708W        W 4452   5.183   6.028   1.933
  709W        W 4453   8.577   9.484   2.613
  710W        W 4454   1.223   5.766   8.597
  711W        W 4455   5.624   3.431   8.981
  712W        W 4456   7.916   5.101   9.090
  713W        W 4457   0.998   8.109   9.484
  714W        W 4458   2.298   7.010   8.910
  715W        W 4459   6.968  10.371   8.592
  716W        W 4460   7.136   7.389   1.880
  717W        W 4461   1.644  10.297   2.425
  718W        W 4462   3.241   0.358   0.800
  719W        W 4463   5.168   7.875  10.831
  720W        W 4464   7.094   4.228  10.925
  721W        W 4465   8.426   8.854   9.287
  722W        W 4466   5.640   8.945   2.165
  723W        W 4467   9.792   6.961   9.132
  724W        W 4468   5.110   7.164   0.488
  725W        W 4469   5.513   5.149   2.635
  726W        W 4470   6.447   7.437   0.351
  727W        W 4471   8.158   4.863   8.468
  728W        W 4472   6.421   7.508  11.259
  729W        W 4473   7.725   0.545   9.967
  730W        W 4474   1.417   1.394   1.717
  731W        W 4475   0.314   7.903   2.278
  732W        W 4476   1.574   8.390   1.667
  733W        W 4477   6.036   4.230  11.467
  734W        W 4478   0.100   4.706   0.426
  735W        W 4479   3.639   9.938  10.004
  736W        W 4480   9.529   5.276  10.965
  737W        W 4481   9.727   0.141   9.967
  738W        W 4482   3.784   1.865   0.408
  739W        W 4483   1.253   3.807   0.032
  740W        W 4484   0.381   5.809  11.045
  741W        W 4485   9.954   2.831   3.334
  742W        W 4486   1.136   7.814   3.284
  743W        W 4487   5.660   1.834   0.033
  744W        W 4488   2.108   9.284   8.943
  745W        W 4489   7.567   6.652   1.101
  746W        W 4490   5.660   9.574   8.855
  747W        W 4491   5.667   2.234   2.872
  748W        W 4492  10.069   3.533  10.754
  749W        W 4493   7.448   9.803   8.814
  750W        W 4494   1.731   7.601  11.813
  751W        W 4495   1.459   0.067  11.302
  752W        W 4496   4.324   6.653   1.592
  753W        W 4497   9.973   8.807   9.996
  754W        W 4498   0.607  10.483  10.774
  755W        W 4499   4.178  10.074   2.433
  756W        W 4500   5.347  10.068   9.538
  757W        W 4501   4.507   1.313   8.734
  758W        W 4502   0.438   0.822  11.003
  759W        W 4503   9.404   9.882   9.454
  760W        W 4504   2.081   3.146   0.030
  761W        W 4505   9.027   2.718  11.250
  762W        W 4506   7.271   7.931   9.116
  763W        W 4507   3.264   7.959   2.230
  764W        W 4508   1.350   1.966  10.750
  765W        W 4509   6.987   2.623   1.859
  766W        W 4510   8.970   3.121   0.060
  767W        W 4511   2.598  10.482   8.977
  768W        W 4512   2.156   8.936  11.819
  769W        W 4513   6.566   4.066   1.007
  770W        W 4514   9.906   9.985   9.279
  771W        W 4515   3.089   6.221   3.713
  772W        W 4516   1.707  10.404   1.303
  773W        W 4517   2.279   9.453   2.727
  774W        W 4518   9.613   8.447   0.296
  775W        W 4519   3.347   1.932  10.364
  776W        W 4520   1.243   0.622   1.150
  777W        W 4521   7.414   8.150  10.091
  778W        W 4522   2.738   6.432  10.983
  779W        W 4523   3.787   4.754   0.572
  780W        W 4524   7.708   5.768   1.318
  781W        W 4525   6.170   7.088  11.443
  782W        W 4526   0.359   2.311   1.389
  783W        W 4527   6.146   5.489   0.991
  784W        W 4528   5.549   6.037  10.238
  785W        W 4529   5.079   3.326   2.206
  786W        W 4530   0.780   6.168  11.399
  787W        W 4531   5.765   1.243  10.251
  788W        W 4532   6.293   9.464   3.163
  789W        W 4533   5.590   6.731   2.797
  790W        W 4534   0.254   2.190   8.645
  791W        W 4535   4.298   3.077   1.865
  792W        W 4536   6.642   0.333   1.360
  793W        W 4537   2.682   5.612   9.006
  794W        W 4538   0.153   9.434   3.320
  795W        W 4539   3.235   0.780   1.675
  796W        W 4540   0.253   6.599  10.555
  797W        W 4541   3.104   4.282   2.785
  798W        W 4542   4.273   9.353   8.884
  799W        W 4543   1.266   1.928   2.976
  800W        W 4544   3.013   4.301   8.572
  801W        W 4545   8.269   1.070  10.983
  802W        W 4546   7.257   2.826   0.026
  803W        W 4547   5.251   6.484   1.162
  804W        W 4548   7.174   4.216   8.461
  805W        W 4549  10.017   4.007  10.909
  806W        W 4550   4.782   0.353  11.521
  807W        W 4551   4.151   2.768   9.597
  808W        W 4552   8.993   0.194   8.607
  809W        W 4553   6.790   5.349   1.302
  810W        W 4554   9.343   4.084   1.385
  811W        W 4555   8.965   7.916   1.798
  812W        W 4556   6.982   7.566  10.380
  813W        W 4557   0.942   0.826  10.224
  814W        W 4558   3.718   4.007   3.751
  815W        W 4559   4.671   9.345  10.954
  816W        W 4560   7.561   7.346   3.633
  817W        W 4561  10.232   9.490  10.474
  818W        W 4562   6.951   3.685   9.532
  819W        W 4563  10.226   7.459  10.566
  820W        W 4564   5.616   2.241  11.191
  821W        W 4565   1.039   1.444   8.993
  822W        W 4566   0.138   5.551   9.516
  823W        W 4567   5.116   0.968   3.490
  824W        W 4568   3.607   4.245   1.822
  825W        W 4569   3.744   7.846   2.095
  826W        W 4570   7.121   1.189   0.791
  827W        W 4571   5.975   8.375  11.494
  828W        W 4572   2.488   6.901   2.917
  829W        W 4573   6.710   1.497   2.216
  830W        W 4574   8.062   2.887  11.226
  831W        W 4575   4.505   1.641   0.908
  832W        W 4576   8.530   9.487  10.557
  833W        W 4577   2.667   2.655   9.442
  834W        W 4578   7.903  10.193  10.089
  835W        W 4579   2.589   0.740   3.400
  836W        W 4580   7.465   5.631   8.576
  837W        W 4581   7.941   6.546  11.183
  838W        W 4582   6.028   3.289   0.931
  839W        W 4583   5.616   6.738   1.928
  840W        W 4584   9.193   1.095   2.109
  841W        W 4585   7.116   4.721   0.241
  842W        W 4586   4.856   6.185   0.335
  843W        W 4587   1.087   9.686  11.306
  844W        W 4588   0.751   9.832   2.542
  845W        W 4589   4.784   4.719   0.440
  846W        W 4590   4.736   3.679   9.498
  847W        W 4591   2.230   7.382  11.765
  848W        W 4592   6.204   4.232  11.946
  849W        W 4593   9.831  10.022   3.174
  850W        W 4594   6.568   8.348  10.365
  851W        W 4595   2.887   2.671  10.311
  852W        W 4596   7.824   4.585   8.179
  853W        W 4597   3.343   5.746   2.828
  854W        W 4598   1.868   1.779   2.354
  855W        W 4599   3.082   6.487   2.192
  856W        W 4600   4.072   8.618  11.433
  857W        W 4601   3.336   8.546   1.434
  858W        W 4602   2.080   2.355   2.345
  859W        W 4603   7.737   2.476   9.991
  860W        W 4604   2.361   3.866   3.160
  861W        W 4605   6.668   7.092  11.409
  862W        W 4606   0.475   8.439   3.371
  863W        W 4607   2.741   5.985   0.052
  864W        W 4608   6.679   4.792   2.427
  865W        W 4609   1.306   7.256  11.649
  866W        W 4610   8.928   7.476  10.889
  867W        W 4611   1.178   9.290   3.095
  868W        W 4612   3.653   2.755  10.036
  869W        W 4613   8.066   6.455  10.697
  870W        W 4614   6.453   3.239   0.548
  871W        W 4615   8.666   3.586   2.049
  872W        W 4616   9.528   6.632   1.187
  873W        W 4617   4.165   9.822  10.962
  874W        W 4618   1.430   0.571   2.322
  875W        W 4619   7.871   3.286  10.494
  876W        W 4620   0.329   3.199   9.125
  877W        W 4621   1.737   5.086   3.244
  878W        W 4622   4.126   0.363  10.754
  879W        W 4623   2.569   6.532   2.155
  880W        W 4624   0.530   0.914   9.907
  881W        W 4625   7.524   9.974   1.024
  882W        W 4626   2.073   1.020  11.800
  883W        W 4627   7.361   5.013   9.796
  884W        W 4628   8.453   4.651  10.804
  885W        W 4629  10.045   0.902  10.612
  886W        W 4630   9.650   6.633   2.206
  887W        W 4631   9.363   6.118  10.793
  888W        W 4632   5.004   2.616   8.969
  889W        W 4633   8.504   4.596   8.757
  890W        W 4634   4.675   2.205  11.455
  891W        W 4635  10.234   7.955   1.452
  892W        W 4636   9.108   2.844   0.968
  893W        W 4637   6.571   5.126   0.878
  894W        W 4638   8.208   3.610   8.933
  895W        W 4639  10.419   3.250   9.428
  896W        W 4640   0.673   9.749  10.462
  897W        W 4641   0.848   0.934   1.188
  898W        W 4642   8.119   4.792  11.238
  899W        W 4643   9.344   9.418  10.454
  900W        W 4644   0.480   7.578   0.836
  901W        W 4645   4.005   7.687   1.285
  902W        W 4646   3.586  10.042   0.489
  903W        W 4647   4.739   1.729   8.931
  904W        W 4648   5.618   9.395  11.749
  905W        W 4649   4.256   3.656   0.672
  906W        W 4650   7.508   7.664  10.324
  907W        W 4651   0.826   8.042   2.411
  908W        W 4652   2.540   1.174  11.466
  909W        W 4653   0.946   9.139   1.895
  910W        W 4654   0.855   3.107   2.326
  911W        W 4655   8.026   9.281   3.112
  912W        W 4656   7.502   0.934   3.393
  913W        W 4657   8.513   0.491   0.617
  914W        W 4658   8.397   1.981  11.962
  915W        W 4659   6.979   1.480   0.412
  916W        W 4660   6.496   2.703   3.302
  917W        W 4661   2.246   9.348  11.269
  918W        W 4662   8.103   1.379   9.152
  919W        W 4663   1.807   7.209   8.854
  920W        W 4664   2.172   4.099  10.722
  921W        W 4665   6.516   0.727   0.407
  922W        W 4666   9.891   2.711  11.133
  923W        W 4667   6.398   6.818  10.557
  924W        W 4668   0.931   8.759  10.353
  925W        W 4669   3.538   0.919   1.286
  926W        W 4670   3.318   6.801   0.213
  927W        W 4671  10.016   7.347  11.869
  928W        W 4672   8.870   4.204  10.497
  929W        W 4673   7.028   6.958   9.967
  930W        W 4674   1.523   8.129  11.896
  931W        W 4675   9.076   9.474  11.841
  932W        W 4676   0.593   9.139  11.130
  933W        W 4677   5.493   6.656   4.075
  934W        W 4678   8.777  10.029   8.480
  935W        W 4679   0.581   4.822   0.545
  936W        W 4680   9.407   6.230   8.764
  937W        W 4681   6.617   3.767   1.427
  938W        W 4682   9.348   6.439  10.346
  939W        W 4683   4.389  10.346   2.886
  940W        W 4684   3.879   7.329   2.197
  941W        W 4685   8.385   0.739  11.356
  942W        W 4686   4.556   5.769  11.894
  943W        W 4687   8.731   9.305   2.153
  944W        W 4688   3.696   6.070   1.264
  945W        W 4689   8.332   9.422   0.854
  946W        W 4690   5.182   5.245   9.561
  947W        W 4691   7.905   4.042   1.127
  948W        W 4692   1.835   1.602   0.541
  949W        W 4693   5.068   5.181   0.797
  950W        W 4694   1.701   4.080   3.158
  951W        W 4695   3.247   8.387   9.537
  952W        W 4696   9.939   3.157   9.208
  953W        W 4697   6.083   2.468  10.366
  954W        W 4698   1.894   9.399  10.824
  955W        W 4699   5.601   6.483   2.359
  956W        W 4700   2.606   9.963   9.130
  957W        W 4701   1.007   9.071   2.431
  958W        W 4702   3.820   9.391  11.780
  959W        W 4703   2.711   7.974   3.311
  960W        W 4704   4.569   4.062   8.910
  961W        W 4705   3.664   7.589   3.432
  962W        W 4706   2.384   0.307  11.821
  963W        W 4707   5.655   8.034  11.301
  964W        W 4708   1.417   5.645   2.473
  965W        W 4709   5.250   0.952  11.351
  966W        W 4710   7.548   6.995   8.702
  967W        W 4711   2.905   3.191   8.908
  968W        W 4712   2.621   8.965   9.990
  969W        W 4713   5.656   7.575   8.856
  970W        W 4714   4.086   2.219   8.886
  971W        W 4715   5.976   6.797   9.498
  972W        W 4716   9.851  10.280  11.455
  973W        W 4717   4.239   0.314   2.738
  974W        W 4718   7.575   1.021   2.891
  975W        W 4719   4.301   8.625   2.736
  976W        W 4720   1.835   5.073   9.966
  977W        W 4721   8.889   4.522   2.019
  978W        W 4722   3.205   6.116   9.650
  979W        W 4723   9.027   0.844  11.420
  980W        W 4724   5.545   1.679  10.522
  981W        W 4725   2.851   8.077   1.837
  982W        W 4726   6.649   8.122   2.790
  983W        W 4727   6.652  10.024   1.020
  984W        W 4728   6.697   4.454   0.638
  985W        W 4729   4.820   9.751   0.832
  986W        W 4730  10.430   1.413   0.839
  987W        W 4731  10.310   4.714  11.414
  988W        W 4732   3.543   5.274   9.415
  989W        W 4733   5.467   4.331   1.667
  990W        W 4734   0.166   0.189   2.105
  991W        W 4735   0.822   7.141   3.601
  992W        W 4736   4.564   2.674   2.757
  993W        W 4737   1.164   6.062  10.849
  994W        W 4738   9.069   9.724   2.178
  995W        W 4739   8.809   9.860  11.522
  996W        W 4740   6.865   8.340   2.339
  997W        W 4741   0.220   9.217   2.426
  998W        W 4742   8.966   0.065  10.487
  999W        W 4743  10.289   3.259  11.347
 1000W        W 4744   2.348   2.090   2.011
 1001W        W 4745   7.824   3.286   1.123
 1002W        W 4746   0.790   0.519  11.561
 1003W        W 4747   4.965   4.484   3.031
 1004W        W 4748   2.303   7.835   0.356
 1005W        W 4749   9.861   9.221   2.595
 1006W        W 4750   4.047   3.955   9.143
 1007W        W 4751   5.352   7.892   2.653
 1008W        W 4752   6.602   5.717  11.728
 1009W        W 4753   5.940   2.246  10.786
 1010W        W 4754   5.693   8.557   0.716
 1011W        W 4755  10.307  10.016  11.777
 1012W        W 4756   1.668   9.072   9.114
 1013W        W 4757   2.581   2.649   3.575
 1014W        W 4758   7.433   1.314   1.691
 1015W        W 4759   1.161   1.851   1.595
 1016W        W 4760   3.138   6.125  11.783
 1017W        W 4761   7.918   9.136   0.792
 1018W        W 4762   3.530   7.696   1.645
 1019W        W 4763   3.668   4.700   8.213
 1020W        W 4764   7.097   4.752  10.388
 1021W        W 4765   9.423   3.767  10.139
 1022W        W 4766   8.569   5.665   3.075
 1023W        W 4767   4.020   4.428   1.541
 1024W        W 4768   9.125   3.592  11.338
 1025W        W 4769   9.543   6.356   0.176
 1026W        W 4770   2.563   2.748   3.054
 1027W        W 4771   9.330   7.831  11.506
 1028W        W 4772   8.354  10.197   0.201
 1029W        W 4773   5.546  10.491   8.914
 1030W        W 4774   5.810   9.846   9.592
 1031W        W 4775   1.331   0.765   9.520
 1032W        W 4776   1.233   5.094   3.008
 1033W        W 4777   5.675  10.385   2.001
 1034W        W 4778   5.763   0.657   1.306
 1035W        W 4779   1.857   8.630   3.161
 1036W        W 4780   1.170   1.042   3.625
 1037W        W 4781  10.443   1.759  10.114
 1038W        W 4782   2.385   3.712  11.049
 1039W        W 4783   8.882   5.727   2.676
 1040W        W 4784   8.089   9.278   9.818
 1041W        W 4785   5.221   3.540   1.710
 1042W        W 4786   1.885   8.453  10.145
 1043W        W 4787   5.599   3.685  11.964
 1044W        W 4788   8.327   3.316  10.815
 1045W        W 4789   6.612   8.516   9.852
 1046W        W 4790   2.796   0.390   9.773
 1047W        W 4791   7.537   0.291   2.276
 1048W        W 4792  10.209   5.113   3.257
 1049W        W 4793   1.279   5.951   3.352
 1050W        W 4794   4.585   1.887  11.051
 1051W        W 4795   4.310   3.336  11.254
 1052W        W 4796   8.295  10.273   8.773
 1053W        W 4797   9.749   4.029   1.692
 1054W        W 4798  10.147   5.976   9.034
 1055W        W 4799   2.568   4.513   8.757
 1056W        W 4800   6.657   7.512   1.750
 1057W        W 4801   5.787   6.199  11.524
 1058W        W 4802   6.887   5.177   9.578
 1059W        W 4803   0.925   3.571  10.813
 1060W        W 4804   4.067   0.198  11.238
 1061W        W 4805  10.005   3.239   9.735
 1062W        W 4806   0.834   8.007   2.942
 1063W        W 4807   1.356   9.988  10.610
 1064W        W 4808   0.597   0.585   9.119
 1065W        W 4809   7.088   1.117   8.932
 1066W        W 4810   0.765   2.635   2.961
 1067W        W 4811   8.701   7.305  11.849
 1068W        W 4812   7.170   3.402   8.940
 1069W        W 4813   4.427   0.001   2.389
 1070W        W 4814   7.843   5.183  11.441
 1071W        W 4815   9.537   7.122  10.995
 1072W        W 4816   4.143  10.066  10.038
 1073W        W 4817   7.004   6.070   9.623
 1074W        W 4818   0.164   7.516   9.639
 1075W        W 4819   7.089   4.646   4.270
 1076W        W 4820   7.466   0.868  10.904
 1077W        W 4821   5.254   8.317   0.486
 1078W        W 4822   4.682   9.275   0.959
 1079W        W 4823   9.256   1.604   1.987
 1080W        W 4824   5.143   8.988   1.943
 1081W        W 4825   3.625   8.572   8.939
 1082W        W 4826   6.937   0.175  11.830
 1083W        W 4827   9.901   1.863   1.452
 1084W        W 4828   7.570   5.407  10.999
 1085W        W 4829   8.651   6.825   1.474
 1086W        W 4830   5.779   4.642   1.369
 1087W        W 4831   5.110  10.410   1.522
 1088W        W 4832   8.353   6.196   2.166
 1089W        W 4833   6.143   3.693   1.706
 1090W        W 4834  10.307   1.183   2.640
 1091W        W 4835   3.565   2.720   1.842
 1092W        W 4836   5.250   9.002  11.448
 1093W        W 4837   1.783   7.171   9.832
 1094W        W 4838   9.890   7.047   3.000
 1095W        W 4839   3.682   9.613   0.222
 1096W        W 4840   6.859   2.228  10.689
 1097W        W 4841   9.416   1.211   9.985
 1098W        W 4842   5.353   0.415  10.593
 1099W        W 4843   3.277  10.178  10.864
 1100W        W 4844   8.139   8.397   0.304
 1101W        W 4845   6.508   3.350   2.793
 1102W        W 4846   4.632   7.874   2.322
 1103W        W 4847   2.260   8.324   1.351
 1104W        W 4848   6.092   9.672  10.468
 1105W        W 4849   6.093   1.032   0.192
 1106W        W 4850   3.274   0.509   2.772
 1107W        W 4851   3.899   4.655   2.729
 1108W        W 4852   2.834   3.514  11.800
 1109W        W 4853   5.279   1.347  11.001
 1110W        W 4854   2.944   4.593   9.629
 1111W        W 4855   6.287   1.406  10.530
 1112W        W 4856   3.186   4.623  11.595
 1113W        W 4857   6.561  10.225   0.552
 1114W        W 4858   9.867   1.383  10.697
 1115W        W 4859   0.143   8.326   0.369
 1116W        W 4860   3.389   3.676  10.455
 1117W        W 4861   0.168   6.197   9.870
 1118W        W 4862   4.945   5.640  10.273
 1119W        W 4863   6.162   6.493   1.227
 1120W        W 4864   5.637   3.135  11.148
 1121W        W 4865   4.694   9.111   9.142
 1122W        W 4866   9.539   9.584   0.032
 1123W        W 4867   5.010   4.513   1.906
 1124W        W 4868   1.739   6.020   9.907
 1125W        W 4869   2.185   9.482   9.851
 1126W        W 4870   0.371   2.771   1.165
 1127W        W 4871   2.928   5.960   0.524
 1128W        W 4872   2.222   0.941  10.550
 1129W        W 4873   0.205   1.673  11.074
 1130W        W 4874   3.528   1.695  11.996
 1131W        W 4875   9.968   6.169   1.379
 1132W        W 4876   8.039   7.046   8.523
 1133W        W 4877   5.970   7.488   1.504
 1134W        W 4878   3.658   3.489   1.461
 1135W        W 4879   8.481   5.961   9.619
 1136W        W 4880   1.022   5.961   9.523
 1137W        W 4881   2.822   8.871   2.163
 1138W        W 4882   4.803   3.154   2.698
 1139W        W 4883   9.901   6.023   0.010
 1140W        W 4884   4.999   4.171   8.671
 1141W        W 4885  10.377   7.222   0.221
 1142W        W 4886   9.561   7.076  11.936
 1143W        W 4887   7.590   5.782  11.917
 1144W        W 4888   3.713   1.428   9.352
 1145W        W 4889   0.797   7.004  10.588
 1146W        W 4890   9.183   1.732  10.813
 1147W        W 4891   8.943   3.317   1.078
 1148W        W 4892  10.332   0.465   0.695
 1149W        W 4893   0.300   7.017  10.241
 1150W        W 4894   8.387   5.043   9.639
 1151W        W 4895   0.275   2.792   3.080
 1152W        W 4896   4.412   9.538  10.127
 1153W        W 4897   7.884  10.232   9.571
 1154W        W 4898   2.672   5.657   1.726
 1155W        W 4899   7.178   7.006   0.193
 1156W        W 4900   5.434   7.289   3.711
 1157W        W 4901   8.371  10.481  11.765
 1158W        W 4902   6.461   1.398   9.605
 1159W        W 4903   1.775   4.279   0.619
 1160W        W 4904   9.882   8.905  11.565
 1161W        W 4905   3.529   7.545   1.155
 1162W        W 4906   1.633   3.205   3.012
 1163W        W 4907   6.975   6.049   0.950
 1164W        W 4908   0.496   2.099   0.930
 1165W        W 4909   7.125   9.329   3.313
 1166W        W 4910   2.687   1.931   9.919
 1167W        W 4911   3.713   8.861   0.895
 1168W        W 4912   1.356   0.870  10.535
 1169W        W 4913   9.970   5.719  10.302
 1170W        W 4914   8.749  10.074  10.505
 1171W        W 4915   3.118   9.806  11.366
 1172W        W 4916   1.829   5.730  11.221
 1173W        W 4917   1.001   1.407   3.301
 1174W        W 4918   9.549   7.042   3.449
 1175W        W 4919  10.332   9.853   1.692
 1176W        W 4920   5.743   7.008   2.361
 1177W        W 4921   7.355   5.645   9.104
 1178W        W 4922   2.849   4.812   2.820
 1179W        W 4923   9.495   3.620   3.379
 1180W        W 4924   9.559   4.506   0.423
 1181W        W 4925   5.611   1.320   8.702
 1182W        W 4926   7.040   3.971   2.398
 1183W        W 4927   5.643   3.735   1.983
 1184W        W 4928   7.687   3.829  11.855
 1185W        W 4929   7.168   2.655  10.625
 1186W        W 4930  10.425   4.368   0.763
 1187W        W 4931   7.192   1.258  11.869
 1188W        W 4932   2.926   2.949   8.424
 1189W        W 4933   5.552   2.226   8.773
 1190W        W 4934   8.169   1.890   2.794
 1191W        W 4935   3.326   0.501   2.264
 1192W        W 4936   7.935   7.375   2.702
 1193W        W 4937   0.270   1.355   9.830
 1194W        W 4938   2.398   1.866   8.624
 1195W        W 4939   0.633   8.914   0.947
 1196W        W 4940   6.146   6.007   1.027
 1197W        W 4941   9.094   3.744  10.531
 1198W        W 4942   4.279   1.189   0.899
 1199W        W 4943   2.694   3.748   0.614
 1200W        W 4944   7.891   5.105   0.215
 1201W        W 4945   7.857   8.274  11.340
 1202W        W 4946   7.926   6.608  11.684
 1203W        W 4947   1.227   7.335   3.083
 1204W        W 4948   1.427   6.469  11.019
 1205W        W 4949   7.577   7.905  11.070
 1206W        W 4950   1.635   2.741   3.235
 1207W        W 4951   6.055   1.962   0.754
 1208W        W 4952   2.162   8.575   2.307
 1209W        W 4953   6.890   7.896   9.976
 1210W        W 4954   1.367   5.558   9.408
 1211W        W 4955   1.886   5.917  10.398
 1212W        W 4956   1.817   7.688   8.627
 1213W        W 4957   7.194   1.485  11.326
 1214W        W 4958   2.284   3.792   8.886
 1215W        W 4959  10.030   3.788  10.289
 1216W        W 4960   0.031   9.357   1.423
 1217W        W 4961   9.842   5.525   9.847
 1218W        W 4962   7.689   9.414   8.525
 1219W        W 4963   3.161   2.767   9.356
 1220W        W 4964   7.296   4.416   0.602
 1221W        W 4965   2.957   7.566   8.639
 1222W        W 4966   4.005   7.962   3.360
 1223W        W 4967   3.537   3.153   3.229
 1224W        W 4968   8.193   4.687   0.172
 1225W        W 4969   5.567   1.675   2.552
 1226W        W 4970   3.205   4.090  10.830
 1227W        W 4971   9.523   0.700  11.605
 1228W        W 4972   5.656   8.464   0.213
 1229W        W 4973   2.166   7.340  11.258
 1230W        W 4974   4.579   5.026  10.804
 1231W        W 4975   3.769   1.328  10.363
 1232W        W 4976   2.303   8.379   8.920
 1233W        W 4977   8.961   0.054   1.853
 1234W        W 4978   5.999   5.808   9.577
 1235W        W 4979   0.792  10.012   3.546
 1236W        W 4980   5.747   9.559   2.978
 1237W        W 4981   9.421   1.728   1.510
 1238W        W 4982   3.513   1.683   0.780
 1239W        W 4983   7.006   0.275   9.560
 1240W        W 4984   9.478   0.960   0.907
 1241W        W 4985   9.379   9.597   2.967
 1242W        W 4986   9.330   5.068   9.227
 1243W        W 4987   1.496   7.766   2.932
 1244W        W 4988   2.166   5.792   2.331
 1245W        W 4989   6.174   6.452   3.886
 1246W        W 4990   5.263   3.792   2.331
 1247W        W 4991   0.515   8.297   9.463
 1248W        W 4992   6.219   2.722  10.777
 1249W        W 4993   4.951   3.730   7.841
 1250W        W 4994   4.272   3.894  10.325
 1251W        W 4995   7.380   6.748   3.652
 1252W        W 4996   5.387   7.081  10.568
 1253W        W 4997   5.972   8.390   9.532
 1254W        W 4998   7.196   7.325   0.677
 1255W        W 4999   5.115   0.704   2.145
 1256W        W 5000   4.754   2.705  10.751
 1257W        W 5001   3.383   2.803   0.277
 1258W        W 5002   7.964   0.915   8.833
 1259W        W 5003   5.977   3.907  10.212
 1260W        W 5004   2.185   5.776   8.974
 1261W        W 5005   2.776   4.703   1.944
 1262W        W 5006   9.728   7.153   1.453
 1263W        W 5007   8.559   3.381   3.392
 1264W        W 5008   5.015   7.997   9.787
 1265W        W 5009   1.698   4.683   9.678
 1266W        W 5010   9.103   8.177   9.222
 1267W        W 5011   7.497   5.210   3.603
 1268W        W 5012   6.509   7.355   2.746
 1269W        W 5013   4.559   8.127  10.029
 1270W        W 5014   4.503   9.684   8.546
 1271W        W 5015   7.811  10.408  11.964
 1272W        W 5016   4.087   1.404   0.404
 1273W        W 5017   1.311   6.474   0.335
 1274W        W 5018   8.090   8.918   0.337
 1275W        W 5019   0.129   6.847   8.650
 1276W        W 5020   4.612   5.024   2.680
 1277W        W 5021   9.373   2.444   9.963
 1278W        W 5022  10.113   0.482   9.896
 1279W        W 5023   1.827   1.658  10.055
 1280W        W 5024   1.278   2.170   1.171
 1281W        W 5025   7.927   8.827   3.310
 1282W        W 5026  10.261   6.440   9.662
 1283W        W 5027   0.479   3.459  10.584
 1284W        W 5028   7.051   5.381   0.773
 1285W        W 5029   5.545   9.427   1.448
 1286W        W 5030   3.556   8.300   3.320
 1287W        W 5031   7.469   5.030   0.479
 1288W        W 5032   7.226   9.305   1.908
 1289W        W 5033   9.107   1.343   0.238
 1290W        W 5034   2.852   4.026   3.290
 1291W        W 5035   9.746   0.505   1.854
 1292W        W 5036   1.823   5.574   0.247
 1293W        W 5037   3.114  10.484   9.615
 1294W        W 5038   1.846  10.328  11.532
 1295W        W 5039  10.258   1.937   2.054
 1296W        W 5040   6.883   7.583   1.216
 1297W        W 5041   6.485   3.540  10.745
 1298W        W 5042   8.741  10.423   9.486
 1299W        W 5043   3.214   6.024   2.375
 1300W        W 5044   4.423   4.617   0.802
 1301W        W 5045  10.469   5.419   2.369
 1302W        W 5046   3.076   0.680   3.231
 1303W        W 5047   6.708   5.557  10.847
 1304W        W 5048   8.899   7.644   0.367
 1305W        W 5049   8.403   8.623   3.346
 1306W        W 5050   2.401   0.290   9.422
 1307W        W 5051   8.376   1.810   0.445
 1308W        W 5052   0.764   2.362   8.593
 1309W        W 5053   0.689   4.139   2.254
 1310W        W 5054   6.969   2.183   8.831
 1311W        W 5055   4.641   7.066   1.659
 1312W        W 5056   0.387   6.416  11.891
 1313W        W 5057   3.125   7.642   3.201
 1314W        W 5058   4.169   7.871   9.794
 1315W        W 5059   2.531   9.575   8.787
 1316W        W 5060   7.664   6.523   1.561
 1317W        W 5061   6.840   2.315  11.746
 1318W        W 5062   1.172   7.579  11.263
 1319W        W 5063   4.610   9.942   2.678
 1320W        W 5064   7.896   6.027   4.162
 1321W        W 5065   4.842   1.320  11.251
 1322W        W 5066   6.551   5.852   2.723
 1323W        W 5067   9.926   7.490   1.835
 1324W        W 5068   6.494   0.956   9.327
 1325W        W 5069   2.393   1.470   9.005
 1326W        W 5070   4.741   6.520   1.848
 1327W        W 5071   4.625   6.155  10.375
 1328W        W 5072   6.997   9.455   1.448
 1329W        W 5073   4.149   4.706   9.964
 1330W        W 5074   2.699   3.244  10.883
 1331W        W 5075   4.189   0.331   1.246
 1332W        W 5076   7.691   8.309   0.527
 1333W        W 5077   9.381   0.225   9.520
 1334W        W 5078   2.816   1.442   9.824
 1335W        W 5079   3.245   4.063  11.337
 1336W        W 5080   7.425   9.768   0.507
 1337W        W 5081   1.209   6.499   1.774
 1338W        W 5082  10.420   0.159   1.142
 1339W        W 5083   8.818   3.151   9.540
 1340W        W 5084   6.076   7.348   3.066
 1341W        W 5085   5.068   7.424  10.062
 1342W        W 5086   7.694   7.351   9.949
 1343W        W 5087   3.818   2.234   1.791
 1344W        W 5088   2.599   3.112  11.994
 1345W        W 5089   3.944   2.623   8.583
 1346W        W 5090   7.849   7.040   9.537
 1347W        W 5091   3.923   3.656  11.065
 1348W        W 5092   6.073   0.357   0.891
 1349W        W 5093   2.190   4.365   8.432
 1350W        W 5094   6.229   0.033  10.844
 1351W        W 5095   7.541   2.921   2.293
 1352W        W 5096   5.551   4.363  11.411
 1353W        W 5097   8.234   5.780   3.858
 1354W        W 5098   8.996   7.683   9.347
 1355W        W 5099   4.738   7.237   9.487
 1356W        W 5100   7.917   1.150   1.902
 1357W        W 5101   7.856   8.353   9.831
 1358W        W 5102   3.707   1.385   1.444
 1359W        W 5103   7.429   7.446  11.279
 1360W        W 5104   6.571   6.867   2.712
 1361W        W 5105   8.470   4.591   3.104
 1362W        W 5106   7.895   5.084   8.068
 1363W        W 5107   4.567  10.356  10.053
 1364W        W 5108   5.750   4.646   2.927
 1365W        W 5109   9.711  10.439   1.262
 1366W        W 5110  10.086   0.511  11.834
 1367W        W 5111   5.110   6.157  11.047
 1368W        W 5112   2.228   6.272   3.793
 1369W        W 5113   1.927   1.121   8.815
 1370W        W 5114   1.798   3.206  10.994
 1371W        W 5115   4.111   2.376   0.448
 1372W        W 5116   9.517   0.133   8.595
 1373W        W 5117   2.876   4.017   2.378
 1374W        W 5118   8.958   2.721  10.745
 1375W        W 5119   4.482   6.775  11.820
 1376W        W 5120   0.150   9.327  11.280
 1377W        W 5121  10.281   6.316   2.537
 1378W        W 5122   5.848   7.681   1.966
 1379W        W 5123   2.710   9.931   3.206
 1380W        W 5124   8.384   4.125   9.592
 1381W        W 5125   5.722   8.315   1.163
 1382W        W 5126   4.715   3.217   9.699
 1383W        W 5127   2.623   1.215  10.275
 1384W        W 5128   7.796  10.343   1.257
 1385W        W 5129   8.294   0.238   0.211
 1386W        W 5130   7.012   8.826   3.346
 1387W        W 5131   7.867   9.361   2.630
 1388W        W 5132   2.276   9.845   1.424
 1389W        W 5133   5.999   2.972  10.342
 1390W        W 5134   7.240   7.853   1.676
 1391W        W 5135   1.715   2.652   9.537
 1392W        W 5136   5.425   0.853  10.880
 1393W        W 5137   9.996   0.595   3.173
 1394W        W 5138   1.267   0.530  11.386
 1395W        W 5139   8.550   1.800   1.379
 1396W        W 5140   2.445   2.203   9.554
 1397W        W 5141   1.936   3.306   1.520
 1398W        W 5142   5.711   8.217   2.744
 1399W        W 5143   0.998   2.339   9.577
 1400W        W 5144   0.703   2.897  11.425
 1401W        W 5145   7.683   1.977  10.265
 1402W        W 5146   5.437   0.817   3.078
 1403W        W 5147   3.941   5.647  10.217
 1404W        W 5148   2.916   4.585  10.965
 1405W        W 5149   8.971   6.205   2.809
 1406W        W 5150   5.558   2.047   0.976
 1407W        W 5151   1.612   8.049  10.056
 1408W        W 5152   2.680   6.941   3.391
 1409W        W 5153   7.593   1.416   3.635
 1410W        W 5154   2.781   3.732   1.955
 1411W        W 5155  10.361   3.058   8.929
 1412W        W 5156   9.105   6.685   2.671
 1413W        W 5157   1.200   3.334   0.248
 1414W        W 5158   5.521   0.891   8.440
 1415W        W 5159   3.575   3.226  10.689
 1416W        W 5160   1.442   2.265   9.331
 1417W        W 5161   0.416   6.925  10.928
 1418W        W 5162   2.161   7.722   1.243
 1419W        W 5163   1.340   4.318   9.000
 1420W        W 5164   2.621   2.694   0.810
 1421W        W 5165   9.057   5.508   9.264
 1422W        W 5166   0.293   4.127  11.944
 1423W        W 5167   2.417   0.864   1.930
 1424W        W 5168   2.396   6.110   9.789
 1425W        W 5169   5.001   3.789   9.055
 1426W        W 5170   8.907   5.290   0.446
 1427W        W 5171   6.215   5.492   0.082
 1428W        W 5172   1.462   5.075   1.897
 1429W        W 5173   0.252   0.571   0.977
 1430W        W 5174   6.161   8.389  10.058
 1431W        W 5175   0.313   0.402  11.356
 1432W        W 5176   9.488   4.144   0.074
 1433W        W 5177   7.973   8.722   1.694
 1434W        W 5178  10.255   8.405   3.167
 1435W        W 5179   4.814   4.579   1.444
 1436W        W 5180   0.788   0.256   0.455
 1437W        W 5181   8.912   9.773   3.191
 1438W        W 5182   1.055  10.415   0.177
 1439W        W 5183   7.997   4.616   2.392
 1440W        W 5184  10.292  10.040   8.946
 1441W        W 5185   8.779   5.490   9.725
 1442W        W 5186   8.838   9.043   0.001
 1443W        W 5187   4.762   1.239   0.723
 1444W        W 5188   7.955   6.492   2.667
 1445W        W 5189   5.434   2.146  10.730
 1446W        W 5190   4.208   5.853  10.640
 1447W        W 5191   2.227   2.193  11.134
 1448W        W 5192   5.219   4.239   3.621
 1449W        W 5193   3.702   5.899   2.209
 1450W        W 5194   1.717   9.618   9.029
 1451W        W 5195   5.294   0.052  10.987
 1452W        W 5196   6.153   9.925   2.988
 1453W        W 5197   2.158   6.535   1.858
 1454W        W 5198   8.145   5.680   8.526
 1455W        W 5199   1.664   4.613   0.251
 1456W        W 5200   7.636   3.267  11.938
 1457W        W 5201   2.843   5.759  10.378
 1458W        W 5202   6.582   6.613   3.149
 1459W        W 5203   6.810   2.066  10.198
 1460W        W 5204   5.739   3.742   2.498
 1461W        W 5205   5.173   1.756   0.829
 1462W        W 5206   3.803   3.548   9.370
 1463W        W 5207  10.214   6.046   0.935
 1464W        W 5208   4.242   1.420   9.586
 1465W        W 5209   2.993   0.880   2.398
 1466W        W 5210   3.555   0.153  11.274
 1467W        W 5211   4.665   0.326   9.881
 1468W        W 5212   1.723   3.133   2.505
 1469W        W 5213   1.020   8.304   0.469
 1470W        W 5214   3.536   6.710   8.677
 1471W        W 5215   2.264   5.472  11.990
 1472W        W 5216   6.435   5.240   2.576
 1473W        W 5217   2.344   0.304   3.337
 1474W        W 5218   7.551   1.491   0.724
 1475W        W 5219   9.747  10.119  10.311
 1476W        W 5220   9.595   2.239   1.248
 1477W        W 5221   1.802   7.301  10.379
 1478W        W 5222   0.777   4.150   3.279
 1479W        W 5223   1.683   7.623  11.303
 1480W        W 5224   8.550   5.273   1.282
 1481W        W 5225   5.731   7.131   4.091
 1482W        W 5226   4.543   8.128   8.968
 1483W        W 5227   9.820   7.677   9.375
 1484W        W 5228   4.993   7.903   8.810
 1485W        W 5229   8.757   5.833   0.951
 1486W        W 5230   3.297   6.324   1.443
 1487W        W 5231   6.841   8.104   8.886
 1488W        W 5232   8.984   3.373   1.579
 1489W        W 5233   9.495   4.730  10.956
 1490W        W 5234   2.784   4.588   0.697
 1491W        W 5235   9.876   2.222   0.189
 1492W        W 5236  10.401   6.097   0.282
 1493W        W 5237   3.139   5.660   1.940
 1494W        W 5238   7.867   7.196  10.411
 1495W        W 5239   6.162   0.520  10.752
 1496W        W 5240   7.853   9.746  11.444
 1497W        W 5241   3.960   8.424   3.066
 1498W        W 5242   0.256   8.560   9.107
 1499W        W 5243   5.298   4.503   1.213
 1500W        W 5244   8.472   6.371   1.260
 1501W        W 5245   7.536   9.550   3.564
 1502W        W 5246   3.725  10.080   9.120
 1503W        W 5247   8.564   0.978   2.867
 1504W        W 5248   4.268   1.494  11.103
 1505W        W 5249   3.572   4.296   0.446
 1506W        W 5250   4.545   6.949   0.630
 1507W        W 5251   8.480   8.999   2.518
 1508W        W 5252   2.028   7.705   2.181
 1509W        W 5253   8.479   8.269  11.949
 1510W        W 5254   1.785   2.126   2.722
 1511W        W 5255   5.666   1.300   0.244
 1512W        W 5256   7.015   7.521   3.532
 1513W        W 5257   0.204   5.935  11.877
 1514W        W 5258   9.447   5.031   1.276
 1515W        W 5259   4.270   1.113  10.002
 1516W        W 5260   0.002   8.409  10.982
 1517W        W 5261   9.352   0.538  10.478
 1518W        W 5262   3.174   6.989   2.155
 1519W        W 5263   7.653   4.127   8.321
 1520W        W 5264   1.473   5.477  11.469
 1521W        W 5265   5.123  10.460   3.372
 1522W        W 5266   9.536   5.443   0.975
 1523W        W 5267   9.048   5.843   3.162
 1524W        W 5268   8.767   7.059   2.772
 1525W        W 5269   3.754   8.639   2.647
 1526W        W 5270   2.749  10.404  11.578
 1527W        W 5271   3.495   2.780  10.994
 1528W        W 5272   7.273   2.303   9.759
 1529W        W 5273   3.193   9.233   3.611
 1530W        W 5274  10.317   6.161   3.048
 1531W        W 5275   1.869   3.732  10.935
 1532W        W 5276   7.464   6.088   9.389
 1533W        W 5277   6.042   7.415   2.570
 1534W        W 5278   5.619   8.307   3.625
 1535W        W 5279   2.228   5.797   1.451
 1536W        W 5280   5.528   6.855   0.408
 1537W        W 5281   3.295   1.132   3.347
 1538W        W 5282  10.365   6.443   9.102
 1539W        W 5283   6.768   8.473   0.296
 1540W        W 5284   9.816   5.247  10.434
 1541W        W 5285   4.477   7.529   1.475
 1542W        W 5286   3.687   6.715   9.177
 1543W        W 5287   1.469   5.537   2.979
 1544W        W 5288   5.595   3.099   9.386
 1545W        W 5289   7.540   8.893   1.954
 1546W        W 5290  10.161   5.967   9.866
 1547W        W 5291   9.889   6.117   8.587
 1548W        W 5292   6.149   9.893   9.978
 1549W        W 5293   9.847   3.253  11.123
 1550W        W 5294   6.107   6.472  11.822
 1551W        W 5295   4.490   7.479   1.992
 1552W        W 5296   2.405   7.585  10.152
 1553W        W 5297   4.459   7.244  11.068
 1554W        W 5298   5.601   1.291   9.230
 1555W        W 5299   7.252   4.484   9.038
 1556W        W 5300   7.661   6.942   0.316
 1557W        W 5301  10.244   4.970   2.498
 1558W        W 5302   8.954   6.229   3.493
 1559W        W 5303   8.096   1.264  11.460
 1560W        W 5304   6.756   5.672   9.851
 1561W        W 5305   1.538   1.833   1.960
 1562W        W 5306   4.870   5.645   9.418
 1563W        W 5307   5.094   1.206   3.010
 1564W        W 5308   3.600   3.742   8.929
 1565W        W 5309   7.472   6.757  11.859
 1566W        W 5310   5.684   2.802   1.587
 1567W        W 5311   3.708   5.874   3.159
 1568W        W 5312   6.123   5.930  11.821
 1569W        W 5313   2.816   0.725  11.485
 1570W        W 5314   7.356   2.355  11.770
 1571W        W 5315   5.303   9.318   2.948
 1572W        W 5316   9.659   5.442   9.362
 1573W        W 5317   2.189   8.057  10.166
 1574W        W 5318   8.020   4.403   3.932
 1575W        W 5319   9.577   0.456   0.602
 1576W        W 5320   4.542   0.739   0.864
 1577W        W 5321   2.193   4.080   0.848
 1578W        W 5322   1.363   9.393  11.620
 1579W        W 5323   1.045   8.384  10.701
 1580W        W 5324   1.583   0.778   0.799
 1581W        W 5325   7.801   1.131   2.442
 1582W        W 5326   9.191   5.568   3.579
 1583W        W 5327   1.838   9.243   0.341
 1584W        W 5328   9.843   0.287   2.793
 1585W        W 5329   1.383   8.455   9.258
 1586W        W 5330   8.837   0.806   9.037
 1587W        W 5331   6.545   5.031  11.061
 1588W        W 5332   8.945   7.903   3.370
 1589W        W 5333   5.423   7.113   8.767
 1590W        W 5334   1.841   8.041   9.113
 1591W        W 5335   6.360   2.428  11.938
 1592W        W 5336   1.229   1.111   0.033
 1593W        W 5337   3.359   8.749   0.446
 1594W        W 5338   5.719   0.197  11.442
 1595W        W 5339   7.106   6.583   1.525
 1596W        W 5340   8.000   7.686  10.640
 1597W        W 5341   9.267   2.390  10.470
 1598W        W 5342   9.826   6.136   2.324
 1599W        W 5343   7.270   2.941   0.920
 1600W        W 5344   0.953   5.164   0.563
 1601W        W 5345  10.347   4.512   1.254
 1602W        W 5346   3.559   3.662   9.800
 1603W        W 5347   8.961   3.585   0.291
 1604W        W 5348   6.014   5.204  10.129
 1605W        W 5349   9.759   8.161  10.766
 1606W        W 5350   8.879   4.376   2.574
 1607W        W 5351   7.396   6.580   1.970
 1608W        W 5352   1.306   5.735   9.929
 1609W        W 5353   0.026   8.759   2.269
 1610W        W 5354   7.617   8.116   1.452
 1611W        W 5355   6.939   4.541  11.818
 1612W        W 5356   5.487   6.225   2.790
 1613W        W 5357   8.178   0.680   9.674
 1614W        W 5358   6.046   9.157   1.764
 1615W        W 5359   5.300   9.876   0.937
 1616W        W 5360   7.652   9.541  11.027
 1617W        W 5361   7.095   3.582   2.073
 1618W        W 5362   4.718   3.636   0.917
 1619W        W 5363   8.513   1.495   9.953
 1620W        W 5364   8.456   3.787   2.469
 1621W        W 5365   2.513   1.606   0.893
 1622W        W 5366   4.135   6.573   9.378
 1623W        W 5367   3.357   2.298   9.625
 1624W        W 5368   9.626   3.472  11.549
 1625W        W 5369   6.138   0.323   1.419
 1626W        W 5370   5.203   3.914   9.519
 1627W        W 5371   4.902   9.035   2.878
 1628W        W 5372   3.254   7.443   3.675
 1629W        W 5373   9.416   9.762   1.762
 1630W        W 5374   1.649  10.399   2.940
 1631W        W 5375   8.443   2.785   9.490
 1632W        W 5376   4.100   4.128   1.948
 1633W        W 5377   1.298   9.417   9.248
 1634W        W 5378   2.830   7.364   0.487
 1635W        W 5379   8.935   3.172  11.033
 1636W        W 5380   5.021  10.472   0.311
 1637W        W 5381   1.245   2.736   1.434
 1638W        W 5382   8.530   5.532  10.555
 1639W        W 5383   2.678   6.028   2.889
 1640W        W 5384   0.185   2.703   9.140
 1641W        W 5385   6.980   6.067   3.559
 1642W        W 5386   4.448   5.671  10.234
 1643W        W 5387   4.293   1.391   3.580
 1644W        W 5388   4.085   6.124   2.894
 1645W        W 5389   7.174   3.206  11.700
 1646W        W 5390   5.937   5.639  10.415
 1647W        W 5391   1.420   6.876   2.876
 1648W        W 5392   0.923   2.694  10.187
 1649W        W 5393   7.239   3.695   2.917
 1650W        W 5394   4.982   5.173   0.304
 1651W        W 5395   7.039   0.357   1.694
 1652W        W 5396   6.032   2.449   2.206
 1653W        W 5397   5.592   2.444   1.939
 1654W        W 5398   7.839   5.600   8.939
 1655W        W 5399   2.164   7.790  11.464
 1656W        W 5400   8.537   0.681   1.498
 1657W        W 5401   5.513  10.237  11.438
 1658W        W 5402   4.770   8.085  11.693
 1659W        W 5403   4.630   6.002   1.161
 1660W        W 5404  10.339   3.108   2.937
 1661W        W 5405   1.952   1.374   9.255
 1662W        W 5406   4.761   3.626  10.472
 1663W        W 5407   0.538   5.212   0.892
 1664W        W 5408   0.523   9.355   0.718
 1665W        W 5409   9.856   2.374   9.798
 1666W        W 5410   2.766   7.857   2.826
 1667W        W 5411   1.225   6.567   2.279
 1668W        W 5412   0.975   9.347   8.402
 1669W        W 5413   6.142   1.048  11.430
 1670W        W 5414   2.222   6.819   2.405
 1671W        W 5415   2.129   4.319   0.136
 1672W        W 5416   0.409   6.541   8.973
 1673W        W 5417   3.929   3.190   3.579
 1674W        W 5418   5.465   3.385   3.690
 1675W        W 5419   4.700   1.270   2.645
 1676W        W 5420   5.170   1.202   1.483
 1677W        W 5421   3.911   8.947   3.044
 1678W        W 5422   1.591   9.177  10.474
 1679W        W 5423   1.111   8.489   1.411
 1680W        W 5424   6.196   1.412   2.299
 1681W        W 5425   3.828   2.808   0.561
 1682W        W 5426   7.552   3.068   9.169
 1683W        W 5427   1.357   2.448  11.581
 1684W        W 5428   5.120   2.227   0.634
 1685W        W 5429   6.362   7.305  10.414
 1686W        W 5430   9.821   1.793  11.457
 1687W        W 5431   1.002   1.383   1.421
 1688W        W 5432   6.382   1.996   1.540
 1689W        W 5433   5.670   8.510   3.154
 1690W        W 5434   4.192   6.746   2.396
 1691W        W 5435   2.274   0.844   2.859
 1692W        W 5436   5.646   3.272   1.782
 1693W        W 5437   7.365   6.867   0.701
 1694W        W 5438   4.479   2.177   0.075
 1695W        W 5439   2.737   5.653  11.252
 1696W        W 5440   7.619   4.090   3.030
 1697W        W 5441  10.241   5.725  11.803
 1698W        W 5442   8.056   1.660  11.788
 1699W        W 5443   5.630   3.178   3.264
 1700W        W 5444   7.910   1.933  10.729
 1701W        W 5445   2.106   4.192   1.846
 1702W        W 5446   5.535  10.263   0.369
 1703W        W 5447   2.238  10.414   9.757
 1704W        W 5448   5.227   2.049   2.668
 1705W        W 5449   2.326   5.154   0.378
 1706W        W 5450   4.777   7.160   8.998
 1707W        W 5451   2.825   9.053   8.990
 1708W        W 5452  10.073   9.406   1.687
 1709W        W 5453   6.948   6.565   0.020
 1710W        W 5454   5.666   2.205   0.497
 1711W        W 5455   9.678   1.797  10.958
 1712W        W 5456   5.527   7.360   1.237
 1713W        W 5457   0.289   4.703   0.943
 1714W        W 5458   9.865   8.069  11.259
 1715W        W 5459   7.345   9.665  11.502
 1716W        W 5460   4.182   9.127   0.727
 1717W        W 5461   9.272   5.463   0.098
 1718W        W 5462   4.634   8.219   2.709
 1719W        W 5463   0.250   2.870  10.896
 1720W        W 5464   6.399   2.476   0.861
 1721W        W 5465   3.333   0.736  10.015
 1722W        W 5466   2.790   1.407  11.873
 1723W        W 5467   0.634   5.078   2.766
 1724W        W 5468  10.258   3.198   0.312
 1725W        W 5469   2.703   7.207   9.802
 1726W        W 5470   2.915   9.035  10.476
 1727W        W 5471   2.855   6.989   0.123
 1728W        W 5472   7.674   7.973   0.967
 1729W        W 5473   0.760  10.053   2.065
 1730W        W 5474   3.937   5.203  11.458
 1731W        W 5475   6.165   2.417   1.365
 1732W        W 5476  10.246   6.507  10.633
 1733W        W 5477   6.256   8.552   0.351
 1734W        W 5478   4.153   6.870   0.230
 1735W        W 5479   2.151   6.095  10.784
 1736W        W 5480   2.609   5.526   2.210
 1737W        W 5481  10.444   6.998  10.745
 1738W        W 5482   5.090   3.106  10.898
 1739W        W 5483   3.063   1.853   1.705
 1740W        W 5484   7.436   7.145   2.727
 1741W        W 5485   6.107   3.390   2.430
 1742W        W 5486   0.259   6.203  11.416
 1743W        W 5487   7.512   8.621   1.467
 1744W        W 5488   9.132   7.097   2.385
 1745W        W 5489   8.681   4.804   0.390
 1746W        W 5490   1.154   7.581   9.370
 1747W        W 5491   4.344   9.944   0.898
 1748W        W 5492   2.461   9.890  11.932
 1749W        W 5493   4.163   2.240   1.422
 1750W        W 5494   7.714   4.822  11.780
 1751W        W 5495   9.190   3.495   2.961
 1752W        W 5496   2.809   6.107   8.996
 1753W        W 5497   0.484   7.369   0.347
 1754W        W 5498   1.505   1.952   9.747
 1755W        W 5499   9.127   7.533   0.803
 1756W        W 5500  10.401   0.775   2.921
 1757W        W 5501   4.966   3.324   1.328
 1758W        W 5502   2.278   3.532  11.535
 1759W        W 5503   9.803   1.340   2.667
 1760W        W 5504   4.996   1.255   8.998
 1761W        W 5505   4.326   3.735   2.184
 1762W        W 5506   9.848   8.362  11.826
 1763W        W 5507   7.451   4.058   1.643
 1764W        W 5508   2.667   3.546   2.419
 1765W        W 5509   4.593   7.240   3.420
 1766W        W 5510   3.255   1.381   9.575
 1767W        W 5511   0.384   8.066   8.997
 1768W        W 5512   8.361   7.051   3.120
 1769W        W 5513   5.880   8.935   8.828
 1770W        W 5514   3.526   6.411  11.931
 1771W        W 5515   2.473   5.212  11.151
 1772W        W 5516   2.882   9.894   1.283
 1773W        W 5517   3.541   4.507   1.376
 1774W        W 5518   7.000  10.466  11.357
 1775W        W 5519   2.896   7.655  10.048
 1776W        W 5520   9.511   2.642   1.989
 1777W        W 5521   5.132   8.309  10.567
 1778W        W 5522   2.686   8.631   8.669
 1779W        W 5523   0.589   3.529   1.626
 1780W        W 5524   5.481   4.699  10.135
 1781W        W 5525   2.295   7.300   2.720
 1782W        W 5526   4.097   6.681   8.860
 1783W        W 5527   5.354   7.973   1.259
 1784W        W 5528   0.052   5.720  11.414
 1785W        W 5529   7.603   0.360   9.068
 1786W        W 5530   5.492   2.649   9.143
 1787W        W 5531   5.716   9.557   0.942
 1788W        W 5532   3.037   2.209   1.343
 1789W        W 5533   8.888   8.558  11.847
 1790W        W 5534   3.293   1.446  11.092
 1791W        W 5535   2.846   6.245  10.519
 1792W        W 5536   7.990   2.306   3.823
 1793W        W 5537   1.143   6.969   0.470
 1794W        W 5538   5.945   6.969   1.356
 1795W        W 5539   2.097   4.264   2.859
 1796W        W 5540   7.149   8.180   1.256
 1797W        W 5541   5.717   5.589  10.910
 1798W        W 5542   4.178   2.885   0.191
 1799W        W 5543   5.934   1.203   1.909
 1800W        W 5544   6.156   6.164   0.266
 1801W        W 5545   5.200   2.871   0.287
 1802W        W 5546   0.002   2.113  11.055
 1803W        W 5547   3.092   2.707  11.316
 1804W        W 5548   6.590   1.889   2.520
 1805W        W 5549   9.866   9.866   1.407
 1806W        W 5550   4.857   9.864  11.693
 1807W        W 5551   7.416   7.285  11.780
 1808W        W 5552   6.067   1.652   9.286
 1809W        W 5553   9.461   8.475   2.261
 1810W        W 5554   3.886   3.644  10.543
 1811W        W 5555   4.903   7.497  11.099
 1812W        W 5556   3.708   9.558   1.485
 1813W        W 5557   3.580   2.673   3.024
 1814W        W 5558   5.167   3.408   9.402
 1815W        W 5559   4.580   6.895   1.184
 1816W        W 5560  10.493   9.124  11.900
 1817W        W 5561   1.901   0.400   9.437
 1818W        W 5562   3.560   9.008   1.362
 1819W        W 5563   6.151   0.635   9.548
 1820W        W 5564   2.049   3.779   1.258
 1821W        W 5565   3.540   2.229   1.350
 1822W        W 5566   5.559   6.063   9.732
 1823W        W 5567   4.206   9.141   9.840
 1824W        W 5568   5.738  10.079   0.820
 1825W        W 5569   8.569   8.551   2.312
 1826W        W 5570   7.059   0.993  11.426
 1827W        W 5571   9.543   2.645   2.498
 1828W        W 5572   0.174   4.054   2.386
 1829W        W 5573   1.696   2.377   9.982
 1830W        W 5574   6.206   7.495   9.973
 1831W        W 5575   6.558   4.533   0.137
 1832W        W 5576   7.669   7.508   2.242
 1833W        W 5577  10.200   2.316   2.412
 1834W        W 5578   6.505   2.805   9.486
 1835W        W 5579   7.549   3.950   0.738
 1836W        W 5580   4.737   0.236   2.915
 1837W        W 5581   8.663   1.733   2.820
 1838W        W 5582   4.070   6.470  11.934
 1839W        W 5583   8.871   7.044   3.260
 1840W        W 5584   6.883   6.804   0.544
 1841W        W 5585   2.779   9.400   1.406
 1842W        W 5586   4.419   4.571   2.795
 1843W        W 5587   7.928   2.792   0.358
 1844W        W 5588   6.114   8.958   2.375
 1845W        W 5589   5.047  10.428  11.436
 1846W        W 5590   1.713   3.786   0.768
 1847W        W 5591   2.187   2.625   9.752
 1848W        W 5592   5.632   7.041   3.284
 1849W        W 5593   0.700   4.877   9.553
 1850W        W 5594   1.224   9.552   2.137
 1851W        W 5595   3.861   7.101   3.255
 1852W        W 5596   6.953   3.287   0.698
 1853W        W 5597   4.353   4.734   1.292
 1854W        W 5598  10.174   8.276  10.481
 1855W        W 5599   8.873   5.022   8.977
 1856W        W 5600   0.965   7.968   8.622
 1857W        W 5601   3.690   4.930   2.325
 1858W        W 5602   1.401   4.104  11.501
 1859W        W 5603   7.928   9.048  11.853
 1860W        W 5604   7.156   9.806   1.762
 1861W        W 5605  10.405   9.887   3.236
 1862W        W 5606   8.473   4.744   2.627
 1863W        W 5607   0.277   2.735   1.698
 1864W        W 5608  10.418   1.126   1.876
 1865W        W 5609   9.732   8.746   1.028
 1866W        W 5610   6.972   1.679   3.430
 1867W        W 5611   2.078   2.723  10.943
 1868W        W 5612   0.439   0.392   3.415
 1869W        W 5613   4.541   6.767  11.268
 1870W        W 5614   5.176   3.503   2.730
 1871W        W 5615   3.671   6.271   9.451
 1872W        W 5616   1.748   2.723   2.207
 1873W        W 5617   9.505   5.618   3.167
 1874W        W 5618   5.835   3.762   8.592
 1875W        W 5619   3.054   0.850   1.142
 1876W        W 5620   5.156   9.270  10.765
 1877W        W 5621   8.512   8.111   2.572
 1878W        W 5622   5.914   2.978   9.780
 1879W        W 5623   0.219   5.530   2.884
 1880W        W 5624   2.305   4.216   1.363
 1881W        W 5625   6.592   2.005   0.817
 1882W        W 5626   1.816   9.890  10.934
 1883W        W 5627   0.686   8.052   1.016
 1884W        W 5628  10.363   2.667   9.861
 1885W        W 5629   1.711   1.790  11.590
 1886W        W 5630   0.945   7.800   1.914
 1887W        W 5631   1.249   3.770   0.528
 1888W        W 5632   6.292   2.631   9.918
 1889W        W 5633   0.813   1.865  10.279
 1890W        W 5634   8.308   6.099   0.856
 1891W        W 5635   1.792   8.112   1.249
 1892W        W 5636   4.830   4.008   9.871
 1893W        W 5637   9.284   0.712   1.769
 1894W        W 5638  10.447   7.046   3.159
 1895W        W 5639   3.180   5.654  11.995
 1896W        W 5640   5.756   7.719   2.880
 1897W        W 5641   1.744   3.987   8.908
 1898W        W 5642   9.352   9.996   3.327
 1899W        W 5643   7.486   8.670  10.012
 1900W        W 5644   3.800   7.347   0.778
 1901W        W 5645   8.569   0.449   9.284
 1902W        W 5646   3.656   6.078   0.689
 1903W        W 5647   2.830   7.183   8.936
 1904W        W 5648   6.095   4.413   9.469
 1905W        W 5649   3.438   2.758   8.499
 1906W        W 5650   3.189   1.796  11.453
 1907W        W 5651   9.480   5.239   1.786
 1908W        W 5652  10.258   7.699   9.103
 1909W        W 5653   3.843   6.107   0.214
 1910W        W 5654   6.445   2.356   2.466
 1911W        W 5655   4.999   6.263   9.066
 1912W        W 5656   5.680   4.072   0.700
 1913W        W 5657   1.207   7.880   0.274
 1914W        W 5658   4.441   0.002   9.571
 1915W        W 5659   0.508   8.329  10.821
 1916W        W 5660   4.197   4.863   1.776
 1917W        W 5661   1.743   6.620   2.497
 1918W        W 5662  10.228   5.658   1.362
 1919W        W 5663   6.283   3.627   0.193
 1920W        W 5664   7.686   9.433   2.143
 1921W        W 5665   8.173   6.524   9.258
 1922W        W 5666   7.032   5.790   0.473
 1923W        W 5667   6.473   4.888   2.957
 1924W        W 5668   6.448   6.367  10.303
 1925W        W 5669  10.359   2.642   0.398
 1926W        W 5670   6.032   1.144   9.492
 1927W        W 5671   1.367   8.967   9.578
 1928W        W 5672  10.413   4.625   3.151
 1929W        W 5673   9.533   5.866   0.325
 1930W        W 5674   3.702   9.979  11.058
 1931W        W 5675   5.230   0.350   3.027
 1932W        W 5676   6.389   1.900   9.619
 1933W        W 5677   3.128   2.096   3.655
 1934W        W 5678   4.533   3.603   9.979
 1935W        W 5679   8.333   8.058  10.495
 1936W        W 5680   2.915   3.685  11.034
 1937W        W 5681   9.913   6.192   0.530
 1938W        W 5682   0.796   2.706   1.949
 1939W        W 5683   0.201   1.922   0.511
 1940W        W 5684   7.994   4.225   0.290
 1941W        W 5685   8.036   4.395   8.631
 1942W        W 5686   9.869   3.583   8.921
 1943W        W 5687   9.443   4.601   0.983
 1944W        W 5688   0.115  10.383   3.570
 1945W        W 5689   3.144   7.837   9.045
 1946W        W 5690   3.366   0.841   0.301
 1947W        W 5691  10.354   0.025   8.777
 1948W        W 5692  10.015   1.207   8.686
 1949W        W 5693   6.101   7.455   9.091
 1950W        W 5694   7.471   3.110   0.420
 1951W        W 5695   6.175   1.232   0.964
 1952W        W 5696   5.062   1.603   1.772
 1953W        W 5697  10.479   2.169   2.810
 1954W        W 5698   5.680   3.710   1.481
 1955W        W 5699   6.600   2.539  10.356
 1956W        W 5700   1.601   9.086   3.280
 1957W        W 5701   8.039   0.229   1.454
 1958W        W 5702   0.743   0.209   2.821
 1959W        W 5703   1.364   3.683  11.070
 1960W        W 5704   6.891   2.893   9.043
 1961W        W 5705   4.788   9.439  10.463
 1962W        W 5706   0.223   6.965   0.501
 1963W        W 5707   0.956   5.634   1.700
 1964W        W 5708   2.335   5.562   1.000
 1965W        W 5709   4.733   6.624   8.598
 1966W        W 5710   8.557   3.730   1.576
 1967W        W 5711   2.636   0.823  11.045
 1968W        W 5712   5.563   7.409   0.175
 1969W        W 5713   0.719   5.091   8.949
 1970W        W 5714   1.308   1.474   9.852
 1971W        W 5715   1.755  10.223   9.035
 1972W        W 5716   5.763   5.425   0.624
 1973W        W 5717   4.949   6.990  10.319
 1974W        W 5718   9.848   6.001   2.889
 1975W        W 5719   7.172   4.122   9.738
 1976W        W 5720  10.497   5.575   3.353
 1977W        W 5721   5.418   8.054   3.207
 1978W        W 5722   7.945   7.358   0.402
 1979W        W 5723   4.789   4.956   9.403
 1980W        W 5724   5.389   6.203   8.734
 1981W        W 5725   6.645   4.956   0.386
 1982W        W 5726  10.228   4.552   2.140
 1983W        W 5727   8.370   1.297   0.826
 1984W        W 5728   0.048   6.676  11.579
 1985W        W 5729   8.226   4.137   0.743
 1986W        W 5730   2.626   4.475   9.256
 1987W        W 5731   4.592   2.655   9.306
 1988W        W 5732   1.783   5.640   1.660
 1989W        W 5733   4.280   7.953   1.942
 1990W        W 5734  10.466   4.567  11.940
 1991W        W 5735   3.636   5.404  11.822
 1992W        W 5736   1.708   3.801   9.808
 1993W        W 5737   2.941   0.717   0.642
 1994W        W 5738   6.008   1.593   9.782
 1995W        W 5739   0.448   4.275   8.715
 1996W        W 5740  10.416   2.292   9.012
 1997W        W 5741   4.505   3.602   8.087
 1998W        W 5742   9.499  10.357   0.771
 1999W        W 5743   9.274   8.782   1.871
 2000W        W 5744   8.779   5.258   3.314
 2001W        W 5745   9.024  10.281   2.829
 2002W        W 5746  10.184   7.879  10.884
 2003W        W 5747   9.692   9.173   8.458
 2004W        W 5748   0.527   6.965   2.392
 2005W        W 5749   3.074   7.629   1.892
 2006W        W 5750  10.277   5.818   2.657
 2007W        W 5751   2.321   9.914   2.424
 2008W        W 5752   4.649   7.637   9.776
 2009W        W 5753   7.827   4.626   9.898
 2010W        W 5754   5.064   5.164   1.908
 2011W        W 5755   0.522   6.428  10.991
 2012W        W 5756   6.798   3.089   3.123
 2013W        W 5757   2.143   2.578  11.455
 2014W        W 5758   5.484   6.907   0.992
 2015W        W 5759   2.453  10.369   3.114
 2016W        W 5760   8.509   3.594   0.990
 2017W        W 5761   6.022   6.992   9.970
 2018W        W 5762   3.704   3.079  11.958
 2019W        W 5763   0.237  10.496   9.136
 2020W        W 5764   6.558  10.078   1.926
 2021W        W 5765   0.811   9.881   9.079
 2022W        W 5766   5.991   4.171   8.869
 2023W        W 5767   2.112   9.849  11.513
 2024W        W 5768   6.598   9.509   1.096
 2025W        W 5769   8.751   6.469   0.320
 2026W        W 5770   1.290   3.412  10.420
 2027W        W 5771   8.070   0.032  10.992
 2028W        W 5772   0.921   8.637   0.120
 2029W        W 5773   1.440   5.352   8.913
 2030W        W 5774   6.633   8.587   0.779
 2031W        W 5775   3.167   8.032   8.558
 2032W        W 5776   3.408   3.114   2.235
 2033W        W 5777   0.745   5.177   1.749
 2034W        W 5778   1.033   9.456   1.381
 2035W        W 5779   8.819   5.548  11.297
 2036W        W 5780   2.240   0.775   1.418
 2037W        W 5781   3.285   1.691   8.739
 2038W        W 5782   2.294   4.708   2.176
 2039W        W 5783   1.710   6.684   9.340
 2040W        W 5784  10.356  10.337  11.390
 2041W        W 5785   0.299   1.808   1.383
 2042W        W 5786   0.342   2.284   3.809
 2043W        W 5787   5.328   8.539   8.440
 2044W        W 5788   8.585   0.822   1.001
 2045W        W 5789   1.919   0.377   3.042
 2046W        W 5790   9.837   5.169  11.372
 2047W        W 5791   6.687   4.434   2.788
 2048W        W 5792   5.213   0.992   0.199
 2049W        W 5793   1.890   2.274   3.184
 2050W        W 5794   0.272   6.105   1.777
 2051W        W 5795   2.368   6.110   9.283
 2052W        W 5796   3.512   9.636   3.739
 2053W        W 5797   3.183   4.577  10.076
 2054W        W 5798   1.796   2.281  10.842
 2055W        W 5799   9.249   5.420  11.569
 2056W        W 5800  10.498   1.244   3.129
 2057W        W 5801   8.663   3.589   2.925
 2058W        W 5802   4.531   6.685  10.354
 2059W        W 5803   6.989   3.239   0.184
 2060W        W 5804   4.247  10.286   9.161
 2061W        W 5805   3.079   1.176  11.497
 2062W        W 5806   2.140   6.959   0.489
 2063W        W 5807   7.498   2.598  11.342
 2064W        W 5808   6.117   3.984   9.743
 2065W        W 5809   6.997   8.695  11.878
 2066W        W 5810   4.637   3.626   3.446
 2067W        W 5811   2.671   5.276  10.277
 2068W        W 5812   8.496   7.190  10.954
 2069W        W 5813   3.830   3.577   0.027
 2070W        W 5814   5.175   3.523   3.241
 2071W        W 5815   0.130  10.046   9.972
 2072W        W 5816   1.654   5.162   2.709
 2073W        W 5817   1.883   1.807   8.772
 2074W        W 5818   4.303   7.045   9.187
 2075W        W 5819   9.867  10.030   1.889
 2076W        W 5820   6.993   2.217   2.201
 2077W        W 5821   5.719   6.828  10.891
 2078W        W 5822   2.087   4.843   0.033
 2079W        W 5823   7.897   1.634   2.429
 2080W        W 5824   5.952   5.531   1.480
 2081W        W 5825   1.121   4.532  11.454
 2082W        W 5826   2.736   5.573  11.745
 2083W        W 5827   2.747   8.488  11.220
 2084W        W 5828   7.086   1.748   1.961
 2085W        W 5829   1.331   1.130   1.142
 2086W        W 5830   4.221   2.330   3.537
 2087W        W 5831   0.554   7.812   9.530
 2088W        W 5832   2.955   9.996  11.862
 2089W        W 5833   1.327   0.915  11.054
 2090W        W 5834   5.612   4.641   9.633
 2091W        W 5835   7.961   3.641   2.434
 2092W        W 5836   8.965   5.368   0.985
 2093W        W 5837   7.904   2.162  11.895
 2094W        W 5838   0.771   6.013   3.471
 2095W        W 5839   3.862   7.122   2.703
 2096W        W 5840   3.603   4.180   8.587
 2097W        W 5841   8.883   2.674   9.277
 2098W        W 5842   7.755   2.806   0.842
 2099W        W 5843   4.705   4.019  11.920
 2100W        W 5844   0.938  10.121   9.558
 2101W        W 5845   8.793   7.915  10.637
 2102W        W 5846   5.236   2.311   3.138
 2103W        W 5847   1.871   3.117   3.477
 2104W        W 5848   3.309   9.663  10.902
 2105W        W 5849   8.625   0.916  11.837
 2106W        W 5850  10.413   4.655  10.832
 2107W        W 5851   7.126   7.985   2.636
 2108W        W 5852   4.170   9.412   3.292
 2109W        W 5853   2.359   3.150   3.366
 2110W        W 5854   7.675   1.302  10.999
 2111W        W 5855   9.401   3.097   1.777
 2112W        W 5856   7.428   7.053   3.241
 2113W        W 5857   5.441   9.417   1.988
 2114W        W 5858   4.763   0.792   0.258
 2115W        W 5859   6.053   6.062   1.540
 2116W        W 5860   5.581   4.069   8.245
 2117W        W 5861   7.639   1.505  10.028
 2118W        W 5862   3.297   7.215   1.691
 2119W        W 5863   0.316   2.843   0.290
 2120W        W 5864   4.691   1.447  10.784
 2121W        W 5865   2.251   6.484   2.794
 2122W        W 5866   1.201   7.972  10.943
 2123W        W 5867   7.445  10.078  10.279
 2124W        W 5868   8.122   0.570   1.065
 2125W        W 5869   8.420   4.057   8.684
 2126W        W 5870   7.006   3.845   3.334
 2127W        W 5871   1.606   9.729   0.340
 2128W        W 5872   8.396   8.416   9.033
 2129W        W 5873   1.419   9.319   1.693
 2130W        W 5874   1.644   4.125   1.630
 2131W        W 5875   7.507   8.108  10.604
 2132W        W 5876   9.017   6.648   1.157
 2133W        W 5877   1.466   1.459   3.638
 2134W        W 5878   2.807   2.202   0.862
 2135W        W 5879   8.925   6.171   1.329
 2136W        W 5880   1.276   3.804  10.091
 2137W        W 5881   0.305   0.469   2.940
 2138W        W 5882   0.452   8.776   9.569
 2139W        W 5883   7.985   0.649   3.330
 2140W        W 5884   9.132   0.789   9.871
 2141W        W 5885   8.080   2.850  10.222
 2142W        W 5886   1.145   6.350   3.645
 2143W        W 5887   8.489   1.891   9.625
 2144W        W 5888   9.484  10.413   3.047
 2145W        W 5889   7.045   2.400   0.208
 2146W        W 5890   8.815   0.251   2.323
 2147W        W 5891   1.822   8.733   0.417
 2148W        W 5892  10.316   8.972   2.706
 2149W        W 5893   1.018   5.293  11.265
 2150W        W 5894   3.170   2.817   9.874
 2151W        W 5895   0.765   1.755   3.011
 2152W        W 5896   7.459   7.401   0.281
 2153W        W 5897   9.980   4.711   2.894
 2154W        W 5898   4.684   3.745   0.395
 2155W        W 5899   9.923   1.227   0.798
 2156W        W 5900   9.286   0.281  11.411
 2157W        W 5901   1.394   9.878   9.464
 2158W        W 5902   2.910   4.820   8.569
 2159W        W 5903   9.083   6.691   0.647
 2160W        W 5904   8.938   8.426   3.108
 2161W        W 5905   8.084   3.540  11.817
 2162W        W 5906   6.816   8.997   0.237
 2163W        W 5907   6.139   9.528   1.362
 2164W        W 5908   7.928   6.038   2.387
 2165W        W 5909   7.764   7.623  11.981
 2166W        W 5910   4.412   2.735   3.293
 2167W        W 5911   4.093   5.022   0.915
 2168W        W 5912   3.353   9.927   1.484
 2169W        W 5913   7.690   9.433   9.056
 2170W        W 5914  10.318   8.437   2.632
 2171W        W 5915   5.254   1.455  11.998
 2172W        W 5916   7.049   0.403  10.473
 2173W        W 5917   2.594   2.063   1.572
 2174W        W 5918   4.450   2.758   0.602
 2175W        W 5919   1.271   6.849  11.967
 2176W        W 5920   2.676   1.187   2.710
 2177W        W 5921   4.213   4.796   2.340
 2178W        W 5922  10.496   4.695   1.726
 2179W        W 5923   7.232  10.304   2.900
 2180W        W 5924   4.626   8.965  10.619
 2181W        W 5925   9.302   5.728   1.725
 2182W        W 5926   8.466   2.342   0.360
 2183W        W 5927   3.426   9.096   2.910
 2184W        W 5928   3.119   2.721   2.100
 2185W        W 5929  10.311   2.558   3.088
 2186W        W 5930   5.069   9.801   1.964
 2187W        W 5931  10.250   9.705  10.017
 2188W        W 5932   5.586   9.299   0.257
 2189W        W 5933   1.767   8.655   2.642
 2190W        W 5934   7.021   2.831   0.480
 2191W        W 5935   9.867   8.582   9.537
 2192W        W 5936   5.636   9.991   2.747
 2193W        W 5937   7.036   4.957   9.133
 2194W        W 5938   1.791   6.710  11.788
 2195W        W 5939   8.051   5.048  10.062
 2196W        W 5940   2.550   8.072   9.819
 2197W        W 5941   0.331   6.886   1.371
 2198W        W 5942   5.040   4.929  11.014
 2199W        W 5943   8.579   1.474  11.860
 2200W        W 5944   5.859   9.865  11.474
 2201W        W 5945   8.218   7.770   1.824
 2202W        W 5946   9.665   1.356   2.173
 2203W        W 5947   8.322   0.751   0.211
 2204W        W 5948   7.077  10.165   0.765
 2205W        W 5949   9.221   5.107   3.147
 2206W        W 5950   7.034   9.867  10.537
 2207W        W 5951   2.761   0.712   2.847
 2208W        W 5952   9.976   9.376  11.306
 2209W        W 5953   3.985   0.778   0.775
 2210W        W 5954   5.122   7.085  11.528
 2211W        W 5955   8.022   2.281   9.015
 2212W        W 5956   9.780   1.829   0.499
 2213W        W 5957   4.402   7.065   8.660
 2214W        W 5958   8.575  10.467   2.676
 2215W        W 5959   8.141   7.314   2.199
 2216W        W 5960   4.640   2.586  10.262
 2217W        W 5961   2.830   1.733   1.273
 2218W        W 5962   0.339   1.768  11.553
 2219W        W 5963   1.575   2.781  10.796
 2220W        W 5964   4.133   5.261   2.571
 2221W        W 5965   4.111   4.381  10.361
 2222W        W 5966   4.153   8.340   9.566
 2223W        W 5967   2.091   1.467   8.460
 2224W        W 5968   6.007   2.448  11.525
 2225W        W 5969   9.049   3.839   1.756
 2226W        W 5970  10.360  10.439   0.688
 2227W        W 5971   8.389   5.197   0.269
 2228W        W 5972   8.433   7.460   2.727
 2229W        W 5973   7.611   2.735   2.783
 2230W        W 5974   5.629   8.486   1.905
 2231W        W 5975   3.731   9.357   1.022
 2232W        W 5976   0.702   2.585  11.006
 2233W        W 5977   6.167   9.878   0.994
 2234W        W 5978   6.057  10.358   1.197
 2235W        W 5979   8.336   8.551  10.603
 2236W        W 5980   2.409   1.244  10.924
 2237W        W 5981   8.291  10.281   1.304
 2238W        W 5982  10.104   7.468   0.926
 2239W        W 5983   7.122   5.123   1.634
 2240W        W 5984   8.568   3.738  10.465
 2241W        W 5985   6.932   7.474  11.205
 2242W        W 5986   1.023   5.682  11.633
 2243W        W 5987   7.475   4.306   1.158
 2244W        W 5988   3.086   3.257  10.535
 2245W        W 5989   8.406   8.796  11.875
 2246W        W 5990   2.503   2.789  10.617
 2247W        W 5991   9.908   6.046  11.495
 2248W        W 5992   1.025   7.151   9.098
 2249W        W 5993   5.674   1.796  11.503
 2250W        W 5994   6.504   7.104   3.201
 2251W        W 5995   8.401   7.907   3.572
 2252W        W 5996   1.872   5.606   0.753
 2253W        W 5997   2.670   6.489   3.633
 2254W        W 5998   9.517   0.388   3.213
 2255W        W 5999   3.694   4.754   1.838
 2256W        W 6000   8.427   0.962   1.922
 2257W        W 6001   3.208   6.043   3.244
 2258W        W 6002   1.180   2.259  10.063
 2259W        W 6003   4.288   9.888   1.499
 2260W        W 6004   3.304   5.696   0.756
 2261W        W 6005   5.450   0.849  10.064
 2262W        W 6006   6.400   5.015   9.385
 2263W        W 6007   3.619   5.374  11.115
 2264W        W 6008   0.246   5.102   3.329
 2265W        W 6009   2.328   6.056   1.895
 2266W        W 6010   3.051   8.145   9.947
 2267W        W 6011   7.940   3.321   9.404
 2268W        W 6012   7.385   4.044  11.337
 2269W        W 6013   2.316   6.517   0.813
 2270W        W 6014   4.439   4.608   9.554
 2271W        W 6015   8.467   7.701  11.002
 2272W        W 6016   5.717   1.221   2.358
 2273W        W 6017   9.219   0.294  10.046
 2274W        W 6018   9.937   6.953   0.289
 2275W        W 6019   6.286   6.191  11.397
 2276W        W 6020   5.483   5.866  11.283
 2277W        W 6021   5.051   6.969   9.809
 2278W        W 6022   2.838   7.496  11.980
 2279W        W 6023   8.067   4.522   1.888
 2280W        W 6024   8.941   6.121   9.444
 2281W        W 6025   7.179   1.695   1.471
 2282W        W 6026  10.329   9.898   2.208
 2283W        W 6027   5.566   7.060   9.675
 2284W        W 6028   1.441   7.543   9.784
 2285W        W 6029   6.583   6.218  11.824
 2286W        W 6030   7.169   9.223  11.322
 2287W        W 6031   5.248   7.911  11.850
 2288W        W 6032   2.896   1.057   0.268
 2289W        W 6033   3.391   0.379  11.731
 2290W        W 6034   4.925   4.402   9.532
 2291W        W 6035  10.174   1.445   2.214
 2292W        W 6036   9.374   8.127  11.112
 2293W        W 6037   8.034   0.287   2.470
 2294W        W 6038   1.583   3.359  10.016
 2295W        W 6039   1.527   8.258   0.535
 2296W        W 6040   7.074   3.073   2.181
 2297W        W 6041   0.096   4.017  10.115
 2298W        W 6042   9.289   1.364   2.559
 2299W        W 6043   6.474   2.438   1.896
 2300W        W 6044   0.328   6.479   0.402
 2301W        W 6045   1.237   6.910   3.407
 2302W        W 6046   1.973  10.456   0.747
 2303W        W 6047   2.818   6.421   8.566
 2304W        W 6048   0.501   2.318   9.047
 2305W        W 6049   7.999   4.166   2.662
 2306W        W 6050   6.970   8.920   9.075
 2307W        W 6051   1.155   5.041   1.487
 2308W        W 6052   9.607  10.315  10.860
 2309W        W 6053   8.359  10.476   2.223
 2310W        W 6054   1.590   5.182   0.859
 2311W        W 6055   9.520   0.890   3.018
 2312W        W 6056   0.756   3.357   2.782
 2313W        W 6057   2.770   8.465   1.388
 2314W        W 6058   0.071   2.157   3.393
 2315W        W 6059   1.262   3.185  10.867
 2316W        W 6060   0.315   2.366  10.762
 2317W        W 6061   3.595   4.109   0.915
 2318W        W 6062   5.069   8.409  11.050
 2319W        W 6063   0.460   1.825   9.827
 2320W        W 6064   0.863   0.915  11.278
 2321W        W 6065   2.006   7.093   9.337
 2322W        W 6066   5.221   6.648  10.802
 2323W        W 6067   0.928   6.346   1.379
 2324W        W 6068   2.245  10.203  10.758
 2325W        W 6069   7.387   5.741   3.531
 2326W        W 6070   6.259   2.885  11.704
 2327W        W 6071   3.387   7.074   9.537
 2328W        W 6072   8.098   8.134   0.772
 2329W        W 6073   3.730   6.873  11.906
 2330W        W 6074   1.363   9.317   0.129
 2331W        W 6075   5.613   6.075   1.223
 2332W        W 6076   3.666   7.173  10.568
 2333W        W 6077  10.098   6.554  11.355
 2334W        W 6078   7.458   3.273  10.197
 2335W        W 6079   6.668   3.712   0.643
 2336W        W 6080   7.090   4.548   1.579
 2337W        W 6081   0.532   1.888  10.725
 2338W        W 6082   3.818   8.707   3.486
 2339W        W 6083   9.584   2.799   9.057
 2340W        W 6084   5.583   7.958   0.225
 2341W        W 6085   9.268   9.872   9.954
 2342W        W 6086   7.209   2.695   8.606
 2343W        W 6087   5.265   7.586   3.084
 2344W        W 6088   3.681   3.805  11.521
 2345W        W 6089   5.592   1.715   9.517
 2346W        W 6090   8.788   1.307   2.525
 2347W        W 6091   7.989   3.656   0.791
 2348W        W 6092   9.099   2.650   2.824
 2349W        W 6093  10.062   7.083   3.490
 2350W        W 6094   8.900   5.715  11.824
 2351W        W 6095   4.198   3.796   9.618
 2352W        W 6096   7.470   4.982   8.855
 2353W        W 6097   0.477   4.589   0.091
 2354W        W 6098   3.214   5.402  10.235
 2355W        W 6099   3.259   1.284   0.962
 2356W        W 6100   1.695   9.799   9.875
 2357W        W 6101   6.062   1.265   8.952
 2358W        W 6102   1.675   9.670  10.380
 2359W        W 6103   0.479   2.127  11.209
 2360W        W 6104   1.516  10.394   1.807
 2361W        W 6105   7.176   5.058   1.146
 2362W        W 6106   7.366   3.184   2.833
 2363W        W 6107   6.475   4.506  11.602
 2364W        W 6108   0.709   1.257  10.953
 2365W        W 6109   4.334   2.734   1.424
 2366W        W 6110   5.579   8.958   1.659
 2367W        W 6111   6.561   0.026   9.634
 2368W        W 6112   3.185   3.715   3.562
 2369W        W 6113   2.301   9.430  11.776
 2370W        W 6114  10.290   9.127   8.961
 2371W        W 6115   4.662   3.727   1.417
 2372W        W 6116   1.981   9.545   8.536
 2373W        W 6117   9.089   4.591   0.612
 2374W        W 6118   8.083   6.621   9.750
 2375W        W 6119   2.823   3.947   1.489
 2376W        W 6120  10.140   5.616   9.442
 2377W        W 6121   2.955   8.608  10.153
 2378W        W 6122   3.655   7.964  11.826
 2379W        W 6123   6.826   5.518   1.780
 2380W        W 6124   3.831   8.356   2.139
 2381W        W 6125   0.261   1.313  10.729
 2382W        W 6126   3.302   1.311  10.076
 2383W        W 6127   9.134   8.296   8.550
 2384W        W 6128   5.286   3.016   2.555
 2385W        W 6129  10.340   9.179  10.077
 2386W        W 6130   2.075   2.846   8.838
 2387W        W 6131   2.659   5.027   2.382
 2388W        W 6132   8.936   9.813   1.241
 2389W        W 6133   3.168   6.138   0.980
 2390W        W 6134   8.744   0.448   0.119
 2391W        W 6135   1.263   8.164   2.699
 2392W        W 6136   4.602   1.644   9.897
 2393W        W 6137   6.596   2.230   0.355
 2394W        W 6138   3.026   4.106   9.423
 2395W        W 6139   8.952   9.311  10.788
 2396W        W 6140   8.574   4.555   9.420
 2397W        W 6141   4.487  10.481   0.269
 2398W        W 6142   0.152   9.770  10.491
 2399W        W 6143   7.899   4.737  10.779
 2400W        W 6144   1.450   9.097   2.168
 2401W        W 6145   5.943   7.628  10.398
 2402W        W 6146   5.092   8.147   3.631
 2403W        W 6147   0.819   3.611   2.336
 2404W        W 6148   9.753   6.152  10.460
 2405W        W 6149   5.985   8.687  11.886
 2406W        W 6150   3.369   6.828  10.377
 2407W        W 6151   4.684   2.648  11.755
 2408W        W 6152   4.242   1.755   8.752
 2409W        W 6153   3.639   7.742   3.926
 2410W        W 6154   8.924   7.527   2.587
 2411W        W 6155   7.667   0.263   8.320
 2412W        W 6156  10.072   9.456   1.187
 2413W        W 6157   1.595   4.546   3.643
 2414W        W 6158   8.529   9.372  10.062
 2415W        W 6159   5.343   4.815   2.160
 2416W        W 6160   8.857  10.434  11.380
 2417W        W 6161   2.851   0.275   3.565
 2418W        W 6162   7.568   2.677   9.532
 2419W        W 6163   5.531   8.318  11.758
 2420W        W 6164  10.426   7.912   3.294
 2421W        W 6165   6.520   0.468  11.954
 2422W        W 6166   2.378   6.845   9.626
 2423W        W 6167   2.808   8.109   9.358
 2424W        W 6168   8.408   4.176   1.261
 2425W        W 6169   5.566   5.145  10.371
 2426W        W 6170   9.938   1.884   9.939
 2427W        W 6171   4.771   3.672   2.461
 2428W        W 6172  10.116   8.395   0.283
 2429W        W 6173   5.078   9.239   0.225
 2430W        W 6174   4.691   1.219  10.313
 2431W        W 6175   0.678   2.275   9.979
 2432W        W 6176   2.245   4.775   9.079
 2433W        W 6177   8.889   9.563   1.720
 2434W        W 6178   7.247   6.460   9.907
 2435W        W 6179   0.402   4.313   0.535
 2436W        W 6180   9.225   5.770   1.211
 2437W        W 6181   2.786   9.425   2.954
 2438W        W 6182   2.725   7.834   0.672
 2439W        W 6183   2.547   0.299  11.316
 2440W        W 6184   6.149   4.733  11.275
 2441W        W 6185   2.912   0.296   9.258
 2442W        W 6186   0.942   0.478   8.444
 2443W        W 6187   9.874   3.738   1.269
 2444W        W 6188   4.938   3.980   4.107
 2445W        W 6189   7.150   7.744  10.823
 2446W        W 6190   9.007   5.935   8.973
 2447W        W 6191   1.668   4.204  10.772
 2448W        W 6192   7.050   4.600   9.525
 2449W        W 6193   0.766   1.432  10.000
 2450W        W 6194   8.888   0.258   0.895
 2451W        W 6195  10.304   7.178   8.990
 2452W        W 6196   2.130   1.854  10.772
 2453W        W 6197   3.741   0.987   9.117
 2454W        W 6198   2.296   8.471   9.421
 2455W        W 6199   4.169   1.306   1.825
 2456W        W 6200   7.344   7.885   3.662
 2457W        W 6201   6.921   0.793   9.585
 2458W        W 6202   1.846   1.384   2.024
 2459W        W 6203   7.447   8.408  11.658
 2460W        W 6204   2.734   2.145   2.875
 2461W        W 6205  10.455  10.051  10.933
 2462W        W 6206   3.275   7.947   3.596
 2463W        W 6207   8.038   0.775   2.828
 2464W        W 6208   2.347   7.673   3.069
 2465W        W 6209   2.588   2.288   2.408
 2466W        W 6210  10.385   3.710   0.028
 2467W        W 6211   6.489   6.987   1.827
 2468W        W 6212   6.116  10.455   1.764
 2469W        W 6213   3.900   0.088   8.945
 2470W        W 6214   3.787   0.543   9.350
 2471W        W 6215   7.191   7.842   0.869
 2472W        W 6216   5.054   3.554   9.874
 2473W        W 6217   8.087   9.303  10.349
 2474W        W 6218   1.724   0.851   1.301
 2475W        W 6219   1.882   2.103  10.372
 2476W        W 6220   6.678   2.888   0.864
 2477W        W 6221   4.599   8.569  11.890
 2478W        W 6222   9.901   9.638   8.592
 2479W        W 6223   6.242   8.861  11.473
 2480W        W 6224   0.412   4.179   1.028
 2481W        W 6225   6.072   6.303   3.391
 2482W        W 6226   8.281   7.970   8.790
 2483W        W 6227   4.180   7.680   0.814
 2484W        W 6228   5.232  10.161  11.915
 2485W        W 6229  10.166   8.514   1.190
 2486W        W 6230   5.143   2.512  10.019
 2487W        W 6231   3.226  10.409   1.327
 2488W        W 6232   5.005   6.003  11.875
 2489W        W 6233   7.611   8.782   8.697
 2490W        W 6234   8.933   3.145   9.043
 2491W        W 6235   0.914   7.443  10.297
 2492W        W 6236   0.380   1.597  10.308
 2493W        W 6237   0.902   8.963   1.411
 2494W        W 6238  10.094   8.143   9.405
 2495W        W 6239   7.155   2.880  11.080
 2496W        W 6240   2.919   0.218   1.600
 2497W        W 6241   2.507   7.241   9.309
 2498W        W 6242   3.891   8.074   1.624
 2499W        W 6243   5.441   4.261   3.149
 2500W        W 6244   9.941   2.452  11.648
 2501W        W 6245   3.390   0.303   1.798
 2502W        W 6246   7.560   3.802  10.421
 2503W        W 6247   4.313   3.896  11.270
 2504W        W 6248   0.042   5.908   2.215
 2505W        W 6249   0.686   6.535  10.285
 2506W        W 6250   7.898   2.323   2.809
 2507W        W 6251   9.398   3.162   1.274
 2508W        W 6252   3.768   1.228   0.939
 2509W        W 6253   4.597   7.992   3.600
 2510W        W 6254   1.232   5.315  10.305
 2511W        W 6255   5.719   9.903   1.305
 2512W        W 6256   0.724   7.448   2.253
 2513W        W 6257   7.935  10.032  11.046
 2514W        W 6258   9.416   7.663  10.165
 2515W        W 6259   5.677   4.472   9.150
 2516W        W 6260   8.046   1.793   1.940
 2517W        W 6261   7.835   7.053   0.866
 2518W        W 6262   8.085   0.260   2.963
 2519W        W 6263   9.349   2.819   0.489
 2520W        W 6264   2.146   7.477   1.738
 2521W        W 6265   4.157   8.628   0.867
 2522W        W 6266   8.902   5.961  10.965
 2523W        W 6267   9.567   9.932   3.806
 2524W        W 6268   9.997   4.473   1.677
 2525W        W 6269   2.374   5.327   1.461
 2526W        W 6270  10.053   4.870  11.848
 2527W        W 6271   8.120   2.453   1.447
 2528W        W 6272   9.177   3.648   9.191
 2529W        W 6273   6.271   2.897   1.172
 2530W        W 6274  10.271   1.276   9.966
 2531W        W 6275  10.419   2.437   1.954
 2532W        W 6276   6.502   2.795   2.791
 2533W        W 6277   8.454   7.195   8.788
 2534W        W 6278   9.923  10.296   2.764
 2535W        W 6279   0.830   6.804   1.153
 2536W        W 6280   3.243   0.223  10.035
 2537W        W 6281   2.133   2.680   3.352
 2538W        W 6282   4.063   5.275   0.456
 2539W        W 6283   6.216   6.930   9.072
 2540W        W 6284   2.870   4.155   9.905
 2541W        W 6285   3.199   9.696   9.912
 2542W        W 6286   5.968   6.637  11.329
 2543W        W 6287   8.155   4.041  11.843
 2544W        W 6288   7.239   5.583   1.189
 2545W        W 6289   0.906   9.144   9.430
 2546W        W 6290   5.224   0.264   1.916
 2547W        W 6291   6.232   1.216  10.032
 2548W        W 6292   7.873   5.441   1.753
 2549W        W 6293   7.436   8.136   3.236
 2550W        W 6294   5.464   7.824   3.729
 2551W        W 6295   7.042   6.073   0.038
 2552W        W 6296   1.896   4.259   9.856
 2553W        W 6297   4.999   2.954   8.538
 2554W        W 6298   3.142   3.460   3.100
 2555W        W 6299   9.296   9.230   3.311
 2556W        W 6300   6.285   4.939   2.114
 2557W        W 6301   4.511   7.702  11.449
 2558W        W 6302   8.995   4.516  11.052
 2559W        W 6303   8.549   9.272  11.142
 2560W        W 6304   5.970   3.503   9.880
 2561W        W 6305  10.406   0.304   3.342
 2562W        W 6306   3.581   2.248   8.744
 2563W        W 6307   8.148   9.339  11.504
 2564W        W 6308   4.721   8.365   0.445
 2565W        W 6309   8.943   1.518   1.578
 2566W        W 6310   6.937   0.833  10.955
 2567W        W 6311   4.600   6.652   9.088
 2568W        W 6312   9.150   3.443   2.062
 2569W        W 6313   8.428   7.488   0.369
 2570W        W 6314   4.677   9.069  10.104
 2571W        W 6315   1.809   6.484   3.542
 2572W        W 6316   5.199   1.326   2.501
 2573W        W 6317   3.630   8.395  10.878
 2574W        W 6318   5.615   1.710   0.545
 2575W        W 6319   3.828   7.505   9.764
 2576W        W 6320   5.634   5.140   1.321
 2577W        W 6321   9.405   7.911   2.082
 2578W        W 6322   7.226   1.362   9.766
 2579W        W 6323   8.505   6.762   9.988
 2580W        W 6324   9.864   9.687   2.800
 2581W        W 6325   4.054   1.528  11.563
 2582W        W 6326   0.717   6.136   9.915
 2583W        W 6327   1.382   8.480  11.075
 2584W        W 6328   3.333   1.453  10.585
 2585W        W 6329   0.009  10.475   9.667
 2586W        W 6330   2.623   4.893   3.604
 2587W        W 6331   5.757   0.761  10.501
 2588W        W 6332   0.771   4.314   1.758
 2589W        W 6333   6.002   7.311   9.560
 2590W        W 6334   0.864   4.643   8.675
 2591W        W 6335   4.595   8.477  11.354
 2592W        W 6336   2.219   3.197  10.705
 2593W        W 6337   6.643   8.315   1.848
 2594W        W 6338   0.344   5.726   9.985
 2595W        W 6339   9.638   5.386   0.473
 2596W        W 6340   9.799   3.064   0.066
 2597W        W 6341   4.313   9.523  11.868
 2598W        W 6342   1.741   3.662  10.434
 2599W        W 6343   0.383   0.511   0.329
 2600W        W 6344   1.708   5.784   8.800
 2601W        W 6345  10.208   2.820  11.937
 2602W        W 6346   5.804   2.489   9.950
 2603W        W 6347   6.586   2.953   1.919
 2604W        W 6348   6.477   3.922  10.330
 2605W        W 6349   7.484   2.242   8.783
 2606W        W 6350   6.492  10.380  10.122
 2607W        W 6351   2.301   9.541   9.328
 2608W        W 6352   4.768   6.449   1.348
 2609W        W 6353   3.589  10.426  10.311
 2610W        W 6354   2.935   5.639   3.103
 2611W        W 6355   6.415  10.261   3.335
 2612W        W 6356   9.374   3.073   2.770
 2613W        W 6357   8.083   1.775   8.811
 2614W        W 6358   8.931   9.525   9.790
 2615W        W 6359   9.467   2.200   1.739
 2616W        W 6360   8.516   0.264   8.810
 2617W        W 6361   5.382   9.567   9.828
 2618W        W 6362   6.969   2.198   3.277
 2619W        W 6363   7.874   3.883  11.322
 2620W        W 6364   1.131   1.402  11.209
 2621W        W 6365   7.099   5.024  11.809
 2622W        W 6366   8.297   7.111   1.210
 2623W        W 6367   4.232   6.534   1.088
 2624W        W 6368   2.735   9.897  10.014
 2625W        W 6369   5.445   7.617   1.647
 2626W        W 6370   7.130   5.725  10.203
 2627W        W 6371   8.450   0.780   8.712
 2628W        W 6372   7.270   9.251   9.312
 2629W        W 6373   6.051   1.987  11.219
 2630W        W 6374   7.363   5.205  10.258
 2631W        W 6375   2.003   9.938   0.649
 2632W        W 6376   9.968   9.313  11.867
 2633W        W 6377   4.588   0.678  10.661
 2634W        W 6378   9.842   9.456  10.801
 2635W        W 6379   9.487   1.803   2.412
 2636W        W 6380   9.531   0.416   9.059
 2637W        W 6381   5.202   1.942  10.256
 2638W        W 6382   2.802   9.281   2.474
 2639W        W 6383   1.121   0.970   0.697
 2640W        W 6384   5.963   3.029   9.037
 2641W        W 6385   6.518  10.174  11.597
 2642W        W 6386   6.950   8.510  10.706
 2643W        W 6387   0.345   2.655  10.054
 2644W        W 6388   2.439   9.547   0.614
 2645W        W 6389   0.518   7.431  10.991
 2646W        W 6390   3.771   0.409   2.538
 2647W        W 6391   5.234   5.045  11.855
 2648W        W 6392   3.734   6.720   9.694
 2649W        W 6393   9.771   6.601   9.523
 2650W        W 6394   0.017   3.383   0.813
 2651W        W 6395   9.471   9.830  10.728
 2652W        W 6396   2.222  10.436  10.273
 2653W        W 6397   0.193   3.354  11.005
 2654W        W 6398   6.126   1.112   2.722
 2655W        W 6399   2.850   6.050   1.434
 2656W        W 6400   5.633   0.073   0.876
 2657W        W 6401   8.938   4.740   2.926
 2658W        W 6402   8.512   4.148   2.846
 2659W        W 6403   3.649   7.108  10.036
 2660W        W 6404   5.249   6.495   9.860
 2661W        W 6405   6.137   7.727   0.091
 2662W        W 6406   7.538   3.914   2.555
 2663W        W 6407   6.079   1.483   0.524
 2664W        W 6408   4.628   8.363   2.122
 2665W        W 6409   7.058   4.824   2.034
 2666W        W 6410   8.020   7.581   3.646
 2667W        W 6411   8.503   3.397   0.506
 2668W        W 6412   5.563   6.481  10.486
 2669W        W 6413   6.340   8.196   8.689
 2670W        W 6414   9.302   4.275   1.877
 2671W        W 6415   4.481   3.232   1.414
 2672W        W 6416   4.216   8.054  10.786
 2673W        W 6417   9.455   6.734   3.057
 2674W        W 6418   1.486   1.926   0.754
 2675W        W 6419   9.730   9.038   1.831
 2676W        W 6420   6.807   8.301   8.410
 2677W        W 6421  10.311   2.761  11.443
 2678W        W 6422   1.836   0.402   0.516
 2679W        W 6423   8.869   5.499   1.895
 2680W        W 6424   0.248   1.324  11.766
 2681W        W 6425   1.615   4.150   2.645
 2682W        W 6426   8.491   4.582   1.625
 2683W        W 6427   6.671   4.467  10.558
 2684W        W 6428   6.685   3.140  11.541
 2685W        W 6429   7.638   0.468   1.239
 2686W        W 6430   9.896   9.101  10.422
 2687W        W 6431  10.355   2.582  10.975
 2688W        W 6432   4.491   5.584   0.374
 2689W        W 6433   1.387   6.001   1.650
 2690W        W 6434   2.210   1.272   0.675
 2691W        W 6435   3.710   1.886   9.564
 2692W        W 6436   9.697   1.832   2.916
 2693W        W 6437   8.401   5.704  11.572
 2694W        W 6438   9.849   1.664   8.855
 2695W        W 6439   0.219   5.128   8.805
 2696W        W 6440   0.304   4.957  10.627
 2697W        W 6441   5.888   7.569   3.856
 2698W        W 6442   8.489   7.567   1.356
 2699W        W 6443   9.235   8.108   9.724
 2700W        W 6444   1.073   7.656   2.653
 2701W        W 6445   4.196   8.907   1.721
 2702W        W 6446   8.824   0.547   1.897
 2703W        W 6447   0.815   9.482  10.019
 2704W        W 6448   4.973   3.992   3.228
 2705W        W 6449   7.453   5.540  11.484
 2706W        W 6450   1.159   4.312  10.358
 2707W        W 6451   2.325   2.668  11.940
 2708W        W 6452   4.507   6.542   0.307
 2709W        W 6453   0.427   9.826   1.242
 2710W        W 6454   2.230   7.197   3.262
 2711W        W 6455   9.743   6.463  11.728
 2712W        W 6456   7.935   8.477   9.251
 2713W        W 6457   7.514   4.747   2.267
 2714W        W 6458   4.359   4.212   9.919
 2715W        W 6459   5.806   9.305   9.634
 2716W        W 6460   8.621   9.370  11.645
 2717W        W 6461   3.105   1.513   0.357
 2718W        W 6462   9.465   6.215  11.281
 2719W        W 6463   9.209   0.697   9.373
 2720W        W 6464   8.352   3.296  10.281
 2721W        W 6465   1.831   0.669  10.335
 2722W        W 6466   3.504   6.921   0.714
 2723W        W 6467   1.386   5.612  11.980
 2724W        W 6468   8.847   7.141   0.640
 2725W        W 6469   0.364   0.227  10.396
 2726W        W 6470   8.613   4.782  11.868
 2727W        W 6471   2.674   9.786   1.745
 2728W        W 6472   7.832   5.247   8.564
 2729W        W 6473  10.317   5.239  11.608
 2730W        W 6474   7.443   6.906   9.197
 2731W        W 6475   2.095  10.291   2.144
 2732W        W 6476   8.593   7.816  10.143
 2733W        W 6477   1.887   6.203   1.586
 2734W        W 6478   6.388   0.687   2.688
 2735W        W 6479   3.214   9.558   2.647
 2736W        W 6480   5.820   4.534   0.866
 2737W        W 6481   0.421  10.376   0.260
 2738W        W 6482   6.200   1.638   1.841
 2739W        W 6483   1.871   8.584   9.116
 2740W        W 6484   6.583  10.291  11.121
 2741W        W 6485   9.263   2.370   0.860
 2742W        W 6486   3.183   0.969  10.441
 2743W        W 6487   1.492   1.002   2.063
 2744W        W 6488   8.723   8.192   9.826
 2745W        W 6489   6.119   4.286  10.986
 2746W        W 6490   3.788   7.666  11.441
 2747W        W 6491   0.472   1.858   0.050
 2748W        W 6492   8.013   3.139   8.880
 2749W        W 6493   7.024   9.179   1.030
 2750W        W 6494   7.602   0.503   2.971
 2751W        W 6495  10.464   4.650   9.977
 2752W        W 6496   9.392   9.382   9.942
 2753W        W 6497   7.477   0.150  11.324
 2754W        W 6498   7.837   6.969   1.396
 2755W        W 6499  10.310   1.207  10.957
 2756W        W 6500   5.170   1.320  10.513
 2757W        W 6501   3.050  10.251   9.155
 2758W        W 6502   0.964   7.066   8.569
 2759W        W 6503   7.084   8.848   0.638
 2760W        W 6504   2.293   8.810   1.521
 2761W        W 6505  10.383   6.056   3.557
 2762W        W 6506   0.362   0.943   0.081
 2763W        W 6507  10.361   4.133  10.564
 2764W        W 6508   8.581   2.604   1.182
 2765W        W 6509   8.417   0.247   9.720
 2766W        W 6510   0.658   7.368   9.338
 2767W        W 6511   8.374   5.545   1.729
 2768W        W 6512   8.728   4.231   9.051
 2769W        W 6513   0.825   3.702   9.349
 2770W        W 6514   6.169   4.422   2.140
 2771W        W 6515   8.388   6.535  11.481
 2772W        W 6516   2.553   4.737  11.271
 2773W        W 6517   9.941   6.938   1.888
 2774W        W 6518   8.279   9.661   0.403
 2775W        W 6519   3.421   3.260  10.117
 2776W        W 6520   0.084   6.012   1.294
 2777W        W 6521   2.019   8.252   0.387
 2778W        W 6522  10.422   6.440   1.558
 2779W        W 6523   6.876   5.288  10.153
 2780W        W 6524   2.657   5.993   0.961
 2781W        W 6525   7.473   5.893  10.801
 2782W        W 6526   6.153   9.999   1.548
 2783W        W 6527   9.177   1.773   2.845
 2784W        W 6528   8.583   5.073   1.754
 2785W        W 6529   0.242   8.579   2.900
 2786W        W 6530   8.346   9.734  11.277
 2787W        W 6531   5.721   7.090   9.169
 2788W        W 6532   7.245   1.843  10.008
 2789W        W 6533   6.123   8.642  10.511
 2790W        W 6534   1.773   5.996   3.496
 2791W        W 6535   5.936   4.093   3.124
 2792W        W 6536   7.019   0.697   0.723
 2793W        W 6537   2.521   8.280   0.534
 2794W        W 6538   9.770   5.934   1.833
 2795W        W 6539   8.340   9.128   3.492
 2796W        W 6540   8.533   2.856  10.495
 2797W        W 6541   3.299   3.273   8.583
 2798W        W 6542   3.138   2.233  11.114
 2799W        W 6543   9.064   1.252   8.674
 2800W        W 6544   8.901   7.015   1.894
 2801W        W 6545   0.180   3.093  10.418
 2802W        W 6546  10.415   8.238   2.149
 2803W        W 6547   2.175   6.416  11.615
 2804W        W 6548  10.450   6.026   9.438
 2805W        W 6549   3.072   2.408   0.119
 2806W        W 6550   3.918   3.310   0.514
 2807W        W 6551   5.568   3.307  11.623
 2808W        W 6552   8.518   8.556   2.832
 2809W        W 6553   8.762  10.340   8.973
 2810W        W 6554   1.952   8.019   1.765
 2811W        W 6555   5.300   9.565   3.398
 2812W        W 6556   3.865   2.330   9.803
 2813W        W 6557   4.530   7.931   0.579
 2814W        W 6558   8.140   1.701  10.312
 2815W        W 6559   9.853   0.503  10.332
 2816W        W 6560   9.854   0.950  10.080
 2817W        W 6561   5.937   2.725   8.368
 2818W        W 6562   7.956   8.881   1.220
 2819W        W 6563   1.256   4.256   3.450
 2820W        W 6564   6.040   0.002   0.226
 2821W        W 6565  10.018   7.398   9.946
 2822W        W 6566   1.152   8.976   0.978
 2823W        W 6567   8.345   0.008   0.819
 2824W        W 6568   3.162   5.271   1.493
 2825W        W 6569   1.903   3.714   1.811
 2826W        W 6570   8.463   6.075   1.676
 2827W        W 6571   0.010   0.184   0.266
 2828W        W 6572   0.040   1.171   8.475
 2829W        W 6573   7.621   1.068  10.335
 2830W        W 6574   7.810   6.191   1.000
 2831W        W 6575   4.081   9.013   1.234
 2832W        W 6576  10.103   2.646   0.848
 2833W        W 6577   9.505   8.904   0.508
 2834W        W 6578   1.057   5.158   9.321
 2835W        W 6579   5.956   8.820   9.844
 2836W        W 6580   9.416   2.323   0.373
 2837W        W 6581   8.059   6.100   8.879
 2838W        W 6582   7.183   5.483  10.644
 2839W        W 6583   8.348   5.426   3.506
 2840W        W 6584   0.312   9.966  11.913
 2841W        W 6585   9.286   5.347   9.696
 2842W        W 6586   3.295   1.293   9.071
 2843W        W 6587   1.015   4.781   1.957
 2844W        W 6588   8.583   6.181   3.158
 2845W        W 6589   9.400   6.311   9.296
 2846W        W 6590   6.949  10.438   0.308
 2847W        W 6591   0.003   0.742   2.358
 2848W        W 6592   6.688   7.821  11.952
 2849W        W 6593   5.299   1.429  11.504
 2850W        W 6594   6.246   8.882   2.909
 2851W        W 6595   1.403   0.969  10.029
 2852W        W 6596   7.946   2.129   2.336
 2853W        W 6597   0.974   5.879   0.328
 2854W        W 6598   8.682   0.028   0.453
 2855W        W 6599   4.634   8.927   9.606
 2856W        W 6600   5.544   3.213   0.165
 2857W        W 6601   1.823   6.731  11.256
 2858W        W 6602   4.129   6.356   0.601
 2859W        W 6603   3.456  10.045   0.004
 2860W        W 6604   2.588   4.094  10.350
 2861W        W 6605   5.260   8.703   3.782
 2862W        W 6606   0.493   8.946   2.075
 2863W        W 6607   1.322   2.020  11.852
 2864W        W 6608   0.439   7.208   2.828
 2865W        W 6609   3.221   1.832   9.862
 2866W        W 6610   7.254   0.386  10.012
 2867W        W 6611   4.736   3.125  10.243
 2868W        W 6612   4.558   9.428   9.582
 2869W        W 6613   8.467   4.380   3.552
 2870W        W 6614   8.592   3.859   0.051
 2871W        W 6615   9.414   1.856   3.347
 2872W        W 6616   3.066   2.661   1.083
 2873W        W 6617   1.288  10.342   9.258
 2874W        W 6618   6.635   5.661   0.929
 2875W        W 6619   4.426   5.830  11.397
 2876W        W 6620   7.970   8.160  10.834
 2877W        W 6621   1.387   4.749  11.849
 2878W        W 6622   1.858   9.921   1.128
 2879W        W 6623   3.014   9.158  11.877
 2880W        W 6624   8.795   9.508   0.287
 2881W        W 6625   4.173   7.417  10.129
 2882W        W 6626   8.499   1.331  10.447
 2883W        W 6627   3.029   0.060   2.102
 2884W        W 6628   0.414   7.114   1.915
 2885W        W 6629   9.259   9.291   1.955
 2886W        W 6630   7.403   0.085   1.484
 2887W        W 6631   1.122   8.275   1.910
 2888W        W 6632   5.042   8.733   9.302
 2889W        W 6633   4.586   9.098  11.980
 2890W        W 6634   1.497   9.332   1.153
 2891W        W 6635   2.816   9.491   9.239
 2892W        W 6636   5.926   8.013   8.939
 2893W        W 6637   7.857   9.766  10.428
 2894W        W 6638   6.181   4.224   0.709
 2895W        W 6639   3.331   0.458  10.469
 2896W        W 6640   8.288   2.311   1.978
 2897W        W 6641   4.627   2.650   1.892
 2898W        W 6642  10.165   5.227   0.513
 2899W        W 6643   6.751   1.677  10.562
 2900W        W 6644   2.111   2.154   1.423
 2901W        W 6645   8.346   6.942  11.795
 2902W        W 6646   6.921   6.590  10.303
 2903W        W 6647   8.061   5.221  10.962
 2904W        W 6648   8.781   5.707   1.453
 2905W        W 6649   4.062   4.675  11.646
 2906W        W 6650   6.009   5.294   9.625
 2907W        W 6651   9.857   4.178  11.402
 2908W        W 6652   4.301   3.079   9.975
 2909W        W 6653   1.572   4.581  11.118
 2910W        W 6654   2.423   4.343   3.315
 2911W        W 6655   7.153   6.947  11.222
 2912W        W 6656   5.656   4.204   2.676
 2913W        W 6657   2.827   9.332   0.874
 2914W        W 6658   3.031   4.773   1.149
 2915W        W 6659  10.312   3.476   1.285
 2916W        W 6660   4.875   8.646   2.515
 2917W        W 6661   5.185   0.482   0.286
 2918W        W 6662   8.278   3.750   7.951
 2919W        W 6663   7.872   6.895   3.514
 2920W        W 6664   2.699   9.455   9.735
 2921W        W 6665  10.148   5.984  10.725
 2922W        W 6666   9.808   5.560   2.628
 2923W        W 6667   5.128   7.560   9.553
 2924W        W 6668   3.580   4.008   9.399
 2925W        W 6669   1.113   0.113  11.692
 2926W        W 6670   1.663  10.253   0.379
 2927W        W 6671  10.473   7.469  10.113
 2928W        W 6672   7.698   6.459   9.086
 2929W        W 6673   8.318   5.805   1.262
 2930W        W 6674   4.586   6.284  11.863
 2931W        W 6675   3.385   4.521  11.119
 2932W        W 6676   9.983   1.326   9.207
 2933W        W 6677   0.203   5.267  10.230
 2934W        W 6678   0.978   1.617  10.708
 2935W        W 6679   1.685   7.403   1.969
 2936W        W 6680   0.225   0.385  10.861
 2937W        W 6681   7.014   4.873   0.710
 2938W        W 6682   6.865   8.774   1.882
 2939W        W 6683   4.549   8.534   9.279
 2940W        W 6684   7.529   4.769   1.392
 2941W        W 6685   4.184   8.292   0.496
 2942W        W 6686   5.125   3.194  11.879
 2943W        W 6687   4.706   6.010   1.691
 2944W        W 6688   8.626   8.064   9.328
 2945W        W 6689   0.190   4.487  10.418
 2946W        W 6690   6.372   2.041  10.527
 2947W        W 6691   0.216   7.996   0.755
 2948W        W 6692   9.816   0.373  11.307
 2949W        W 6693   8.471   7.520  10.538
 2950W        W 6694   1.180   5.199  11.764
 2951W        W 6695   6.547   3.748   2.357
 2952W        W 6696   5.203   7.403   2.624
 2953W        W 6697   3.844   1.285  11.962
 2954W        W 6698   2.554   6.691   0.390
 2955W        W 6699   5.551   8.073   2.213
 2956W        W 6700   5.074   8.376   0.029
 2957W        W 6701   0.479   1.388   3.241
 2958W        W 6702   6.258   2.131  10.036
 2959W        W 6703   8.127   5.516   2.202
 2960W        W 6704   4.249   4.806   0.351
 2961W        W 6705   1.302   2.802   1.928
 2962W        W 6706   0.265   4.313   3.338
 2963W        W 6707   5.266   3.495  11.211
 2964W        W 6708   1.969   8.282  10.629
 2965W        W 6709   5.699   2.111  10.276
 2966W        W 6710   9.039   1.222   9.256
 2967W        W 6711   9.298   7.927  10.649
 2968W        W 6712   7.804   6.024   3.662
 2969W        W 6713   4.216   2.092  10.233
 2970W        W 6714   0.573   8.533   1.301
 2971W        W 6715   8.548   5.109   0.785
 2972W        W 6716   8.991   1.747   8.337
 2973W        W 6717   4.074   3.235  10.797
 2974W        W 6718   4.171   6.110  10.158
 2975W        W 6719   2.261   7.904   8.777
 2976W        W 6720   0.421   4.705   3.627
 2977W        W 6721   1.657   9.489   2.433
 2978W        W 6722   3.786   1.397   9.853
 2979W        W 6723   9.753   8.397   3.363
 2980W        W 6724   0.933   3.210   9.478
 2981W        W 6725   7.039   4.073   1.325
 2982W        W 6726   0.708   2.778   9.216
 2983W        W 6727   5.157   4.048   2.758
 2984W        W 6728   2.999   6.906   0.645
 2985W        W 6729   4.020   6.860   0.719
 2986W        W 6730   9.047   4.610   9.281
 2987W        W 6731   3.758   5.765   9.465
 2988W        W 6732   5.508   4.279   8.700
 2989W        W 6733   7.874   2.639   3.244
 2990W        W 6734   1.709   1.672  10.550
 2991W        W 6735   3.679   7.138  11.455
 2992W        W 6736   8.410   2.351   3.518
 2993W        W 6737   6.984   0.470  11.382
 2994W        W 6738   2.385   8.448  10.398
 2995W        W 6739   1.651   3.548   0.313
 2996W        W 6740   3.169   6.458   8.958
 2997W        W 6741  10.348   4.216  11.239
 2998W        W 6742   5.186   2.355   3.688
 2999W        W 6743   4.253   3.367   3.195
 3000W        W 6744   3.599   5.904  11.828
 3001W        W 6745   9.522   4.110   0.824
 3002W        W 6746   6.195   5.726   0.552
 3003W        W 6747   0.955   3.299  11.800
 3004W        W 6748   2.726   4.975   1.508
 3005W        W 6749   0.887   7.097  11.093
 3006W        W 6750   3.251   5.897  10.092
 3007W        W 6751   8.555   1.826   1.884
 3008W        W 6752   6.631   9.818   1.495
 3009W        W 6753   7.051  10.407   9.952
 3010W        W 6754   5.003   9.360  11.736
 3011W        W 6755   4.231   7.037   1.967
 3012W        W 6756   7.846   9.636   0.818
 3013W        W 6757   7.126   8.567   8.703
 3014W        W 6758  10.047   5.720   0.398
 3015W        W 6759  10.080   3.482   8.416
 3016W        W 6760   1.161   3.305   3.141
 3017W        W 6761   4.240   6.159   1.466
 3018W        W 6762   4.729   7.492   0.464
 3019W        W 6763   0.985   5.535   8.984
 3020W        W 6764   5.700   0.405  10.973
 3021W        W 6765   5.517   0.995  11.804
 3022W        W 6766   8.068   8.864   8.926
 3023W        W 6767   6.031  10.333   8.990
 3024W        W 6768   1.453   0.234   0.209
 3025W        W 6769   9.742   1.391   1.263
 3026W        W 6770   8.549   5.215   2.267
 3027W        W 6771   2.710   6.035   3.405
 3028W        W 6772   4.679   3.163   9.202
 3029W        W 6773   9.919   5.254   1.269
 3030W        W 6774   5.174   0.334   0.801
 3031W        W 6775   2.830   1.781   9.014
 3032W        W 6776   5.189   5.574  10.968
 3033W        W 6777   2.643   3.070   2.619
 3034W        W 6778   9.730   2.268   3.304
 3035W        W 6779   8.974   6.617   9.305
 3036W        W 6780   1.053   9.597   0.406
 3037W        W 6781   6.475   9.969   0.110
 3038W        W 6782   4.516   4.471  11.702
 3039W        W 6783   1.794   5.890   1.205
 3040W        W 6784   5.989   8.881   9.344
 3041W        W 6785   7.562   9.590   9.550
 3042W        W 6786   3.740   7.007   1.175
 3043W        W 6787   7.031   4.049   0.800
 3044W        W 6788   8.044   5.029   2.074
 3045W        W 6789   8.470   0.300  10.446
 3046W        W 6790   6.541   4.045  10.837
 3047W        W 6791   4.613   0.848   8.594
 3048W        W 6792   8.932   1.788  11.667
 3049W        W 6793  10.183   7.490   3.103
 3050W        W 6794   3.193   4.945   3.171
 3051W        W 6795   5.953   3.581   3.287
 3052W        W 6796   1.497   7.569  10.798
 3053W        W 6797   0.434   2.252  11.711
 3054W        W 6798   4.681   9.625   1.329
 3055W        W 6799   8.044   3.409  11.339
 3056W        W 6800   5.180   7.491   9.035
 3057W        W 6801   2.197  10.331   1.204
 3058W        W 6802   1.948   5.128   1.742
 3059W        W 6803   9.078   5.029  10.951
 3060W        W 6804   4.607   2.526   1.036
 3061W        W 6805   1.899   3.187  11.537
 3062W        W 6806   3.783   6.251  11.485
 3063W        W 6807  10.339   1.773   9.627
 3064W        W 6808   1.285   3.889  10.609
 3065W        W 6809   9.444   5.517  10.151
 3066W        W 6810  10.006   5.605   3.222
 3067W        W 6811   6.611   6.153   2.279
 3068W        W 6812   3.823   7.116   8.848
 3069W        W 6813   3.103   6.371  11.333
 3070W        W 6814   1.859   5.031   8.867
 3071W        W 6815   2.596   3.677  10.078
 3072W        W 6816   7.962   9.830   8.806
 3073W        W 6817   4.276   8.415  10.421
 3074W        W 6818   0.714   7.892  10.978
 3075W        W 6819  10.488   7.035   9.814
 3076W        W 6820   4.193   9.400   1.607
 3077W        W 6821   2.029   0.276  11.376
 3078W        W 6822   8.159   2.898   1.192
 3079W        W 6823   2.044   8.502   1.823
 3080W        W 6824   1.178   1.319  10.328
 3081W        W 6825   7.463   6.606   2.471
 3082W        W 6826   7.468   0.778   8.827
 3083W        W 6827   6.749   1.797   1.250
 3084W        W 6828   0.197   7.068   9.332
 3085W        W 6829   2.797   1.262   9.303
 3086W        W 6830   7.489   4.086   0.255
 3087W        W 6831   2.577   2.784   8.950
 3088W        W 6832   4.377   0.880   3.217
 3089W        W 6833   7.479   5.532   0.373
 3090W        W 6834   3.328   7.485   9.841
 3091W        W 6835   4.844   0.366   8.636
 3092W        W 6836   0.485   9.481   9.187
 3093W        W 6837   3.548   8.653  11.305
 3094W        W 6838   6.504   0.016   0.979
 3095W        W 6839  10.298   5.145   9.205
 3096W        W 6840   2.585   1.448   0.377
 3097W        W 6841   7.207   7.482   9.940
 3098W        W 6842   3.839   6.592   2.722
 3099W        W 6843   3.337   1.746   1.249
 3100W        W 6844   7.475   0.154   0.294
 3101W        W 6845   6.435   5.544   9.483
 3102W        W 6846   9.146   5.861   2.250
 3103W        W 6847   4.505   9.894   3.192
 3104W        W 6848   5.919   7.588  11.305
 3105W        W 6849   6.698   3.429  10.284
 3106W        W 6850   9.480   1.100   3.490
 3107W        W 6851   6.749   2.778  11.951
 3108W        W 6852   3.131   6.090  10.910
 3109W        W 6853   7.421   0.017   9.389
 3110W        W 6854   1.910   4.485   2.418
 3111W        W 6855   5.703   5.603   9.965
 3112W        W 6856   6.474   6.368   2.712
 3113W        W 6857   3.460   0.056   9.253
 3114W        W 6858   8.506   9.026   3.027
 3115W        W 6859   0.818   0.616   3.682
 3116W        W 6860   9.485   4.603   9.038
 3117W        W 6861   3.991   2.948   3.125
 3118W        W 6862   2.214   9.066   0.760
 3119W        W 6863   2.240   1.965   9.135
 3120W        W 6864   2.885   9.520  10.637
 3121W        W 6865   1.300   9.903   8.958
 3122W        W 6866   9.044   7.496   2.086
 3123W        W 6867   7.454   1.443   3.162
 3124W        W 6868   9.014   2.182   9.109
 3125W        W 6869   0.763   6.370   9.358
 3126W        W 6870   0.021  10.461  10.676
 3127W        W 6871   9.751   7.231   2.252
 3128W        W 6872   2.577   7.646   1.974
 3129W        W 6873   5.925   2.562   8.856
 3130W        W 6874   2.728   9.526   0.175
 3131W        W 6875   4.229   8.222   2.399
 3132W        W 6876   9.836   3.311   2.882
 3133W        W 6877   3.788   9.463  10.792
 3134W        W 6878   0.234   4.439  11.511
 3135W        W 6879   6.547   4.602   9.648
 3136W        W 6880   7.462  10.422   1.946
 3137W        W 6881   0.156   0.449  11.845
 3138W        W 6882   6.468   3.099  11.058
 3139W        W 6883   0.042   9.457   0.885
 3140W        W 6884   8.321   8.402   9.563
 3141W        W 6885   3.774   6.492  10.155
 3142W        W 6886   7.336   5.609   1.691
 3143W        W 6887   1.444   8.935   8.448
 3144W        W 6888   8.442   1.654  11.414
 3145W        W 6889   1.741   3.685  11.445
 3146W        W 6890   6.237   1.506   0.020
 3147W        W 6891   2.730   6.987   2.461
 3148W        W 6892   0.032   1.828  10.617
 3149W        W 6893   7.213   6.192   8.541
 3150W        W 6894   8.875   6.919  10.280
 3151W        W 6895   0.796   6.811   1.656
 3152W        W 6896   7.567  10.253   0.612
 3153W        W 6897   5.331   3.784   8.647
 3154W        W 6898   9.500   0.062  10.424
 3155W        W 6899   2.279   8.147   2.594
 3156W        W 6900   1.654   8.630   2.141
 3157W        W 6901   8.204   2.577  11.982
 3158W        W 6902   4.672   5.213  10.330
 3159W        W 6903   0.043   0.843  10.683
 3160W        W 6904   9.912   4.490   0.796
 3161W        W 6905   0.905   6.576   0.703
 3162W        W 6906   7.399   9.479  10.585
 3163W        W 6907   5.173  10.274   2.037
 3164W        W 6908  10.445   6.389   2.065
 3165W        W 6909   3.025   1.870  11.955
 3166W        W 6910   4.852   3.380   8.787
 3167W        W 6911   7.695   0.935   1.470
 3168W        W 6912   5.740   2.689  10.913
 3169W        W 6913   3.134   6.282   2.822
 3170W        W 6914   6.332   9.066   0.362
 3171W        W 6915   6.173   4.305  10.493
 3172W        W 6916   2.337   8.110   2.092
 3173W        W 6917   7.627   9.926  11.845
 3174W        W 6918   5.134   5.530   1.173
 3175W        W 6919   4.176   1.583  10.175
 3176W        W 6920   3.614   5.217   2.742
 3177W        W 6921   6.150   0.168   9.360
 3178W        W 6922   4.128   1.356   9.078
 3179W        W 6923   4.961   2.708   0.711
 3180W        W 6924   0.948   8.429   9.931
 3181W        W 6925  10.370   8.215   8.988
 3182W        W 6926   2.261   5.643   9.488
 3183W        W 6927   0.915   0.997   9.231
 3184W        W 6928   2.528   4.199   0.444
 3185W        W 6929   5.585   8.048  10.379
 3186W        W 6930   6.930   3.013   2.654
 3187W        W 6931   3.299   4.543  10.612
 3188W        W 6932   6.924   5.388  11.492
 3189W        W 6933   0.481   3.772  10.998
 3190W        W 6934   9.854   1.422   9.693
 3191W        W 6935   6.251   5.636   9.983
 3192W        W 6936   5.977   5.070   1.706
 3193W        W 6937   8.922   8.081  11.681
 3194W        W 6938   8.534   8.548   1.771
 3195W        W 6939   6.588   1.310   8.945
 3196W        W 6940   2.126   9.664   0.236
 3197W        W 6941   5.169   7.561   0.966
 3198W        W 6942   4.155   6.177   8.810
 3199W        W 6943   8.101   0.482   9.110
 3200W        W 6944   2.756   4.463   1.454
 3201W        W 6945   2.643   4.528   8.249
 3202W        W 6946   2.170   1.505  11.679
 3203W        W 6947   6.011   6.129  10.532
 3204W        W 6948   3.136   4.136  10.334
 3205W        W 6949   3.186   0.357   0.229
 3206W        W 6950   9.932  10.252   0.481
 3207W        W 6951   8.874   8.827   1.268
 3208W        W 6952   7.205   3.556   3.747
 3209W        W 6953   9.348   6.930  10.442
 3210W        W 6954   0.641   8.448  11.658
 3211W        W 6955   4.590   7.150   9.990
 3212W        W 6956   8.124   9.532  10.848
 3213W        W 6957   9.424   7.563   0.364
 3214W        W 6958   3.175   8.343   9.025
 3215W        W 6959   1.907   8.505  11.945
 3216W        W 6960   6.060   9.506   0.344
 3217W        W 6961   4.050   4.890  10.464
 3218W        W 6962   4.615   9.099   1.942
 3219W        W 6963   8.385   5.093   3.003
 3220W        W 6964   0.239   5.525   1.444
 3221W        W 6965   4.065   9.700  11.452
 3222W        W 6966   1.555   3.539   3.569
 3223W        W 6967   0.686   7.499   8.714
 3224W        W 6968   1.358   5.588  10.977
 3225W        W 6969   9.445   6.176   1.459
 3226W        W 6970   4.764  10.371  11.850
 3227W        W 6971   0.877   6.107   1.848
 3228W        W 6972   0.447   9.984  10.879
 3229W        W 6973   7.862   0.156   0.887
 3230W        W 6974   5.619   8.013   9.568
 3231W        W 6975   6.320   5.430   1.832
 3232W        W 6976   9.938   3.767   2.692
 3233W        W 6977   2.851   5.125  11.483
 3234W        W 6978   8.434   9.734   9.691
 3235W        W 6979   9.966   0.378   1.390
 3236W        W 6980   6.365   9.447  10.843
 3237W        W 6981   9.289   4.941   0.273
 3238W        W 6982   0.767   3.633   0.280
 3239W        W 6983   4.997   4.828  10.292
 3240W        W 6984  10.401   8.019  11.362
 3241W        W 6985   6.772   1.212   9.998
 3242W        W 6986   0.622   1.631   0.492
 3243W        W 6987   1.984   6.310   9.558
 3244W        W 6988   6.061   9.361  11.435
 3245W        W 6989  10.220   7.352   9.475
 3246W        W 6990   6.141   3.533   8.942
 3247W        W 6991   3.780   6.319   8.432
 3248W        W 6992   2.838   6.104   1.948
 3249W        W 6993   5.210   6.962   2.355
 3250W        W 6994   7.796   4.401   0.743
 3251W        W 6995   8.095   9.773   2.872
 3252W        W 6996   6.792   6.505   8.577
 3253W        W 6997  10.222   9.041   0.932
 3254W        W 6998   9.076   8.043  10.206
 3255W        W 6999   5.211   0.382   9.006
 3256W        W 7000   0.428   1.944   2.668
 3257W        W 7001   5.989   5.110   2.800
 3258W        W 7002   3.601   7.891   3.025
 3259W        W 7003   2.813   0.257   3.044
 3260W        W 7004   9.353   1.210   1.595
 3261W        W 7005   7.925   3.313   9.990
 3262W        W 7006   8.203   1.022   1.344
 3263W        W 7007   3.162   5.018   2.354
 3264W        W 7008   6.689   1.013   2.932
 3265W        W 7009   6.109   8.110  10.540
 3266W        W 7010   1.921   5.587   3.227
 3267W        W 7011   7.246   5.517   9.728
 3268W        W 7012  10.495   5.313   1.032
 3269W        W 7013   0.691   5.268  11.664
 3270W        W 7014   9.119  10.308   0.415
 3271W        W 7015   8.654   4.646  10.303
 3272W        W 7016   9.849   0.367   3.597
 3273W        W 7017   5.308   8.402   9.578
 3274W        W 7018   9.612   6.701  11.299
 3275W        W 7019   7.854   4.229  10.468
 3276W        W 7020   8.380   6.991   9.516
 3277W        W 7021   7.359   6.243   3.828
 3278W        W 7022   5.555   3.776   2.965
 3279W        W 7023   5.793   5.799   0.261
 3280W        W 7024   3.098   2.686   1.582
 3281W        W 7025   5.100   6.752   8.949
 3282W        W 7026   7.884   4.243   9.579
 3283W        W 7027   2.699   6.681   8.992
 3284W        W 7028   3.610   9.485  11.294
 3285W        W 7029   7.925   0.393  11.473
 3286W        W 7030   7.780   5.587   8.154
 3287W        W 7031   8.540   5.396   9.274
 3288W        W 7032   8.320   0.523   3.697
 3289W        W 7033   2.729   6.494   2.621
 3290W        W 7034   5.334   5.583   3.154
 3291W        W 7035   7.560   0.437   3.491
 3292W        W 7036   3.759   9.165   1.792
 3293W        W 7037   6.601   6.049   9.265
 3294W        W 7038   6.455   8.623   2.211
 3295W        W 7039   0.122   8.462  11.559
 3296W        W 7040   5.932   7.135   8.166
 3297W        W 7041   1.423   2.395  10.485
 3298W        W 7042   7.441   3.432   0.823
 3299W        W 7043   1.027   1.837   2.075
 3300W        W 7044   7.357  10.340  11.707
 3301W        W 7045   6.172   3.255   1.946
 3302W        W 7046   7.795   4.588   9.035
 3303W        W 7047   4.286   9.630   0.365
 3304W        W 7048  10.053   5.488  10.811
 3305W        W 7049   6.414   8.092   2.249
 3306W        W 7050   0.004   7.442  11.005
 3307W        W 7051   1.174   0.470   9.941
 3308W        W 7052   1.696   1.817   9.262
 3309W        W 7053   5.744   1.700   2.071
 3310W        W 7054   3.001   2.810  10.806
 3311W        W 7055   9.883   5.215   2.229
 3312W        W 7056   8.558   9.784   2.077
 3313W        W 7057  10.400   9.865   1.183
 3314W        W 7058   4.322   7.130   2.964
 3315W        W 7059   4.025   6.335   3.360
 3316W        W 7060   4.321   1.399   2.316
 3317W        W 7061   9.999   9.784   0.226
 3318W        W 7062   5.239   4.755   9.278
 3319W        W 7063   2.209  10.266   8.630
 3320W        W 7064   4.719   7.507   8.611
 3321W        W 7065   3.689   7.853   0.731
 3322W        W 7066   7.413   7.633   1.266
 3323W        W 7067   8.474   9.759   3.536
 3324W        W 7068   2.711   4.982   9.038
 3325W        W 7069   6.488   9.249  11.704
 3326W        W 7070   1.894   2.621  10.427
 3327W        W 7071   8.443   0.987   3.425
 3328W        W 7072   8.194   1.214   0.032
 3329W        W 7073   5.562   3.623   0.465
 3330W        W 7074   7.017   4.499   1.050
 3331W        W 7075   2.328   0.431  10.471
 3332W        W 7076   2.823   9.524   3.458
 3333W        W 7077   0.659   0.431  10.019
 3334W        W 7078   9.340   7.461   1.249
 3335W        W 7079  10.257   7.035   0.688
 3336W        W 7080   4.725   7.671   9.203
 3337W        W 7081   0.155   7.986   9.960
 3338W        W 7082   8.141   7.563  10.139
 3339W        W 7083   9.119   0.326   0.434
 3340W        W 7084   8.958   9.389   8.779
 3341W        W 7085   1.780   1.230   0.927
 3342W        W 7086   5.674   3.643   0.959
 3343W        W 7087   7.317   1.776   9.452
 3344W        W 7088   4.022  10.366   3.234
 3345W        W 7089   1.839   2.261   8.992
 3346W        W 7090   3.639   0.503  10.917
 3347W        W 7091   3.428   4.549   0.040
 3348W        W 7092   2.409   1.929  10.352
 3349W        W 7093   1.269   5.091   2.383
 3350W        W 7094   1.086   5.197   8.573
 3351W        W 7095   4.359   3.676  10.802
 3352W        W 7096   0.283   3.405   2.438
 3353W        W 7097   8.946   7.954   2.319
 3354W        W 7098   4.581   8.309   0.937
 3355W        W 7099   3.927   4.612   8.663
 3356W        W 7100   3.019  10.347   0.861
 3357W        W 7101   8.401   4.918   9.141
 3358W        W 7102   2.383   8.606   3.354
 3359W        W 7103   5.347   0.742   1.655
 3360W        W 7104   8.431   6.082   0.360
 3361W        W 7105   5.143   3.346   0.855
 3362W        W 7106   6.982   9.977   2.188
 3363W        W 7107   2.102   8.954  10.013
 3364W        W 7108   0.777   5.191   2.256
 3365W        W 7109   5.693   9.905  11.966
 3366W        W 7110   8.132   3.634   1.333
 3367W        W 7111   5.702   7.562   3.360
 3368W        W 7112   6.768   2.842   9.941
 3369W        W 7113   5.840   4.488   0.241
 3370W        W 7114  10.412   9.479   8.503
 3371W        W 7115   5.431   2.141   9.814
 3372W        W 7116   8.954   2.731   3.319
 3373W        W 7117   4.219   8.424   1.802
 3374W        W 7118   9.966   0.051   3.222
 3375W        W 7119   4.970   7.678   1.422
 3376W        W 7120   1.852   2.792   0.738
 3377W        W 7121   5.729   7.835  10.835
 3378W        W 7122   3.799   0.561  11.459
 3379W        W 7123   6.634   8.559   8.917
 3380W        W 7124   9.616   2.799   0.923
 3381W        W 7125   9.452   8.925  10.176
 3382W        W 7126   6.169   2.516   3.638
 3383W        W 7127   3.570   8.915  10.787
 3384W        W 7128   3.148   7.767   0.386
 3385W        W 7129   4.088   4.023   0.988
 3386W        W 7130   1.333   5.522   0.488
 3387W        W 7131   7.650   8.164   2.778
 3388W        W 7132   5.122   9.868   1.418
 3389W        W 7133   3.255   6.935   9.056
 3390W        W 7134   8.091   5.495   3.060
 3391W        W 7135   9.365   0.449   1.058
 3392W        W 7136   8.803   3.256  10.044
 3393W        W 7137   9.023   9.352  11.339
 3394W        W 7138   5.719   2.732   3.741
 3395W        W 7139   1.791   5.527  10.716
 3396W        W 7140   6.932   4.272  11.398
 3397W        W 7141   4.235   3.918   0.169
 3398W        W 7142   2.196   8.093  11.062
 3399W        W 7143   6.175   7.673   8.618
 3400W        W 7144   1.767   1.249   9.734
 3401W        W 7145   5.402   6.489   0.038
 3402W        W 7146   1.319   7.157  10.106
 3403W        W 7147   8.924   3.570  11.788
 3404W        W 7148   6.042   5.181  11.628
 3405W        W 7149   0.503   7.866  10.492
 3406W        W 7150   7.439   6.526  11.366
 3407W        W 7151   8.106   7.877   2.795
 3408W        W 7152   2.534   0.174   1.949
 3409W        W 7153  10.200   0.515  10.941
 3410W        W 7154   6.395  10.439   2.257
 3411W        W 7155   2.749   5.114   4.043
 3412W        W 7156   8.350  10.328  10.321
 3413W        W 7157   8.972   3.525   8.693
 3414W        W 7158   7.177   3.694   0.468
 3415W        W 7159   8.221   7.977   9.828
 3416W        W 7160   0.691   1.208  10.454
 3417W        W 7161   6.745   9.311   9.387
 3418W        W 7162   1.144   0.476   1.903
 3419W        W 7163   4.199   9.354  11.118
 3420W        W 7164   4.973   7.422  10.594
 3421W        W 7165   8.150   6.907   0.275
 3422W        W 7166   4.710   5.436   9.853
 3423W        W 7167   3.999   6.587  11.094
 3424W        W 7168   6.988   8.268   3.467
 3425W        W 7169   3.871   1.956   3.471
 3426W        W 7170   7.373   6.322   0.767
 3427W        W 7171   4.243   3.204   8.911
 3428W        W 7172   0.949   0.410   2.383
 3429W        W 7173   4.350   0.975   0.454
 3430W        W 7174   5.219   1.252   0.975
 3431W        W 7175   7.485   4.764   0.896
 3432W        W 7176   6.940   3.742  10.929
 3433W        W 7177   7.135   1.692   0.936
 3434W        W 7178   5.463   4.892   0.910
 3435W        W 7179   7.217   0.339   8.643
 3436W        W 7180   1.903   6.227   9.040
 3437W        W 7181   6.090   6.789   3.242
 3438W        W 7182   6.447   4.833  10.257
 3439W        W 7183   2.135   9.868   8.932
 3440W        W 7184   3.584   0.865  11.811
 3441W        W 7185   6.544   6.303   3.541
 3442W        W 7186   3.680   9.978  10.549
 3443W        W 7187   7.570   9.090   2.971
 3444W        W 7188   6.445   8.268   9.345
 3445W        W 7189   0.314   1.564   9.373
 3446W        W 7190   9.306   4.831   9.665
 3447W        W 7191   6.094   2.860   0.688
 3448W        W 7192   1.146   4.270   2.454
 3449W        W 7193   8.927   4.871   2.427
 3450W        W 7194   9.494   3.577   1.610
 3451W        W 7195   4.340   2.797   2.308
 3452W        W 7196   0.686   9.213  10.450
 3453W        W 7197   3.843   8.522   1.273
 3454W        W 7198   1.033   2.812   8.805
 3455W        W 7199   4.760   3.047   4.059
 3456W        W 7200   7.041   1.905   0.012
 3457W        W 7201   0.616   6.671   8.506
 3458W        W 7202   1.714   6.079   2.513
 3459W        W 7203   6.995   7.905   3.128
 3460W        W 7204   5.169   8.335   2.835
 3461W        W 7205   5.368   8.838   0.412
 3462W        W 7206   8.773   5.498   8.812
 3463W        W 7207   7.004   9.251  11.822
 3464W        W 7208  10.409  10.185   0.232
 3465W        W 7209   1.470   3.253   0.697
 3466W        W 7210   7.062   6.645   1.031
 3467W        W 7211  10.373   0.678   0.224
 3468W        W 7212   9.940   4.241   9.570
 3469W        W 7213   3.336   5.010  11.310
 3470W        W 7214   7.874   6.906   2.959
 3471W        W 7215   4.707   3.044   0.993
 3472W        W 7216   4.093   4.134  11.707
 3473W        W 7217   9.436   8.319   1.783
 3474W        W 7218   0.876   2.854   0.967
 3475W        W 7219   2.914   5.202   1.940
 3476W        W 7220   0.997   2.299   9.071
 3477W        W 7221   9.871   7.109  11.426
 3478W        W 7222   5.673   7.124  11.356
 3479W        W 7223  10.122   4.581   0.349
 3480W        W 7224   5.542  10.029   3.312
 3481W        W 7225   5.158   1.259   9.507
 3482W        W 7226   1.223   4.240   2.953
 3483W        W 7227   9.661   3.931   9.262
 3484W        W 7228   3.743   8.196  11.375
 3485W        W 7229   0.430   8.646  11.203
 3486W        W 7230  10.235   2.170   0.594
 3487W        W 7231   5.092   0.687  11.799
 3488W        W 7232   7.219   1.888  10.534
 3489W        W 7233   3.836   8.799   9.940
 3490W        W 7234   8.069   3.248   0.222
 3491W        W 7235   1.823   7.895   0.775
 3492W        W 7236   5.529   8.799   1.155
 3493W        W 7237   1.288   8.105  11.432
 3494W        W 7238   9.928   4.710   3.436
 3495W        W 7239   2.690   2.988   1.236
 3496W        W 7240   6.543   8.973   1.113
 3497W        W 7241   2.010   3.465   2.755
 3498W        W 7242   8.719   0.542  10.082
 3499W        W 7243   6.626   6.726   1.370
 3500W        W 7244   5.629   9.971  10.072
 3501W        W 7245   8.785   3.644  10.938
 3502W        W 7246  10.009   0.280   0.314
 3503W        W 7247   9.839   8.297   2.860
 3504W        W 7248   3.198   1.292   1.471
 3505W        W 7249   5.665   6.305   3.718
 3506W        W 7250   4.485   7.637   8.092
 3507W        W 7251   2.731   8.079  10.333
 3508W        W 7252   6.714   5.937  11.274
 3509W        W 7253   2.643  10.265   3.596
 3510W        W 7254   1.389  10.084  11.133
 3511W        W 7255   1.900   6.946   1.993
 3512W        W 7256   3.197   4.776   1.661
 3513W        W 7257   7.171   0.282   3.185
 3514W        W 7258   7.948   0.806  10.676
 3515W        W 7259   2.328   2.876   0.424
 3516W        W 7260   3.074   1.850  10.789
 3517W        W 7261   1.369   3.076   3.534
 3518W        W 7262   8.034   3.553   3.360
 3519W        W 7263  10.269   9.420   2.987
 3520W        W 7264   2.917   1.206  10.799
 3521W        W 7265   0.256   4.272   1.933
 3522W        W 7266   9.673  10.309   9.587
 3523W        W 7267   1.332   1.812  10.243
 3524W        W 7268   7.269   7.882   9.635
 3525W        W 7269   4.503   0.773   2.729
 3526W        W 7270   5.761   8.053   1.614
 3527W        W 7271   1.173   4.300  11.914
 3528W        W 7272   3.162   9.899  10.429
 3529W        W 7273   6.584   0.177   1.848
 3530W        W 7274   5.378   0.501   3.496
 3531W        W 7275   5.087   9.959   2.462
 3532W        W 7276   0.642   0.254  11.960
 3533W        W 7277   6.579   4.494  11.093
 3534W        W 7278   0.733   0.409  11.046
 3535W        W 7279   2.923   1.639  10.296
 3536W        W 7280   3.181   7.861   0.926
 3537W        W 7281   2.599   4.226  11.901
 3538W        W 7282   2.285   1.659  11.215
 3539W        W 7283   4.670   9.627   9.087
 3540W        W 7284   3.734   0.382   0.996
 3541W        W 7285   5.049   6.053   0.850
 3542W        W 7286   3.359   2.676  11.778
 3543W        W 7287   0.437   4.010   1.532
 3544W        W 7288   7.584   7.448  10.783
 3545W        W 7289   7.114   6.223  11.062
 3546W        W 7290   8.425   8.923   0.979
 3547W        W 7291   0.597   2.546   3.451
 3548W        W 7292   0.386   7.456  11.853
 3549W        W 7293   3.541   4.987  10.720
 3550W        W 7294   7.074   8.849   9.611
 3551W        W 7295   9.762   4.313   3.164
 3552W        W 7296   3.643   8.505  11.799
 3553W        W 7297   3.961   0.048   2.193
 3554W        W 7298   7.008   7.908   2.112
 3555W        W 7299   1.384   4.968  11.375
 3556W        W 7300   0.298   5.278  11.329
 3557W        W 7301   7.529   3.180   9.691
 3558W        W 7302  10.018   9.091   9.428
 3559W        W 7303   7.124   0.400   1.179
 3560W        W 7304   0.544   1.331   8.992
 3561W        W 7305   5.710   6.512   1.453
 3562W        W 7306   8.875   0.549  10.628
 3563W        W 7307   0.818   6.994  10.084
 3564W        W 7308   4.546   7.649  10.765
 3565W        W 7309   2.369   6.896   8.059
 3566W        W 7310   4.739   6.831   3.145
 3567W        W 7311   2.864   3.149  11.444
 3568W        W 7312  10.365   2.964   1.288
 3569W        W 7313   0.539   7.048   8.912
 3570W        W 7314   9.945   9.494   9.076
 3571W        W 7315   4.267   3.665   2.696
 3572W        W 7316   8.561   6.650   3.437
 3573W        W 7317   0.809   7.812   9.091
 3574W        W 7318   1.924   2.199   9.512
 3575W        W 7319   7.175   9.403   2.821
 3576W        W 7320   1.498   7.981   9.516
 3577W        W 7321   6.717   6.976  10.920
 3578W        W 7322   4.581   0.764  11.784
 3579W        W 7323   1.280   1.028  11.545
 3580W        W 7324   5.197   4.267   9.132
 3581W        W 7325   6.705   7.380   9.975
 3582W        W 7326   3.988   3.109   1.406
 3583W        W 7327   4.696   6.951   2.150
 3584W        W 7328   5.558   2.557  10.465
 3585W        W 7329   6.283   8.725   8.585
 3586W        W 7330   4.027   8.037   8.701
 3587W        W 7331   2.232   6.600   9.209
 3588W        W 7332  10.231   7.967   2.828
 3589W        W 7333   3.102   1.931   3.190
 3590W        W 7334  10.434   0.906  11.770
 3591W        W 7335   7.494  10.086   1.544
 3592W        W 7336   1.239   3.312   2.637
 3593W        W 7337   3.344   6.123   1.896
 3594W        W 7338   0.887   4.716   2.462
 3595W        W 7339   6.059   1.999  11.751
 3596W        W 7340   8.617   9.367   1.274
 3597W        W 7341   6.535   2.322   2.975
 3598W        W 7342   6.941   6.443  11.500
 3599W        W 7343   4.560   1.114   9.248
 3600W        W 7344   0.800   8.456   2.736
 3601W        W 7345  10.006   0.873   3.597
 3602W        W 7346   4.290   9.424  10.610
 3603W        W 7347   0.500   2.798   8.741
 3604W        W 7348   4.180   4.200   3.593
 3605W        W 7349   4.609  10.025   0.451
 3606W        W 7350   2.214   3.765   9.757
 3607W        W 7351   5.592   5.107   9.847
 3608W        W 7352   5.485   9.870  11.063
 3609W        W 7353   9.249   8.955   8.724
 3610W        W 7354   1.411   9.263   0.633
 3611W        W 7355   9.378   8.096  11.952
 3612W        W 7356   1.380   9.954   2.841
 3613W        W 7357   2.450   1.775   0.017
 3614W        W 7358   5.938   7.928   9.977
 3615W        W 7359   0.782  10.206   2.900
 3616W        W 7360   1.246   2.855   2.910
 3617W        W 7361   5.675   3.586   4.278
 3618W        W 7362   0.383   8.968  11.583
 3619W        W 7363   2.644   7.538  11.494
 3620W        W 7364   7.468  10.103  11.264
 3621W        W 7365   1.773   2.796   1.708
 3622W        W 7366   1.715   9.312   9.998
 3623W        W 7367  10.401   6.015   8.591
 3624W        W 7368   2.101   7.111   8.444
 3625W        W 7369  10.036   7.830  10.224
 3626W        W 7370   1.226   3.647  11.559
 3627W        W 7371   7.173   0.209   3.712
 3628W        W 7372   4.010   0.861  10.892
 3629W        W 7373   7.778   6.126  10.466
 3630W        W 7374   7.678   1.980   9.748
 3631W        W 7375   7.872   7.867   3.253
 3632W        W 7376   1.716   5.215  11.881
 3633W        W 7377   5.068   4.117   8.164
 3634W        W 7378   8.073   1.998  11.394
 3635W        W 7379   5.322   4.441   0.698
 3636W        W 7380   8.750   2.619   0.695
 3637W        W 7381   6.861   1.740   9.678
 3638W        W 7382   6.941   4.022  10.494
 3639W        W 7383   1.361   4.334   9.888
 3640W        W 7384   5.292   6.659   8.483
 3641W        W 7385  10.037   2.199  11.192
 3642W        W 7386   2.429   1.236   3.543
 3643W        W 7387   5.801   5.091   2.199
 3644W        W 7388   6.953   0.173   0.754
 3645W        W 7389  10.346   8.964   3.244
 3646W        W 7390   9.984   2.805   2.745
 3647W        W 7391   4.701   3.126  11.578
 3648W        W 7392   2.273   9.924   2.939
 3649W        W 7393  10.271   3.074  10.862
 3650W        W 7394   9.496   1.107  11.955
 3651W        W 7395   4.416   8.896  11.119
 3652W        W 7396   0.852   6.652   2.632
 3653W        W 7397   7.954   4.102   2.162
 3654W        W 7398   6.389   9.007   9.021
 3655W        W 7399   5.207   8.379   8.906
 3656W        W 7400   4.972  10.438   9.736
 3657W        W 7401   4.483   9.576   2.335
 3658W        W 7402   1.186   0.453   0.674
 3659W        W 7403   4.862   0.267  10.547
 3660W        W 7404   3.889   9.915   1.162
 3661W        W 7405   4.181   7.901  10.307
 3662W        W 7406   3.722   1.931  11.537
 3663W        W 7407  10.288   8.432   1.678
 3664W        W 7408   7.617   1.811   1.671
 3665W        W 7409   7.510   9.959  10.764
 3666W        W 7410   8.830   9.015   1.749
 3667W        W 7411   1.796   8.127  11.463
 3668W        W 7412   1.006   5.537   3.208
 3669W        W 7413   9.446   7.877   3.468
 3670W        W 7414   9.399   8.601  11.856
 3671W        W 7415   8.599   4.290  11.779
 3672W        W 7416   3.542  10.298   3.072
 3673W        W 7417   4.131   4.374  11.237
 3674W        W 7418   9.752   1.001   1.819
 3675W        W 7419   7.546   8.911   4.011
 3676W        W 7420   2.630   2.425   0.375
 3677W        W 7421   9.857   9.788  11.694
 3678W        W 7422   4.428   3.621   9.123
 3679W        W 7423   9.385   2.217   2.707
 3680W        W 7424   4.223   6.563   9.919
 3681W        W 7425   1.001   2.386   0.774
 3682W        W 7426   6.261   0.762   1.165
 3683W        W 7427   5.991   5.688  11.378
 3684W        W 7428   4.234   8.918  10.301
 3685W        W 7429   8.503   8.006   1.031
 3686W        W 7430   0.496   5.109   0.135
 3687W        W 7431   7.817   9.383   0.354
 3688W        W 7432   2.869   9.025   3.283
 3689W        W 7433   2.224   1.219   1.173
 3690W        W 7434   9.893   2.296   2.805
 3691W        W 7435   1.827   1.420   1.425
 3692W        W 7436   0.294   4.911  11.693
 3693W        W 7437   8.921   7.981   2.847
 3694W        W 7438   8.931   1.737   9.362
 3695W        W 7439   4.584   9.084   2.468
 3696W        W 7440   8.366   2.336   2.508
 3697W        W 7441   3.580   1.295   0.435
 3698W        W 7442   8.299   6.296   3.762
 3699W        W 7443   1.820   4.817  11.589
 3700W        W 7444   6.744   6.721   9.040
 3701W        W 7445   7.633   0.897   0.712
 3702W        W 7446   8.582   1.453  10.968
 3703W        W 7447   2.078   9.302  10.362
 3704W        W 7448   9.901   4.655   9.929
 3705W        W 7449   3.794   9.139  10.365
 3706W        W 7450   0.690   9.413   2.234
 3707W        W 7451   2.646   2.234  11.898
 3708W        W 7452   2.851   3.059   3.343
 3709W        W 7453   9.974   6.406   1.871
 3710W        W 7454   1.454   3.602   8.682
 3711W        W 7455   9.418   3.950  11.548
 3712W        W 7456   8.309   9.989  10.719
 3713W        W 7457   2.012   4.863   3.654
 3714W        W 7458   0.741   6.526   2.117
 3715W        W 7459   0.637   0.363   1.961
 3716W        W 7460   9.702   4.188   8.820
 3717W        W 7461   0.887   2.770  11.882
 3718W        W 7462   8.100   7.948  11.792
 3719W        W 7463   6.452   8.470  10.857
 3720W        W 7464   3.561   7.588   9.344
 3721W        W 7465   3.283   3.800   2.653
 3722W        W 7466   6.012   6.100  10.019
 3723W        W 7467  10.408   8.177  11.931
 3724W        W 7468   9.792   5.009   0.806
 3725W        W 7469   7.459   4.586  11.025
 3726W        W 7470   5.183   8.389  10.079
 3727W        W 7471  10.326   5.128  10.565
 3728W        W 7472  10.297   7.010   1.197
 3729W        W 7473   7.142   7.229  10.800
 3730W        W 7474   7.589   9.086   9.709
 3731W        W 7475   8.571   9.253   9.566
 3732W        W 7476   9.593   3.449   9.447
 3733W        W 7477   0.036   0.874   9.736
 3734W        W 7478   9.891   9.313   9.905
 3735W        W 7479   9.872   6.099   9.481
 3736W        W 7480   6.916  10.161  11.885
 3737W        W 7481   5.482   9.987   1.743
 3738W        W 7482   5.501   3.317   9.838
 3739W        W 7483   9.560   6.640   1.692
 3740W        W 7484   5.061   8.504  11.544
 3741W        W 7485   3.737  10.474  10.823
 3742W        W 7486   9.367   9.500   0.510
 3743W        W 7487   4.780   8.683   8.847
 3744W        W 7488   9.348  10.311  11.863
 3745W        W 7489   3.723   8.653   1.752
 3746W        W 7490  10.358   5.520   9.952
 3747W        W 7491   1.552   3.674   2.800
 3748W        W 7492   6.640   8.459   1.328
 3749W        W 7493   2.893   7.463   2.354
 3750W        W 7494   3.057   5.087  10.897
 3751W        W 7495   5.264   9.666   0.053
 3752W        W 7496   0.015   3.176   9.940
 3753W        W 7497   9.388   3.279   0.278
 3754W        W 7498   8.916   8.345   1.063
 3755W        W 7499   4.272   6.806   3.368
 3756W        W 7500   9.993   8.827   0.548
 3757W        W 7501   2.420   3.391   0.371
 3758W        W 7502   7.398   2.444   0.930
 3759W        W 7503   6.614   0.237   8.732
 3760W        W 7504   2.638   6.944   8.522
 3761W        W 7505   0.262   3.343   0.332
 3762W        W 7506   9.417   6.225   3.102
 3763W        W 7507   7.583   0.034   9.862
 3764W        W 7508   2.975   6.828   2.912
 3765W        W 7509   1.448   8.216   3.187
 3766W        W 7510   2.865   2.878   0.355
 3767W        W 7511   1.207   9.800   8.449
 3768W        W 7512   5.788   4.230   3.620
 3769W        W 7513   0.221   4.205   2.860
 3770W        W 7514   9.766   5.871  11.033
 3771W        W 7515   5.974  10.380   9.927
 3772W        W 7516   4.229   7.322   0.455
 3773W        W 7517   7.332   9.018   0.212
 3774W        W 7518  10.290   9.478   2.492
 3775W        W 7519   3.262   7.077  11.740
 3776W        W 7520   2.486   7.860  11.849
 3777W        W 7521   5.703   0.723  11.418
 3778W        W 7522   9.231   2.311   3.190
 3779W        W 7523   3.759   3.190  11.188
 3780W        W 7524   4.713   3.155   3.201
 3781W        W 7525   7.392   6.977   1.647
 3782W        W 7526   2.400   9.933   9.622
 3783W        W 7527   8.319   3.766  11.066
 3784W        W 7528   5.648   9.097   0.756
 3785W        W 7529   3.811   9.451   2.907
 3786W        W 7530   1.741   9.508  11.289
 3787W        W 7531   1.806   6.485   3.015
 3788W        W 7532   3.355   7.394   8.927
 3789W        W 7533   0.294   1.627   8.377
 3790W        W 7534   6.540   0.184  11.494
 3791W        W 7535   4.697   4.586  11.199
 3792W        W 7536   8.238   2.642   0.748
 3793W        W 7537   6.201   8.195   1.375
 3794W        W 7538   0.811   9.306  11.557
 3795W        W 7539   5.131   6.044   2.448
 3796W        W 7540   2.693   8.109  10.856
 3797W        W 7541   6.128   4.254   1.232
 3798W        W 7542   4.746   8.569  10.280
 3799W        W 7543   5.609   9.035  10.529
 3800W        W 7544   7.548   0.082  10.353
 3801W        W 7545   4.505   4.717  10.354
 3802W        W 7546   7.150   4.920   3.347
 3803W        W 7547   4.935   7.367   8.127
 3804W        W 7548   8.006   3.186   1.595
 3805W        W 7549   5.453  10.440   9.927
 3806W        W 7550   9.178   6.703   0.139
 3807W        W 7551   9.577   8.966   9.696
 3808W        W 7552   2.236   0.751   9.634
 3809W        W 7553   8.049   6.691  10.259
 3810W        W 7554   5.236   7.106   4.206
 3811W        W 7555   7.354   7.148  10.334
 3812W        W 7556   3.047   6.632  11.772
 3813W        W 7557   0.289   2.909   9.594
 3814W        W 7558   6.229   7.064   4.003
 3815W        W 7559   1.828   6.731   1.517
 3816W        W 7560   1.128   5.266   1.030
 3817W        W 7561   8.703   7.423   3.551
 3818W        W 7562   1.325   7.089  10.633
 3819W        W 7563   8.811  10.260   0.913
 3820W        W 7564   7.068   7.098   8.911
 3821W        W 7565   1.799   4.958   2.276
 3822W        W 7566   4.229   5.210  10.086
 3823W        W 7567   6.197   8.364   2.881
 3824W        W 7568   5.040   3.352   0.363
 3825W        W 7569   3.175   1.013   2.851
 3826W        W 7570  10.430   0.632   1.356
 3827W        W 7571   1.541   7.796   2.422
 3828W        W 7572   6.912   6.252   8.128
 3829W        W 7573   5.945   9.649  11.028
 3830W        W 7574   4.460   1.719   2.829
 3831W        W 7575   8.126   2.791   2.825
 3832W        W 7576   8.587   6.778   0.939
 3833W        W 7577   4.829   1.330   2.134
 3834W        W 7578   9.405  10.133   2.170
 3835W        W 7579  10.012  10.147   0.977
 3836W        W 7580   7.662   8.141   0.038
 3837W        W 7581   3.287   6.005   9.170
 3838W        W 7582   2.260   5.991  11.885
 3839W        W 7583   8.389   7.049  10.413
 3840W        W 7584   0.210   7.172   0.966
 3841W        W 7585   8.541   2.830   9.989
 3842W        W 7586   5.133   6.488   2.164
 3843W        W 7587   1.395   6.914   8.870
 3844W        W 7588   5.643   3.310   2.780
 3845W        W 7589   8.143   6.495   3.171
 3846W        W 7590   4.675   9.861  10.822
 3847W        W 7591   8.998   4.740   1.541
 3848W        W 7592   1.769   2.885   9.987
 3849W        W 7593   7.103   8.897   2.846
 3850W        W 7594   6.131   6.508  10.854
 3851W        W 7595   1.340   3.291   2.149
 3852W        W 7596   7.050   2.734  11.549
 3853W        W 7597   9.859  10.224  11.975
 3854W        W 7598   3.738   8.050   9.532
 3855W        W 7599   3.166   1.431   1.967
 3856W        W 7600   6.470   0.217   0.465
 3857W        W 7601   5.080   1.782  10.752
 3858W        W 7602   2.284   5.558  11.491
 3859W        W 7603   5.369   5.699   8.581
 3860W        W 7604   2.238   7.387   9.695
 3861W        W 7605   6.142   8.089  11.079
 3862W        W 7606   1.861   7.617   9.466
 3863W        W 7607   6.964   3.496   2.556
 3864W        W 7608   1.884   4.522   1.419
 3865W        W 7609   0.335   0.951   2.711
 3866W        W 7610   0.912   5.079   9.980
 3867W        W 7611   0.470   4.836  10.129
 3868W        W 7612   4.640   5.368  11.198
 3869W        W 7613   5.129   3.798   0.148
 3870W        W 7614   4.312   4.595  10.819
 3871W        W 7615   5.591   3.307   2.277
 3872W        W 7616   2.145   9.756  10.554
 3873W        W 7617   7.626   9.603   1.648
 3874W        W 7618   4.125   6.033   0.990
 3875W        W 7619  10.330   1.790  11.457
 3876W        W 7620   8.947   2.878   1.443
 3877W        W 7621   0.589   5.913   1.439
 3878W        W 7622   7.441   0.548   9.541
 3879W        W 7623   8.501   3.906   3.314
 3880W        W 7624   9.069   2.245  11.464
 3881W        W 7625   9.338   4.631  10.116
 3882W        W 7626   1.952   9.071   2.873
 3883W        W 7627   1.795   0.905   9.346
 3884W        W 7628   9.436   1.276  10.937
 3885W        W 7629   8.569   4.584  11.328
 3886W        W 7630   8.467   2.727   8.965
 3887W        W 7631   8.893   1.939   3.232
 3888W        W 7632   7.195   7.895   8.570
 3889W        W 7633   1.976   7.713   2.696
 3890W        W 7634   9.895   0.665   0.977
 3891W        W 7635   1.178   4.043   1.449
 3892W        W 7636   5.738   1.282  10.756
 3893W        W 7637   8.051   7.829  11.254
 3894W        W 7638   2.277   5.273   3.477
 3895W        W 7639   7.994   9.782   9.327
 3896W        W 7640   2.671   8.961  10.987
 3897W        W 7641  10.483   1.848  11.956
 3898W        W 7642   9.427   8.587   2.749
 3899W        W 7643   3.211   4.708   3.618
 3900W        W 7644   9.748   0.845  11.028
 3901W        W 7645   7.151   6.699  10.756
 3902W        W 7646   9.038   0.717   0.759
 3903W        W 7647   9.973   9.953  10.796
 3904W        W 7648   5.246   9.712  10.374
 3905W        W 7649   7.466   8.631   3.167
 3906W        W 7650   5.720   6.461   0.932
 3907W        W 7651   1.401   9.548  10.887
 3908W        W 7652   9.812   3.767   9.806
 3909W        W 7653   6.992   0.096   9.075
 3910W        W 7654   6.492   6.626  11.214
 3911W        W 7655   1.752   6.195  11.880
 3912W        W 7656   5.250   4.459  11.018
 3913W        W 7657   5.684   4.205   2.146
 3914W        W 7658   5.570   5.093   3.142
 3915W        W 7659   1.947   3.233   9.656
 3916W        W 7660   6.156   3.331  11.431
 3917W        W 7661   6.374   7.726   1.265
 3918W        W 7662   5.634   0.269   0.395
 3919W        W 7663   3.261   4.988   4.050
 3920W        W 7664   8.194   6.664   2.245
 3921W        W 7665   1.078   3.543   1.488
 3922W        W 7666   4.822   9.471   3.188
 3923W        W 7667  10.452  10.492  10.172
 3924W        W 7668   9.307   4.046   2.482
 3925W        W 7669   8.415   1.844   2.363
 3926W        W 7670   3.702   3.995   1.393
 3927W        W 7671   1.060   7.100   9.638
 3928W        W 7672   9.671   4.741  10.471
 3929W        W 7673   2.797   1.199   0.767
 3930W        W 7674   2.260   8.307  11.561
 3931W        W 7675   8.037   8.467  11.767
 3932W        W 7676   1.826  10.027   1.636
 3933W        W 7677   6.535   9.344  10.356
 3934W        W 7678   9.631   3.788  10.608
 3935W        W 7679  10.481   0.812  11.252
 3936W        W 7680   1.247   1.394   2.300
 3937W        W 7681   9.432   2.682   1.474
 3938W        W 7682   4.895  10.233   2.971
 3939W        W 7683   4.129   2.694   9.064
 3940W        W 7684   9.463  10.029   2.705
 3941W        W 7685   5.612   6.642   8.920
 3942W        W 7686   8.069   2.878  10.722
 3943W        W 7687   1.807   2.759  11.798
 3944W        W 7688   3.592   0.896   2.575
 3945W        W 7689   8.488   8.916  10.287
 3946W        W 7690   0.277   4.199   9.234
 3947W        W 7691   1.544   1.443   8.937
 3948W        W 7692   4.952   2.241  11.883
 3949W        W 7693   8.582  10.475  10.859
 3950W        W 7694   2.132   1.078  10.053
 3951W        W 7695   0.964   6.991   2.110
 3952W        W 7696   8.064   0.668   1.715
 3953W        W 7697   7.295   6.208  10.359
 3954W        W 7698   9.296   0.639   3.594
 3955W        W 7699  10.494   5.085   9.704
 3956W        W 7700   8.816   5.088  10.506
 3957W        W 7701   9.032   4.569   8.772
 3958W        W 7702   4.894   3.700   8.402
 3959W        W 7703   4.974   5.681   0.271
 3960W        W 7704   2.378   0.333   2.804
 3961W        W 7705   9.726   8.999   3.508
 3962W        W 7706  10.439   8.604  10.100
 3963W        W 7707   6.348  10.354   2.776
 3964W        W 7708   4.241   5.348  10.579
 3965W        W 7709   7.078   3.356  11.233
 3966W        W 7710   1.447   1.684   0.228
 3967W        W 7711   7.439   5.201   9.332
 3968W        W 7712   3.305   0.427   1.301
 3969W        W 7713   1.222   3.681   1.015
 3970W        W 7714   7.077   6.102   9.065
 3971W        W 7715   5.978   2.128   9.103
 3972W        W 7716   9.859   1.854   9.389
 3973W        W 7717   0.866   1.716   2.528
 3974W        W 7718   3.318   9.572  11.819
 3975W        W 7719   6.576   0.501   0.873
 3976W        W 7720   3.335   3.949   3.123
 3977W        W 7721   3.409   5.409   3.214
 3978W        W 7722   7.226   4.118  11.817
 3979W        W 7723   1.227   6.109  11.870
 3980W        W 7724   0.862   9.632   9.525
 3981W        W 7725   7.172   7.481   2.387
 3982W        W 7726   9.403   3.662   1.109
 3983W        W 7727   3.919   9.705   0.696
 3984W        W 7728   5.637   1.739   3.052
 3985W        W 7729   3.276   4.881   0.556
 3986W        W 7730   5.087   4.059  10.744
 3987W        W 7731   8.052   5.382   1.251
 3988W        W 7732   4.514   4.127   9.408
 3989W        W 7733   5.344   9.770  11.555
 3990W        W 7734   7.484   9.609  10.070
 3991W        W 7735   6.871   9.387  10.737
 3992W        W 7736   0.202   6.175   0.799
 3993W        W 7737   2.638   5.662   9.916
 3994W        W 7738   3.163   4.219   1.251
 3995W        W 7739  10.219   6.856   9.392
 3996W        W 7740   9.615   7.425   0.822
 3997W        W 7741   7.064   5.237   0.288
 3998W        W 7742   5.956   0.771  10.005
 3999W        W 7743   8.080   8.394   2.609
 4000W        W 7744   6.589   6.680   2.249
 4001W        W 7745   6.876   4.831   9.949
 4002W        W 7746   3.859   3.071   9.248
 4003W        W 7747   1.762   2.244  11.356
 4004W        W 7748   6.870  10.336   2.546
 4005W        W 7749   1.388  10.378  10.270
 4006W        W 7750   5.941   4.745  10.343
 4007W        W 7751   4.936   7.871   8.269
 4008W        W 7752   8.439   3.614   8.441
 4009W        W 7753  10.290   0.787   8.761
 4010W        W 7754   9.017   2.516   1.828
 4011W        W 7755   2.885   4.617   4.104
 4012W        W 7756   4.619   6.474   2.343
 4013W        W 7757   5.031   7.172   1.332
 4014W        W 7758   0.695   6.150   0.955
 4015W        W 7759   9.551   0.054   0.272
 4016W        W 7760   2.878   3.718  10.524
 4017W        W 7761   3.232   8.322  11.507
 4018W        W 7762   7.875   2.409  10.502
 4019W        W 7763   0.864   1.371   0.915
 4020W        W 7764   9.484   1.839   0.932
 4021W        W 7765   7.196   2.602   2.525
 4022W        W 7766   1.443   8.465   1.025
 4023W        W 7767   3.116   2.505   0.606
 4024W        W 7768   7.558   6.144   2.727
 4025W        W 7769   5.623   1.138   1.256
 4026W        W 7770   7.019   9.652   0.822
 4027W        W 7771   9.603   7.199  10.100
 4028W        W 7772   5.968   6.715   4.281
 4029W        W 7773   4.607   3.227  10.803
 4030W        W 7774  10.055   0.997   1.386
 4031W        W 7775   0.408   8.942   1.560
 4032W        W 7776   2.696   7.891   1.187
 4033W        W 7777  10.367   8.527   0.739
 4034W        W 7778   9.953   5.459   1.761
 4035W        W 7779   6.671   5.277  11.975
 4036W        W 7780   5.069   7.887  10.297
 4037W        W 7781   9.933   4.975  10.855
 4038W        W 7782   9.841   1.437  10.198
 4039W        W 7783   4.245   4.439   9.083
 4040W        W 7784   5.600   9.489  10.718
 4041W        W 7785   4.524   6.004   0.676
 4042W        W 7786   7.666   5.588   3.965
 4043W        W 7787   2.143   0.370   9.980
 4044W        W 7788   6.532   9.978   2.477
 4045W        W 7789   5.236   9.444   0.651
 4046W        W 7790   9.668   9.808  11.209
 4047W        W 7791   7.975   0.292  10.547
 4048W        W 7792   0.807   7.925  11.504
 4049W        W 7793  10.306  10.325   1.946
 4050W        W 7794   5.692   3.587  10.932
 4051W        W 7795   2.310   5.051  11.618
 4052W        W 7796  10.070   5.704   2.193
 4053W        W 7797   4.728   2.723   9.782
 4054W        W 7798   6.061   7.202   3.545
 4055W        W 7799   7.567   6.654  10.445
 4056W        W 7800   1.642   8.601  11.523
 4057W        W 7801   5.976   7.125   1.874
 4058W        W 7802   8.648   1.733   3.617
 4059W        W 7803   4.479   7.938   8.500
 4060W        W 7804   8.535   6.195   9.119
 4061W        W 7805   3.397   4.647   8.645
 4062W        W 7806   8.365   9.269   0.069
 4063W        W 7807   1.347   6.375   2.724
 4064W        W 7808  10.202   4.168   2.913
 4065W        W 7809   7.462   5.825   0.804
 4066W        W 7810  10.482   1.720   2.521
 4067W        W 7811   2.930   2.056   9.473
 4068W        W 7812   0.088   1.605   1.813
 4069W        W 7813   4.060   6.919  10.297
 4070W        W 7814   6.754   4.594   3.276
 4071W        W 7815   7.170   2.655   1.363
 4072W        W 7816   4.863   2.818   2.315
 4073W        W 7817   4.877   9.506   2.681
 4074W        W 7818   5.137   4.678  11.479
 4075W        W 7819   8.961   0.393   1.416
 4076W        W 7820   4.011   7.539   3.041
 4077W        W 7821   1.822   3.226   2.004
 4078W        W 7822   1.673   9.506   2.945
 4079W        W 7823   7.130   7.877  11.479
 4080W        W 7824   1.290   4.272   0.403
 4081W        W 7825   9.390   8.533   8.988
 4082W        W 7826   0.804   3.837  11.783
 4083W        W 7827   0.700   7.105   0.753
 4084W        W 7828   3.347   8.822   3.358
 4085W        W 7829   9.633  10.389   3.547
 4086W        W 7830   1.190   2.870   0.491
 4087W        W 7831   6.944   9.965  11.381
 4088W        W 7832   2.330   3.841   2.657
 4089W        W 7833   4.953   4.199   0.946
 4090W        W 7834   4.646   4.939   9.904
 4091W        W 7835   2.805   1.152   3.203
 4092W        W 7836   8.985   8.402   2.570
 4093W        W 7837   3.288   2.383  10.122
 4094W        W 7838   1.785   6.230  11.335
 4095W        W 7839   4.623   7.629  10.269
 4096W        W 7840   6.490   3.037  10.503
 4097W        W 7841   7.338   1.029   9.386
 4098W        W 7842   7.007   7.463   9.456
 4099W        W 7843   4.090  10.100   0.350
 4100W        W 7844   8.383   1.982  10.976
 4101W        W 7845   5.665   1.136   0.728
 4102W        W 7846   8.180   6.618   1.622
 4103W        W 7847   9.386   3.121  11.263
 4104W        W 7848   0.284   7.831   0.265
 4105W        W 7849   0.257   1.756   8.896
 4106W        W 7850   4.461   1.042  10.995
 4107W        W 7851   7.487   2.718   1.799
 4108W        W 7852   8.343   0.923   9.216
 4109W        W 7853   4.677   3.028   0.115
 4110W        W 7854   5.866   2.386   0.047
 4111W        W 7855   7.377   5.028  11.363
 4112W        W 7856   7.457   3.246   1.876
 4113W        W 7857   1.225   7.450   2.185
 4114W        W 7858   4.170   0.776  10.393
 4115W        W 7859   6.741   1.468  11.957
 4116W        W 7860   2.665   3.860  11.471
 4117W        W 7861   6.950   0.976   0.286
 4118W        W 7862   1.432   8.673  10.506
 4119W        W 7863   8.329   9.827  10.207
 4120W        W 7864   8.051   6.020   0.007
 4121W        W 7865   1.901   8.526  11.093
 4122W        W 7866   9.758   9.837   9.834
 4123W        W 7867   3.787   1.815   9.023
 4124W        W 7868   4.454   8.101   0.093
 4125W        W 7869   5.136   9.424   1.146
 4126W        W 7870   1.356  10.309   9.770
 4127W        W 7871   6.529   3.641   3.230
 4128W        W 7872   2.810   8.560  10.642
 4129W        W 7873   5.551   6.405  11.118
 4130W        W 7874   7.049   8.662   1.110
 4131W        W 7875   5.119   8.962   0.860
 4132W        W 7876  10.172  10.290   1.441
 4133W        W 7877   1.466   9.102   2.699
 4134W        W 7878   4.612   5.536   1.886
 4135W        W 7879   1.271   8.478   8.742
 4136W        W 7880   4.480  10.456  11.430
 4137W        W 7881  10.412   3.661   2.163
 4138W        W 7882   8.073   7.493   9.615
 4139W        W 7883   4.070   6.825  11.536
 4140W        W 7884   7.412   7.598   3.210
 4141W        W 7885  10.072   6.833   2.419
 4142W        W 7886   2.803   4.518  10.486
 4143W        W 7887   6.106   0.207  11.768
 4144W        W 7888   0.444   0.441   2.452
 4145W        W 7889   2.785   5.529   0.752
 4146W        W 7890   4.587  10.338  10.552
 4147W        W 7891   6.105   0.343   8.865
 4148W        W 7892   5.642  10.388   1.478
 4149W        W 7893   6.925   3.806  10.038
 4150W        W 7894   2.847   8.833   2.780
 4151W        W 7895   7.579   5.262   1.389
 4152W        W 7896   2.315   5.674   0.492
 4153W        W 7897   9.420   7.620  11.050
 4154W        W 7898   7.422   9.115   2.452
 4155W        W 7899   8.669   2.397  11.886
 4156W        W 7900   8.949   5.932   9.916
 4157W        W 7901   8.965  10.049   1.786
 4158W        W 7902   3.719   8.092  10.460
 4159W        W 7903   3.308   2.141   0.902
 4160W        W 7904   0.036   2.889   0.793
 4161W        W 7905   0.748   2.907   1.480
 4162W        W 7906   4.152   8.838   9.427
 4163W        W 7907   3.616   8.064   9.043
 4164W        W 7908   1.598   2.244   2.261
 4165W        W 7909   0.296   6.009   3.218
 4166W        W 7910   4.788  10.378  11.005
 4167W        W 7911   0.245   6.035   2.683
 4168W        W 7912   0.922   5.491   9.682
 4169W        W 7913   5.031   6.508   2.660
 4170W        W 7914   1.916   9.896   9.422
 4171W        W 7915   8.014   8.822   9.598
 4172W        W 7916   5.150   1.285  10.015
 4173W        W 7917   4.799   2.044   1.011
 4174W        W 7918   6.622   4.256   2.320
 4175W        W 7919   2.731   0.678   1.502
 4176W        W 7920   3.303   8.590   2.908
 4177W        W 7921   6.131   0.472  11.294
 4178W        W 7922   7.754   0.431  10.981
 4179W        W 7923   2.512   7.005   0.842
 4180W        W 7924   9.978   5.499   8.969
 4181W        W 7925   8.104   3.031  11.730
 4182W        W 7926   5.491   0.788   2.499
 4183W        W 7927   5.552   7.299   0.684
 4184W        W 7928   2.247   8.611   2.821
 4185W        W 7929   3.294   3.731   1.191
 4186W        W 7930   7.228   3.918   8.933
 4187W        W 7931   2.778   8.524   9.686
 4188W        W 7932   6.070   3.843  10.700
 4189W        W 7933   7.659   4.218   3.534
 4190W        W 7934   2.339   4.822   3.180
 4191W        W 7935   0.293   1.231  11.259
 4192W        W 7936   8.017   7.375  11.041
 4193W        W 7937   6.473   5.864  10.392
 4194W        W 7938   0.263   9.521  10.057
 4195W        W 7939   5.048   6.655  11.262
 4196W        W 7940   2.169   5.998   2.800
 4197W        W 7941   9.251   9.033   0.940
 4198W        W 7942   0.068   3.749   9.431
 4199W        W 7943   2.226   3.296   2.330
 4200W        W 7944   7.063   1.180   3.340
 4201W        W 7945   3.232   7.717   2.688
 4202W        W 7946   9.416   5.056   2.327
 4203W        W 7947   8.700   1.772  10.612
 4204W        W 7948   3.174   5.585  10.999
 4205W        W 7949   1.723   0.263   2.597
 4206W        W 7950   9.981   2.726   2.225
 4207W        W 7951   6.735   4.831   1.290
 4208W        W 7952   3.053   8.806  11.461
 4209W        W 7953   8.793   8.907  11.484
 4210W        W 7954   2.134   8.977  10.934
 4211W        W 7955   5.876   7.657   0.542
 4212W        W 7956   8.493   8.110   3.109
 4213W        W 7957   3.630   5.621   0.316
 4214W        W 7958   4.994   6.871   0.888
 4215W        W 7959   2.310   9.350   1.645
 4216W        W 7960   2.622   2.382  11.414
 4217W        W 7961   2.866   5.086   9.855
 4218W        W 7962   8.016   2.360   9.544
 4219W        W 7963   6.709   2.334   9.765
 4220W        W 7964   0.976   8.429   3.234
 4221W        W 7965   8.876   4.610   9.826
 4222W        W 7966   1.854   6.531   0.566
 4223W        W 7967   3.435   8.193   1.813
 4224W        W 7968   4.273  10.284   1.861
 4225W        W 7969   3.345   5.785  10.564
 4226W        W 7970   6.015   1.725  10.261
 4227W        W 7971   1.401   3.714   1.858
 4228W        W 7972   3.416   9.596   0.686
 4229W        W 7973   7.065   6.550   3.302
 4230W        W 7974   5.453   1.987   1.736
 4231W        W 7975   2.125   4.671   0.532
 4232W        W 7976   4.962   1.482   3.447
 4233W        W 7977   9.262   8.489  10.408
 4234W        W 7978   8.558   8.053   1.531
 4235W        W 7979   3.778   3.188   1.877
 4236W        W 7980   0.246   6.477   9.444
 4237W        W 7981   5.993   1.750  10.764
 4238W        W 7982   3.702   4.899   3.146
 4239W        W 7983   2.117   1.339   0.184
 4240W        W 7984   2.748   2.370  10.807
 4241W        W 7985   7.967   1.336   0.478
 4242W        W 7986   6.975   4.189   0.269
 4243W        W 7987   5.621   0.482  11.894
 4244W        W 7988   2.289   6.734   1.271
 4245W        W 7989   9.809   9.283   0.348
 4246W        W 7990   4.071   8.995  10.766
 4247W        W 7991   7.192   1.855   2.974
 4248W        W 7992   7.023   8.425   9.247
 4249W        W 7993   8.863   4.068  11.399
 4250W        W 7994   2.254   4.467  10.333
 4251W        W 7995  10.031   5.560   0.883
 4252W        W 7996   6.929   7.127   1.473
 4253W        W 7997   3.098   5.012   9.378
 4254W        W 7998   8.064   8.869   2.810
 4255W        W 7999   9.210   0.578   2.260
 4256W        W 8000   5.699   0.391   9.205
 4257W        W 8001   2.708   3.603   9.130
 4258W        W 8002   8.941   1.466  10.236
 4259W        W 8003   0.684   9.349   2.728
 4260W        W 8004   7.875   5.054   3.251
 4261W        W 8005   0.799   1.824   1.238
 4262W        W 8006   6.596   8.581   3.206
 4263W        W 8007   7.457   3.420   2.400
 4264W        W 8008   0.006   5.569   0.223
 4265W        W 8009   4.641   5.549   1.370
 4266W        W 8010   3.181   5.138  11.892
 4267W        W 8011   3.290   0.461   9.574
 4268W        W 8012   7.622   4.747  10.343
 4269W        W 8013   4.337   4.928  11.288
 4270W        W 8014   1.594   8.835  10.038
 4271W        W 8015   6.008   6.605  10.310
 4272W        W 8016   4.296   1.763  10.646
 4273W        W 8017   8.472   6.679  10.986
 4274W        W 8018   0.311   8.653  11.993
 4275W        W 8019   7.386  10.491   1.000
 4276W        W 8020   6.625   9.881   9.262
 4277W        W 8021   7.208   0.897  10.000
 4278W        W 8022   6.258   2.880   2.350
 4279W        W 8023   3.723   8.221   0.267
 4280W        W 8024   8.423   3.211   9.207
 4281W        W 8025  10.351   0.335   2.675
 4282W        W 8026   4.012   4.283   9.538
 4283W        W 8027   4.145   3.531   1.724
 4284W        W 8028   6.761   3.722   9.027
 4285W        W 8029   9.596   7.616  11.891
 4286W        W 8030   3.824   2.819   2.274
 4287W        W 8031   0.539   9.327   1.245
 4288W        W 8032   6.304   3.182   3.262
 4289W        W 8033   9.866   4.256  10.486
 4290W        W 8034   7.719   2.724  11.885
 4291W        W 8035   3.674   6.887   2.276
 4292W        W 8036   1.260   8.759   1.840
 4293W        W 8037   4.202   3.960   1.481
 4294W        W 8038   4.056   9.938   2.929
 4295W        W 8039   2.626   5.950  10.858
 4296W        W 8040   8.479   0.497   2.651
 4297W        W 8041   5.696   0.341   1.715
 4298W        W 8042   0.992   7.499  10.786
 4299W        W 8043   6.712   0.528   3.060
 4300W        W 8044   6.122   8.119   3.679
 4301W        W 8045   2.848   8.789   0.790
 4302W        W 8046   2.210   7.598   3.591
 4303W        W 8047   5.982   7.201   0.337
 4304W        W 8048   6.717   9.639   3.357
 4305W        W 8049   4.275   9.930  10.495
 4306W        W 8050   9.391   7.794   9.013
 4307W        W 8051   4.195   3.120  11.738
 4308W        W 8052   6.467   4.061   1.861
 4309W        W 8053   6.255   7.915  11.588
 4310W        W 8054   3.312   0.231   3.200
 4311W        W 8055   4.237   8.122  11.304
 4312W        W 8056   1.391   5.793  10.465
 4313W        W 8057   5.850   1.860   1.413
 4314W        W 8058   2.112   5.130  10.803
 4315W        W 8059   7.953   2.285   0.451
 4316W        W 8060   5.702   9.317   3.583
 4317W        W 8061   8.491   2.757   1.667
 4318W        W 8062   4.133  10.407  11.896
 4319W        W 8063   8.761   6.613  11.816
 4320W        W 8064   6.922   0.438   0.288
 4321W        W 8065   0.365   1.455   2.727
 4322W        W 8066   0.229   6.044   9.011
 4323W        W 8067   2.814   0.347   1.084
 4324W        W 8068   3.831   3.852   0.474
 4325W        W 8069   2.976   7.911  11.697
 4326W        W 8070   3.957   8.286  10.032
 4327W        W 8071   2.716   6.885  10.730
 4328W        W 8072   4.085   0.073   9.953
 4329W        W 8073   3.773   9.546   8.980
 4330W        W 8074   2.794   8.051   0.183
 4331W        W 8075   4.665   2.048   9.536
 4332W        W 8076   5.985   5.008   0.957
 4333W        W 8077   2.646   6.609  11.438
 4334W        W 8078   6.626   0.256   2.615
 4335W        W 8079   2.668   2.282   9.076
 4336W        W 8080   0.423   1.710   2.207
 4337W        W 8081   9.815   7.969   0.206
 4338W        W 8082   2.623   8.022  11.357
 4339W        W 8083   9.911   7.941   3.240
 4340W        W 8084   4.453   2.401  11.040
 4341W        W 8085  10.434   8.960   1.775
 4342W        W 8086   2.693   5.954   3.913
 4343W        W 8087   8.878   8.751   0.748
 4344W        W 8088   4.086   7.990   2.823
 4345W        W 8089   5.668   6.225   1.873
 4346W        W 8090  10.446   6.608  10.121
 4347W        W 8091   9.907   3.654   2.210
 4348W        W 8092   3.862   5.089   9.764
 4349W        W 8093   0.821   4.171   9.057
 4350W        W 8094   3.307   8.948   1.915
 4351W        W 8095   8.551   6.765   9.071
 4352W        W 8096   9.406   9.375  11.021
 4353W        W 8097   6.030  10.012   0.362
 4354W        W 8098   3.172  10.446  11.876
 4355W        W 8099   9.797   7.436   8.919
 4356W        W 8100   6.029   9.352   9.165
 4357W        W 8101   1.933   1.785   0.045
 4358W        W 8102   2.548   8.513   1.877
 4359W        W 8103   7.604   5.666  10.361
 4360W        W 8104   5.156   5.237  10.071
 4361W        W 8105  10.333   0.925   0.941
 4362W        W 8106   8.099   3.154   0.714
 4363W        W 8107   9.130   8.617   0.299
 4364W        W 8108   3.605   4.224   2.728
 4365W        W 8109   0.513   1.347   1.376
 4366W        W 8110   1.000   6.115  10.352
 4367W        W 8111   9.341   4.931  11.404
 4368W        W 8112   0.844   9.629   1.807
 4369W        W 8113   0.430   9.883   3.197
 4370W        W 8114   2.708   4.696  11.742
 4371W        W 8115   5.260   7.674   0.492
 4372W        W 8116   9.357   9.540   1.025
 4373W        W 8117   2.820   3.660   9.621
 4374W        W 8118   1.766   2.928   1.225
 4375W        W 8119   1.375   2.758   0.954
 4376W        W 8120   4.660   0.083   9.040
 4377W        W 8121   9.843   3.553   0.229
 4378W        W 8122   2.799   7.181   1.852
 4379W        W 8123   1.155   2.825  11.222
 4380W        W 8124   1.857   9.538   1.478
 4381W        W 8125   7.599   2.318   1.392
 4382W        W 8126   4.939   2.235  10.969
 4383W        W 8127  10.239   8.054   0.935
 4384W        W 8128   8.346   7.090   3.629
 4385W        W 8129   5.922   3.966   0.274
 4386W        W 8130   7.516   8.454   0.981
 4387W        W 8131   3.711   4.523   3.579
 4388W        W 8132   9.035   5.510  10.752
 4389W        W 8133   0.536   5.728  11.518
 4390W        W 8134   6.108   2.863   0.176
 4391W        W 8135   1.630   4.130  10.273
 4392W        W 8136   4.358   2.194   1.902
 4393W        W 8137   3.399  10.063   9.539
 4394W        W 8138   3.838   2.622   1.412
 4395W        W 8139   9.707   0.179  11.775
 4396W        W 8140   9.891   8.782   3.036
 4397W        W 8141   5.472   7.239   1.980
 4398W        W 8142   2.109   3.960  10.217
 4399W        W 8143   7.986   5.614   0.331
 4400W        W 8144   2.333   7.873  10.596
 4401W        W 8145   2.257   5.524  10.456
 4402W        W 8146   8.610   5.764   2.229
 4403W        W 8147   4.872   0.736   3.105
 4404W        W 8148   0.440   2.230   3.082
 4405W        W 8149   8.190   4.730   0.676
 4406W        W 8150   3.688   1.425   1.974
 4407W        W 8151   0.826   0.014   3.437
 4408W        W 8152   8.112   8.491   2.120
 4409W        W 8153   2.823   4.523   2.409
 4410W        W 8154   0.754   3.112   0.292
 4411W        W 8155   2.816   3.782   2.851
 4412W        W 8156   9.492   8.995   2.313
 4413W        W 8157   8.686   6.728   2.367
 4414W        W 8158   6.437   4.140   9.167
 4415W        W 8159   7.305   9.193   8.782
 4416W        W 8160   9.986   5.118   9.604
 4417W        W 8161   3.155  10.481   2.762
 4418W        W 8162   6.890   5.506   2.550
 4419W        W 8163   3.623   1.317   2.942
 4420W        W 8164   3.822   9.031   9.048
 4421W        W 8165   6.979   3.173   1.702
 4422W        W 8166   0.811   8.939   9.890
 4423W        W 8167   3.397   3.109  11.523
 4424W        W 8168   4.027   7.537   1.767
 4425W        W 8169   0.335   6.616   1.817
 4426W        W 8170   9.393   4.402  11.345
 4427W        W 8171   3.196   5.352   0.399
 4428W        W 8172   6.237   3.941   3.549
 4429W        W 8173   4.715   7.094   0.139
 4430W        W 8174   4.732   3.508  11.951
 4431W        W 8175   5.646   1.756   8.983
 4432W        W 8176   8.841   4.742   3.423
 4433W        W 8177   1.369   5.228   9.802
 4434W        W 8178   8.362   3.245   9.740
 4435W        W 8179   7.951   9.114  11.077
 4436W        W 8180   0.789   1.219   2.850
 4437W        W 8181   3.281   8.817   9.261
 4438W        W 8182   7.561   2.006   0.681
 4439W        W 8183   7.545   8.268   8.510
 4440W        W 8184   7.460   7.875   0.439
 4441W        W 8185   8.509   6.555  10.462
 4442W        W 8186   0.671   6.855   9.382
 4443W        W 8187   5.633   5.076   9.334
 4444W        W 8188   5.973   1.304   3.210
 4445W        W 8189   5.098   0.810   8.736
 4446W        W 8190   5.619   0.044   3.457
 4447W        W 8191   5.940   7.333   0.991
 4448W        W 8192   1.234   9.971   1.835
 4449W        W 8193   6.909   5.162   2.939
 4450W        W 8194   7.937   9.761   9.853
 4451W        W 8195   6.396   6.952   0.521
 4452W        W 8196   9.525   9.908   8.953
 4453W        W 8197   9.793   4.680  11.460
 4454W        W 8198   5.959   2.790   3.266
 4455W        W 8199   4.648  10.085   8.870
 4456W        W 8200   4.414   3.656   8.614
 4457W        W 8201   8.979   6.577   3.145
 4458W        W 8202   4.686   6.917   2.646
 4459W        W 8203   2.691   7.456   3.407
 4460W        W 8204   5.656   0.785   0.325
 4461W        W 8205   3.346   5.964   4.068
 4462W        W 8206   9.706   5.709   1.382
 4463W        W 8207   1.782   4.614  10.206
 4464W        W 8208   9.171   9.808  11.158
 4465W        W 8209   7.925   8.953   2.305
 4466W        W 8210   6.993   2.173   9.344
 4467W        W 8211   4.785   1.761   0.500
 4468W        W 8212   4.802   7.328   2.956
 4469W        W 8213   1.353   1.271   9.386
 4470W        W 8214   9.860   0.028   1.760
 4471W        W 8215  10.225   5.151   8.667
 4472W        W 8216   7.608   6.578   9.562
 4473W        W 8217   2.213   2.214   0.143
 4474W        W 8218   8.467   2.899   0.345
 4475W        W 8219   8.307   6.535   0.585
 4476W        W 8220   5.632   5.688   2.745
 4477W        W 8221   5.172   4.361  10.355
 4478W        W 8222   6.427   2.198   8.846
 4479W        W 8223   3.282   9.114   0.796
 4480W        W 8224   4.324   3.384  10.388
 4481W        W 8225   4.887   1.554   1.216
 4482W        W 8226   7.523   1.826  11.808
 4483W        W 8227   8.103   4.000   3.615
 4484W        W 8228   3.633   2.723   9.532
 4485W        W 8229   2.818   4.327  11.402
 4486W        W 8230   9.398   1.840   9.126
 4487W        W 8231   3.397   4.435   4.010
 4488W        W 8232   9.262   3.286  10.327
 4489W        W 8233   7.763   3.225  10.984
 4490W        W 8234   1.370   5.589   1.965
 4491W        W 8235   1.846   8.176   2.270
 4492W        W 8236   7.911   3.705  10.796
 4493W        W 8237   5.279   4.690   2.679
 4494W        W 8238   1.878   7.140   0.051
 4495W        W 8239   6.946   1.293   1.267
 4496W        W 8240   5.444   7.445  11.688
 4497W        W 8241   1.759   4.613   9.174
 4498W        W 8242   8.633   4.187  10.035
 4499W        W 8243   5.150   8.012  11.351
 4500W        W 8244  10.228   6.668   2.901
 4501W        W 8245   4.735  10.149   1.183
 4502W        W 8246  10.254   7.266   2.161
 4503W        W 8247   4.570   3.263   0.567
 4504W        W 8248   1.895   4.753   2.860
 4505W        W 8249   0.191   7.474   3.298
 4506W        W 8250   3.942   9.915  11.897
 4507W        W 8251   8.104   8.236   1.684
 4508W        W 8252   9.367   7.231   8.681
 4509W        W 8253   3.161   0.905   9.373
 4510W        W 8254   1.974   3.244   0.544
 4511W        W 8255   5.923   2.107   9.620
 4512W        W 8256   5.236   7.538   8.529
 4513W        W 8257   6.767   8.886  11.456
 4514W        W 8258   9.058   3.228   3.384
 4515W        W 8259  10.101   2.211   1.137
 4516W        W 8260   1.372   7.123   0.917
 4517W        W 8261   8.627   2.178   8.778
 4518W        W 8262   7.319   2.213   1.796
 4519W        W 8263   8.502   0.259   1.223
 4520W        W 8264  10.385   0.875   9.236
 4521W        W 8265   0.785   2.955   3.682
 4522W        W 8266   9.855   6.608   3.352
 4523W        W 8267   3.836   5.679   2.682
 4524W        W 8268   8.468  10.211   1.814
 4525W        W 8269   8.623   4.167  10.948
 4526W        W 8270   4.161   9.871   8.873
 4527W        W 8271   1.124   2.350   2.175
 4528W        W 8272   6.926   7.601   8.954
 4529W        W 8273   1.447   3.123   9.581
 4530W        W 8274   2.798  10.413  11.063
 4531W        W 8275   8.248   5.973  10.449
 4532W        W 8276   6.692   1.553   1.688
 4533W        W 8277   3.801   8.613  10.432
 4534W        W 8278   4.243   0.334   0.741
 4535W        W 8279   2.469   7.655  11.021
 4536W        W 8280   3.153   2.947   2.941
 4537W        W 8281   1.761   0.213   2.102
 4538W        W 8282   8.493   6.173   8.580
 4539W        W 8283   7.497   2.154   0.206
 4540W        W 8284   6.939   7.441  11.709
 4541W        W 8285   3.302   6.530   9.953
 4542W        W 8286   6.052   3.784  11.737
 4543W        W 8287   2.067   4.749  11.165
 4544W        W 8288   2.427   5.105   1.917
 4545W        W 8289   3.227   7.904  10.384
 4546W        W 8290   0.735   7.886   0.530
 4547W        W 8291  10.236   7.038  10.290
 4548W        W 8292   2.036   5.040   9.477
 4549W        W 8293   4.645   5.120   1.099
 4550W        W 8294   2.301   0.702  11.496
 4551W        W 8295   4.079   9.096   2.588
 4552W        W 8296   7.141   9.331   9.789
 4553W        W 8297   9.883   6.076   3.413
 4554W        W 8298   9.680  10.422   9.072
 4555W        W 8299   7.458   7.467   8.929
 4556W        W 8300   5.711   4.160  11.844
 4557W        W 8301   6.616   7.590   3.193
 4558W        W 8302  10.088   5.599  11.306
 4559W        W 8303   8.953   8.851   2.802
 4560W        W 8304   2.362   3.654  10.540
 4561W        W 8305   5.666   0.324   2.253
 4562W        W 8306   0.244  10.449  11.714
 4563W        W 8307  10.367   1.638   3.479
 4564W        W 8308   0.327   0.150   0.700
 4565W        W 8309   3.281   3.807   1.696
 4566W        W 8310   7.106   9.010  10.476
 4567W        W 8311   7.364   7.136   1.147
 4568W        W 8312   4.597   6.146   2.728
 4569W        W 8313   8.674   6.970  11.398
 4570W        W 8314   5.961   8.612  11.028
 4571W        W 8315   1.242   3.194   1.162
 4572W        W 8316   8.218   9.399   2.242
 4573W        W 8317   6.479   4.072   0.340
 4574W        W 8318   3.195   9.840   1.958
 4575W        W 8319   2.659   7.668   9.058
 4576W        W 8320   0.706   4.333  11.711
 4577W        W 8321   4.224   9.102  11.583
 4578W        W 8322   7.993   7.446   9.094
 4579W        W 8323   3.291   1.249  11.969
 4580W        W 8324   8.165   6.579   8.729
 4581W        W 8325   3.547   1.414  11.543
 4582W        W 8326   3.923   9.616  10.287
 4583W        W 8327   1.671   2.766  11.299
 4584W        W 8328   5.371   9.550   2.497
 4585W        W 8329   9.205  10.306   9.259
 4586W        W 8330   7.277   8.496   0.283
 4587W        W 8331   8.012  10.118   0.846
 4588W        W 8332   9.512   2.814  10.393
 4589W        W 8333   5.126   0.351  10.097
 4590W        W 8334   7.328   8.531   2.264
 4591W        W 8335   7.149   5.035   2.503
 4592W        W 8336   3.103  10.434  10.447
 4593W        W 8337   2.445   3.303   9.757
 4594W        W 8338   2.442   5.568   2.699
 4595W        W 8339   7.862   5.539   3.502
 4596W        W 8340  10.375   6.567   3.389
 4597W        W 8341   7.774   8.767  11.415
 4598W        W 8342   7.845   3.167   2.625
 4599W        W 8343   2.312   0.242   0.373
 4600W        W 8344   0.814   3.959   0.704
 4601W        W 8345   3.863   4.073  10.004
 4602W        W 8346   1.378   6.516  11.543
 4603W        W 8347   6.674   2.308   1.231
 4604W        W 8348   1.210   1.530  11.711
 4605W        W 8349   2.238   9.969   3.451
 4606W        W 8350   9.473   7.052   0.481
 4607W        W 8351   1.367   2.306   1.729
 4608W        W 8352  10.323   9.247   0.428
 4609W        W 8353   0.157   1.765   3.073
 4610W        W 8354   4.704   3.621  11.465
 4611W        W 8355   5.093   1.747   9.751
 4612W        W 8356   7.704   3.592   1.595
 4613W        W 8357   1.182   0.576  11.894
 4614W        W 8358   5.426   7.961   9.104
 4615W        W 8359   9.485   2.316   8.934
 4616W        W 8360   2.219   6.683   3.299
 4617W        W 8361   2.739   7.066  11.636
 4618W        W 8362   6.105   6.562   2.383
 4619W        W 8363   4.469   4.369   0.218
 4620W        W 8364   6.898   0.683   2.585
 4621W        W 8365   5.239   3.015   1.613
 4622W        W 8366   1.328   2.379   2.694
 4623W        W 8367   0.163   5.185   0.558
 4624W        W 8368   7.023   2.694   9.522
 4625W        W 8369   3.573   6.381   3.122
 4626W        W 8370   0.086   7.958   9.396
 4627W        W 8371   1.441   8.886   1.386
 4628W        W 8372   1.689   4.038   0.171
 4629W        W 8373   6.676   7.473  10.775
 4630W        W 8374  10.050   2.648   8.893
 4631W        W 8375   9.868  10.176   8.647
 4632W        W 8376   8.931   9.643  10.292
 4633W        W 8377   3.670   3.118   0.955
 4634W        W 8378   0.873   4.079   9.939
 4635W        W 8379   2.347   4.224  11.226
 4636W        W 8380   1.891   6.408   1.106
 4637W        W 8381   9.054   5.017   1.961
 4638W        W 8382   0.720   1.360  11.533
 4639W        W 8383   3.325   9.261   9.028
 4640W        W 8384   5.406   7.586  11.197
 4641W        W 8385   6.956   2.356  11.193
 4642W        W 8386   5.416   8.545   2.422
 4643W        W 8387   9.356  10.274  11.315
 4644W        W 8388   3.800   1.363   2.461
 4645W        W 8389   5.346   3.620   8.155
 4646W        W 8390   6.430   9.519   2.330
 4647W        W 8391   2.881   3.207   2.106
 4648W        W 8392   5.729   8.808   3.557
 4649W        W 8393   8.537   6.095  11.303
 4650W        W 8394   1.040   1.376   0.397
 4651W        W 8395  10.480   9.614   0.105
 4652W        W 8396   0.223   1.110  10.263
 4653W        W 8397   3.969   6.602   1.963
 4654W        W 8398   3.420   5.193   1.941
 4655W        W 8399   2.744   7.194  10.313
 4656W        W 8400   6.270   1.705   1.132
 4657W        W 8401   6.676   9.117   3.094
 4658W        W 8402   4.108   9.181   0.195
 4659W        W 8403   2.349   1.248   9.585
 4660W        W 8404   4.287   0.350  11.710
 4661W        W 8405   7.442   4.963   4.062
 4662W        W 8406   7.866  10.277   9.070
 4663W        W 8407   0.683   6.856   0.294
 4664W        W 8408   8.058   6.124  11.514
 4665W        W 8409   6.223   6.991  11.943
 4666W        W 8410   7.158   1.403  10.285
 4667W        W 8411   0.793   2.603   0.343
 4668W        W 8412   0.936   4.775  10.437
 4669W        W 8413   9.426   8.988  10.668
 4670W        W 8414   6.064   2.864  11.245
 4671W        W 8415   3.226   1.874   2.659
 4672W        W 8416   6.448   5.472  11.302
 4673W        W 8417   3.892   3.147  10.286
 4674W        W 8418   2.867   8.286   0.910
 4675W        W 8419   4.535   3.186   8.425
 4676W        W 8420   4.568   4.102   8.389
 4677W        W 8421   8.011   6.069  11.005
 4678W        W 8422   8.220   7.438  11.917
 4679W        W 8423   8.134   1.173   9.623
 4680W        W 8424   9.360   6.296   2.478
 4681W        W 8425   7.443   3.604   9.379
 4682W        W 8426   1.189   8.902   9.073
 4683W        W 8427   0.696   4.354  11.207
 4684W        W 8428   8.368   8.948   2.022
 4685W        W 8429   7.838   0.902   0.233
 4686W        W 8430  10.471   7.076   2.649
 4687W        W 8431   4.014   1.659   0.838
 4688W        W 8432   4.380   3.986   4.035
 4689W        W 8433   8.699   9.968   0.502
 4690W        W 8434   9.445   3.283   8.962
 4691W        W 8435   0.205   1.412   0.297
 4692W        W 8436   8.402   4.774   1.165
 4693W        W 8437   3.239   9.395   1.660
 4694W        W 8438   2.475   9.103   8.606
 4695W        W 8439   5.157   6.966   2.867
 4696W        W 8440   9.545   1.061   9.478
 4697W        W 8441   4.088   8.741  11.934
 4698W        W 8442   7.638   3.065  11.467
 4699W        W 8443   6.328   6.918   1.013
 4700W        W 8444   5.263   8.059   1.781
 4701W        W 8445   0.060   6.864   2.196
 4702W        W 8446   9.690   5.956   0.930
 4703W        W 8447   3.643   4.364  11.553
 4704W        W 8448   9.865   3.875  11.826
 4705W        W 8449   4.625   2.672   8.314
 4706W        W 8450   7.709   5.430   9.939
 4707W        W 8451   7.621   7.888  11.580
 4708W        W 8452   8.377  10.228  11.295
 4709W        W 8453   0.927   2.124  10.977
 4710W        W 8454   7.569   6.054   1.740
 4711W        W 8455   4.883   8.185   1.382
 4712W        W 8456   4.057   1.584   3.162
 4713W        W 8457   1.627   0.324  11.717
 4714W        W 8458   4.118   5.733   1.851
 4715W        W 8459   7.480   1.776  10.982
 4716W        W 8460   7.741   6.355  10.017
 4717W        W 8461   7.062   3.257   8.444
 4718W        W 8462   3.708   6.035   9.924
 4719W        W 8463   1.375   2.889  10.315
 4720W        W 8464   2.393   8.356   0.050
 4721W        W 8465   8.128   7.628   0.815
 4722W        W 8466   3.601   6.389   2.255
 4723W        W 8467   2.660   6.469   3.128
 4724W        W 8468   5.276   0.424  11.393
 4725W        W 8469   0.383   8.412   2.392
 4726W        W 8470   3.712   2.333  10.880
 4727W        W 8471   5.116   8.493   1.992
 4728W        W 8472   5.229   0.343   2.511
 4729W        W 8473   4.195   5.619   9.768
 4730W        W 8474   3.751   5.466  10.643
 4731W        W 8475   0.453   2.962   2.632
 4732W        W 8476   9.296   4.365   2.910
 4733W        W 8477   2.216   6.170   3.276
 4734W        W 8478   8.997   4.562  11.595
 4735W        W 8479   7.031   5.201  11.041
 4736W        W 8480   8.002   5.508  11.817
 4737W        W 8481   2.619   9.947  11.421
 4738W        W 8482  10.112  10.145   3.566
 4739W        W 8483   8.980   9.867   8.998
 4740W        W 8484   4.639  10.039   2.180
 4741W        W 8485   5.561   9.381  11.238
 4742W        W 8486   3.170   8.644  10.974
 4743W        W 8487   9.578   6.575   0.649
 4744W        W 8488   2.624  10.462  10.567
 4745W        W 8489   2.147   2.570   1.112
 4746W        W 8490   6.995   1.408   2.881
 4747W        W 8491   8.425   9.389   1.754
 4748W        W 8492   4.790   4.476  10.009
 4749W        W 8493   9.373   7.933   1.479
 4750W        W 8494   3.539   7.945   9.973
 4751W        W 8495   5.966   4.186   1.711
 4752W        W 8496   9.863   2.989  11.565
 4753W        W 8497   6.878   3.224  10.789
 4754W        W 8498   9.238   9.773   8.539
 4755W        W 8499  10.365   6.135  10.294
 4756W        W 8500   2.303   0.328   0.928
 4757W        W 8501   0.715   6.003  11.900
 4758W        W 8502   6.015   5.207  11.133
 4759W        W 8503  10.320   3.650   9.876
 4760W        W 8504   5.755   8.950  11.459
 4761W        W 8505   9.914   6.394  10.030
 4762W        W 8506   4.899   1.169  11.738
 4763W        W 8507   9.917   4.384  11.921
 4764W        W 8508   8.883   7.170   9.467
 4765W        W 8509   4.726   0.360   0.543
 4766W        W 8510   7.422   5.293   3.077
 4767W        W 8511   3.920  10.083   9.587
 4768W        W 8512   8.744   0.906  10.990
 4769W        W 8513   1.378   5.491   1.422
 4770W        W 8514   6.659   1.496   0.840
 4771W        W 8515   0.950   7.687   1.375
 4772W        W 8516  10.276   7.521  11.450
 4773W        W 8517   3.606   9.923   2.681
 4774W        W 8518   5.907   2.419   0.926
 4775W        W 8519   2.148   4.028  11.666
 4776W        W 8520   3.131   8.077   1.404
 4777W        W 8521   1.301   2.830   2.421
 4778W        W 8522   7.052   8.399   2.961
 4779W        W 8523   2.252   3.046   0.945
 4780W        W 8524   7.870   9.958   0.298
 4781W        W 8525   7.006   8.571  10.197
 4782W        W 8526   6.132   8.850   0.796
 4783W        W 8527   9.429   3.763   8.730
 4784W        W 8528   3.219   3.606   2.169
 4785W        W 8529   8.520   9.772  11.949
 4786W        W 8530   5.618   8.539  10.451
 4787W        W 8531   9.087   9.303   2.502
 4788W        W 8532   2.561   0.924  11.907
 4789W        W 8533   1.223  10.206   3.263
 4790W        W 8534   5.632   5.982   2.320
 4791W        W 8535   1.469   8.151  10.532
 4792W        W 8536   9.493   4.563   1.493
 4793W        W 8537   5.961   8.418   2.331
 4794W        W 8538   5.870   8.895   0.346
 4795W        W 8539   4.288   1.885   0.472
 4796W        W 8540   6.113   9.845   9.118
 4797W        W 8541   8.900   1.213   0.765
 4798W        W 8542   4.655   4.986   2.141
 4799W        W 8543   6.728   1.167  10.576
 4800W        W 8544   3.384   3.179   9.085
 4801W        W 8545   8.155   9.343   8.745
 4802W        W 8546   3.737   2.309  10.336
 4803W        W 8547   7.409   7.063   2.163
 4804W        W 8548   8.983   3.746   3.356
 4805W        W 8549   5.066   9.459  11.241
 4806W        W 8550   7.408  10.142   8.433
 4807W        W 8551   0.765   3.826   1.194
 4808W        W 8552   5.470   6.863  10.136
 4809W        W 8553   2.949   7.705  11.096
 4810W        W 8554   9.875   0.322   9.459
 4811W        W 8555   6.784   3.702   0.146
 4812W        W 8556   4.983   7.398   1.846
 4813W        W 8557   9.401   6.025   3.583
 4814W        W 8558   7.478   9.696   2.514
 4815W        W 8559  10.133   8.468  11.393
 4816W        W 8560   5.502   2.168   9.303
 4817W        W 8561   3.342   5.502   2.382
 4818W        W 8562   1.454   4.652   3.176
 4819W        W 8563   7.731   5.642   9.474
 4820W        W 8564   0.689   8.324  10.358
 4821W        W 8565  10.270   1.155   0.423
 4822W        W 8566   4.755   9.625   0.139
 4823W        W 8567   8.874   6.386  10.150
 4824W        W 8568   0.271  10.165   0.880
 4825W        W 8569   6.389   2.716   8.999
 4826W        W 8570   4.974   6.616  11.776
 4827W        W 8571   2.663   7.657   9.573
 4828W        W 8572   5.611   0.787   9.525
 4829W        W 8573   9.990   7.383  11.007
 4830W        W 8574   6.809   4.223   8.806
 4831W        W 8575  10.348   9.540  11.616
 4832W        W 8576   3.142   8.128   3.088
 4833W        W 8577   8.481   9.778   8.806
 4834W        W 8578   3.227   5.484  11.505
 4835W        W 8579   0.555   7.676   2.682
 4836W        W 8580   9.344   5.356   2.734
 4837W        W 8581   3.357   9.400  10.445
 4838W        W 8582   7.778   1.972   8.463
 4839W        W 8583   5.481   6.696  11.551
 4840W        W 8584   6.914   6.957   9.456
 4841W        W 8585   0.398   1.593   0.934
 4842W        W 8586  10.193   0.695   1.794
 4843W        W 8587   1.861   8.626   1.315
 4844W        W 8588   3.078   5.197   3.608
 4845W        W 8589   3.805   1.868  10.595
 4846W        W 8590   0.880   9.469  10.871
 4847W        W 8591   0.134   0.435   9.979
 4848W        W 8592   4.279   1.688  11.998
 4849W        W 8593   5.439   7.775   9.968
 4850W        W 8594   0.414   8.756  10.491
 4851W        W 8595   7.139   5.954  11.558
 4852W        W 8596   0.366   9.471  10.827
 4853W        W 8597   3.581   0.808   3.081
 4854W        W 8598   0.124   8.246   1.237
 4855W        W 8599   4.153   5.539  11.054
 4856W        W 8600   9.862   1.593   3.369
 4857W        W 8601   7.613   2.739  10.875
 4858W        W 8602   5.568   3.126   0.701
 4859W        W 8603   3.218   2.996   0.721
 4860W        W 8604   3.613   4.892  11.717
 4861W        W 8605   2.366   9.501   3.239
 4862W        W 8606   5.704   3.424  10.308
 4863W        W 8607   0.770   9.770  11.748
 4864W        W 8608   8.531   2.862  11.000
 4865W        W 8609   4.812   2.553   0.246
 4866W        W 8610   9.942   3.827   3.188
 4867W        W 8611   5.463   1.362   3.382
 4868W        W 8612   4.192   5.004   3.000
 4869W        W 8613   3.620   8.137   2.571
 4870W        W 8614   0.797  10.403   9.083
 4871W        W 8615   7.469   0.933   2.032
 4872W        W 8616   9.376   8.733   3.227
 4873W        W 8617  10.155   9.881  11.295
 4874W        W 8618   0.464   3.924   9.680
 4875W        W 8619   1.225   1.462   2.806
 4876W        W 8620   0.975   7.516   0.908
 4877W        W 8621   5.631   3.820  11.444
 4878W        W 8622   7.089   8.323   0.723
 4879W        W 8623   3.836   0.404  11.978
 4880W        W 8624   6.037   0.186  10.382
 4881W        W 8625   6.311   5.151   1.334
 4882W        W 8626   7.898   2.351  11.035
 4883W        W 8627   8.941   0.956  10.309
 4884W        W 8628   3.615   5.253   0.699
 4885W        W 8629   3.739   7.900  10.951
 4886W        W 8630   4.944   9.386   2.197
 4887W        W 8631   1.109   4.114   9.492
 4888W        W 8632   4.144   9.260   2.110
 4889W        W 8633   6.515   6.518   0.272
 4890W        W 8634   7.013   3.034  10.339
 4891W        W 8635   3.116  10.295   0.365
 4892W        W 8636   4.934   4.224   0.388
 4893W        W 8637   5.158  10.437   9.250
 4894W        W 8638   0.839   2.427   1.267
 4895W        W 8639   0.506   3.477  11.436
 4896W        W 8640   2.443   9.039   3.015
 4897W        W 8641   0.654   2.179   2.247
 4898W        W 8642   5.400   0.294   1.280
 4899W        W 8643   0.138   2.212   9.845
 4900W        W 8644  10.493   3.137   3.411
 4901W        W 8645   6.266   4.742  10.751
 4902W        W 8646   4.372   5.369  11.635
 4903W        W 8647   2.417   0.258   1.441
 4904W        W 8648   3.809   2.146   0.859
 4905W        W 8649   2.889   8.545   0.317
 4906W        W 8650   6.603   3.244   2.312
 4907W        W 8651   2.424   7.944   1.613
 4908W        W 8652   9.693   7.477   3.236
 4909W        W 8653   8.106   5.505  10.265
 4910W        W 8654   2.429   2.219   3.292
 4911W        W 8655   1.910   1.166   2.971
 4912W        W 8656   4.394   0.305  10.315
 4913W        W 8657   9.394   6.232   1.972
 4914W        W 8658   4.797   1.756  11.977
 4915W        W 8659   9.151   9.915   0.745
 4916W        W 8660   6.422   7.236   1.384
 4917W        W 8661   3.778   5.660   0.938
 4918W        W 8662   8.395   5.685  11.023
 4919W        W 8663   6.610   8.750   9.401
 4920W        W 8664   0.495   3.106  11.858
 4921W        W 8665   3.729   6.503   0.949
 4922W        W 8666   0.879   5.751  11.132
 4923W        W 8667   9.540   3.129   3.259
 4924W        W 8668   7.574   4.522   1.809
 4925W        W 8669   9.604   0.624   9.774
 4926W        W 8670   0.316   8.974  10.036
 4927W        W 8671   7.584   8.486  10.969
 4928W        W 8672   1.852   5.439   9.183
 4929W        W 8673   1.789   3.630   2.318
 4930W        W 8674   5.198   0.181  11.853
 4931W        W 8675   1.888   5.602   2.699
 4932W        W 8676   7.648   6.986  11.418
 4933W        W 8677   8.368   1.914   3.251
 4934W        W 8678  10.336   5.131  11.111
 4935W        W 8679   2.334   7.341  10.616
 4936W        W 8680   9.011   1.993   1.745
 4937W        W 8681   5.992   3.297  11.913
 4938W        W 8682   7.149   2.132   1.227
 4939W        W 8683   4.588   2.219   9.036
 4940W        W 8684   6.115  10.375  11.342
 4941W        W 8685   2.648  10.205   2.147
 4942W        W 8686   3.354   7.866  11.330
 4943W        W 8687   4.321   6.228   1.963
 4944W        W 8688   1.508   7.887   3.626
 4945W        W 8689   9.851   0.843   9.100
 4946W        W 8690   4.615   8.809   0.792
 4947W        W 8691   2.789   8.386  11.740
 4948W        W 8692   7.964   0.221   1.961
 4949W        W 8693   3.227   5.709   3.610
 4950W        W 8694   0.273   6.709   2.898
 4951W        W 8695   7.300   2.595   9.105
 4952W        W 8696   5.454   3.923   3.963
 4953W        W 8697   1.924   0.376   1.326
 4954W        W 8698   4.280   6.369  11.467
 4955W        W 8699   9.074   2.678  11.758
 4956W        W 8700   0.506   4.643   9.085
 4957W        W 8701   0.025   7.507   0.609
 4958W        W 8702   7.721   1.617  11.402
 4959W        W 8703   3.527   4.870   9.079
 4960W        W 8704   8.939   1.315   3.021
 4961W        W 8705   1.889   3.385   8.889
 4962W        W 8706   2.686   0.744   9.399
 4963W        W 8707   7.148   9.821   3.157
 4964W        W 8708   4.236  10.324   1.260
 4965W        W 8709   8.372   0.503   2.144
 4966W        W 8710   2.362   7.247   2.177
 4967W        W 8711   9.234   6.517  11.627
 4968W        W 8712  10.393   8.906  11.384
 4969W        W 8713   4.084   0.828  11.788
 4970W        W 8714   2.286   3.787   2.146
 4971W        W 8715   3.139   5.700   8.767
 4972W        W 8716   0.464   5.968   9.495
 4973W        W 8717   0.760   6.613   3.435
 4974W        W 8718   5.620   2.343   1.388
 4975W        W 8719   2.099   0.171   8.981
 4976W        W 8720   9.016   9.940   0.061
 4977W        W 8721   0.930   6.598   9.788
 4978W        W 8722  10.472   6.547   1.074
 4979W        W 8723   9.454   4.623  11.856
 4980W        W 8724   5.940   6.060  11.043
 4981W        W 8725   6.618   5.032   1.724
 4982W        W 8726   8.499   7.917  11.472
 4983W        W 8727   5.686   0.221   2.764
 4984W        W 8728   6.169   1.786   3.202
 4985W        W 8729   0.706   3.075   3.199
 4986W        W 8730   6.610  10.243  10.607
 4987W        W 8731   5.545   3.825   9.946
 4988W        W 8732   9.917   8.207   2.368
 4989W        W 8733   5.983   6.407   2.878
 4990W        W 8734   5.061  10.326   0.815
 4991W        W 8735   5.558   1.754  11.026
 4992W        W 8736   5.263   8.887   8.843
 4993W        W 8737   8.315   0.505  10.903
 4994W        W 8738   5.068   8.850   9.858
 4995W        W 8739   8.847   1.867  11.157
 4996W        W 8740   3.139  10.088   2.417
 4997W        W 8741   9.556   0.990  10.513
 4998W        W 8742   1.636   7.182   1.373
 4999W        W 8743   5.720   7.571   8.355
 5000W        W 8744   4.750   4.127  11.414
 5001W        W 8745   1.235  10.259   1.403
 5002W        W 8746   3.531  10.471   0.730
 5003W        W 8747   6.575   9.104   2.575
 5004W        W 8748   5.916  10.373   3.075
 5005W        W 8749   4.855   8.297   8.536
 5006W        W 8750   2.659   1.575   1.767
 5007W        W 8751   1.895   2.601   0.267
 5008W        W 8752   1.690   8.911   0.889
 5009W        W 8753   2.328   8.520   9.913
 5010W        W 8754   7.579   6.027  11.298
 5011W        W 8755   8.915   3.748  10.063
 5012W        W 8756   0.974   6.516  10.711
 5013W        W 8757   5.178   8.534   3.309
 5014W        W 8758   4.566   3.259   2.260
 5015W        W 8759   7.659   6.497   8.581
 5016W        W 8760   0.256   4.256  10.947
 5017W        W 8761   0.424   3.406   9.589
 5018W        W 8762   5.509   8.534  11.313
 5019W        W 8763   5.311   1.159   2.007
 5020W        W 8764   6.449   6.807   3.619
 5021W        W 8765   4.229   3.858   3.201
 5022W        W 8766   5.234   1.876  11.728
 5023W        W 8767   1.791   8.178   2.806
 5024W        W 8768   6.446   7.826   9.058
 5025W        W 8769   8.825   5.231   2.793
 5026W        W 8770  10.330   8.782  10.551
 5027W        W 8771   0.670   9.828   0.744
 5028W        W 8772   1.195  10.457   2.714
 5029W        W 8773   7.972   2.487  11.519
 5030W        W 8774   5.150   7.715   2.197
 5031W        W 8775   2.768   6.391   9.417
 5032W        W 8776   2.858   0.343   2.499
 5033W        W 8777   7.437   2.135   2.606
 5034W        W 8778   5.126   9.392   8.997
 5035W        W 8779   1.364   4.839   8.881
 5036W        W 8780   9.464   3.831   2.062
 5037W        W 8781   1.395   7.632  10.294
 5038W        W 8782   9.461   8.551  10.881
 5039W        W 8783   5.117   3.009   9.902
 5040W        W 8784   9.806   5.021   9.025
 5041W        W 8785   0.683   4.373   9.509
 5042W        W 8786   7.820   0.859   9.329
 5043W        W 8787   8.915   7.999   0.716
 5044W        W 8788   9.868   1.344  11.702
 5045W        W 8789  10.493   7.858  10.441
 5046W        W 8790   3.115   1.488   2.974
 5047W        W 8791   8.622   8.711  11.028
 5048W        W 8792  10.427   7.658  11.942
 5049W        W 8793   4.266   7.251  11.941
 5050W        W 8794   5.343   2.392   0.168
 5051W        W 8795   0.283   2.569  11.303
 5052W        W 8796   6.187   8.359   0.901
 5053W        W 8797   6.973   6.869   1.947
 5054W        W 8798   4.792   1.309   0.224
 5055W        W 8799   3.253   8.200   0.031
 5056W        W 8800   0.455   4.671   3.046
 5057W        W 8801   4.712   0.298   1.066
 5058W        W 8802   2.163   0.662  11.007
 5059W        W 8803   9.792   3.139   0.553
 5060W        W 8804   0.545   8.865   2.574
 5061W        W 8805   6.130   2.414   0.455
 5062W        W 8806   2.639   9.104  11.512
 5063W        W 8807   5.709   6.348   0.428
 5064W        W 8808   0.197   7.903  10.906
 5065W        W 8809   0.946   9.967  10.894
 5066W        W 8810   6.140   9.351   2.708
 5067W        W 8811   6.981   6.977   3.002
 5068W        W 8812  10.313   6.254  11.750
 5069W        W 8813   3.266   7.353  11.270
 5070W        W 8814   1.712   1.251   2.499
 5071W        W 8815   0.359   2.637   2.195
 5072W        W 8816   7.442   0.421   0.755
 5073W        W 8817  10.063   7.386   2.625
 5074W        W 8818   8.927   3.803   1.252
 5075W        W 8819   7.003   9.544   9.003
 5076W        W 8820   1.211   0.432  10.885
 5077W        W 8821   6.730   4.184   3.596
 5078W        W 8822   9.804   6.681  10.440
 5079W        W 8823   9.751   3.131   2.427
 5080W        W 8824   1.889   9.459   0.828
 5081W        W 8825   9.978   2.731  10.611
 5082W        W 8826   0.943  10.491  10.024
 5083W        W 8827   6.147   0.153   3.489
 5084W        W 8828   9.360   8.051   0.471
 5085W        W 8829   1.816  10.269   9.999
 5086W        W 8830   3.064   4.952  10.394
 5087W        W 8831   2.566   9.432  10.242
 5088W        W 8832   3.642   4.132  10.495
 5089W        W 8833   2.402   8.580   0.933
 5090W        W 8834   6.100   3.903   2.185
 5091W        W 8835   3.204   8.113  10.904
 5092W        W 8836  10.152   9.399   3.486
 5093W        W 8837   3.716   1.358   8.756
 5094W        W 8838   6.007   5.508   2.432
 5095W        W 8839   5.991   3.257   1.429
 5096W        W 8840   4.100   6.081  11.087
 5097W        W 8841   4.730   8.964  11.507
 5098W        W 8842   2.155   4.447   9.459
 5099W        W 8843   7.429   3.686   8.518
 5100W        W 8844   4.775   7.390   2.400
 5101W        W 8845   8.391   5.530   2.637
 5102W        W 8846   5.037   8.863  11.894
 5103W        W 8847   7.103   3.194   9.405
 5104W        W 8848   0.422   7.924   3.209
 5105W        W 8849   4.356   2.790  11.380
 5106W        W 8850   9.886   3.205   1.457
 5107W        W 8851   3.697   3.629   3.386
 5108W        W 8852   2.963   9.825   0.783
 5109W        W 8853   2.519   4.879   9.529
 5110W        W 8854   2.736   1.310   2.225
 5111W        W 8855   6.183   1.365  11.032
 5112W        W 8856   2.613   3.233  10.345
 5113W        W 8857   4.319   7.504   8.943
 5114W        W 8858   6.543   7.343   3.667
 5115W        W 8859   1.313   6.075   2.164
 5116W        W 8860   9.253   5.950  10.323
 5117W        W 8861   5.023   9.405   1.659
 5118W        W 8862   3.864   1.130   3.418
 5119W        W 8863   3.656   9.626   9.477
 5120W        W 8864   9.720   0.470   2.347
 5121W        W 8865   5.162   2.328  11.407
 5122W        W 8866   1.975   1.706   1.013
 5123W        W 8867   6.963   9.428   2.363
 5124W        W 8868   9.215  10.253   8.743
 5125W        W 8869   5.064   5.603   1.664
 5126W        W 8870   1.493   7.163   9.363
 5127W        W 8871   8.814   0.901   0.342
 5128W        W 8872   9.409   7.552   9.649
 5129W        W 8873   9.078   0.887   1.243
 5130W        W 8874   6.568   6.197   1.298
 5131W        W 8875   0.848   4.812  11.808
 5132W        W 8876   6.586   3.556  11.235
 5133W        W 8877   8.835   7.195   1.152
 5134W        W 8878   6.456   8.417  11.357
 5135W        W 8879   4.329   0.410   8.757
 5136W        W 8880   9.392   3.655  11.957
 5137W        W 8881   2.463   0.874   0.501
 5138W        W 8882   1.265   0.061   2.217
 5139W        W 8883   8.280   0.014   9.268
 5140W        W 8884   8.318   1.400   2.652
 5141W        W 8885   4.093   7.480   8.479
 5142W        W 8886   2.404   6.495  10.600
 5143W        W 8887   5.746   6.530   9.878
 5144W        W 8888   3.323   6.451   0.597
 5145W        W 8889   4.714   1.163   9.761
 5146W        W 8890   6.706   6.459  10.762
 5147W        W 8891   2.282   6.952  10.975
 5148W        W 8892   3.618   7.671   0.257
 5149W        W 8893   5.190   4.173  11.759
 5150W        W 8894   0.438   7.029   3.295
 5151W        W 8895   6.550   0.719  11.495
 5152W        W 8896   2.739   5.530   0.258
 5153W        W 8897   3.817   0.573   8.817
 5154W        W 8898   4.610   7.816   1.073
 5155W        W 8899   8.592   2.890  11.839
 5156W        W 8900   8.874   7.218   8.487
 5157W        W 8901   4.590   6.289   9.452
 5158W        W 8902  10.103  10.219   9.900
 5159W        W 8903   1.926   5.237  11.313
 5160W        W 8904  10.073   4.012   0.877
 5161W        W 8905   8.033   5.904   1.893
 5162W        W 8906   2.006   0.012   1.688
 5163W        W 8907   6.131   0.807   1.660
 5164W        W 8908   4.307   7.223   2.443
 5165W        W 8909   2.205   1.125   2.335
 5166W        W 8910   7.788   6.032   8.408
 5167W        W 8911   7.657   4.611   0.267
 5168W        W 8912   2.741   8.128   8.839
 5169W        W 8913   6.931   5.879   1.442
 5170W        W 8914   9.101   9.455   9.301
 5171W        W 8915   7.471   2.590   0.453
 5172W        W 8916   5.604   1.245   2.854
 5173W        W 8917   0.130   6.146  10.766
 5174W        W 8918   4.153   2.389  10.639
 5175W        W 8919   3.176   9.931   3.491
 5176W        W 8920   6.080   7.859   9.432
 5177W        W 8921   1.440   7.560   0.630
 5178W        W 8922   8.154   6.977  11.326
 5179W        W 8923   5.197   2.691  11.782
 5180W        W 8924   0.370   3.613  11.906
 5181W        W 8925   4.586   7.547   3.853
 5182W        W 8926   8.979   2.630   2.333
 5183W        W 8927   2.713   5.457  10.765
 5184W        W 8928   6.970   2.626   2.991
 5185W        W 8929   0.360   7.995  11.776
 5186W        W 8930  10.256   1.674   0.412
 5187W        W 8931   1.407   6.234   1.194
 5188W        W 8932   2.425   3.746  11.999
 5189W        W 8933   2.725   3.217   0.764
 5190W        W 8934   8.521   8.125   2.040
 5191W        W 8935   6.593   0.428   9.270
 5192W        W 8936   3.126   3.105  11.947
 5193W        W 8937   2.379   3.018  11.550
 5194W        W 8938   0.301   2.340   0.212
 5195W        W 8939   4.877   8.815   0.364
 5196W        W 8940   6.705   7.723   2.474
 5197W        W 8941   4.775   0.810  11.316
 5198W        W 8942   1.927   1.385  10.895
 5199W        W 8943   9.569   4.222  10.909
 5200W        W 8944   3.756   1.870  10.068
 5201W        W 8945   0.915  10.220  10.449
 5202W        W 8946   7.447   1.343   1.193
 5203W        W 8947   5.136   8.810  10.537
 5204W        W 8948   5.814   8.447   8.625
 5205W        W 8949   8.152   0.882   0.667
 5206W        W 8950   4.524   4.265   3.200
 5207W        W 8951   8.475   9.978   2.550
 5208W        W 8952  10.437   8.785   0.296
 5209W        W 8953   1.931   9.051   2.344
 5210W        W 8954   5.728   6.924  11.927
 5211W        W 8955   4.664   2.328   1.499
 5212W        W 8956   5.132   4.795   9.785
 5213W        W 8957   3.370   8.884  10.290
 5214W        W 8958   2.903   0.941   9.834
 5215W        W 8959   6.975   3.763  11.530
 5216W        W 8960   1.411   2.475   8.851
 5217W        W 8961   3.761   7.046   1.769
 5218W        W 8962  10.360   9.932   0.667
 5219W        W 8963   2.700  10.369   1.255
 5220W        W 8964   3.656   9.598   2.021
 5221W        W 8965   5.471   4.599  11.872
 5222W        W 8966   1.693   4.106   2.139
 5223W        W 8967  10.446   5.542   1.861
 5224W        W 8968   0.489   7.156   9.758
 5225W        W 8969   2.446   7.431   8.656
 5226W        W 8970   2.605   4.967  10.686
 5227W        W 8971   5.334   0.330   9.596
 5228W        W 8972   0.781   8.775  10.854
 5229W        W 8973   9.539   0.934   2.450
 5230W        W 8974   4.282   0.397   9.270
 5231W        W 8975   9.754   1.815   1.953
 5232W        W 8976   8.088   6.639   1.078
 5233W        W 8977   6.556   6.705  11.715
 5234W        W 8978   0.489   5.582   8.785
 5235W        W 8979   3.267   1.990   0.401
 5236W        W 8980   5.452   8.902  10.982
 5237W        W 8981   0.946   8.878   8.623
 5238W        W 8982   9.322   8.946  11.505
 5239W        W 8983   6.085   0.825   0.668
 5240W        W 8984   6.120   6.613   1.759
 5241W        W 8985   1.188   1.801   9.339
 5242W        W 8986   5.476   8.017   8.591
 5243W        W 8987   4.802   3.150   1.815
 5244W        W 8988  10.481   1.314   8.977
 5245W        W 8989   2.909   5.686   2.580
 5246W        W 8990   9.405   7.042   1.950
 5247W        W 8991   0.070   7.574   2.795
 5248W        W 8992   0.271   0.031   2.654
 5249W        W 8993   2.424   8.938  10.486
 5250W        W 8994   9.613   9.425   9.464
 5251W        W 8995   7.663   8.084   9.398
 5252W        W 8996   6.402   3.906   8.687
 5253W        W 8997   8.882   2.353  10.093
 5254W        W 8998   2.879   3.876   0.160
 5255W        W 8999   3.487   2.974   1.406
 5256W        W 9000   7.612   0.007   3.229
 5257W        W 9001   1.286   3.795   3.206
 5258W        W 9002   8.726   0.860   9.552
 5259W        W 9003   4.665   5.961   2.230
 5260W        W 9004   2.687   5.355   9.457
 5261W        W 9005   6.464   1.797  10.988
 5262W        W 9006   5.675   9.966  10.590
 5263W        W 9007   1.680   9.894   2.113
 5264W        W 9008   4.247   5.264   2.076
 5265W        W 9009   5.513   8.847  10.076
 5266W        W 9010   5.412   7.137   8.251
 5267W        W 9011   5.534   8.904  11.922
 5268W        W 9012   3.095   4.275   1.806
 5269W        W 9013   1.672   6.000   3.004
 5270W        W 9014   3.052   7.421   9.354
 5271W        W 9015   3.582   6.122   3.597
 5272W        W 9016   9.437   8.907   1.409
 5273W        W 9017   0.458  10.258   9.518
 5274W        W 9018   1.477   7.343   2.643
 5275W        W 9019   8.848   2.208   2.689
 5276W        W 9020   6.595   1.037   2.389
 5277W        W 9021   6.195  10.173   9.499
 5278W        W 9022   8.339   9.044  10.750
 5279W        W 9023   0.595   8.241   0.167
 5280W        W 9024   2.330   1.679   1.370
 5281W        W 9025   0.005   6.732   0.089
 5282W        W 9026   4.335   6.067   0.225
 5283W        W 9027   2.917   9.907   9.537
 5284W        W 9028   7.001   5.816   2.158
 5285W        W 9029   9.035   5.058  10.039
 5286W        W 9030  10.291   4.860   0.855
 5287W        W 9031   2.470   9.931   0.958
 5288W        W 9032   4.295   2.098   0.959
 5289W        W 9033   0.764   1.874   8.869
 5290W        W 9034   6.487   3.242   1.506
 5291W        W 9035   5.382   3.287   8.548
 5292W        W 9036   5.457   9.825   3.814
 5293W        W 9037   5.135   8.987   1.421
 5294W        W 9038   5.236   2.884   3.882
 5295W        W 9039   7.899   1.801   0.269
 5296W        W 9040   7.867   6.377   2.005
 5297W        W 9041   1.661   6.029  10.859
 5298W        W 9042   0.288   0.915   8.858
 5299W        W 9043   5.760   2.873   1.100
 5300W        W 9044   8.626   5.689   8.352
 5301W        W 9045   0.537   5.512   0.468
 5302W        W 9046   7.512   4.695   3.619
 5303W        W 9047   7.966   5.710   0.857
 5304W        W 9048   7.885   2.307   0.981
 5305W        W 9049   0.284  10.406  11.150
 5306W        W 9050   8.204   5.917   3.367
 5307W        W 9051   7.018   8.081  10.438
 5308W        W 9052   7.948  10.250   1.745
 5309W        W 9053   6.106  10.389   0.699
 5310W        W 9054   7.318   4.545   9.974
 5311W        W 9055   3.557   2.602   0.954
 5312W        W 9056   4.743   2.272   3.427
 5313W        W 9057   3.905   3.947   2.406
 5314W        W 9058   2.271   7.075  10.086
 5315W        W 9059   7.443  10.050   9.773
 5316W        W 9060   1.364   1.861   2.483
 5317W        W 9061   5.781   4.655   1.901
 5318W        W 9062   9.489   2.659  11.461
 5319W        W 9063   3.190   3.503   0.746
 5320W        W 9064   9.506   3.896   2.936
 5321W        W 9065   5.731   4.636   2.418
 5322W        W 9066   0.496   3.797   2.702
 5323W        W 9067   4.149   7.320  11.462
 5324W        W 9068   8.410   4.291   2.360
 5325W        W 9069   0.001   5.704   0.695
 5326W        W 9070   0.896   0.130   9.536
 5327W        W 9071   8.501   5.747  10.074
 5328W        W 9072  10.481   2.619  10.449
 5329W        W 9073   5.571   1.456   1.677
 5330W        W 9074   8.933   6.423   8.848
 5331W        W 9075   7.918   4.929   1.078
 5332W        W 9076   7.511   4.426   4.043
 5333W        W 9077   3.800   5.415   2.213
 5334W        W 9078  10.291   1.379  11.973
 5335W        W 9079   8.986   8.386   2.055
 5336W        W 9080   5.553   3.927   9.074
 5337W        W 9081   8.083   9.371   1.327
 5338W        W 9082   8.907   4.167   9.529
 5339W        W 9083   9.027   8.604   9.953
 5340W        W 9084   3.770   3.098   8.731
 5341W        W 9085   7.031   6.929   2.478
 5342W        W 9086   5.507  10.055   8.618
 5343W        W 9087   7.656   9.266  11.454
 5344W        W 9088   9.224   7.000   1.472
 5345W        W 9089   0.116   5.000   2.842
 5346W        W 9090   6.760   6.538   9.775
 5347W        W 9091   9.798   9.276   3.096
 5348W        W 9092   9.567   6.937   2.607
 5349W        W 9093   4.211   6.375  10.638
 5350W        W 9094   3.803   0.535   2.031
 5351W        W 9095   5.905   3.231   8.567
 5352W        W 9096   8.535   4.317   0.294
 5353W        W 9097   8.591   5.192  10.945
 5354W        W 9098   0.307   5.094   9.299
 5355W        W 9099   5.534   6.150   9.228
 5356W        W 9100   9.419   0.025   2.543
 5357W        W 9101   7.126   8.969   1.502
 5358W        W 9102   9.371   4.655   3.349
 5359W        W 9103   5.062   6.013  10.579
 5360W        W 9104   1.403   4.599   1.660
 5361W        W 9105   9.204  10.474   1.187
 5362W        W 9106   0.287   3.184   1.448
 5363W        W 9107   6.994   0.703  11.847
 5364W        W 9108   0.287   3.638   1.212
 5365W        W 9109   0.896   6.493  11.779
 5366W        W 9110   0.495   3.583   0.754
 5367W        W 9111   0.567   9.627  11.263
 5368W        W 9112   3.314   1.791   9.256
 5369W        W 9113   1.421  10.480  10.765
 5370W        W 9114   5.029   1.992   1.457
 5371W        W 9115   4.894   8.074   3.177
 5372W        W 9116   3.216   2.292   9.117
 5373W        W 9117   5.414   5.614  10.480
 5374W        W 9118  10.356   3.999   1.329
 5375W        W 9119   7.583   5.321   0.885
 5376W        W 9120   1.984   6.395  10.295
 5377W        W 9121   6.983   4.716  10.883
 5378W        W 9122   0.795  10.043   1.539
 5379W        W 9123   5.642   3.617   9.471
 5380W        W 9124  10.318   0.343  11.419
 5381W        W 9125   6.481   1.155   1.404
 5382W        W 9126   3.710   8.577   9.462
 5383W        W 9127   6.435   0.933  10.973
 5384W        W 9128   0.994   1.847   0.764
 5385W        W 9129   1.295   2.696   9.823
 5386W        W 9130   6.160   6.437   0.698
 5387W        W 9131   2.778   6.511   1.192
 5388W        W 9132   3.234   3.225   3.643
 5389W        W 9133  10.325   1.289  11.458
 5390W        W 9134   9.165   6.205   0.480
 5391W        W 9135   9.974   1.134   3.126
 5392W        W 9136   8.534   5.225  10.097
 5393W        W 9137   3.748   7.380  11.020
 5394W        W 9138   7.990   0.854  11.729
 5395W        W 9139   8.871   4.038   2.191
 5396W        W 9140   8.013  10.192   3.210
 5397W        W 9141   3.596  10.432   9.808
 5398W        W 9142   0.877   7.241  11.978
 5399W        W 9143   7.488   8.556   9.514
 5400W        W 9144   3.675   4.592   9.780
 5401W        W 9145   9.019   1.360  11.211
 5402W        W 9146   7.612   8.671   2.667
 5403W        W 9147   1.872   6.896   0.963
 5404W        W 9148   3.843   0.379  10.329
 5405W        W 9149   9.137   4.001  10.975
 5406W        W 9150   9.777   9.616  10.301
 5407W        W 9151   5.052   6.014   2.958
 5408W        W 9152   3.721   9.209   0.529
 5409W        W 9153   8.482   8.002   0.443
 5410W        W 9154   9.737   4.720   9.448
 5411W        W 9155   7.539   2.424   2.210
 5412W        W 9156   7.813   4.386  11.335
 5413W        W 9157   8.456   4.740   2.125
 5414W        W 9158   8.945   1.780   2.363
 5415W        W 9159   1.597   4.203   9.440
 5416W        W 9160   5.541   5.318   1.798
 5417W        W 9161   5.430   4.183   0.262
 5418W        W 9162   8.977   1.263  10.705
 5419W        W 9163   3.076   6.873  11.261
 5420W        W 9164   9.767   7.774   2.783
 5421W        W 9165   4.160   3.549   1.181
 5422W        W 9166   1.338   4.821  10.118
 5423W        W 9167   2.339   9.196   0.233
 5424W        W 9168   5.681   2.725   0.393
 5425W        W 9169   3.154   5.237   0.956
 5426W        W 9170   8.772   6.318   0.816
 5427W        W 9171   7.666  10.054   2.830
 5428W        W 9172   1.800   5.485   9.683
 5429W        W 9173   8.735   8.316   3.572
 5430W        W 9174   9.228   0.299  11.931
 5431W        W 9175   4.190   1.237   2.801
 5432W        W 9176   0.769   9.996   0.250
 5433W        W 9177   7.906   0.469   0.500
 5434W        W 9178   1.849  10.394  11.017
 5435W        W 9179   0.395   2.453   2.653
 5436W        W 9180   4.290   5.514   0.927
 5437W        W 9181   5.510   8.863   9.575
 5438W        W 9182   5.625   5.447   8.968
 5439W        W 9183   3.404   4.082   2.254
 5440W        W 9184   6.674   7.955  11.269
 5441W        W 9185   7.799   5.201  10.521
 5442W        W 9186   3.241   9.512   1.160
 5443W        W 9187   1.646   0.241   9.984
 5444W        W 9188   4.945   5.770  11.386
 5445W        W 9189   6.487   8.090   3.297
 5446W        W 9190   2.329   4.643   1.673
 5447W        W 9191   9.986   0.963   0.012
 5448W        W 9192   4.975   7.588  11.584
 5449W        W 9193   5.376   1.666   1.281
 5450W        W 9194   2.819   3.400   1.571
 5451W        W 9195   1.392   0.378  10.408
 5452W        W 9196   4.666   8.086  10.532
 5453W        W 9197   1.609   3.021   0.221
 5454W        W 9198   5.544   8.295  10.875
 5455W        W 9199   7.628   7.413   1.699
 5456W        W 9200   2.647   8.472   2.419
 5457W        W 9201   1.850   2.199   0.942
 5458W        W 9202   3.338   3.831   0.370
 5459W        W 9203   8.501   2.296   9.273
 5460W        W 9204   1.622   1.347  11.326
 5461W        W 9205   3.595   1.898   3.028
 5462W        W 9206   1.153   9.545  10.433
 5463W        W 9207   1.767   0.036   8.575
 5464W        W 9208   0.155   9.205  10.466
 5465W        W 9209   3.889  10.409   2.702
 5466W        W 9210   4.426   7.604   2.741
 5467W        W 9211   0.712   3.313   1.164
 5468W        W 9212   3.600   5.698   1.698
 5469W        W 9213   4.099   9.351   9.357
 5470W        W 9214   4.069   7.506  10.627
 5471W        W 9215   1.943   1.406   3.418
 5472W        W 9216   4.972   9.970   3.445
 5473W        W 9217   0.221   7.396   2.323
 5474W        W 9218   1.796   5.457   2.183
 5475W        W 9219   4.691   0.644   9.052
 5476W        W 9220   0.353   3.833   3.202
 5477W        W 9221   4.327   5.138   9.563
 5478W        W 9222   1.883   2.859   8.338
 5479W        W 9223   8.183   5.038  11.800
 5480W        W 9224   8.035   8.637   0.770
 5481W        W 9225   3.235   7.374  10.342
 5482W        W 9226   7.156   0.779   3.005
 5483W        W 9227   0.702   3.095  10.915
 5484W        W 9228  10.457   9.432   2.012
 5485W        W 9229   6.192   9.032   3.385
 5486W        W 9230   1.110   0.446   9.142
 5487W        W 9231   6.154   6.172   2.040
 5488W        W 9232   4.059   9.913   3.476
 5489W        W 9233   7.034   4.585   3.755
 5490W        W 9234   9.222   3.398   9.802
 5491W        W 9235   4.588   4.154  10.910
 5492W        W 9236   5.051   2.388   9.475
 5493W        W 9237   1.228   4.203  11.034
 5494W        W 9238   8.642   6.715   8.574
 5495W        W 9239   9.338   0.868   8.901
 5496W        W 9240   8.922   1.726   8.854
 5497W        W 9241   5.078   6.109   9.549
 5498W        W 9242   6.108   1.954   0.251
 5499W        W 9243   0.880   6.297   3.027
 5500W        W 9244   4.253   3.637  11.715
 5501W        W 9245   3.276   6.158   8.565
 5502W        W 9246   0.661   8.874   9.079
 5503W        W 9247   5.743   1.739   8.390
 5504W        W 9248   4.610   9.244   0.463
 5505W        W 9249   0.960   1.778   0.114
 5506W        W 9250  10.411   4.519   2.621
 5507W        W 9251   8.626   7.556   0.842
 5508W        W 9252   9.362   1.531   9.550
 5509W        W 9253   9.877   1.342  11.199
 5510W        W 9254   4.289   3.125   2.731
 5511W        W 9255   2.873   2.156  10.350
 5512W        W 9256   4.242   5.232   1.385
 5513W        W 9257   7.597   8.803   0.579
 5514W        W 9258   4.744   1.727  10.369
 5515W        W 9259   6.159   7.603   8.080
 5516W        W 9260   9.274   6.243   0.964
 5517W        W 9261   8.487   6.065   2.654
 5518W        W 9262   3.216   7.133   1.162
 5519W        W 9263   2.787   9.725   2.237
 5520W        W 9264   9.473   3.549   2.519
 5521W        W 9265   6.430   2.306  10.978
 5522W        W 9266   6.169   9.667  11.842
 5523W        W 9267   6.455   2.167  11.463
 5524W        W 9268   5.969   4.651  11.750
 5525W        W 9269   7.222   6.708   8.378
 5526W        W 9270   7.128   1.968  11.500
 5527W        W 9271   1.485   7.904   1.929
 5528W        W 9272   9.079   6.999  11.732
 5529W        W 9273   9.182   2.237  10.942
 5530W        W 9274   0.445   6.939  11.855
 5531W        W 9275   7.505   8.026   2.298
 5532W        W 9276   1.189  10.067   0.534
 5533W        W 9277   0.451   7.643   1.861
 5534W        W 9278   3.431   3.654  10.970
 5535W        W 9279   5.761  10.315  10.967
 5536W        W 9280   2.634   8.823  11.957
 5537W        W 9281   1.293   0.976   2.658
 5538W        W 9282   4.610  10.374   3.363
 5539W        W 9283   9.106   8.895  11.056
 5540W        W 9284   2.206   2.520   9.228
 5541W        W 9285   9.383   8.187   3.075
 5542W        W 9286   6.412   5.360  10.404
 5543W        W 9287   6.544   1.734   0.389
 5544W        W 9288   3.259   2.377  10.637
 5545W        W 9289   5.667   8.367   9.952
 5546W        W 9290   7.462   1.488   2.667
 5547W        W 9291   7.898   7.994  10.251
 5548W        W 9292  10.233   2.761   9.369
 5549W        W 9293   1.610   5.078  10.942
 5550W        W 9294   7.082   9.791   3.699
 5551W        W 9295   1.273   4.171   0.899
 5552W        W 9296   9.754   2.820   9.556
 5553W        W 9297   0.857   0.425   1.471
 5554W        W 9298   6.472   0.737   8.854
 5555W        W 9299   4.734  10.087   1.685
 5556W        W 9300   7.496   9.035   3.488
 5557W        W 9301   9.096   1.490   3.480
 5558W        W 9302   8.048   7.984   2.279
 5559W        W 9303   5.598   2.624   2.444
 5560W        W 9304   2.093   9.057   3.377
 5561W        W 9305   7.155   9.732  11.961
 5562W        W 9306   0.673   0.066  11.433
 5563W        W 9307   8.511   3.227   1.402
 5564W        W 9308   9.017   6.047  11.470
 5565W        W 9309   8.320   2.447  10.775
 5566W        W 9310   3.266   7.301   0.204
 5567W        W 9311   8.318   7.129   0.701
 5568W        W 9312   4.233   0.312   1.771
 5569W        W 9313   0.770   4.739   1.494
 5570W        W 9314   0.880  10.191   8.571
 5571W        W 9315   3.410  10.022   0.984
 5572W        W 9316   5.630   4.127   1.205
 5573W        W 9317   7.370   3.155  10.691
 5574W        W 9318   3.642   3.517   2.438
 5575W        W 9319   7.997   9.704   3.373
 5576W        W 9320   9.812   4.723   2.401
 5577W        W 9321   6.525   6.080   0.672
 5578W        W 9322   9.973   4.502  11.012
 5579W        W 9323  10.306   6.114  11.187
 5580W        W 9324   4.220   0.862   8.964
 5581W        W 9325   1.831   7.409   0.950
 5582W        W 9326   4.224   9.496   1.102
 5583W        W 9327   0.882   2.267  11.972
 5584W        W 9328   5.628   7.235   2.820
 5585W        W 9329   4.732   6.467  10.809
 5586W        W 9330   5.555   2.694  11.395
 5587W        W 9331   7.476   8.952   1.052
 5588W        W 9332   2.821   9.066   0.377
 5589W        W 9333   8.105   4.212   3.157
 5590W        W 9334   8.089   5.108   2.586
 5591W        W 9335   6.561   2.662  11.355
 5592W        W 9336   8.076   4.970   1.571
 5593W        W 9337   1.366   1.647   1.184
 5594W        W 9338   9.739   2.242   2.233
 5595W        W 9339   8.373   2.425  10.275
 5596W        W 9340   3.713   0.427   9.842
 5597W        W 9341   8.819   3.135   2.427
 5598W        W 9342   4.036   9.426   8.429
 5599W        W 9343   7.528   1.911   2.162
 5600W        W 9344   8.942   2.639   0.239
 5601W        W 9345   7.034   6.940  11.706
 5602W        W 9346   5.054   2.362  10.490
 5603W        W 9347   5.983   7.901   2.436
 5604W        W 9348   0.050   2.405   0.961
 5605W        W 9349   6.254   4.662   1.570
 5606W        W 9350   2.477   3.410   2.945
 5607W        W 9351   1.946   4.507   3.293
 5608W        W 9352   7.674   6.426   3.385
 5609W        W 9353   7.079  10.175  10.936
 5610W        W 9354   2.216  10.273   9.259
 5611W        W 9355   7.893   0.266   9.529
 5612W        W 9356   2.922   8.516   3.341
 5613W        W 9357   3.125   0.698  10.893
 5614W        W 9358   2.427  10.247   1.683
 5615W        W 9359   8.547   9.359   9.081
 5616W        W 9360   0.706  10.090  11.330
 5617W        W 9361   7.596   2.816  10.373
 5618W        W 9362   8.566   6.470   9.578
 5619W        W 9363   6.950  10.420   1.229
 5620W        W 9364   4.545   0.326  11.051
 5621W        W 9365   0.343   4.494   1.425
 5622W        W 9366   0.714  10.269  11.830
 5623W        W 9367   2.759   8.584   9.181
 5624W        W 9368   3.062   4.299   0.360
 5625W        W 9369   4.603   0.072   1.512
 5626W        W 9370   0.408   9.382   1.795
 5627W        W 9371   0.996   4.652   9.183
 5628W        W 9372  10.180   2.235  10.668
 5629W        W 9373   7.028   9.889  10.011
 5630W        W 9374   4.633   7.204  11.579
 5631W        W 9375   5.541   3.081  10.642
 5632W        W 9376  10.310   1.569   1.329
 5633W        W 9377   4.093   2.582   0.960
 5634W        W 9378   0.918   2.218   3.219
 5635W        W 9379   1.747   0.738  11.371
 5636W        W 9380   3.196   8.698  11.941
 5637W        W 9381   5.812   8.062   4.070
 5638W        W 9382   8.462   8.488   1.266
 5639W        W 9383   8.636   5.289  11.803
 5640W        W 9384   2.238   4.527  11.641
 5641W        W 9385   9.366   4.208  10.444
 5642W        W 9386   2.411   2.895   8.459
 5643W        W 9387   5.599   7.542   9.367
 5644W        W 9388   6.514   3.413   1.027
 5645W        W 9389   8.064   1.643   9.789
 5646W        W 9390   3.274   3.271   1.761
 5647W        W 9391   4.534  10.411   0.781
 5648W        W 9392   1.798   4.698   0.937
 5649W        W 9393   2.610   4.260   2.845
 5650W        W 9394   1.368   1.955   8.876
 5651W        W 9395   4.738   0.419   2.432
 5652W        W 9396   5.734   5.986   3.165
 5653W        W 9397   1.744   4.359  11.782
 5654W        W 9398   4.703   8.028  11.076
 5655W        W 9399   0.836   5.657  10.154
 5656W        W 9400   0.388  10.207  10.396
 5657W        W 9401   2.343   6.995   1.712
 5658W        W 9402   9.769   8.597  10.439
 5659W        W 9403   3.822  10.029   1.674
 5660W        W 9404   5.118   2.563   2.703
 5661W        W 9405   5.212   1.672   8.690
 5662W        W 9406   8.470   0.568   3.162
 5663W        W 9407   6.989   1.185   1.931
 5664W        W 9408   9.111   2.192  11.982
 5665W        W 9409   2.336   9.425   2.222
 5666W        W 9410   3.417   0.917   8.744
 5667W        W 9411   5.306   8.486   1.494
 5668W        W 9412   2.466   6.183   0.434
 5669W        W 9413   3.088   0.782  11.889
 5670W        W 9414   7.458   0.654  11.381
 5671W        W 9415   0.523   6.049   2.220
 5672W        W 9416   7.306   6.128   3.164
 5673W        W 9417   5.641   4.099  10.976
 5674W        W 9418   4.359   8.575   1.330
 5675W        W 9419  10.345   7.025  11.258
 5676W        W 9420   5.902   7.082  10.467
 5677W        W 9421   4.993   8.007   0.794
 5678W        W 9422   6.456   3.644   9.905
 5679W        W 9423   1.702   3.553   9.339
 5680W        W 9424   2.759   1.934   0.403
 5681W        W 9425   2.888   6.934   9.400
 5682W        W 9426   0.914   6.666   8.928
 5683W        W 9427   7.981   2.658   2.363
 5684W        W 9428   4.028   2.662   2.714
 5685W        W 9429   0.923   6.170   2.492
 5686W        W 9430  10.287   7.924   0.419
 5687W        W 9431   8.561   0.086   3.159
 5688W        W 9432   0.053   0.786   3.397
 5689W        W 9433   3.492   0.578   3.504
 5690W        W 9434   4.611   4.113   7.879
 5691W        W 9435   7.349   6.541   0.314
 5692W        W 9436   3.173   9.966   2.957
 5693W        W 9437   7.039   9.873   2.669
 5694W        W 9438   7.693   1.864   2.940
 5695W        W 9439  10.433   8.883   9.683
 5696W        W 9440   3.804   2.753  10.569
 5697W        W 9441   9.377   9.092   0.028
 5698W        W 9442  10.499   2.639   8.623
 5699W        W 9443   8.868   5.806   0.331
 5700W        W 9444   5.003   0.846   2.623
 5701W        W 9445   6.636   6.455   1.801
 5702W        W 9446   8.968   7.442   1.573
 5703W        W 9447   5.347   2.751   3.395
 5704W        W 9448  10.030   0.920   9.599
 5705W        W 9449   2.415   5.681   3.180
 5706W        W 9450   6.444   1.152   1.918
 5707W        W 9451   2.680   8.354   2.925
 5708W        W 9452   7.880   7.435  11.525
 5709W        W 9453   6.154   2.061   2.761
 5710W        W 9454   4.159   7.123   1.469
 5711W        W 9455   8.885   8.875   3.354
 5712W        W 9456   3.389   2.692   2.546
 5713W        W 9457   3.003   0.846   8.434
 5714W        W 9458   9.294   3.029   9.415
 5715W        W 9459   8.813   7.513   3.067
 5716W        W 9460   5.147   5.248   9.061
 5717W        W 9461   9.734   5.593  11.689
 5718W        W 9462  10.141   2.019   3.178
 5719W        W 9463  10.469   2.716   2.604
 5720W        W 9464   6.426   6.060  10.871
 5721W        W 9465   7.166   9.604   8.452
 5722W        W 9466   8.618   4.469   0.795
 5723W        W 9467   4.195   3.099   0.918
 5724W        W 9468   4.349   9.529   2.821
 5725W        W 9469   6.127   8.528   3.391
 5726W        W 9470   7.415  10.400   8.875
 5727W        W 9471   9.384   7.957   0.973
 5728W        W 9472   4.753   4.531   9.070
 5729W        W 9473   2.892   6.687  10.304
 5730W        W 9474   3.589   2.363   0.459
 5731W        W 9475   1.427   8.568   0.123
 5732W        W 9476  10.060   6.481   0.145
 5733W        W 9477   6.217  10.024  10.869
 5734W        W 9478   1.830   8.274   3.514
 5735W        W 9479   4.594   9.086   1.421
 5736W        W 9480   9.056   9.111   0.450
 5737W        W 9481   7.375   3.257   1.350
 5738W        W 9482   5.946   2.609   9.403
 5739W        W 9483   3.656   6.266   8.930
 5740W        W 9484   7.995   2.873   9.731
 5741W        W 9485   0.232   3.053  11.413
 5742W        W 9486   2.101   3.432  10.136
 5743W        W 9487   0.870   2.387  11.449
 5744W        W 9488   1.840   3.374   1.025
 5745W        W 9489   1.729   4.154   1.121
 5746W        W 9490   9.754   4.276   2.138
 5747W        W 9491   0.939   0.454   3.217
 5748W        W 9492   2.701   5.884   8.553
 5749W        W 9493   6.147   1.753   8.773
 5750W        W 9494   9.440   5.471   8.891
 5751W        W 9495   4.077   0.931   2.364
 5752W        W 9496   2.376   4.250   2.371
 5753W        W 9497   8.901   9.940   9.502
 5754W        W 9498   8.714   2.370  11.077
 5755W        W 9499   6.009   3.886   9.271
 5756W        W 9500   1.579   0.740   3.208
 5757W        W 9501   1.436   4.606   2.186
 5758W        W 9502   2.268   2.333  10.642
 5759W        W 9503   6.154   9.377  10.021
 5760W        W 9504   8.975   8.859   2.276
 5761W        W 9505   9.386   7.308  11.485
 5762W        W 9506   1.150   7.940   9.941
 5763W        W 9507   9.289   5.054   0.758
 5764W        W 9508   3.724   3.619   0.918
 5765W        W 9509   9.913   9.532   2.142
 5766W        W 9510   9.574   4.795   3.819
 5767W        W 9511   6.912   6.562   3.786
 5768W        W 9512   9.464   4.824   2.789
 5769W        W 9513   3.336   3.221   9.594
 5770W        W 9514   7.440   2.330   3.084
 5771W        W 9515   4.086   8.249  11.787
 5772W        W 9516   8.974   7.539   8.853
 5773W        W 9517   2.507   0.725  10.082
 5774W        W 9518   9.414   9.089   2.826
 5775W        W 9519   0.221   9.571   2.813
 5776W        W 9520   8.365   6.266  10.035
 5777W        W 9521  10.006   4.524   9.064
 5778W        W 9522   8.398   6.968   1.914
 5779W        W 9523  10.268   4.083   1.876
 5780W        W 9524   1.760   0.757   2.709
 5781W        W 9525   1.038   9.981   1.042
 5782W        W 9526   5.809   0.322   9.717
 5783W        W 9527   3.705   2.255   2.680
 5784W        W 9528   2.353   6.246   1.307
 5785W        W 9529   2.292   3.004   9.340
 5786W        W 9530   9.760   7.679  10.628
 5787W        W 9531   4.628   1.343   1.592
 5788W        W 9532   2.416   9.369  10.757
 5789W        W 9533   9.379   5.859   2.723
 5790W        W 9534   9.442   0.277   1.533
 5791W        W 9535   5.916   6.891   0.737
 5792W        W 9536   7.539   4.540   8.609
 5793W        W 9537   3.137   7.031   9.978
 5794W        W 9538   1.869   9.413   1.974
 5795W        W 9539   5.598   9.913   2.229
 5796W        W 9540   9.092   7.210   0.189
 5797W        W 9541   5.126   5.570   2.678
 5798W        W 9542   6.540   0.275  10.480
 5799W        W 9543   2.220   4.988  10.321
 5800W        W 9544   8.502   8.428   0.747
 5801W        W 9545   9.839   2.665   0.408
 5802W        W 9546   9.594   0.775   1.381
 5803W        W 9547   8.339   0.484  11.779
 5804W        W 9548   7.539   0.572  10.472
 5805W        W 9549   8.135   7.928   9.307
 5806W        W 9550   2.258   0.181  10.904
 5807W        W 9551   2.326   1.609   2.190
 5808W        W 9552   1.897   9.557   3.408
 5809W        W 9553   1.150   9.081  10.686
 5810W        W 9554   6.481   7.801  10.301
 5811W        W 9555   3.600   5.072   0.211
 5812W        W 9556   8.071   6.938  10.801
 5813W        W 9557   6.510   3.231   9.119
 5814W        W 9558   9.040   4.079   8.590
 5815W        W 9559   4.202   5.748   2.337
 5816W        W 9560   0.729   7.484   3.173
 5817W        W 9561   0.694   2.122   0.447
 5818W        W 9562   7.593   1.838   1.158
 5819W        W 9563   3.274   4.211   3.558
 5820W        W 9564   5.949   8.043   8.336
 5821W        W 9565   9.611   5.063  10.002
 5822W        W 9566   8.690   5.793   3.538
 5823W        W 9567   4.894   9.514   9.962
 5824W        W 9568   9.736   3.358  10.150
 5825W        W 9569   4.508   1.848   1.415
 5826W        W 9570   4.276   0.681  11.315
 5827W        W 9571   4.139   7.745  11.806
 5828W        W 9572   2.562   1.702   9.456
 5829W        W 9573   8.080   4.675   9.441
 5830W        W 9574   0.467   5.571   2.434
 5831W        W 9575   6.436   7.416  11.775
 5832W        W 9576   3.245   9.496   3.170
 5833W        W 9577   0.851   8.349   9.040
 5834W        W 9578   8.463   9.892   0.987
 5835W        W 9579   9.070   5.017  11.840
 5836W        W 9580   8.197   4.262   9.120
 5837W        W 9581   3.468   8.445  10.020
 5838W        W 9582   9.378   5.843   9.548
 5839W        W 9583   9.618   9.390   1.445
 5840W        W 9584   6.066   3.057   2.827
 5841W        W 9585   5.761   7.850  11.756
 5842W        W 9586   1.442   3.244  11.345
 5843W        W 9587   9.139   6.637   2.147
 5844W        W 9588   5.215   1.895   0.263
 5845W        W 9589   0.726   4.267   2.766
 5846W        W 9590  10.165   9.078  10.930
 5847W        W 9591   0.398   0.311   9.538
 5848W        W 9592   3.225   7.180   2.634
 5849W        W 9593   7.851   6.914   1.914
 5850W        W 9594   9.037   0.237   3.392
 5851W        W 9595   8.958   3.624   2.494
 5852W        W 9596   4.101   0.936   9.499
 5853W        W 9597   4.476   7.190  10.509
 5854W        W 9598   3.326   3.606  11.917
 5855W        W 9599   2.742   9.872   2.708
 5856W        W 9600   3.629   9.816   3.228
 5857W        W 9601   6.480   9.516   8.933
 5858W        W 9602   3.149   9.781   0.298
 5859W        W 9603   0.192   8.058   1.707
 5860W        W 9604   4.362   5.678   2.815
 5861W        W 9605   6.245   1.450   3.626
 5862W        W 9606   1.844   7.811  10.453
 5863W        W 9607   9.348   2.510   9.424
 5864W        W 9608   8.035   7.571   8.592
 5865W        W 9609   2.584   6.443   4.141
 5866W        W 9610   5.500   5.498   2.272
 5867W        W 9611   5.971  10.182   3.591
 5868W        W 9612   3.201   9.376   2.171
 5869W        W 9613   0.239   5.427  11.814
 5870W        W 9614   0.097   2.659   3.547
 5871W        W 9615   5.427  10.371   2.457
 5872W        W 9616   1.016   0.896   2.237
 5873W        W 9617   0.823   3.571   9.871
 5874W        W 9618   8.279   1.395   2.158
 5875W        W 9619   3.790   4.127   3.248
 5876W        W 9620   8.774  10.356   1.420
 5877W        W 9621   4.075   6.243   2.403
 5878W        W 9622   7.518   3.136   8.654
 5879W        W 9623   4.118   4.127   8.667
 5880W        W 9624   6.925   8.943  10.968
 5881W        W 9625   5.458   2.682   9.652
 5882W        W 9626   3.228   9.347   9.536
 5883W        W 9627   8.907   7.948  11.155
 5884W        W 9628   6.462   5.174   9.872
 5885W        W 9629   1.197  10.039   2.359
 5886W        W 9630   1.190   6.707   9.347
 5887W        W 9631   6.485   7.556   9.530
 5888W        W 9632   8.556   3.046   0.904
 5889W        W 9633   7.389   5.000  10.738
 5890W        W 9634  10.151   2.415   3.563
 5891W        W 9635   3.146   7.135   3.275
 5892W        W 9636   7.137   4.694   2.894
 5893W        W 9637  10.341   6.531   0.576
 5894W        W 9638   0.370   8.470   0.844
 5895W        W 9639   1.912   8.718   3.731
 5896W        W 9640   7.019   7.469   2.869
 5897W        W 9641   6.071  10.040   2.061
 5898W        W 9642   1.643   8.978  11.881
 5899W        W 9643   4.821   6.974  10.830
 5900W        W 9644   0.558   3.123  10.025
 5901W        W 9645   0.257   8.544   1.856
 5902W        W 9646   5.168   3.667  11.668
 5903W        W 9647   5.701   2.836  11.858
 5904W        W 9648   2.261   6.012  11.287
 5905W        W 9649   4.701   5.553  10.717
 5906W        W 9650   4.289   3.400   0.175
 5907W        W 9651   5.452   9.601   9.329
 5908W        W 9652   3.872   5.269   1.725
 5909W        W 9653   4.158   7.488   3.545
 5910W        W 9654   4.128   7.904   9.223
 5911W        W 9655   0.832   1.889  11.629
 5912W        W 9656   5.547   2.917  10.131
 5913W        W 9657   3.478   2.191  11.922
 5914W        W 9658   9.135   7.195   9.924
 5915W        W 9659   3.848   7.167   9.361
 5916W        W 9660   6.753   7.971   1.510
 5917W        W 9661   6.182   9.357   0.832
 5918W        W 9662   0.977   7.448   0.419
 5919W        W 9663   8.620   8.629   0.300
 5920W        W 9664   2.682  10.450   0.105
 5921W        W 9665   8.806   3.283  10.557
 5922W        W 9666   1.212   7.726  11.780
 5923W        W 9667   7.374   5.641   2.585
 5924W        W 9668   8.345  10.240   9.796
 5925W        W 9669   6.770   0.009   3.037
 5926W        W 9670   5.558   9.140   9.167
 5927W        W 9671   3.991   0.632   3.411
 5928W        W 9672   2.073   1.118  11.292
 5929W        W 9673   4.012  10.326   0.800
 5930W        W 9674   6.824   7.946   9.407
 5931W        W 9675   8.821   5.025  11.395
 5932W        W 9676   6.121   0.858   2.271
 5933W        W 9677  10.465   3.718   2.750
 5934W        W 9678  10.037   0.939   2.235
 5935W        W 9679   9.394   1.661   8.639
 5936W        W 9680   2.759   4.082   8.967
 5937W        W 9681   2.797   5.069   0.529
 5938W        W 9682   0.866   3.155  10.437
 5939W        W 9683   8.947   6.421  10.688
 5940W        W 9684   4.773   8.982   3.393
 5941W        W 9685   0.811   2.311  10.516
 5942W        W 9686   0.933   9.747   3.066
 5943W        W 9687   7.509  10.469  10.852
 5944W        W 9688   2.565   0.803   1.013
 5945W        W 9689   0.888   8.907   2.950
 5946W        W 9690   1.803   7.368   3.028
 5947W        W 9691  10.384   0.426   9.475
 5948W        W 9692   2.829   0.362  10.303
 5949W        W 9693   8.981   9.792   2.677
 5950W        W 9694   6.122   8.506   9.033
 5951W        W 9695   5.582   5.375  11.379
 5952W        W 9696   2.280   2.380   8.726
 5953W        W 9697   0.432  10.479   9.961
 5954W        W 9698   2.821   3.165   9.423
 5955W        W 9699   5.054   1.814  11.259
 5956W        W 9700   5.762   5.548  11.826
 5957W        W 9701   2.209   0.269   2.332
 5958W        W 9702   7.451   6.616   2.970
 5959W        W 9703   5.204   9.218  10.230
 5960W        W 9704   5.549   5.594   9.457
 5961W        W 9705   6.940   8.370  11.485
 5962W        W 9706   7.059   1.660   9.015
 5963W        W 9707   5.611   1.240   9.758
 5964W        W 9708   2.349   6.916  11.978
 5965W        W 9709   7.528   9.400  11.929
 5966W        W 9710   0.803   3.626   3.249
 5967W        W 9711   4.010   3.565  10.025
 5968W        W 9712   3.686   5.160  10.239
 5969W        W 9713   8.876   9.450   0.817
 5970W        W 9714   4.979   8.142   9.284
 5971W        W 9715   0.951   5.616  10.649
 5972W        W 9716   1.864   6.529  10.776
 5973W        W 9717   9.788   7.669   1.316
 5974W        W 9718   6.610   7.246   9.144
 5975W        W 9719   2.662   5.125  11.987
 5976W        W 9720   7.553   7.531   8.415
 5977W        W 9721   3.557   0.005   0.206
 5978W        W 9722  10.261   8.672  11.843
 5979W        W 9723   4.239   7.217   0.991
 5980W        W 9724   0.957   3.333  11.272
 5981W        W 9725   2.148   4.926   1.291
 5982W        W 9726   4.294   8.839   8.925
 5983W        W 9727   9.549   2.198  11.287
 5984W        W 9728   1.802   5.971   2.030
 5985W        W 9729   5.635  10.025   9.116
 5986W        W 9730   0.184   8.311  10.430
 5987W        W 9731   0.753   7.422  11.499
 5988W        W 9732   9.236   2.199   2.201
 5989W        W 9733   8.572   1.959  10.153
 5990W        W 9734   7.897   1.440   1.461
 5991W        W 9735   3.379   4.731   2.712
 5992W        W 9736   7.867   7.082  11.884
 5993W        W 9737   8.618   3.889   0.565
 5994W        W 9738   5.531   5.793   1.622
 5995W        W 9739   0.423   6.668   0.876
 5996W        W 9740   6.081   4.790   9.834
 5997W        W 9741   6.428   7.024   9.592
 5998W        W 9742   8.816   3.660   9.574
 5999W        W 9743   7.129   3.646   1.580
 6000W        W 9744   2.495   0.700   2.405
 6001W        W 9745   9.882   8.710   2.523
 6002W        W 9746   8.742   8.385  10.353
 6003W        W 9747   4.081   5.586   0.049
 6004W        W 9748   1.389   0.894   9.008
 6005W        W 9749   8.315   3.170   2.446
 6006W        W 9750   2.876   2.621   2.663
 6007W        W 9751   4.705   8.486   3.552
 6008W        W 9752   4.781   2.128  10.048
 6009W        W 9753   9.950   7.474   0.390
 6010W        W 9754   7.562  10.008   3.361
 6011W        W 9755   0.640  10.380   1.205
 6012W        W 9756   3.953   4.766   9.371
 6013W        W 9757   0.731   5.428   1.300
 6014W        W 9758   0.290   3.845   0.369
 6015W        W 9759   6.613   1.001   0.833
 6016W        W 9760   9.527   9.401  11.544
 6017W        W 9761   7.444   9.047  10.904
 6018W        W 9762   3.346   6.055   0.266
 6019W        W 9763   8.951   1.273   9.766
 6020W        W 9764   3.232   0.178  10.873
 6021W        W 9765   4.664   5.050   1.616
 6022W        W 9766   0.415   5.711   0.987
 6023W        W 9767   4.931   8.895  11.039
 6024W        W 9768  10.006   6.871   9.883
 6025W        W 9769   8.593   7.785  11.970
 6026W        W 9770   5.817   4.339  10.001
 6027W        W 9771   8.099   4.257  10.925
 6028W        W 9772   0.348   8.955   3.466
 6029W        W 9773  10.247   2.243  10.159
 6030W        W 9774   0.917   9.086   0.479
 6031W        W 9775   8.385   8.956   1.492
 6032W        W 9776   3.936   4.518   1.021
 6033W        W 9777   1.151   1.859   3.510
 6034W        W 9778  10.242   3.692   0.507
 6035W        W 9779   6.818   0.797   1.239
 6036W        W 9780   3.008   1.722   0.806
 6037W        W 9781   4.308   8.722   3.316
 6038W        W 9782   3.064   9.227  10.031
 6039W        W 9783   0.056   5.522   8.482
 6040W        W 9784   1.526   3.376  11.849
 6041W        W 9785   7.605   1.255   9.007
 6042W        W 9786   5.227   3.565  10.715
 6043W        W 9787   4.825   3.697  10.993
 6044W        W 9788   1.050   5.863   1.249
 6045W        W 9789   1.924   1.785   3.771
 6046W        W 9790   7.870   5.600   2.629
 6047W        W 9791   1.321   5.999  11.341
 6048W        W 9792   0.604   3.814   3.687
 6049W        W 9793   0.960   3.344   0.712
 6050W        W 9794   5.240   8.414   0.982
 6051W        W 9795   4.407   1.156  11.490
 6052W        W 9796   3.103   3.997   0.785
 6053W        W 9797   2.779   8.917   1.643
 6054W        W 9798   0.378   1.082   0.977
 6055W        W 9799   7.633   6.856   9.987
 6056W        W 9800   6.915   3.766   8.541
 6057W        W 9801   8.319   7.573   3.207
 6058W        W 9802   5.678   9.177   2.619
 6059W        W 9803   1.124   0.035   0.992
 6060W        W 9804   0.050   1.135   1.377
 6061W        W 9805   0.701   5.222  10.420
 6062W        W 9806   6.211   5.602  10.849
 6063W        W 9807   3.147   9.169  10.911
 6064W        W 9808   9.152   6.908  11.241
 6065W        W 9809   9.855  10.461   2.266
 6066W        W 9810   3.165   7.085   8.553
 6067W        W 9811   4.986   6.621   9.438
 6068W        W 9812  10.171   4.096   2.389
 6069W        W 9813   0.078   3.691   1.679
 6070W        W 9814   7.867   7.340   3.216
 6071W        W 9815   1.352   6.455   3.214
 6072W        W 9816   0.891   4.446   0.682
 6073W        W 9817   7.921   2.150   3.325
 6074W        W 9818   7.756   7.916   8.905
 6075W        W 9819   3.601   8.066   1.198
 6076W        W 9820   7.653   5.234   2.342
 6077W        W 9821   6.076   2.300   3.191
 6078W        W 9822   2.441   2.444  10.176
 6079W        W 9823   8.607   7.284   9.978
 6080W        W 9824   4.546   8.046   9.501
 6081W        W 9825   3.634   4.053  11.986
 6082W        W 9826   2.584   2.795  11.128
 6083W        W 9827   3.376   4.159   9.843
 6084W        W 9828   0.404   8.150  11.291
 6085W        W 9829   6.622   4.334   1.442
 6086W        W 9830   3.072   6.772   1.559
 6087W        W 9831   1.187   9.912  10.063
 6088W        W 9832   0.762   1.425   8.541
 6089W        W 9833   1.521  10.233   0.877
 6090W        W 9834   8.921   4.835   1.045
 6091W        W 9835   5.291   4.286   9.873
 6092W        W 9836   4.607   2.260   0.590
 6093W        W 9837   3.129   6.566   3.320
 6094W        W 9838   8.933   2.235   9.598
 6095W        W 9839  10.179   1.713  10.969
 6096W        W 9840   1.237   7.424   3.592
 6097W        W 9841   8.366   4.204  10.489
 6098W        W 9842   0.301   9.978   9.117
 6099W        W 9843   6.200   7.640  10.824
 6100W        W 9844   0.252   7.547   9.101
 6101W        W 9845   6.258   7.808   2.882
 6102W        W 9846   8.831   1.786   0.179
 6103W        W 9847   2.603   5.088   1.015
 6104W        W 9848   8.843   6.251   2.319
 6105W        W 9849   2.722   7.215  11.114
 6106W        W 9850   4.510   0.669   1.442
 6107W        W 9851   1.923   4.655  10.692
 6108W        W 9852   0.771   5.072   3.292
 6109W        W 9853   9.342   4.119   3.385
 6110W        W 9854   0.900   5.658   0.798
 6111W        W 9855   8.611   2.733   2.697
 6112W        W 9856   1.666   6.471   2.003
 6113W        W 9857   3.750   6.592   0.365
 6114W        W 9858   8.864   4.285   3.207
 6115W        W 9859   2.383   3.386   1.308
 6116W        W 9860   7.607   9.593   3.041
 6117W        W 9861   9.668   9.597   3.449
 6118W        W 9862   6.607  10.015   9.762
 6119W        W 9863   3.138   4.159  11.830
 6120W        W 9864   8.875   1.021   1.688
 6121W        W 9865   7.852  10.330   2.272
 6122W        W 9866   6.245   0.302   3.005
 6123W        W 9867   5.964   3.180   3.657
 6124W        W 9868   9.928   0.794   0.487
 6125W        W 9869   3.300   8.856   9.773
 6126W        W 9870   7.582   9.933   2.047
 6127W        W 9871   8.792   2.196   0.968
 6128W        W 9872   0.412   8.460   9.961
 6129W        W 9873   3.196   3.567  11.433
 6130W        W 9874   1.421   4.674  10.616
 6131W        W 9875   3.860   1.848   1.272
 6132W        W 9876   5.880   3.675   3.803
 6133W        W 9877   1.343   5.086   0.234
 6134W        W 9878   1.315   3.284   9.096
 6135W        W 9879   7.632   7.513   0.781
 6136W        W 9880   3.814   4.435   2.263
 6137W        W 9881   6.195   7.681   3.446
 6138W        W 9882   6.583   9.467   0.166
 6139W        W 9883   8.149   0.673  10.202
 6140W        W 9884   4.164   7.663  11.097
 6141W        W 9885   6.655   0.719   1.724
 6142W        W 9886   7.706   8.660   0.093
 6143W        W 9887   7.491   8.392   9.016
 6144W        W 9888   8.452   2.849   3.223
 6145W        W 9889   9.305   5.716  11.156
 6146W        W 9890   3.740   4.367   9.062
 6147W        W 9891   3.364   8.498   2.251
 6148W        W 9892   1.815   8.957   1.745
 6149W        W 9893   9.804   8.975   8.932
 6150W        W 9894   5.609   0.612   0.813
 6151W        W 9895   3.716   8.363   0.769
 6152W        W 9896   8.479   2.374   9.781
 6153W        W 9897   2.323   9.793  11.037
 6154W        W 9898   8.603   1.182  11.412
 6155W        W 9899   4.017   0.753   2.862
 6156W        W 9900   6.943   7.456   0.226
 6157W        W 9901   6.541   8.298  11.852
 6158W        W 9902   4.105   4.170   2.834
 6159W        W 9903   3.312   4.581   2.158
 6160W        W 9904   7.366  10.240   2.417
 6161W        W 9905   6.025   6.689   0.278
 6162W        W 9906   3.377   4.489   9.394
 6163W        W 9907   6.571   1.785   9.162
 6164W        W 9908   5.721   5.950   0.739
 6165W        W 9909   0.290   3.355   2.997
 6166W        W 9910  10.001   1.734   0.944
 6167W        W 9911   8.394   1.416   3.158
 6168W        W 9912   6.728   0.752  10.294
 6169W        W 9913   8.821   9.365   3.501
 6170W        W 9914   4.893   2.677   3.142
 6171W        W 9915   0.600   9.529   0.176
 6172W        W 9916   4.828   2.806   1.425
 6173W        W 9917   7.526   3.738   3.375
 6174W        W 9918   6.082   0.712  11.788
 6175W        W 9919   5.918   9.409   2.221
 6176W        W 9920   8.767   2.274  10.582
 6177W        W 9921   7.602   4.108  10.887
 6178W        W 9922   9.056   8.466  11.350
 6179W        W 9923   7.425   6.135   2.235
 6180W        W 9924   2.578   7.477   1.474
 6181W        W 9925   5.272   6.475   0.660
 6182W        W 9926   1.597   9.890  11.564
 6183W        W 9927   0.879   7.534   9.801
 6184W        W 9928  10.012   5.346   0.043
 6185W        W 9929  10.330   2.327   0.011
 6186W        W 9930   6.845   6.127  10.103
 6187W        W 9931   2.484  10.378   0.739
 6188W        W 9932   3.342   2.839  10.419
 6189W        W 9933   0.349   0.280   1.437
 6190W        W 9934   5.257   6.250  11.525
 6191W        W 9935   1.711   1.633   2.851
 6192W        W 9936   3.219   7.883   9.551
 6193W        W 9937   5.332   6.028   0.371
 6194W        W 9938   1.099   3.156   9.971
 6195W        W 9939   7.345  10.159   0.181
 6196W        W 9940   7.416   0.725   2.509
 6197W        W 9941   3.661  10.423  11.709
 6198W        W 9942   0.387   6.127  10.320
 6199W        W 9943   2.717   0.793  10.548
 6200W        W 9944   4.041   5.079  11.955
 6201W        W 9945   1.169   9.789   3.813
 6202W        W 9946  10.056   8.980   1.408
 6203W        W 9947   5.786   1.564   0.997
 6204W        W 9948   1.480   5.989   0.306
 6205W        W 9949   9.615   8.118  10.284
 6206W        W 9950   4.701   4.103   3.654
 6207W        W 9951   7.292   2.800   9.963
 6208W        W 9952   5.729   7.338  10.875
 6209W        W 9953   1.161   6.121   0.740
 6210W        W 9954   2.740   5.552   3.551
 6211W        W 9955  10.267   4.176   3.425
 6212W        W 9956   2.333   5.238   9.863
 6213W        W 9957   6.755   0.337  10.005
 6214W        W 9958   5.140   3.870  10.257
 6215W        W 9959   3.779   3.746   2.886
 6216W        W 9960   0.322   6.482   2.424
 6217W        W 9961   8.771   1.383   2.033
 6218W        W 9962  10.173   1.590   2.924
 6219W        W 9963   6.978   6.517   2.782
 6220W        W 9964   9.491   1.338   9.038
 6221W        W 9965   3.793   2.672   3.517
 6222W        W 9966   6.479   8.793  11.930
 6223W        W 9967   2.072   1.720   9.596
 6224W        W 9968   3.288   8.587   0.939
 6225W        W 9969  10.424   7.658   1.873
 6226W        W 9970   1.208   2.134   0.361
 6227W        W 9971   6.213   4.181   2.639
 6228W        W 9972   9.600   8.510  11.378
 6229W        W 9973   8.460   2.626  11.444
 6230W        W 9974   9.345   7.398  10.602
 6231W        W 9975   3.665   9.261   3.385
 6232W        W 9976   5.933   8.064   3.214
 6233W        W 9977   3.526   4.868   1.012
 6234W        W 9978   4.303   9.828   9.373
 6235W        W 9979   2.236   3.507   9.315
 6236W        W 9980   7.458   1.896   3.407
 6237W        W 9981   2.344   8.861   9.070
 6238W        W 9982   9.450   1.732  10.020
 6239W        W 9983   5.928   7.373  11.792
 6240W        W 9984   7.885  10.366  11.452
 6241W        W 9985   0.606   8.193   1.988
 6242W        W 9986  10.335   7.764   2.373
 6243W        W 9987   9.009   4.525   0.105
 6244W        W 9988   3.829   6.157   1.772
 6245W        W 9989   0.829   2.629   2.464
 6246W        W 9990  10.349   9.558  10.953
 6247W        W 9991   2.839   1.088   1.777
 6248W        W 9992   9.639   5.972   9.977
 6249W        W 9993   9.449   1.190  11.442
 6250W        W 9994   1.476   5.486   3.472
 6251W        W 9995   1.444   3.208   1.637
 6252W        W 9996   6.041   9.812   2.508
 6253W        W 9997   5.817   8.709   2.712
 6254W        W 9998   7.186   0.844   1.602
 6255W        W 9999   6.917   5.644   9.347
 6256W        W10000   7.594   1.547  10.536
 6257W        W10001   2.095   3.003   2.962
 6258W        W10002   8.862  10.215   2.280
 6259W        W10003   1.006   7.927  10.456
 6260W        W10004   0.416   6.664   9.877
 6261W        W10005   4.079   7.008  10.819
 6262W        W10006  10.000   0.879  11.474
 6263W        W10007   5.188   1.684   9.223
 6264W        W10008   5.059   6.084  10.070
 6265W        W10009   2.817   7.625  10.598
 6266W        W10010   3.466   7.607   8.485
 6267W        W10011   6.453   4.162   3.144
 6268W        W10012   5.930  10.327   2.474
 6269W        W10013  10.248   4.076   9.175
 6270W        W10014   9.765   5.185   2.996
 6271W        W10015   9.891   3.205   1.961
 6272W        W10016   1.781   9.397   9.500
 6273W        W10017   0.399   0.852  11.563
 6274W        W10018  10.234   3.290   2.469
 6275W        W10019   9.302   6.600   3.561
 6276W        W10020   0.001   4.690   9.063
 6277W        W10021   0.810   1.459   9.473
 6278W        W10022   8.082   7.891   1.305
 6279W        W10023   6.286   7.874   1.761
 6280W        W10024   9.244   0.764  10.943
 6281W        W10025   6.522   6.901  10.077
 6282W        W10026   7.135  10.297   3.376
 6283W        W10027   4.309   4.276   2.387
 6284W        W10028   0.896   0.819  10.754
 6285W        W10029   0.906   4.616   3.497
 6286W        W10030   8.491   7.694   2.286
 6287W        W10031   0.461   2.557   0.707
 6288W        W10032   8.577   7.436   1.860
 6289W        W10033   2.232   1.465   2.717
 6290W        W10034   9.561   1.943  10.486
 6291W        W10035   9.090   7.637  11.902
 6292W        W10036   9.380   8.420   1.265
 6293W        W10037   1.317   8.016   1.445
 6294W        W10038   4.419   9.064   2.978
 6295W        W10039   6.736   1.365  11.047
 6296W        W10040   0.414   3.749   2.054
 6297W        W10041   9.377   6.717   8.968
 6298W        W10042  10.444   2.274  11.531
 6299W        W10043   1.619   0.830  11.864
 6300W        W10044   5.212   3.327  10.287
 6301W        W10045   3.784   7.384  11.878
 6302W        W10046  10.486   3.597  10.455
 6303W        W10047   1.926   0.056   0.047
 6304W        W10048   7.416   1.664   0.272
 6305W        W10049   7.418   9.285   0.680
 6306W        W10050  10.467   9.586   9.094
 6307W        W10051   7.821   6.961   2.430
 6308W        W10052   2.639   1.676   3.148
 6309W        W10053   7.037   0.683   2.097
 6310W        W10054  10.236   4.670   9.512
 6311W        W10055   7.952   5.650  11.292
 6312W        W10056   5.689   0.774   2.018
 6313W        W10057  10.052   5.626   8.486
 6314W        W10058   1.733   1.195  10.368
 6315W        W10059   9.432   1.600  11.808
 6316W        W10060   8.162   4.542  11.685
 6317W        W10061   1.606   8.951  10.940
 6318W        W10062   7.353   4.315  10.463
 6319W        W10063  10.489   1.907   0.985
 6320W        W10064   2.348   9.068   9.553
 6321W        W10065   6.782   5.086  10.606
 6322W        W10066   7.430   3.623  10.948
 6323W        W10067   8.905   7.499  11.415
 6324W        W10068   7.859   5.098   9.596
 6325W        W10069   7.427   4.221   2.170
 6326W        W10070   1.922   8.432   0.846
 6327W        W10071   4.562   0.718   9.566
 6328W        W10072   9.957   1.780  11.962
 6329W        W10073   3.691   9.094   9.533
 6330W        W10074   2.205   9.948  10.094
 6331W        W10075   4.824   1.760   2.457
 6332W        W10076   9.042   3.716   0.769
 6333W        W10077   0.427   3.160   1.981
 6334W        W10078  10.463   5.070   0.088
 6335W        W10079   8.888   6.472  11.211
 6336W        W10080   8.876   8.539   8.925
 6337W        W10081   1.469   7.003   2.277
 6338W        W10082   2.616   7.352   8.184
 6339W        W10083   0.285   7.659  11.388
 6340W        W10084   2.229  10.230   0.297
 6341W        W10085   4.080   1.792   1.725
 6342W        W10086   5.655   2.131   2.352
 6343W        W10087   7.586   7.531   9.424
 6344W        W10088   5.094   2.116   8.988
 6345W        W10089   9.035   6.198  11.989
 6346W        W10090   5.319   6.766   3.598
 6347W        W10091   9.315   3.860   9.641
 6348W        W10092   5.357   4.756  10.630
 6349W        W10093   2.193   9.823   1.931
 6350W        W10094   3.463   6.636   1.842
 6351W        W10095   6.641   3.270   9.609
 6352W        W10096   6.020   0.789   9.111
 6353W        W10097   1.645   1.840   3.330
 6354W        W10098   4.316  10.415   8.657
 6355W        W10099   4.607   7.624  11.963
 6356W        W10100   2.249   6.479  11.114
 6357W        W10101   1.016  10.451  11.079
 6358W        W10102   2.196   2.053  11.636
 6359W        W10103   2.368   3.324   1.837
 6360W        W10104   6.491   2.109   3.447
 6361W        W10105   5.097   6.902   1.850
 6362W        W10106   5.447   2.569   0.811
 6363W        W10107   1.877   6.702   8.842
 6364W        W10108   5.593   9.756   0.462
 6365W        W10109   1.879   2.298   1.847
 6366W        W10110   6.493   4.037  11.365
 6367W        W10111   5.052  10.370  10.278
 6368W        W10112   7.999   4.595   3.452
 6369W        W10113   8.532   3.189   8.706
 6370W        W10114   1.312  10.395   8.749
 6371W        W10115  10.414  10.006   9.475
 6372W        W10116   0.796   0.721   2.745
 6373W        W10117   5.927   9.099   1.223
 6374W        W10118   4.297   0.519   0.217
 6375W        W10119   1.060   4.684  10.973
 6376W        W10120   7.570   6.387  10.878
 6377W        W10121   0.452   5.654  10.508
 6378W        W10122   7.649   5.759   3.079
 6379W        W10123   3.979   9.618   2.455
 6380W        W10124   1.817   5.086   0.408
 6381W        W10125   1.571   7.593   9.076
 6382W        W10126   6.173   2.814   1.680
 6383W        W10127   3.183  10.191  10.010
 6384W        W10128   6.617   8.869  10.549
 6385W        W10129   8.910  10.253   3.329
 6386W        W10130   6.263   7.055   2.300
 6387W        W10131   1.398   2.307   3.270
 6388W        W10132   8.770  10.019   9.989
 6389W        W10133   1.589   1.207   0.362
 6390W        W10134   3.638   8.982   0.076
 6391W        W10135   5.934   7.181   8.683
 6392W        W10136   8.310   4.160  11.376
 6393W        W10137   7.579   6.932  10.909
 6394W        W10138   0.005   8.387   9.634
 6395W        W10139   8.282   0.942   2.417
 6396W        W10140   9.780   7.603  11.411
 6397W        W10141  10.262   2.263   9.512
 6398W        W10142   3.998   0.916   8.470
 6399W        W10143   6.575   0.452  11.049
 6400W        W10144   7.588   1.776   8.995
 6401W        W10145   8.479   1.788   9.123
 6402W        W10146   2.687   6.098  11.541
 6403W        W10147   0.873   6.954   3.049
 6404W        W10148  10.233   5.352   2.826
 6405W        W10149   3.591   0.969   9.607
 6406W        W10150   9.906   4.964   1.699
 6407W        W10151   8.125   7.092   9.960
 6408W        W10152   7.259   8.717  11.283
 6409W        W10153   1.897  10.020  11.963
 6410W        W10154   8.159   7.418   8.109
 6411W        W10155   4.617   8.497  10.825
 6412W        W10156   3.050   8.528   1.848
 6413W        W10157   9.781   6.486   2.723
 6414W        W10158   0.820   3.775  10.351
 6415W        W10159   1.342   6.734   1.318
 6416W        W10160   5.216   1.392   0.496
 6417W        W10161  10.398   4.163   0.284
 6418W        W10162   0.724   1.703  11.168
 6419W        W10163   3.661   4.631  10.276
 6420W        W10164   4.391   2.367   9.840
 6421W        W10165   3.944   2.336   3.122
 6422W        W10166   1.171   6.677  10.264
 6423W        W10167   8.792   8.014   8.832
 6424W        W10168   0.660   7.996   9.985
 6425W        W10169   8.449  10.030   9.260
 6426W        W10170   1.303   8.732   0.575
 6427W        W10171   5.493   2.789   8.655
 6428W        W10172   4.382   8.060   1.454
 6429W        W10173   8.265   3.264   2.959
 6430W        W10174  10.362   5.149   1.502
 6431W        W10175   3.562   1.820   1.696
 6432W        W10176   0.917   6.946  11.574
 6433W        W10177   8.324   2.145   0.823
 6434W        W10178   4.612   5.994  10.945
 6435W        W10179   8.287   8.877  11.395
 6436W        W10180   1.860   9.900   2.646
 6437W        W10181   7.185   1.363  10.804
 6438W        W10182   4.598   9.613   1.842
 6439W        W10183   7.653   0.055   2.720
 6440W        W10184   6.939   6.299   0.489
 6441W        W10185   2.978   6.413   0.228
 6442W        W10186   5.119   7.158   3.326
 6443W        W10187   4.259  10.328  10.944
 6444W        W10188   0.718  10.453   2.371
 6445W        W10189   5.350   8.808   2.893
 6446W        W10190   6.072   4.191   8.366
 6447W        W10191   3.360   0.528   9.071
 6448W        W10192   0.859   4.341   1.190
 6449W        W10193   1.678   1.352  11.866
 6450W        W10194   0.526   6.652  11.435
 6451W        W10195   0.473   2.433   9.536
 6452W        W10196   8.134  10.041  11.750
 6453W        W10197   5.126   2.852  10.429
 6454W        W10198  10.473   3.801  10.962
 6455W        W10199   8.045   1.946   1.392
 6456W        W10200   6.725   2.710  10.853
 6457W        W10201   2.290   8.057   0.902
 6458W        W10202   3.172   6.617  10.801
 6459W        W10203   1.864   9.031  11.394
 6460W        W10204   6.692   9.831  10.927
 6461W        W10205   4.235   2.007  11.591
 6462W        W10206   1.640   7.020   0.497
 6463W        W10207   8.955   3.131  11.544
 6464W        W10208   1.349   0.243   1.458
 6465W        W10209   4.663   3.554   3.945
 6466W        W10210   2.310   8.761  11.353
 6467W        W10211   2.797   2.366   1.920
 6468W        W10212   1.410   5.693   0.949
 6469W        W10213   9.136   4.192   9.987
 6470W        W10214   9.833   2.383   9.287
 6471W        W10215   0.553   2.754  10.518
 6472W        W10216   0.867   2.186   2.718
 6473W        W10217   0.931   5.710   2.227
 6474W        W10218   4.850   8.656   1.202
 6475W        W10219   7.558   0.490   1.773
 6476W        W10220   2.160   6.030   0.856
 6477W        W10221   9.350   6.891   9.481
 6478W        W10222   7.060   9.744   9.499
 6479W        W10223   3.282   5.741   1.288
 6480W        W10224   8.445   4.126   1.878
 6481W        W10225   2.285   0.956   9.153
 6482W        W10226   2.403   4.536  10.824
 6483W        W10227   1.793   9.506  11.870
 6484W        W10228   4.354   8.443   8.562
 6485W        W10229   6.041   2.560   2.730
 6486W        W10230   7.252   0.417  10.942
 6487W        W10231   0.174  10.258   1.405
 6488W        W10232   0.270  10.206   2.216
 6489W        W10233   1.337   4.754   0.661
 6490W        W10234   8.070   9.753   1.865
 6491W        W10235   8.884   3.003   1.937
 6492W        W10236   7.438   9.488   1.160
 6493W        W10237   6.275   9.616   9.550
 6494W        W10238   3.591   9.367   9.951
 6495W        W10239   1.682   2.446   1.349
 6496W        W10240   7.363   7.116   9.635
 6497W        W10241   4.268   7.471   9.473
 6498W        W10242   1.906   7.249   2.412
 6499W        W10243   6.388   7.393   0.865
 6500W        W10244   1.386   9.375   8.727
 6501W        W10245   4.620   4.126   1.727
 6502W        W10246   6.657   9.508   9.873
 6503W        W10247   0.515   5.552   3.361
 6504W        W10248   2.286  10.319  11.771
 6505W        W10249   6.028   1.373   1.440
 6506W        W10250   6.202   5.202   0.518
 6507W        W10251   5.285   6.106   8.236
 6508W        W10252   0.897   3.878  11.262
 6509W        W10253   3.073   7.574   1.390
 6510W        W10254   7.526   5.275  11.915
 6511W        W10255   5.721   1.288  11.271
 6512W        W10256   7.823   2.252   1.833
 6513W        W10257   4.506   7.700   3.214
 6514W        W10258   3.802   4.537  10.775
 6515W        W10259   9.551   5.658  10.627
 6516W        W10260   5.979   2.135   1.816
 6517W        W10261   2.148   7.513   9.068
 6518W        W10262   0.183   7.349   1.525
 6519W        W10263   1.983   6.047   0.353
 6520W        W10264   5.662   4.357  10.515
 6521W        W10265   2.220   8.180   3.092
 6522W        W10266   7.453   1.419   2.175
 6523W        W10267   2.391   3.262   8.881
 6524W        W10268   6.423   5.697   1.390
 6525W        W10269   5.114   9.957   0.441
 6526W        W10270   4.643   2.338   2.360
 6527W        W10271  10.051   9.557   0.700
 6528W        W10272   4.155   7.712   2.350
 6529W        W10273   8.978   6.731   9.796
 6530W        W10274   7.873   8.455  10.398
 6531W        W10275   8.145   3.653   1.917
 6532W        W10276   8.349   5.251  11.377
 6533W        W10277   3.295   2.278   1.811
 6534W        W10278   0.347   9.472  11.733
 6535W        W10279   5.966   3.298   0.425
 6536W        W10280   3.824   6.568   1.455
 6537W        W10281   5.605   7.543   2.377
 6538W        W10282   7.466   6.052   0.328
 6539W        W10283   6.569   9.851  10.279
 6540W        W10284   7.381   0.657   0.313
 6541W        W10285   0.835   7.326   1.742
 6542W        W10286   5.073   3.744   3.680
 6543W        W10287   0.999   9.455   0.886
 6544W        W10288   5.048   5.135   2.422
 6545W        W10289   5.154   6.531   3.147
 6546W        W10290   4.757   6.254  11.389
 6547W        W10291   9.153   7.446   3.891
 6548W        W10292  10.315   4.123  11.732
 6549W        W10293   3.580   2.702   9.004
 6550W        W10294   2.108   5.124   0.832
 6551W        W10295   7.056   0.680   3.492
 6552W        W10296   1.803   9.979   3.156
 6553W        W10297   6.699   1.718  11.455
 6554W        W10298   1.118   5.146  10.776
 6555W        W10299   9.942   0.798   2.713
 6556W        W10300   0.670   9.316   3.220
 6557W        W10301   6.097   9.152  10.496
 6558W        W10302   7.414   1.168   0.343
 6559W        W10303   9.914   2.670   1.314
 6560W        W10304   9.749   4.276   2.654
 6561W        W10305   9.075   6.534   1.650
 6562W        W10306   8.839   3.107   2.946
 6563W        W10307   3.719   2.286   9.253
 6564W        W10308   1.282   6.262   9.966
 6565W        W10309   0.312  10.048   2.714
 6566W        W10310   8.963   0.724   8.537
 6567W        W10311   8.485   3.184  11.397
 6568W        W10312  10.368   0.404  10.465
 6569W        W10313   5.081   5.099   2.934
 6570W        W10314   6.489   0.806   9.858
 6571W        W10315   9.397   9.012   9.229
 6572W        W10316   8.944   5.525  10.240
 6573W        W10317  10.485   7.159  11.739
 6574W        W10318   3.853   1.885   2.185
 6575W        W10319   4.409   8.222   3.176
 6576W        W10320   7.969   8.380   1.210
 6577W        W10321   5.579   2.758   2.929
 6578W        W10322   5.201   3.999  11.245
 6579W        W10323   7.995   7.876   0.348
 6580W        W10324   7.167   9.670  11.026
 6581W        W10325   7.607   4.939   2.754
 6582W        W10326   5.701  10.415   9.437
 6583W        W10327   0.032   7.662   1.110
 6584W        W10328   6.204   1.577  11.495
 6585W        W10329   0.480   9.278   9.662
 6586W        W10330   0.480  10.403   1.783
 6587W        W10331   5.647   2.297   3.459
 6588W        W10332   8.369   4.931   3.477
 6589W        W10333   0.861   4.836   1.000
 6590W        W10334   4.588   1.331   3.142
 6591W        W10335   5.542   0.849   8.976
 6592W        W10336   5.103   7.584   4.008
 6593W        W10337   6.136   1.937   2.277
 6594W        W10338   2.241   2.416   2.838
 6595W        W10339   5.282   1.881   3.385
 6596W        W10340   8.648   6.951   0.215
 6597W        W10341   9.382   0.499   2.734
 6598W        W10342   9.394   3.086  11.782
 6599W        W10343   0.893   4.167   8.434
 6600W        W10344   4.781   5.593   0.809
 6601W        W10345   2.313   7.956   9.313
 6602W        W10346   5.028   5.606   2.173
 6603W        W10347  10.026   7.894  11.735
 6604W        W10348  10.266   8.665   8.730
 6605W        W10349   6.709   8.060   0.980
 6606W        W10350   1.287   9.467   9.762
 6607W        W10351   0.660   4.317  10.343
 6608W        W10352   5.649   3.113   4.086
 6609W        W10353   1.481   6.314  10.470
 6610W        W10354   8.166   4.161   8.211
 6611W        W10355   6.917   4.797  11.373
 6612W        W10356   0.097   8.789   1.194
 6613W        W10357   7.692   4.096   8.854
 6614W        W10358   9.043   5.262   1.483
 6615W        W10359   0.904   9.330   8.928
 6616W        W10360   6.966   8.884   2.355
 6617W        W10361   3.077   3.708   8.782
 6618W        W10362   4.117   2.627  10.162
 6619W        W10363   4.344   1.912   2.348
 6620W        W10364   0.274   9.087   2.954
 6621W        W10365   1.846   4.173  11.262
 6622W        W10366   9.292   7.041   0.958
 6623W        W10367   6.119   0.412   1.987
 6624W        W10368   7.464   3.778   1.201
 6625W        W10369   0.771   8.126   1.526
 6626W        W10370   5.573   3.868  10.514
 6627W        W10371  10.289   8.680   9.250
 6628W        W10372   8.105  10.293   2.715
 6629W        W10373   2.312   5.279   9.088
 6630W        W10374   8.559   6.118  11.820
 6631W        W10375   4.776   7.919   1.833
 6632W        W10376   2.388   4.985   8.622
 6633W        W10377   0.316   2.129  10.310
 6634W        W10378   6.424   6.532   9.381
 6635W        W10379   6.102  10.187  10.402
 6636W        W10380   8.915   0.371   9.644
 6637W        W10381   1.882   7.833   3.255
 6638W        W10382   2.592   6.052   2.389
 6639W        W10383   5.219   2.907   1.109
 6640W        W10384   2.802   1.497  11.194
 6641W        W10385   3.518   1.015  10.971
 6642W        W10386   5.523   3.837   3.456
 6643W        W10387  10.061   3.407  11.783
 6644W        W10388   3.069   8.981   1.237
 6645W        W10389   1.692   8.039  10.981
 6646W        W10390   8.767   5.982  10.453
 6647W        W10391   7.986   5.906   9.973
 6648W        W10392   3.537   1.889  11.052
 6649W        W10393   5.292   9.042   3.386
 6650W        W10394   9.340   9.865  11.637
 6651W        W10395   4.978   9.715   9.499
 6652W        W10396   3.377   5.944  11.357
 6653W        W10397   8.512   0.995   9.998
 6654W        W10398   5.251   2.623  10.926
 6655W        W10399   7.960   9.868   1.333
 6656W        W10400   4.887   7.787   2.760
 6657W        W10401   1.421   1.340  10.791
 6658W        W10402   4.243   8.738   2.223
 6659W        W10403   6.531   2.733   0.407
 6660W        W10404   2.247   5.615  10.959
 6661W        W10405   5.990   5.168  10.642
 6662W        W10406   1.448   9.733   0.838
 6663W        W10407   7.376   2.841   3.236
 6664W        W10408   1.904   5.392   1.234
 6665W        W10409   4.585   9.468  11.447
 6666W        W10410  10.086  10.484  10.988
 6667W        W10411   7.408   0.346  11.801
 6668W        W10412   3.668   5.862  10.951
 6669W        W10413   0.775   0.831   1.777
 6670W        W10414   3.968   1.792   2.689
 6671W        W10415  10.072   3.638   9.394
 6672W        W10416   9.445   6.008  11.766
 6673W        W10417   4.012   0.105   0.365
 6674W        W10418   7.975   9.207   1.817
 6675W        W10419   7.493   3.555  11.474
 6676W        W10420   6.202   4.693   2.579
 6677W        W10421  10.207   7.432   1.437
 6678W        W10422   8.021   1.307  10.618
 6679W        W10423   6.721   3.882   2.813
 6680W        W10424   2.611   9.945  10.494
 6681W        W10425   9.428   2.045   9.614
 6682W        W10426   0.201   0.650   1.851
 6683W        W10427   8.929   6.062   1.839
 6684W        W10428   4.615   5.957   9.846
 6685W        W10429   7.039   6.037   2.622
 6686W        W10430   1.445   6.270   9.487
 6687W        W10431   2.811   1.878   2.157
 6688W        W10432   7.313   2.330  10.273
 6689W        W10433   3.336   6.310  10.417
 6690W        W10434   0.813   4.092  10.770
 6691W        W10435   9.640   5.898   9.079
 6692W        W10436   8.551   6.584   2.843
 6693W        W10437   2.129   0.473   1.821
 6694W        W10438   9.410  10.276   1.658
 6695W        W10439   9.806   8.157   1.211
 6696W        W10440   6.348   9.110   9.640
 6697W        W10441   3.187   8.787   8.747
 6698W        W10442   1.758   2.657   2.736
 6699W        W10443   9.340   8.483   0.762
 6700W        W10444   4.321   0.289   3.233
 6701W        W10445   2.199   5.240   2.399
 6702W        W10446   1.770   0.712   9.824
 6703W        W10447   3.073   2.268  11.618
 6704W        W10448   2.574   4.011   8.492
 6705W        W10449   8.007   9.589  11.929
 6706W        W10450   5.059   0.797  10.400
 6707W        W10451   9.290   3.018   2.270
 6708W        W10452   1.439   8.436   9.763
 6709W        W10453   2.683   4.158   1.010
 6710W        W10454  10.397   1.301   9.483
 6711W        W10455   7.173   0.263   2.669
 6712W        W10456   1.372   6.975  11.217
 6713W        W10457   5.905   5.714   1.967
 6714W        W10458   2.713   7.020   1.317
 6715W        W10459   2.186   1.450  10.458
 6716W        W10460   4.948   4.587  11.971
 6717W        W10461   4.256   3.294   9.492
 6718W        W10462   8.058   0.171  10.059
 6719W        W10463   8.966   8.386   1.556
 6720W        W10464   6.663   2.748   1.466
 6721W        W10465   4.378   8.762   0.350
 6722W        W10466   2.411   8.974   2.506
 6723W        W10467   1.254   0.902   1.601
 6724W        W10468   7.134   5.698  11.114
 6725W        W10469   8.375   2.367   3.011
 6726W        W10470  10.176  10.442   9.273
 6727W        W10471   1.171   9.531   2.641
 6728W        W10472   2.632   2.859   9.908
 6729W        W10473   3.353   7.613  10.787
 6730W        W10474   0.997   1.069   9.747
 6731W        W10475   3.881   8.715   0.427
 6732W        W10476   6.084  10.186  11.832
 6733W        W10477   5.209   9.045   2.460
 6734W        W10478   5.177   2.374   2.235
 6735W        W10479   7.078   6.182   1.825
 6736W        W10480   1.430   0.224   3.272
 6737W        W10481   4.973   7.633   3.504
 6738W        W10482   5.205   5.680   9.823
 6739W        W10483   7.643   3.287   3.609
 6740W        W10484  10.185   0.342   2.166
 6741W        W10485   6.538   9.250   1.551
 6742W        W10486   5.099   9.985   9.953
 6743W        W10487   3.784   0.514   1.506
 6744W        W10488   5.727   5.042   0.003
 6745W        W10489   4.185   1.907   9.751
 6746W        W10490   8.057   5.235   0.687
 6747W        W10491   2.168   4.286   8.966
 6748W        W10492   7.045   3.308   9.906
 6749W        W10493   7.097   0.600   9.136
 6750W        W10494   5.670   7.344  10.078
 6751W        W10495   5.927   0.887  10.995
 6752W        W10496   4.972   7.070   8.539
 6753W        W10497   1.867   0.435   3.541
 6754W        W10498   5.518   6.000  11.893
 6755W        W10499   7.471   5.946   9.890
 6756W        W10500   9.233   4.153   9.073
 6757W        W10501   4.805   2.749   3.635
 6758W        W10502   5.145   5.169   3.443
 6759W        W10503   3.442   3.314   0.337
 6760W        W10504   0.886   4.575   9.959
 6761W        W10505   2.843   6.198  10.014
 6762W        W10506   8.296   5.067  10.528
 6763W        W10507   2.339   9.457   1.111
 6764W        W10508   6.232   0.844   3.150
 6765W        W10509   7.976   4.055   1.640
 6766W        W10510   1.750   7.385   3.531
 6767W        W10511   8.901   8.995   9.152
 6768W        W10512   5.162   4.012   1.905
 6769W        W10513  10.245   0.034  11.854
 6770W        W10514   7.936   6.104   0.509
 6771W        W10515   1.856   4.627   1.905
 6772W        W10516   9.928   8.588   2.026
 6773W        W10517   0.595   5.509   9.294
 6774W        W10518   4.031   2.768  11.005
 6775W        W10519   4.729   1.555   9.413
 6776W        W10520   8.747   0.027  10.031
 6777W        W10521   1.305   5.939   9.086
 6778W        W10522   0.415   3.978  11.458
 6779W        W10523   1.300   7.504   1.672
 6780W        W10524   8.001   2.777   9.235
 6781W        W10525   4.940   1.003  10.852
 6782W        W10526   4.085  10.408  10.445
 6783W        W10527   2.677   2.908   1.744
 6784W        W10528   3.225   3.636   9.288
 6785W        W10529   3.694   3.086   2.714
 6786W        W10530   6.613   7.991  10.763
 6787W        W10531   0.290   5.022   2.348
 6788W        W10532   7.022   6.438   2.275
 6789W        W10533   8.303   8.421  10.092
 6790W        W10534   0.417   3.728   9.044
 6791W        W10535   9.693   2.322  10.811
 6792W        W10536   2.224   2.938  10.206
 6793W        W10537   0.730   4.875  11.319
 6794W        W10538   2.278   1.953   2.614
 6795W        W10539   0.993   5.442   2.684
 6796W        W10540   3.618   5.324   1.269
 6797W        W10541   5.623   0.437   8.662
 6798W        W10542   5.626   0.378  10.170
 6799W        W10543   5.542   8.006   0.772
 6800W        W10544   5.235   0.768   1.158
 6801W        W10545   1.312   4.616   1.162
 6802W        W10546   1.420   6.606   0.824
 6803W        W10547   5.612   8.577   9.148
 6804W        W10548   4.284   2.214   2.759
 6805W        W10549   9.586   5.118  11.838
 6806W        W10550   0.717   0.329   0.992
 6807W        W10551   9.460   1.399   0.625
 6808W        W10552   6.442   3.689   9.407
 6809W        W10553   5.040   8.174   2.372
 6810W        W10554   9.461   1.400   3.072
 6811W        W10555   3.292   7.395   0.715
 6812W        W10556   7.965   3.794   8.532
 6813W        W10557   5.781   1.783   3.547
 6814W        W10558   8.471   0.842  10.545
 6815W        W10559   0.191   2.044   9.355
 6816W        W10560   3.817   7.618   8.903
 6817W        W10561   0.980   6.596  11.213
 6818W        W10562   6.393   8.762   1.676
 6819W        W10563   7.144   8.196  11.052
 6820W        W10564   0.356   9.764   9.601
 6821W        W10565   8.352   4.599   9.878
 6822W        W10566   2.112  10.376   2.689
 6823W        W10567   5.551   1.668  10.018
 6824W        W10568   0.399  10.448   3.145
 6825W        W10569   5.072   7.471   0.066
 6826W        W10570   2.661  10.356   9.484
 6827W        W10571   3.739   7.147   0.327
 6828W        W10572   4.032   5.687   1.366
 6829W        W10573   4.062   5.788   0.544
 6830W        W10574   1.413   0.445   8.656
 6831W        W10575   4.740   8.590   3.039
 6832W        W10576   9.030   5.376   2.343
 6833W        W10577   4.740   6.466   9.926
 6834W        W10578   8.474   9.822   1.498
 6835W        W10579   1.406   4.676   2.680
 6836W        W10580   1.699   5.506  10.181
 6837W        W10581   6.358   4.645   1.009
 6838W        W10582   3.021   7.685   8.149
 6839W        W10583   7.359   6.178   1.279
 6840W        W10584   6.899   1.306   9.373
 6841W        W10585   0.874   8.820  11.388
 6842W        W10586   3.058   0.296  11.323
 6843W        W10587   5.102   5.224  10.601
 6844W        W10588   3.477   0.005   2.359
 6845W        W10589   3.721  10.403   1.219
 6846W        W10590   8.994   2.728   9.755
 6847W        W10591   7.063   9.424   0.350
 6848W        W10592   7.657   8.375   1.911
 6849W        W10593   2.827   6.424   0.714
 6850W        W10594   5.736   0.928   3.506
 6851W        W10595   3.129   5.522   9.244
 6852W        W10596   6.197   3.466  10.347
 6853W        W10597   2.128   6.306   2.321
 6854W        W10598   6.482   9.723   0.606
 6855W        W10599   1.932   3.585   3.239
 6856W        W10600   2.673  10.001   0.401
 6857W        W10601   1.774   0.910  10.819
 6858W        W10602   4.197   1.454   1.317
 6859W        W10603   3.490   9.042  11.612
 6860W        W10604   1.067   2.735  10.696
 6861W        W10605   0.750   5.977   9.042
 6862W        W10606   0.554   8.706   0.448
 6863W        W10607   7.732   7.872   1.874
 6864W        W10608   8.927   9.320   2.979
 6865W        W10609   6.315   7.557   2.161
 6866W        W10610   0.417   6.393   1.332
 6867W        W10611   9.791   4.943   0.281
 6868W        W10612  10.264  10.068  10.392
 6869W        W10613   6.493   3.197   0.040
 6870W        W10614   0.694   1.291   2.347
 6871W        W10615   6.939   2.202   2.711
 6872W        W10616   6.732   5.217   2.169
 6873W        W10617   7.961   8.382   8.762
 6874W        W10618   3.269   4.469   0.821
 6875W        W10619   0.805   6.355   0.258
 6876W        W10620   1.506   2.443   0.609
 6877W        W10621   7.033   4.712   8.644
 6878W        W10622   6.834   7.082  10.430
 6879W        W10623   1.424   6.421   8.981
 6880W        W10624   2.322   8.966   1.998
 6881W        W10625   9.817   4.251   1.240
 6882W        W10626   9.554   8.478   9.939
 6883W        W10627   8.833   0.409  11.113
 6884W        W10628   2.100   6.890  10.513
 6885W        W10629   3.855   5.720  11.426
 6886W        W10630   1.989   7.629  10.892
 6887W        W10631   9.865   8.362   0.735
 6888W        W10632   4.499   4.527   1.992
 6889W        W10633   4.913  10.431   2.496
 6890W        W10634   9.722   7.930   9.812
 6891W        W10635   7.700   1.335  11.948
 6892W        W10636   7.567   9.126  10.243
 6893W        W10637  10.391   2.500   1.442
 6894W        W10638   0.488   0.713  10.457
 6895W        W10639   2.122   6.487   0.136
 6896W        W10640   4.144   9.788   1.995
 6897W        W10641   7.996   8.850  10.103
 6898W        W10642   2.241   6.907  11.492
 6899W        W10643   7.082   4.488   2.428
 6900W        W10644   4.643   4.095   2.735
 6901W        W10645   8.929   0.298   2.852
 6902W        W10646   9.040   1.841   1.198
 6903W        W10647   9.436   2.753  10.906
 6904W        W10648   0.342   7.137  11.383
 6905W        W10649   6.992   3.623   1.074
 6906W        W10650   2.987   0.308   8.747
 6907W        W10651   9.862   9.970   2.388
 6908W        W10652   9.593   8.160   9.352
 6909W        W10653   5.034   4.123   1.438
 6910W        W10654   9.722   9.222   0.865
 6911W        W10655   6.516   1.237   0.395
 6912W        W10656   1.407   7.364   0.149
 6913W        W10657  10.119   9.059   2.184
 6914W        W10658  10.419   6.945   1.704
 6915W        W10659   2.512   0.505   8.964
 6916W        W10660   0.435   1.217   1.857
 6917W        W10661   3.334   7.573  11.763
 6918W        W10662   8.763   0.840   2.303
 6919W        W10663   4.083   4.542   3.205
 6920W        W10664   8.936   1.027   3.546
 6921W        W10665   2.798   5.541   1.251
 6922W        W10666   8.484   6.197  10.824
 6923W        W10667   9.438   7.509   1.753
 6924W        W10668   1.703   5.073  10.451
 6925W        W10669   5.551   2.264  11.702
 6926W        W10670   2.712  10.427  10.022
 6927W        W10671   9.052   9.029   9.648
 6928W        W10672   7.227   4.074   3.771
 6929W        W10673   3.895   1.069  11.357
 6930W        W10674   2.615   1.646  10.717
 6931W        W10675   0.670   5.811   2.889
 6932W        W10676   7.604   9.129   1.500
 6933W        W10677   6.019   9.886   8.604
 6934W        W10678   6.788   6.145   3.084
 6935W        W10679   6.387   2.324   9.351
 6936W        W10680   6.333   4.355  10.028
 6937W        W10681   7.163   0.922  10.503
 6938W        W10682   7.891   0.855  11.216
 6939W        W10683   3.129   3.235   1.178
 6940W        W10684   8.382   1.398   1.656
 6941W        W10685   9.111   0.786  11.936
 6942W        W10686   7.897   1.224   0.993
 6943W        W10687   5.296   5.627   0.683
 6944W        W10688   4.547   5.139   0.612
 6945W        W10689   9.689   3.206  10.648
 6946W        W10690   3.870   4.893   1.376
 6947W        W10691   8.820   0.409  11.622
 6948W        W10692   2.616   2.484   1.283
 6949W        W10693   9.422  10.014   1.196
 6950W        W10694   5.240   7.002   0.006
 6951W        W10695   5.834   6.788   3.705
 6952W        W10696   9.428   2.960   9.921
 6953W        W10697   9.036   4.057  11.885
 6954W        W10698   6.909   2.421   0.765
 6955W        W10699   4.868   2.103   1.935
 6956W        W10700   2.477   8.329   8.278
 6957W        W10701   9.977   6.856  10.936
 6958W        W10702   1.737   7.663   1.504
 6959W        W10703   2.837   9.927  10.945
 6960W        W10704   1.104   7.190   1.334
 6961W        W10705   1.940   7.445   0.458
 6962W        W10706  10.171   3.177  10.359
 6963W        W10707   4.585   1.652  11.525
 6964W        W10708   3.546   6.357  11.043
 6965W        W10709   7.227   6.575   8.879
 6966W        W10710   2.352   8.727   0.403
 6967W        W10711   0.292   9.710   2.302
 6968W        W10712   2.333   7.507   0.792
 6969W        W10713   0.187   2.691  11.807
 6970W        W10714   6.048   8.207  11.990
 6971W        W10715   9.324   1.743  11.328
 6972W        W10716   5.017   0.512  10.970
 6973W        W10717   9.770   6.888   8.626
 6974W        W10718   1.708   7.843   0.276
 6975W        W10719   7.974   9.840   2.383
 6976W        W10720   4.781   1.590   8.368
 6977W        W10721  10.015   1.429   1.725
 6978W        W10722   6.423   8.007   9.803
 6979W        W10723  10.446   5.651  10.461
 6980W        W10724   7.086   9.925   1.265
 6981W        W10725   3.054   4.609   9.019
 6982W        W10726   5.317   2.864   2.075
 6983W        W10727   1.201   8.003   0.870
 6984W        W10728   8.996   3.957   2.868
 6985W        W10729   1.264   1.933  11.331
 6986W        W10730   7.105   1.147   2.445
 6987W        W10731   6.021   1.588   2.750
 6988W        W10732   5.758   9.055   3.110
 6989W        W10733   0.493   3.082   0.733
 6990W        W10734   8.611   2.267   1.578
 6991W        W10735   4.362   1.190  11.994
 6992W        W10736   8.967   7.027   8.963
 6993W        W10737   5.188   3.072   3.037
 6994W        W10738   5.811   1.395  11.770
 6995W        W10739   3.245   6.647   1.059
 6996W        W10740   0.459   7.542  10.090
 6997W        W10741   8.939   7.820   1.221
 6998W        W10742   0.566   0.860   3.204
 6999W        W10743   7.085   1.756   2.470
 7000W        W10744   0.179   9.924  11.404
 7001W        W10745   0.781   4.159   0.217
 7002W        W10746  10.454   2.939   2.142
 7003W        W10747   8.057   3.742  10.302
 7004W        W10748   7.083  10.385  10.458
 7005W        W10749   7.952   5.656  10.733
 7006W        W10750   7.673   3.596   0.349
 7007W        W10751   9.821   7.864   0.710
 7008W        W10752   3.275   9.282   0.292
 7009W        W10753   0.017   3.228  11.849
 7010W        W10754   9.504  10.016   0.288
 7011W        W10755   3.159   4.604   8.172
 7012W        W10756   3.421   4.472   3.151
 7013W        W10757   1.011   3.808   2.778
 7014W        W10758   9.167  10.339   9.784
 7015W        W10759   2.627   6.527   1.661
 7016W        W10760   1.420   9.792   1.376
 7017W        W10761   4.264   0.473   2.258
 7018W        W10762   9.992   6.692   1.430
 7019W        W10763   4.933   7.138   3.794
 7020W        W10764   3.844   9.035  11.225
 7021W        W10765   4.606   0.893   2.247
 7022W        W10766   0.663   9.999   9.987
 7023W        W10767   3.156   7.142  10.796
 7024W        W10768   5.767   4.662  10.928
 7025W        W10769   7.325   0.857   1.113
 7026W        W10770   4.693   6.465   0.813
 7027W        W10771   5.428   5.419   0.213
 7028W        W10772  10.327   0.823  10.200
 7029W        W10773   6.975  10.254   9.480
 7030W        W10774   3.802   1.437  10.889
 7031W        W10775   9.886   4.078   0.396
 7032W        W10776   2.828   6.674   9.814
 7033W        W10777   2.367   8.535  10.887
 7034W        W10778   9.797   3.598   0.771
 7035W        W10779   5.196   9.822   2.959
 7036W        W10780   9.202   7.418   3.395
 7037W        W10781   4.716   3.617   2.957
 7038W        W10782   9.838   6.365  10.936
 7039W        W10783   2.734   1.687   2.625
 7040W        W10784   0.351   3.583  10.088
 7041W        W10785   7.556   4.429   2.652
 7042W        W10786   2.188   2.880   2.007
 7043W        W10787   1.573   3.662   1.379
 7044W        W10788   8.973   8.363  10.835
 7045W        W10789   1.781   3.145  10.458
 7046W        W10790   7.216   3.335   3.291
 7047W        W10791   1.873   8.851   9.564
 7048W        W10792   7.356   4.540  11.529
 7049W        W10793   2.206   5.551   1.900
 7050W        W10794   8.091   1.577  11.050
 7051W        W10795   2.650   4.667  10.039
 7052W        W10796   2.936  10.217   1.706
 7053W        W10797   8.964   1.798   9.855
 7054W        W10798   6.090   3.323   9.427
 7055W        W10799  10.054   0.378   8.984
 7056W        W10800   6.176   0.635   3.601
 7057W        W10801  10.320   1.360  10.464
 7058W        W10802   3.583   9.933  11.537
 7059W        W10803   5.010   9.969  11.210
 7060W        W10804   7.573   5.040   1.856
 7061W        W10805   8.683   3.710   9.066
 7062W        W10806   6.255   0.903  10.438
 7063W        W10807   2.511   4.011   9.416
 7064W        W10808   8.516   3.357  11.996
 7065W        W10809   3.801   0.307   3.055
 7066W        W10810   9.738   0.345  10.800
 7067W        W10811   6.931   5.975  10.642
 7068W        W10812   0.901   3.829   1.880
 7069W        W10813   8.133   4.627  10.335
 7070W        W10814   1.301   3.794   2.350
 7071W        W10815   7.077   8.338   9.746
 7072W        W10816  10.047   1.810  10.454
 7073W        W10817  10.269   5.995   1.763
 7074W        W10818   5.886   0.681   2.788
 7075W        W10819   0.931   8.940   3.477
 7076W        W10820   4.090   4.098  10.783
 7077W        W10821   4.719   8.650   1.698
 7078W        W10822  10.407   3.661   3.363
 7079W        W10823   1.660   1.939   1.462
 7080W        W10824   6.624   6.219   4.044
 7081W        W10825   8.615   1.719   0.892
 7082W        W10826   0.171   0.893   0.568
 7083W        W10827   1.012   4.690   0.259
 7084W        W10828   0.155   2.160   2.310
 7085W        W10829   1.794   7.138  10.915
 7086W        W10830   8.934   7.472  10.335
 7087W        W10831   8.554   2.128  11.488
 7088W        W10832   6.545   0.979  11.949
 7089W        W10833   9.687   8.962  11.105
 7090W        W10834   2.788   9.557  11.674
 7091W        W10835   7.801   6.585   0.649
 7092W        W10836   8.493   3.705  11.550
 7093W        W10837   0.363   5.025   1.351
 7094W        W10838   3.683   4.113  11.075
 7095W        W10839   6.200   7.117  10.928
 7096W        W10840   0.819   2.213   1.746
 7097W        W10841   2.378   3.789   1.641
 7098W        W10842   0.591   1.918   3.454
 7099W        W10843   8.391   7.415  11.431
 7100W        W10844   7.596   3.752   2.053
 7101W        W10845   6.608   1.228  11.514
 7102W        W10846   2.796   7.338   2.893
 7103W        W10847   0.599   4.585  10.771
 7104W        W10848   0.803   0.928   8.723
 7105W        W10849   6.251   4.955   0.052
 7106W        W10850   3.968   2.100   0.010
 7107W        W10851   3.004  10.344   3.253
 7108W        W10852   5.818   0.471   3.242
 7109W        W10853   2.169   8.698   8.498
 7110W        W10854   1.476   1.251   3.189
 7111W        W10855   0.163   8.955  10.911
 7112W        W10856   1.095   0.919   3.128
 7113W        W10857   3.281   4.148   8.988
 7114W        W10858   8.588   1.355   0.363
 7115W        W10859   6.612   6.523   0.882
 7116W        W10860   7.383   2.268  10.885
 7117W        W10861   3.411  10.297   1.861
 7118W        W10862   9.343   1.821   0.257
 7119W        W10863   6.274   7.869   0.782
 7120W        W10864   2.701   0.546   0.203
 7121W        W10865   5.763   4.925   0.497
 7122W        W10866   6.413   8.967  11.011
 7123W        W10867   6.259   0.328   9.946
 7124W        W10868   3.134   9.305  11.394
 7125W        W10869   6.536  10.376   9.136
 7126W        W10870   6.850   4.337  10.089
 7127W        W10871   9.966   2.142   8.849
 7128W        W10872   7.571   2.207   9.300
 7129W        W10873   1.280   8.008   9.035
 7130W        W10874   8.606   1.287   8.939
 7131W        W10875   7.894   3.853   9.262
 7132W        W10876   4.293   1.812   9.250
 7133W        W10877  10.407   4.850   3.629
 7134W        W10878   9.986   1.844   2.491
 7135W        W10879   2.561   9.005   1.158
 7136W        W10880   3.701   7.591  10.280
 7137W        W10881   8.419   3.717   9.944
 7138W        W10882   2.856   2.401   9.851
 7139W        W10883  10.317   1.632   8.602
 7140W        W10884   6.574   1.948   2.023
 7141W        W10885   4.094   7.811   0.321
 7142W        W10886   0.812   3.251   8.980
 7143W        W10887   3.587   5.519   9.880
 7144W        W10888   1.776  10.408   9.503
 7145W        W10889   9.927   0.161   0.848
 7146W        W10890   5.991   0.833   8.618
 7147W        W10891   7.270   7.753  11.965
 7148W        W10892   6.752   2.697   2.309
 7149W        W10893   3.667   0.838  10.518
 7150W        W10894   2.307   8.109   3.573
 7151W        W10895   8.325   3.655   9.437
 7152W        W10896   7.909   3.231   2.112
 7153W        W10897   0.943   3.210   1.840
 7154W        W10898   7.417   8.623  10.517
 7155W        W10899   0.822   0.628   9.576
 7156W        W10900   9.084   1.940  10.331
 7157W        W10901   9.106   9.282   1.376
 7158W        W10902   4.321   2.885  10.537
 7159W        W10903   8.674   1.268   1.240
 7160W        W10904   6.968   2.687   3.510
 7161W        W10905   4.137   6.122   9.642
 7162W        W10906   2.306  10.314  11.261
 7163W        W10907   2.933   3.266   9.941
 7164W        W10908   9.027   1.266  11.730
 7165W        W10909   1.858   0.181  10.532
 7166W        W10910   1.085   2.706   3.357
 7167W        W10911   9.549   2.615  11.974
 7168W        W10912   7.140   4.185   2.852
 7169W        W10913   0.680   6.048  10.727
 7170W        W10914   6.533   1.934  11.918
 7171W        W10915   2.692   4.112  10.858
 7172W        W10916   8.285   6.980   2.622
 7173W        W10917   0.932   8.502   0.922
 7174W        W10918   1.400   0.265   9.536
 7175W        W10919   1.549   5.056   9.339
 7176W        W10920   4.071   4.311   0.559
 7177W        W10921   4.178   8.353   3.630
 7178W        W10922   6.454   6.080   9.755
 7179W        W10923   8.103   2.107   9.993
 7180W        W10924   3.234   8.939   2.461
 7181W        W10925   8.101   0.139   3.439
 7182W        W10926   3.115   3.724  10.034
 7183W        W10927   4.023  10.206  11.406
 7184W        W10928   1.175   5.913   2.846
 7185W        W10929   0.949   1.296   1.907
 7186W        W10930   8.810   8.550   9.446
 7187W        W10931   4.339   6.595   2.874
 7188W        W10932   7.557   6.040   8.870
 7189W        W10933   0.693   1.962   9.376
 7190W        W10934   3.774   0.968   1.745
 7191W        W10935   7.017   0.156   2.173
 7192W        W10936   5.831   2.896   2.074
 7193W        W10937   9.833   8.844   0.068
 7194W        W10938   1.815  10.169  10.496
 7195W        W10939   3.096   2.275   2.360
 7196W        W10940   0.671   1.368   0.046
 7197W        W10941   2.196   2.401   0.629
 7198W        W10942   7.467   4.136   9.330
 7199W        W10943   3.330   0.740  11.367
 7200W        W10944   2.648  10.384   2.637
 7201W        W10945   0.001   5.576   9.008
 7202W        W10946   4.965   1.709   2.977
 7203W        W10947   3.938   4.468   0.094
 7204W        W10948   9.324   4.536   2.373
 7205W        W10949   9.233  10.129  10.385
 7206W        W10950   9.358   0.909   0.406
 7207W        W10951   1.234   2.751   9.289
 7208W        W10952   2.601   4.215   1.906
 7209W        W10953   3.101   5.533   9.745
 7210W        W10954   2.858   9.000   9.513
 7211W        W10955   5.530   6.037  10.757
 7212W        W10956   7.733   7.828   9.821
 7213W        W10957   3.078   2.711   8.857
 7214W        W10958   5.057  10.387   8.731
 7215W        W10959   6.507  10.465   0.018
 7216W        W10960   3.822   3.166   9.761
 7217W        W10961   7.819   6.466   0.157
 7218W        W10962   6.013   2.188   8.493
 7219W        W10963   3.201   3.206  11.055
 7220W        W10964   4.743  10.146   9.364
 7221W        W10965   4.124   7.052   9.773
 7222W        W10966  10.308   9.935   2.735
 7223W        W10967   4.090   2.635   1.869
 7224W        W10968   0.500   0.857   2.211
 7225W        W10969   1.369   1.441   0.741
 7226W        W10970   2.033   1.777   1.776
 7227W        W10971   3.725  10.072   2.198
 7228W        W10972   5.638   4.871  11.407
 7229W        W10973   9.843   7.725   2.272
 7230ION    NA+10974   7.937   6.904   9.064
 7231ION    NA+10975   8.847  10.444  11.965
 7232ION    NA+10976   0.294   6.708   3.641
 7233ION    NA+10977   6.668   1.833   3.014
 7234ION    NA+10978  10.496   3.690  11.514
 7235ION    NA+10979   1.366   8.709   3.004
 7236ION    NA+10980   9.974   6.491   0.957
 7237ION    NA+10981   4.880   0.349   9.415
 7238ION    NA+10982   2.979   4.755   0.164
 7239ION    NA+10983   0.098   0.469   9.017
 7240ION    NA+10984   7.301   4.678   8.182
 7241ION    NA+10985   0.193   9.068   9.271
 7242ION    NA+10986   5.265   7.109  11.048
 7243ION    NA+10987   5.225   3.079   9.024
 7244ION    NA+10988   6.370   8.894  10.116
 7245ION    NA+10989   1.438   6.748   9.800
 7246ION    NA+10990   4.064   1.983  11.067
 7247ION    NA+10991   1.588   0.269   0.953
 7248ION    NA+10992   2.742   0.369  10.836
 7249ION    NA+10993   2.335   2.514   1.703
 7250ION    NA+10994   9.423   0.151   2.041
 7251ION    NA+10995   0.459   7.735   1.352
 7252ION    NA+10996   7.657   0.991   3.888
 7253ION    NA+10997   7.922   3.765   9.769
 7254ION    NA+10998   0.174   5.395  10.845
 7255ION    NA+10999   3.802   4.781  11.220
 7256ION    NA+11000   7.051   1.984   0.522
 7257ION    NA+11001   3.621   9.266   2.441
 7258ION    NA+11002   6.621   3.542   1.890
 7259ION    NA+11003   3.257   6.582   9.446
 7260ION    NA+11004   1.634   4.979   1.357
 7261ION    NA+11005  10.393  10.409   3.012
 7262ION    NA+11006   2.693   1.975  11.122
 7263ION    NA+11007   7.067  10.047   9.038
 7264ION    NA+11008   9.362   3.279   0.780
 7265ION    NA+11009   1.708   1.808  11.075
 7266ION    NA+11010   1.732   2.985   9.177
 7267ION    NA+11011   4.538   6.798   9.595
 7268ION    NA+11012   1.786   7.161  11.533
 7269ION    NA+11013   3.882   0.868   0.266
 7270ION    NA+11014   0.316   9.148   0.319
 7271ION    NA+11015   9.398   1.461  10.451
 7272ION    NA+11016   7.587   2.110  11.367
 7273ION    NA+11017   9.585   5.191   3.477
 7274ION    NA+11018   4.529   5.166   0.076
 7275ION    NA+11019   0.909   5.428   0.116
 7276ION    NA+11020  10.102   9.608   9.548
 7277ION    NA+11021   3.342   6.678   2.594
 7278ION    NA+11022   2.750   9.321   1.933
 7279ION    NA+11023   5.923   9.130  10.979
 7280ION    NA+11024   4.934   3.284   8.090
 7281ION    NA+11025   5.364   4.847   1.643
 7282ION    NA+11026   9.657   3.728  11.124
 7283ION    NA+11027   0.261   5.154   1.842
 7284ION    NA+11028   1.141  10.095  11.614
 7285ION    NA+11029   1.711   0.401  10.976
 7286ION    NA+11030   4.103   8.135   1.022
 7287ION    NA+11031   5.115   2.413   1.178
 7288ION    NA+11032   1.092   9.009  11.827
 7289ION    NA+11033   0.228   8.080   2.757
 7290ION    NA+11034   6.301   9.607   1.853
 7291ION    NA+11035   4.918   4.723   0.939
 7292ION    NA+11036   0.664   0.736   0.720
 7293ION    NA+11037   1.396   9.694   3.326
 7294ION    NA+11038   3.816   0.903  10.045
 7295ION    NA+11039   1.925   7.680   9.958
 7296ION    NA+11040   5.260   5.578  11.743
 7297ION    NA+11041   3.921   0.069   9.457
 7298ION    NA+11042   2.813   0.209   0.559
 7299ION    NA+11043   7.880   0.687   2.198
 7300ION    NA+11044   2.008   0.557   0.036
 7301ION    NA+11045   4.767   3.659   1.932
 7302ION    NA+11046   1.018   8.196  11.890
 7303ION    NA+11047   6.795   7.591   0.701
 7304ION    NA+11048   2.764   7.972   2.329
 7305ION    NA+11049   4.364   8.622   9.922
 7306ION    CL-11050   5.108   4.959   1.283
 7307ION    CL-11051   4.864   5.386  11.856
 7308ION    CL-11052   9.008   2.818  10.247
 7309ION    CL-11053   8.560   1.378   9.445
 7310ION    CL-11054  10.377   3.235   1.746
 7311ION    CL-11055   5.450   6.941   1.501
 7312ION    CL-11056   1.653  10.004   8.606
 7313ION    CL-11057   8.535   8.805   9.802
 7314ION    CL-11058   9.254   0.213  10.892
 7315ION    CL-11059   3.245   2.763   3.434
 7316ION    CL-11060   1.990   8.052   9.709
 7317ION    CL-11061   2.796   3.626   1.094
 7318ION    CL-11062   7.455  10.025   9.274
 7319ION    CL-11063   0.613   7.322   1.260
 7320ION    CL-11064   2.673   1.849  11.550
 7321ION    CL-11065   1.179   8.568  11.689
 7322ION    CL-11066   1.334   2.931  11.726
 7323ION    CL-11067   3.736   8.897   2.218
 7324ION    CL-11068   4.688   0.489   1.927
 7325ION    CL-11069   9.021   2.595   8.808
 7326ION    CL-11070   2.871   0.565   2.007
 7327ION    CL-11071   4.055   0.930   1.290
 7328ION    CL-11072   6.789   9.017  10.026
 7329ION    CL-11073   8.549   9.100   0.513
 7330ION    CL-11074   9.412   4.341   9.538
 7331ION    CL-11075   6.747   9.557   1.921
 7332ION    CL-11076   9.334   3.501  10.901
 7333ION    CL-11077   7.858   8.908  10.618
 7334ION    CL-11078   2.911   4.520   3.235
 7335ION    CL-11079   2.713   1.238   1.286
 7336ION    CL-11080   0.655   9.034   0.006
 7337ION    CL-11081   0.171   8.948   0.709
 7338ION    CL-11082   2.095   3.804   0.403
 7339ION    CL-11083   1.574   2.941   8.751
 7340ION    CL-11084   4.439  10.003  11.965
 7341ION    CL-11085   1.268   8.656   2.560
 7342ION    CL-11086   2.447   7.691   2.464
 7343ION    CL-11087   5.108   9.218   9.498
 7344ION    CL-11088   4.749   9.920  10.304
 7345ION    CL-11089   8.317   5.253   8.794
 7346ION    CL-11090   6.550   1.431   3.184
 7347ION    CL-11091  10.075   3.725  11.342
 7348ION    CL-11092   9.886   8.053   1.837
 7349ION    CL-11093   6.811   7.169   0.929
 7350ION    CL-11094   2.261   1.871   0.523
 7351ION    CL-11095   5.069   2.900   9.402
 7352ION    CL-11096  10.479   9.362   9.542
 7353ION    CL-11097   4.169   3.658   3.672
 7354ION    CL-11098   5.866   7.826   1.133
 7355ION    CL-11099   2.545   4.681   0.231
 7356ION    CL-11100   3.145   5.174   8.860
 7357ION    CL-11101   4.846   4.558  10.705
 7358ION    CL-11102   7.158   8.357   1.767
 7359ION    CL-11103   4.022   2.358  11.306
 7360ION    CL-11104   1.204   9.136  10.142
 7361ION    CL-11105   6.809   9.891   8.688
 7362ION    CL-11106   7.984   4.498   1.365
 7363ION    CL-11107   0.291   9.870   0.416
 7364ION    CL-11108   2.582   6.454  11.921
 7365ION    CL-11109   7.944   6.181   9.510
 7366ION    CL-11110   1.383   8.646   3.475
 7367ION    CL-11111   9.336   5.009   8.719
 7368ION    CL-11112   0.608   5.319  10.923
 7369ION    CL-11113   5.165   3.445   4.096
 7370ION    CL-11114   6.930   7.931   0.423
 7371ION    CL-11115   5.856   9.655   1.783
 7372ION    CL-11116   4.003   5.059  10.936
 7373ION    CL-11117   3.482   6.865   2.975
 7374ION    CL-11118   0.616   1.125   0.509
 7375ION    CL-11119   8.472   8.212  10.992
 7376ION    CL-11120   8.926   6.941  10.787
 7377ION    CL-11121   8.488  10.060   3.077
 7378ION    CL-11122   4.206   2.294   9.385
 7379ION    CL-11123   2.947   0.788   8.923
 7380ION    CL-11124   2.238   2.894   1.487
 7381ION    CL-11125   1.261   9.797  11.930
  10.50000  10.50000  12.00000
