Protein in INSANE! Membrane UpperLeaflet>POPC=1.0 LowerLeaflet>POPC=1.0
12676
    1AU     AUC    1   7.885   2.695   7.054  0.0679 -0.0630  0.0864
    1AU     AUC    2   8.153   2.815   7.128 -0.0343 -0.0867  0.0035
    1AU     AUC    3   7.994   2.634   7.335  0.0604 -0.1116 -0.0520
    1AU     AUC    4   7.796   2.782   6.765  0.0524 -0.0103  0.0049
    1AU     AUC    5   7.623   2.596   6.961 -0.0356  0.0419 -0.0167
    1AU     AUC    6   7.646   2.894   7.034 -0.0059 -0.0248 -0.0120
    1AU     AUC    7   7.896   2.916   7.249  0.0571 -0.0112 -0.0674
    1AU     AUC    8   7.928   2.475   6.868  0.0283 -0.0872 -0.0729
    1AU     AUC    9   8.113   2.500   7.074 -0.0123 -0.0334 -0.0116
    1AU     AUC   10   7.809   2.423   7.167  0.0215  0.0110  0.0056
    1AU     AUC   11   7.692   2.699   7.268 -0.0249  0.1198  0.0093
    1AU     AUC   12   8.105   2.723   6.841 -0.0797 -0.0111  0.0008
    1AU     AUC   13   7.945   2.981   6.935 -0.0329 -0.0305 -0.0389
    1AU     AUC   14   8.402   2.943   7.218  0.0070  0.0400 -0.0378
    1AU     AUC   15   8.255   2.752   7.417  0.0242 -0.0028  0.0086
    1AU     AUC   16   8.091   2.578   7.600 -0.0038 -0.0729  0.0224
    1AU     AUC   17   7.705   2.811   6.498 -0.0486  0.0008 -0.0502
    1AU     AUC   18   7.538   2.630   6.667 -0.0154  0.0444  0.0377
    1AU     AUC   19   7.367   2.464   6.864  0.0068 -0.0718 -0.0257
    1AU     AUC   20   7.431   3.059   7.042 -0.0065 -0.0624  0.1188
    1AU     AUC   21   7.647   3.118   7.244  0.0310  0.0043  0.0153
    1AU     AUC   22   7.891   3.158   7.455 -0.0030 -0.0529  0.0675
    1AU     AUC   23   7.917   2.251   6.672  0.0495  0.0493 -0.0579
    1AU     AUC   24   8.134   2.287   6.857  0.0205  0.0277  0.0093
    1AU     AUC   25   8.348   2.310   7.097 -0.1008  0.0466 -0.0351
    1AU     AUC   26   7.748   2.150   7.258 -0.0581 -0.0172 -0.0360
    1AU     AUC   27   7.609   2.398   7.389 -0.0636 -0.0081  0.0272
    1AU     AUC   28   7.493   2.655   7.495  0.0187 -0.0285 -0.0532
    1AU     AUC   29   8.305   2.739   6.612 -0.1228  0.0243 -0.0736
    1AU     AUC   30   8.135   3.003   6.712  0.0501 -0.0252  0.0208
    1AU     AUC   31   7.983   3.254   6.823 -0.0468 -0.0872 -0.1161
    1AU     AUC   32   7.926   2.368   7.451 -0.0191  0.0557  0.0388
    1AU     AUC   33   7.771   2.598   7.556  0.0075  0.0421 -0.0380
    1AU     AUC   34   8.369   2.836   6.913 -0.0265 -0.0584 -0.0670
    1AU     AUC   35   8.247   3.072   7.023  0.1024 -0.0301 -0.0480
    1AU     AUC   36   7.549   2.293   7.076 -0.0556  0.0206  0.0837
    1AU     AUC   37   7.407   2.565   7.192 -0.1101  0.0246 -0.0444
    1AU     AUC   38   8.006   2.784   6.539  0.1085  0.0988 -0.0770
    1AU     AUC   39   7.819   3.059   6.678  0.0692  0.0314  0.0489
    1AU     AUC   40   8.160   3.054   7.311 -0.0838 -0.0227 -0.0312
    1AU     AUC   41   8.017   2.872   7.525  0.0155 -0.1189  0.0058
    1AU     AUC   42   7.556   2.921   6.749 -0.0562 -0.0173  0.0881
    1AU     AUC   43   7.390   2.780   6.939  0.0063  0.0293  0.0559
    1AU     AUC   44   8.398   2.616   7.164  0.0189 -0.0202  0.0945
    1AU     AUC   45   8.207   2.425   7.358 -0.0528  0.0615 -0.0586
    1AU     AUC   46   7.813   2.547   6.557  0.0013 -0.0695 -0.0678
    1AU     AUC   47   7.647   2.349   6.778  0.0477 -0.0344  0.0288
    1AU     AUC   48   7.451   2.866   7.242  0.0228 -0.0266 -0.0649
    1AU     AUC   49   7.696   2.925   7.482 -0.0023 -0.1171 -0.0101
    1AU     AUC   50   7.854   2.178   6.944 -0.0141  0.0655 -0.0430
    1AU     AUC   51   8.040   2.228   7.192  0.0650 -0.1489  0.0529
    1AU     AUC   52   7.718   3.189   6.934 -0.0165  0.0277 -0.1112
    1AU     AUC   53   7.948   3.220   7.128 -0.0384 -0.0444 -0.0445
    1AU     AUC   54   8.114   2.507   6.649  0.0627 -0.0659 -0.0182
    1AU     AUC   55   8.349   2.522   6.874 -0.0324 -0.0780  0.0207
    1AU    AUSL   56   7.854   2.361   7.651  0.0514 -0.0524  0.1479
    1AU    AUSL   57   7.953   1.987   7.510 -0.0476 -0.0518 -0.0431
    1AU     AUL   58   7.944   1.921   7.884 -0.0381 -0.0003  0.0056
    1AU       S   59   8.261   1.648   7.667  0.0079  0.0758 -0.0524
    1AU     LIG   60   8.048   1.380   7.887  0.3262 -0.1675  0.0750
    1AU     LIG   61   7.939   1.011   7.812  0.2651 -0.2024 -0.0390
    1AU     LIG   62   7.969   0.603   7.719  0.1950 -0.3451  0.1639
    1AU     LIG   63   7.810   0.304   7.475 -0.0781 -0.0657 -0.0358
    1AU     LIG   64   7.751  -0.043   7.134 -0.2826 -0.1230 -0.1565
    1AU     LIG   65   7.341  -0.141   7.072  0.1502 -0.0846  0.2739
    1AU       S   66   7.509   2.091   8.067 -0.2537  0.2155 -0.0873
    1AU     LIG   67   7.463   1.668   8.221 -0.0182  0.2421  0.0005
    1AU     LIG   68   7.375   1.344   8.079 -0.1003 -0.4077  0.1297
    1AU     LIG   69   7.251   0.914   8.096  0.0195  0.1521 -0.1393
    1AU     LIG   70   7.246   0.430   8.304  0.2658 -0.2684  0.1676
    1AU     LIG   71   7.178   0.139   8.555  0.3362  0.4869  0.1105
    1AU     LIG   72   7.510  -0.016   8.879  0.2506  0.0416 -0.2768
    1AU    AUSL   73   7.558   2.083   7.594 -0.0861  0.0593 -0.0383
    1AU    AUSL   74   7.241   2.353   7.527 -0.0582 -0.0666 -0.0541
    1AU     AUL   75   7.115   2.187   7.809 -0.0346  0.0060  0.0893
    1AU       S   76   7.526   2.001   7.761 -0.0929  0.3458 -0.3783
    1AU     LIG   77   7.526   1.618   7.675 -0.1449  0.2087  0.3569
    1AU     LIG   78   7.430   1.180   7.635 -0.2461  0.2142  0.0853
    1AU     LIG   79   7.491   0.800   7.635 -0.2112  0.1777  0.5786
    1AU     LIG   80   7.436   0.346   7.740  0.1794  0.0810  0.0569
    1AU     LIG   81   7.346  -0.035   7.572 -0.1611 -0.3478  0.1113
    1AU     LIG   82   7.050  -0.303   7.499 -0.0387 -0.0295 -0.0883
    1AU       S   83   7.143   1.940   7.436  0.2858  0.0281  0.0526
    1AU     LIG   84   7.028   1.706   7.883 -0.2333  0.3213 -0.2021
    1AU     LIG   85   6.973   1.220   7.841  0.2908 -0.0128 -0.0798
    1AU     LIG   86   6.848   0.918   7.580 -0.0665  0.3243  0.3519
    1AU     LIG   87   6.573   0.588   7.452 -0.1432 -0.0739  0.4450
    1AU     LIG   88   6.227   0.495   7.037  0.4102 -0.0944 -0.2385
    1AU     LIG   89   6.174   0.634   6.592  0.1828 -0.2222  0.4604
    1AU    AUSL   90   7.504   2.485   7.809 -0.0267 -0.0896  0.0423
    1AU    AUSL   91   7.948   2.648   7.921 -0.0213  0.0149 -0.0682
    1AU     AUL   92   7.867   2.367   7.972 -0.0372  0.0424 -0.0171
    1AU       S   93   7.415   2.448   8.003  0.5940  0.1758  0.1059
    1AU     LIG   94   7.186   2.311   8.311  0.3325  0.0017 -0.1558
    1AU     LIG   95   6.906   1.909   8.374 -0.1113 -0.1289  0.2710
    1AU     LIG   96   6.978   1.534   8.331 -0.0844  0.2699  0.0281
    1AU     LIG   97   6.743   1.135   8.283  0.2142 -0.2322  0.2145
    1AU     LIG   98   6.829   0.696   8.191 -0.1447 -0.1425  0.0832
    1AU     LIG   99   6.958   0.459   7.857 -0.2093 -0.2730 -0.4098
    1AU       S  100   7.888   2.768   8.261 -0.2337  0.0575  0.0895
    1AU     LIG  101   8.271   2.469   8.308  0.1054  0.0135  0.2087
    1AU     LIG  102   8.683   2.492   8.272  0.1073 -0.1522 -0.0497
    1AU     LIG  103   9.096   2.538   8.144  0.0092 -0.0805 -0.3172
    1AU     LIG  104   9.464   2.775   8.014  0.0477 -0.3492 -0.3090
    1AU     LIG  105   9.805   2.959   7.986  0.2425 -0.1418 -0.2663
    1AU     LIG  106  10.113   3.301   7.935  0.0149 -0.1150 -0.5701
    1AU    AUSL  107   8.604   3.120   6.924 -0.0297  0.1043 -0.0419
    1AU    AUSL  108   8.297   3.470   6.969 -0.0314 -0.0281  0.0110
    1AU     AUL  109   8.700   3.472   6.871 -0.0956 -0.0347  0.0792
    1AU       S  110   8.920   3.195   6.486 -0.3189 -0.0092  0.2867
    1AU     LIG  111   9.305   3.250   6.534 -0.0670 -0.0807  0.1258
    1AU     LIG  112   9.533   3.668   6.517  0.2759  0.4976 -0.1492
    1AU     LIG  113   9.676   4.200   6.534  0.1192  0.1618 -0.2986
    1AU     LIG  114   9.629   4.666   6.501 -0.0504 -0.4539  0.0040
    1AU     LIG  115   9.515   5.113   6.602 -0.3203  0.0582 -0.4400
    1AU     LIG  116   9.575   5.466   6.426  0.1784 -0.1101 -0.1904
    1AU       S  117   8.568   3.750   7.219 -0.2255 -0.5096 -0.0762
    1AU     LIG  118   8.560   3.883   6.756  0.1272  0.3630  0.2930
    1AU     LIG  119   8.835   4.089   6.552  0.2350 -0.0100 -0.2930
    1AU     LIG  120   9.088   4.362   6.497 -0.0889  0.3480 -0.2189
    1AU     LIG  121   9.133   4.735   6.656 -0.0022 -0.6643  0.1043
    1AU     LIG  122   8.976   5.034   6.843 -0.0246 -0.7247 -0.0686
    1AU     LIG  123   8.855   5.562   6.962  0.1127 -0.1106 -0.1563
    1AU    AUSL  124   8.543   2.953   6.538 -0.0622  0.0798  0.0757
    1AU    AUSL  125   8.753   2.818   7.153 -0.1107  0.0197  0.0647
    1AU     AUL  126   8.889   2.945   6.873 -0.0172  0.0292  0.0564
    1AU       S  127   9.200   2.684   7.168 -0.0732  0.1052  0.0156
    1AU     LIG  128   9.652   2.801   7.057 -0.2992 -0.0855  0.2883
    1AU     LIG  129  10.009   2.756   7.193 -0.4695  0.1279 -0.2810
    1AU     LIG  130  10.478   2.616   7.118 -0.0683  0.2103 -0.5117
    1AU     LIG  131  10.930   2.759   7.396  0.0085 -0.2538 -0.0534
    1AU     LIG  132  11.047   2.622   7.812 -0.5560 -0.2196  0.0921
    1AU     LIG  133  11.454   2.375   7.739 -0.1505 -0.5019 -0.1749
    1AU       S  134   8.834   2.933   6.403 -0.0133 -0.1963 -0.0347
    1AU     LIG  135   9.120   2.979   6.029 -0.1036 -0.3874 -0.3602
    1AU     LIG  136   9.563   3.074   6.091 -0.0012 -0.7266 -0.2144
    1AU     LIG  137   9.867   3.328   6.385  0.2862  0.0722 -0.1703
    1AU     LIG  138  10.048   3.615   6.615 -0.0655  0.0410 -0.1050
    1AU     LIG  139  10.125   4.068   6.746 -0.0968 -0.1671  0.0723
    1AU     LIG  140  10.204   4.519   6.706  0.3962  0.4958  0.0485
    1AU    AUSL  141   8.220   3.130   6.798 -0.0485  0.1685  0.0387
    1AU    AUSL  142   8.155   2.988   6.414 -0.1247  0.0132  0.0942
    1AU     AUL  143   8.437   3.302   6.475 -0.0673  0.0100  0.1281
    1AU       S  144   8.185   3.437   6.118  0.0157 -0.1036 -0.0642
    1AU     LIG  145   8.536   3.804   6.244 -0.1096 -0.2100  0.5403
    1AU     LIG  146   8.902   3.622   6.426 -0.0684 -0.1779  0.3223
    1AU     LIG  147   9.064   3.751   6.844 -0.1343 -0.5175  0.0550
    1AU     LIG  148   9.328   4.086   6.895 -0.0668  0.1568 -0.0916
    1AU     LIG  149   9.710   4.383   7.013 -0.0709  0.0223  0.0602
    1AU     LIG  150   9.917   4.850   6.982 -0.1186 -0.0415 -0.0260
    1AU       S  151   8.688   2.935   6.430 -0.2950 -0.3417 -0.1496
    1AU     LIG  152   8.653   2.728   6.045 -0.1487 -0.1429  0.1281
    1AU     LIG  153   8.944   2.561   5.670  0.3367 -0.1303  0.1154
    1AU     LIG  154   9.403   2.786   5.582  0.1475 -0.2481 -0.0700
    1AU     LIG  155   9.704   2.903   5.628  0.0476 -0.2088  0.2757
    1AU     LIG  156  10.131   2.876   5.614 -0.0593  0.2253  0.1133
    1AU     LIG  157  10.580   2.819   5.775  0.1009  0.3084  0.1652
    1AU    AUSL  158   7.221   2.286   7.120 -0.0417  0.0100  0.0138
    1AU    AUSL  159   7.325   2.684   7.292  0.0216 -0.0466  0.0524
    1AU     AUL  160   7.019   2.431   7.384  0.0726 -0.0256  0.0062
    1AU       S  161   6.884   1.983   7.387 -0.2301 -0.0624  0.5092
    1AU     LIG  162   6.723   1.566   7.518  0.2726  0.4345 -0.1996
    1AU     LIG  163   6.478   1.219   7.709  0.3543 -0.0217 -0.1803
    1AU     LIG  164   6.463   0.808   7.900  0.0736  0.1796 -0.2092
    1AU     LIG  165   6.420   0.384   7.847 -0.1498 -0.2980  0.2321
    1AU     LIG  166   6.334  -0.006   8.000  0.0162 -0.2139 -0.0150
    1AU     LIG  167   6.169  -0.205   8.304  0.1699  0.0307  0.0256
    1AU       S  168   6.742   2.776   7.241 -0.1680  0.4595 -0.0004
    1AU     LIG  169   6.354   2.670   7.056 -0.1134 -0.1908  0.2299
    1AU     LIG  170   5.974   2.638   7.065 -0.0655 -0.0357  0.1373
    1AU     LIG  171   5.515   2.777   7.070  0.0668 -0.3366  0.1049
    1AU     LIG  172   5.252   2.597   7.108  0.3048 -0.4416 -0.0089
    1AU     LIG  173   5.116   2.791   7.505  0.0950 -0.0548  0.3054
    1AU     LIG  174   5.282   3.130   7.770  0.0933  0.3878 -0.2573
    1AU    AUSL  175   7.595   2.276   7.253  0.0654 -0.0995 -0.0659
    1AU    AUSL  176   7.275   2.140   6.735  0.0114  0.0436  0.0178
    1AU     AUL  177   7.135   2.122   7.020 -0.0058 -0.0440 -0.0476
    1AU       S  178   7.137   1.721   6.702 -0.1867 -0.3372  0.0120
    1AU     LIG  179   6.843   1.679   6.978  0.1760  0.0187  0.0097
    1AU     LIG  180   6.432   1.453   7.115 -0.3218  0.3923 -0.1218
    1AU     LIG  181   6.250   1.133   7.328 -0.0445  0.0229  0.3196
    1AU     LIG  182   6.112   0.716   7.454 -0.1711 -0.2224 -0.2176
    1AU     LIG  183   5.964   0.341   7.515 -0.2295  0.0460 -0.0227
    1AU     LIG  184   6.063  -0.138   7.604  0.1655  0.1878 -0.2407
    1AU       S  185   7.189   1.856   7.427  0.0386  0.1022  0.4097
    1AU     LIG  186   7.124   1.435   7.279 -0.0647 -0.0989  0.1838
    1AU     LIG  187   6.845   1.158   7.085 -0.1135  0.0997 -0.0852
    1AU     LIG  188   6.505   0.995   6.900 -0.0616  0.0113  0.2439
    1AU     LIG  189   6.063   1.116   6.830  0.2121  0.2034  0.4948
    1AU     LIG  190   5.693   1.223   7.106  0.1532  0.3697 -0.0037
    1AU     LIG  191   5.271   1.295   7.164 -0.1833  0.0312 -0.0047
    1AU    AUSL  192   7.795   3.084   6.253  0.0354  0.0121  0.0179
    1AU    AUSL  193   8.245   2.618   6.293  0.0251  0.0239 -0.0197
    1AU     AUL  194   8.210   2.976   6.109 -0.0109 -0.0128 -0.0760
    1AU       S  195   8.006   3.372   6.064 -0.2277  0.0923 -0.0798
    1AU     LIG  196   7.807   3.765   5.989 -0.0227 -0.2697  0.1033
    1AU     LIG  197   7.399   3.949   6.056 -0.1821  0.0348  0.2987
    1AU     LIG  198   7.266   4.260   6.322  0.2776 -0.0134  0.0726
    1AU     LIG  199   7.363   4.716   6.572 -0.4459 -0.0237  0.0817
    1AU     LIG  200   7.713   5.027   6.678 -0.0712  0.0246 -0.2531
    1AU     LIG  201   7.871   5.322   6.888  0.2313  0.2693  0.0939
    1AU       S  202   8.239   2.607   5.834 -0.1735  0.0748 -0.0269
    1AU     LIG  203   8.615   2.281   5.928  0.4010 -0.1959 -0.2061
    1AU     LIG  204   9.040   2.089   5.878  0.1979 -0.2306  0.3191
    1AU     LIG  205   9.457   2.052   6.127  0.2081  0.0686 -0.0603
    1AU     LIG  206   9.830   2.078   6.151  0.0344 -0.1555 -0.2125
    1AU     LIG  207  10.199   2.217   6.386  0.2928  0.0139 -0.1664
    1AU     LIG  208  10.622   2.047   6.547 -0.2556 -0.3154  0.0576
    1AU    AUSL  209   7.994   3.346   6.537 -0.0668  0.0094  0.0002
    1AU    AUSL  210   7.643   3.063   6.615  0.0682 -0.0298 -0.0267
    1AU     AUL  211   7.614   3.275   6.248  0.0050 -0.0324 -0.1165
    1AU       S  212   7.268   3.623   6.446  0.0558  0.2968  0.3374
    1AU     LIG  213   6.867   3.881   6.335  0.1763  0.0257  0.0604
    1AU     LIG  214   6.632   4.075   6.653 -0.1119  0.0512 -0.2290
    1AU     LIG  215   6.174   4.132   6.870 -0.2068 -0.0179 -0.4747
    1AU     LIG  216   6.096   4.452   7.094 -0.0856 -0.2296 -0.0642
    1AU     LIG  217   6.241   4.660   7.465  0.1564  0.1489  0.2597
    1AU     LIG  218   6.343   4.855   7.861 -0.1568 -0.1436 -0.1247
    1AU       S  219   8.013   3.511   6.352  0.1319  0.5251  0.4218
    1AU     LIG  220   8.022   3.846   6.586  0.1294 -0.1749  0.0546
    1AU     LIG  221   8.302   4.286   6.573  0.1562  0.2730 -0.1822
    1AU     LIG  222   8.607   4.595   6.775 -0.1327  0.0147 -0.1541
    1AU     LIG  223   8.569   4.805   7.124 -0.3497  0.0081  0.2073
    1AU     LIG  224   8.880   5.174   7.324 -0.2085  0.1552  0.0709
    1AU     LIG  225   9.167   5.341   7.576 -0.2476  0.0101 -0.0865
    1AU    AUSL  226   8.182   3.235   7.659 -0.0269 -0.0235  0.0288
    1AU    AUSL  227   8.450   3.259   7.297 -0.0277  0.0061  0.0408
    1AU     AUL  228   8.200   3.537   7.641 -0.1069  0.1247 -0.0125
    1AU       S  229   8.671   3.523   7.360  0.1235 -0.5099 -0.1774
    1AU     LIG  230   9.067   3.680   7.363 -0.0051 -0.1672 -0.2009
    1AU     LIG  231   9.424   3.587   7.279 -0.1982 -0.2916  0.0607
    1AU     LIG  232   9.696   3.720   7.055  0.1913 -0.0997 -0.0397
    1AU     LIG  233  10.129   3.598   7.184 -0.2546  0.0721 -0.0250
    1AU     LIG  234  10.568   3.568   7.058 -0.0761  0.2235 -0.0406
    1AU     LIG  235  11.038   3.419   7.071 -0.0405  0.1658  0.1039
    1AU       S  236   8.496   3.307   7.931 -0.0532  0.3226 -0.4568
    1AU     LIG  237   8.639   3.732   7.809 -0.5568  0.1589 -0.1226
    1AU     LIG  238   8.782   4.111   7.613 -0.2365 -0.0612 -0.1684
    1AU     LIG  239   9.249   4.191   7.398 -0.1281 -0.1140  0.1621
    1AU     LIG  240   9.761   4.066   7.415 -0.4270 -0.0041  0.0475
    1AU     LIG  241  10.289   4.169   7.210  0.1202 -0.3589 -0.1048
    1AU     LIG  242  10.618   4.175   6.887 -0.2081 -0.2011 -0.0021
    1AU    AUSL  243   8.542   2.970   7.561 -0.0409  0.0165 -0.0374
    1AU    AUSL  244   8.457   2.590   7.724  0.0267 -0.0840 -0.0863
    1AU     AUL  245   8.776   2.748   7.845 -0.0398 -0.0415 -0.0383
    1AU       S  246   8.655   3.150   7.736 -0.1100  0.3472 -0.4702
    1AU     LIG  247   9.031   3.430   7.809  0.0438  0.0661 -0.0585
    1AU     LIG  248   9.465   3.352   7.785  0.4024 -0.1564 -0.0966
    1AU     LIG  249   9.762   3.586   7.682 -0.1760 -0.1816 -0.0715
    1AU     LIG  250  10.218   3.823   7.654  0.1390 -0.1888  0.0499
    1AU     LIG  251  10.618   3.852   7.486 -0.0193 -0.0834  0.3504
    1AU     LIG  252  11.051   3.920   7.261  0.3890  0.1083  0.0263
    1AU       S  253   8.912   2.268   7.735  0.1390  0.2875 -0.3830
    1AU     LIG  254   9.193   2.537   7.640  0.1245 -0.1557 -0.1803
    1AU     LIG  255   9.433   2.923   7.539  0.1745 -0.0314 -0.2319
    1AU     LIG  256   9.725   3.140   7.383 -0.1894  0.2441 -0.3123
    1AU     LIG  257  10.124   3.187   7.393 -0.0093 -0.0440 -0.3858
    1AU     LIG  258  10.475   3.417   7.644 -0.1990  0.0951  0.0945
    1AU     LIG  259  10.913   3.532   7.590 -0.2351 -0.2716 -0.1092
    1AU    AUSL  260   8.160   2.840   7.623  0.0323 -0.0230 -0.0259
    1AU    AUSL  261   7.847   3.063   7.832 -0.0536  0.0282 -0.0425
    1AU     AUL  262   8.193   2.926   7.924  0.0586 -0.0050 -0.0346
    1AU       S  263   7.811   2.977   8.195 -0.2894 -0.1839  0.2724
    1AU     LIG  264   8.077   3.298   8.243  0.0195 -0.0584 -0.1605
    1AU     LIG  265   8.291   3.709   8.156 -0.1945  0.2458 -0.1042
    1AU     LIG  266   8.317   4.208   8.047  0.2202 -0.3049 -0.0373
    1AU     LIG  267   8.168   4.573   8.039 -0.1522 -0.2975 -0.0746
    1AU     LIG  268   8.374   4.936   8.190 -0.2001 -0.2165  0.0364
    1AU     LIG  269   8.643   5.373   8.259 -0.3074  0.1869  0.0970
    1AU       S  270   8.544   3.195   8.001  0.0971  0.1720  0.2041
    1AU     LIG  271   8.510   3.020   8.346 -0.1645  0.0496  0.2327
    1AU     LIG  272   8.250   2.891   8.635  0.0563 -0.0783 -0.1641
    1AU     LIG  273   7.984   2.555   8.750  0.1357  0.0429  0.2443
    1AU     LIG  274   7.802   2.238   8.487  0.0259  0.5069  0.3997
    1AU     LIG  275   7.941   1.819   8.357  0.0027  0.1519  0.1998
    1AU     LIG  276   8.167   1.470   8.474 -0.1768  0.1088  0.2295
    1AU    AUSL  277   7.272   2.922   6.745 -0.0457  0.0611 -0.0617
    1AU    AUSL  278   7.068   2.624   6.962  0.0341  0.0601 -0.0381
    1AU     AUL  279   6.895   2.986   6.735 -0.0050  0.0044 -0.0113
    1AU       S  280   6.857   2.609   6.991 -0.5596 -0.2923  0.4480
    1AU     LIG  281   6.676   2.200   7.032 -0.0074 -0.1101  0.1626
    1AU     LIG  282   6.393   1.920   7.185 -0.2086 -0.0265  0.2608
    1AU     LIG  283   6.009   1.766   7.351 -0.2592 -0.0959 -0.0348
    1AU     LIG  284   5.629   1.681   7.615  0.0733  0.3915  0.2148
    1AU     LIG  285   5.254   1.723   7.673  0.0946 -0.0197  0.0393
    1AU     LIG  286   4.959   1.496   7.576  0.1332 -0.1338  0.2333
    1AU       S  287   6.886   2.829   6.296 -0.1188 -0.4516  0.1659
    1AU     LIG  288   6.512   3.083   6.306 -0.2116  0.0902 -0.0567
    1AU     LIG  289   6.294   3.412   6.400  0.0048 -0.5506  0.0470
    1AU     LIG  290   5.868   3.618   6.562  0.1731  0.3562  0.1739
    1AU     LIG  291   5.404   3.576   6.786  0.1388 -0.1342 -0.1678
    1AU     LIG  292   5.082   3.661   7.027 -0.0426 -0.6159 -0.2628
    1AU     LIG  293   4.626   3.529   7.070  0.1200  0.0092  0.1634
    1AU    AUSL  294   7.410   2.870   6.359  0.0448 -0.0165  0.0585
    1AU    AUSL  295   7.319   3.306   6.855  0.0236 -0.0072 -0.0640
    1AU     AUL  296   7.252   3.164   6.514 -0.0248 -0.0245  0.0259
    1AU       S  297   7.012   2.939   6.186  0.0658 -0.0778  0.1627
    1AU     LIG  298   6.866   3.384   6.364 -0.1524 -0.1252  0.1237
    1AU     LIG  299   6.678   3.546   6.666  0.1597 -0.0268  0.0774
    1AU     LIG  300   6.347   3.634   6.851 -0.3803 -0.1690  0.0212
    1AU     LIG  301   5.900   3.755   7.065  0.4075 -0.0838  0.1467
    1AU     LIG  302   5.491   3.953   7.129  0.1321  0.1262 -0.1737
    1AU     LIG  303   5.140   4.232   7.278  0.1900 -0.0478  0.1020
    1AU       S  304   7.153   3.544   6.806 -0.2550  0.1937  0.1741
    1AU     LIG  305   7.109   3.887   6.892 -0.4247  0.3956  0.1385
    1AU     LIG  306   7.104   4.095   7.301  0.1689 -0.3810 -0.0022
    1AU     LIG  307   7.516   4.232   7.560  0.2420 -0.1530 -0.0657
    1AU     LIG  308   7.792   4.253   7.769 -0.0571 -0.1124  0.1051
    1AU     LIG  309   7.586   4.393   8.178 -0.4103  0.1115 -0.4520
    1AU     LIG  310   7.642   4.541   8.558 -0.0288 -0.1422 -0.2398
    1AU    AUSL  311   7.181   2.565   6.566  0.0546 -0.0722 -0.0434
    1AU    AUSL  312   7.541   2.478   6.358 -0.1096 -0.0927 -0.0115
    1AU     AUL  313   7.369   2.678   6.122 -0.0330 -0.0396 -0.0027
    1AU       S  314   7.254   2.233   6.176 -0.1456  0.0860 -0.3584
    1AU     LIG  315   6.858   2.225   5.984  0.3287  0.0764  0.1164
    1AU     LIG  316   6.403   2.247   6.057 -0.3701  0.0871  0.0002
    1AU     LIG  317   6.202   2.583   6.079 -0.0722  0.0862 -0.1895
    1AU     LIG  318   5.997   3.029   6.226  0.2038  0.4600  0.1434
    1AU     LIG  319   5.819   3.033   6.730 -0.0420 -0.2168 -0.0069
    1AU     LIG  320   5.744   3.251   7.016 -0.0177  0.0752 -0.1424
    1AU       S  321   6.976   2.581   6.403 -0.3066 -0.0741 -0.3911
    1AU     LIG  322   6.541   2.622   6.603  0.4152  0.1259 -0.1490
    1AU     LIG  323   6.034   2.646   6.575 -0.2549 -0.2122  0.1831
    1AU     LIG  324   5.669   2.401   6.698  0.3120 -0.0250 -0.1496
    1AU     LIG  325   5.288   2.124   6.917  0.2231 -0.5197 -0.0135
    1AU     LIG  326   5.070   1.791   7.104  0.0283  0.1012  0.0466
    1AU     LIG  327   4.669   1.588   7.050  0.2721  0.2662  0.1695
    1AU    AUSL  328   8.567   2.307   7.414  0.0334  0.0310 -0.0569
    1AU    AUSL  329   8.240   2.242   7.686  0.0146 -0.0137  0.0483
    1AU     AUL  330   8.484   2.316   7.893 -0.0052 -0.0743  0.0324
    1AU       S  331   8.808   2.148   7.551  0.1204  0.0279  0.1908
    1AU     LIG  332   9.058   1.830   7.522 -0.5506 -0.0962 -0.1010
    1AU     LIG  333   9.311   1.320   7.535  0.2532 -0.0199  0.1842
    1AU     LIG  334   9.106   1.195   7.156  0.4956 -0.1002  0.1555
    1AU     LIG  335   8.623   1.184   7.039  0.0510  0.0772 -0.1359
    1AU     LIG  336   8.243   0.993   6.926 -0.1868  0.3092 -0.0782
    1AU     LIG  337   8.175   0.687   6.453  0.5162 -0.0674  0.1741
    1AU       S  338   8.316   1.933   7.614  0.1434  0.3016  0.2146
    1AU     LIG  339   8.675   1.709   7.876 -0.2144 -0.0368 -0.3850
    1AU     LIG  340   8.953   1.371   7.942  0.4533 -0.0977  0.5664
    1AU     LIG  341   9.147   1.007   8.053  0.2925  0.1417  0.1892
    1AU     LIG  342   9.134   0.593   8.082 -0.2128 -0.3690  0.0138
    1AU     LIG  343   9.400   0.207   8.073  0.1616 -0.3032  0.2290
    1AU     LIG  344   9.350  -0.187   7.926 -0.0748  0.1706 -0.1194
    1AU    AUSL  345   8.418   2.672   7.311 -0.0413  0.0217  0.0373
    1AU    AUSL  346   8.678   2.414   7.035  0.0657 -0.0240  0.0620
    1AU     AUL  347   8.791   2.630   7.387  0.0943  0.0853 -0.0119
    1AU       S  348   8.679   2.197   7.462  0.3139 -0.0950  0.1471
    1AU     LIG  349   8.870   1.876   7.082 -0.0385 -0.1571  0.2519
    1AU     LIG  350   9.297   1.669   7.010  0.0706  0.3023  0.1920
    1AU     LIG  351   9.750   1.649   7.114  0.3315  0.1460 -0.1289
    1AU     LIG  352  10.189   1.400   7.118 -0.1763 -0.0357 -0.2103
    1AU     LIG  353  10.583   1.090   6.972  0.5043 -0.0583 -0.2830
    1AU     LIG  354  10.838   0.940   6.636 -0.2069  0.1099  0.0426
    1AU       S  355   9.024   2.336   7.057 -0.7062  0.1409  0.2418
    1AU     LIG  356   9.449   2.298   7.259 -0.0882 -0.1055 -0.1457
    1AU     LIG  357   9.819   2.057   7.368  0.0749 -0.0280  0.2530
    1AU     LIG  358  10.260   1.824   7.334  0.0319  0.1455 -0.4348
    1AU     LIG  359  10.668   2.001   7.281  0.1201 -0.0505  0.1177
    1AU     LIG  360  11.105   1.927   7.072  0.0676  0.1822  0.1727
    1AU     LIG  361  11.542   1.746   6.796  0.1387  0.1610  0.5248
    1AU    AUSL  362   7.762   2.126   6.411  0.0817  0.0265  0.1293
    1AU    AUSL  363   7.843   2.688   6.227 -0.0499  0.0454  0.0093
    1AU     AUL  364   7.789   2.316   6.128  0.0930 -0.0557  0.0541
    1AU       S  365   7.874   2.735   5.956  0.4189  0.0287  0.0884
    1AU     LIG  366   7.855   3.028   5.676 -0.2246 -0.1866 -0.0098
    1AU     LIG  367   7.723   3.375   5.652 -0.1532  0.0733  0.1814
    1AU     LIG  368   7.476   3.791   5.548  0.2267  0.1176 -0.1156
    1AU     LIG  369   7.301   4.198   5.545  0.3300  0.3606 -0.0801
    1AU     LIG  370   7.108   4.342   5.843  0.0735 -0.2582  0.5532
    1AU     LIG  371   7.157   4.702   6.156 -0.0913  0.2660  0.2989
    1AU       S  372   7.392   2.098   6.120 -0.1213  0.1636 -0.3854
    1AU     LIG  373   7.525   1.700   5.879 -0.3418 -0.0434 -0.0203
    1AU     LIG  374   7.669   1.312   5.821 -0.0999 -0.1801 -0.0033
    1AU     LIG  375   7.787   1.131   6.152 -0.2933 -0.0197  0.2436
    1AU     LIG  376   7.461   0.928   6.413  0.3099  0.1724  0.1122
    1AU     LIG  377   7.235   0.709   6.699  0.0352  0.0168  0.2106
    1AU     LIG  378   6.963   0.721   6.959 -0.4686  0.0872 -0.0514
    1AU    AUSL  379   7.517   2.458   6.767  0.0470 -0.0885 -0.0365
    1AU    AUSL  380   7.677   2.071   6.802  0.0251 -0.0525  0.0248
    1AU     AUL  381   7.506   1.988   6.577  0.1025 -0.0513  0.0833
    1AU       S  382   7.366   1.622   6.771  0.2010 -0.1658  0.2439
    1AU     LIG  383   7.278   1.238   6.830 -0.1233  0.0767  0.0368
    1AU     LIG  384   7.322   0.964   7.195 -0.1754  0.2698  0.1536
    1AU     LIG  385   7.141   0.447   7.377  0.1203  0.0086  0.1885
    1AU     LIG  386   6.934   0.137   7.365  0.1949 -0.0419  0.0134
    1AU     LIG  387   6.796   0.026   7.764  0.2679  0.1661 -0.3203
    1AU     LIG  388   7.032  -0.119   8.152 -0.3601 -0.0222 -0.2462
    1AU       S  389   7.307   2.246   6.250  0.1819 -0.2168 -0.0251
    1AU     LIG  390   6.923   2.058   6.461  0.0957 -0.0530  0.0522
    1AU     LIG  391   6.457   2.062   6.604 -0.2860  0.1874  0.2377
    1AU     LIG  392   6.084   2.122   6.835 -0.2703  0.1683  0.2348
    1AU     LIG  393   5.743   2.136   7.135 -0.1971  0.1210  0.1554
    1AU     LIG  394   5.414   2.104   7.384  0.0644  0.3328 -0.0370
    1AU     LIG  395   5.002   2.101   7.442 -0.2885 -0.0981  0.1887
    1AU    AUSL  396   7.299   2.905   7.641 -0.0087 -0.0386  0.0039
    1AU    AUSL  397   7.131   2.998   7.147  0.0010  0.0208 -0.0700
    1AU     AUL  398   7.048   2.839   7.565 -0.1110  0.0540  0.0001
    1AU       S  399   6.956   3.049   7.172 -0.1464 -0.1866 -0.1170
    1AU     LIG  400   6.840   3.393   7.124  0.1216  0.3091 -0.1670
    1AU     LIG  401   6.693   3.819   7.148  0.2610  0.0478  0.1725
    1AU     LIG  402   6.615   4.286   7.170  0.0354 -0.0766  0.2021
    1AU     LIG  403   6.666   4.667   7.210 -0.3068 -0.4569 -0.0107
    1AU     LIG  404   6.648   5.175   7.205  0.1994  0.1294  0.0928
    1AU     LIG  405   7.048   5.455   7.271 -0.1563  0.0823  0.2065
    1AU       S  406   7.060   3.282   7.793  0.1580  0.1086 -0.2741
    1AU     LIG  407   6.603   3.249   7.557 -0.1188 -0.0819 -0.3767
    1AU     LIG  408   6.106   3.391   7.614 -0.0868  0.2791  0.1846
    1AU     LIG  409   5.725   3.033   7.484  0.2820 -0.1135  0.0301
    1AU     LIG  410   5.783   2.573   7.507 -0.1038 -0.0538  0.2797
    1AU     LIG  411   6.131   2.320   7.418  0.1021 -0.2776 -0.2881
    1AU     LIG  412   6.477   2.313   7.449 -0.0536  0.1959 -0.3317
    1AU    AUSL  413   7.301   3.324   7.310 -0.0555  0.0683 -0.0179
    1AU    AUSL  414   7.764   3.504   7.385 -0.0033  0.1136  0.0356
    1AU     AUL  415   7.305   3.698   7.328 -0.0668  0.0596  0.1480
    1AU       S  416   7.121   3.331   7.573 -0.1630  0.0701 -0.1445
    1AU     LIG  417   6.866   3.705   7.667 -0.1196 -0.1309 -0.0132
    1AU     LIG  418   6.468   3.823   7.582  0.0507 -0.0409 -0.2123
    1AU     LIG  419   6.141   4.052   7.405 -0.1664 -0.3642 -0.2554
    1AU     LIG  420   5.755   4.370   7.472 -0.4014 -0.1222  0.2058
    1AU     LIG  421   5.356   4.588   7.526 -0.2143  0.2211 -0.0122
    1AU     LIG  422   5.405   4.822   7.835 -0.1267 -0.0691  0.1918
    1AU       S  423   7.769   3.811   7.453 -0.0687  0.0154 -0.3427
    1AU     LIG  424   8.228   4.011   7.527  0.0970 -0.2909 -0.2299
    1AU     LIG  425   8.451   4.468   7.570  0.0882  0.2223 -0.2552
    1AU     LIG  426   8.282   4.879   7.597  0.2852 -0.0503  0.4810
    1AU     LIG  427   8.148   5.009   7.269 -0.5639  0.0845  0.1888
    1AU     LIG  428   8.069   4.746   6.941  0.1318 -0.0043 -0.1619
    1AU     LIG  429   7.850   4.485   6.595  0.1810  0.0397 -0.0429
    1AU    AUSL  430   7.610   3.154   7.507 -0.0222 -0.0349  0.0126
    1AU    AUSL  431   7.689   2.766   7.612  0.0909 -0.0027 -0.0975
    1AU     AUL  432   7.458   2.987   7.858 -0.0212 -0.0798 -0.0498
    1AU       S  433   7.718   2.758   8.171  0.1744  0.0683 -0.2313
    1AU     LIG  434   7.270   2.897   8.263  0.0938  0.0537  0.2820
    1AU     LIG  435   6.989   2.686   8.021  0.1812 -0.0781 -0.2006
    1AU     LIG  436   6.651   2.674   7.775 -0.0112 -0.1498  0.2787
    1AU     LIG  437   6.178   2.874   7.586  0.2014  0.3083  0.0796
    1AU     LIG  438   6.215   3.129   7.176  0.3889  0.2426 -0.3915
    1AU     LIG  439   6.358   3.136   6.783  0.0808  0.4361 -0.2852
    1AU       S  440   7.359   3.465   7.738 -0.3771  0.2630  0.3698
    1AU     LIG  441   7.402   3.788   7.860 -0.2179 -0.2080 -0.1693
    1AU     LIG  442   7.129   4.134   8.002 -0.2594 -0.2507  0.0843
    1AU     LIG  443   7.275   4.536   7.898  0.1787  0.3516  0.1721
    1AU     LIG  444   7.340   4.685   7.495 -0.1895 -0.2466 -0.0768
    1AU     LIG  445   7.124   4.612   7.143 -0.0613 -0.0664  0.0336
    1AU     LIG  446   6.992   4.437   6.726 -0.0175 -0.0719 -0.0533
    1AU    AUSL  447   7.931   1.944   7.109 -0.0516 -0.1578 -0.0764
    1AU    AUSL  448   8.194   2.225   7.265 -0.0152 -0.0428 -0.0469
    1AU     AUL  449   7.928   1.755   7.367  0.0061 -0.0977  0.0208
    1AU       S  450   8.239   1.512   7.068 -0.0313  0.1506 -0.1553
    1AU     LIG  451   8.204   1.192   7.423  0.1761  0.1308  0.0120
    1AU     LIG  452   8.338   0.827   7.509  0.0624  0.1815  0.2596
    1AU     LIG  453   8.490   0.400   7.279 -0.0212  0.2213  0.1195
    1AU     LIG  454   8.241   0.135   7.259  0.0981 -0.0292  0.0504
    1AU     LIG  455   7.954  -0.119   7.584  0.1154  0.1914  0.1757
    1AU     LIG  456   7.850  -0.532   7.840 -0.0551  0.1241  0.0393
    1AU       S  457   8.391   1.823   7.496  0.1328  0.1902 -0.2763
    1AU     LIG  458   8.675   1.439   7.482 -0.2957 -0.2137  0.4056
    1AU     LIG  459   8.857   1.000   7.578 -0.0255  0.0082 -0.1508
    1AU     LIG  460   9.309   0.807   7.476 -0.2758 -0.4635  0.1259
    1AU     LIG  461   9.703   0.533   7.231 -0.1770 -0.1412 -0.0770
    1AU     LIG  462  10.061   0.478   6.975 -0.1861 -0.0940  0.1368
    1AU     LIG  463  10.333   0.709   7.193 -0.0858  0.0749  0.2195
    1AU    AUSL  464   8.054   1.960   6.728 -0.0434  0.0554 -0.0439
    1AU    AUSL  465   7.525   1.899   7.127 -0.0025 -0.0196 -0.0676
    1AU     AUL  466   7.814   1.709   6.839 -0.1293  0.0093 -0.0272
    1AU       S  467   8.235   1.544   6.939 -0.2528 -0.1083  0.2030
    1AU     LIG  468   8.251   1.321   6.520  0.3080  0.0190  0.0581
    1AU     LIG  469   8.597   1.006   6.490  0.2641  0.1259 -0.3174
    1AU     LIG  470   8.999   0.766   6.707  0.1999 -0.0492 -0.1658
    1AU     LIG  471   9.331   0.838   6.952 -0.0753 -0.3280 -0.2310
    1AU     LIG  472   9.738   1.084   7.155  0.3768 -0.0126 -0.0201
    1AU     LIG  473  10.072   0.902   7.591  0.1672  0.0230 -0.0252
    1AU       S  474   7.393   1.748   6.995  0.3813 -0.4766  0.1180
    1AU     LIG  475   7.663   1.372   7.212 -0.1715  0.0575 -0.0635
    1AU     LIG  476   7.809   0.976   7.324  0.0391  0.1403 -0.1995
    1AU     LIG  477   8.036   0.624   7.199 -0.0890  0.1526  0.3498
    1AU     LIG  478   8.083   0.409   6.866 -0.1572  0.0238  0.0740
    1AU     LIG  479   8.110   0.095   6.714  0.5196  0.1433 -0.0399
    1AU     LIG  480   7.966  -0.259   6.685 -0.2131  0.2235 -0.0326
    1AU    AUSL  481   8.369   1.950   7.028 -0.0760 -0.0854 -0.0236
    1AU    AUSL  482   8.242   2.183   6.451 -0.0142  0.0347 -0.0382
    1AU     AUL  483   8.210   1.829   6.578  0.0279  0.1631  0.0806
    1AU       S  484   8.578   2.034   6.334 -0.1528 -0.2305 -0.4927
    1AU     LIG  485   8.969   1.797   6.315  0.0062 -0.2091 -0.5544
    1AU     LIG  486   9.383   1.682   6.472  0.0942  0.2243  0.0559
    1AU     LIG  487   9.722   1.905   6.669 -0.2728  0.1895  0.2935
    1AU     LIG  488  10.234   1.855   6.791  0.4040 -0.1413 -0.2104
    1AU     LIG  489  10.593   1.615   6.959 -0.1433 -0.0247  0.0588
    1AU     LIG  490  11.044   1.352   6.996 -0.2053  0.3939  0.2365
    1AU       S  491   8.367   1.792   7.032 -0.2115 -0.0321  0.2108
    1AU     LIG  492   8.736   1.576   6.763  0.0464  0.1923  0.0212
    1AU     LIG  493   9.086   1.290   6.649 -0.1465  0.1559 -0.0610
    1AU     LIG  494   9.571   1.251   6.691  0.0491  0.1645 -0.1147
    1AU     LIG  495   9.893   1.498   6.572 -0.0134  0.0008  0.0065
    1AU     LIG  496  10.133   1.702   6.345 -0.1045 -0.2658  0.3555
    1AU     LIG  497  10.530   1.603   6.112  0.1339 -0.0651  0.0635
    1AU    AUSL  498   7.905   3.540   6.994 -0.0465 -0.0203  0.0981
    1AU    AUSL  499   8.056   3.256   7.274  0.2263  0.0075 -0.0280
    1AU     AUL  500   8.117   3.635   7.188  0.0330 -0.1162  0.0847
    1AU       S  501   7.778   3.952   7.241 -0.1381 -0.5781  0.1543
    1AU     LIG  502   7.918   4.180   7.053 -0.2219 -0.2965  0.7481
    1AU     LIG  503   8.443   4.282   7.082  0.3398  0.4144 -0.2554
    1AU     LIG  504   8.861   4.297   7.110 -0.0302 -0.1330  0.0757
    1AU     LIG  505   9.291   4.678   7.127 -0.1107  0.1750 -0.0471
    1AU     LIG  506   9.473   5.131   7.084 -0.0204 -0.3222 -0.2504
    1AU     LIG  507   9.872   5.329   7.070  0.0173 -0.3453  0.2868
    1AU       S  508   8.536   3.394   7.341  0.2506 -0.0119 -0.2043
    1AU     LIG  509   8.995   3.167   7.360  0.1915  0.2162 -0.0897
    1AU     LIG  510   9.200   3.254   7.016 -0.0717 -0.0348  0.1590
    1AU     LIG  511   9.663   3.269   6.881 -0.1663 -0.1272 -0.0099
    1AU     LIG  512  10.018   3.170   6.880  0.0985 -0.2713  0.1189
    1AU     LIG  513  10.347   3.093   6.986 -0.1822 -0.1593  0.0088
    1AU     LIG  514  10.673   3.106   7.186  0.3999 -0.1251 -0.1723
    1AU    AUSL  515   7.641   3.247   7.086  0.0822 -0.0208 -0.0121
    1AU    AUSL  516   7.657   3.463   6.698 -0.0519 -0.0210  0.0004
    1AU     AUL  517   7.576   3.616   6.983 -0.0845  0.1041 -0.0459
    1AU       S  518   7.753   3.615   7.493 -0.1749  0.1111  0.1909
    1AU     LIG  519   7.827   3.563   7.906  0.1827 -0.4774 -0.1394
    1AU     LIG  520   7.530   3.412   8.174 -0.1687  0.2853  0.0158
    1AU     LIG  521   7.132   3.623   8.237  0.4358  0.1919  0.2936
    1AU     LIG  522   6.699   3.594   8.185  0.2470  0.1578 -0.1040
    1AU     LIG  523   6.279   3.564   8.000 -0.2435  0.2258 -0.1336
    1AU     LIG  524   5.828   3.354   8.022 -0.0231 -0.0889  0.1490
    1AU       S  525   7.468   3.628   6.530 -0.1302  0.1223 -0.1541
    1AU     LIG  526   7.539   4.002   6.616 -0.0589 -0.4569 -0.1340
    1AU     LIG  527   7.446   4.306   6.919 -0.1159  0.1752  0.0081
    1AU     LIG  528   7.581   4.687   7.028 -0.3332  0.1095 -0.1239
    1AU     LIG  529   7.612   5.078   7.303 -0.0951 -0.0319  0.3769
    1AU     LIG  530   7.805   5.310   7.641 -0.1314  0.0180  0.1254
    1AU     LIG  531   7.716   5.691   7.792  0.0904  0.1860 -0.1044
    1AU    AUSL  532   8.522   2.487   6.530 -0.0775 -0.0286 -0.0370
    1AU    AUSL  533   7.961   2.444   6.542 -0.0489 -0.0956 -0.0294
    1AU     AUL  534   8.234   2.340   6.226  0.0104  0.0417  0.0257
    1AU       S  535   8.038   2.585   5.838 -0.2300  0.0370 -0.0640
    1AU     LIG  536   8.186   2.126   5.794  0.2388  0.0929 -0.0484
    1AU     LIG  537   8.076   1.887   6.112 -0.3006 -0.0054 -0.1586
    1AU     LIG  538   7.768   1.578   6.290  0.3128 -0.0782 -0.2068
    1AU     LIG  539   7.770   1.222   6.621 -0.2908  0.1920 -0.0730
    1AU     LIG  540   7.768   0.831   6.811 -0.0190 -0.1534  0.0763
    1AU     LIG  541   7.582   0.451   7.042 -0.2589 -0.2434 -0.1141
    1AU       S  542   8.642   2.198   6.426 -0.1268  0.2097  0.1806
    1AU     LIG  543   9.001   2.462   6.296 -0.1221  0.1426  0.0398
    1AU     LIG  544   9.404   2.531   6.164  0.2331  0.2966  0.0377
    1AU     LIG  545   9.894   2.633   6.152 -0.0248 -0.2804  0.3283
    1AU     LIG  546  10.113   3.045   6.103  0.0320  0.2972  0.0163
    1AU     LIG  547  10.399   3.223   6.405 -0.0960  0.2672 -0.0858
    1AU     LIG  548  10.783   3.311   6.641  0.0853 -0.1183  0.2669
    1AU    AUSL  549   8.336   2.306   6.830 -0.0059  0.0106 -0.0089
    1AU    AUSL  550   8.474   2.714   6.857 -0.0211 -0.0388  0.0478
    1AU     AUL  551   8.741   2.514   6.706  0.0170 -0.0101  0.0191
    1AU       S  552   8.624   2.034   6.631  0.0729  0.2412  0.2600
    1AU     LIG  553   9.152   2.103   6.633 -0.2612 -0.3377 -0.0411
    1AU     LIG  554   9.461   2.297   6.623 -0.3026 -0.3266  0.0553
    1AU     LIG  555   9.812   2.356   6.767 -0.2961  0.0391 -0.0936
    1AU     LIG  556  10.136   2.251   7.077  0.0408  0.0211 -0.4800
    1AU     LIG  557  10.201   2.344   7.475  0.1967 -0.1100 -0.2302
    1AU     LIG  558  10.616   2.371   7.691 -0.0584 -0.3510 -0.1019
    1AU       S  559   9.128   2.523   6.944  0.0945 -0.2986  0.0855
    1AU     LIG  560   9.282   2.757   6.612 -0.0767 -0.1577  0.2583
    1AU     LIG  561   9.708   2.891   6.558  0.2168  0.2488 -0.5634
    1AU     LIG  562  10.174   2.803   6.668  0.5741  0.0687 -0.1877
    1AU     LIG  563  10.667   2.839   6.722  0.4478 -0.0073 -0.1142
    1AU     LIG  564  11.188   2.823   6.762  0.2383 -0.0258 -0.2988
    1AU     LIG  565  11.601   3.001   6.783 -0.0671 -0.0016  0.1858
    2POPC   NC3  566   9.919   0.586   9.363  0.1219 -0.1597 -0.0360
    2POPC   PO4  567  10.223   0.825   9.488 -0.1052 -0.0195  0.2406
    2POPC   GL1  568  10.251   0.815   9.062  0.1900 -0.1505  0.4435
    2POPC   GL2  569  10.595   0.669   8.873  0.0452  0.1421 -0.0407
    2POPC   C1A  570  10.354   1.131   8.812  0.0883 -0.0178  0.0290
    2POPC   D2A  571  10.155   1.381   8.749 -0.1265 -0.2587 -0.2402
    2POPC   C3A  572  10.134   1.872   8.787  0.0952 -0.0254 -0.0660
    2POPC   C4A  573  10.366   2.215   8.638 -0.2018  0.2227  0.2369
    2POPC   C1B  574  10.407   0.734   8.515 -0.2772  0.2377 -0.1185
    2POPC   C2B  575  10.012   0.843   8.556  0.0131 -0.0127  0.0193
    2POPC   C3B  576   9.730   0.892   8.213  0.3689 -0.0944  0.1969
    2POPC   C4B  577   9.599   1.004   7.830  0.1821 -0.0949  0.0539
    3POPC   NC3  578   6.021   5.291   9.437  0.0817  0.0209 -0.0465
    3POPC   PO4  579   5.914   4.851   9.435  0.0490  0.3094  0.0674
    3POPC   GL1  580   5.912   4.968   9.022  0.0886  0.0291  0.1111
    3POPC   GL2  581   5.725   5.204   9.015  0.0635 -0.0523 -0.2212
    3POPC   C1A  582   6.019   5.130   8.590  0.2886  0.0502 -0.0666
    3POPC   D2A  583   6.321   5.111   8.378  0.2161  0.0820 -0.1117
    3POPC   C3A  584   6.587   5.298   8.096  0.3035  0.2460  0.1753
    3POPC   C4A  585   6.747   5.352   7.760 -0.1453 -0.1812  0.0342
    3POPC   C1B  586   5.511   5.064   8.566 -0.0472 -0.2296  0.1801
    3POPC   C2B  587   5.403   5.324   8.316 -0.1997 -0.4525 -0.0705
    3POPC   C3B  588   5.073   5.455   8.045 -0.0588  0.1085  0.1920
    3POPC   C4B  589   4.966   5.522   7.685 -0.0581 -0.1420  0.0706
    4POPC   NC3  590   2.116   5.469   9.197 -0.0245  0.1138 -0.0493
    4POPC   PO4  591   1.758   5.788   8.998 -0.0827 -0.0453 -0.0768
    4POPC   GL1  592   1.880   5.980   8.667  0.2087 -0.1533  0.3197
    4POPC   GL2  593   1.695   6.283   8.645 -0.0743 -0.0457 -0.0853
    4POPC   C1A  594   1.790   5.766   8.129  0.4063  0.3143  0.0115
    4POPC   D2A  595   1.576   5.338   8.123  0.1658  0.0882 -0.1260
    4POPC   C3A  596   1.405   5.065   7.832  0.1955 -0.0863  0.3011
    4POPC   C4A  597   1.525   5.077   7.440  0.1108 -0.0088 -0.1482
    4POPC   C1B  598   1.433   6.058   8.269  0.3095  0.3335 -0.3890
    4POPC   C2B  599   1.332   5.952   7.815 -0.0137  0.3056 -0.0183
    4POPC   C3B  600   1.096   5.720   7.697  0.0195  0.0578  0.1178
    4POPC   C4B  601   1.206   5.406   7.448  0.0112 -0.0563  0.1007
    5POPC   NC3  602   6.478   3.429  10.257 -0.0232 -0.1362  0.0379
    5POPC   PO4  603   6.360   3.752   9.994 -0.3681 -0.1414  0.0738
    5POPC   GL1  604   6.768   3.625   9.828 -0.0711 -0.2214  0.1959
    5POPC   GL2  605   7.107   3.827   9.829  0.1490 -0.0731 -0.5643
    5POPC   C1A  606   6.965   3.460   9.494  0.0047  0.1110  0.1422
    5POPC   D2A  607   7.031   3.317   9.045  0.2620 -0.1166 -0.0524
    5POPC   C3A  608   7.323   3.578   8.667  0.0059 -0.3264  0.0835
    5POPC   C4A  609   7.465   3.952   8.483 -0.1135 -0.3466 -0.0970
    5POPC   C1B  610   7.365   3.889   9.508  0.2010  0.3843  0.0212
    5POPC   C2B  611   7.391   3.644   9.165  0.0383  0.1973  0.0676
    5POPC   C3B  612   7.668   3.536   8.992 -0.0484 -0.1721  0.1162
    5POPC   C4B  613   7.924   3.660   8.546  0.1708  0.0982  0.3353
    6POPC   NC3  614   9.806   9.131   8.864  0.0025 -0.2837 -0.4037
    6POPC   PO4  615   9.402   9.082   9.018 -0.3422  0.1128  0.0463
    6POPC   GL1  616   9.456   8.844   8.634  0.0261  0.4754 -0.0214
    6POPC   GL2  617   9.192   8.795   8.602  0.2201  0.3230  0.0576
    6POPC   C1A  618   9.551   8.705   8.258 -0.4065  0.2744  0.2232
    6POPC   D2A  619   9.786   8.384   8.105 -0.0015 -0.0714 -0.0509
    6POPC   C3A  620   9.740   8.313   7.800  0.3186  0.3481 -0.0893
    6POPC   C4A  621   9.876   8.234   7.446  0.1646  0.1535  0.0398
    6POPC   C1B  622   9.150   8.891   8.147 -0.0113  0.1782 -0.2611
    6POPC   C2B  623   9.081   9.002   7.814 -0.2076 -0.1220 -0.0146
    6POPC   C3B  624   8.791   9.164   7.413 -0.2048 -0.2711 -0.1113
    6POPC   C4B  625   8.773   9.382   7.032 -0.0903  0.0396  0.1137
    7POPC   NC3  626   8.720   7.189   8.874  0.1647  0.0993 -0.1631
    7POPC   PO4  627   8.913   6.769   8.837  0.2060  0.0943 -0.1234
    7POPC   GL1  628   8.924   6.916   8.396  0.2760  0.0145 -0.0283
    7POPC   GL2  629   9.087   6.784   8.196 -0.0645  0.3562  0.0515
    7POPC   C1A  630   8.717   6.958   7.935 -0.0858 -0.0320 -0.2467
    7POPC   D2A  631   8.329   7.017   7.681  0.1557  0.0633 -0.0170
    7POPC   C3A  632   7.907   6.753   7.752  0.1965 -0.0294  0.0010
    7POPC   C4A  633   7.483   6.693   7.439  0.1341  0.0762  0.3170
    7POPC   C1B  634   9.260   6.747   7.833  0.3091  0.1959  0.2100
    7POPC   C2B  635   8.904   6.773   7.546 -0.0519 -0.1647  0.0698
    7POPC   C3B  636   8.583   6.692   7.266  0.1779 -0.2408  0.1767
    7POPC   C4B  637   8.192   6.647   7.331  0.1267 -0.0009  0.2994
    8POPC   NC3  638   3.194   8.874   9.419  0.4663 -0.0073  0.2041
    8POPC   PO4  639   3.369   8.761   9.097  0.1395  0.0896 -0.1438
    8POPC   GL1  640   3.599   8.534   8.715  0.1969  0.1643  0.0232
    8POPC   GL2  641   3.885   8.445   8.776 -0.0544  0.3572  0.0277
    8POPC   C1A  642   3.537   8.263   8.376  0.2618  0.3188 -0.1840
    8POPC   D2A  643   3.235   8.137   8.117  0.1843  0.3632  0.1693
    8POPC   C3A  644   2.967   8.369   7.947 -0.0050 -0.0957 -0.1416
    8POPC   C4A  645   2.872   8.582   7.475 -0.2116  0.0040 -0.0620
    8POPC   C1B  646   4.232   8.316   8.487 -0.1626  0.1374  0.0775
    8POPC   C2B  647   4.361   8.404   8.070 -0.1180  0.3287  0.0313
    8POPC   C3B  648   4.198   8.029   7.741 -0.0089 -0.0938  0.1064
    8POPC   C4B  649   4.340   7.584   7.680 -0.2588 -0.0524  0.1781
    9POPC   NC3  650   2.858   0.554   8.888 -0.3624  0.1375 -0.1397
    9POPC   PO4  651   2.877   0.302   8.846  0.1658  0.1844  0.0794
    9POPC   GL1  652   2.841   0.155   8.458  0.0829  0.0786 -0.1243
    9POPC   GL2  653   2.572   0.112   8.327  0.4073 -0.1284 -0.2209
    9POPC   C1A  654   3.035  -0.054   8.138 -0.1451  0.0195 -0.3250
    9POPC   D2A  655   3.440  -0.149   7.914  0.3241 -0.2621 -0.1772
    9POPC   C3A  656   3.403  -0.052   7.509  0.1221 -0.2059  0.2138
    9POPC   C4A  657   3.194  -0.090   7.097 -0.0595  0.2078 -0.0878
    9POPC   C1B  658   2.436   0.205   7.838 -0.4544 -0.0023 -0.2802
    9POPC   C2B  659   2.287   0.095   7.395 -0.0926 -0.0175  0.1011
    9POPC   C3B  660   1.987   0.161   6.952  0.0944 -0.0120  0.2477
    9POPC   C4B  661   1.987   0.421   6.505 -0.0444 -0.0570 -0.1855
   10POPC   NC3  662   1.753   2.662   9.030 -0.1681  0.3151 -0.2651
   10POPC   PO4  663   1.390   2.549   9.108 -0.0900  0.0337  0.0508
   10POPC   GL1  664   1.121   2.417   8.764  0.3216  0.0619  0.2035
   10POPC   GL2  665   0.954   2.787   8.692 -0.1015  0.0503  0.0229
   10POPC   C1A  666   0.991   2.406   8.275  0.1981  0.1003 -0.2696
   10POPC   D2A  667   0.936   2.054   8.002 -0.0674 -0.1009  0.0999
   10POPC   C3A  668   0.876   2.226   7.468 -0.0334  0.1368 -0.1572
   10POPC   C4A  669   1.145   2.462   7.272 -0.1906 -0.1881 -0.0705
   10POPC   C1B  670   0.786   3.099   8.492  0.1240  0.2572  0.1006
   10POPC   C2B  671   0.797   3.441   8.112  0.2000  0.0424  0.4799
   10POPC   C3B  672   0.792   3.868   7.980 -0.0410 -0.0875 -0.1646
   10POPC   C4B  673   0.741   4.230   7.849 -0.0317 -0.0783 -0.1250
   11POPC   NC3  674   2.669   3.066   8.964 -0.0134 -0.1986  0.0455
   11POPC   PO4  675   2.635   3.336   8.704  0.0417  0.0439 -0.1793
   11POPC   GL1  676   2.742   3.293   8.370  0.3159 -0.0969  0.2158
   11POPC   GL2  677   2.836   2.996   8.429 -0.0560  0.0616 -0.3567
   11POPC   C1A  678   2.551   3.167   7.973  0.0158  0.0444  0.1606
   11POPC   D2A  679   2.262   3.276   7.698 -0.5100 -0.0297 -0.1013
   11POPC   C3A  680   2.382   3.018   7.304 -0.0676  0.1662 -0.2803
   11POPC   C4A  681   2.497   2.806   6.974 -0.3813  0.1797  0.0870
   11POPC   C1B  682   2.752   2.727   8.066  0.0362  0.2585  0.1976
   11POPC   C2B  683   2.438   2.737   7.729 -0.2413 -0.0165 -0.2052
   11POPC   C3B  684   2.267   2.489   7.446  0.0900 -0.1071  0.2980
   11POPC   C4B  685   2.191   2.366   7.030  0.2351 -0.0068  0.0107
   12POPC   NC3  686   3.616   1.919   8.582  0.1760 -0.2529  0.0399
   12POPC   PO4  687   3.210   2.063   8.624 -0.0525 -0.1664 -0.0480
   12POPC   GL1  688   3.470   2.274   8.251 -0.1512 -0.1498  0.2199
   12POPC   GL2  689   3.565   2.051   8.050  0.1121  0.0280  0.0868
   12POPC   C1A  690   3.556   2.587   7.962  0.2321 -0.1539 -0.0180
   12POPC   D2A  691   3.600   2.816   7.488  0.1865  0.1054  0.3583
   12POPC   C3A  692   3.874   3.003   7.125  0.0491 -0.3271  0.2560
   12POPC   C4A  693   4.242   3.117   7.060  0.2928  0.3777  0.2501
   12POPC   C1B  694   3.805   1.783   7.749 -0.1327  0.3287 -0.2258
   12POPC   C2B  695   4.267   1.763   7.505 -0.2130 -0.1458  0.0810
   12POPC   C3B  696   4.552   2.043   7.356 -0.0889  0.0113  0.2778
   12POPC   C4B  697   4.773   2.229   6.939  0.1087  0.1447  0.3952
   13POPC   NC3  698   0.767   7.597   8.624 -0.3370 -0.1698  0.3430
   13POPC   PO4  699   0.290   7.632   8.479 -0.1400 -0.3605  0.3763
   13POPC   GL1  700   0.566   7.862   8.202  0.2574 -0.2326  0.0926
   13POPC   GL2  701   0.457   8.263   8.198  0.0165 -0.1293  0.0126
   13POPC   C1A  702   0.875   7.859   7.865 -0.1140  0.1698 -0.1425
   13POPC   D2A  703   1.188   7.509   7.793  0.0812 -0.2337  0.0415
   13POPC   C3A  704   1.516   7.616   7.557 -0.0478 -0.1448  0.0765
   13POPC   C4A  705   1.915   7.465   7.306  0.2095 -0.0657  0.2355
   13POPC   C1B  706   0.421   8.227   7.799 -0.1223 -0.0934  0.2173
   13POPC   C2B  707   0.209   8.070   7.432  0.4918 -0.1055  0.0933
   13POPC   C3B  708   0.368   7.816   7.069 -0.0847  0.2685  0.0580
   13POPC   C4B  709   0.569   7.497   7.131 -0.0313 -0.2009  0.1472
   14POPC   NC3  710   2.450   8.451   9.522  0.0340 -0.2535  0.0509
   14POPC   PO4  711   2.130   8.132   9.379  0.1034  0.1858  0.2013
   14POPC   GL1  712   2.117   8.125   8.787 -0.1556  0.0473  0.4165
   14POPC   GL2  713   2.318   8.033   8.680 -0.3244 -0.0547  0.1368
   14POPC   C1A  714   2.004   8.255   8.356  0.1043 -0.1559  0.0371
   14POPC   D2A  715   1.776   8.291   7.931  0.0419 -0.3238 -0.2749
   14POPC   C3A  716   2.072   8.372   7.526 -0.2455  0.2173  0.1670
   14POPC   C4A  717   2.406   8.490   7.365 -0.2710 -0.0107 -0.4058
   14POPC   C1B  718   2.263   7.771   8.291 -0.0049  0.1708 -0.3503
   14POPC   C2B  719   2.381   7.732   7.864 -0.1157 -0.1352  0.0740
   14POPC   C3B  720   2.436   7.532   7.500  0.0449  0.1379 -0.2857
   14POPC   C4B  721   2.415   7.215   7.235 -0.2056  0.0669  0.0738
   15POPC   NC3  722   9.232   7.179   8.671 -0.0926 -0.2864 -0.3606
   15POPC   PO4  723   9.133   7.623   8.793  0.0775 -0.3798  0.0312
   15POPC   GL1  724   8.877   7.541   8.564 -0.1405  0.1226 -0.0800
   15POPC   GL2  725   8.603   7.792   8.505 -0.1511 -0.0457  0.0721
   15POPC   C1A  726   8.752   7.354   8.209  0.1858 -0.0807 -0.0217
   15POPC   D2A  727   8.604   7.409   7.720 -0.2068  0.0129  0.0698
   15POPC   C3A  728   8.748   7.742   7.383 -0.3581 -0.0671  0.4216
   15POPC   C4A  729   8.968   7.931   7.019 -0.0216  0.4455 -0.0741
   15POPC   C1B  730   8.344   7.725   8.161  0.2602  0.1884 -0.0972
   15POPC   C2B  731   8.137   7.600   7.796 -0.0445  0.0500 -0.1161
   15POPC   C3B  732   8.008   7.267   7.390 -0.1606  0.3171  0.1211
   15POPC   C4B  733   7.764   7.032   7.059 -0.0391 -0.1853  0.1035
   16POPC   NC3  734   5.310   3.075  10.259  0.1673  0.2287  0.1941
   16POPC   PO4  735   5.500   3.492   9.932 -0.0644 -0.0325  0.2601
   16POPC   GL1  736   5.589   3.348   9.487  0.0310 -0.0671 -0.0256
   16POPC   GL2  737   5.617   3.612   9.345 -0.3020  0.0567 -0.0849
   16POPC   C1A  738   5.780   3.159   9.107 -0.0020  0.1817  0.1005
   16POPC   D2A  739   6.101   2.966   9.095 -0.1313 -0.0482  0.2004
   16POPC   C3A  740   6.320   2.883   8.726  0.2748 -0.1047  0.3182
   16POPC   C4A  741   6.543   2.762   8.375  0.1953  0.0941 -0.3663
   16POPC   C1B  742   5.622   3.578   8.925 -0.1465  0.0662 -0.2253
   16POPC   C2B  743   5.663   3.753   8.561  0.0341  0.1274  0.3363
   16POPC   C3B  744   5.668   4.181   8.395 -0.1506  0.1581  0.0161
   16POPC   C4B  745   5.701   4.410   7.988  0.0241 -0.1771  0.0270
   17POPC   NC3  746   6.171   6.120   9.252  0.0773 -0.0092 -0.0858
   17POPC   PO4  747   6.093   5.750   9.418 -0.0131 -0.2898 -0.0870
   17POPC   GL1  748   6.104   5.561   9.032 -0.0607 -0.2972  0.2383
   17POPC   GL2  749   6.250   5.369   8.978  0.1586 -0.0829  0.0042
   17POPC   C1A  750   6.222   5.597   8.579 -0.3284  0.5362  0.2916
   17POPC   D2A  751   6.458   5.851   8.301 -0.0055  0.0303  0.1315
   17POPC   C3A  752   6.377   5.776   7.881 -0.0536  0.2038  0.1707
   17POPC   C4A  753   6.328   5.479   7.556  0.2393 -0.1436  0.2430
   17POPC   C1B  754   6.632   5.234   8.745 -0.5107 -0.1484  0.0398
   17POPC   C2B  755   6.884   5.407   8.487  0.0559  0.1837  0.1572
   17POPC   C3B  756   7.154   5.745   8.409  0.0285 -0.1308 -0.2091
   17POPC   C4B  757   7.395   5.909   8.067  0.1562  0.0030  0.0842
   18POPC   NC3  758   0.478   9.476   9.017  0.0499 -0.0689 -0.0362
   18POPC   PO4  759   0.083   9.250   8.870 -0.3287  0.2678 -0.0601
   18POPC   GL1  760   0.108   9.053   8.556 -0.1859  0.1151 -0.1406
   18POPC   GL2  761   0.163   9.265   8.295 -0.1140 -0.1828 -0.3596
   18POPC   C1A  762  -0.121   8.843   8.095  0.1502 -0.0100 -0.0547
   18POPC   D2A  763  -0.468   8.911   7.771 -0.3842 -0.1025 -0.1064
   18POPC   C3A  764  -0.343   8.931   7.367 -0.0789  0.1570 -0.0741
   18POPC   C4A  765  -0.477   9.267   7.063  0.1626  0.0040  0.5103
   18POPC   C1B  766   0.230   9.217   7.930  0.1849  0.0260  0.1755
   18POPC   C2B  767   0.581   9.099   7.638  0.1572 -0.1288 -0.1208
   18POPC   C3B  768   0.747   9.078   7.175 -0.0298  0.4234 -0.1350
   18POPC   C4B  769   0.776   9.051   6.670 -0.0330  0.0504 -0.0651
   19POPC   NC3  770   2.791   4.841   8.999 -0.1705  0.1243  0.0259
   19POPC   PO4  771   2.778   4.706   8.654  0.1367 -0.1695 -0.0286
   19POPC   GL1  772   2.782   4.843   8.275  0.1002  0.1549  0.1443
   19POPC   GL2  773   2.660   4.700   8.019  0.1499  0.0431 -0.0293
   19POPC   C1A  774   3.063   5.181   8.099 -0.0893 -0.3407 -0.3754
   19POPC   D2A  775   3.396   5.256   7.729  0.1940  0.0510 -0.1406
   19POPC   C3A  776   3.533   5.496   7.554 -0.0592 -0.1222 -0.0441
   19POPC   C4A  777   3.841   5.443   7.325  0.2416 -0.2069  0.1112
   19POPC   C1B  778   2.370   4.612   7.653  0.0219  0.0383  0.1378
   19POPC   C2B  779   2.365   4.537   7.209 -0.2479 -0.1540  0.0328
   19POPC   C3B  780   2.109   4.713   6.790  0.1548 -0.4107 -0.0332
   19POPC   C4B  781   1.692   4.910   6.756  0.1146  0.0295  0.1576
   20POPC   NC3  782   8.802   3.279  10.140  0.0237  0.0679 -0.1004
   20POPC   PO4  783   9.186   3.026  10.203 -0.0579 -0.2416  0.0668
   20POPC   GL1  784   9.245   3.165   9.848  0.4403  0.1399 -0.3052
   20POPC   GL2  785   9.474   3.053   9.664  0.1607  0.0939  0.0384
   20POPC   C1A  786   9.004   3.305   9.562 -0.2883 -0.3865 -0.0620
   20POPC   D2A  787   8.763   3.270   9.127  0.1006 -0.4106  0.0592
   20POPC   C3A  788   8.418   2.952   9.050  0.0072  0.0610 -0.0289
   20POPC   C4A  789   8.509   2.629   9.260 -0.0030  0.1832 -0.0760
   20POPC   C1B  790   9.278   2.821   9.338 -0.1190  0.2428  0.0533
   20POPC   C2B  791   8.930   2.755   9.046  0.2177  0.1973  0.2749
   20POPC   C3B  792   8.670   2.665   8.753 -0.1781  0.3563  0.0820
   20POPC   C4B  793   8.470   2.323   8.807  0.1534  0.0978 -0.1439
   21POPC   NC3  794   9.597   1.968   9.619  0.0306  0.3515  0.1339
   21POPC   PO4  795   9.812   1.544   9.700 -0.2945  0.0788  0.1830
   21POPC   GL1  796   9.720   1.498   9.333 -0.1380 -0.0993 -0.0422
   21POPC   GL2  797   9.697   1.201   9.040 -0.1948  0.0396  0.0782
   21POPC   C1A  798   9.690   1.594   8.792 -0.0646  0.1697  0.0712
   21POPC   D2A  799   9.532   1.707   8.362 -0.3503 -0.0896 -0.0085
   21POPC   C3A  800   9.471   1.468   8.031 -0.1238  0.0662  0.2254
   21POPC   C4A  801   9.706   1.543   7.657 -0.2960  0.0350 -0.1899
   21POPC   C1B  802   9.603   1.177   8.629 -0.3326  0.1211  0.2109
   21POPC   C2B  803   9.871   1.307   8.381 -0.0805 -0.2722  0.1693
   21POPC   C3B  804   9.988   1.305   7.955 -0.1427  0.0591 -0.1400
   21POPC   C4B  805  10.276   1.494   7.756 -0.2389  0.0567 -0.0180
   22POPC   NC3  806   4.521   3.129   9.333  0.1370 -0.1412  0.0048
   22POPC   PO4  807   4.792   2.778   9.426 -0.3652 -0.2872  0.0455
   22POPC   GL1  808   5.100   2.891   9.105  0.1097 -0.1279  0.1830
   22POPC   GL2  809   5.389   2.853   9.285 -0.0041  0.2821  0.3013
   22POPC   C1A  810   5.219   3.021   8.654  0.0133  0.1907  0.1965
   22POPC   D2A  811   5.188   2.911   8.216  0.3076 -0.3619 -0.0141
   22POPC   C3A  812   4.908   2.683   7.998  0.1792  0.2707 -0.0718
   22POPC   C4A  813   4.977   2.396   7.810  0.0247 -0.4295  0.1004
   22POPC   C1B  814   5.681   2.619   8.986  0.2413 -0.2220  0.2354
   22POPC   C2B  815   5.809   2.695   8.620 -0.1590  0.0827  0.4237
   22POPC   C3B  816   6.114   2.852   8.210 -0.1707  0.0153 -0.2445
   22POPC   C4B  817   6.422   3.070   8.001  0.3040 -0.1277 -0.1155
   23POPC   NC3  818   8.724   4.757   9.591 -0.0148  0.2437 -0.1034
   23POPC   PO4  819   8.648   5.212   9.462  0.2459 -0.2357  0.1211
   23POPC   GL1  820   8.929   5.092   9.170 -0.2568  0.1999 -0.0908
   23POPC   GL2  821   9.159   5.191   9.069  0.0700 -0.2190  0.4199
   23POPC   C1A  822   8.838   4.814   8.814 -0.0593 -0.0830 -0.1531
   23POPC   D2A  823   8.980   4.905   8.367  0.3433  0.0550  0.0827
   23POPC   C3A  824   8.882   4.935   7.957  0.0505 -0.2134  0.0603
   23POPC   C4A  825   9.015   4.723   7.621  0.1917 -0.1707  0.0474
   23POPC   C1B  826   9.310   4.909   8.700  0.1036 -0.0137  0.0214
   23POPC   C2B  827   9.500   5.014   8.309  0.1873  0.1231 -0.0419
   23POPC   C3B  828   9.514   5.025   7.862  0.0641 -0.1955  0.2301
   23POPC   C4B  829   9.782   5.057   7.568  0.2460  0.1162 -0.0648
   24POPC   NC3  830   7.157   4.085  10.253 -0.0912 -0.1682 -0.2033
   24POPC   PO4  831   7.452   3.720  10.290  0.0983  0.1078  0.0378
   24POPC   GL1  832   7.711   3.784   9.868 -0.1746  0.1174  0.0124
   24POPC   GL2  833   8.051   3.987   9.893  0.2181  0.0289  0.1886
   24POPC   C1A  834   7.819   3.640   9.485 -0.0180 -0.3071 -0.3633
   24POPC   D2A  835   8.065   3.773   9.217 -0.0848 -0.1455 -0.1555
   24POPC   C3A  836   8.365   3.544   8.927 -0.1309 -0.0192 -0.2387
   24POPC   C4A  837   8.649   3.568   8.511 -0.4365 -0.1961 -0.0234
   24POPC   C1B  838   7.797   4.197   9.460 -0.1635  0.1975 -0.2546
   24POPC   C2B  839   7.589   4.091   9.042 -0.2695 -0.1050 -0.0836
   24POPC   C3B  840   7.302   4.326   8.830  0.0489  0.0121  0.0500
   24POPC   C4B  841   7.201   4.465   8.465 -0.1600 -0.1496  0.3378
   25POPC   NC3  842   3.535   7.018   9.271  0.1900  0.3636  0.0663
   25POPC   PO4  843   3.682   7.471   9.506 -0.0003 -0.0226  0.0246
   25POPC   GL1  844   3.442   7.519   9.208 -0.4666 -0.0988  0.0798
   25POPC   GL2  845   3.207   7.656   8.952  0.0942  0.1304 -0.2103
   25POPC   C1A  846   3.667   7.523   8.786 -0.0116 -0.2134  0.1985
   25POPC   D2A  847   3.917   7.311   8.429  0.0953 -0.0440  0.2164
   25POPC   C3A  848   4.001   7.547   7.999 -0.0328  0.0483  0.2916
   25POPC   C4A  849   3.860   7.428   7.661  0.1933 -0.0783  0.5141
   25POPC   C1B  850   3.250   8.015   8.689 -0.1952  0.0004 -0.0002
   25POPC   C2B  851   3.110   8.406   8.507  0.0876  0.0526  0.1714
   25POPC   C3B  852   2.980   8.781   8.243  0.0488  0.1245 -0.0662
   25POPC   C4B  853   2.944   8.970   7.834 -0.0005 -0.0738 -0.0259
   26POPC   NC3  854  10.045   2.002   9.939  0.0183  0.1239  0.2532
   26POPC   PO4  855  10.205   2.143   9.608  0.3269  0.0907 -0.1020
   26POPC   GL1  856   9.938   2.118   9.212  0.3392  0.1666  0.1425
   26POPC   GL2  857  10.143   2.316   9.140 -0.2534  0.2784  0.1603
   26POPC   C1A  858   9.627   2.115   8.814 -0.0878 -0.2218  0.0722
   26POPC   D2A  859   9.374   2.285   8.520  0.1160 -0.3380  0.0646
   26POPC   C3A  860   9.470   2.185   8.133  0.0543  0.3739 -0.0652
   26POPC   C4A  861   9.462   2.108   7.745  0.2108  0.0311  0.0429
   26POPC   C1B  862  10.028   2.603   8.772 -0.1823  0.3418 -0.0052
   26POPC   C2B  863  10.188   2.798   8.338 -0.1112  0.2333  0.1915
   26POPC   C3B  864  10.393   2.835   7.917 -0.0029  0.1965 -0.1639
   26POPC   C4B  865  10.792   3.086   7.835 -0.0710 -0.0727  0.0839
   27POPC   NC3  866   3.647   0.997   8.988 -0.2534 -0.0541 -0.0309
   27POPC   PO4  867   3.292   1.236   9.092 -0.1725 -0.0007 -0.3137
   27POPC   GL1  868   3.236   1.099   8.612 -0.3823  0.2850 -0.0445
   27POPC   GL2  869   3.343   0.798   8.678  0.1336  0.1789  0.0890
   27POPC   C1A  870   3.237   1.173   8.130  0.2368 -0.0391  0.0271
   27POPC   D2A  871   3.115   0.941   7.782 -0.0400  0.0297  0.1434
   27POPC   C3A  872   3.042   0.846   7.320 -0.0462 -0.1308 -0.0929
   27POPC   C4A  873   2.636   0.874   6.992  0.0356 -0.0893 -0.1300
   27POPC   C1B  874   3.638   0.897   8.259 -0.1718 -0.3129  0.1828
   27POPC   C2B  875   3.599   0.896   7.832  0.1082 -0.0709 -0.0607
   27POPC   C3B  876   3.645   1.029   7.501 -0.2624  0.0333  0.0964
   27POPC   C4B  877   3.895   1.430   7.394 -0.4502 -0.0669  0.0330
   28POPC   NC3  878   9.843   8.319   9.026 -0.0097  0.0836 -0.3117
   28POPC   PO4  879   9.652   8.076   8.709  0.0552 -0.1503  0.0148
   28POPC   GL1  880   9.370   7.781   8.397  0.0620 -0.1773 -0.0101
   28POPC   GL2  881   9.267   7.938   8.239  0.0077 -0.0305 -0.0078
   28POPC   C1A  882   9.403   7.435   8.120  0.0273  0.2414 -0.1539
   28POPC   D2A  883   9.154   7.221   7.975  0.3294  0.0296 -0.0699
   28POPC   C3A  884   9.109   7.246   7.584 -0.0313  0.2043  0.0018
   28POPC   C4A  885   9.183   7.446   7.157 -0.0180  0.2603 -0.0289
   28POPC   C1B  886   9.045   7.751   7.928 -0.0705  0.2985 -0.0145
   28POPC   C2B  887   9.276   7.796   7.536 -0.4370  0.2418  0.1136
   28POPC   C3B  888   9.379   8.118   7.305  0.0565  0.1799  0.1228
   28POPC   C4B  889   9.087   8.396   7.014  0.0394 -0.1193  0.0378
   29POPC   NC3  890   0.780   5.375   9.193  0.1908 -0.2298  0.0707
   29POPC   PO4  891   1.087   5.180   9.012 -0.2486  0.0721  0.0078
   29POPC   GL1  892   1.102   5.354   8.527  0.1046  0.0015 -0.1891
   29POPC   GL2  893   1.118   5.073   8.326 -0.1523 -0.0109 -0.1807
   29POPC   C1A  894   1.080   5.628   8.168  0.0389 -0.4864 -0.0126
   29POPC   D2A  895   0.912   6.046   8.166  0.0422  0.2196 -0.0866
   29POPC   C3A  896   0.603   6.292   8.015 -0.1711  0.3432  0.1115
   29POPC   C4A  897   0.344   6.381   7.808 -0.2717 -0.0235 -0.2020
   29POPC   C1B  898   0.921   5.071   7.990  0.0865 -0.0656 -0.0767
   29POPC   C2B  899   0.743   5.297   7.631  0.4008 -0.1175 -0.2918
   29POPC   C3B  900   0.658   5.566   7.301  0.1971  0.0008 -0.3341
   29POPC   C4B  901   0.442   5.851   7.036  0.0488  0.2817  0.0476
   30POPC   NC3  902   5.902   0.907   9.895  0.0470 -0.2333 -0.1985
   30POPC   PO4  903   5.610   0.794   9.617 -0.1261  0.0916 -0.1928
   30POPC   GL1  904   5.979   0.986   9.419  0.3576  0.0610 -0.0235
   30POPC   GL2  905   5.844   1.243   9.153  0.0607  0.0655  0.0830
   30POPC   C1A  906   6.359   0.717   9.318  0.1035 -0.1787  0.1830
   30POPC   D2A  907   6.403   0.495   8.999 -0.1132 -0.2945 -0.1127
   30POPC   C3A  908   6.762   0.513   8.698 -0.0828  0.1252 -0.1676
   30POPC   C4A  909   6.693   0.237   8.355 -0.0438  0.0665  0.1759
   30POPC   C1B  910   5.911   1.287   8.733  0.2296 -0.0938  0.2192
   30POPC   C2B  911   5.737   1.276   8.362 -0.1453  0.1528  0.0438
   30POPC   C3B  912   5.817   1.059   7.949  0.0416  0.3269 -0.0738
   30POPC   C4B  913   5.882   1.241   7.568 -0.0242 -0.2167 -0.0769
   31POPC   NC3  914   3.441   7.918   9.674 -0.0452  0.0375  0.1420
   31POPC   PO4  915   3.022   7.685   9.527 -0.1030 -0.1407 -0.1000
   31POPC   GL1  916   2.772   7.710   9.137 -0.0297  0.1940  0.3175
   31POPC   GL2  917   2.471   7.659   9.016  0.4128 -0.0015 -0.1868
   31POPC   C1A  918   2.810   7.730   8.625 -0.0250 -0.2320 -0.1345
   31POPC   D2A  919   2.874   7.798   8.193 -0.3747  0.1154  0.0095
   31POPC   C3A  920   2.884   7.658   7.818  0.1765  0.1520  0.0892
   31POPC   C4A  921   2.920   7.487   7.410  0.1577 -0.4477  0.0089
   31POPC   C1B  922   2.321   7.435   8.653  0.2059  0.4163 -0.0739
   31POPC   C2B  923   1.943   7.268   8.316 -0.1586 -0.0534  0.0247
   31POPC   C3B  924   1.800   6.924   8.159 -0.3251  0.1765  0.0919
   31POPC   C4B  925   1.566   6.822   7.949 -0.0563 -0.2375  0.1890
   32POPC   NC3  926   0.953   8.940   8.655 -0.0295 -0.0559  0.0743
   32POPC   PO4  927   1.018   8.536   8.861 -0.1457 -0.0782  0.0188
   32POPC   GL1  928   1.051   8.486   8.404  0.0118  0.5564  0.1457
   32POPC   GL2  929   1.129   8.757   8.164  0.0191 -0.3175 -0.0505
   32POPC   C1A  930   0.904   8.284   8.099 -0.3800  0.2966 -0.0703
   32POPC   D2A  931   0.924   8.360   7.736  0.1689 -0.0478 -0.0130
   32POPC   C3A  932   0.942   8.802   7.658 -0.0358 -0.0894  0.1326
   32POPC   C4A  933   1.053   9.203   7.728 -0.0459 -0.3966  0.0055
   32POPC   C1B  934   1.365   8.585   7.827  0.1162 -0.1615  0.0357
   32POPC   C2B  935   1.592   8.418   7.446 -0.0666  0.1314  0.0480
   32POPC   C3B  936   1.713   8.072   7.208 -0.1329  0.0338 -0.0168
   32POPC   C4B  937   1.469   7.684   7.059 -0.1082 -0.0272  0.0949
   33POPC   NC3  938   9.156   8.694   9.192 -0.3206  0.4345  0.2209
   33POPC   PO4  939   9.347   8.451   8.936  0.0934  0.0390  0.0021
   33POPC   GL1  940   9.190   8.211   8.727 -0.0989  0.1657  0.3803
   33POPC   GL2  941   8.873   8.173   8.587  0.1927 -0.3567  0.3515
   33POPC   C1A  942   9.185   8.411   8.293 -0.0957 -0.1884 -0.0286
   33POPC   D2A  943   9.227   8.440   7.881 -0.0411  0.1883  0.0743
   33POPC   C3A  944   9.456   8.606   7.471 -0.0213 -0.1463  0.1619
   33POPC   C4A  945   9.337   8.862   7.129 -0.3801  0.1735  0.1421
   33POPC   C1B  946   8.797   8.119   8.117 -0.4071 -0.0176  0.1971
   33POPC   C2B  947   8.500   8.021   7.742  0.1417 -0.0128  0.3623
   33POPC   C3B  948   8.069   8.051   7.877 -0.0791 -0.0055 -0.0612
   33POPC   C4B  949   7.669   8.238   7.723  0.2842 -0.1802 -0.0484
   34POPC   NC3  950   9.275   0.687   9.857  0.0148 -0.0508  0.0858
   34POPC   PO4  951   9.456   0.547   9.485  0.3748 -0.3891 -0.1521
   34POPC   GL1  952   9.308   0.947   9.252  0.3386  0.0951 -0.1155
   34POPC   GL2  953   9.348   0.826   8.954 -0.1635  0.1922  0.1000
   34POPC   C1A  954   9.192   1.314   8.958 -0.1891  0.0520  0.1101
   34POPC   D2A  955   8.825   1.401   8.808  0.0469  0.3315  0.0318
   34POPC   C3A  956   8.455   1.465   8.988 -0.2173  0.1876  0.0381
   34POPC   C4A  957   8.327   1.637   9.511  0.0048  0.1295 -0.2315
   34POPC   C1B  958   9.078   0.940   8.537 -0.1068 -0.0298 -0.0369
   34POPC   C2B  959   8.711   0.753   8.279  0.0547 -0.0596 -0.0445
   34POPC   C3B  960   8.530   0.589   7.893  0.0316  0.0051 -0.0268
   34POPC   C4B  961   8.314   0.306   7.701 -0.1361  0.0359 -0.0261
   35POPC   NC3  962   9.877   6.568   8.915  0.0605 -0.2063 -0.3818
   35POPC   PO4  963  10.089   6.112   8.900  0.0104  0.2413  0.4100
   35POPC   GL1  964   9.945   6.227   8.475  0.1000  0.1138 -0.1462
   35POPC   GL2  965  10.043   6.646   8.469  0.0406 -0.1479  0.1194
   35POPC   C1A  966  10.125   6.290   8.121 -0.1615  0.1906 -0.2196
   35POPC   D2A  967  10.078   6.073   7.711 -0.2013  0.0308  0.0555
   35POPC   C3A  968   9.750   6.066   7.481 -0.3569  0.0026  0.2578
   35POPC   C4A  969   9.828   5.946   7.079 -0.0077 -0.0342 -0.0926
   35POPC   C1B  970  10.186   6.785   8.034 -0.4042 -0.2501  0.0049
   35POPC   C2B  971  10.463   7.070   8.007  0.1601  0.0780  0.2695
   35POPC   C3B  972  10.586   7.139   7.605 -0.0647  0.0588 -0.1575
   35POPC   C4B  973  10.944   7.235   7.487  0.1118 -0.0025 -0.5320
   36POPC   NC3  974   1.351   8.024   9.217 -0.1143  0.2375  0.1493
   36POPC   PO4  975   1.401   7.599   8.907  0.2045  0.2276 -0.1923
   36POPC   GL1  976   1.308   7.618   8.496 -0.0393  0.1918 -0.0388
   36POPC   GL2  977   1.175   7.906   8.327  0.4278 -0.0620 -0.0046
   36POPC   C1A  978   1.593   7.504   8.061 -0.0186  0.4898 -0.2925
   36POPC   D2A  979   1.985   7.447   7.869  0.0753  0.0004 -0.0155
   36POPC   C3A  980   2.223   7.178   7.843  0.3180 -0.2640 -0.0776
   36POPC   C4A  981   2.670   7.183   7.740  0.1075  0.0192  0.3600
   36POPC   C1B  982   1.399   7.984   7.877  0.1106  0.1257  0.2043
   36POPC   C2B  983   1.190   8.082   7.461  0.1533  0.0990  0.0163
   36POPC   C3B  984   0.769   8.089   7.329  0.2570 -0.2189  0.1384
   36POPC   C4B  985   0.605   8.541   7.357  0.1501 -0.1227  0.3421
   37POPC   NC3  986   9.443   2.653   9.991 -0.1533 -0.0383 -0.1523
   37POPC   PO4  987   9.785   2.389   9.823  0.0322  0.0494 -0.0043
   37POPC   GL1  988   9.666   2.555   9.465 -0.0767  0.1776 -0.2503
   37POPC   GL2  989   9.957   2.777   9.310  0.1507 -0.1274  0.3800
   37POPC   C1A  990   9.548   2.649   8.959  0.1089 -0.0176 -0.2090
   37POPC   D2A  991   9.273   2.777   8.580 -0.0052  0.2306  0.2736
   37POPC   C3A  992   9.388   3.206   8.433 -0.2980  0.1925 -0.4818
   37POPC   C4A  993   9.120   3.545   8.279 -0.0773  0.2844 -0.2030
   37POPC   C1B  994   9.869   3.109   9.114 -0.1421 -0.1276  0.1179
   37POPC   C2B  995   9.752   3.026   8.650 -0.1568  0.1602 -0.0101
   37POPC   C3B  996   9.728   2.621   8.419  0.0444  0.1527  0.2927
   37POPC   C4B  997   9.912   2.155   8.436 -0.3432  0.4447  0.3807
   38POPC   NC3  998   3.983   9.550   8.950 -0.2265 -0.2432 -0.3289
   38POPC   PO4  999   3.744   9.734   9.162  0.2788 -0.0624 -0.1212
   38POPC   GL1 1000   3.429   9.642   8.720 -0.2476 -0.0376  0.0337
   38POPC   GL2 1001   3.704   9.396   8.495  0.2462 -0.0377  0.1446
   38POPC   C1A 1002   3.287   9.790   8.326 -0.2598  0.2043  0.0217
   38POPC   D2A 1003   3.188   9.611   7.898  0.1025 -0.3855 -0.1942
   38POPC   C3A 1004   3.393   9.179   7.840 -0.1473  0.0231  0.2901
   38POPC   C4A 1005   3.793   8.958   7.683 -0.1046  0.0983  0.0862
   38POPC   C1B 1006   3.808   9.224   8.130 -0.1186  0.2229 -0.0754
   38POPC   C2B 1007   4.064   9.418   7.760  0.3107 -0.1506  0.2408
   38POPC   C3B 1008   4.132   9.664   7.411  0.3743  0.1137 -0.3943
   38POPC   C4B 1009   4.324  10.023   7.326  0.0302  0.1877  0.0522
   39POPC   NC3 1010   0.935   4.444   9.195 -0.2071  0.3557  0.1645
   39POPC   PO4 1011   1.358   4.466   9.016  0.2933 -0.2088  0.0270
   39POPC   GL1 1012   1.227   4.321   8.592 -0.0296  0.1522 -0.0155
   39POPC   GL2 1013   1.532   4.176   8.490  0.1408  0.0513  0.0989
   39POPC   C1A 1014   0.848   4.336   8.338  0.3304  0.2250 -0.0613
   39POPC   D2A 1015   0.337   4.291   8.183  0.1498 -0.5710  0.0728
   39POPC   C3A 1016   0.289   4.383   7.720 -0.0412  0.1934  0.0961
   39POPC   C4A 1017   0.547   4.316   7.380  0.1414  0.0357 -0.1404
   39POPC   C1B 1018   1.299   4.123   8.144 -0.2315 -0.0689  0.4021
   39POPC   C2B 1019   1.186   4.072   7.645 -0.1848 -0.2913  0.3318
   39POPC   C3B 1020   1.437   3.997   7.317  0.0106  0.0760 -0.0362
   39POPC   C4B 1021   1.219   4.055   6.880 -0.1158  0.1913 -0.1040
   40POPC   NC3 1022   7.237   8.017   9.457  0.0504 -0.0594  0.1270
   40POPC   PO4 1023   6.708   8.010   9.293 -0.2853 -0.1768  0.0660
   40POPC   GL1 1024   6.571   8.382   9.070  0.0541  0.1122 -0.0432
   40POPC   GL2 1025   6.859   8.231   8.823  0.2593  0.1091  0.1415
   40POPC   C1A 1026   6.338   8.243   8.753 -0.1265  0.1371  0.2892
   40POPC   D2A 1027   5.953   7.976   8.700  0.2020  0.3206  0.1085
   40POPC   C3A 1028   5.888   7.990   8.239  0.1356 -0.2849 -0.0656
   40POPC   C4A 1029   5.709   7.757   7.938 -0.1246  0.2160 -0.1673
   40POPC   C1B 1030   6.839   8.320   8.401 -0.1823  0.2716  0.5031
   40POPC   C2B 1031   6.743   8.500   8.109  0.0679  0.0268 -0.0844
   40POPC   C3B 1032   6.451   8.641   7.929  0.0820  0.0694  0.0576
   40POPC   C4B 1033   6.038   8.356   7.810  0.1459 -0.2229  0.1652
   41POPC   NC3 1034   5.321   1.707   9.447  0.2734  0.4304 -0.0528
   41POPC   PO4 1035   4.930   1.485   9.332  0.6059 -0.1380 -0.3343
   41POPC   GL1 1036   5.364   1.369   9.053  0.2505 -0.3236 -0.2526
   41POPC   GL2 1037   5.558   1.615   9.044 -0.0094 -0.4947 -0.2153
   41POPC   C1A 1038   5.458   1.114   8.698  0.1972  0.2960  0.0101
   41POPC   D2A 1039   5.517   0.750   8.474  0.2518 -0.3380 -0.1415
   41POPC   C3A 1040   5.388   0.799   8.087 -0.1776 -0.2788  0.0231
   41POPC   C4A 1041   5.344   1.171   7.787  0.2253 -0.0869  0.0922
   41POPC   C1B 1042   5.561   1.599   8.664 -0.0773  0.1056 -0.0410
   41POPC   C2B 1043   5.255   1.867   8.492 -0.2006 -0.0669 -0.1161
   41POPC   C3B 1044   4.951   2.016   8.139 -0.0647 -0.2264 -0.2861
   41POPC   C4B 1045   4.741   1.837   7.847  0.1723 -0.0320  0.1013
   42POPC   NC3 1046   5.443   6.873   9.257 -0.1013  0.1303 -0.0282
   42POPC   PO4 1047   5.905   6.908   9.476  0.2052  0.1150  0.0458
   42POPC   GL1 1048   6.079   6.621   9.184 -0.1609  0.1992  0.3632
   42POPC   GL2 1049   6.269   6.824   9.104  0.4166 -0.2577 -0.0606
   42POPC   C1A 1050   6.165   6.548   8.721  0.1220 -0.1263  0.1294
   42POPC   D2A 1051   6.252   6.763   8.405 -0.2530  0.0401 -0.1112
   42POPC   C3A 1052   5.911   6.820   8.146  0.3707  0.0597 -0.0087
   42POPC   C4A 1053   5.778   6.782   7.740  0.2504 -0.1714 -0.1616
   42POPC   C1B 1054   6.646   6.790   8.752  0.0782 -0.3863  0.0934
   42POPC   C2B 1055   6.711   6.825   8.217  0.2205 -0.1610 -0.0397
   42POPC   C3B 1056   6.344   6.800   7.826 -0.2799  0.0471 -0.0302
   42POPC   C4B 1057   6.545   6.760   7.386  0.0006 -0.1027 -0.0898
   43POPC   NC3 1058   0.470   2.226   9.345  0.2417 -0.1892  0.0538
   43POPC   PO4 1059   0.673   1.860   9.524  0.0750 -0.0376 -0.0238
   43POPC   GL1 1060   0.645   1.792   9.097 -0.0897 -0.0930  0.2085
   43POPC   GL2 1061   0.989   1.790   8.981 -0.0230  0.3302  0.0575
   43POPC   C1A 1062   0.418   1.651   8.679  0.2244 -0.0516  0.0420
   43POPC   D2A 1063   0.213   1.717   8.394 -0.0708 -0.3522  0.1037
   43POPC   C3A 1064  -0.144   1.770   8.136  0.3230  0.0222  0.1222
   43POPC   C4A 1065  -0.122   1.953   7.757 -0.2027  0.1023 -0.3034
   43POPC   C1B 1066   1.176   1.901   8.585  0.0947 -0.2422  0.2892
   43POPC   C2B 1067   1.364   1.955   8.194  0.0922  0.0369  0.0041
   43POPC   C3B 1068   1.702   2.167   7.948 -0.0908  0.2769  0.0116
   43POPC   C4B 1069   1.725   2.378   7.480 -0.1764  0.0600 -0.0883
   44POPC   NC3 1070   1.543   0.468   8.958 -0.0988 -0.2054  0.2367
   44POPC   PO4 1071   1.920   0.372   9.017  0.0466  0.3039 -0.0258
   44POPC   GL1 1072   1.934   0.222   8.649 -0.2034  0.2086  0.3208
   44POPC   GL2 1073   2.113  -0.024   8.437 -0.0123  0.0385 -0.1102
   44POPC   C1A 1074   1.837   0.311   8.199  0.1158  0.3869 -0.2350
   44POPC   D2A 1075   1.985   0.493   7.794  0.1508  0.2339 -0.0761
   44POPC   C3A 1076   1.974   0.554   7.413 -0.0341 -0.1733  0.1458
   44POPC   C4A 1077   1.764   0.563   7.053  0.5986  0.0445  0.0291
   44POPC   C1B 1078   2.060  -0.052   8.011 -0.0577  0.1143 -0.0207
   44POPC   C2B 1079   1.874  -0.023   7.633 -0.0874  0.2729  0.2427
   44POPC   C3B 1080   1.641  -0.024   7.317 -0.1506  0.0342 -0.0319
   44POPC   C4B 1081   1.553  -0.070   6.920 -0.1558  0.2186  0.0382
   45POPC   NC3 1082   2.308   4.096   8.799  0.0210  0.0573 -0.0249
   45POPC   PO4 1083   2.671   4.183   8.705 -0.0027  0.1216 -0.0955
   45POPC   GL1 1084   2.925   4.307   8.413 -0.1261  0.1682  0.3853
   45POPC   GL2 1085   3.104   4.068   8.444 -0.1696  0.1166 -0.0200
   45POPC   C1A 1086   3.179   4.458   8.137 -0.2432  0.1616  0.0087
   45POPC   D2A 1087   3.284   4.802   7.775 -0.3412 -0.3120  0.0173
   45POPC   C3A 1088   2.912   4.992   7.660  0.1353 -0.0450  0.0497
   45POPC   C4A 1089   2.502   5.195   7.631 -0.1658  0.1117 -0.0287
   45POPC   C1B 1090   2.773   4.101   7.997 -0.2705 -0.0803 -0.0410
   45POPC   C2B 1091   2.720   4.092   7.501  0.0974  0.0009 -0.1080
   45POPC   C3B 1092   2.878   4.323   7.275  0.1618 -0.1316  0.1608
   45POPC   C4B 1093   2.687   4.521   6.832 -0.0315  0.4078 -0.6674
   46POPC   NC3 1094   6.698   1.723  10.247  0.2609 -0.0586 -0.1462
   46POPC   PO4 1095   6.720   1.641   9.801 -0.3846 -0.4431 -0.1884
   46POPC   GL1 1096   6.553   1.614   9.325  0.1362  0.1533  0.2221
   46POPC   GL2 1097   6.538   1.278   9.270 -0.2144  0.3578  0.0007
   46POPC   C1A 1098   6.685   1.780   8.833 -0.1876  0.4856  0.0548
   46POPC   D2A 1099   6.481   2.026   8.732  0.0454  0.0257  0.1040
   46POPC   C3A 1100   6.478   2.081   8.223  0.2337 -0.2670  0.0026
   46POPC   C4A 1101   6.275   2.389   7.985  0.0408  0.0437  0.1833
   46POPC   C1B 1102   6.340   1.373   8.827 -0.3638 -0.0378  0.3021
   46POPC   C2B 1103   6.504   1.555   8.446 -0.3077  0.0417  0.0662
   46POPC   C3B 1104   6.569   1.617   8.009  0.1067  0.2809 -0.2619
   46POPC   C4B 1105   6.558   1.977   7.783  0.2721  0.2602  0.3706
   47POPC   NC3 1106   6.780   4.542   9.666 -0.3140 -0.1168 -0.0358
   47POPC   PO4 1107   6.688   4.199  10.041 -0.0970  0.0149  0.0912
   47POPC   GL1 1108   6.572   4.110   9.599 -0.1931 -0.0547  0.0410
   47POPC   GL2 1109   6.309   4.088   9.520  0.1051  0.0062 -0.0969
   47POPC   C1A 1110   6.898   3.988   9.290  0.4184 -0.1308 -0.1272
   47POPC   D2A 1111   7.055   3.883   8.879  0.1184 -0.0271  0.0825
   47POPC   C3A 1112   6.893   4.109   8.477  0.1489 -0.0532  0.3349
   47POPC   C4A 1113   6.650   4.060   8.122  0.3769  0.2443 -0.0763
   47POPC   C1B 1114   6.116   3.896   9.191 -0.0868  0.1079  0.1522
   47POPC   C2B 1115   6.016   4.002   8.757 -0.4483  0.3676 -0.0545
   47POPC   C3B 1116   6.071   3.954   8.283 -0.0479 -0.2691  0.0376
   47POPC   C4B 1117   5.822   3.905   7.927 -0.0181 -0.3188  0.1841
   48POPC   NC3 1118   2.055   6.761   9.044  0.0944 -0.2958  0.0620
   48POPC   PO4 1119   2.266   6.644   9.248  0.0642  0.0047  0.1162
   48POPC   GL1 1120   2.415   6.413   8.861  0.2654  0.2074  0.0914
   48POPC   GL2 1121   2.141   6.491   8.554  0.2469  0.0831 -0.1983
   48POPC   C1A 1122   2.525   6.157   8.577 -0.0394 -0.1887 -0.2077
   48POPC   D2A 1123   2.668   6.317   8.178 -0.3445 -0.2044  0.0874
   48POPC   C3A 1124   2.934   6.240   7.801 -0.1919  0.0538  0.1532
   48POPC   C4A 1125   3.150   6.568   7.557 -0.2022  0.4607 -0.0884
   48POPC   C1B 1126   2.198   6.164   8.198 -0.0052  0.2287  0.0137
   48POPC   C2B 1127   2.002   6.101   7.826 -0.0241  0.0502  0.1647
   48POPC   C3B 1128   1.717   5.991   7.497  0.3178 -0.3564  0.1551
   48POPC   C4B 1129   1.362   6.125   7.392 -0.0221  0.0386 -0.1017
   49POPC   NC3 1130   0.869   9.340   9.576 -0.3782  0.0560  0.1688
   49POPC   PO4 1131   0.916   9.346   9.058 -0.3705 -0.1645  0.1548
   49POPC   GL1 1132   0.869   9.420   8.622  0.3256 -0.0716  0.2676
   49POPC   GL2 1133   0.588   9.436   8.550 -0.1192  0.1375 -0.1691
   49POPC   C1A 1134   1.127   9.508   8.192  0.1603 -0.2507 -0.0413
   49POPC   D2A 1135   1.254   9.702   7.814 -0.3068  0.2092  0.2052
   49POPC   C3A 1136   1.286  10.170   7.687  0.3449 -0.0106  0.3154
   49POPC   C4A 1137   1.445  10.528   7.666 -0.2071  0.0310  0.3223
   49POPC   C1B 1138   0.447   9.713   8.298 -0.0489 -0.0732  0.1693
   49POPC   C2B 1139   0.462  10.048   8.015 -0.0444 -0.2588  0.2924
   49POPC   C3B 1140   0.345  10.294   7.668 -0.3171 -0.1896 -0.1761
   49POPC   C4B 1141  -0.009  10.529   7.555  0.1320 -0.1119 -0.0619
   50POPC   NC3 1142   2.836   5.423   9.060  0.0130 -0.1618 -0.2483
   50POPC   PO4 1143   2.495   5.205   9.059  0.0461  0.1518 -0.0799
   50POPC   GL1 1144   2.590   5.190   8.622 -0.0952 -0.0151 -0.1791
   50POPC   GL2 1145   2.393   5.482   8.626 -0.0708 -0.3759 -0.0204
   50POPC   C1A 1146   2.600   5.370   8.079 -0.0245 -0.1295 -0.0853
   50POPC   D2A 1147   2.824   5.577   7.726 -0.1263 -0.2114 -0.2675
   50POPC   C3A 1148   2.675   5.486   7.321 -0.1982  0.0736 -0.0276
   50POPC   C4A 1149   2.488   5.412   6.943  0.0497 -0.0454 -0.0151
   50POPC   C1B 1150   2.242   5.633   8.300  0.0100  0.0198  0.3256
   50POPC   C2B 1151   2.027   5.402   7.881 -0.0501 -0.3892  0.1220
   50POPC   C3B 1152   1.732   5.505   7.669 -0.0267 -0.1799  0.1935
   50POPC   C4B 1153   1.614   5.507   7.215 -0.2968 -0.2521  0.0365
   51POPC   NC3 1154   0.182   4.666   9.614 -0.1183  0.3486 -0.1457
   51POPC   PO4 1155  -0.118   4.368   9.724  0.0407 -0.1673  0.1484
   51POPC   GL1 1156   0.005   4.389   9.236 -0.2229 -0.1074 -0.0060
   51POPC   GL2 1157   0.229   4.576   9.117  0.2558  0.0611 -0.0584
   51POPC   C1A 1158  -0.188   4.155   8.899 -0.0169 -0.0631 -0.1547
   51POPC   D2A 1159  -0.662   4.174   8.724 -0.0724 -0.1254  0.0471
   51POPC   C3A 1160  -0.757   3.962   8.276  0.0241  0.0487  0.0370
   51POPC   C4A 1161  -0.893   3.890   7.791  0.2699 -0.0193  0.1188
   51POPC   C1B 1162   0.038   4.508   8.674 -0.1654  0.1840 -0.1484
   51POPC   C2B 1163  -0.160   4.239   8.380  0.2742 -0.1054  0.0069
   51POPC   C3B 1164  -0.204   3.798   8.176 -0.0098 -0.1132 -0.1550
   51POPC   C4B 1165  -0.509   3.502   8.206 -0.3482 -0.0013  0.1468
   52POPC   NC3 1166   9.287   9.749   9.540  0.3039 -0.0355 -0.0248
   52POPC   PO4 1167   9.093  10.046   9.137 -0.0984 -0.1857  0.1507
   52POPC   GL1 1168   8.843  10.141   8.719  0.1157  0.4492  0.0549
   52POPC   GL2 1169   9.161  10.121   8.512 -0.3634  0.0734 -0.2510
   52POPC   C1A 1170   8.859  10.366   8.266  0.2422 -0.0694 -0.1955
   52POPC   D2A 1171   8.860  10.373   7.867  0.0114  0.3002  0.1211
   52POPC   C3A 1172   8.873  10.622   7.573 -0.2752  0.3339 -0.1693
   52POPC   C4A 1173   8.904  10.844   7.209  0.1860  0.0861  0.0410
   52POPC   C1B 1174   9.224   9.660   8.275  0.2423 -0.0413 -0.0336
   52POPC   C2B 1175   8.925   9.344   8.127 -0.0664 -0.1495 -0.0850
   52POPC   C3B 1176   8.665   9.054   8.063  0.1822  0.0850  0.1227
   52POPC   C4B 1177   8.325   8.992   7.745  0.2763 -0.1745 -0.0422
   53POPC   NC3 1178   1.112   6.123   8.826 -0.1557 -0.1776 -0.1989
   53POPC   PO4 1179   0.998   6.448   9.088 -0.1527 -0.0030 -0.2730
   53POPC   GL1 1180   1.059   6.731   8.898 -0.0510  0.0871  0.2806
   53POPC   GL2 1181   1.262   6.639   8.642  0.0665 -0.0156  0.1141
   53POPC   C1A 1182   0.806   6.991   8.573  0.0214 -0.1187  0.0580
   53POPC   D2A 1183   0.601   7.221   8.359  0.1787  0.0244  0.1425
   53POPC   C3A 1184   0.700   7.416   7.989  0.2596 -0.1162 -0.1905
   53POPC   C4A 1185   0.537   7.701   7.562 -0.0743  0.1625 -0.0553
   53POPC   C1B 1186   1.230   6.571   8.234 -0.2386 -0.2546  0.1041
   53POPC   C2B 1187   1.091   6.412   7.826 -0.1914  0.1805 -0.0399
   53POPC   C3B 1188   0.870   6.094   7.493  0.0470 -0.1413 -0.0181
   53POPC   C4B 1189   0.915   6.216   7.024 -0.2784  0.0475  0.2392
   54POPC   NC3 1190  10.085   7.778   8.728  0.2355 -0.0132  0.0044
   54POPC   PO4 1191  10.168   8.229   8.649  0.0904 -0.1864 -0.0475
   54POPC   GL1 1192  10.199   7.996   8.290  0.1111 -0.0861  0.1578
   54POPC   GL2 1193   9.853   7.927   8.307  0.2196 -0.1140  0.2562
   54POPC   C1A 1194  10.171   8.071   7.848  0.1848 -0.1394 -0.2163
   54POPC   D2A 1195  10.111   7.712   7.515  0.0390  0.2560  0.0759
   54POPC   C3A 1196   9.746   7.776   7.289  0.1667 -0.2029 -0.0346
   54POPC   C4A 1197   9.665   7.438   6.999 -0.4576  0.5421 -0.0303
   54POPC   C1B 1198   9.684   7.777   7.897 -0.1488 -0.0224  0.0904
   54POPC   C2B 1199   9.611   7.379   7.611  0.3212 -0.1968 -0.1578
   54POPC   C3B 1200   9.546   6.967   7.508  0.3384 -0.0898 -0.0340
   54POPC   C4B 1201   9.478   6.549   7.450  0.0692 -0.2745  0.2527
   55POPC   NC3 1202   7.253   9.803   9.870 -0.0138  0.1362  0.2296
   55POPC   PO4 1203   7.588   9.476   9.797 -0.0392 -0.3023 -0.0401
   55POPC   GL1 1204   7.811   9.580   9.395 -0.0094 -0.0649 -0.2393
   55POPC   GL2 1205   8.091   9.433   9.192 -0.0728  0.1814 -0.1811
   55POPC   C1A 1206   7.842   9.826   8.978  0.2150 -0.1357 -0.0687
   55POPC   D2A 1207   7.989  10.187   8.597  0.1964  0.0755 -0.2964
   55POPC   C3A 1208   7.786  10.584   8.485 -0.2204 -0.4322 -0.0009
   55POPC   C4A 1209   7.669  10.880   8.190 -0.2837  0.1414  0.0132
   55POPC   C1B 1210   8.307   9.193   8.806  0.3425 -0.1248 -0.2399
   55POPC   C2B 1211   8.469   9.396   8.385  0.0845 -0.0471 -0.0389
   55POPC   C3B 1212   8.345   9.465   8.028 -0.0214 -0.3672  0.0502
   55POPC   C4B 1213   8.342   9.589   7.590  0.4347 -0.0082  0.3157
   56POPC   NC3 1214   4.522   4.779   9.425  0.0792 -0.2281  0.1558
   56POPC   PO4 1215   4.159   4.836   9.110 -0.1614 -0.1058  0.1646
   56POPC   GL1 1216   4.454   4.788   8.806  0.0881  0.1965  0.0453
   56POPC   GL2 1217   4.464   4.446   8.672  0.2637 -0.1747  0.4710
   56POPC   C1A 1218   4.760   4.795   8.507  0.3025 -0.3086  0.0035
   56POPC   D2A 1219   4.960   4.959   8.105  0.3623  0.0416  0.4462
   56POPC   C3A 1220   4.913   4.934   7.699  0.1115  0.2611  0.2953
   56POPC   C4A 1221   5.216   5.128   7.450 -0.0953 -0.0926  0.1537
   56POPC   C1B 1222   4.689   4.133   8.403 -0.2973  0.2803 -0.0297
   56POPC   C2B 1223   4.821   3.878   8.224  0.3253  0.2206 -0.2462
   56POPC   C3B 1224   4.920   3.936   7.757 -0.1301 -0.1427 -0.2339
   56POPC   C4B 1225   4.602   3.926   7.407  0.0341  0.2905  0.1723
   57POPC   NC3 1226   4.090   2.754   8.795 -0.2635  0.1435  0.1190
   57POPC   PO4 1227   3.729   2.415   8.661  0.2244 -0.1096  0.2906
   57POPC   GL1 1228   4.017   2.217   8.508 -0.2148  0.0081 -0.3329
   57POPC   GL2 1229   4.350   2.316   8.598  0.0196  0.0080  0.0302
   57POPC   C1A 1230   4.037   2.142   8.091  0.0623  0.0772 -0.1516
   57POPC   D2A 1231   3.939   2.231   7.671 -0.4256 -0.2493 -0.0319
   57POPC   C3A 1232   3.887   2.033   7.311  0.0116 -0.0149  0.0020
   57POPC   C4A 1233   3.594   1.710   7.112  0.0847 -0.0352 -0.0796
   57POPC   C1B 1234   4.527   2.222   8.184  0.1909 -0.0311  0.3238
   57POPC   C2B 1235   4.501   2.328   7.851  0.1176  0.0321  0.1033
   57POPC   C3B 1236   4.636   2.530   7.483  0.0882 -0.1038 -0.2227
   57POPC   C4B 1237   4.558   3.039   7.412 -0.1039  0.0409  0.2668
   58POPC   NC3 1238   6.207   2.078  10.414 -0.2724 -0.1090 -0.5286
   58POPC   PO4 1239   6.445   2.363  10.397 -0.1198  0.2484  0.0816
   58POPC   GL1 1240   6.467   2.439  10.026 -0.0156  0.1010  0.0210
   58POPC   GL2 1241   6.695   2.146   9.911 -0.1246 -0.1116  0.1520
   58POPC   C1A 1242   6.470   2.572   9.669 -0.2040  0.0880 -0.0011
   58POPC   D2A 1243   6.484   2.634   9.145  0.0159  0.0142 -0.0331
   58POPC   C3A 1244   6.803   2.829   8.925  0.1674 -0.1182  0.1777
   58POPC   C4A 1245   6.846   3.123   8.572 -0.0024 -0.1782  0.0127
   58POPC   C1B 1246   7.033   2.335   9.557  0.0297 -0.1941  0.2252
   58POPC   C2B 1247   7.049   2.458   9.170  0.2941  0.2538 -0.1226
   58POPC   C3B 1248   7.014   2.258   8.769 -0.2416  0.0634 -0.0337
   58POPC   C4B 1249   6.718   2.385   8.588 -0.1352 -0.1724 -0.3515
   59POPC   NC3 1250   2.725   6.411   9.290 -0.2431  0.1769 -0.1103
   59POPC   PO4 1251   3.150   6.661   9.240 -0.3020 -0.0533 -0.1259
   59POPC   GL1 1252   3.259   6.774   8.788  0.1426  0.2940 -0.0452
   59POPC   GL2 1253   3.221   7.109   8.782  0.1524 -0.1051 -0.0292
   59POPC   C1A 1254   3.657   6.915   8.458 -0.1961 -0.1863 -0.2158
   59POPC   D2A 1255   3.897   6.876   8.079  0.0298  0.1659  0.0218
   59POPC   C3A 1256   3.985   6.911   7.642  0.1973 -0.3526  0.2007
   59POPC   C4A 1257   3.898   6.975   7.240 -0.0165 -0.1888  0.0578
   59POPC   C1B 1258   3.215   7.450   8.462 -0.0462 -0.2071 -0.3371
   59POPC   C2B 1259   3.501   7.746   8.291 -0.0086 -0.1466  0.1778
   59POPC   C3B 1260   3.824   7.918   8.542 -0.2208 -0.1195  0.0922
   59POPC   C4B 1261   4.155   8.009   8.907 -0.2241  0.1935  0.3495
   60POPC   NC3 1262   4.651   7.422   9.412  0.1239  0.3252 -0.2889
   60POPC   PO4 1263   5.111   7.280   9.191 -0.1366 -0.2064  0.1535
   60POPC   GL1 1264   5.205   7.060   8.807 -0.4585 -0.0913 -0.2402
   60POPC   GL2 1265   4.986   6.757   8.751 -0.0289 -0.0204 -0.1182
   60POPC   C1A 1266   5.222   7.019   8.369  0.3313  0.1278 -0.2399
   60POPC   D2A 1267   4.760   6.843   8.170 -0.0802 -0.3137  0.1926
   60POPC   C3A 1268   4.600   6.508   7.954 -0.0971 -0.0171 -0.0406
   60POPC   C4A 1269   4.707   6.365   7.510  0.0345  0.0843  0.1144
   60POPC   C1B 1270   4.566   6.512   8.545  0.2757  0.1867  0.1040
   60POPC   C2B 1271   4.325   6.643   8.308  0.1877  0.0796  0.1932
   60POPC   C3B 1272   4.286   7.112   8.119 -0.1388  0.2044  0.0109
   60POPC   C4B 1273   4.563   7.447   8.140 -0.1109  0.2500 -0.0612
   61POPC   NC3 1274   9.106   5.455   9.507 -0.2273  0.1062  0.0862
   61POPC   PO4 1275   8.949   5.805   9.336 -0.2014  0.0587 -0.1466
   61POPC   GL1 1276   8.774   5.550   9.039  0.0062  0.0455 -0.1732
   61POPC   GL2 1277   8.445   5.549   9.100  0.0458 -0.1016 -0.1017
   61POPC   C1A 1278   8.899   5.377   8.643 -0.4811  0.1237  0.0868
   61POPC   D2A 1279   9.123   5.303   8.123 -0.1800  0.0908  0.3905
   61POPC   C3A 1280   9.333   5.715   7.898  0.1254  0.0459 -0.1922
   61POPC   C4A 1281   9.647   5.964   7.980 -0.0357  0.0747  0.1814
   61POPC   C1B 1282   8.456   5.165   8.744 -0.1802 -0.2386  0.0816
   61POPC   C2B 1283   8.173   4.871   8.683  0.1612  0.1890 -0.2378
   61POPC   C3B 1284   8.138   4.448   8.504  0.0039  0.4785 -0.0137
   61POPC   C4B 1285   7.925   4.023   8.208  0.2780 -0.0694  0.0467
   62POPC   NC3 1286   6.093   3.059  10.827 -0.0295 -0.0774  0.3514
   62POPC   PO4 1287   6.355   2.903  10.397  0.1707 -0.3952 -0.3533
   62POPC   GL1 1288   6.384   2.985   9.942  0.1797  0.0755  0.3260
   62POPC   GL2 1289   6.492   3.171   9.780 -0.2678 -0.3147  0.0644
   62POPC   C1A 1290   6.081   2.800   9.543 -0.0374 -0.0652  0.2792
   62POPC   D2A 1291   6.029   2.404   9.330 -0.2272 -0.0388  0.0891
   62POPC   C3A 1292   6.163   2.353   8.885 -0.0432 -0.1782 -0.0014
   62POPC   C4A 1293   6.133   2.249   8.550  0.0625  0.0871 -0.2891
   62POPC   C1B 1294   6.146   3.384   9.437 -0.0988 -0.3045  0.1865
   62POPC   C2B 1295   6.178   3.468   8.942  0.1015 -0.1507  0.3361
   62POPC   C3B 1296   5.865   3.282   8.608  0.2272 -0.0250  0.3748
   62POPC   C4B 1297   5.644   3.096   8.380 -0.0497 -0.1419 -0.0448
   63POPC   NC3 1298   1.795   1.624   9.606  0.1823 -0.1229 -0.0775
   63POPC   PO4 1299   1.415   1.628   9.239  0.0298 -0.0963  0.1028
   63POPC   GL1 1300   1.481   1.501   8.804 -0.0699  0.3858 -0.1420
   63POPC   GL2 1301   1.660   1.720   8.597 -0.0021  0.2193  0.1701
   63POPC   C1A 1302   1.037   1.392   8.590  0.0939  0.0186 -0.0444
   63POPC   D2A 1303   0.774   1.649   8.341  0.1181  0.2778  0.2137
   63POPC   C3A 1304   0.587   1.594   8.034 -0.1509 -0.0085  0.0855
   63POPC   C4A 1305   0.385   1.883   7.816 -0.3575  0.2981  0.2487
   63POPC   C1B 1306   1.444   1.494   8.287 -0.0657  0.2301  0.2687
   63POPC   C2B 1307   1.164   1.601   7.882 -0.1047 -0.2167 -0.2741
   63POPC   C3B 1308   0.952   1.730   7.610  0.2784  0.1319 -0.0342
   63POPC   C4B 1309   0.655   1.533   7.443 -0.1230 -0.0136  0.0684
   64POPC   NC3 1310   6.408   7.679   9.520  0.0547  0.2327 -0.2634
   64POPC   PO4 1311   6.327   7.262   9.296 -0.2558 -0.0766  0.2147
   64POPC   GL1 1312   6.191   7.629   9.006  0.2117  0.1086  0.0026
   64POPC   GL2 1313   6.471   7.737   8.944 -0.0031 -0.3258 -0.0414
   64POPC   C1A 1314   6.288   7.600   8.505 -0.1011 -0.0427 -0.0925
   64POPC   D2A 1315   6.350   7.320   8.139 -0.1554  0.0312 -0.0596
   64POPC   C3A 1316   6.017   7.217   7.804 -0.0136  0.1355  0.1511
   64POPC   C4A 1317   5.910   7.093   7.364  0.0786 -0.0790 -0.2326
   64POPC   C1B 1318   6.718   7.760   8.571 -0.0042  0.2194 -0.0398
   64POPC   C2B 1319   6.688   7.704   8.110 -0.2981  0.1276  0.1293
   64POPC   C3B 1320   6.946   7.979   7.935  0.2513  0.0169 -0.3738
   64POPC   C4B 1321   7.169   8.288   7.912  0.0229 -0.1209 -0.4200
   65POPC   NC3 1322   1.176   0.152   9.206 -0.0257 -0.1305 -0.3473
   65POPC   PO4 1323   1.445  -0.048   9.118 -0.2093  0.0016 -0.1561
   65POPC   GL1 1324   1.529   0.001   8.677  0.3914 -0.0948  0.2129
   65POPC   GL2 1325   1.310   0.266   8.401  0.1380  0.0135  0.3192
   65POPC   C1A 1326   1.600  -0.193   8.201 -0.1600  0.0819  0.1574
   65POPC   D2A 1327   1.866  -0.498   8.075 -0.1150  0.1631 -0.2106
   65POPC   C3A 1328   1.681  -0.449   7.666  0.1817 -0.0610  0.2239
   65POPC   C4A 1329   1.500  -0.495   7.249 -0.0032 -0.0172  0.0427
   65POPC   C1B 1330   1.137   0.595   8.121  0.2517  0.0957 -0.0006
   65POPC   C2B 1331   1.085   0.684   7.633  0.0168  0.1783 -0.1806
   65POPC   C3B 1332   1.245   0.830   7.319  0.3408  0.1805 -0.2105
   65POPC   C4B 1333   1.590   1.048   7.105  0.2847 -0.0443  0.3564
   66POPC   NC3 1334   3.837   1.721   8.963 -0.3882  0.2785 -0.0667
   66POPC   PO4 1335   4.168   1.817   8.874 -0.0882  0.1271  0.1073
   66POPC   GL1 1336   4.180   1.712   8.473  0.0539 -0.0639 -0.0670
   66POPC   GL2 1337   4.108   1.510   8.442  0.0976 -0.1070 -0.0598
   66POPC   C1A 1338   4.235   1.723   8.008  0.1624 -0.0431  0.3883
   66POPC   D2A 1339   4.542   1.365   7.770 -0.0522 -0.2539  0.0681
   66POPC   C3A 1340   4.380   1.272   7.280 -0.0717 -0.0931  0.2840
   66POPC   C4A 1341   4.516   1.103   6.909  0.1196 -0.0450 -0.0636
   66POPC   C1B 1342   3.778   1.536   8.161  0.0586  0.0409  0.0837
   66POPC   C2B 1343   3.543   1.434   7.850 -0.1647 -0.0226  0.2637
   66POPC   C3B 1344   3.270   1.401   7.424  0.0646  0.1409  0.1607
   66POPC   C4B 1345   3.091   1.305   7.005 -0.2535 -0.2035 -0.0278
   67POPC   NC3 1346   4.658   9.303   8.795  0.3722  0.0230 -0.0424
   67POPC   PO4 1347   4.454   9.618   8.902  0.1345 -0.1197  0.0798
   67POPC   GL1 1348   4.440   9.671   8.468  0.0465  0.2602  0.1408
   67POPC   GL2 1349   4.168   9.460   8.452 -0.1916 -0.2730 -0.3909
   67POPC   C1A 1350   4.670   9.529   8.115 -0.0675  0.0288 -0.1198
   67POPC   D2A 1351   4.931   9.285   7.822 -0.0193 -0.1426 -0.2194
   67POPC   C3A 1352   5.146   9.051   7.867 -0.2559  0.1441  0.0230
   67POPC   C4A 1353   5.235   8.635   7.672  0.0904 -0.1886 -0.1973
   67POPC   C1B 1354   4.301   9.178   8.126  0.1649  0.1169 -0.0547
   67POPC   C2B 1355   4.445   9.081   7.751 -0.0193 -0.4388  0.1976
   67POPC   C3B 1356   4.696   8.927   7.383  0.1134  0.0161 -0.1834
   67POPC   C4B 1357   4.934   8.635   7.172  0.0738  0.0869 -0.1416
   68POPC   NC3 1358   4.254   0.268   9.449  0.0686 -0.1399 -0.0936
   68POPC   PO4 1359   4.545   0.444   9.101 -0.2217 -0.2078 -0.1386
   68POPC   GL1 1360   4.829   0.600   8.758 -0.1190  0.0923 -0.1128
   68POPC   GL2 1361   4.724   0.587   8.479 -0.1534  0.0588  0.2023
   68POPC   C1A 1362   4.969   1.018   8.620  0.2713  0.1785  0.2490
   68POPC   D2A 1363   5.050   1.408   8.544 -0.0254  0.2204  0.0032
   68POPC   C3A 1364   5.105   1.507   8.107 -0.1233 -0.0720 -0.2046
   68POPC   C4A 1365   5.578   1.684   8.110 -0.0988 -0.1087 -0.0859
   68POPC   C1B 1366   4.945   0.486   8.097  0.1293  0.1767 -0.2905
   68POPC   C2B 1367   5.080   0.598   7.752  0.0253 -0.0504 -0.1462
   68POPC   C3B 1368   5.410   0.795   7.405 -0.0176  0.0978  0.1969
   68POPC   C4B 1369   5.728   0.541   7.097 -0.3209 -0.2508  0.1088
   69POPC   NC3 1370   5.702   6.078   9.493  0.0404 -0.0863 -0.0027
   69POPC   PO4 1371   5.664   6.364   9.308 -0.3058 -0.3629  0.0986
   69POPC   GL1 1372   5.752   6.291   8.905  0.1083 -0.1741  0.0324
   69POPC   GL2 1373   5.787   5.956   8.853  0.1518  0.1808 -0.1244
   69POPC   C1A 1374   5.423   6.123   8.580 -0.3215 -0.0234 -0.1405
   69POPC   D2A 1375   5.313   6.068   8.232  0.0796 -0.2035  0.2506
   69POPC   C3A 1376   5.435   5.753   7.938 -0.2917 -0.3159 -0.0807
   69POPC   C4A 1377   5.545   5.368   7.811 -0.1498 -0.1783 -0.0941
   69POPC   C1B 1378   5.737   5.684   8.542  0.0359 -0.2920  0.3245
   69POPC   C2B 1379   5.908   5.737   8.131 -0.2912  0.2388 -0.0214
   69POPC   C3B 1380   5.878   5.733   7.611 -0.3707  0.2719 -0.2848
   69POPC   C4B 1381   5.916   5.791   7.161 -0.0077  0.0621  0.0206
   70POPC   NC3 1382   6.971   9.433   9.644  0.1006  0.1162 -0.0672
   70POPC   PO4 1383   6.693   9.633   9.375  0.0767 -0.1619 -0.3859
   70POPC   GL1 1384   6.533   9.581   8.970  0.2819  0.0083  0.0397
   70POPC   GL2 1385   6.247   9.761   8.850 -0.1445  0.0238 -0.1119
   70POPC   C1A 1386   6.417   9.153   8.685  0.1348 -0.0414  0.0929
   70POPC   D2A 1387   6.560   8.927   8.303 -0.1365 -0.1839  0.1584
   70POPC   C3A 1388   6.581   9.214   7.998  0.0332  0.0215  0.2112
   70POPC   C4A 1389   6.818   9.565   7.776  0.2185 -0.1527  0.2397
   70POPC   C1B 1390   6.114   9.520   8.446  0.0674  0.2161  0.1720
   70POPC   C2B 1391   6.035   9.536   8.053 -0.2196 -0.1272  0.1137
   70POPC   C3B 1392   6.276   9.576   7.642  0.2441  0.0419 -0.3086
   70POPC   C4B 1393   6.568   9.895   7.501  0.2460  0.1326 -0.0959
   71POPC   NC3 1394   5.734   4.296  10.437 -0.0149 -0.1072 -0.0143
   71POPC   PO4 1395   5.687   4.309   9.899 -0.1981 -0.2574 -0.1653
   71POPC   GL1 1396   5.734   4.196   9.335  0.0529 -0.1870 -0.3187
   71POPC   GL2 1397   5.985   4.389   9.170 -0.1631  0.2293 -0.0907
   71POPC   C1A 1398   5.496   4.132   8.857 -0.1026  0.0620 -0.3788
   71POPC   D2A 1399   5.219   3.968   8.578  0.1522  0.0840 -0.0474
   71POPC   C3A 1400   5.316   3.975   8.078 -0.1222  0.0621 -0.2262
   71POPC   C4A 1401   5.398   4.111   7.702 -0.1582 -0.3763 -0.1373
   71POPC   C1B 1402   5.809   4.476   8.829  0.2279 -0.1415  0.1049
   71POPC   C2B 1403   5.816   4.637   8.446 -0.0303 -0.2818  0.0371
   71POPC   C3B 1404   5.768   5.040   8.100 -0.2256  0.1504 -0.0811
   71POPC   C4B 1405   6.086   5.287   7.951  0.0944  0.0400  0.3669
   72POPC   NC3 1406   0.042   9.594   9.291  0.0284  0.1006 -0.2104
   72POPC   PO4 1407  -0.273   9.602   8.951  0.0176  0.4623  0.0432
   72POPC   GL1 1408  -0.214   9.534   8.514 -0.0322 -0.0017 -0.1340
   72POPC   GL2 1409  -0.409   9.206   8.376 -0.1564 -0.1747  0.2844
   72POPC   C1A 1410  -0.024   9.651   8.129  0.0700  0.0137  0.2013
   72POPC   D2A 1411   0.051   9.854   7.734 -0.2044  0.2630  0.0531
   72POPC   C3A 1412   0.335   9.693   7.406 -0.4952 -0.0816 -0.3713
   72POPC   C4A 1413   0.280   9.766   6.976 -0.1431  0.3276  0.1109
   72POPC   C1B 1414  -0.642   9.328   7.963 -0.0323 -0.2096  0.1583
   72POPC   C2B 1415  -0.560   9.401   7.518 -0.2666 -0.1944 -0.1288
   72POPC   C3B 1416  -0.310   9.691   7.308  0.0544 -0.0876 -0.0295
   72POPC   C4B 1417  -0.053  10.108   7.217  0.0180  0.2008 -0.4748
   73POPC   NC3 1418   5.097   8.707   9.384 -0.1073  0.0983 -0.0096
   73POPC   PO4 1419   4.777   8.833   9.023 -0.0556  0.0461 -0.0112
   73POPC   GL1 1420   5.068   8.949   8.828 -0.1817  0.2819 -0.1794
   73POPC   GL2 1421   5.384   8.695   8.950  0.3164 -0.0534  0.3023
   73POPC   C1A 1422   5.189   9.127   8.487 -0.0757  0.2366  0.0005
   73POPC   D2A 1423   4.862   9.099   8.296  0.3884 -0.3967  0.0757
   73POPC   C3A 1424   4.735   8.763   8.054  0.2167 -0.1598 -0.0826
   73POPC   C4A 1425   4.716   8.601   7.705  0.0648 -0.1921  0.0727
   73POPC   C1B 1426   5.620   8.943   8.691 -0.1268 -0.0969  0.1643
   73POPC   C2B 1427   5.970   9.043   8.400 -0.0680  0.0448 -0.1353
   73POPC   C3B 1428   6.109   9.016   7.937 -0.3021 -0.0161  0.0042
   73POPC   C4B 1429   6.397   9.066   7.513 -0.5051  0.1340 -0.1924
   74POPC   NC3 1430   9.069   1.200   9.914 -0.1409 -0.5455 -0.2711
   74POPC   PO4 1431   8.777   1.555   9.979  0.1256  0.0623 -0.0082
   74POPC   GL1 1432   8.903   1.622   9.626  0.2201 -0.1369  0.0324
   74POPC   GL2 1433   9.034   1.933   9.554  0.0545 -0.4314  0.1197
   74POPC   C1A 1434   8.915   1.675   9.188  0.0117  0.2469  0.0992
   74POPC   D2A 1435   8.699   1.853   8.789 -0.0403  0.0227 -0.0433
   74POPC   C3A 1436   8.512   1.801   8.370  0.0572  0.0581  0.1189
   74POPC   C4A 1437   8.355   1.925   8.162 -0.0266 -0.0276  0.0316
   74POPC   C1B 1438   8.823   2.172   9.189 -0.5033  0.1416 -0.0601
   74POPC   C2B 1439   8.974   2.280   8.746 -0.1276 -0.1459  0.0324
   74POPC   C3B 1440   8.960   2.098   8.356  0.3328 -0.0150 -0.0068
   74POPC   C4B 1441   9.121   1.911   8.048  0.1485  0.4983 -0.0152
   75POPC   NC3 1442  10.022  10.087   8.944 -0.3136  0.2173 -0.0147
   75POPC   PO4 1443   9.745   9.887   9.301 -0.0471 -0.2420 -0.0543
   75POPC   GL1 1444   9.537  10.007   8.856  0.1605  0.0652  0.0153
   75POPC   GL2 1445   9.622  10.340   8.643 -0.1437 -0.0316 -0.0957
   75POPC   C1A 1446   9.610   9.917   8.381 -0.1278 -0.0321 -0.1372
   75POPC   D2A 1447   9.756   9.771   7.863  0.2204  0.0243  0.2225
   75POPC   C3A 1448  10.046   9.378   7.698 -0.0354  0.2241 -0.0848
   75POPC   C4A 1449  10.257   9.253   7.358  0.1274  0.1622  0.0148
   75POPC   C1B 1450   9.293  10.665   8.573  0.0840  0.1866  0.0096
   75POPC   C2B 1451   8.905  10.639   8.686  0.1212  0.1082  0.0447
   75POPC   C3B 1452   8.830  10.959   9.007  0.3112  0.0627  0.0567
   75POPC   C4B 1453   8.822  11.319   9.284  0.1590  0.3008 -0.1604
   76POPC   NC3 1454   3.673   2.655   9.106  0.2171  0.1525  0.1325
   76POPC   PO4 1455   3.623   2.940   8.732 -0.0686  0.4346 -0.2310
   76POPC   GL1 1456   3.682   2.898   8.326 -0.2335 -0.0318 -0.0183
   76POPC   GL2 1457   3.930   2.697   8.315 -0.0002  0.1193 -0.1107
   76POPC   C1A 1458   3.639   3.096   7.940 -0.1928 -0.0144 -0.0784
   76POPC   D2A 1459   3.429   3.412   7.781  0.1226 -0.1207 -0.3805
   76POPC   C3A 1460   3.329   3.279   7.309 -0.0404  0.1575  0.0488
   76POPC   C4A 1461   3.384   3.215   6.871  0.2486 -0.1585  0.0489
   76POPC   C1B 1462   4.131   2.672   7.882 -0.1813  0.2141 -0.0949
   76POPC   C2B 1463   4.162   2.680   7.434 -0.2073  0.1148 -0.1274
   76POPC   C3B 1464   3.814   2.491   7.164 -0.1043  0.0375 -0.3179
   76POPC   C4B 1465   3.458   2.206   6.908 -0.1744 -0.1158 -0.3024
   77POPC   NC3 1466   3.910   5.293   9.159  0.0894 -0.0972 -0.0431
   77POPC   PO4 1467   3.599   5.157   8.884  0.0359  0.0365 -0.1657
   77POPC   GL1 1468   3.483   5.252   8.433  0.1923  0.0969  0.0549
   77POPC   GL2 1469   3.567   5.099   8.201  0.2823 -0.0409 -0.1850
   77POPC   C1A 1470   3.389   5.569   8.164  0.0835  0.3432  0.0379
   77POPC   D2A 1471   3.216   5.855   7.919 -0.0061 -0.0121 -0.0046
   77POPC   C3A 1472   3.429   6.155   7.606  0.0115  0.0070 -0.1586
   77POPC   C4A 1473   3.770   6.391   7.509 -0.0852  0.0285 -0.0032
   77POPC   C1B 1474   3.829   5.310   7.994 -0.0329 -0.0464  0.0263
   77POPC   C2B 1475   4.101   5.487   7.750 -0.0611 -0.2219 -0.1579
   77POPC   C3B 1476   4.334   5.503   7.363  0.1510 -0.4377  0.0271
   77POPC   C4B 1477   4.189   5.635   6.836  0.1333 -0.2498 -0.1419
   78POPC   NC3 1478   9.840   3.780   9.932  0.1062 -0.0567 -0.0214
   78POPC   PO4 1479   9.630   3.373  10.049  0.3283  0.0230 -0.2186
   78POPC   GL1 1480   9.477   3.598   9.658 -0.0114  0.0038 -0.0748
   78POPC   GL2 1481   9.165   3.903   9.583 -0.0413  0.1014 -0.1219
   78POPC   C1A 1482   9.402   3.432   9.223  0.1390  0.1332  0.4933
   78POPC   D2A 1483   9.254   3.105   8.935  0.0696  0.1704  0.1379
   78POPC   C3A 1484   8.894   3.085   8.582 -0.2397  0.0376  0.0507
   78POPC   C4A 1485   9.006   3.046   8.135 -0.2899  0.1530 -0.2767
   78POPC   C1B 1486   8.920   3.754   9.355  0.0630  0.0096 -0.4154
   78POPC   C2B 1487   8.800   3.770   8.952  0.1793 -0.0602 -0.4093
   78POPC   C3B 1488   9.002   3.967   8.586  0.1290 -0.0291  0.1513
   78POPC   C4B 1489   8.894   4.023   8.227  0.1729 -0.0085 -0.4163
   79POPC   NC3 1490   1.362   3.630   9.683 -0.4052 -0.1024  0.2882
   79POPC   PO4 1491   1.528   3.636   9.301  0.1118  0.0353  0.1646
   79POPC   GL1 1492   1.524   3.474   8.884  0.0080  0.0933  0.3584
   79POPC   GL2 1493   1.172   3.456   8.786  0.1187  0.1430 -0.0963
   79POPC   C1A 1494   1.432   3.659   8.357 -0.1302  0.0931 -0.2904
   79POPC   D2A 1495   1.221   3.623   7.927 -0.5039 -0.2226  0.1977
   79POPC   C3A 1496   1.285   3.482   7.479 -0.1189  0.0280  0.2349
   79POPC   C4A 1497   1.366   3.497   6.985 -0.1067  0.0879  0.0303
   79POPC   C1B 1498   1.250   3.186   8.389 -0.0623 -0.1223  0.0071
   79POPC   C2B 1499   1.062   2.977   8.084  0.1569 -0.0180 -0.2016
   79POPC   C3B 1500   1.071   3.078   7.684 -0.2031 -0.0694  0.1840
   79POPC   C4B 1501   1.361   2.992   7.244  0.1434 -0.0864  0.0445
   80POPC   NC3 1502   2.576   7.376   9.484 -0.2059  0.1312 -0.2165
   80POPC   PO4 1503   2.177   7.108   9.391  0.1588 -0.0353 -0.1499
   80POPC   GL1 1504   2.401   7.143   9.052 -0.0859 -0.0763  0.3193
   80POPC   GL2 1505   2.345   6.977   8.726  0.1632  0.0291 -0.1046
   80POPC   C1A 1506   2.781   7.232   8.744 -0.1440  0.2426  0.2848
   80POPC   D2A 1507   2.700   7.259   8.367 -0.0533  0.0098 -0.1587
   80POPC   C3A 1508   2.926   7.238   8.129  0.2180 -0.0469 -0.1510
   80POPC   C4A 1509   3.122   7.124   7.787 -0.1764 -0.0545  0.0225
   80POPC   C1B 1510   2.391   6.835   8.276  0.1475  0.0277 -0.3390
   80POPC   C2B 1511   2.224   6.588   7.996 -0.0568  0.1392 -0.0399
   80POPC   C3B 1512   1.971   6.621   7.636  0.1718  0.1999  0.1406
   80POPC   C4B 1513   1.791   7.085   7.611  0.1992  0.2578 -0.3481
   81POPC   NC3 1514   4.815   4.053   9.942 -0.0862 -0.0367  0.1568
   81POPC   PO4 1515   4.823   3.971   9.392 -0.0383  0.1973 -0.0124
   81POPC   GL1 1516   4.794   4.046   8.901 -0.0809 -0.2568  0.0905
   81POPC   GL2 1517   4.709   3.748   8.710  0.0026 -0.1495 -0.0380
   81POPC   C1A 1518   5.008   4.386   8.727 -0.1829 -0.0961  0.0386
   81POPC   D2A 1519   5.267   4.623   8.624  0.0870  0.0996  0.2689
   81POPC   C3A 1520   5.207   4.497   8.191 -0.0114  0.1900  0.0819
   81POPC   C4A 1521   4.927   4.432   7.919  0.0890  0.2050  0.2144
   81POPC   C1B 1522   5.002   3.441   8.481 -0.1417 -0.1528 -0.0656
   81POPC   C2B 1523   5.354   3.498   8.213 -0.0326  0.1860  0.0487
   81POPC   C3B 1524   5.464   3.625   7.665 -0.3255  0.2851 -0.0164
   81POPC   C4B 1525   5.444   3.462   7.288 -0.1892  0.3116  0.0994
   82POPC   NC3 1526   8.536   8.709  10.001 -0.0286  0.1374 -0.1592
   82POPC   PO4 1527   8.350   8.653   9.655 -0.0659 -0.3060 -0.0005
   82POPC   GL1 1528   8.095   8.771   9.210 -0.0529 -0.0922 -0.0651
   82POPC   GL2 1529   8.334   8.720   8.901 -0.0552  0.1818 -0.4510
   82POPC   C1A 1530   7.815   8.886   8.793 -0.2009  0.2124 -0.1721
   82POPC   D2A 1531   7.371   8.647   8.779 -0.1591  0.0328 -0.2525
   82POPC   C3A 1532   7.304   8.329   8.519  0.1319 -0.2113  0.0662
   82POPC   C4A 1533   7.229   7.922   8.392  0.0138  0.1417 -0.0996
   82POPC   C1B 1534   8.221   8.848   8.485 -0.1203 -0.2071  0.1601
   82POPC   C2B 1535   8.199   8.679   8.120  0.4202 -0.1838 -0.1293
   82POPC   C3B 1536   8.240   8.484   7.709 -0.0147  0.1810 -0.2102
   82POPC   C4B 1537   8.032   8.368   7.381 -0.0625 -0.0725  0.0693
   83POPC   NC3 1538   6.903   6.151   9.501  0.4823  0.2855 -0.0651
   83POPC   PO4 1539   6.604   6.437   9.322  0.2433  0.0775  0.0291
   83POPC   GL1 1540   6.578   6.313   8.875  0.1934 -0.3683 -0.0444
   83POPC   GL2 1541   6.255   6.013   8.762 -0.0236 -0.3046  0.0588
   83POPC   C1A 1542   6.571   6.345   8.511 -0.3184  0.2917 -0.2284
   83POPC   D2A 1543   6.452   6.339   8.078  0.1492  0.2380 -0.2372
   83POPC   C3A 1544   6.594   6.241   7.707  0.1635 -0.1208 -0.2415
   83POPC   C4A 1545   6.304   6.090   7.464  0.0528  0.0586  0.1568
   83POPC   C1B 1546   6.046   6.174   8.393 -0.1792  0.1203  0.0159
   83POPC   C2B 1547   5.723   6.215   8.129 -0.2294 -0.1103  0.0075
   83POPC   C3B 1548   5.525   6.293   7.754 -0.1319 -0.2656  0.2182
   83POPC   C4B 1549   5.516   6.536   7.410  0.1156  0.0870 -0.0246
   84POPC   NC3 1550   2.623   5.752   9.394 -0.0959  0.0488  0.0762
   84POPC   PO4 1551   2.989   5.965   9.199  0.3331 -0.0880 -0.1104
   84POPC   GL1 1552   3.167   6.206   8.984  0.1323 -0.0721  0.1747
   84POPC   GL2 1553   2.918   6.328   8.831  0.1743  0.0061 -0.0792
   84POPC   C1A 1554   3.544   6.329   8.637 -0.1617 -0.0877  0.1347
   84POPC   D2A 1555   3.895   6.379   8.430 -0.2485  0.4508 -0.1534
   84POPC   C3A 1556   4.046   6.381   8.012 -0.0378 -0.4317  0.1204
   84POPC   C4A 1557   4.268   6.407   7.649  0.0789 -0.1131 -0.0698
   84POPC   C1B 1558   2.842   6.720   8.510 -0.1228  0.0085 -0.2964
   84POPC   C2B 1559   2.831   6.762   8.044  0.3894  0.1012  0.1572
   84POPC   C3B 1560   2.651   6.690   7.670 -0.2524 -0.2352  0.1168
   84POPC   C4B 1561   2.656   6.553   7.284  0.1858 -0.0981 -0.0819
   85POPC   NC3 1562   3.273  10.162   9.036  0.0657 -0.0164  0.0899
   85POPC   PO4 1563   3.404  10.426   8.948  0.0971 -0.2221  0.1780
   85POPC   GL1 1564   3.303  10.463   8.525  0.2160 -0.1317 -0.2306
   85POPC   GL2 1565   3.452  10.201   8.497 -0.0456 -0.2988  0.3423
   85POPC   C1A 1566   3.161  10.645   8.077 -0.0161 -0.0998  0.1374
   85POPC   D2A 1567   2.868  10.662   7.790 -0.1243  0.0719 -0.2021
   85POPC   C3A 1568   2.911  10.319   7.640  0.0989  0.4218  0.3119
   85POPC   C4A 1569   2.964   9.926   7.633  0.2299  0.6447  0.0601
   85POPC   C1B 1570   3.683  10.400   8.269  0.0309  0.0979 -0.0069
   85POPC   C2B 1571   3.578  10.505   7.847  0.1703 -0.1431 -0.1576
   85POPC   C3B 1572   3.309  10.691   7.599  0.0533  0.1268 -0.0365
   85POPC   C4B 1573   3.146  10.609   7.191 -0.1996  0.2640  0.1765
   86POPC   NC3 1574   3.517   9.325   9.532  0.1879 -0.1349  0.1090
   86POPC   PO4 1575   3.287   9.253   9.137  0.1186  0.0137  0.0580
   86POPC   GL1 1576   3.360   9.097   8.731  0.3327 -0.0980 -0.1002
   86POPC   GL2 1577   3.120   8.917   8.678  0.0436  0.2754 -0.2299
   86POPC   C1A 1578   3.093   9.231   8.326  0.0896 -0.0795 -0.0075
   86POPC   D2A 1579   2.616   9.159   8.369  0.0311  0.2806 -0.1995
   86POPC   C3A 1580   2.294   9.167   8.063  0.2714 -0.0951  0.0132
   86POPC   C4A 1581   2.153   9.458   7.749 -0.0132 -0.2390  0.0547
   86POPC   C1B 1582   3.441   8.849   8.313 -0.1953  0.2702 -0.3176
   86POPC   C2B 1583   3.417   8.684   7.908 -0.2164  0.0642  0.0920
   86POPC   C3B 1584   3.400   8.377   7.625 -0.0196 -0.1244 -0.1463
   86POPC   C4B 1585   3.198   8.028   7.596  0.0541  0.1691 -0.0170
   87POPC   NC3 1586   8.470   6.480   8.803  0.2064 -0.1402  0.1921
   87POPC   PO4 1587   8.408   6.798   9.097  0.0356  0.2526 -0.0680
   87POPC   GL1 1588   8.049   6.768   8.835 -0.2042 -0.1595 -0.1172
   87POPC   GL2 1589   8.002   6.600   8.568 -0.0625  0.1325 -0.0378
   87POPC   C1A 1590   7.716   6.957   8.460  0.0996 -0.1209 -0.1788
   87POPC   D2A 1591   7.486   7.033   8.200 -0.0676  0.2295  0.1916
   87POPC   C3A 1592   7.179   6.812   8.194  0.2135 -0.0891 -0.2365
   87POPC   C4A 1593   6.924   6.626   7.790  0.3281  0.1132  0.0227
   87POPC   C1B 1594   7.904   6.420   8.174  0.2443 -0.1469 -0.2344
   87POPC   C2B 1595   7.799   6.207   7.759 -0.1196  0.0207  0.1149
   87POPC   C3B 1596   7.658   6.138   7.415 -0.0047  0.1119 -0.2045
   87POPC   C4B 1597   7.656   6.473   7.039  0.4421  0.0287 -0.0916
   88POPC   NC3 1598   8.848   4.027  10.179  0.0007  0.1820 -0.2810
   88POPC   PO4 1599   8.618   3.703  10.382 -0.1844 -0.3083  0.2235
   88POPC   GL1 1600   8.637   3.702   9.874 -0.1287 -0.3469  0.0574
   88POPC   GL2 1601   8.519   3.986   9.683 -0.0604 -0.2744 -0.0309
   88POPC   C1A 1602   8.422   3.526   9.482  0.0353 -0.2399  0.0641
   88POPC   D2A 1603   8.144   3.297   9.294 -0.4424  0.1636  0.1624
   88POPC   C3A 1604   7.856   2.998   9.131 -0.0543  0.0368 -0.0699
   88POPC   C4A 1605   7.958   2.577   9.324  0.1509 -0.0447  0.1220
   88POPC   C1B 1606   8.421   4.110   9.187 -0.3472 -0.1824  0.5089
   88POPC   C2B 1607   8.492   4.459   8.890 -0.1685  0.0742  0.0298
   88POPC   C3B 1608   8.634   4.520   8.439 -0.0797 -0.1618 -0.3870
   88POPC   C4B 1609   8.789   4.417   8.018 -0.1727 -0.1381 -0.0553
   89POPC   NC3 1610   2.368   2.317   8.745 -0.0022 -0.2752 -0.2519
   89POPC   PO4 1611   2.798   2.484   8.643 -0.0371  0.1569  0.1512
   89POPC   GL1 1612   2.863   2.280   8.267 -0.1016  0.1407 -0.2798
   89POPC   GL2 1613   3.001   2.016   8.219 -0.0986 -0.3962  0.0670
   89POPC   C1A 1614   3.109   2.371   7.854  0.1280 -0.1332  0.1473
   89POPC   D2A 1615   3.118   2.729   7.632  0.1813 -0.0106  0.1727
   89POPC   C3A 1616   2.878   2.852   7.287  0.0019 -0.0882  0.2947
   89POPC   C4A 1617   2.767   3.209   7.011  0.0154 -0.0664 -0.0122
   89POPC   C1B 1618   2.808   2.004   7.868 -0.0434  0.1369 -0.0155
   89POPC   C2B 1619   2.707   2.136   7.607 -0.0584 -0.1142 -0.1153
   89POPC   C3B 1620   2.689   2.388   7.193  0.1886  0.1983 -0.2557
   89POPC   C4B 1621   2.810   2.410   6.835  0.1302 -0.0890  0.0510
   90POPC   NC3 1622   0.665   6.846   9.166  0.3515  0.0015 -0.1908
   90POPC   PO4 1623   0.488   6.431   9.036 -0.1836  0.1469  0.4566
   90POPC   GL1 1624   0.251   6.493   8.755  0.1679  0.2901  0.0137
   90POPC   GL2 1625   0.299   6.202   8.633 -0.0380  0.2176 -0.0697
   90POPC   C1A 1626   0.397   6.635   8.327 -0.2571  0.0118 -0.3835
   90POPC   D2A 1627   0.764   6.780   8.141 -0.1389  0.1947 -0.0933
   90POPC   C3A 1628   0.704   6.669   7.665 -0.0466  0.1542 -0.2617
   90POPC   C4A 1629   0.545   6.417   7.272 -0.0601  0.0508 -0.4802
   90POPC   C1B 1630   0.374   5.751   8.262  0.2418  0.2330  0.2483
   90POPC   C2B 1631   0.359   5.841   7.842 -0.0875  0.4428  0.3783
   90POPC   C3B 1632   0.252   6.011   7.414  0.0621 -0.2249 -0.4645
   90POPC   C4B 1633   0.054   6.233   7.285  0.0912 -0.0151  0.3850
   91POPC   NC3 1634   1.065   4.936   9.485  0.2060 -0.0787  0.5321
   91POPC   PO4 1635   0.531   5.000   9.379 -0.1384  0.0062  0.0181
   91POPC   GL1 1636   0.778   4.828   8.907  0.0234  0.2309  0.0162
   91POPC   GL2 1637   0.945   4.714   8.682 -0.2176  0.2013  0.0629
   91POPC   C1A 1638   0.509   4.500   8.684 -0.0932  0.1140  0.0097
   91POPC   D2A 1639   0.327   4.042   8.584  0.1952 -0.2030  0.0963
   91POPC   C3A 1640   0.678   3.744   8.487  0.2742  0.3642 -0.0930
   91POPC   C4A 1641   1.069   3.886   8.524  0.0508  0.0569 -0.0342
   91POPC   C1B 1642   0.705   4.827   8.382  0.3044  0.2273 -0.2254
   91POPC   C2B 1643   0.642   4.683   7.987  0.1539 -0.0860 -0.0175
   91POPC   C3B 1644   0.529   4.827   7.548 -0.0460  0.0870  0.1815
   91POPC   C4B 1645   0.063   4.948   7.314  0.0922 -0.0344  0.2526
   92POPC   NC3 1646   0.996   2.954   9.120  0.0242 -0.0132 -0.0285
   92POPC   PO4 1647   0.819   2.549   9.168  0.2976  0.0935  0.0521
   92POPC   GL1 1648   0.609   2.384   8.872  0.3050  0.2822  0.0816
   92POPC   GL2 1649   0.712   2.063   8.652 -0.0520  0.1154  0.1028
   92POPC   C1A 1650   0.541   2.554   8.497 -0.0747  0.0157  0.1193
   92POPC   D2A 1651   0.561   2.733   8.232 -0.1294  0.0824  0.0583
   92POPC   C3A 1652   0.333   3.185   8.228 -0.2053 -0.2377  0.1643
   92POPC   C4A 1653   0.304   3.736   8.064 -0.0001  0.1525  0.2445
   92POPC   C1B 1654   0.495   2.152   8.239  0.0268  0.2716  0.1756
   92POPC   C2B 1655   0.132   2.361   8.098 -0.1223 -0.0490 -0.1164
   92POPC   C3B 1656  -0.290   2.383   7.942 -0.1672  0.0542  0.0294
   92POPC   C4B 1657  -0.402   2.567   7.586  0.0476 -0.1663  0.0267
   93POPC   NC3 1658   1.808   4.617   8.821 -0.2713  0.1886  0.1009
   93POPC   PO4 1659   2.013   4.316   8.515  0.0392 -0.3357 -0.2386
   93POPC   GL1 1660   1.833   4.145   8.087  0.0909  0.0668 -0.1005
   93POPC   GL2 1661   1.625   4.433   7.913  0.0972 -0.1632  0.3633
   93POPC   C1A 1662   1.674   3.842   7.727  0.2538 -0.0177  0.1032
   93POPC   D2A 1663   1.757   3.661   7.277 -0.4158 -0.1148 -0.1330
   93POPC   C3A 1664   1.781   3.202   7.387  0.0791 -0.0875  0.1066
   93POPC   C4A 1665   1.800   2.855   7.361  0.0422  0.5070  0.0868
   93POPC   C1B 1666   1.460   4.552   7.475  0.1140 -0.1720 -0.1659
   93POPC   C2B 1667   1.140   4.456   7.241  0.0533  0.3007 -0.0054
   93POPC   C3B 1668   0.775   4.469   6.984  0.0096 -0.1990  0.0192
   93POPC   C4B 1669   0.309   4.604   7.103 -0.1478  0.1063  0.1444
   94POPC   NC3 1670   4.380   6.062   9.569 -0.1941  0.0136 -0.0584
   94POPC   PO4 1671   4.188   5.712   9.394 -0.1032  0.0703 -0.0134
   94POPC   GL1 1672   4.145   5.713   8.997  0.0571  0.6162  0.1361
   94POPC   GL2 1673   3.838   5.575   8.743 -0.2613  0.1110 -0.0395
   94POPC   C1A 1674   4.203   5.957   8.654  0.0159  0.1281 -0.0717
   94POPC   D2A 1675   4.400   6.172   8.263 -0.1387 -0.2851  0.0396
   94POPC   C3A 1676   4.553   5.999   7.843  0.2377 -0.0637  0.1012
   94POPC   C4A 1677   4.660   5.859   7.470  0.1675 -0.0056  0.2172
   94POPC   C1B 1678   3.729   5.853   8.471 -0.1448  0.1722  0.1258
   94POPC   C2B 1679   3.525   6.150   8.107  0.1267 -0.1497 -0.0293
   94POPC   C3B 1680   3.556   6.509   8.002 -0.1427  0.1775 -0.2012
   94POPC   C4B 1681   3.503   6.838   7.716  0.0305  0.2071 -0.1489
   95POPC   NC3 1682   7.750   0.993  10.819 -0.0770  0.0178  0.0406
   95POPC   PO4 1683   7.933   1.171  10.462  0.0284  0.0038 -0.0358
   95POPC   GL1 1684   7.653   1.103  10.039  0.0248  0.0939 -0.1750
   95POPC   GL2 1685   7.861   1.313   9.876 -0.0548 -0.1490  0.1930
   95POPC   C1A 1686   7.496   1.111   9.609 -0.0705 -0.0018 -0.0062
   95POPC   D2A 1687   7.350   0.701   9.304 -0.0761  0.0806  0.2284
   95POPC   C3A 1688   7.605   0.293   9.393 -0.3638  0.1443  0.0334
   95POPC   C4A 1689   7.955   0.240   9.036 -0.1336  0.2611  0.0826
   95POPC   C1B 1690   7.974   1.281   9.451  0.0618 -0.0634 -0.2233
   95POPC   C2B 1691   8.229   1.030   9.050  0.0164  0.1504  0.1434
   95POPC   C3B 1692   8.516   1.087   8.683  0.2348  0.2813 -0.4185
   95POPC   C4B 1693   8.626   1.290   8.374  0.0705  0.0084  0.2021
   96POPC   NC3 1694   2.760   9.569   9.174  0.0295 -0.0880 -0.0721
   96POPC   PO4 1695   2.435   9.551   8.849 -0.0802 -0.1189 -0.0091
   96POPC   GL1 1696   2.527   9.720   8.396  0.0199 -0.3217 -0.0162
   96POPC   GL2 1697   2.826   9.691   8.310  0.0147 -0.1152  0.0950
   96POPC   C1A 1698   2.431   9.790   8.022 -0.1662  0.0022 -0.3132
   96POPC   D2A 1699   2.476   9.844   7.581 -0.1302  0.0787  0.0489
   96POPC   C3A 1700   2.087   9.777   7.325  0.1737  0.0320  0.0522
   96POPC   C4A 1701   1.831   9.317   7.368 -0.2522  0.1662 -0.2237
   96POPC   C1B 1702   2.710   9.446   7.872  0.1126  0.1935 -0.2624
   96POPC   C2B 1703   2.980   9.373   7.513 -0.1577  0.0107 -0.2286
   96POPC   C3B 1704   3.299   9.663   7.415 -0.1140 -0.1309  0.1636
   96POPC   C4B 1705   3.657   9.644   7.618 -0.0239  0.0303 -0.1260
   97POPC   NC3 1706   9.612   1.937  10.225  0.3057 -0.0582  0.0787
   97POPC   PO4 1707   9.279   2.155   9.947  0.2529 -0.2166 -0.4961
   97POPC   GL1 1708   9.111   2.406   9.621  0.3953 -0.1086  0.2613
   97POPC   GL2 1709   8.939   2.743   9.677 -0.0703  0.3500  0.3609
   97POPC   C1A 1710   9.278   2.324   9.183 -0.0090 -0.0145 -0.0143
   97POPC   D2A 1711   9.331   1.928   9.114 -0.0240 -0.1568 -0.3157
   97POPC   C3A 1712   9.194   1.775   8.754  0.1281 -0.4259 -0.0139
   97POPC   C4A 1713   9.118   1.401   8.434 -0.1034  0.1620  0.0351
   97POPC   C1B 1714   8.556   3.036   9.530  0.2774  0.0607  0.1474
   97POPC   C2B 1715   8.188   2.943   9.651  0.1020  0.0115 -0.0380
   97POPC   C3B 1716   7.777   3.092   9.641  0.0514  0.0834  0.2346
   97POPC   C4B 1717   7.487   3.232   9.362  0.0584 -0.0948  0.1160
   98POPC   NC3 1718   9.102   6.462   9.357  0.3476  0.3856  0.0871
   98POPC   PO4 1719   9.339   6.710   9.011  0.0393  0.0805  0.1830
   98POPC   GL1 1720   9.350   6.496   8.766 -0.1395  0.3925  0.1583
   98POPC   GL2 1721   9.475   6.724   8.543 -0.1546 -0.1642 -0.0576
   98POPC   C1A 1722   9.030   6.276   8.452 -0.2250  0.0957 -0.0801
   98POPC   D2A 1723   8.750   6.267   8.187 -0.3964  0.0190  0.0919
   98POPC   C3A 1724   8.334   6.079   8.220 -0.1217  0.0134 -0.3309
   98POPC   C4A 1725   7.936   5.923   8.219 -0.0564  0.1291 -0.2821
   98POPC   C1B 1726   9.488   6.326   8.287  0.0388 -0.1391 -0.0063
   98POPC   C2B 1727   9.257   6.215   7.929 -0.0833 -0.1743 -0.0281
   98POPC   C3B 1728   8.994   6.335   7.678  0.0180 -0.0014  0.1615
   98POPC   C4B 1729   8.617   6.119   7.513 -0.1520  0.0426  0.1205
   99POPC   NC3 1730   9.137   9.545   9.017 -0.0784  0.4829 -0.1147
   99POPC   PO4 1731   8.742   9.529   9.263 -0.0950 -0.1013 -0.0359
   99POPC   GL1 1732   8.732   9.664   8.743  0.1744 -0.1284 -0.0902
   99POPC   GL2 1733   8.851   9.375   8.647 -0.2733  0.2105  0.1296
   99POPC   C1A 1734   8.730   9.845   8.318 -0.1897  0.1455 -0.1993
   99POPC   D2A 1735   8.891   9.842   7.878  0.1320 -0.1924  0.1619
   99POPC   C3A 1736   9.190   9.597   7.569  0.2642  0.1344 -0.1307
   99POPC   C4A 1737   9.230   9.354   7.244 -0.0106  0.2846  0.1061
   99POPC   C1B 1738   8.721   8.954   8.585  0.1921  0.1846  0.0878
   99POPC   C2B 1739   8.673   8.606   8.347  0.1599  0.1793  0.0776
   99POPC   C3B 1740   8.710   8.576   7.931  0.0774  0.2124 -0.0633
   99POPC   C4B 1741   8.948   8.674   7.455 -0.1894 -0.0211  0.3005
  100POPC   NC3 1742   5.424   0.118   9.812 -0.1999 -0.2290  0.1284
  100POPC   PO4 1743   5.702   0.017   9.469 -0.0743  0.0099  0.1898
  100POPC   GL1 1744   5.971   0.047   9.035  0.0051  0.2179  0.1864
  100POPC   GL2 1745   5.830  -0.098   8.757 -0.1214 -0.1083 -0.2068
  100POPC   C1A 1746   6.309   0.102   8.677  0.1470  0.0923 -0.0553
  100POPC   D2A 1747   6.257   0.426   8.299 -0.1396 -0.0681  0.2518
  100POPC   C3A 1748   6.065   0.801   8.336  0.0958  0.0447 -0.1512
  100POPC   C4A 1749   6.261   1.112   8.180  0.0018  0.0966 -0.2257
  100POPC   C1B 1750   5.798   0.286   8.518 -0.1732  0.1378 -0.1645
  100POPC   C2B 1751   5.840   0.366   8.018 -0.0638 -0.1577 -0.2235
  100POPC   C3B 1752   5.516   0.389   7.692 -0.0973 -0.0212  0.0696
  100POPC   C4B 1753   5.274   0.323   7.308  0.2233 -0.0258  0.1728
  101POPC   NC3 1754   4.115   4.367   9.161 -0.2263 -0.1131 -0.1471
  101POPC   PO4 1755   3.784   4.137   9.061  0.1099 -0.2733  0.2495
  101POPC   GL1 1756   3.997   4.286   8.638 -0.3095  0.1757  0.2123
  101POPC   GL2 1757   4.075   4.693   8.509 -0.0323  0.0771  0.1031
  101POPC   C1A 1758   4.261   3.948   8.444  0.0729  0.0640  0.2553
  101POPC   D2A 1759   4.385   3.621   8.294 -0.1986  0.1021  0.0530
  101POPC   C3A 1760   4.448   3.697   7.835 -0.2828 -0.0281  0.3939
  101POPC   C4A 1761   4.356   3.475   7.563 -0.3195  0.2001  0.0548
  101POPC   C1B 1762   4.108   4.405   8.137 -0.0742  0.0398 -0.0713
  101POPC   C2B 1763   4.433   4.241   7.911 -0.1250  0.0393  0.0298
  101POPC   C3B 1764   4.596   4.436   7.564 -0.1806  0.1506  0.1534
  101POPC   C4B 1765   4.858   4.639   7.308 -0.0417  0.0336 -0.0603
  102POPC   NC3 1766   5.133   0.520   9.673 -0.0571 -0.4314  0.0281
  102POPC   PO4 1767   5.403   0.405   9.332 -0.0792 -0.0761 -0.3816
  102POPC   GL1 1768   5.563   0.390   8.977 -0.1111  0.0635 -0.1787
  102POPC   GL2 1769   5.298   0.223   8.682 -0.1305 -0.0763 -0.1058
  102POPC   C1A 1770   5.830   0.712   8.824 -0.0647 -0.0414 -0.0248
  102POPC   D2A 1771   6.123   0.900   8.885  0.3536 -0.0975 -0.1212
  102POPC   C3A 1772   6.501   0.912   8.715  0.0752  0.2193  0.1227
  102POPC   C4A 1773   6.827   0.847   9.059 -0.3119  0.3732 -0.2418
  102POPC   C1B 1774   5.341   0.253   8.184  0.2576  0.0772 -0.1564
  102POPC   C2B 1775   5.165   0.085   7.776 -0.1475 -0.0294  0.2138
  102POPC   C3B 1776   5.230  -0.112   7.443 -0.2159  0.1928 -0.0622
  102POPC   C4B 1777   4.945  -0.458   7.155  0.0534 -0.1101  0.0703
  103POPC   NC3 1778   3.966   3.667   8.975  0.1503  0.0719 -0.1319
  103POPC   PO4 1779   4.312   3.433   8.831  0.3168 -0.0496  0.3535
  103POPC   GL1 1780   4.105   3.200   8.557 -0.2317 -0.0838 -0.2713
  103POPC   GL2 1781   3.827   3.342   8.497  0.1588  0.0778 -0.3003
  103POPC   C1A 1782   4.139   3.107   8.090  0.2090 -0.1804  0.1748
  103POPC   D2A 1783   4.073   3.113   7.665  0.3858  0.2065  0.2553
  103POPC   C3A 1784   3.831   3.403   7.456 -0.2710 -0.0125  0.1145
  103POPC   C4A 1785   3.679   3.615   7.080  0.0484 -0.2586 -0.0872
  103POPC   C1B 1786   3.881   3.538   8.144 -0.1965 -0.2429 -0.0707
  103POPC   C2B 1787   3.971   3.988   8.032 -0.0011 -0.0279  0.1656
  103POPC   C3B 1788   4.104   4.078   7.598 -0.2697  0.4644  0.1136
  103POPC   C4B 1789   4.140   4.463   7.387  0.4266 -0.0379 -0.0186
  104POPC   NC3 1790   8.554   2.633  10.993  0.0579 -0.2921  0.0596
  104POPC   PO4 1791   8.160   2.844  10.665  0.0979 -0.0125  0.0424
  104POPC   GL1 1792   8.160   2.817  10.142  0.1192 -0.0217 -0.2954
  104POPC   GL2 1793   8.482   2.880  10.038 -0.0404 -0.2996  0.1405
  104POPC   C1A 1794   7.903   2.541   9.798  0.3589  0.3775  0.2516
  104POPC   D2A 1795   7.569   2.258   9.468 -0.2812  0.1729  0.2326
  104POPC   C3A 1796   7.511   2.384   8.991 -0.0871  0.0988  0.1511
  104POPC   C4A 1797   7.519   2.613   8.598  0.0233 -0.3760 -0.2252
  104POPC   C1B 1798   8.400   2.507   9.804 -0.2664 -0.0500  0.1147
  104POPC   C2B 1799   8.239   2.138   9.519 -0.0292  0.1380 -0.1313
  104POPC   C3B 1800   8.300   1.981   9.162 -0.4135 -0.1848  0.0567
  104POPC   C4B 1801   8.152   1.921   8.784  0.0882 -0.0542  0.0823
  105POPC   NC3 1802   8.383   9.690   9.559 -0.1386 -0.1008  0.3753
  105POPC   PO4 1803   8.502  10.042   9.313 -0.3516  0.0582  0.0086
  105POPC   GL1 1804   8.349  10.080   8.876 -0.2132 -0.0210 -0.1481
  105POPC   GL2 1805   8.270   9.730   8.765 -0.2345 -0.4554 -0.0889
  105POPC   C1A 1806   8.429  10.402   8.564 -0.0126  0.0159 -0.2734
  105POPC   D2A 1807   8.342  10.375   8.185 -0.2811 -0.0946  0.0696
  105POPC   C3A 1808   7.921  10.351   8.046  0.1979  0.2292  0.0494
  105POPC   C4A 1809   7.533  10.287   8.160 -0.1019  0.2165  0.1593
  105POPC   C1B 1810   8.262   9.847   8.280  0.5487  0.1415 -0.3259
  105POPC   C2B 1811   8.428  10.023   7.875 -0.0373  0.2403  0.0675
  105POPC   C3B 1812   8.600  10.080   7.522  0.0111  0.0971  0.1942
  105POPC   C4B 1813   8.584   9.899   7.149 -0.0747  0.0821  0.0730
  106POPC   NC3 1814   6.694   0.335   9.938 -0.1019  0.0098  0.0583
  106POPC   PO4 1815   6.960   0.000  10.151  0.0091  0.0177  0.1546
  106POPC   GL1 1816   6.906  -0.089   9.689 -0.0320 -0.1879  0.0289
  106POPC   GL2 1817   6.680  -0.074   9.649 -0.3070 -0.1747  0.0727
  106POPC   C1A 1818   7.121  -0.141   9.249  0.1643  0.0541 -0.0740
  106POPC   D2A 1819   7.082  -0.396   8.829 -0.0496 -0.1516  0.0034
  106POPC   C3A 1820   7.412  -0.428   8.560  0.1062 -0.0537  0.1325
  106POPC   C4A 1821   7.619  -0.377   8.250 -0.1038  0.1562 -0.0670
  106POPC   C1B 1822   6.663   0.157   9.285 -0.0443 -0.0139 -0.3067
  106POPC   C2B 1823   6.694  -0.034   8.954 -0.1462 -0.0196 -0.1753
  106POPC   C3B 1824   6.654  -0.296   8.549 -0.2012 -0.1867  0.0386
  106POPC   C4B 1825   6.565  -0.498   8.254 -0.2114 -0.0519  0.0144
  107POPC   NC3 1826   6.836   5.621   9.735  0.1663 -0.0972  0.2479
  107POPC   PO4 1827   6.563   5.426   9.370  0.1810 -0.0888 -0.1314
  107POPC   GL1 1828   6.391   4.959   9.190 -0.2320 -0.0448  0.1322
  107POPC   GL2 1829   6.466   4.585   9.234 -0.0092  0.1664 -0.0096
  107POPC   C1A 1830   6.302   4.807   8.860 -0.0277  0.3615  0.3736
  107POPC   D2A 1831   6.262   4.406   8.659  0.0759 -0.1144  0.2643
  107POPC   C3A 1832   6.268   4.449   8.244  0.0002 -0.0776  0.0681
  107POPC   C4A 1833   6.325   4.305   7.855  0.1024 -0.0186 -0.1752
  107POPC   C1B 1834   6.494   4.202   9.065 -0.1492 -0.1508 -0.0123
  107POPC   C2B 1835   6.514   3.922   8.787 -0.3741 -0.0694 -0.1272
  107POPC   C3B 1836   6.613   3.553   8.662 -0.0962  0.1020 -0.1265
  107POPC   C4B 1837   6.324   3.338   8.440  0.1428  0.3378  0.1285
  108POPC   NC3 1838   6.732   8.499   9.586  0.2368  0.0300 -0.3826
  108POPC   PO4 1839   6.927   8.912   9.658  0.1162 -0.0053  0.1012
  108POPC   GL1 1840   6.827   8.978   9.268  0.3416 -0.1374 -0.1155
  108POPC   GL2 1841   6.963   9.260   9.082 -0.5029 -0.0976  0.2450
  108POPC   C1A 1842   6.754   8.743   8.839  0.3675  0.1535 -0.0197
  108POPC   D2A 1843   7.050   8.773   8.452  0.0828  0.0191  0.0565
  108POPC   C3A 1844   7.031   9.062   8.180 -0.2235  0.1009  0.2649
  108POPC   C4A 1845   7.146   9.263   7.746  0.1476 -0.0909 -0.0720
  108POPC   C1B 1846   6.929   9.202   8.631  0.2351  0.1559  0.2210
  108POPC   C2B 1847   7.027   9.520   8.189  0.1525  0.0351 -0.0671
  108POPC   C3B 1848   7.276   9.716   7.945 -0.0841 -0.3854  0.1742
  108POPC   C4B 1849   7.517   9.642   7.504 -0.0152 -0.2535  0.1040
  109POPC   NC3 1850   7.964   1.659  10.434  0.0711  0.1433  0.2289
  109POPC   PO4 1851   8.055   2.024  10.270  0.0962  0.2452 -0.0935
  109POPC   GL1 1852   7.787   1.859   9.989  0.3155 -0.0142  0.0100
  109POPC   GL2 1853   7.563   1.682  10.111 -0.1136 -0.0771 -0.3118
  109POPC   C1A 1854   7.836   1.760   9.532  0.0444  0.0504 -0.1803
  109POPC   D2A 1855   7.835   1.899   9.237  0.0143 -0.1728 -0.0399
  109POPC   C3A 1856   7.758   1.627   8.894  0.2265 -0.2440  0.0691
  109POPC   C4A 1857   7.879   1.282   8.932  0.2445 -0.0945  0.1670
  109POPC   C1B 1858   7.358   1.620   9.681 -0.1442 -0.3390 -0.4148
  109POPC   C2B 1859   7.520   1.464   9.303  0.2070 -0.2607 -0.0240
  109POPC   C3B 1860   7.434   1.102   8.967  0.0171 -0.0786  0.2632
  109POPC   C4B 1861   7.383   1.226   8.545 -0.1510 -0.2522  0.1188
  110POPC   NC3 1862   5.443  10.115   9.064  0.0856 -0.1066 -0.1139
  110POPC   PO4 1863   4.990  10.373   9.059 -0.2427  0.1222 -0.0220
  110POPC   GL1 1864   4.812  10.181   8.727  0.2340 -0.1224 -0.1449
  110POPC   GL2 1865   4.526  10.314   8.673 -0.1575 -0.2120  0.0452
  110POPC   C1A 1866   4.894  10.220   8.311  0.0249  0.1368 -0.0148
  110POPC   D2A 1867   4.785  10.023   8.005  0.0957 -0.0538  0.1090
  110POPC   C3A 1868   4.736   9.868   7.628  0.1212  0.2448 -0.1138
  110POPC   C4A 1869   4.617   9.449   7.446  0.0785  0.1563 -0.2604
  110POPC   C1B 1870   4.394  10.260   8.182  0.2644 -0.1813 -0.1564
  110POPC   C2B 1871   4.096  10.304   7.870 -0.1904 -0.0669  0.0993
  110POPC   C3B 1872   3.906  10.183   7.487 -0.1022  0.0111  0.1045
  110POPC   C4B 1873   3.660  10.310   7.114 -0.3505  0.4023  0.0625
  111POPC   NC3 1874   0.513   8.522   8.631 -0.0038 -0.1299 -0.1820
  111POPC   PO4 1875   0.521   8.917   8.840  0.0657 -0.1570 -0.1130
  111POPC   GL1 1876   0.583   8.912   8.344  0.1889 -0.0633 -0.1561
  111POPC   GL2 1877   0.705   9.120   8.161 -0.3979  0.4924 -0.0747
  111POPC   C1A 1878   0.482   8.692   7.973 -0.0057 -0.2310  0.0437
  111POPC   D2A 1879   0.181   8.694   7.698  0.0744 -0.1836  0.0438
  111POPC   C3A 1880   0.099   8.720   7.307 -0.0071  0.1236  0.3234
  111POPC   C4A 1881   0.406   8.819   6.998 -0.0541  0.0061  0.3352
  111POPC   C1B 1882   0.717   9.596   7.871  0.1675 -0.0629  0.0782
  111POPC   C2B 1883   0.750   9.957   7.622 -0.1430 -0.3807 -0.1345
  111POPC   C3B 1884   0.633  10.090   7.141 -0.0961  0.3689  0.1059
  111POPC   C4B 1885   0.418  10.170   6.686  0.0891 -0.2350 -0.3143
  112POPC   NC3 1886   4.078   8.668   9.182  0.0750  0.0105 -0.1238
  112POPC   PO4 1887   4.245   9.045   9.196  0.1028  0.3709  0.0619
  112POPC   GL1 1888   4.189   9.018   8.727 -0.1515 -0.1192  0.3235
  112POPC   GL2 1889   3.930   8.979   8.532  0.1404  0.0431 -0.1079
  112POPC   C1A 1890   4.501   8.796   8.454 -0.1106  0.2483  0.1046
  112POPC   D2A 1891   4.799   8.469   8.427 -0.1764  0.1290 -0.1576
  112POPC   C3A 1892   4.992   8.325   8.052  0.0556 -0.2133 -0.1819
  112POPC   C4A 1893   5.520   8.265   7.982 -0.0232 -0.5196  0.2331
  112POPC   C1B 1894   3.971   8.755   8.196 -0.0421  0.2349 -0.3793
  112POPC   C2B 1895   3.877   8.343   8.011  0.1401  0.2807 -0.0049
  112POPC   C3B 1896   3.663   8.024   7.840  0.0164  0.0300 -0.1105
  112POPC   C4B 1897   3.392   7.639   7.821  0.2063 -0.2928  0.2198
  113POPC   NC3 1898   4.539   2.343   9.417  0.0527 -0.1425 -0.1117
  113POPC   PO4 1899   4.530   2.607   9.024 -0.0421  0.1577  0.1143
  113POPC   GL1 1900   4.756   2.733   8.700  0.0995  0.1728  0.1593
  113POPC   GL2 1901   4.552   2.773   8.437  0.3346  0.1028 -0.3385
  113POPC   C1A 1902   4.983   2.508   8.474 -0.0973 -0.0038 -0.1186
  113POPC   D2A 1903   5.303   2.439   8.283 -0.0462  0.2018 -0.2689
  113POPC   C3A 1904   5.444   2.127   7.926  0.1836 -0.1533 -0.1735
  113POPC   C4A 1905   5.842   2.069   7.827 -0.0559  0.0342  0.0966
  113POPC   C1B 1906   4.701   3.069   8.291  0.3545  0.2232 -0.0602
  113POPC   C2B 1907   4.836   3.391   8.069  0.0304 -0.1861 -0.0467
  113POPC   C3B 1908   4.931   3.445   7.589  0.0010  0.0544  0.0165
  113POPC   C4B 1909   5.005   3.210   7.184  0.1513 -0.0735 -0.2764
  114POPC   NC3 1910   8.401   0.421  10.151 -0.2339 -0.1711 -0.2356
  114POPC   PO4 1911   7.952   0.290  10.132  0.1621 -0.0763 -0.2156
  114POPC   GL1 1912   8.055   0.362   9.634 -0.1002 -0.2461 -0.0123
  114POPC   GL2 1913   8.304   0.332   9.458  0.4307 -0.0304 -0.1495
  114POPC   C1A 1914   7.908   0.726   9.389 -0.0626  0.0975  0.0595
  114POPC   D2A 1915   7.856   0.693   8.934 -0.1446 -0.0420  0.0484
  114POPC   C3A 1916   7.740   0.872   8.637  0.1031 -0.0929 -0.2972
  114POPC   C4A 1917   7.818   1.189   8.292 -0.0484 -0.2391  0.0162
  114POPC   C1B 1918   8.370   0.568   9.011  0.0729  0.0176  0.0803
  114POPC   C2B 1919   8.218   0.672   8.500 -0.3343  0.3129  0.3121
  114POPC   C3B 1920   8.297   1.005   8.165  0.2485  0.1087 -0.2219
  114POPC   C4B 1921   8.475   1.183   7.851  0.0753 -0.0367  0.1262
  115POPC   NC3 1922   5.509   4.762   9.791 -0.1100  0.0069 -0.0283
  115POPC   PO4 1923   5.475   5.215   9.519  0.0342  0.3022  0.2701
  115POPC   GL1 1924   5.245   5.293   9.109  0.0460 -0.2047 -0.0172
  115POPC   GL2 1925   5.419   5.485   8.818 -0.2029 -0.1355  0.1762
  115POPC   C1A 1926   4.923   5.264   8.809  0.0379 -0.1702 -0.1160
  115POPC   D2A 1927   4.626   5.303   8.432  0.0492 -0.2353 -0.2078
  115POPC   C3A 1928   4.337   5.021   8.241  0.1913 -0.0710  0.0608
  115POPC   C4A 1929   4.373   4.792   7.908  0.1221 -0.1096 -0.0515
  115POPC   C1B 1930   5.131   5.669   8.580  0.1277 -0.1560  0.1445
  115POPC   C2B 1931   4.827   5.854   8.271 -0.1184  0.0232  0.0135
  115POPC   C3B 1932   4.578   5.532   8.003  0.0493  0.0898 -0.0494
  115POPC   C4B 1933   4.551   5.205   7.735 -0.2907  0.0797  0.0339
  116POPC   NC3 1934   0.292   2.996   9.927  0.3532 -0.1063 -0.3930
  116POPC   PO4 1935   0.461   3.356   9.635  0.2011  0.0184 -0.1064
  116POPC   GL1 1936   0.479   3.241   9.160 -0.0970 -0.0713  0.0455
  116POPC   GL2 1937   0.665   3.448   8.927 -0.2123 -0.0804  0.3259
  116POPC   C1A 1938   0.265   3.131   8.741  0.1374 -0.3512 -0.1779
  116POPC   D2A 1939  -0.091   3.395   8.604 -0.1475 -0.0677  0.2415
  116POPC   C3A 1940  -0.427   3.672   8.667 -0.0637  0.2057 -0.2709
  116POPC   C4A 1941  -0.874   3.612   8.768  0.0444 -0.1359 -0.1198
  116POPC   C1B 1942   0.226   3.604   8.889 -0.0053  0.0808 -0.0323
  116POPC   C2B 1943  -0.097   3.567   9.112  0.2131 -0.4587  0.1032
  116POPC   C3B 1944  -0.492   3.890   9.187  0.1630  0.2801  0.1673
  116POPC   C4B 1945  -0.954   4.041   9.065 -0.1234 -0.1672 -0.0719
  117POPC   NC3 1946   9.554   5.071   9.320 -0.2039 -0.1560 -0.0638
  117POPC   PO4 1947   9.143   4.973   9.580 -0.1471 -0.4234 -0.0604
  117POPC   GL1 1948   9.249   4.627   9.197  0.0428  0.0442 -0.3395
  117POPC   GL2 1949   9.457   4.494   9.215  0.0863  0.3689  0.0206
  117POPC   C1A 1950   9.139   4.403   8.838  0.0419 -0.0762  0.0965
  117POPC   D2A 1951   9.252   4.451   8.376  0.2906  0.0920  0.2643
  117POPC   C3A 1952   9.369   4.378   7.933 -0.0290 -0.0649  0.0296
  117POPC   C4A 1953   9.511   4.602   7.597  0.1368  0.1869  0.3078
  117POPC   C1B 1954   9.730   4.583   8.980  0.0181  0.0066 -0.0727
  117POPC   C2B 1955   9.720   4.609   8.548  0.2766  0.1183 -0.0299
  117POPC   C3B 1956   9.807   4.593   8.108 -0.0662 -0.0660  0.1189
  117POPC   C4B 1957   9.833   4.184   7.909  0.0095 -0.0853  0.2108
  118POPC   NC3 1958   2.776   1.932   8.762 -0.0016 -0.1331  0.1525
  118POPC   PO4 1959   2.584   1.484   8.563  0.2156 -0.0751 -0.4268
  118POPC   GL1 1960   2.655   1.440   8.153 -0.0711 -0.0412  0.0018
  118POPC   GL2 1961   2.727   1.208   8.050 -0.1785  0.0005 -0.2090
  118POPC   C1A 1962   2.435   1.678   7.738  0.3474 -0.2067  0.0816
  118POPC   D2A 1963   2.135   1.490   7.327 -0.0935 -0.2106 -0.1629
  118POPC   C3A 1964   2.151   0.991   7.167  0.0262  0.1086 -0.0739
  118POPC   C4A 1965   2.261   0.571   6.957  0.1361  0.0426  0.0560
  118POPC   C1B 1966   3.092   1.615   7.864  0.0396  0.0255 -0.0478
  118POPC   C2B 1967   3.277   1.926   7.594 -0.1007 -0.3899  0.2123
  118POPC   C3B 1968   3.317   2.352   7.434  0.0595  0.1719  0.0118
  118POPC   C4B 1969   3.340   2.630   7.059  0.1115 -0.1178  0.0264
  119POPC   NC3 1970   2.667   3.743   8.992 -0.1696  0.2100 -0.0504
  119POPC   PO4 1971   2.241   3.559   8.930  0.1363  0.3017 -0.1835
  119POPC   GL1 1972   2.259   3.565   8.466  0.1043 -0.1524  0.1207
  119POPC   GL2 1973   2.191   3.880   8.352  0.0465 -0.1852  0.0767
  119POPC   C1A 1974   1.934   3.461   8.041 -0.1619 -0.2926 -0.3360
  119POPC   D2A 1975   1.552   3.255   8.020  0.3828  0.0977  0.1211
  119POPC   C3A 1976   1.601   2.824   7.888 -0.1090  0.0331 -0.0103
  119POPC   C4A 1977   1.931   2.618   7.885 -0.0025  0.1610 -0.0997
  119POPC   C1B 1978   2.533   3.622   8.044  0.1555  0.1652  0.0926
  119POPC   C2B 1979   2.905   3.580   7.947  0.0338 -0.1404 -0.0056
  119POPC   C3B 1980   3.148   3.674   7.509  0.0204  0.1193  0.2545
  119POPC   C4B 1981   3.572   3.839   7.558  0.1137  0.0023 -0.1940
  120POPC   NC3 1982   5.761   9.653   9.112  0.1669 -0.1239 -0.0320
  120POPC   PO4 1983   5.402   9.584   9.320 -0.1013  0.1212 -0.0631
  120POPC   GL1 1984   5.348   9.637   8.830  0.2509  0.0356 -0.1691
  120POPC   GL2 1985   5.060   9.796   8.764 -0.2460 -0.0049  0.0814
  120POPC   C1A 1986   5.392   9.971   8.443 -0.0753  0.1693  0.0519
  120POPC   D2A 1987   5.662  10.028   8.243 -0.5222 -0.0280 -0.0856
  120POPC   C3A 1988   5.595  10.072   7.779 -0.0740  0.0687  0.2765
  120POPC   C4A 1989   5.723   9.739   7.587 -0.0027  0.0497 -0.1697
  120POPC   C1B 1990   5.098   9.613   8.362 -0.0995  0.1312  0.0503
  120POPC   C2B 1991   5.276   9.669   7.993  0.0666 -0.0555  0.1170
  120POPC   C3B 1992   5.221   9.577   7.514 -0.3451  0.2148  0.0395
  120POPC   C4B 1993   5.455   9.652   7.081  0.0474  0.0024 -0.0855
  121POPC   NC3 1994   8.166   7.722   9.231  0.0026  0.0892  0.2125
  121POPC   PO4 1995   7.746   7.725   9.018  0.0537 -0.0135 -0.0238
  121POPC   GL1 1996   7.584   7.677   8.572 -0.2342 -0.2741 -0.0469
  121POPC   GL2 1997   7.353   7.435   8.561 -0.0723 -0.2411 -0.2886
  121POPC   C1A 1998   7.729   7.430   8.199  0.1675  0.1209  0.1376
  121POPC   D2A 1999   8.124   7.186   8.112 -0.3222 -0.0597  0.3174
  121POPC   C3A 2000   8.280   6.714   8.165  0.1329 -0.0671  0.2645
  121POPC   C4A 2001   8.346   6.473   7.781 -0.1210 -0.2017 -0.1066
  121POPC   C1B 2002   7.277   7.500   8.125 -0.0529 -0.2463  0.1276
  121POPC   C2B 2003   7.105   7.586   7.701  0.3097  0.1209  0.3861
  121POPC   C3B 2004   7.340   7.396   7.373  0.2539 -0.2155 -0.1060
  121POPC   C4B 2005   7.526   7.466   7.000 -0.0820 -0.0541  0.1107
  122POPC   NC3 2006   0.338   0.130   8.845  0.1689 -0.0058  0.1040
  122POPC   PO4 2007  -0.006   0.336   8.942 -0.0748  0.2030  0.0730
  122POPC   GL1 2008  -0.097   0.265   8.561  0.2498  0.0153  0.0077
  122POPC   GL2 2009  -0.063  -0.055   8.483 -0.0039  0.0227  0.1047
  122POPC   C1A 2010  -0.356   0.377   8.276  0.3918 -0.2234  0.0503
  122POPC   D2A 2011  -0.413   0.508   7.822  0.3936  0.0120  0.0416
  122POPC   C3A 2012  -0.831   0.325   7.535 -0.0046  0.0011 -0.0918
  122POPC   C4A 2013  -1.127  -0.094   7.429 -0.0639 -0.2559  0.1610
  122POPC   C1B 2014  -0.103   0.056   8.022 -0.1428 -0.2240  0.0634
  122POPC   C2B 2015  -0.355   0.028   7.668 -0.3036  0.0128  0.2677
  122POPC   C3B 2016  -0.664  -0.162   7.443  0.0459 -0.0628  0.0545
  122POPC   C4B 2017  -0.711  -0.412   7.028 -0.2522 -0.0821  0.5567
  123POPC   NC3 2018   2.298   4.760   8.540 -0.2243 -0.0896 -0.2338
  123POPC   PO4 2019   2.029   5.025   8.741 -0.1807 -0.3226 -0.1788
  123POPC   GL1 2020   1.836   4.897   8.347 -0.1211  0.1944 -0.1995
  123POPC   GL2 2021   1.584   4.688   8.352 -0.0012 -0.4291  0.0255
  123POPC   C1A 2022   1.892   4.951   7.768  0.1316 -0.0141  0.1165
  123POPC   D2A 2023   2.037   4.923   7.449 -0.0600  0.1393 -0.2743
  123POPC   C3A 2024   1.846   4.682   7.219 -0.1048  0.3942  0.1235
  123POPC   C4A 2025   1.569   4.389   7.021 -0.3038 -0.0952  0.1567
  123POPC   C1B 2026   1.263   4.628   8.193  0.0668  0.0789 -0.1271
  123POPC   C2B 2027   1.060   4.598   7.774 -0.1492  0.0977 -0.1365
  123POPC   C3B 2028   1.067   4.873   7.486 -0.0735  0.0352  0.2139
  123POPC   C4B 2029   0.818   5.022   7.223  0.1452  0.3668 -0.0915
  124POPC   NC3 2030   5.497   2.498   9.742  0.0377 -0.3201 -0.2527
  124POPC   PO4 2031   5.495   2.105   9.579  0.3202 -0.3050  0.1539
  124POPC   GL1 2032   5.369   2.101   9.139 -0.0731  0.0765 -0.1600
  124POPC   GL2 2033   5.035   2.272   9.038  0.0112 -0.1834 -0.2984
  124POPC   C1A 2034   5.697   2.124   8.827 -0.1076 -0.0375 -0.0949
  124POPC   D2A 2035   5.719   2.090   8.370 -0.3573 -0.2676  0.0323
  124POPC   C3A 2036   5.827   2.454   8.134  0.4365 -0.0071 -0.1058
  124POPC   C4A 2037   5.688   2.870   7.926 -0.1086 -0.2313 -0.2384
  124POPC   C1B 2038   4.809   2.089   8.650 -0.0648  0.2300  0.2608
  124POPC   C2B 2039   4.643   1.706   8.369 -0.1766 -0.0583  0.2397
  124POPC   C3B 2040   4.616   1.314   8.246  0.2993 -0.0793 -0.1050
  124POPC   C4B 2041   4.858   1.026   7.910  0.1070 -0.1381  0.1263
  125POPC   NC3 2042   8.105   3.678  10.274  0.0837 -0.0977 -0.3410
  125POPC   PO4 2043   7.868   3.197  10.245  0.2059  0.0227 -0.0633
  125POPC   GL1 2044   7.451   2.901  10.035 -0.1421  0.4399  0.3532
  125POPC   GL2 2045   7.363   2.594   9.828  0.0476  0.1370  0.1591
  125POPC   C1A 2046   7.136   3.012   9.713 -0.0848 -0.1383  0.0031
  125POPC   D2A 2047   6.891   2.866   9.430 -0.1643  0.1431 -0.2729
  125POPC   C3A 2048   6.595   3.165   9.304 -0.1069 -0.1148 -0.2974
  125POPC   C4A 2049   6.617   3.589   9.146  0.0361  0.0802 -0.0010
  125POPC   C1B 2050   7.470   2.701   9.465  0.0237 -0.1581 -0.0536
  125POPC   C2B 2051   7.305   2.864   9.107  0.0054 -0.3181  0.3839
  125POPC   C3B 2052   7.337   3.013   8.782 -0.1231  0.0121  0.0637
  125POPC   C4B 2053   7.704   3.135   8.635  0.0401 -0.0582 -0.0393
  126POPC   NC3 2054  10.118   7.342   8.991  0.2625  0.3089  0.1112
  126POPC   PO4 2055   9.742   7.030   8.887 -0.0492 -0.1394 -0.0503
  126POPC   GL1 2056   9.705   7.199   8.480 -0.0264  0.1871  0.0809
  126POPC   GL2 2057   9.862   7.428   8.356  0.0771 -0.1884 -0.0901
  126POPC   C1A 2058   9.686   7.003   8.098 -0.1608 -0.1443  0.1781
  126POPC   D2A 2059   9.708   6.572   7.907  0.0179  0.1479 -0.0332
  126POPC   C3A 2060   9.975   6.542   7.675  0.3140 -0.0322 -0.0283
  126POPC   C4A 2061  10.368   6.702   7.364 -0.1183 -0.1390 -0.2048
  126POPC   C1B 2062  10.012   7.286   7.860  0.0205 -0.0834 -0.0490
  126POPC   C2B 2063  10.129   7.118   7.451 -0.0494  0.1228 -0.1749
  126POPC   C3B 2064   9.945   7.009   7.128  0.2615  0.0145 -0.2381
  126POPC   C4B 2065   9.864   6.540   7.097  0.1840  0.0712 -0.0840
  127POPC   NC3 2066   5.884   9.134   9.492 -0.0017  0.2010 -0.0936
  127POPC   PO4 2067   5.650   8.685   9.502  0.0835 -0.3106 -0.3197
  127POPC   GL1 2068   5.881   8.773   9.109 -0.3413 -0.1663  0.1343
  127POPC   GL2 2069   5.836   8.397   9.035  0.2677  0.3794 -0.2145
  127POPC   C1A 2070   6.200   8.726   8.804 -0.1673  0.2092  0.3970
  127POPC   D2A 2071   6.253   8.518   8.371 -0.1045 -0.2049 -0.2351
  127POPC   C3A 2072   6.339   8.139   8.273 -0.0910  0.0640 -0.1118
  127POPC   C4A 2073   6.238   7.800   7.939 -0.2614 -0.1907 -0.0032
  127POPC   C1B 2074   5.775   8.450   8.631 -0.0976  0.1185 -0.0048
  127POPC   C2B 2075   5.766   8.582   8.255  0.1108  0.1438  0.1307
  127POPC   C3B 2076   5.692   8.730   7.837 -0.1419 -0.0554 -0.1839
  127POPC   C4B 2077   5.953   8.855   7.516  0.1151  0.1300  0.0796
  128POPC   NC3 2078   2.539   7.902   9.516 -0.0092  0.1607 -0.2945
  128POPC   PO4 2079   2.555   8.192   9.149 -0.1567  0.1422 -0.1521
  128POPC   GL1 2080   2.748   8.248   8.758  0.1524  0.0525 -0.1825
  128POPC   GL2 2081   2.644   8.595   8.712  0.0330 -0.2332  0.3940
  128POPC   C1A 2082   2.617   8.191   8.259 -0.0071  0.1073  0.0785
  128POPC   D2A 2083   2.329   8.202   7.964  0.3961 -0.0869 -0.2622
  128POPC   C3A 2084   2.628   8.050   7.571  0.2402 -0.1190 -0.3034
  128POPC   C4A 2085   2.711   8.058   7.086 -0.1606 -0.2456 -0.1300
  128POPC   C1B 2086   2.493   8.677   8.325  0.1455 -0.3945  0.2938
  128POPC   C2B 2087   2.554   8.656   7.812 -0.0382  0.1864 -0.3531
  128POPC   C3B 2088   2.529   8.942   7.607  0.1503 -0.2516 -0.0194
  128POPC   C4B 2089   2.394   9.303   7.390 -0.4259 -0.6325 -0.2045
  129POPC   NC3 2090   0.560   0.896   9.258 -0.1695 -0.3584 -0.3118
  129POPC   PO4 2091   0.955   0.768   9.197 -0.0561 -0.0030 -0.0630
  129POPC   GL1 2092   0.819   0.913   8.771  0.0416 -0.4977  0.0044
  129POPC   GL2 2093   0.692   1.298   8.876  0.0473 -0.1252 -0.1066
  129POPC   C1A 2094   1.005   0.938   8.416  0.0735  0.3326  0.0904
  129POPC   D2A 2095   1.027   1.183   8.060 -0.0850 -0.2785  0.0516
  129POPC   C3A 2096   0.683   1.148   7.754 -0.0225 -0.0302 -0.4555
  129POPC   C4A 2097   0.300   1.126   7.451  0.0693 -0.2087 -0.5268
  129POPC   C1B 2098   0.572   1.242   8.463 -0.1770  0.1884 -0.3962
  129POPC   C2B 2099   0.213   1.109   8.221 -0.3778 -0.0771 -0.0024
  129POPC   C3B 2100   0.004   0.848   8.074 -0.3159  0.0925 -0.0632
  129POPC   C4B 2101   0.166   0.482   8.027  0.0081 -0.2667 -0.0221
  130POPC   NC3 2102   2.056   9.527   8.551 -0.0992  0.2037 -0.0467
  130POPC   PO4 2103   1.806   9.262   8.777 -0.0499  0.1134  0.1155
  130POPC   GL1 2104   2.006   8.978   8.424  0.2872 -0.3176 -0.0800
  130POPC   GL2 2105   1.999   8.668   8.630  0.0356 -0.1131  0.1671
  130POPC   C1A 2106   2.091   8.687   8.066 -0.2159 -0.2749 -0.1908
  130POPC   D2A 2107   2.013   8.888   7.625  0.0020 -0.1300  0.0208
  130POPC   C3A 2108   2.138   8.916   7.306 -0.0146 -0.1805  0.2656
  130POPC   C4A 2109   2.113   9.085   6.871 -0.0125 -0.0769  0.0306
  130POPC   C1B 2110   1.629   8.649   8.274  0.2112  0.0013 -0.1588
  130POPC   C2B 2111   1.583   9.037   8.005  0.0352  0.1030 -0.2613
  130POPC   C3B 2112   1.483   8.997   7.515 -0.4826 -0.2658  0.0492
  130POPC   C4B 2113   1.350   9.229   7.308  0.0993 -0.2970  0.0353
  131POPC   NC3 2114   5.417   1.460  10.322 -0.2391 -0.0295 -0.0637
  131POPC   PO4 2115   5.511   1.629   9.896  0.0899  0.1093  0.2578
  131POPC   GL1 2116   5.858   1.765   9.718 -0.1012 -0.2938  0.5829
  131POPC   GL2 2117   5.986   1.590   9.483  0.1866 -0.1152 -0.0422
  131POPC   C1A 2118   6.256   2.043   9.575 -0.2643 -0.0162 -0.2758
  131POPC   D2A 2119   6.582   2.144   9.296  0.3425 -0.0992 -0.1950
  131POPC   C3A 2120   6.941   1.952   9.198  0.2026 -0.2532  0.1482
  131POPC   C4A 2121   7.312   1.924   9.232  0.0996 -0.0814 -0.3046
  131POPC   C1B 2122   6.081   1.890   9.187  0.2482  0.1898  0.4871
  131POPC   C2B 2123   6.062   1.743   8.787 -0.3106 -0.0325  0.1853
  131POPC   C3B 2124   6.084   1.748   8.399 -0.0501  0.0773 -0.2317
  131POPC   C4B 2125   6.045   1.588   7.973 -0.1331  0.3155  0.2323
  132POPC   NC3 2126   1.140   9.815   8.924  0.0990  0.1461  0.2466
  132POPC   PO4 2127   0.732   9.914   8.938  0.1421 -0.3508  0.0289
  132POPC   GL1 2128   0.840   9.976   8.560  0.1382 -0.2465  0.3536
  132POPC   GL2 2129   0.769  10.310   8.583  0.0870  0.0169  0.0171
  132POPC   C1A 2130   0.970   9.994   8.086  0.2425 -0.1525  0.1126
  132POPC   D2A 2131   0.904  10.358   7.932 -0.1250 -0.3655 -0.0646
  132POPC   C3A 2132   0.855  10.409   7.463  0.0083  0.1208  0.1863
  132POPC   C4A 2133   0.475  10.546   7.254 -0.1686 -0.0620  0.0453
  132POPC   C1B 2134   0.676  10.691   8.436  0.1632 -0.0267  0.0280
  132POPC   C2B 2135   0.639  10.884   8.077  0.1904 -0.3056 -0.1190
  132POPC   C3B 2136   0.595  10.803   7.676 -0.0172 -0.1053  0.1126
  132POPC   C4B 2137   0.767  11.104   7.339 -0.0324 -0.0312 -0.1495
  133POPC   NC3 2138   8.063   6.417   9.306 -0.0405  0.0136 -0.3795
  133POPC   PO4 2139   7.928   5.999   9.519 -0.0652 -0.0027 -0.1603
  133POPC   GL1 2140   8.029   5.839   9.100 -0.0286  0.1469  0.2749
  133POPC   GL2 2141   8.223   6.036   8.894 -0.2652  0.3406  0.0267
  133POPC   C1A 2142   7.779   5.564   8.773 -0.2131 -0.1876 -0.3200
  133POPC   D2A 2143   7.575   5.517   8.278 -0.4874 -0.0759 -0.0240
  133POPC   C3A 2144   7.255   5.317   8.028 -0.2421 -0.3657 -0.1930
  133POPC   C4A 2145   7.296   5.262   7.669  0.4261 -0.2812 -0.0264
  133POPC   C1B 2146   7.891   6.066   8.664  0.1388  0.2166 -0.1313
  133POPC   C2B 2147   7.540   5.952   8.604  0.0583  0.1424  0.0285
  133POPC   C3B 2148   7.132   6.086   8.723  0.2907  0.0484 -0.1780
  133POPC   C4B 2149   6.773   5.813   8.731  0.0801 -0.0224  0.0849
  134POPC   NC3 2150  10.181   5.022   9.300 -0.1048 -0.0244 -0.1525
  134POPC   PO4 2151   9.949   5.358   9.408  0.0827 -0.0580  0.0122
  134POPC   GL1 2152   9.789   5.359   8.969  0.1882 -0.0421 -0.1022
  134POPC   GL2 2153   9.921   5.612   8.820 -0.0733  0.1764 -0.1874
  134POPC   C1A 2154   9.517   5.401   8.636  0.0102 -0.0314  0.1658
  134POPC   D2A 2155   9.637   5.450   8.213  0.1585  0.1268 -0.1496
  134POPC   C3A 2156   9.943   5.265   8.118 -0.1031 -0.0487  0.0216
  134POPC   C4A 2157  10.329   5.314   8.359  0.2322 -0.1373 -0.2502
  134POPC   C1B 2158  10.028   5.721   8.339  0.0757 -0.2966 -0.2226
  134POPC   C2B 2159  10.083   5.695   8.011  0.2232  0.0023  0.2366
  134POPC   C3B 2160   9.790   5.546   7.705  0.0394 -0.0938 -0.1259
  134POPC   C4B 2161   9.549   5.607   7.374 -0.1355  0.0577 -0.2470
  135POPC   NC3 2162   0.229   5.924   9.187  0.2719 -0.1925 -0.1715
  135POPC   PO4 2163   0.193   5.523   9.226  0.1577  0.0108  0.0753
  135POPC   GL1 2164   0.353   5.216   8.946 -0.2649  0.0221 -0.2280
  135POPC   GL2 2165   0.626   5.300   8.707 -0.1444 -0.0399  0.0722
  135POPC   C1A 2166   0.276   4.998   8.681 -0.0215  0.0235  0.2127
  135POPC   D2A 2167   0.128   4.760   8.262  0.0570 -0.1076 -0.0493
  135POPC   C3A 2168   0.011   4.786   7.824  0.3076  0.0527 -0.3081
  135POPC   C4A 2169  -0.162   4.567   7.443 -0.1118  0.1448  0.1039
  135POPC   C1B 2170   0.624   5.324   8.303 -0.0047  0.2452 -0.2864
  135POPC   C2B 2171   0.414   5.137   7.978 -0.1029 -0.2612 -0.0451
  135POPC   C3B 2172   0.160   5.407   7.607  0.1058 -0.1109  0.1242
  135POPC   C4B 2173  -0.007   5.618   7.266 -0.3116 -0.0697 -0.2898
  136POPC   NC3 2174   8.935   8.115   9.149 -0.0017 -0.1058  0.1794
  136POPC   PO4 2175   8.460   8.193   8.939 -0.3568  0.1022  0.1361
  136POPC   GL1 2176   8.227   8.313   8.558  0.1626  0.1493 -0.1740
  136POPC   GL2 2177   8.339   8.235   8.297  0.3270  0.0223  0.0180
  136POPC   C1A 2178   7.827   8.441   8.403 -0.0864  0.0438  0.0053
  136POPC   D2A 2179   7.566   8.762   8.272 -0.0403  0.2231  0.1370
  136POPC   C3A 2180   7.326   8.789   7.831  0.0695  0.1546 -0.1233
  136POPC   C4A 2181   6.830   8.767   7.666 -0.0782 -0.0545  0.1481
  136POPC   C1B 2182   7.921   7.929   8.318  0.0367  0.1772 -0.0846
  136POPC   C2B 2183   7.600   7.901   8.048  0.1088  0.0474  0.0828
  136POPC   C3B 2184   7.596   7.682   7.719 -0.0592 -0.0691 -0.0822
  136POPC   C4B 2185   7.740   7.872   7.370 -0.1571  0.2026  0.2454
  137POPC   NC3 2186   7.225   5.052  10.353  0.3957  0.1533  0.0067
  137POPC   PO4 2187   7.355   4.946   9.876 -0.1361 -0.0523 -0.1995
  137POPC   GL1 2188   7.248   4.773   9.468  0.0079  0.2343 -0.2241
  137POPC   GL2 2189   7.122   4.419   9.376  0.0266  0.0778 -0.1661
  137POPC   C1A 2190   7.557   4.666   9.145  0.0820  0.0445  0.0288
  137POPC   D2A 2191   7.949   4.507   9.040  0.2354  0.1753  0.0643
  137POPC   C3A 2192   8.107   4.086   8.831  0.3683  0.0937  0.3891
  137POPC   C4A 2193   8.391   3.974   8.535 -0.2257 -0.1350  0.3426
  137POPC   C1B 2194   6.907   4.559   8.929  0.1643 -0.3218  0.1946
  137POPC   C2B 2195   6.699   4.614   8.504 -0.0731 -0.3616 -0.1318
  137POPC   C3B 2196   6.737   4.567   8.023 -0.0720 -0.0976 -0.0121
  137POPC   C4B 2197   6.799   4.310   7.623 -0.1205 -0.0148  0.0664
  138POPC   NC3 2198   7.169   6.540   9.216  0.0918 -0.0202 -0.0306
  138POPC   PO4 2199   7.662   6.619   9.125 -0.0551  0.0182  0.1584
  138POPC   GL1 2200   7.554   6.647   8.793  0.0902 -0.2479 -0.2093
  138POPC   GL2 2201   7.240   6.801   8.781  0.1294  0.0604 -0.2074
  138POPC   C1A 2202   7.458   6.436   8.364  0.1195 -0.1969  0.1064
  138POPC   D2A 2203   7.462   6.514   7.890 -0.2828  0.0622 -0.0120
  138POPC   C3A 2204   7.190   6.271   7.642 -0.3795  0.2369 -0.1341
  138POPC   C4A 2205   7.076   6.347   7.231  0.1239 -0.0413 -0.3605
  138POPC   C1B 2206   6.991   6.498   8.527  0.0867 -0.0347 -0.1903
  138POPC   C2B 2207   6.993   6.234   8.137  0.3706 -0.3013  0.0335
  138POPC   C3B 2208   6.839   5.828   7.957 -0.0786 -0.2592 -0.3263
  138POPC   C4B 2209   6.737   5.837   7.497  0.2899  0.0449  0.0268
  139POPC   NC3 2210   3.427   6.198   9.400 -0.1074  0.2734 -0.1624
  139POPC   PO4 2211   3.655   6.476   9.608 -0.1186 -0.0205  0.0689
  139POPC   GL1 2212   3.997   6.757   9.325 -0.1142 -0.0839 -0.2885
  139POPC   GL2 2213   4.000   7.115   9.105 -0.2374 -0.0733  0.0174
  139POPC   C1A 2214   4.113   6.593   8.883  0.1111  0.3764 -0.1505
  139POPC   D2A 2215   4.201   6.975   8.634 -0.0252  0.2005 -0.0232
  139POPC   C3A 2216   4.711   7.172   8.545  0.2164  0.0259 -0.2621
  139POPC   C4A 2217   4.814   7.587   8.595  0.0768 -0.0421  0.1421
  139POPC   C1B 2218   4.247   7.445   8.827  0.0546 -0.0931  0.0998
  139POPC   C2B 2219   4.321   7.706   8.510  0.0730  0.0487 -0.1205
  139POPC   C3B 2220   4.619   8.005   8.289  0.4733  0.0803 -0.1384
  139POPC   C4B 2221   4.637   8.071   7.772  0.2109 -0.3552 -0.2553
  140POPC   NC3 2222   5.912   7.632   9.386 -0.2452 -0.1079  0.0247
  140POPC   PO4 2223   5.661   7.788   9.143 -0.1117 -0.2301 -0.2238
  140POPC   GL1 2224   5.522   7.531   8.853  0.0988 -0.3125 -0.0971
  140POPC   GL2 2225   5.745   7.530   8.714  0.0971 -0.1612  0.0839
  140POPC   C1A 2226   5.387   7.454   8.350 -0.1380  0.1334  0.0187
  140POPC   D2A 2227   5.023   7.339   8.069 -0.2241  0.3968  0.2213
  140POPC   C3A 2228   4.893   7.642   7.774 -0.0296 -0.0453  0.4084
  140POPC   C4A 2229   4.875   7.771   7.375 -0.0263  0.2696  0.2180
  140POPC   C1B 2230   5.852   7.323   8.224  0.0111 -0.1407  0.0690
  140POPC   C2B 2231   5.520   7.126   7.964  0.0408  0.1578 -0.0588
  140POPC   C3B 2232   5.179   6.959   7.677 -0.1968 -0.0503 -0.0491
  140POPC   C4B 2233   4.954   6.782   7.307  0.0426  0.3704  0.0735
  141POPC   NC3 2234   4.828   8.043   9.520  0.1032  0.2055  0.1105
  141POPC   PO4 2235   4.825   8.285   9.237 -0.1121 -0.1847 -0.0277
  141POPC   GL1 2236   5.100   8.286   8.871 -0.0938 -0.1208  0.3572
  141POPC   GL2 2237   5.441   8.078   8.806 -0.2097 -0.0633 -0.1819
  141POPC   C1A 2238   5.243   8.570   8.547  0.4790  0.1445  0.2829
  141POPC   D2A 2239   5.312   8.727   8.192 -0.0407  0.1615 -0.3028
  141POPC   C3A 2240   5.557   9.149   8.128 -0.2794 -0.0324 -0.3724
  141POPC   C4A 2241   5.621   9.517   8.359 -0.1795 -0.2377  0.1598
  141POPC   C1B 2242   5.163   8.014   8.447  0.0415  0.2997  0.1017
  141POPC   C2B 2243   5.198   7.828   8.097  0.0290 -0.0097 -0.0257
  141POPC   C3B 2244   5.269   7.926   7.693 -0.1505  0.1099  0.1042
  141POPC   C4B 2245   5.011   8.254   7.461 -0.4134 -0.4022  0.0567
  142POPC   NC3 2246   3.475   4.306   8.749  0.0018  0.3608 -0.1938
  142POPC   PO4 2247   3.593   3.850   8.659 -0.4727 -0.3713 -0.1076
  142POPC   GL1 2248   3.638   4.228   8.282  0.0707  0.0806  0.2214
  142POPC   GL2 2249   3.640   4.563   8.347 -0.0846  0.1271  0.0875
  142POPC   C1A 2250   3.641   4.311   7.822 -0.1759  0.0699 -0.2020
  142POPC   D2A 2251   3.684   4.498   7.486  0.0025  0.2381 -0.2225
  142POPC   C3A 2252   3.838   4.210   7.112 -0.0114 -0.1450 -0.1116
  142POPC   C4A 2253   4.154   4.264   6.679  0.3200  0.4846 -0.2627
  142POPC   C1B 2254   3.842   4.763   7.912  0.3784  0.1025 -0.2815
  142POPC   C2B 2255   4.017   4.960   7.602 -0.2001 -0.1352  0.1561
  142POPC   C3B 2256   4.433   4.879   7.377  0.2223  0.2731 -0.2880
  142POPC   C4B 2257   4.419   4.522   6.984 -0.0399  0.0141 -0.0721
  143POPC   NC3 2258   7.760   9.044   9.442  0.0038 -0.1847  0.2034
  143POPC   PO4 2259   7.376   8.868   9.405  0.0631  0.2415  0.1934
  143POPC   GL1 2260   7.479   9.132   9.065 -0.1995  0.1101  0.0123
  143POPC   GL2 2261   7.394   9.444   8.953  0.1002  0.2049  0.1467
  143POPC   C1A 2262   7.417   9.147   8.580  0.0681 -0.1569  0.0577
  143POPC   D2A 2263   7.491   9.299   8.125 -0.1255  0.1139 -0.0855
  143POPC   C3A 2264   7.617   9.154   7.664  0.0719 -0.0254  0.0760
  143POPC   C4A 2265   7.940   9.105   7.412 -0.0713 -0.1115 -0.0770
  143POPC   C1B 2266   7.855   9.347   8.728 -0.0128  0.4455 -0.1502
  143POPC   C2B 2267   7.940   9.316   8.401  0.0418 -0.0615  0.3034
  143POPC   C3B 2268   7.910   9.054   8.054 -0.1825  0.0206 -0.0212
  143POPC   C4B 2269   7.854   8.736   7.719  0.2453  0.0784 -0.2771
  144POPC   NC3 2270   7.662   0.276  10.557  0.1117  0.3765  0.1424
  144POPC   PO4 2271   7.437   0.280  10.125 -0.0729  0.2554 -0.1997
  144POPC   GL1 2272   7.185   0.389   9.650  0.0290  0.0447 -0.0965
  144POPC   GL2 2273   6.800   0.619   9.524 -0.4235 -0.0093 -0.0076
  144POPC   C1A 2274   7.075   0.362   9.120  0.0656 -0.1725  0.0155
  144POPC   D2A 2275   7.368   0.587   8.777 -0.5627 -0.1742 -0.2868
  144POPC   C3A 2276   7.101   0.856   8.580  0.3417 -0.2154  0.2204
  144POPC   C4A 2277   6.835   1.257   8.750 -0.1099 -0.1573 -0.1278
  144POPC   C1B 2278   6.924   1.052   9.573  0.2582  0.0805 -0.1442
  144POPC   C2B 2279   7.042   1.338   9.215  0.2469  0.0424  0.1157
  144POPC   C3B 2280   7.231   1.637   8.812  0.2665  0.5425  0.0831
  144POPC   C4B 2281   7.410   1.969   8.591  0.0580  0.2301 -0.2646
  145POPC   NC3 2282   4.497   9.768   9.529 -0.1075  0.1278 -0.0141
  145POPC   PO4 2283   4.138   9.984   9.411  0.0926  0.1990  0.0255
  145POPC   GL1 2284   4.160  10.029   8.973 -0.0968  0.0084  0.1276
  145POPC   GL2 2285   4.094  10.411   8.868  0.3733  0.0712 -0.2671
  145POPC   C1A 2286   4.116  10.061   8.552 -0.0457 -0.1587 -0.0657
  145POPC   D2A 2287   3.830   9.851   8.349 -0.1112  0.3287  0.0278
  145POPC   C3A 2288   3.926   9.830   8.040  0.0432 -0.1940  0.0193
  145POPC   C4A 2289   4.288   9.828   7.796  0.1869  0.1714 -0.2024
  145POPC   C1B 2290   4.183  10.617   8.471 -0.2290 -0.1781  0.1777
  145POPC   C2B 2291   3.984  10.749   8.108  0.2657 -0.0441  0.0289
  145POPC   C3B 2292   4.012  10.687   7.626  0.0275  0.1700  0.1285
  145POPC   C4B 2293   4.088  10.545   7.175  0.1750  0.2485 -0.0304
  146POPC   NC3 2294   7.760   5.222   9.644 -0.1715 -0.0811 -0.1351
  146POPC   PO4 2295   7.350   5.429   9.753 -0.1584 -0.0522  0.0154
  146POPC   GL1 2296   7.272   5.215   9.300 -0.3150  0.0327  0.0388
  146POPC   GL2 2297   7.568   5.164   9.144  0.0552 -0.2345 -0.0149
  146POPC   C1A 2298   7.153   4.983   8.800 -0.2018  0.0501  0.0691
  146POPC   D2A 2299   7.283   4.948   8.339 -0.0110 -0.1315  0.2193
  146POPC   C3A 2300   6.951   4.983   8.182  0.1917  0.0327  0.2656
  146POPC   C4A 2301   6.923   4.857   7.661  0.1381 -0.1862 -0.0335
  146POPC   C1B 2302   7.717   5.098   8.673  0.0926  0.1135 -0.2284
  146POPC   C2B 2303   7.788   4.995   8.237 -0.4617 -0.2809 -0.0470
  146POPC   C3B 2304   7.727   4.813   7.809 -0.2940  0.1152 -0.1871
  146POPC   C4B 2305   7.866   4.579   7.380  0.1338  0.0736 -0.1839
  147POPC   NC3 2306   5.094   5.406   9.727 -0.0902  0.3704  0.0315
  147POPC   PO4 2307   4.661   5.662   9.536 -0.0979 -0.0838  0.1267
  147POPC   GL1 2308   4.776   5.679   9.103 -0.2981  0.4219  0.3711
  147POPC   GL2 2309   5.059   5.811   9.008 -0.1334 -0.0482 -0.0332
  147POPC   C1A 2310   4.633   5.717   8.686  0.0479  0.0620 -0.1049
  147POPC   D2A 2311   4.197   5.541   8.376 -0.1300  0.2085  0.1058
  147POPC   C3A 2312   4.037   5.860   8.091 -0.1256  0.1235 -0.3068
  147POPC   C4A 2313   4.014   5.996   7.746  0.1633  0.2890 -0.1455
  147POPC   C1B 2314   4.896   6.176   8.702 -0.0320 -0.3213  0.2803
  147POPC   C2B 2315   4.928   6.363   8.312  0.1521  0.1634  0.1316
  147POPC   C3B 2316   5.041   6.396   7.821 -0.0874  0.1198  0.0247
  147POPC   C4B 2317   5.111   5.994   7.615  0.2569  0.0004 -0.3331
  148POPC   NC3 2318   4.353   1.445   9.226 -0.1063 -0.3935  0.0055
  148POPC   PO4 2319   4.063   1.288   8.934  0.0753  0.0500  0.2269
  148POPC   GL1 2320   3.988   1.020   8.525  0.2303 -0.0122 -0.1122
  148POPC   GL2 2321   4.333   1.070   8.491  0.2798 -0.3786 -0.4913
  148POPC   C1A 2322   4.058   1.162   8.053  0.1412  0.2773  0.2427
  148POPC   D2A 2323   4.110   1.000   7.736  0.1542  0.1946 -0.0079
  148POPC   C3A 2324   4.441   0.869   7.599  0.0241 -0.0500 -0.0304
  148POPC   C4A 2325   4.898   0.955   7.421 -0.1132 -0.1391 -0.0234
  148POPC   C1B 2326   4.456   0.816   8.123  0.1307  0.2444 -0.1976
  148POPC   C2B 2327   4.473   0.435   7.783 -0.1771 -0.4206 -0.0790
  148POPC   C3B 2328   4.625   0.155   7.570  0.0119 -0.4792 -0.1785
  148POPC   C4B 2329   4.831  -0.017   7.205 -0.0629  0.0421 -0.0004
  149POPC   NC3 2330   2.305   0.918   9.027 -0.1366 -0.2221 -0.3879
  149POPC   PO4 2331   2.306   1.326   8.981  0.0003  0.0472  0.0216
  149POPC   GL1 2332   2.071   1.341   8.585  0.2114 -0.2808  0.1626
  149POPC   GL2 2333   2.145   1.384   8.206 -0.3056 -0.0667  0.2359
  149POPC   C1A 2334   1.728   1.171   8.527  0.4783  0.0401 -0.2670
  149POPC   D2A 2335   1.467   0.962   8.296  0.3722 -0.3117  0.0100
  149POPC   C3A 2336   1.575   0.736   7.868 -0.0389 -0.0486 -0.0952
  149POPC   C4A 2337   1.818   0.976   7.539  0.0709  0.1091 -0.4067
  149POPC   C1B 2338   2.267   1.160   7.788 -0.1382 -0.1864 -0.2989
  149POPC   C2B 2339   2.684   1.249   7.536 -0.0970  0.0542 -0.1315
  149POPC   C3B 2340   2.809   1.711   7.375 -0.0563  0.3057  0.2674
  149POPC   C4B 2341   3.023   1.995   7.086 -0.0237 -0.4683 -0.0694
  150POPC   NC3 2342   2.311   0.069   8.912  0.1263  0.0120  0.1580
  150POPC   PO4 2343   2.383   0.476   8.680 -0.0453 -0.3261  0.3276
  150POPC   GL1 2344   2.246   0.480   8.293 -0.1228 -0.2847  0.0122
  150POPC   GL2 2345   2.479   0.695   8.057 -0.0176  0.3424  0.2270
  150POPC   C1A 2346   2.000   0.884   8.162  0.4017 -0.0190  0.2134
  150POPC   D2A 2347   1.724   1.258   7.971  0.0944  0.1946  0.2039
  150POPC   C3A 2348   1.385   1.227   7.624  0.0584  0.1393 -0.2267
  150POPC   C4A 2349   1.285   1.415   7.260  0.1672  0.0991  0.1628
  150POPC   C1B 2350   2.472   0.662   7.592  0.0729  0.0077 -0.1211
  150POPC   C2B 2351   2.704   0.461   7.339  0.1592  0.1197 -0.2269
  150POPC   C3B 2352   2.721   0.015   7.119 -0.0671  0.1045  0.0074
  150POPC   C4B 2353   2.810  -0.422   7.163  0.0857  0.0639  0.1878
  151POPC   NC3 2354   3.307   4.793   8.669 -0.0297  0.0916  0.1606
  151POPC   PO4 2355   3.069   5.168   8.718  0.1364  0.2463 -0.2147
  151POPC   GL1 2356   3.007   5.476   8.475  0.0667 -0.2070 -0.1150
  151POPC   GL2 2357   2.830   5.814   8.695  0.0511  0.0791 -0.0086
  151POPC   C1A 2358   2.801   5.827   8.202  0.2863 -0.1304 -0.1076
  151POPC   D2A 2359   2.496   5.926   7.836  0.0693 -0.1236  0.0671
  151POPC   C3A 2360   2.367   6.277   7.585 -0.0798 -0.3001 -0.2769
  151POPC   C4A 2361   2.211   6.378   7.206  0.0566  0.0540  0.0052
  151POPC   C1B 2362   3.194   6.064   8.503  0.2090 -0.1208  0.1019
  151POPC   C2B 2363   3.168   6.388   8.332  0.0445  0.1259 -0.3830
  151POPC   C3B 2364   3.248   6.751   8.210 -0.0404 -0.0011 -0.1604
  151POPC   C4B 2365   3.563   7.238   8.063  0.2243 -0.1036 -0.0835
  152POPC   NC3 2366   3.039   3.574   8.656  0.0914 -0.4428  0.1450
  152POPC   PO4 2367   3.149   3.176   8.760 -0.0394  0.0425  0.2526
  152POPC   GL1 2368   3.301   3.262   8.341 -0.1014  0.1327  0.0610
  152POPC   GL2 2369   3.393   3.633   8.251 -0.0529  0.2081  0.0999
  152POPC   C1A 2370   3.094   3.090   8.012 -0.0870 -0.0480 -0.0172
  152POPC   D2A 2371   2.908   3.215   7.620  0.0006 -0.0099  0.0665
  152POPC   C3A 2372   2.607   3.612   7.538  0.1871 -0.0720 -0.1473
  152POPC   C4A 2373   2.244   3.826   7.621 -0.2975  0.1035  0.3084
  152POPC   C1B 2374   3.297   3.976   7.947  0.0891 -0.0252  0.1909
  152POPC   C2B 2375   3.211   4.280   7.631  0.0419 -0.2225 -0.1944
  152POPC   C3B 2376   3.256   4.604   7.325 -0.0858 -0.2216  0.2107
  152POPC   C4B 2377   3.097   4.816   6.922  0.3048  0.1429 -0.3682
  153POPC   NC3 2378   9.596   6.046   8.846  0.1730 -0.0700 -0.1822
  153POPC   PO4 2379   9.275   6.114   9.045  0.1405  0.0564 -0.2301
  153POPC   GL1 2380   9.122   5.835   8.746 -0.2223  0.3978  0.1045
  153POPC   GL2 2381   9.218   5.801   8.479  0.0420 -0.1963 -0.1019
  153POPC   C1A 2382   8.675   5.826   8.622 -0.2570 -0.0868  0.0369
  153POPC   D2A 2383   8.253   5.596   8.548  0.0863 -0.1346 -0.1998
  153POPC   C3A 2384   8.161   5.430   8.091  0.2585  0.1540  0.0738
  153POPC   C4A 2385   8.261   5.478   7.731 -0.0683  0.0241  0.0706
  153POPC   C1B 2386   8.938   5.823   8.190  0.0103  0.3156 -0.1777
  153POPC   C2B 2387   8.851   5.661   7.856 -0.0816  0.2211  0.2015
  153POPC   C3B 2388   8.590   5.646   7.378  0.2906 -0.2249  0.2735
  153POPC   C4B 2389   8.230   5.504   7.205 -0.0628  0.3719  0.1765
  154POPC   NC3 2390   7.137   7.173   9.360 -0.0837 -0.0121 -0.0323
  154POPC   PO4 2391   6.821   7.500   9.304 -0.1813 -0.1398 -0.0291
  154POPC   GL1 2392   6.874   7.295   8.881 -0.4655 -0.2106  0.1120
  154POPC   GL2 2393   6.594   7.288   8.762 -0.0070  0.0288  0.2302
  154POPC   C1A 2394   6.929   7.257   8.379  0.1845 -0.1841 -0.4509
  154POPC   D2A 2395   6.855   7.181   7.941 -0.1177  0.2090  0.1193
  154POPC   C3A 2396   7.250   7.087   7.757  0.0185  0.2727  0.0914
  154POPC   C4A 2397   7.681   7.197   7.729 -0.0879  0.5587  0.0303
  154POPC   C1B 2398   6.143   7.162   8.687 -0.2798 -0.0552  0.1539
  154POPC   C2B 2399   5.737   7.059   8.599  0.0941 -0.0942 -0.0466
  154POPC   C3B 2400   5.488   6.626   8.533 -0.2291 -0.0481  0.0624
  154POPC   C4B 2401   5.388   6.600   8.203 -0.2730 -0.0064 -0.1901
  155POPC   NC3 2402   1.935   3.202   8.727  0.1462 -0.0500  0.1751
  155POPC   PO4 2403   1.890   2.765   8.559 -0.0025 -0.0458  0.1151
  155POPC   GL1 2404   1.995   2.383   8.330  0.2024  0.1289 -0.2547
  155POPC   GL2 2405   2.389   2.456   8.230 -0.0511  0.1844 -0.2016
  155POPC   C1A 2406   1.987   1.972   8.281 -0.0362  0.1208 -0.1285
  155POPC   D2A 2407   1.988   1.732   7.850 -0.0156 -0.4016  0.1166
  155POPC   C3A 2408   1.707   1.803   7.524  0.3631 -0.0182  0.1253
  155POPC   C4A 2409   1.313   2.014   7.335  0.0848 -0.0640  0.1228
  155POPC   C1B 2410   2.224   2.172   7.902  0.1396  0.0369  0.1638
  155POPC   C2B 2411   2.164   1.998   7.458  0.2825 -0.3539  0.2967
  155POPC   C3B 2412   2.388   1.912   7.164  0.0501 -0.0611  0.3631
  155POPC   C4B 2413   2.503   2.000   6.736 -0.0188  0.0016  0.1539
  156POPC   NC3 2414   1.699   6.955   9.320  0.1921 -0.2961 -0.0000
  156POPC   PO4 2415   1.332   6.986   9.270  0.1032 -0.1593 -0.0826
  156POPC   GL1 2416   1.477   7.057   8.866  0.1608 -0.2465 -0.4321
  156POPC   GL2 2417   1.717   6.791   8.660  0.1158 -0.1078 -0.1492
  156POPC   C1A 2418   1.355   7.049   8.399 -0.1656 -0.1203 -0.1352
  156POPC   D2A 2419   1.121   7.179   8.182  0.3019  0.3251 -0.1340
  156POPC   C3A 2420   1.149   6.996   7.765  0.2715  0.3073 -0.0594
  156POPC   C4A 2421   1.210   7.120   7.317 -0.1483 -0.1091  0.3942
  156POPC   C1B 2422   1.745   6.434   8.212 -0.0089  0.0281 -0.2350
  156POPC   C2B 2423   1.598   6.347   7.816  0.0854  0.0094  0.1339
  156POPC   C3B 2424   1.474   6.677   7.410  0.2402  0.2630  0.3263
  156POPC   C4B 2425   1.017   6.593   7.286  0.2174  0.0263  0.1730
  157POPC   NC3 2426   9.317   8.752   4.648  0.0818  0.3980  0.0003
  157POPC   PO4 2427   9.207   9.032   4.896  0.1554  0.0024 -0.0618
  157POPC   GL1 2428   9.342   8.974   5.319  0.1663 -0.1244 -0.0199
  157POPC   GL2 2429   9.247   8.675   5.408  0.0543  0.3712  0.1132
  157POPC   C1A 2430   9.380   9.218   5.696 -0.0369 -0.0663  0.1906
  157POPC   D2A 2431   9.462   9.306   6.260  0.0557 -0.1573 -0.0351
  157POPC   C3A 2432   9.630   9.729   6.430 -0.1122  0.0220 -0.0393
  157POPC   C4A 2433   9.547  10.079   6.518 -0.0801  0.0954 -0.0154
  157POPC   C1B 2434   9.236   8.488   5.798 -0.0239  0.1170  0.1212
  157POPC   C2B 2435   8.964   8.478   6.264 -0.2640 -0.2538 -0.4966
  157POPC   C3B 2436   9.001   8.762   6.588 -0.1457  0.0403 -0.0160
  157POPC   C4B 2437   8.742   8.859   6.929 -0.1816 -0.1440  0.2641
  158POPC   NC3 2438   0.145   7.808   4.524  0.2959  0.2592 -0.0372
  158POPC   PO4 2439   0.171   7.804   4.980  0.0239  0.1620  0.3180
  158POPC   GL1 2440   0.143   7.884   5.433  0.3668  0.2214  0.1967
  158POPC   GL2 2441  -0.005   8.087   5.489 -0.0779 -0.0042 -0.0120
  158POPC   C1A 2442   0.315   7.695   5.784  0.0032  0.1238  0.1143
  158POPC   D2A 2443   0.457   7.785   6.224  0.1504 -0.0576  0.2415
  158POPC   C3A 2444   0.525   8.189   6.355  0.0786 -0.2150  0.0704
  158POPC   C4A 2445   0.613   8.564   6.585 -0.0521  0.2209 -0.1757
  158POPC   C1B 2446  -0.135   8.401   5.790  0.1003  0.1705  0.0673
  158POPC   C2B 2447  -0.435   8.262   6.196  0.3848 -0.0132 -0.1170
  158POPC   C3B 2448  -0.387   7.967   6.612 -0.2095  0.0279 -0.1382
  158POPC   C4B 2449  -0.157   7.904   6.976 -0.2085 -0.1312 -0.2319
  159POPC   NC3 2450   1.220   6.550   4.792 -0.0247  0.3457 -0.0341
  159POPC   PO4 2451   1.319   6.682   5.064  0.3781  0.3286  0.0323
  159POPC   GL1 2452   1.354   6.788   5.512  0.2024  0.2066  0.0860
  159POPC   GL2 2453   1.123   6.737   5.635  0.3257 -0.1487 -0.2511
  159POPC   C1A 2454   1.441   6.988   5.944 -0.1069 -0.3907  0.2308
  159POPC   D2A 2455   1.084   7.002   6.186 -0.2440  0.2418 -0.2122
  159POPC   C3A 2456   1.131   6.821   6.530  0.2064 -0.1599 -0.1629
  159POPC   C4A 2457   1.314   6.777   6.932  0.1969 -0.4047  0.0242
  159POPC   C1B 2458   1.043   6.496   6.051  0.2252  0.0771 -0.0752
  159POPC   C2B 2459   0.854   6.409   6.450  0.0136 -0.2429 -0.2660
  159POPC   C3B 2460   0.516   6.294   6.724  0.0579  0.1793  0.1543
  159POPC   C4B 2461   0.147   6.502   6.906  0.1846  0.0456  0.0974
  160POPC   NC3 2462   1.932   2.730   4.646 -0.1230  0.0275 -0.0587
  160POPC   PO4 2463   1.684   2.736   5.064  0.0927 -0.2401 -0.0252
  160POPC   GL1 2464   1.516   2.837   5.392  0.0423 -0.1560  0.1790
  160POPC   GL2 2465   1.757   3.065   5.480 -0.4971  0.1956  0.0354
  160POPC   C1A 2466   1.430   2.946   5.820 -0.3818 -0.2102 -0.1700
  160POPC   D2A 2467   1.320   2.965   6.245 -0.4265  0.1619 -0.0818
  160POPC   C3A 2468   1.112   3.323   6.398  0.4687 -0.2432  0.0457
  160POPC   C4A 2469   0.874   3.728   6.660 -0.1545 -0.1503 -0.2048
  160POPC   C1B 2470   2.071   3.035   5.848  0.1184  0.0423 -0.2209
  160POPC   C2B 2471   1.926   2.765   6.211 -0.1151 -0.1657  0.1197
  160POPC   C3B 2472   1.687   2.691   6.516 -0.3489  0.2380 -0.0788
  160POPC   C4B 2473   1.648   2.563   6.984 -0.0629 -0.4411  0.1872
  161POPC   NC3 2474   2.035   1.057   4.626  0.1624 -0.1562 -0.0481
  161POPC   PO4 2475   2.319   1.313   4.592 -0.3953 -0.0626 -0.1795
  161POPC   GL1 2476   2.285   1.225   5.090  0.1069 -0.1571 -0.1536
  161POPC   GL2 2477   2.332   1.402   5.300 -0.1611  0.1166  0.0921
  161POPC   C1A 2478   2.006   1.072   5.435 -0.0524  0.0279  0.0118
  161POPC   D2A 2479   1.927   0.708   5.757 -0.0851 -0.0657  0.0681
  161POPC   C3A 2480   1.841   0.821   6.140  0.1349 -0.0172  0.1438
  161POPC   C4A 2481   1.577   0.695   6.540 -0.3038  0.0091  0.0826
  161POPC   C1B 2482   2.069   1.538   5.650 -0.3076  0.2888 -0.2050
  161POPC   C2B 2483   2.020   1.509   6.141  0.0818 -0.0055 -0.1480
  161POPC   C3B 2484   1.668   1.275   6.326  0.1072  0.0385 -0.1711
  161POPC   C4B 2485   1.387   1.254   6.650  0.2997 -0.3852 -0.1273
  162POPC   NC3 2486   8.113   7.708   5.239 -0.0981 -0.3180 -0.1461
  162POPC   PO4 2487   7.916   8.039   5.600  0.2941 -0.3093  0.3076
  162POPC   GL1 2488   7.890   7.940   6.071 -0.3278  0.1164 -0.0493
  162POPC   GL2 2489   7.871   7.529   6.130  0.0453 -0.1953  0.1270
  162POPC   C1A 2490   8.161   8.089   6.386  0.0036 -0.0890  0.1115
  162POPC   D2A 2491   8.057   8.435   6.678  0.0621  0.0106  0.1867
  162POPC   C3A 2492   8.275   8.531   6.976 -0.1079  0.4658 -0.0464
  162POPC   C4A 2493   8.474   8.779   7.320  0.2211 -0.0942  0.0647
  162POPC   C1B 2494   7.906   7.707   6.596 -0.3543  0.0748 -0.1409
  162POPC   C2B 2495   8.130   7.525   6.908  0.3033 -0.0457 -0.2396
  162POPC   C3B 2496   8.285   7.099   6.979  0.0709  0.1546  0.0338
  162POPC   C4B 2497   8.189   6.726   6.827  0.1021 -0.1714  0.0536
  163POPC   NC3 2498   6.905   6.351   5.258 -0.0423  0.1900  0.0412
  163POPC   PO4 2499   7.330   6.170   5.121  0.1050  0.0725 -0.1326
  163POPC   GL1 2500   7.273   6.030   5.531 -0.0616 -0.1825  0.1808
  163POPC   GL2 2501   7.020   6.088   5.734 -0.1962 -0.0035  0.3634
  163POPC   C1A 2502   7.541   6.042   5.924  0.0694  0.3304  0.4000
  163POPC   D2A 2503   7.977   5.970   6.167 -0.0260 -0.3585 -0.0826
  163POPC   C3A 2504   8.080   5.633   6.425  0.1140  0.1874  0.0861
  163POPC   C4A 2505   8.272   5.798   6.805  0.0636 -0.2119 -0.0412
  163POPC   C1B 2506   7.050   5.955   6.177  0.0307 -0.4283  0.0984
  163POPC   C2B 2507   7.141   5.685   6.559 -0.2524 -0.0522  0.4545
  163POPC   C3B 2508   7.365   5.442   6.849  0.1753 -0.2567 -0.0525
  163POPC   C4B 2509   7.245   5.066   6.932 -0.1295  0.1715  0.2150
  164POPC   NC3 2510   0.980   8.966   5.064  0.1272 -0.2610 -0.1549
  164POPC   PO4 2511   0.835   9.358   5.171 -0.0824  0.2550 -0.2962
  164POPC   GL1 2512   0.823   9.448   5.515 -0.2243  0.0596 -0.0930
  164POPC   GL2 2513   0.630   9.301   5.726  0.0566 -0.2838  0.1818
  164POPC   C1A 2514   0.865   9.689   5.916 -0.2568  0.4395  0.0386
  164POPC   D2A 2515   1.249   9.761   6.226 -0.1562  0.0911  0.2212
  164POPC   C3A 2516   1.671   9.558   6.426  0.2893  0.0638  0.0767
  164POPC   C4A 2517   1.764   9.582   6.843  0.1487 -0.0369 -0.0246
  164POPC   C1B 2518   0.720   9.281   6.195 -0.4864  0.0580 -0.0208
  164POPC   C2B 2519   0.908   9.508   6.435 -0.0049 -0.0065 -0.3403
  164POPC   C3B 2520   0.738   9.704   6.870  0.1411 -0.0232 -0.2575
  164POPC   C4B 2521   0.854   9.556   7.302 -0.2164 -0.0873  0.4048
  165POPC   NC3 2522   0.359   5.934   5.268  0.0127 -0.3622  0.2132
  165POPC   PO4 2523   0.024   6.191   5.194  0.0378 -0.0373  0.1726
  165POPC   GL1 2524  -0.132   6.191   5.617  0.0091 -0.0749  0.1614
  165POPC   GL2 2525  -0.369   5.886   5.649  0.3014  0.1070  0.2616
  165POPC   C1A 2526  -0.089   6.345   6.000 -0.1754  0.1826  0.3139
  165POPC   D2A 2527  -0.398   6.449   6.330 -0.0253  0.0551  0.0532
  165POPC   C3A 2528  -0.424   6.262   6.719  0.1345  0.2936  0.3207
  165POPC   C4A 2529  -0.746   6.196   6.996 -0.0496  0.1597  0.0039
  165POPC   C1B 2530  -0.295   5.633   5.937 -0.0494  0.1480  0.1951
  165POPC   C2B 2531  -0.099   5.715   6.352  0.0521  0.0547 -0.1993
  165POPC   C3B 2532   0.138   5.501   6.738 -0.2599 -0.0491  0.0237
  165POPC   C4B 2533   0.338   5.318   7.084 -0.0291 -0.0236 -0.1028
  166POPC   NC3 2534   0.958   1.678   4.411  0.3557  0.0852  0.1459
  166POPC   PO4 2535   1.246   1.991   4.619  0.1014 -0.0594  0.0782
  166POPC   GL1 2536   1.204   1.992   5.067  0.0823  0.4535  0.1994
  166POPC   GL2 2537   1.180   2.321   5.169  0.4589  0.0967 -0.0712
  166POPC   C1A 2538   1.054   1.964   5.545 -0.2162 -0.1361 -0.2858
  166POPC   D2A 2539   0.900   1.850   5.897  0.0196  0.1938  0.2685
  166POPC   C3A 2540   1.062   1.787   6.318 -0.0275 -0.0209 -0.3501
  166POPC   C4A 2541   0.922   1.911   6.582 -0.3291  0.0772 -0.0335
  166POPC   C1B 2542   1.224   2.502   5.548  0.2106 -0.0237  0.0424
  166POPC   C2B 2543   0.987   2.414   5.981 -0.2852 -0.2303 -0.0511
  166POPC   C3B 2544   0.863   2.475   6.433 -0.0326 -0.3195  0.1511
  166POPC   C4B 2545   0.795   2.361   6.917  0.3802  0.1866  0.0856
  167POPC   NC3 2546  10.037   6.749   5.197 -0.1935  0.1360 -0.0979
  167POPC   PO4 2547  10.090   7.176   5.026  0.3213  0.1576 -0.1029
  167POPC   GL1 2548  10.224   7.129   5.522  0.2103  0.0382  0.1637
  167POPC   GL2 2549  10.308   6.759   5.651 -0.2397 -0.2275 -0.2508
  167POPC   C1A 2550  10.423   7.208   5.869  0.1604 -0.0629  0.2235
  167POPC   D2A 2551  10.466   7.210   6.280 -0.0219 -0.0600 -0.1188
  167POPC   C3A 2552  10.724   6.933   6.539  0.2537  0.2959  0.2391
  167POPC   C4A 2553  10.940   6.745   6.881  0.1355  0.0949  0.2168
  167POPC   C1B 2554  10.124   6.847   6.014 -0.5866 -0.0431  0.0964
  167POPC   C2B 2555  10.165   6.833   6.415 -0.0437 -0.0582 -0.1170
  167POPC   C3B 2556  10.275   6.990   6.718  0.2056 -0.1005 -0.1205
  167POPC   C4B 2557  10.563   7.076   7.043 -0.1886 -0.1144 -0.3574
  168POPC   NC3 2558   7.560   1.007   4.146 -0.2072  0.5545 -0.0585
  168POPC   PO4 2559   7.349   1.293   4.086  0.0342  0.0755  0.1652
  168POPC   GL1 2560   7.302   1.497   4.457 -0.2423 -0.0338  0.2189
  168POPC   GL2 2561   7.172   1.873   4.377 -0.3064  0.0873 -0.0158
  168POPC   C1A 2562   7.561   1.553   4.829  0.2143  0.2000 -0.0531
  168POPC   D2A 2563   7.659   1.401   5.276  0.0781  0.0446 -0.2973
  168POPC   C3A 2564   7.602   1.001   5.298 -0.1071  0.1666 -0.0260
  168POPC   C4A 2565   7.301   0.754   5.103  0.0905 -0.0092  0.0485
  168POPC   C1B 2566   7.230   2.027   4.768  0.0736 -0.4317 -0.1536
  168POPC   C2B 2567   7.053   2.316   5.029 -0.0362 -0.2061  0.1226
  168POPC   C3B 2568   7.244   2.722   5.328  0.0384  0.0624 -0.3080
  168POPC   C4B 2569   7.522   2.611   5.659  0.3138  0.0566  0.0987
  169POPC   NC3 2570   5.128   2.372   4.485  0.0337 -0.0296  0.3428
  169POPC   PO4 2571   4.667   2.462   4.419  0.3718  0.2955  0.0638
  169POPC   GL1 2572   4.728   2.534   4.913  0.1796  0.1420  0.1663
  169POPC   GL2 2573   4.841   2.891   5.078 -0.0610 -0.1104 -0.0771
  169POPC   C1A 2574   4.592   2.352   5.297 -0.2376  0.1693  0.2441
  169POPC   D2A 2575   4.744   2.216   5.675  0.1877 -0.0873  0.0861
  169POPC   C3A 2576   4.949   2.386   5.955 -0.2780 -0.1365  0.1235
  169POPC   C4A 2577   4.754   2.749   6.224 -0.0870 -0.2305  0.2794
  169POPC   C1B 2578   4.631   2.888   5.446 -0.1375  0.0269 -0.1795
  169POPC   C2B 2579   4.813   2.945   5.754 -0.2221  0.0863 -0.1817
  169POPC   C3B 2580   5.195   2.924   6.106 -0.0890 -0.3582 -0.1059
  169POPC   C4B 2581   5.397   3.251   6.391 -0.0705  0.2386 -0.2370
  170POPC   NC3 2582   3.400   7.350   4.987 -0.1227 -0.0425  0.0202
  170POPC   PO4 2583   3.719   7.253   5.340  0.3347 -0.4029 -0.0638
  170POPC   GL1 2584   3.689   7.381   5.697  0.0619 -0.4460  0.2309
  170POPC   GL2 2585   4.013   7.317   5.958  0.0580 -0.2730 -0.0273
  170POPC   C1A 2586   3.486   7.144   6.041  0.1667  0.0929 -0.2275
  170POPC   D2A 2587   3.423   7.449   6.548  0.0466 -0.1462 -0.2476
  170POPC   C3A 2588   3.672   7.412   6.929 -0.0985 -0.1432 -0.5676
  170POPC   C4A 2589   3.421   7.268   7.323  0.0849 -0.3653 -0.0689
  170POPC   C1B 2590   4.025   7.119   6.304 -0.3709 -0.2764 -0.1674
  170POPC   C2B 2591   3.773   7.060   6.575 -0.1233  0.0078  0.1913
  170POPC   C3B 2592   3.562   6.850   6.801 -0.3804  0.1633  0.1535
  170POPC   C4B 2593   3.443   6.748   7.220 -0.1474  0.1079 -0.0037
  171POPC   NC3 2594   4.928   1.045   4.885 -0.1250  0.2220  0.1779
  171POPC   PO4 2595   5.198   0.643   4.842 -0.0684  0.1394  0.0092
  171POPC   GL1 2596   5.340   0.740   5.255 -0.0187 -0.4595 -0.1686
  171POPC   GL2 2597   5.526   1.098   5.365 -0.1721  0.2726  0.2797
  171POPC   C1A 2598   5.281   0.720   5.780 -0.2076  0.0478  0.1315
  171POPC   D2A 2599   5.302   0.697   6.189 -0.2716 -0.0832  0.3895
  171POPC   C3A 2600   5.275   0.933   6.465  0.3950 -0.0269 -0.0097
  171POPC   C4A 2601   5.058   1.080   6.726 -0.3316  0.3098 -0.0181
  171POPC   C1B 2602   5.694   0.981   5.732 -0.0494 -0.1558 -0.3089
  171POPC   C2B 2603   5.761   1.310   5.996 -0.2423 -0.1212  0.0074
  171POPC   C3B 2604   6.026   1.338   6.359  0.1773 -0.0424 -0.2406
  171POPC   C4B 2605   6.404   1.404   6.589  0.0920  0.2395  0.0262
  172POPC   NC3 2606   2.883   3.891   5.270 -0.0236  0.3868 -0.1664
  172POPC   PO4 2607   2.833   4.387   5.228  0.0460  0.0389 -0.0385
  172POPC   GL1 2608   2.832   4.306   5.588 -0.0658  0.0083 -0.0051
  172POPC   GL2 2609   3.094   4.238   5.585 -0.0944  0.0250 -0.4547
  172POPC   C1A 2610   2.768   4.510   6.005 -0.1003  0.2311  0.2757
  172POPC   D2A 2611   2.690   4.652   6.374 -0.4566 -0.2331 -0.0037
  172POPC   C3A 2612   2.369   4.937   6.301 -0.2147 -0.2239  0.0692
  172POPC   C4A 2613   2.453   5.414   6.083  0.1619  0.0745  0.0216
  172POPC   C1B 2614   2.975   4.034   5.974  0.0984  0.2583  0.3738
  172POPC   C2B 2615   2.832   4.070   6.474 -0.1096 -0.2789  0.3603
  172POPC   C3B 2616   3.057   3.842   6.757  0.1371 -0.2213  0.3457
  172POPC   C4B 2617   3.198   3.657   7.032 -0.1150  0.2089  0.1462
  173POPC   NC3 2618   7.666   3.018   3.740 -0.0622  0.0240 -0.2791
  173POPC   PO4 2619   7.610   2.751   4.107  0.0010  0.3047 -0.0494
  173POPC   GL1 2620   7.790   2.946   4.565  0.1583  0.1899 -0.1554
  173POPC   GL2 2621   7.842   3.282   4.465 -0.1489 -0.0706 -0.3268
  173POPC   C1A 2622   8.058   2.688   4.892  0.1423 -0.0123 -0.1347
  173POPC   D2A 2623   8.301   2.295   4.924  0.3352 -0.0086 -0.2997
  173POPC   C3A 2624   8.076   2.076   5.303  0.0014  0.0701  0.0199
  173POPC   C4A 2625   7.966   1.652   5.584 -0.4799 -0.0169  0.1286
  173POPC   C1B 2626   7.407   3.381   4.679 -0.0721  0.0757  0.4435
  173POPC   C2B 2627   7.407   3.567   5.085 -0.2257 -0.2545 -0.2759
  173POPC   C3B 2628   7.079   3.432   5.461  0.1253  0.2261  0.0443
  173POPC   C4B 2629   6.627   3.554   5.534 -0.1877  0.1529 -0.0136
  174POPC   NC3 2630   4.681   6.221   5.908  0.0313 -0.0501  0.1192
  174POPC   PO4 2631   4.950   6.587   5.968  0.0082 -0.0269  0.2640
  174POPC   GL1 2632   5.044   6.242   6.250  0.1177 -0.0729  0.1100
  174POPC   GL2 2633   4.874   5.938   6.313  0.3083 -0.0281 -0.2268
  174POPC   C1A 2634   5.389   5.965   6.408 -0.2301  0.1453 -0.3400
  174POPC   D2A 2635   5.569   5.882   6.808  0.0443  0.1851 -0.1211
  174POPC   C3A 2636   5.175   5.733   7.170  0.0024  0.1576  0.1132
  174POPC   C4A 2637   4.857   5.359   7.242 -0.0262 -0.0457 -0.0868
  174POPC   C1B 2638   5.062   5.942   6.751  0.0997  0.1926  0.1988
  174POPC   C2B 2639   4.745   6.074   7.016 -0.0147  0.0437  0.2445
  174POPC   C3B 2640   4.386   6.138   7.165 -0.1135  0.1246  0.1024
  174POPC   C4B 2641   4.020   5.941   7.179 -0.0096 -0.1451 -0.0141
  175POPC   NC3 2642   2.084   8.001   5.439 -0.1626  0.0482 -0.0147
  175POPC   PO4 2643   1.659   8.013   5.481 -0.1356  0.2239 -0.3370
  175POPC   GL1 2644   1.374   7.717   5.668  0.0914 -0.1643 -0.0564
  175POPC   GL2 2645   1.089   7.787   5.566  0.0721 -0.1996  0.0817
  175POPC   C1A 2646   1.336   7.487   5.974  0.2776 -0.0260  0.4208
  175POPC   D2A 2647   1.209   7.614   6.403  0.0168  0.0131  0.1895
  175POPC   C3A 2648   1.294   8.030   6.600  0.1605 -0.0291 -0.0848
  175POPC   C4A 2649   1.432   8.356   6.838 -0.1211  0.4071  0.2429
  175POPC   C1B 2650   0.960   7.868   6.044 -0.0766 -0.1324 -0.1170
  175POPC   C2B 2651   0.805   7.877   6.569 -0.0325  0.1200  0.0206
  175POPC   C3B 2652   0.922   7.788   6.879  0.0883  0.0810  0.1037
  175POPC   C4B 2653   1.058   7.592   7.319 -0.2424 -0.2654 -0.3822
  176POPC   NC3 2654   3.731   2.167   4.615  0.0248 -0.1219 -0.0886
  176POPC   PO4 2655   3.317   2.383   4.718 -0.4116  0.0620  0.2477
  176POPC   GL1 2656   3.614   2.471   5.037 -0.0642  0.1491  0.4184
  176POPC   GL2 2657   3.851   2.168   5.099 -0.2193 -0.2049 -0.0027
  176POPC   C1A 2658   3.686   2.541   5.385  0.1180  0.0199  0.0121
  176POPC   D2A 2659   3.563   2.374   5.828  0.1366  0.3151 -0.0556
  176POPC   C3A 2660   3.937   2.365   6.182 -0.0156  0.0531 -0.2944
  176POPC   C4A 2661   3.828   2.274   6.610  0.2157  0.0774  0.0836
  176POPC   C1B 2662   3.884   2.005   5.517  0.0918  0.0852 -0.0421
  176POPC   C2B 2663   3.858   1.921   5.924  0.3759 -0.0353  0.1770
  176POPC   C3B 2664   3.586   2.018   6.262  0.0098  0.0952 -0.1169
  176POPC   C4B 2665   3.313   1.872   6.599  0.0230  0.1503  0.0176
  177POPC   NC3 2666   4.338   2.883   4.799  0.1866 -0.0959  0.0148
  177POPC   PO4 2667   4.146   3.203   4.577 -0.1318  0.0132  0.0019
  177POPC   GL1 2668   4.055   3.260   5.026  0.1655 -0.1470  0.1956
  177POPC   GL2 2669   3.800   3.046   5.008 -0.0496 -0.0061 -0.0190
  177POPC   C1A 2670   3.892   3.382   5.384  0.0670  0.0049 -0.0476
  177POPC   D2A 2671   3.787   3.344   5.806  0.2982  0.0565  0.0125
  177POPC   C3A 2672   3.443   3.670   5.986 -0.1289 -0.1922  0.3509
  177POPC   C4A 2673   3.120   3.654   6.282 -0.2532 -0.1754 -0.2378
  177POPC   C1B 2674   3.522   3.004   5.293  0.0983 -0.3193  0.1942
  177POPC   C2B 2675   3.316   3.291   5.542 -0.0708 -0.2584  0.0682
  177POPC   C3B 2676   3.291   3.203   5.919  0.0939 -0.2939 -0.2504
  177POPC   C4B 2677   3.204   3.177   6.402 -0.1372  0.2107 -0.1743
  178POPC   NC3 2678   4.325   1.424   4.817 -0.0195  0.1039  0.1783
  178POPC   PO4 2679   4.387   0.947   4.958  0.4979  0.2208  0.1504
  178POPC   GL1 2680   4.513   0.850   5.442  0.0799  0.0504  0.0766
  178POPC   GL2 2681   4.763   0.596   5.526  0.1310  0.0249 -0.0150
  178POPC   C1A 2682   4.602   1.045   5.844 -0.0427 -0.0246  0.1058
  178POPC   D2A 2683   4.900   1.097   6.192 -0.1063 -0.0299 -0.2473
  178POPC   C3A 2684   4.864   1.463   6.417 -0.0300 -0.1630  0.0078
  178POPC   C4A 2685   4.627   1.904   6.574  0.0261  0.0282 -0.1569
  178POPC   C1B 2686   4.833   0.620   5.955  0.2453  0.0217  0.1633
  178POPC   C2B 2687   4.790   0.732   6.447  0.0282  0.2443 -0.0499
  178POPC   C3B 2688   4.821   0.650   6.880 -0.0253 -0.1201 -0.3579
  178POPC   C4B 2689   4.622   0.619   7.236  0.0049 -0.1000  0.0170
  179POPC   NC3 2690   5.674   7.436   5.622 -0.0494  0.1958  0.1458
  179POPC   PO4 2691   5.766   7.800   5.910 -0.1668  0.1935 -0.0600
  179POPC   GL1 2692   6.057   7.634   6.168  0.3132  0.0803  0.0062
  179POPC   GL2 2693   6.212   8.011   6.146 -0.2015  0.0446 -0.0429
  179POPC   C1A 2694   5.981   7.470   6.583  0.3444  0.0806  0.2131
  179POPC   D2A 2695   5.719   7.069   6.799  0.0812  0.0946 -0.0849
  179POPC   C3A 2696   5.480   6.807   6.640  0.1432 -0.0328  0.4975
  179POPC   C4A 2697   5.486   6.432   6.452  0.2868 -0.1219  0.1941
  179POPC   C1B 2698   6.176   7.919   6.670  0.1637 -0.1130  0.4203
  179POPC   C2B 2699   5.963   7.709   7.085  0.1320 -0.0518 -0.0568
  179POPC   C3B 2700   5.680   7.458   7.190 -0.1365 -0.0726  0.1689
  179POPC   C4B 2701   5.301   7.442   7.468  0.0782 -0.1413  0.0256
  180POPC   NC3 2702   9.467   1.200   4.218 -0.0168 -0.0038  0.0645
  180POPC   PO4 2703   9.920   1.362   4.294  0.0188 -0.0284 -0.2515
  180POPC   GL1 2704   9.772   1.277   4.786 -0.1504 -0.2602 -0.1439
  180POPC   GL2 2705   9.402   1.115   4.722  0.4290 -0.0925 -0.0763
  180POPC   C1A 2706   9.982   1.357   5.186 -0.0182 -0.2133  0.2655
  180POPC   D2A 2707  10.104   1.406   5.657  0.0701  0.2523 -0.2836
  180POPC   C3A 2708  10.193   1.871   5.819 -0.0499 -0.0060 -0.1594
  180POPC   C4A 2709  10.196   2.364   5.864 -0.3274  0.0073  0.0236
  180POPC   C1B 2710   9.021   0.932   4.927  0.2786  0.0577  0.1361
  180POPC   C2B 2711   8.577   0.873   4.844 -0.3194  0.0420  0.3264
  180POPC   C3B 2712   8.256   0.448   5.013 -0.2629  0.1142 -0.3114
  180POPC   C4B 2713   7.775   0.562   4.994 -0.0574  0.1259  0.0175
  181POPC   NC3 2714   4.188   4.443   5.116 -0.0799  0.0856  0.2144
  181POPC   PO4 2715   3.838   4.283   5.110  0.3145 -0.3786  0.0409
  181POPC   GL1 2716   3.805   4.084   5.381 -0.1619  0.2234 -0.0120
  181POPC   GL2 2717   3.534   3.937   5.559 -0.0097  0.1315 -0.4186
  181POPC   C1A 2718   3.956   3.838   5.741  0.0142  0.0271  0.0514
  181POPC   D2A 2719   4.317   3.588   5.851 -0.0085 -0.0556 -0.0774
  181POPC   C3A 2720   4.363   3.336   6.158  0.0867 -0.0799 -0.1387
  181POPC   C4A 2721   4.470   3.274   6.624  0.1371 -0.2473 -0.0134
  181POPC   C1B 2722   3.582   4.299   5.771  0.4492  0.3614  0.2696
  181POPC   C2B 2723   3.574   4.316   6.245  0.0894  0.1589 -0.3215
  181POPC   C3B 2724   3.675   3.930   6.548 -0.1202 -0.1091  0.0052
  181POPC   C4B 2725   3.475   3.566   6.577 -0.0479  0.1526  0.2783
  182POPC   NC3 2726   1.897   4.087   4.376 -0.0696  0.4314  0.0716
  182POPC   PO4 2727   1.411   4.135   4.498  0.1472  0.1085  0.4656
  182POPC   GL1 2728   1.381   4.189   4.948 -0.3598 -0.0059 -0.2446
  182POPC   GL2 2729   1.518   4.493   5.205 -0.0450 -0.2476  0.0778
  182POPC   C1A 2730   1.160   4.307   5.464  0.0118  0.3061 -0.0712
  182POPC   D2A 2731   0.933   4.189   5.799 -0.4975  0.0992  0.1315
  182POPC   C3A 2732   0.648   3.758   5.788 -0.0495 -0.0001  0.1427
  182POPC   C4A 2733   0.319   3.568   6.084 -0.1351  0.2199  0.1451
  182POPC   C1B 2734   1.715   4.295   5.525  0.1061  0.0458 -0.2701
  182POPC   C2B 2735   1.841   4.066   5.977  0.0994 -0.0000  0.3469
  182POPC   C3B 2736   1.604   3.810   6.122  0.0391 -0.3949  0.3122
  182POPC   C4B 2737   1.372   3.773   6.516 -0.0266  0.1190  0.0094
  183POPC   NC3 2738   9.542   0.374   4.442  0.0044  0.0163  0.0435
  183POPC   PO4 2739   9.619   0.775   4.413 -0.2971 -0.2576 -0.1516
  183POPC   GL1 2740   9.626   0.653   4.852 -0.1276  0.0050  0.1345
  183POPC   GL2 2741   9.347   0.550   5.035 -0.1563 -0.1086 -0.0072
  183POPC   C1A 2742   9.701   0.945   5.196 -0.0028  0.2361 -0.2117
  183POPC   D2A 2743   9.643   1.143   5.645  0.0558 -0.3040  0.4269
  183POPC   C3A 2744   9.455   1.060   6.045  0.0605 -0.0673 -0.1229
  183POPC   C4A 2745   9.371   0.847   6.441 -0.0928  0.0993 -0.0472
  183POPC   C1B 2746   9.326   0.631   5.434  0.1459 -0.1554  0.0109
  183POPC   C2B 2747   9.189   0.666   5.932  0.1168  0.0112 -0.1441
  183POPC   C3B 2748   9.031   0.398   6.390 -0.0983 -0.3467  0.1375
  183POPC   C4B 2749   9.067   0.063   6.563 -0.2535 -0.2499  0.2561
  184POPC   NC3 2750   4.618   9.729   5.016  0.0003  0.0902 -0.2046
  184POPC   PO4 2751   4.567   9.532   5.404 -0.0732 -0.0300  0.1147
  184POPC   GL1 2752   4.672   9.846   5.714  0.0862  0.3033  0.0529
  184POPC   GL2 2753   4.952   9.835   5.838 -0.2204 -0.1153 -0.3131
  184POPC   C1A 2754   4.467   9.996   6.088 -0.2321 -0.0039 -0.0544
  184POPC   D2A 2755   4.532   9.952   6.496  0.0186  0.1461 -0.2956
  184POPC   C3A 2756   4.947  10.009   6.660  0.0012  0.0234 -0.2374
  184POPC   C4A 2757   5.314  10.100   6.977 -0.0323 -0.2592 -0.0523
  184POPC   C1B 2758   4.836   9.651   6.249  0.0754  0.5746  0.0084
  184POPC   C2B 2759   4.851   9.468   6.618  0.3003 -0.3242  0.2467
  184POPC   C3B 2760   4.922   9.240   7.040  0.1506 -0.0780  0.1201
  184POPC   C4B 2761   5.121   9.161   7.341 -0.0295 -0.0267  0.0322
  185POPC   NC3 2762   8.876   1.498   3.538 -0.2814  0.2251  0.0024
  185POPC   PO4 2763   9.054   1.454   3.938  0.0896  0.0368 -0.2008
  185POPC   GL1 2764   9.157   1.528   4.358 -0.3905 -0.0016 -0.1402
  185POPC   GL2 2765   9.464   1.662   4.399 -0.2802 -0.2710 -0.1071
  185POPC   C1A 2766   9.060   1.452   4.766  0.0351  0.0398  0.1990
  185POPC   D2A 2767   8.962   1.770   5.028 -0.3458  0.0160  0.0455
  185POPC   C3A 2768   8.996   1.592   5.423 -0.0761  0.0605  0.3549
  185POPC   C4A 2769   9.183   1.578   5.815 -0.1251  0.1376  0.3348
  185POPC   C1B 2770   9.461   1.639   4.914  0.1549  0.1926 -0.1308
  185POPC   C2B 2771   9.556   1.791   5.279 -0.2035  0.4673 -0.1084
  185POPC   C3B 2772   9.692   1.792   5.667 -0.1112  0.1702  0.0176
  185POPC   C4B 2773   9.620   1.609   6.074 -0.3349  0.1033 -0.1120
  186POPC   NC3 2774   3.341   5.525   5.028  0.1747 -0.1763 -0.3549
  186POPC   PO4 2775   2.941   5.545   4.973  0.0099  0.3409  0.0674
  186POPC   GL1 2776   2.932   5.364   5.356 -0.2410  0.3767 -0.2918
  186POPC   GL2 2777   2.772   5.423   5.688  0.0549  0.1128 -0.2236
  186POPC   C1A 2778   3.217   5.162   5.672 -0.1116  0.0874 -0.2984
  186POPC   D2A 2779   3.237   5.269   6.027  0.0017  0.0022  0.4188
  186POPC   C3A 2780   2.870   5.475   6.251 -0.0587  0.2725  0.2827
  186POPC   C4A 2781   2.799   5.849   6.340 -0.0257 -0.1522 -0.1756
  186POPC   C1B 2782   2.972   5.759   5.799 -0.0380 -0.2653  0.0523
  186POPC   C2B 2783   3.260   6.054   6.042 -0.0495  0.1056  0.3077
  186POPC   C3B 2784   3.409   6.378   6.010 -0.3364 -0.1139 -0.2653
  186POPC   C4B 2785   3.758   6.780   5.898  0.0598  0.1901 -0.0794
  187POPC   NC3 2786   2.022   5.112   5.187  0.1965 -0.1661  0.2045
  187POPC   PO4 2787   1.989   4.653   5.066  0.2022  0.1549  0.5099
  187POPC   GL1 2788   2.099   4.617   5.556  0.1702  0.0465 -0.0527
  187POPC   GL2 2789   1.873   4.842   5.594 -0.0649  0.1224  0.1237
  187POPC   C1A 2790   2.045   4.590   5.989  0.2636 -0.0748  0.1432
  187POPC   D2A 2791   1.871   4.507   6.376  0.4245 -0.3073 -0.0878
  187POPC   C3A 2792   1.737   4.165   6.514 -0.2297  0.0553 -0.0599
  187POPC   C4A 2793   1.705   3.937   6.886  0.1959  0.2409  0.0855
  187POPC   C1B 2794   1.933   5.052   6.094 -0.1749 -0.2203  0.2993
  187POPC   C2B 2795   2.030   5.192   6.478  0.0272  0.1306  0.0708
  187POPC   C3B 2796   2.014   5.206   6.999 -0.0747  0.0219  0.0805
  187POPC   C4B 2797   2.097   5.482   7.335 -0.2039 -0.1045  0.0287
  188POPC   NC3 2798   9.303   4.784   4.232  0.1733  0.1677 -0.1896
  188POPC   PO4 2799   9.123   5.066   4.428 -0.0377  0.2688  0.3400
  188POPC   GL1 2800   9.048   4.704   4.692  0.0446 -0.1885  0.2586
  188POPC   GL2 2801   9.355   4.538   4.878  0.0284 -0.3507 -0.0501
  188POPC   C1A 2802   8.722   4.525   5.050 -0.0431 -0.1228  0.0381
  188POPC   D2A 2803   8.716   4.404   5.470  0.1015  0.4087  0.2392
  188POPC   C3A 2804   8.701   4.138   5.780 -0.0688  0.1006  0.0219
  188POPC   C4A 2805   8.656   4.263   6.130  0.0409 -0.1176 -0.1108
  188POPC   C1B 2806   9.483   4.405   5.205 -0.0755 -0.3053 -0.1457
  188POPC   C2B 2807   9.689   4.149   5.438 -0.0955  0.0082 -0.0314
  188POPC   C3B 2808   9.929   3.833   5.275  0.4587 -0.3791 -0.0648
  188POPC   C4B 2809   9.978   3.794   4.826  0.0001 -0.4986  0.0190
  189POPC   NC3 2810   8.237   1.467   4.166  0.0213  0.0473 -0.0709
  189POPC   PO4 2811   8.605   1.244   4.247  0.4133  0.1900  0.1310
  189POPC   GL1 2812   8.616   1.294   4.625  0.0755  0.0550  0.0408
  189POPC   GL2 2813   8.316   1.376   4.755 -0.0072  0.3380  0.0727
  189POPC   C1A 2814   8.642   1.340   5.109  0.1232  0.2121 -0.1162
  189POPC   D2A 2815   8.548   1.088   5.355 -0.2841 -0.1685  0.0225
  189POPC   C3A 2816   8.664   1.212   5.787  0.0032  0.0747 -0.3815
  189POPC   C4A 2817   8.968   1.130   6.067 -0.2887  0.1723  0.0062
  189POPC   C1B 2818   8.537   1.778   4.744 -0.1179  0.0071 -0.1817
  189POPC   C2B 2819   8.989   1.982   4.518  0.0731 -0.2975  0.1312
  189POPC   C3B 2820   9.349   2.110   4.591  0.3856 -0.2529  0.1131
  189POPC   C4B 2821   9.763   2.105   4.534 -0.1406  0.2017 -0.4521
  190POPC   NC3 2822   3.952   6.246   5.516  0.2423  0.2883  0.1302
  190POPC   PO4 2823   4.275   6.408   5.694  0.1048  0.0002  0.4366
  190POPC   GL1 2824   4.156   6.470   6.118 -0.3045  0.2544  0.1161
  190POPC   GL2 2825   4.382   6.575   6.289  0.0854 -0.1854  0.1777
  190POPC   C1A 2826   3.785   6.592   6.443 -0.4322 -0.0550 -0.1387
  190POPC   D2A 2827   3.354   6.478   6.545 -0.0926  0.1753  0.1675
  190POPC   C3A 2828   3.199   6.430   6.828  0.0043 -0.0223  0.0467
  190POPC   C4A 2829   3.019   6.290   7.048 -0.1577 -0.0632 -0.1112
  190POPC   C1B 2830   4.657   6.374   6.563 -0.2354  0.1514 -0.3037
  190POPC   C2B 2831   4.586   6.552   7.012 -0.1937  0.2758  0.0653
  190POPC   C3B 2832   4.448   6.894   7.344 -0.1544 -0.0855  0.2336
  190POPC   C4B 2833   4.301   7.294   7.277  0.0972 -0.0808 -0.4100
  191POPC   NC3 2834   3.173   0.914   4.819  0.1656 -0.2693  0.0461
  191POPC   PO4 2835   3.646   1.014   4.977 -0.0147  0.3722 -0.0730
  191POPC   GL1 2836   3.626   0.761   5.356 -0.2445  0.1178  0.0267
  191POPC   GL2 2837   3.694   0.380   5.551 -0.0913  0.0061  0.2774
  191POPC   C1A 2838   3.524   0.873   5.783 -0.2013 -0.2677  0.1975
  191POPC   D2A 2839   3.366   0.982   6.183  0.1935  0.2582 -0.1098
  191POPC   C3A 2840   3.190   0.550   6.410 -0.1067 -0.3629 -0.2880
  191POPC   C4A 2841   3.362   0.224   6.746  0.1066 -0.1898  0.1767
  191POPC   C1B 2842   3.548   0.468   6.081 -0.0909  0.3853  0.0946
  191POPC   C2B 2843   3.677   0.429   6.360  0.1739 -0.2790 -0.1926
  191POPC   C3B 2844   3.815   0.390   6.746 -0.1979  0.1513  0.0318
  191POPC   C4B 2845   3.624   0.626   7.156  0.2779 -0.0442 -0.0034
  192POPC   NC3 2846   1.123   0.692   4.638 -0.0404  0.0237  0.3962
  192POPC   PO4 2847   1.067   0.501   4.925 -0.1527 -0.4636 -0.0847
  192POPC   GL1 2848   0.911   0.487   5.295 -0.0400  0.0089  0.3283
  192POPC   GL2 2849   0.902   0.800   5.409 -0.0777  0.0435 -0.2947
  192POPC   C1A 2850   1.030   0.488   5.783  0.4764  0.2468  0.0819
  192POPC   D2A 2851   0.800   0.792   6.042 -0.2140  0.6334  0.0624
  192POPC   C3A 2852   0.717   1.154   5.715 -0.0715  0.0079  0.0959
  192POPC   C4A 2853   0.509   1.539   5.656  0.2072 -0.0332 -0.0176
  192POPC   C1B 2854   1.238   0.920   5.837 -0.0569 -0.0418  0.1023
  192POPC   C2B 2855   1.210   0.993   6.304 -0.1059 -0.2987  0.0899
  192POPC   C3B 2856   1.098   0.794   6.752 -0.1894  0.1847  0.0192
  192POPC   C4B 2857   0.786   0.489   6.846  0.0044  0.2424  0.0186
  193POPC   NC3 2858   0.315   8.326   5.226 -0.0244 -0.0638 -0.1302
  193POPC   PO4 2859   0.623   8.114   5.016 -0.5264  0.0383  0.3821
  193POPC   GL1 2860   0.618   8.105   5.550 -0.1285 -0.0479  0.1410
  193POPC   GL2 2861   0.888   8.298   5.621  0.0646  0.1399 -0.0646
  193POPC   C1A 2862   0.317   8.290   5.888 -0.0965  0.2128 -0.1512
  193POPC   D2A 2863   0.045   8.094   6.229  0.2735  0.0055 -0.0681
  193POPC   C3A 2864   0.150   7.839   6.609  0.3404 -0.1912 -0.0140
  193POPC   C4A 2865   0.339   7.495   6.669  0.0142  0.2268  0.2172
  193POPC   C1B 2866   0.904   8.384   5.984  0.1285 -0.4095 -0.0112
  193POPC   C2B 2867   0.994   8.317   6.361 -0.1331  0.1346  0.2045
  193POPC   C3B 2868   0.951   8.298   6.884  0.0961  0.0333  0.0473
  193POPC   C4B 2869   1.104   8.545   7.291  0.2264  0.0699  0.0166
  194POPC   NC3 2870   3.986   4.650   4.675  0.2273 -0.0384  0.3637
  194POPC   PO4 2871   3.781   4.769   5.001  0.0040  0.2444 -0.1899
  194POPC   GL1 2872   3.816   4.999   5.359 -0.1136  0.1858 -0.1573
  194POPC   GL2 2873   3.608   4.741   5.495  0.0027  0.0584  0.0257
  194POPC   C1A 2874   4.052   5.099   5.756 -0.0686 -0.1728 -0.0547
  194POPC   D2A 2875   4.348   5.225   6.081  0.0888 -0.1416  0.2611
  194POPC   C3A 2876   4.258   5.251   6.588  0.2617 -0.4407  0.0938
  194POPC   C4A 2877   4.453   5.182   6.916  0.0421  0.1626 -0.1753
  194POPC   C1B 2878   3.646   4.792   5.897  0.0697 -0.3068 -0.1738
  194POPC   C2B 2879   3.529   4.865   6.328  0.2602  0.0883  0.3065
  194POPC   C3B 2880   3.380   5.151   6.712 -0.0220 -0.1342  0.1058
  194POPC   C4B 2881   3.037   5.326   6.744  0.1906  0.1010 -0.0082
  195POPC   NC3 2882   1.388   5.978   5.097 -0.1599  0.0920 -0.1773
  195POPC   PO4 2883   1.538   6.321   5.326 -0.0397  0.0597  0.0528
  195POPC   GL1 2884   1.463   6.221   5.648  0.1687  0.0874 -0.2488
  195POPC   GL2 2885   1.522   6.457   5.851 -0.1212 -0.0405  0.3393
  195POPC   C1A 2886   1.175   5.984   5.868 -0.0338 -0.1777 -0.1140
  195POPC   D2A 2887   1.095   6.032   6.291 -0.0129 -0.2634  0.2511
  195POPC   C3A 2888   1.403   5.816   6.608  0.1139 -0.1811 -0.0581
  195POPC   C4A 2889   1.784   5.625   6.741  0.1874  0.0008 -0.2259
  195POPC   C1B 2890   1.554   6.218   6.194  0.0476 -0.1865  0.1653
  195POPC   C2B 2891   1.821   6.134   6.542 -0.1443  0.0975  0.0276
  195POPC   C3B 2892   1.924   6.025   7.043 -0.0422 -0.0793 -0.0606
  195POPC   C4B 2893   1.746   6.350   7.168 -0.3390  0.1191 -0.1793
  196POPC   NC3 2894   4.524   7.661   5.255  0.2772 -0.1400 -0.2640
  196POPC   PO4 2895   4.708   7.553   5.741 -0.0293 -0.1149 -0.0141
  196POPC   GL1 2896   4.858   7.632   6.178 -0.0026 -0.3092  0.2427
  196POPC   GL2 2897   4.811   7.922   6.382  0.2734  0.1534  0.0879
  196POPC   C1A 2898   4.881   7.468   6.503 -0.2328  0.3147  0.0665
  196POPC   D2A 2899   4.674   7.488   6.962  0.0061 -0.2762  0.0445
  196POPC   C3A 2900   4.786   7.249   7.317  0.1308 -0.1793  0.0184
  196POPC   C4A 2901   4.693   7.123   7.707 -0.2548 -0.2440 -0.2336
  196POPC   C1B 2902   4.501   7.835   6.704 -0.0339  0.1278 -0.1348
  196POPC   C2B 2903   4.312   7.776   7.172  0.0426 -0.1422 -0.1414
  196POPC   C3B 2904   3.937   7.763   7.278  0.1836  0.2216 -0.2310
  196POPC   C4B 2905   3.477   7.710   7.348 -0.1451 -0.2772 -0.2040
  197POPC   NC3 2906   7.012   4.602   4.701  0.1944 -0.0829 -0.2620
  197POPC   PO4 2907   7.197   4.987   4.811 -0.0876 -0.1215  0.0870
  197POPC   GL1 2908   7.254   5.265   4.973  0.2638  0.0162 -0.1187
  197POPC   GL2 2909   7.697   5.272   5.006 -0.5545 -0.0261  0.4136
  197POPC   C1A 2910   7.315   5.254   5.443 -0.3019  0.0171 -0.1142
  197POPC   D2A 2911   7.373   4.867   5.598  0.0564 -0.0088 -0.1994
  197POPC   C3A 2912   7.591   4.689   5.553 -0.1808  0.2328 -0.0112
  197POPC   C4A 2913   7.722   4.664   5.120  0.2392 -0.2096 -0.0106
  197POPC   C1B 2914   7.927   5.033   5.366  0.2965  0.0723  0.1329
  197POPC   C2B 2915   7.794   5.082   5.772  0.3970  0.1808  0.0055
  197POPC   C3B 2916   7.515   5.066   6.195 -0.2819  0.0805 -0.2893
  197POPC   C4B 2917   7.224   5.195   6.391 -0.2272  0.1036  0.0986
  198POPC   NC3 2918   8.561   3.655   3.995  0.1161 -0.0537  0.1011
  198POPC   PO4 2919   8.965   3.937   3.955 -0.0821  0.1783  0.0855
  198POPC   GL1 2920   9.045   3.696   4.206 -0.0448  0.3951  0.1773
  198POPC   GL2 2921   8.792   3.807   4.425  0.0822 -0.4396 -0.0341
  198POPC   C1A 2922   9.390   3.915   4.521 -0.1804 -0.0040 -0.1574
  198POPC   D2A 2923   9.505   3.985   4.935  0.2571 -0.2881  0.0346
  198POPC   C3A 2924   9.876   4.266   4.926 -0.1470 -0.0802 -0.2599
  198POPC   C4A 2925  10.135   4.345   5.232  0.0082  0.0007 -0.6287
  198POPC   C1B 2926   8.808   4.063   4.844 -0.2608  0.1328 -0.4714
  198POPC   C2B 2927   9.070   4.067   5.276  0.2407  0.0789 -0.1828
  198POPC   C3B 2928   9.205   4.217   5.694  0.0390  0.0972  0.5487
  198POPC   C4B 2929   9.132   4.082   6.061  0.1514  0.1708  0.0153
  199POPC   NC3 2930   9.975   3.712   3.789  0.0715 -0.2514 -0.1216
  199POPC   PO4 2931  10.251   3.434   3.504  0.0472 -0.0355 -0.1007
  199POPC   GL1 2932  10.054   3.188   3.881 -0.2221 -0.1587  0.0419
  199POPC   GL2 2933  10.239   3.402   4.134  0.1147 -0.0945 -0.1280
  199POPC   C1A 2934   9.780   2.982   4.120  0.1465  0.0339 -0.0593
  199POPC   D2A 2935   9.469   3.188   4.363 -0.1410  0.1884  0.1495
  199POPC   C3A 2936   9.290   3.019   4.780 -0.1898 -0.1736 -0.0974
  199POPC   C4A 2937   9.166   2.750   5.166  0.2513 -0.0513  0.1654
  199POPC   C1B 2938   9.959   3.486   4.450  0.2070  0.0914  0.4990
  199POPC   C2B 2939   9.723   3.354   4.836 -0.2492 -0.3827 -0.4381
  199POPC   C3B 2940   9.488   3.196   5.233  0.1563  0.0265 -0.0011
  199POPC   C4B 2941   9.412   3.312   5.651  0.2215 -0.0081 -0.0487
  200POPC   NC3 2942   8.500   6.825   5.213  0.0813 -0.1978 -0.0271
  200POPC   PO4 2943   8.066   6.752   5.400  0.0727  0.1203 -0.3180
  200POPC   GL1 2944   7.984   6.901   5.771  0.2990  0.1379 -0.0950
  200POPC   GL2 2945   7.665   6.669   5.863 -0.0498 -0.0827  0.1555
  200POPC   C1A 2946   7.933   6.944   6.181  0.0552 -0.1389 -0.1126
  200POPC   D2A 2947   7.752   6.790   6.597  0.1658  0.0690 -0.2231
  200POPC   C3A 2948   7.319   6.997   6.829  0.0191 -0.0873  0.0996
  200POPC   C4A 2949   7.086   6.946   7.232 -0.2051 -0.0690 -0.0248
  200POPC   C1B 2950   7.567   6.505   6.194  0.1124  0.3019 -0.2874
  200POPC   C2B 2951   7.541   6.111   6.426  0.4821 -0.2132  0.0374
  200POPC   C3B 2952   7.685   5.849   6.802 -0.3008  0.0747  0.2107
  200POPC   C4B 2953   7.759   5.637   7.234 -0.1623  0.1803 -0.0902
  201POPC   NC3 2954   0.723   0.847   4.870  0.1952  0.1569 -0.2121
  201POPC   PO4 2955   0.295   0.571   4.802  0.1170 -0.0273 -0.1444
  201POPC   GL1 2956   0.441   0.548   5.177  0.1589  0.0064  0.1690
  201POPC   GL2 2957   0.357   0.223   5.209  0.2153 -0.1325 -0.0970
  201POPC   C1A 2958   0.535   0.503   5.562 -0.2342  0.0583  0.1666
  201POPC   D2A 2959   0.447   0.356   5.849  0.1185  0.1736  0.0892
  201POPC   C3A 2960   0.149   0.339   6.200 -0.2314 -0.2446  0.1319
  201POPC   C4A 2961  -0.187   0.273   6.531 -0.4071 -0.1472  0.1685
  201POPC   C1B 2962   0.270   0.035   5.483 -0.1306 -0.0818  0.0472
  201POPC   C2B 2963   0.202  -0.059   5.820 -0.2686 -0.2087 -0.1134
  201POPC   C3B 2964   0.389  -0.156   6.194 -0.0371  0.4156  0.0247
  201POPC   C4B 2965   0.388  -0.576   6.526  0.1980  0.1755  0.0075
  202POPC   NC3 2966   5.249   8.919   5.737 -0.0249 -0.2757 -0.1216
  202POPC   PO4 2967   5.060   8.552   5.859  0.2699  0.2226 -0.1057
  202POPC   GL1 2968   5.046   8.571   6.239  0.1865  0.2762  0.0312
  202POPC   GL2 2969   5.218   8.198   6.311 -0.2866  0.3438  0.2377
  202POPC   C1A 2970   5.059   8.584   6.665  0.3114 -0.1734  0.1094
  202POPC   D2A 2971   4.610   8.490   6.763  0.0898  0.0677  0.1098
  202POPC   C3A 2972   4.406   8.650   7.068 -0.1613 -0.3066 -0.2377
  202POPC   C4A 2973   4.171   9.000   7.254 -0.1215  0.1265  0.2251
  202POPC   C1B 2974   5.159   8.059   6.724 -0.2251  0.0547  0.0701
  202POPC   C2B 2975   4.841   8.139   6.985  0.2184 -0.0592  0.0958
  202POPC   C3B 2976   4.525   8.210   7.312 -0.1819  0.1486  0.2203
  202POPC   C4B 2977   4.223   8.468   7.511  0.2260 -0.0206 -0.0415
  203POPC   NC3 2978   9.584   5.210   4.429 -0.2762  0.0079 -0.0644
  203POPC   PO4 2979   9.697   5.501   4.764 -0.0409  0.0468  0.4204
  203POPC   GL1 2980   9.843   5.299   5.078  0.5232  0.0232  0.1432
  203POPC   GL2 2981  10.230   5.118   4.987 -0.2121  0.2000 -0.4463
  203POPC   C1A 2982   9.958   5.272   5.526  0.1898  0.0692  0.0021
  203POPC   D2A 2983  10.229   5.258   5.871 -0.1973 -0.0077  0.1346
  203POPC   C3A 2984  10.078   5.201   6.325  0.3068 -0.1288  0.0235
  203POPC   C4A 2985  10.256   5.006   6.628 -0.2697 -0.3662  0.0903
  203POPC   C1B 2986  10.327   4.909   5.305 -0.1312  0.0316 -0.0715
  203POPC   C2B 2987  10.274   4.591   5.654 -0.1180 -0.1015  0.2074
  203POPC   C3B 2988   9.986   4.330   5.811  0.0300 -0.0219  0.1519
  203POPC   C4B 2989   9.970   4.082   6.163  0.1686  0.0632 -0.0365
  204POPC   NC3 2990   2.334   8.355   5.034  0.0271  0.0262  0.0813
  204POPC   PO4 2991   1.880   8.463   5.217  0.4026  0.1186  0.3068
  204POPC   GL1 2992   1.911   8.474   5.694  0.2117  0.1916 -0.1901
  204POPC   GL2 2993   1.866   8.749   5.890  0.0080 -0.1687  0.1312
  204POPC   C1A 2994   2.031   8.245   6.116 -0.0919 -0.0333  0.1671
  204POPC   D2A 2995   1.944   8.193   6.659  0.1041 -0.0475 -0.1321
  204POPC   C3A 2996   1.878   7.748   6.737  0.3604  0.0807  0.4226
  204POPC   C4A 2997   2.070   7.404   6.868  0.0752  0.2932 -0.3940
  204POPC   C1B 2998   2.229   8.665   6.140 -0.0678 -0.0351  0.2441
  204POPC   C2B 2999   2.294   8.673   6.564  0.1404  0.2383 -0.3144
  204POPC   C3B 3000   2.514   8.711   6.975 -0.0926 -0.0749  0.1361
  204POPC   C4B 3001   2.864   8.944   7.198 -0.1398  0.0285  0.2850
  205POPC   NC3 3002   7.015   0.129   4.391  0.0549 -0.2315 -0.1090
  205POPC   PO4 3003   6.838   0.193   4.863 -0.1183  0.2608 -0.3120
  205POPC   GL1 3004   7.148   0.045   5.229 -0.0459  0.1812 -0.1491
  205POPC   GL2 3005   7.535  -0.041   5.241  0.2937 -0.0031 -0.2308
  205POPC   C1A 3006   7.238   0.156   5.707 -0.4736 -0.1249 -0.1148
  205POPC   D2A 3007   7.486   0.470   6.087 -0.2335  0.4336  0.0019
  205POPC   C3A 3008   7.247   0.313   6.484 -0.2451 -0.0333  0.3711
  205POPC   C4A 3009   7.122   0.255   6.856  0.1842  0.1713  0.0764
  205POPC   C1B 3010   7.667   0.289   5.436 -0.1060 -0.0432  0.1002
  205POPC   C2B 3011   8.076   0.327   5.478 -0.1625  0.1208  0.0424
  205POPC   C3B 3012   8.354   0.692   5.503  0.2763 -0.1734  0.0019
  205POPC   C4B 3013   8.359   0.856   5.946  0.3210 -0.0737 -0.0617
  206POPC   NC3 3014   2.164   6.788   4.724 -0.2386  0.3602 -0.1980
  206POPC   PO4 3015   2.192   6.574   5.110  0.1260  0.2510 -0.1799
  206POPC   GL1 3016   2.227   6.667   5.532  0.1245  0.0010 -0.2305
  206POPC   GL2 3017   2.481   6.704   5.777  0.2459  0.2193 -0.1951
  206POPC   C1A 3018   2.039   6.756   6.012 -0.0500  0.3031  0.0833
  206POPC   D2A 3019   1.730   6.732   6.267 -0.0655  0.3484 -0.1962
  206POPC   C3A 3020   1.755   6.613   6.723  0.0696 -0.2448 -0.0430
  206POPC   C4A 3021   1.378   6.272   6.748 -0.1249  0.0284 -0.0401
  206POPC   C1B 3022   2.616   6.903   6.112 -0.1825  0.0359  0.0588
  206POPC   C2B 3023   2.664   6.995   6.553 -0.0833 -0.1936  0.2424
  206POPC   C3B 3024   2.802   6.809   6.892 -0.1853 -0.0168  0.1455
  206POPC   C4B 3025   2.923   6.974   7.241  0.2132  0.0541  0.2849
  207POPC   NC3 3026   4.191   5.890   5.124  0.1692 -0.2022  0.2229
  207POPC   PO4 3027   3.676   5.891   5.289 -0.2513  0.0319 -0.1453
  207POPC   GL1 3028   3.707   5.842   5.723  0.1806 -0.4867 -0.2067
  207POPC   GL2 3029   3.936   6.033   6.000  0.0313 -0.1270  0.0469
  207POPC   C1A 3030   3.613   5.582   6.032 -0.1473  0.2906  0.0918
  207POPC   D2A 3031   3.389   5.584   6.381  0.0072  0.0495 -0.1458
  207POPC   C3A 3032   3.222   5.812   6.660  0.1976 -0.0216  0.0341
  207POPC   C4A 3033   2.823   5.844   6.876 -0.1705 -0.4652 -0.0343
  207POPC   C1B 3034   3.702   6.003   6.403 -0.2977 -0.0006 -0.0817
  207POPC   C2B 3035   3.691   5.739   6.778  0.2742 -0.1454  0.1654
  207POPC   C3B 3036   3.348   5.455   7.046  0.0446 -0.0298 -0.2862
  207POPC   C4B 3037   3.106   5.268   7.338 -0.3869  0.0490 -0.0355
  208POPC   NC3 3038  10.057   0.920   4.473 -0.0407  0.1566 -0.0339
  208POPC   PO4 3039  10.544   1.196   4.619  0.1930  0.1208 -0.4539
  208POPC   GL1 3040  10.646   1.168   5.139  0.1237 -0.0085  0.1832
  208POPC   GL2 3041  10.943   1.281   5.192 -0.2716 -0.0809 -0.1165
  208POPC   C1A 3042  10.451   0.983   5.466 -0.4773 -0.1392 -0.0699
  208POPC   D2A 3043  10.482   1.142   5.924  0.1903  0.1319  0.0924
  208POPC   C3A 3044  10.500   0.783   6.254 -0.1120  0.2722  0.1601
  208POPC   C4A 3045  10.437   0.705   6.662  0.2367  0.0428 -0.0481
  208POPC   C1B 3046  11.254   1.496   5.460  0.0488 -0.0335  0.0285
  208POPC   C2B 3047  11.329   1.388   5.887  0.0163 -0.1984 -0.1026
  208POPC   C3B 3048  10.935   1.276   6.205  0.1617 -0.1014 -0.0066
  208POPC   C4B 3049  10.916   1.445   6.523 -0.1155  0.0812 -0.1224
  209POPC   NC3 3050   6.239   4.136   3.836  0.1275  0.0252 -0.0363
  209POPC   PO4 3051   6.506   3.836   4.079  0.1217  0.1773  0.0906
  209POPC   GL1 3052   6.705   3.894   4.585  0.0996  0.0434 -0.0898
  209POPC   GL2 3053   6.399   3.949   4.853  0.3622 -0.0560 -0.4733
  209POPC   C1A 3054   6.886   3.627   4.929 -0.0191 -0.1918 -0.0539
  209POPC   D2A 3055   6.713   3.261   5.040 -0.1436 -0.2431  0.0194
  209POPC   C3A 3056   6.373   3.093   5.488  0.0124 -0.3240  0.0666
  209POPC   C4A 3057   6.280   3.120   5.870 -0.2160 -0.0331  0.1814
  209POPC   C1B 3058   6.397   4.371   5.060  0.0890  0.1696  0.1816
  209POPC   C2B 3059   6.546   4.484   5.500  0.1142  0.2905  0.3588
  209POPC   C3B 3060   6.635   4.556   5.851 -0.0025 -0.1173 -0.1039
  209POPC   C4B 3061   6.617   4.440   6.246 -0.1109  0.0254 -0.4671
  210POPC   NC3 3062   5.113   0.323   5.220 -0.2332 -0.0638  0.1401
  210POPC   PO4 3063   4.839  -0.077   5.361  0.1933 -0.0728  0.1176
  210POPC   GL1 3064   4.766   0.142   5.745  0.0642  0.0219  0.1288
  210POPC   GL2 3065   5.100   0.257   5.801 -0.0058 -0.0247  0.1633
  210POPC   C1A 3066   4.495   0.345   6.096  0.0464  0.1146 -0.2254
  210POPC   D2A 3067   4.213   0.590   6.336  0.4116 -0.1632  0.0336
  210POPC   C3A 3068   4.262   0.641   6.837  0.1825  0.1177 -0.2298
  210POPC   C4A 3069   4.136   0.867   7.231  0.0829  0.0538 -0.0626
  210POPC   C1B 3070   5.496   0.238   6.025 -0.3913  0.1983 -0.2132
  210POPC   C2B 3071   5.856   0.232   6.398 -0.0639 -0.2806  0.0693
  210POPC   C3B 3072   5.763   0.157   6.810 -0.2972 -0.2810  0.0872
  210POPC   C4B 3073   5.760  -0.021   7.246 -0.2103 -0.0975 -0.1127
  211POPC   NC3 3074   2.498   5.755   4.790  0.1037  0.2441 -0.0709
  211POPC   PO4 3075   2.135   5.593   5.143 -0.0171 -0.1658 -0.0922
  211POPC   GL1 3076   2.178   5.742   5.597  0.0398  0.2236 -0.0710
  211POPC   GL2 3077   2.063   5.505   5.781  0.3001  0.2566 -0.0508
  211POPC   C1A 3078   2.488   5.883   5.856 -0.0214  0.0813  0.0925
  211POPC   D2A 3079   2.390   6.179   6.180 -0.1028 -0.3500 -0.2311
  211POPC   C3A 3080   2.247   6.503   6.415 -0.0063  0.0761  0.2496
  211POPC   C4A 3081   2.180   6.925   6.484 -0.0196 -0.0387 -0.2652
  211POPC   C1B 3082   2.093   5.765   6.251 -0.0098  0.0956 -0.1384
  211POPC   C2B 3083   2.312   5.935   6.609  0.1179  0.0981 -0.0507
  211POPC   C3B 3084   2.390   5.932   7.079 -0.0244  0.3269 -0.0526
  211POPC   C4B 3085   2.689   6.028   7.333 -0.1873 -0.4563  0.1526
  212POPC   NC3 3086   9.604   7.301   4.974  0.3909  0.0320  0.0503
  212POPC   PO4 3087   9.406   6.892   5.112 -0.5010  0.1352 -0.3060
  212POPC   GL1 3088   9.585   6.818   5.462 -0.0096 -0.0881  0.0557
  212POPC   GL2 3089   9.798   6.673   5.601 -0.1215  0.0325 -0.0238
  212POPC   C1A 3090   9.463   6.936   5.926  0.6597  0.1367 -0.0226
  212POPC   D2A 3091   9.288   7.210   6.218 -0.0295 -0.0883  0.0849
  212POPC   C3A 3092   9.349   7.151   6.700 -0.0504 -0.0608 -0.1311
  212POPC   C4A 3093   9.347   6.972   7.082  0.1356 -0.1911  0.2315
  212POPC   C1B 3094   9.605   6.387   5.906 -0.2205 -0.0267  0.1587
  212POPC   C2B 3095   9.658   5.961   6.143  0.2286  0.0138 -0.4526
  212POPC   C3B 3096   9.398   5.934   6.585 -0.4076 -0.0694  0.2751
  212POPC   C4B 3097   9.445   5.674   6.890 -0.0267  0.1124  0.0641
  213POPC   NC3 3098   3.190   9.615   4.670 -0.3915  0.2855  0.1288
  213POPC   PO4 3099   2.827   9.709   4.759  0.0584  0.1228  0.2944
  213POPC   GL1 3100   2.796   9.768   5.292 -0.0315  0.0888  0.0603
  213POPC   GL2 3101   3.032   9.612   5.377  0.0564 -0.1511  0.1551
  213POPC   C1A 3102   2.757   9.970   5.633  0.2080  0.2133 -0.1188
  213POPC   D2A 3103   2.365  10.128   5.605 -0.1591  0.3100  0.2779
  213POPC   C3A 3104   2.164  10.447   5.819 -0.0639  0.0129  0.1888
  213POPC   C4A 3105   1.911  10.374   6.078  0.2454 -0.1268  0.0144
  213POPC   C1B 3106   3.373   9.424   5.608  0.0845 -0.0487  0.1346
  213POPC   C2B 3107   3.559   9.460   6.009 -0.0729  0.0989  0.2373
  213POPC   C3B 3108   3.510   9.644   6.357  0.1404  0.0438  0.2478
  213POPC   C4B 3109   3.415   9.791   6.742  0.1954  0.2320 -0.4466
  214POPC   NC3 3110   6.920   8.493   5.823 -0.1647 -0.4369 -0.1511
  214POPC   PO4 3111   7.100   8.167   5.740 -0.0769  0.1374 -0.3179
  214POPC   GL1 3112   7.136   8.214   6.196 -0.3500  0.3946  0.0011
  214POPC   GL2 3113   7.225   8.499   6.244  0.1217  0.2658 -0.0225
  214POPC   C1A 3114   6.986   8.126   6.558 -0.0656  0.0773  0.2491
  214POPC   D2A 3115   7.026   7.810   6.828 -0.1532 -0.1259 -0.1694
  214POPC   C3A 3116   7.317   7.871   7.157  0.1221 -0.0657  0.0880
  214POPC   C4A 3117   7.289   8.054   7.481 -0.0018  0.1086 -0.0875
  214POPC   C1B 3118   7.477   8.460   6.541 -0.1381  0.3411  0.0258
  214POPC   C2B 3119   7.718   8.696   6.892  0.1268 -0.1587 -0.0164
  214POPC   C3B 3120   8.036   8.962   6.793  0.1170  0.0409  0.0496
  214POPC   C4B 3121   8.331   9.097   6.996  0.1228 -0.2883 -0.1602
  215POPC   NC3 3122   5.678   9.828   5.213 -0.0652  0.2534 -0.0563
  215POPC   PO4 3123   5.837  10.100   5.609 -0.0266 -0.2485 -0.1259
  215POPC   GL1 3124   6.104   9.986   5.929 -0.1517 -0.2187  0.0594
  215POPC   GL2 3125   6.001   9.718   5.962 -0.0961  0.0626 -0.2631
  215POPC   C1A 3126   6.229  10.089   6.345 -0.1024 -0.3792  0.0157
  215POPC   D2A 3127   6.318  10.287   6.690  0.1903 -0.0670  0.1621
  215POPC   C3A 3128   6.275  10.066   7.032 -0.1099 -0.1227 -0.4263
  215POPC   C4A 3129   6.419  10.325   7.439  0.1294 -0.0917 -0.0049
  215POPC   C1B 3130   5.775   9.799   6.261  0.1775 -0.0228  0.1241
  215POPC   C2B 3131   5.443   9.988   6.520 -0.0887  0.2264  0.3998
  215POPC   C3B 3132   5.312  10.492   6.521 -0.3238  0.1391 -0.2214
  215POPC   C4B 3133   5.277  10.756   6.855 -0.1328  0.2011  0.1552
  216POPC   NC3 3134   5.443   5.299   5.214 -0.0837  0.2716  0.2332
  216POPC   PO4 3135   5.081   5.090   5.237  0.0612  0.0083 -0.1176
  216POPC   GL1 3136   5.359   4.917   5.504  0.2052 -0.0809 -0.1394
  216POPC   GL2 3137   5.595   4.726   5.304  0.3392 -0.1078  0.1051
  216POPC   C1A 3138   5.610   4.851   5.869 -0.1770 -0.2195  0.1391
  216POPC   D2A 3139   5.633   4.492   6.056  0.0023  0.2209  0.1531
  216POPC   C3A 3140   5.344   4.477   6.489 -0.1162  0.0731 -0.1489
  216POPC   C4A 3141   5.193   4.095   6.750  0.0117 -0.1731  0.4388
  216POPC   C1B 3142   5.881   4.451   5.578  0.1966 -0.3613  0.1509
  216POPC   C2B 3143   6.125   4.260   5.864 -0.0856 -0.0369  0.1229
  216POPC   C3B 3144   6.019   4.276   6.405  0.2289  0.3918  0.0197
  216POPC   C4B 3145   5.681   4.110   6.672  0.3566 -0.2600  0.1540
  217POPC   NC3 3146   8.205   9.541   5.437  0.1981 -0.4106 -0.3998
  217POPC   PO4 3147   7.840   9.331   5.247  0.0075  0.0615 -0.0638
  217POPC   GL1 3148   7.590   9.569   5.594 -0.0510 -0.1097  0.2557
  217POPC   GL2 3149   7.288   9.760   5.753  0.2315 -0.1113  0.1863
  217POPC   C1A 3150   7.671   9.661   6.037  0.1539  0.2706  0.3045
  217POPC   D2A 3151   7.676   9.592   6.460 -0.1211 -0.2557  0.0633
  217POPC   C3A 3152   7.962   9.448   6.649  0.1218 -0.3914  0.0220
  217POPC   C4A 3153   8.343   9.620   6.798  0.0602  0.1355  0.0712
  217POPC   C1B 3154   7.157   9.932   6.104  0.1913 -0.0556 -0.2088
  217POPC   C2B 3155   7.270   9.929   6.599  0.0265  0.0072  0.1694
  217POPC   C3B 3156   7.603  10.283   6.667  0.1252  0.5022  0.2026
  217POPC   C4B 3157   7.751  10.636   6.509  0.1120  0.0038 -0.2502
  218POPC   NC3 3158   9.077   9.521   4.707  0.0801 -0.0468  0.0195
  218POPC   PO4 3159   9.196   9.828   5.088 -0.4756 -0.4029 -0.0900
  218POPC   GL1 3160   9.231  10.247   5.300  0.1051 -0.4351  0.1637
  218POPC   GL2 3161   9.406  10.303   5.564 -0.2924  0.0515  0.0716
  218POPC   C1A 3162   8.906  10.436   5.646  0.1931  0.0064 -0.3870
  218POPC   D2A 3163   8.579  10.558   5.926  0.0163  0.3086  0.0444
  218POPC   C3A 3164   8.568  10.505   6.376  0.1341  0.1423  0.0063
  218POPC   C4A 3165   8.550  10.745   6.832 -0.0118 -0.0847 -0.0312
  218POPC   C1B 3166   9.528  10.472   5.931  0.0406 -0.2088  0.2284
  218POPC   C2B 3167   9.555  10.554   6.311 -0.1402  0.1106  0.0946
  218POPC   C3B 3168   9.545  10.552   6.755  0.2356 -0.1075  0.0438
  218POPC   C4B 3169   9.354  10.305   6.963 -0.1194 -0.1256  0.3360
  219POPC   NC3 3170   2.889   4.897   5.053 -0.3042  0.0302  0.2278
  219POPC   PO4 3171   2.462   4.710   5.204 -0.1279 -0.2272  0.2461
  219POPC   GL1 3172   2.739   4.820   5.594 -0.0588 -0.2046 -0.0808
  219POPC   GL2 3173   3.017   4.751   5.487  0.0627  0.1231 -0.1310
  219POPC   C1A 3174   2.824   5.039   6.013  0.3316  0.3126 -0.1345
  219POPC   D2A 3175   3.054   4.989   6.371  0.2051  0.1157  0.0966
  219POPC   C3A 3176   2.680   5.008   6.717  0.2752 -0.0649 -0.0586
  219POPC   C4A 3177   2.690   4.942   7.186 -0.0233  0.0696 -0.2130
  219POPC   C1B 3178   3.182   4.647   5.866  0.2106 -0.2731  0.0249
  219POPC   C2B 3179   3.147   4.529   6.308  0.0084  0.2359  0.1456
  219POPC   C3B 3180   3.182   4.371   6.697  0.3808 -0.2561 -0.2784
  219POPC   C4B 3181   3.287   4.127   7.066 -0.0701  0.0986  0.2131
  220POPC   NC3 3182   1.443   7.825   5.065  0.1083 -0.1559 -0.1467
  220POPC   PO4 3183   1.822   7.591   5.232 -0.0747  0.2750 -0.3200
  220POPC   GL1 3184   1.832   7.579   5.735 -0.0677  0.1405 -0.2934
  220POPC   GL2 3185   2.058   7.741   5.926 -0.1491 -0.1268  0.0211
  220POPC   C1A 3186   1.870   7.186   6.190 -0.0823  0.0633  0.2399
  220POPC   D2A 3187   1.631   7.252   6.589 -0.1733  0.1923 -0.1002
  220POPC   C3A 3188   1.724   7.095   7.038  0.0565 -0.0321 -0.2104
  220POPC   C4A 3189   2.035   6.917   7.218 -0.0305 -0.0154 -0.1239
  220POPC   C1B 3190   2.194   7.851   6.378 -0.0577  0.2102  0.1634
  220POPC   C2B 3191   2.318   7.911   6.888  0.1604  0.0684  0.0694
  220POPC   C3B 3192   2.171   7.925   7.303 -0.0585  0.1718  0.0940
  220POPC   C4B 3193   1.918   7.896   7.646 -0.3582 -0.2900 -0.2269
  221POPC   NC3 3194   5.311   7.308   5.869  0.0445 -0.0413 -0.0972
  221POPC   PO4 3195   5.262   7.673   5.768  0.0982 -0.0565  0.0494
  221POPC   GL1 3196   5.383   7.725   6.263 -0.1687 -0.2824 -0.2770
  221POPC   GL2 3197   5.500   7.457   6.360  0.4261  0.1741 -0.0725
  221POPC   C1A 3198   5.655   7.873   6.657  0.0433 -0.0504 -0.1140
  221POPC   D2A 3199   5.825   8.163   7.016 -0.2254 -0.1952  0.0287
  221POPC   C3A 3200   6.201   8.125   7.154  0.1829 -0.0318  0.0443
  221POPC   C4A 3201   6.401   8.159   7.514 -0.2654  0.3063  0.5114
  221POPC   C1B 3202   5.321   7.434   6.723 -0.0593  0.1978 -0.0419
  221POPC   C2B 3203   5.172   7.737   7.047  0.0049  0.4522  0.0980
  221POPC   C3B 3204   5.461   7.933   7.197 -0.0166  0.0236  0.1015
  221POPC   C4B 3205   5.657   8.358   7.500 -0.0041 -0.3607 -0.1190
  222POPC   NC3 3206   8.678   0.531   4.218 -0.3738  0.1954  0.2917
  222POPC   PO4 3207   8.629   0.196   4.481 -0.0363 -0.0490 -0.1857
  222POPC   GL1 3208   8.766   0.293   4.950  0.1201 -0.2136 -0.2783
  222POPC   GL2 3209   8.787   0.009   5.076 -0.0350 -0.3600 -0.0810
  222POPC   C1A 3210   8.746   0.649   5.286 -0.0411  0.1421 -0.1494
  222POPC   D2A 3211   8.780   0.763   5.691 -0.2308  0.0364  0.1040
  222POPC   C3A 3212   9.093   1.092   5.585 -0.4895  0.1611 -0.0530
  222POPC   C4A 3213   9.280   1.293   5.199 -0.0915  0.0863  0.1486
  222POPC   C1B 3214   8.528   0.031   5.388 -0.0985  0.3344 -0.3593
  222POPC   C2B 3215   8.300  -0.085   5.793 -0.2124  0.0022  0.1080
  222POPC   C3B 3216   7.873  -0.074   5.832  0.1572  0.0658 -0.2557
  222POPC   C4B 3217   7.619  -0.039   6.192  0.2755  0.2102  0.1329
  223POPC   NC3 3218   2.978   6.571   4.551  0.0699 -0.1600  0.0600
  223POPC   PO4 3219   2.654   6.595   4.812 -0.6144  0.1924  0.1690
  223POPC   GL1 3220   2.736   6.701   5.349 -0.2065  0.0328 -0.3825
  223POPC   GL2 3221   2.925   6.402   5.458 -0.4381 -0.0173 -0.2792
  223POPC   C1A 3222   2.988   6.896   5.750 -0.1094  0.2126  0.3414
  223POPC   D2A 3223   3.078   6.769   6.193 -0.0031 -0.1705 -0.0600
  223POPC   C3A 3224   3.138   7.022   6.474 -0.0647 -0.2671  0.0726
  223POPC   C4A 3225   3.190   7.131   6.916 -0.1512  0.0130 -0.2148
  223POPC   C1B 3226   2.824   6.379   5.866  0.1768  0.0352 -0.0693
  223POPC   C2B 3227   2.889   6.341   6.353 -0.2604 -0.4285 -0.1883
  223POPC   C3B 3228   2.559   6.361   6.750 -0.2536 -0.1523 -0.3078
  223POPC   C4B 3229   2.319   6.741   6.896 -0.0737  0.0104 -0.0317
  224POPC   NC3 3230  10.120   9.085   5.060 -0.1790 -0.1252 -0.1254
  224POPC   PO4 3231  10.493   8.887   4.925  0.3312  0.5200 -0.0595
  224POPC   GL1 3232  10.669   8.945   5.352  0.0126 -0.1430  0.1803
  224POPC   GL2 3233  10.344   9.190   5.586 -0.1845  0.2364  0.0764
  224POPC   C1A 3234  10.723   8.799   5.750  0.0078  0.1057 -0.0407
  224POPC   D2A 3235  10.735   8.782   6.174  0.0624  0.0983  0.4808
  224POPC   C3A 3236  10.480   9.021   6.423 -0.0640  0.0254 -0.0281
  224POPC   C4A 3237  10.378   9.274   6.808 -0.0684  0.0220  0.2937
  224POPC   C1B 3238  10.256   8.894   5.910 -0.2625 -0.0819  0.2277
  224POPC   C2B 3239  10.218   8.596   6.274  0.1623  0.3042 -0.3683
  224POPC   C3B 3240  10.332   8.399   6.653 -0.2138 -0.2346 -0.0613
  224POPC   C4B 3241  10.504   8.326   7.009 -0.3808  0.2153 -0.0415
  225POPC   NC3 3242   7.194   1.790   3.919  0.0484 -0.1376  0.3358
  225POPC   PO4 3243   7.674   1.758   4.154  0.2126 -0.4941  0.2123
  225POPC   GL1 3244   7.784   1.908   4.495  0.0198 -0.2746 -0.4239
  225POPC   GL2 3245   8.094   1.953   4.525  0.2075  0.3115 -0.3066
  225POPC   C1A 3246   7.764   2.182   4.798  0.2832  0.0329 -0.2026
  225POPC   D2A 3247   7.541   2.211   5.194  0.0112  0.1052  0.0400
  225POPC   C3A 3248   7.403   1.859   5.318 -0.1548  0.0224 -0.1987
  225POPC   C4A 3249   7.234   1.505   5.540 -0.0160  0.4506  0.0874
  225POPC   C1B 3250   8.123   1.766   4.971 -0.0984  0.1490 -0.0689
  225POPC   C2B 3251   8.190   1.502   5.195 -0.1533  0.2566 -0.2125
  225POPC   C3B 3252   8.443   1.633   5.505  0.0527 -0.0582 -0.1524
  225POPC   C4B 3253   8.633   1.754   5.912 -0.2283  0.0426  0.1071
  226POPC   NC3 3254   6.428   1.740   4.178  0.0559  0.1031  0.0536
  226POPC   PO4 3255   6.808   1.545   4.170 -0.0989 -0.3147 -0.2020
  226POPC   GL1 3256   6.738   1.650   4.594  0.1744  0.0054 -0.0303
  226POPC   GL2 3257   7.046   1.610   4.830  0.0370 -0.2243  0.0477
  226POPC   C1A 3258   6.513   1.709   4.941 -0.0693 -0.0423  0.0250
  226POPC   D2A 3259   6.297   1.656   5.169  0.3235 -0.0809 -0.0380
  226POPC   C3A 3260   6.480   1.808   5.442 -0.1654  0.2527  0.4687
  226POPC   C4A 3261   6.479   1.842   5.794 -0.0023 -0.0888  0.2372
  226POPC   C1B 3262   6.906   1.826   5.215 -0.1134  0.0490  0.0329
  226POPC   C2B 3263   6.914   1.909   5.573  0.0672 -0.4875 -0.0369
  226POPC   C3B 3264   7.007   1.746   5.944  0.0849  0.0957 -0.2472
  226POPC   C4B 3265   7.280   1.526   6.255 -0.1005  0.0243  0.0909
  227POPC   NC3 3266   6.262   9.888   5.468  0.2980 -0.5410  0.2391
  227POPC   PO4 3267   6.411   9.472   5.377 -0.1114  0.0930 -0.0619
  227POPC   GL1 3268   6.474   9.627   5.832  0.0458  0.0197 -0.0720
  227POPC   GL2 3269   6.873   9.580   5.974 -0.0203 -0.2274  0.1234
  227POPC   C1A 3270   6.379   9.630   6.234  0.0343 -0.2270 -0.0285
  227POPC   D2A 3271   6.220   9.413   6.560 -0.0967 -0.1080  0.3950
  227POPC   C3A 3272   5.878   9.071   6.478  0.0805  0.0257  0.1793
  227POPC   C4A 3273   5.372   8.924   6.400 -0.1624 -0.0314  0.0511
  227POPC   C1B 3274   6.814   9.783   6.370 -0.0155  0.2124  0.2266
  227POPC   C2B 3275   6.484   9.797   6.681  0.1312  0.2261 -0.0726
  227POPC   C3B 3276   6.197   9.506   7.086  0.2160 -0.1545  0.0625
  227POPC   C4B 3277   5.879   9.329   7.324 -0.0530  0.2206 -0.1177
  228POPC   NC3 3278   1.073   4.479   4.618 -0.1795  0.1856 -0.0438
  228POPC   PO4 3279   0.725   4.803   4.706 -0.1031  0.0700  0.0097
  228POPC   GL1 3280   0.574   4.842   4.974  0.0137 -0.1314 -0.2421
  228POPC   GL2 3281   0.513   4.543   5.124  0.0841 -0.0352  0.0975
  228POPC   C1A 3282   0.525   5.226   5.282 -0.3346 -0.0153 -0.4079
  228POPC   D2A 3283   0.486   5.574   5.664 -0.0880  0.1346 -0.0051
  228POPC   C3A 3284   0.858   5.590   5.955  0.2175 -0.0552  0.2890
  228POPC   C4A 3285   1.131   5.515   6.289  0.0203  0.2185  0.1834
  228POPC   C1B 3286   0.614   4.562   5.608  0.0612  0.0142 -0.4974
  228POPC   C2B 3287   0.474   4.370   5.968 -0.0208 -0.0170 -0.2188
  228POPC   C3B 3288   0.234   4.030   6.069 -0.1041 -0.0141 -0.0019
  228POPC   C4B 3289   0.293   3.797   6.561  0.0963  0.0456 -0.1179
  229POPC   NC3 3290   4.114   7.713   5.638  0.0899 -0.3412 -0.0537
  229POPC   PO4 3291   3.770   8.122   5.558  0.0539  0.3652  0.1915
  229POPC   GL1 3292   3.814   7.888   6.046  0.1546 -0.2725 -0.1169
  229POPC   GL2 3293   3.558   7.671   6.132 -0.1158  0.4610  0.0997
  229POPC   C1A 3294   3.626   8.070   6.333 -0.3225  0.0785 -0.1389
  229POPC   D2A 3295   3.543   7.958   6.870 -0.0354 -0.1120  0.4727
  229POPC   C3A 3296   3.293   8.106   7.133  0.3983  0.0301  0.1257
  229POPC   C4A 3297   3.173   8.481   7.089 -0.0161 -0.3280 -0.0058
  229POPC   C1B 3298   3.914   7.600   6.452  0.2056  0.2909  0.1995
  229POPC   C2B 3299   4.024   7.869   6.785 -0.3421 -0.0230  0.0171
  229POPC   C3B 3300   4.109   8.234   7.100  0.6090 -0.1938  0.1727
  229POPC   C4B 3301   3.805   8.238   7.381  0.0522  0.0149 -0.3007
  230POPC   NC3 3302   0.854   6.768   5.142  0.3113  0.3032  0.1747
  230POPC   PO4 3303   1.072   7.158   5.239  0.0344  0.0176 -0.0242
  230POPC   GL1 3304   0.916   7.151   5.488  0.0821  0.1502 -0.3439
  230POPC   GL2 3305   0.604   7.123   5.502 -0.3080 -0.0835 -0.0561
  230POPC   C1A 3306   0.744   7.439   5.856  0.2364 -0.0321 -0.0976
  230POPC   D2A 3307   0.754   7.326   6.276 -0.0683  0.1806 -0.0749
  230POPC   C3A 3308   0.819   7.279   6.688 -0.1403 -0.1502  0.1898
  230POPC   C4A 3309   1.179   7.327   6.812 -0.3210  0.3471  0.4744
  230POPC   C1B 3310   0.675   6.935   5.933 -0.1306  0.1064 -0.0971
  230POPC   C2B 3311   0.386   6.570   6.206  0.2245 -0.0146  0.1870
  230POPC   C3B 3312   0.104   6.307   6.424 -0.2524  0.3268  0.0830
  230POPC   C4B 3313   0.038   6.025   6.784 -0.4153  0.1120 -0.0924
  231POPC   NC3 3314   3.846   9.166   4.934  0.0106 -0.0366  0.0503
  231POPC   PO4 3315   3.893   9.084   5.297 -0.1225  0.1006  0.2956
  231POPC   GL1 3316   3.797   9.142   5.692 -0.2800  0.0085  0.0946
  231POPC   GL2 3317   3.944   8.888   5.816 -0.0536 -0.2676  0.0818
  231POPC   C1A 3318   4.105   9.281   6.091  0.0970  0.1122 -0.0381
  231POPC   D2A 3319   4.281   9.257   6.489 -0.3925  0.0285  0.1642
  231POPC   C3A 3320   3.985   9.394   6.938 -0.0176 -0.1183  0.0589
  231POPC   C4A 3321   3.714   9.283   7.334 -0.2503  0.0570 -0.2913
  231POPC   C1B 3322   3.615   8.999   6.082  0.1263  0.1156 -0.1155
  231POPC   C2B 3323   3.748   9.215   6.465  0.1541  0.0030 -0.2083
  231POPC   C3B 3324   3.480   9.338   6.808 -0.2796 -0.0477  0.0258
  231POPC   C4B 3325   3.209   9.226   7.021 -0.1090 -0.1015  0.1256
  232POPC   NC3 3326   4.338   2.103   4.330 -0.3083 -0.0927 -0.0187
  232POPC   PO4 3327   4.136   1.801   4.639 -0.0129 -0.4852 -0.1351
  232POPC   GL1 3328   4.271   1.872   5.068 -0.1613  0.0058 -0.2738
  232POPC   GL2 3329   4.149   1.602   5.270 -0.2958  0.0469  0.1595
  232POPC   C1A 3330   4.378   1.916   5.562  0.1852 -0.1035 -0.1089
  232POPC   D2A 3331   4.398   2.025   5.952  0.0435  0.1241  0.1573
  232POPC   C3A 3332   4.195   1.927   6.288  0.3618 -0.0312 -0.2142
  232POPC   C4A 3333   3.822   1.733   6.621 -0.1818  0.1941  0.0484
  232POPC   C1B 3334   4.111   1.465   5.711  0.1147  0.1704 -0.1168
  232POPC   C2B 3335   4.051   1.437   6.180 -0.5037  0.0064 -0.2139
  232POPC   C3B 3336   4.276   1.494   6.585  0.1265  0.0688 -0.0365
  232POPC   C4B 3337   4.171   1.633   6.976  0.1458  0.2135  0.0701
  233POPC   NC3 3338   7.908   8.594   5.669 -0.4258 -0.1248 -0.1174
  233POPC   PO4 3339   8.419   8.654   5.549 -0.0220  0.3013 -0.0855
  233POPC   GL1 3340   8.558   8.817   5.913 -0.1023 -0.0335  0.0765
  233POPC   GL2 3341   8.337   8.764   6.019 -0.1255  0.5431 -0.1905
  233POPC   C1A 3342   8.944   9.030   6.140  0.0983  0.3513 -0.2201
  233POPC   D2A 3343   8.978   9.485   6.157  0.1873 -0.1258 -0.2878
  233POPC   C3A 3344   9.151   9.722   6.535  0.1302  0.0314  0.0125
  233POPC   C4A 3345   8.986   9.840   6.859 -0.0700  0.1278 -0.1941
  233POPC   C1B 3346   8.475   8.524   6.401  0.0896  0.0750  0.1223
  233POPC   C2B 3347   8.683   8.355   6.733 -0.3160 -0.1332 -0.0793
  233POPC   C3B 3348   8.636   8.330   7.285  0.0651  0.1083  0.0507
  233POPC   C4B 3349   8.928   8.159   7.622  0.1219 -0.1689  0.1609
  234POPC   NC3 3350   8.244   5.943   5.626 -0.1247  0.1019 -0.0980
  234POPC   PO4 3351   8.114   6.321   5.835  0.2752 -0.1140  0.2336
  234POPC   GL1 3352   8.424   6.412   6.124 -0.0192 -0.1712 -0.1592
  234POPC   GL2 3353   8.355   6.680   6.203  0.3200  0.3179  0.0180
  234POPC   C1A 3354   8.540   6.395   6.596  0.0807 -0.0073  0.1886
  234POPC   D2A 3355   8.510   6.295   6.998  0.0251 -0.2630  0.0278
  234POPC   C3A 3356   8.853   6.039   7.112  0.0534  0.1621 -0.2031
  234POPC   C4A 3357   9.062   5.881   7.480 -0.1609 -0.0638  0.1656
  234POPC   C1B 3358   8.054   6.450   6.456 -0.1504  0.3263  0.4232
  234POPC   C2B 3359   8.058   6.218   6.897 -0.1684  0.2157 -0.1569
  234POPC   C3B 3360   8.156   5.973   7.306  0.1098  0.0107  0.0046
  234POPC   C4B 3361   8.171   5.928   7.707 -0.2716  0.1146  0.1819
  235POPC   NC3 3362   3.945   0.118   5.151 -0.0522  0.1640 -0.0144
  235POPC   PO4 3363   3.836  -0.229   5.155 -0.1445  0.1207  0.0393
  235POPC   GL1 3364   3.563  -0.135   5.457 -0.1048  0.3479  0.1848
  235POPC   GL2 3365   3.710  -0.148   5.704  0.0145 -0.1463 -0.0138
  235POPC   C1A 3366   3.250  -0.281   5.746  0.0957 -0.0347  0.1558
  235POPC   D2A 3367   3.058  -0.509   5.935  0.0391 -0.0050  0.0891
  235POPC   C3A 3368   3.098  -0.223   6.346 -0.0088  0.1785 -0.0430
  235POPC   C4A 3369   2.950  -0.161   6.681  0.2022  0.2292  0.1569
  235POPC   C1B 3370   4.018  -0.299   6.047 -0.2064 -0.1646 -0.0913
  235POPC   C2B 3371   4.060  -0.433   6.546  0.1327 -0.0905 -0.1337
  235POPC   C3B 3372   4.069  -0.202   6.901  0.2909  0.4994  0.3974
  235POPC   C4B 3373   3.743  -0.389   7.165 -0.1132 -0.1923  0.0988
  236POPC   NC3 3374   9.744   8.357   4.728  0.1342  0.3612 -0.0587
  236POPC   PO4 3375   9.527   8.458   5.038  0.2440 -0.1618 -0.0788
  236POPC   GL1 3376   9.634   8.303   5.357  0.0983 -0.4691  0.0582
  236POPC   GL2 3377   9.718   8.622   5.429 -0.1436  0.2944  0.0078
  236POPC   C1A 3378   9.719   8.085   5.665 -0.0655 -0.2113 -0.2354
  236POPC   D2A 3379   9.455   7.981   5.915  0.0118  0.3274 -0.0199
  236POPC   C3A 3380   9.523   7.810   6.220 -0.0017 -0.1468  0.1155
  236POPC   C4A 3381   9.585   7.547   6.471  0.0946  0.0783  0.0429
  236POPC   C1B 3382   9.675   8.783   5.877 -0.1217 -0.1679 -0.2080
  236POPC   C2B 3383   9.411   8.766   6.237 -0.0828  0.0624 -0.0813
  236POPC   C3B 3384   9.704   8.802   6.640  0.0603 -0.0113  0.2726
  236POPC   C4B 3385  10.097   8.789   6.810 -0.0813 -0.0454 -0.0027
  237POPC   NC3 3386   9.653  10.029   5.076  0.1358  0.0484  0.1150
  237POPC   PO4 3387   9.608  10.308   4.921  0.5499 -0.0193  0.4359
  237POPC   GL1 3388   9.731  10.540   5.281  0.0744 -0.0256 -0.0606
  237POPC   GL2 3389   9.958  10.318   5.372  0.1160 -0.1698 -0.1320
  237POPC   C1A 3390   9.757  10.809   5.699  0.2152  0.2158 -0.1409
  237POPC   D2A 3391  10.063  11.068   5.776  0.0344  0.0835  0.0857
  237POPC   C3A 3392  10.062  11.395   6.219 -0.0436 -0.2212  0.0155
  237POPC   C4A 3393  10.425  11.451   6.513  0.1194  0.0046 -0.1049
  237POPC   C1B 3394  10.028  10.434   5.796  0.1477 -0.0967 -0.0168
  237POPC   C2B 3395   9.955  10.827   6.180  0.2385  0.4501  0.2024
  237POPC   C3B 3396   9.857  10.984   6.565  0.1991  0.1792  0.1225
  237POPC   C4B 3397  10.088  11.146   6.867 -0.3732  0.0639 -0.2751
  238POPC   NC3 3398   5.674   5.952   5.671 -0.1537 -0.2166  0.1612
  238POPC   PO4 3399   5.413   5.733   5.464 -0.2140  0.1098  0.2819
  238POPC   GL1 3400   5.542   5.445   5.691  0.2067 -0.0073 -0.2103
  238POPC   GL2 3401   5.802   5.243   5.613 -0.0013  0.2265  0.0343
  238POPC   C1A 3402   5.427   5.285   6.027  0.2939  0.2065 -0.0248
  238POPC   D2A 3403   5.367   5.064   6.366 -0.0369 -0.1595 -0.0388
  238POPC   C3A 3404   4.960   5.034   6.735  0.2113  0.1270  0.3409
  238POPC   C4A 3405   4.535   4.858   6.543  0.0864  0.0547  0.0073
  238POPC   C1B 3406   5.950   5.267   6.005  0.1080 -0.0628 -0.2523
  238POPC   C2B 3407   5.902   5.058   6.411 -0.2695  0.0812 -0.0561
  238POPC   C3B 3408   5.790   4.627   6.671  0.0539 -0.0314 -0.0864
  238POPC   C4B 3409   5.494   4.479   7.021  0.0112  0.0565 -0.0432
  239POPC   NC3 3410   2.850   8.181   4.737  0.1451  0.0411 -0.1498
  239POPC   PO4 3411   2.794   8.406   5.054  0.1487 -0.0056 -0.0118
  239POPC   GL1 3412   2.965   8.651   5.431 -0.0949 -0.0897  0.1245
  239POPC   GL2 3413   2.927   8.938   5.432  0.0214 -0.3234 -0.2845
  239POPC   C1A 3414   2.773   8.656   5.856 -0.1006 -0.1084  0.1454
  239POPC   D2A 3415   2.712   8.708   6.318 -0.1161 -0.1032  0.1159
  239POPC   C3A 3416   2.652   9.055   6.489  0.0032 -0.1099 -0.0520
  239POPC   C4A 3417   2.601   9.290   6.933 -0.1054 -0.2843  0.1886
  239POPC   C1B 3418   2.787   9.145   5.892  0.1324 -0.0058  0.0802
  239POPC   C2B 3419   2.634   9.448   6.194 -0.3485 -0.0055 -0.0843
  239POPC   C3B 3420   2.592   9.730   6.513 -0.0236 -0.0367 -0.3930
  239POPC   C4B 3421   2.362   9.742   6.905  0.2003 -0.0618 -0.2234
  240POPC   NC3 3422   2.694   1.678   4.802  0.1583 -0.0469 -0.1336
  240POPC   PO4 3423   2.730   1.222   5.000 -0.4291 -0.1355  0.0193
  240POPC   GL1 3424   2.890   1.427   5.277 -0.0867  0.0213  0.0324
  240POPC   GL2 3425   3.117   1.507   5.456  0.2203  0.2641  0.0540
  240POPC   C1A 3426   2.581   1.518   5.695 -0.1721 -0.0766  0.1040
  240POPC   D2A 3427   2.634   1.465   6.161 -0.0721 -0.0485  0.0732
  240POPC   C3A 3428   2.356   1.623   6.469 -0.0928  0.2326  0.0905
  240POPC   C4A 3429   2.048   1.558   6.746 -0.0055 -0.0889  0.2277
  240POPC   C1B 3430   3.156   1.438   5.910 -0.3048 -0.0546 -0.1798
  240POPC   C2B 3431   3.108   1.630   6.266 -0.0890  0.0611  0.1475
  240POPC   C3B 3432   2.835   1.634   6.667 -0.1984 -0.2396  0.2703
  240POPC   C4B 3433   2.574   1.371   6.909 -0.2570 -0.0162  0.0454
  241POPC   NC3 3434   6.238   4.979   4.445 -0.1239  0.0830  0.1073
  241POPC   PO4 3435   6.325   5.378   4.716  0.2862  0.0277 -0.0988
  241POPC   GL1 3436   6.548   5.241   5.118  0.0406 -0.2216 -0.3044
  241POPC   GL2 3437   6.459   4.870   4.990 -0.0291  0.2133  0.1789
  241POPC   C1A 3438   6.826   5.368   5.474 -0.0783  0.0711  0.2853
  241POPC   D2A 3439   7.066   5.593   5.667  0.2791  0.1034 -0.0774
  241POPC   C3A 3440   7.320   5.538   5.987  0.1385  0.0296 -0.0247
  241POPC   C4A 3441   7.596   5.538   6.408  0.1528 -0.3173  0.1517
  241POPC   C1B 3442   6.271   4.903   5.386 -0.0060  0.1341  0.2254
  241POPC   C2B 3443   6.178   4.811   5.890  0.0332 -0.0075  0.0222
  241POPC   C3B 3444   6.181   4.678   6.274  0.1220  0.3474  0.2887
  241POPC   C4B 3445   6.468   4.534   6.726 -0.1079  0.2516 -0.0309
  242POPC   NC3 3446   3.353   9.882   5.046 -0.0456 -0.2287  0.2247
  242POPC   PO4 3447   2.992  10.126   5.059  0.3317 -0.1145  0.2469
  242POPC   GL1 3448   2.794  10.441   5.360  0.0237 -0.0990  0.0715
  242POPC   GL2 3449   2.496  10.542   5.269 -0.0280 -0.0229  0.0639
  242POPC   C1A 3450   2.779  10.642   5.730  0.2013  0.0204  0.2090
  242POPC   D2A 3451   2.394  10.806   6.085 -0.0655 -0.1587  0.0025
  242POPC   C3A 3452   2.568  10.795   6.520  0.3061 -0.0046 -0.0268
  242POPC   C4A 3453   2.857  10.599   6.779 -0.1389 -0.0095 -0.0512
  242POPC   C1B 3454   2.431  10.961   5.428  0.3704 -0.2976  0.0272
  242POPC   C2B 3455   2.399  11.262   5.849  0.0891  0.0589  0.3060
  242POPC   C3B 3456   2.299  11.283   6.295  0.0191 -0.1414  0.0098
  242POPC   C4B 3457   1.998  11.186   6.668 -0.0089 -0.1055  0.1989
  243POPC   NC3 3458   1.472   1.561   4.469  0.2289 -0.2192  0.4986
  243POPC   PO4 3459   1.277   1.512   4.804  0.0754  0.0076  0.3583
  243POPC   GL1 3460   0.892   1.659   4.946 -0.1345 -0.1159  0.0306
  243POPC   GL2 3461   0.559   1.735   4.823 -0.0152 -0.0781 -0.0674
  243POPC   C1A 3462   0.657   1.977   5.307 -0.0339 -0.0082 -0.1036
  243POPC   D2A 3463   0.408   2.079   5.686 -0.2391  0.0419 -0.0940
  243POPC   C3A 3464   0.505   2.286   6.018  0.4207  0.2069  0.2089
  243POPC   C4A 3465   0.255   2.681   6.254  0.1698 -0.1628 -0.1720
  243POPC   C1B 3466   0.293   1.594   5.104 -0.0986  0.1561  0.1970
  243POPC   C2B 3467  -0.010   1.850   5.347  0.1298 -0.1837  0.0732
  243POPC   C3B 3468  -0.311   2.189   5.501 -0.1924  0.1734 -0.0508
  243POPC   C4B 3469  -0.687   2.266   5.669 -0.2733 -0.3397 -0.0821
  244POPC   NC3 3470   4.913   8.106   5.809 -0.2620  0.2594 -0.0899
  244POPC   PO4 3471   4.452   8.063   5.700 -0.1497  0.1059  0.0692
  244POPC   GL1 3472   4.323   7.844   6.062  0.3011  0.0806  0.1397
  244POPC   GL2 3473   4.236   7.995   6.261  0.1644 -0.0766 -0.1632
  244POPC   C1A 3474   4.368   7.485   6.362  0.0081 -0.0499 -0.1460
  244POPC   D2A 3475   4.247   7.357   6.784  0.3280  0.3629  0.1065
  244POPC   C3A 3476   4.168   6.915   6.879  0.1472  0.0386 -0.0021
  244POPC   C4A 3477   4.062   6.518   7.035  0.0795  0.1126  0.0363
  244POPC   C1B 3478   4.172   8.247   6.468  0.0494  0.0366  0.2211
  244POPC   C2B 3479   3.858   8.599   6.334  0.2729 -0.0371  0.1892
  244POPC   C3B 3480   3.501   8.814   6.633  0.1725  0.0261  0.0633
  244POPC   C4B 3481   3.068   8.820   6.739  0.0140 -0.0500 -0.1950
  245POPC   NC3 3482   0.568   3.341   3.545 -0.0992  0.0931  0.3601
  245POPC   PO4 3483   0.368   3.040   3.821 -0.0266  0.1643  0.2364
  245POPC   GL1 3484   0.300   2.921   4.187 -0.0946 -0.0691 -0.0361
  245POPC   GL2 3485   0.440   3.095   4.331  0.1395  0.0065 -0.0568
  245POPC   C1A 3486  -0.007   2.903   4.528 -0.0147  0.2612  0.1552
  245POPC   D2A 3487  -0.004   2.528   4.798  0.0764  0.0387 -0.0641
  245POPC   C3A 3488   0.457   2.468   4.999 -0.1184  0.0115  0.0619
  245POPC   C4A 3489   0.669   2.441   5.449 -0.0395 -0.2253 -0.0885
  245POPC   C1B 3490   0.325   3.433   4.558 -0.0479  0.0118  0.0128
  245POPC   C2B 3491   0.083   3.379   4.910  0.1798  0.1754 -0.2467
  245POPC   C3B 3492  -0.135   3.308   5.231  0.2500 -0.1536  0.0837
  245POPC   C4B 3493  -0.325   3.417   5.668  0.1460  0.0936  0.1996
  246POPC   NC3 3494   9.047   5.478   4.159  0.0664  0.0180  0.0010
  246POPC   PO4 3495   8.723   5.639   4.491 -0.0907  0.2265 -0.0950
  246POPC   GL1 3496   8.614   5.357   4.880 -0.0226  0.0983 -0.0001
  246POPC   GL2 3497   8.866   5.220   4.868 -0.0204 -0.1474 -0.3342
  246POPC   C1A 3498   8.390   4.992   5.092 -0.0310 -0.1930 -0.1508
  246POPC   D2A 3499   8.539   4.825   5.447  0.1860 -0.1175  0.4541
  246POPC   C3A 3500   8.505   4.636   5.890 -0.1360  0.3022  0.0627
  246POPC   C4A 3501   8.082   4.705   5.962 -0.2024 -0.3681  0.0404
  246POPC   C1B 3502   8.912   5.121   5.314  0.2451 -0.0202  0.1550
  246POPC   C2B 3503   8.949   5.478   5.627 -0.2879 -0.1096  0.1005
  246POPC   C3B 3504   8.782   5.516   6.022  0.0613  0.0733 -0.0193
  246POPC   C4B 3505   8.518   5.885   6.236  0.1252  0.1575 -0.1446
  247POPC   NC3 3506   2.274   7.647   5.063  0.1300  0.1839 -0.3581
  247POPC   PO4 3507   2.646   7.507   5.026 -0.3357 -0.1901 -0.2854
  247POPC   GL1 3508   3.013   7.601   5.350 -0.0825  0.0109 -0.0108
  247POPC   GL2 3509   3.116   7.950   5.474  0.2319  0.1271 -0.0132
  247POPC   C1A 3510   3.233   7.573   5.778 -0.3113 -0.2983  0.1478
  247POPC   D2A 3511   3.062   7.861   6.192  0.1405  0.2366 -0.0264
  247POPC   C3A 3512   3.184   7.906   6.586  0.0625  0.3078 -0.0085
  247POPC   C4A 3513   3.130   7.621   7.016 -0.2255 -0.0678 -0.2605
  247POPC   C1B 3514   2.722   8.054   5.743 -0.0900  0.2282 -0.0493
  247POPC   C2B 3515   2.567   8.182   6.105  0.3951  0.1158 -0.1816
  247POPC   C3B 3516   2.453   8.230   6.580 -0.1723 -0.1186 -0.3292
  247POPC   C4B 3517   2.809   8.390   6.727  0.3478 -0.2302  0.2714
  248POPC   NC3 3518   7.722   0.309   4.358 -0.3692  0.2750  0.0605
  248POPC   PO4 3519   7.369   0.579   4.416 -0.1814 -0.1625 -0.0878
  248POPC   GL1 3520   7.607   0.812   4.597 -0.0012 -0.0128 -0.0642
  248POPC   GL2 3521   7.407   1.001   4.692  0.0600  0.0543  0.4178
  248POPC   C1A 3522   7.891   1.034   4.855  0.1387  0.1573 -0.2545
  248POPC   D2A 3523   8.065   0.964   5.184  0.2507  0.1227 -0.3274
  248POPC   C3A 3524   8.112   1.173   5.553 -0.1766 -0.1167  0.0840
  248POPC   C4A 3525   8.238   1.427   5.981 -0.4436 -0.0289 -0.0498
  248POPC   C1B 3526   7.274   1.233   4.933 -0.1250 -0.1787  0.1970
  248POPC   C2B 3527   7.030   1.029   5.411 -0.1468 -0.0391  0.0309
  248POPC   C3B 3528   6.816   0.792   5.757 -0.2667  0.0088 -0.0438
  248POPC   C4B 3529   6.928   0.474   5.964  0.1414 -0.1631 -0.0965
  249POPC   NC3 3530   1.531   2.362   4.820 -0.1347  0.2003  0.2538
  249POPC   PO4 3531   1.973   2.251   4.819 -0.1200  0.0201 -0.0590
  249POPC   GL1 3532   1.883   2.216   5.280 -0.1111  0.0413 -0.1085
  249POPC   GL2 3533   2.085   1.971   5.310  0.0679  0.1536 -0.3081
  249POPC   C1A 3534   1.806   2.453   5.705 -0.0270 -0.1712 -0.0272
  249POPC   D2A 3535   1.492   2.487   6.039  0.1193 -0.0550  0.0240
  249POPC   C3A 3536   1.366   2.238   6.386  0.3106  0.1398  0.3233
  249POPC   C4A 3537   1.294   2.211   6.815 -0.1409  0.0037  0.2936
  249POPC   C1B 3538   1.917   2.018   5.835 -0.0994  0.0819 -0.2054
  249POPC   C2B 3539   1.879   2.260   6.241  0.1508 -0.1410 -0.0608
  249POPC   C3B 3540   1.825   2.190   6.658 -0.0407 -0.0347 -0.0775
  249POPC   C4B 3541   1.805   1.986   7.012 -0.0779  0.0426 -0.1046
  250POPC   NC3 3542   6.035   0.878   4.566  0.1491 -0.0975  0.0889
  250POPC   PO4 3543   6.009   1.331   4.677 -0.2042  0.3045 -0.1190
  250POPC   GL1 3544   6.275   1.204   4.922 -0.1827 -0.0895  0.3005
  250POPC   GL2 3545   5.959   1.021   5.107  0.0207 -0.0592 -0.1914
  250POPC   C1A 3546   6.524   1.192   5.334  0.0384 -0.2054 -0.1602
  250POPC   D2A 3547   6.763   1.414   5.528  0.1868  0.1155  0.4509
  250POPC   C3A 3548   6.950   1.255   5.970 -0.1162  0.0396  0.2486
  250POPC   C4A 3549   6.894   1.236   6.434 -0.1552 -0.3065  0.4901
  250POPC   C1B 3550   5.983   1.293   5.527 -0.2425  0.2324 -0.0289
  250POPC   C2B 3551   6.000   1.716   5.648 -0.0221 -0.1050 -0.1401
  250POPC   C3B 3552   6.060   1.831   6.056  0.1766  0.1064  0.0099
  250POPC   C4B 3553   5.961   2.184   6.337 -0.1823  0.0818  0.0150
  251POPC   NC3 3554   1.243   2.985   4.199 -0.0386  0.1032 -0.0994
  251POPC   PO4 3555   1.434   2.846   4.617 -0.0847  0.3010  0.1839
  251POPC   GL1 3556   1.187   3.237   4.713  0.0415 -0.4172 -0.0638
  251POPC   GL2 3557   0.918   3.240   4.427  0.0149 -0.0595 -0.4598
  251POPC   C1A 3558   1.164   3.642   4.929  0.0811 -0.0860  0.0455
  251POPC   D2A 3559   1.091   3.821   5.339  0.6423 -0.1693 -0.0718
  251POPC   C3A 3560   1.353   3.924   5.678 -0.0262  0.1595  0.1766
  251POPC   C4A 3561   1.354   4.279   6.089 -0.0868  0.0750 -0.0223
  251POPC   C1B 3562   0.727   3.094   4.760 -0.3948  0.1428 -0.4871
  251POPC   C2B 3563   0.894   2.894   5.273 -0.0652  0.0334  0.1362
  251POPC   C3B 3564   0.976   2.882   5.670 -0.1678  0.1407  0.0737
  251POPC   C4B 3565   0.783   2.813   6.062  0.0310 -0.3041  0.0099
  252POPC   NC3 3566   8.395   2.734   3.851  0.2811  0.1379 -0.0458
  252POPC   PO4 3567   8.526   3.120   3.831  0.0537  0.0727  0.1716
  252POPC   GL1 3568   8.660   3.210   4.280 -0.1221  0.3005 -0.1044
  252POPC   GL2 3569   9.000   3.169   4.227  0.0666 -0.1165 -0.4569
  252POPC   C1A 3570   8.855   2.934   4.660  0.0700 -0.0037  0.3116
  252POPC   D2A 3571   8.631   2.729   5.013 -0.1874  0.1984  0.2135
  252POPC   C3A 3572   8.544   2.467   5.365  0.1231 -0.1981 -0.0839
  252POPC   C4A 3573   8.604   2.122   5.307 -0.0397 -0.0760  0.1918
  252POPC   C1B 3574   9.184   3.448   4.613 -0.1774 -0.1155 -0.1366
  252POPC   C2B 3575   9.194   3.583   5.025  0.3601 -0.2044 -0.1732
  252POPC   C3B 3576   9.423   3.733   5.413 -0.0160 -0.1358  0.4704
  252POPC   C4B 3577   9.633   3.886   5.824  0.2064  0.1646  0.2397
  253POPC   NC3 3578   6.029   6.513   5.678  0.1199  0.5770 -0.0005
  253POPC   PO4 3579   5.825   6.826   5.750  0.3240 -0.2639  0.0704
  253POPC   GL1 3580   5.871   6.628   6.151  0.0638 -0.1183  0.2410
  253POPC   GL2 3581   5.943   6.942   6.246  0.1115 -0.1109  0.0778
  253POPC   C1A 3582   5.964   6.162   6.249  0.3212 -0.5006 -0.0802
  253POPC   D2A 3583   6.027   5.923   6.643  0.1385  0.1364  0.2483
  253POPC   C3A 3584   6.235   6.070   6.949 -0.0535  0.2991  0.0562
  253POPC   C4A 3585   6.589   6.317   7.131 -0.0810 -0.2741 -0.1155
  253POPC   C1B 3586   6.156   6.968   6.601 -0.2707 -0.0155  0.0441
  253POPC   C2B 3587   6.284   6.812   6.964 -0.0768  0.0118  0.0197
  253POPC   C3B 3588   6.111   6.613   7.257 -0.3355  0.1976 -0.2573
  253POPC   C4B 3589   6.047   6.350   7.781 -0.1184 -0.3321 -0.1083
  254POPC   NC3 3590   9.850   1.950   3.705  0.3604  0.0706 -0.1414
  254POPC   PO4 3591   9.536   2.347   3.581 -0.0113  0.2953  0.0877
  254POPC   GL1 3592   9.469   2.511   3.987  0.0481  0.0492 -0.0087
  254POPC   GL2 3593   9.335   2.781   4.163  0.3278  0.0254  0.1012
  254POPC   C1A 3594   9.088   2.314   4.167 -0.1539  0.0342 -0.1003
  254POPC   D2A 3595   8.795   2.420   4.620 -0.1143 -0.1185 -0.0687
  254POPC   C3A 3596   8.966   2.308   5.009  0.3429 -0.1131 -0.2748
  254POPC   C4A 3597   9.233   2.165   5.301  0.0682  0.0219  0.2080
  254POPC   C1B 3598   9.247   2.588   4.593 -0.0673  0.1381  0.0189
  254POPC   C2B 3599   9.539   2.469   4.876 -0.1593  0.1569  0.0666
  254POPC   C3B 3600   9.884   2.182   4.993  0.1139 -0.2303 -0.2362
  254POPC   C4B 3601  10.001   1.731   4.810  0.3642 -0.1633  0.0746
  255POPC   NC3 3602   1.615   0.509   4.978 -0.2742  0.1205 -0.0383
  255POPC   PO4 3603   1.298   0.122   5.145  0.1771 -0.0650  0.1491
  255POPC   GL1 3604   1.299  -0.067   5.568  0.1872 -0.0888 -0.0360
  255POPC   GL2 3605   1.335  -0.516   5.623 -0.2979 -0.2083  0.0787
  255POPC   C1A 3606   1.389   0.036   6.038  0.0316  0.2936  0.0705
  255POPC   D2A 3607   1.532   0.188   6.455 -0.3504  0.2513 -0.2976
  255POPC   C3A 3608   1.284   0.351   6.739  0.2375 -0.1488  0.2072
  255POPC   C4A 3609   1.261   0.337   7.191 -0.3627 -0.0333 -0.1519
  255POPC   C1B 3610   1.294  -0.862   5.955  0.0720 -0.4316 -0.0852
  255POPC   C2B 3611   1.290  -0.987   6.368  0.2687  0.2950 -0.3060
  255POPC   C3B 3612   1.222  -0.862   6.773  0.0012 -0.1768 -0.1564
  255POPC   C4B 3613   1.275  -0.419   6.724 -0.1439 -0.2615 -0.2848
  256POPC   NC3 3614   2.488   7.041   4.963 -0.0133 -0.1980  0.1241
  256POPC   PO4 3615   2.021   7.192   4.926  0.2481  0.1802 -0.2497
  256POPC   GL1 3616   2.156   7.247   5.348 -0.1259 -0.0047  0.1374
  256POPC   GL2 3617   2.511   7.162   5.430  0.2056 -0.1357 -0.0354
  256POPC   C1A 3618   2.118   7.180   5.680  0.0557  0.3411  0.1767
  256POPC   D2A 3619   2.361   7.291   6.029 -0.2196 -0.1905  0.0611
  256POPC   C3A 3620   2.414   7.408   6.492 -0.0845 -0.0922  0.1684
  256POPC   C4A 3621   2.672   7.843   6.510 -0.0660 -0.1389 -0.1505
  256POPC   C1B 3622   2.761   7.322   5.697 -0.1883  0.0493 -0.0602
  256POPC   C2B 3623   2.908   7.303   6.130 -0.0500  0.0723  0.3991
  256POPC   C3B 3624   2.967   7.479   6.484 -0.0753  0.0507  0.0670
  256POPC   C4B 3625   2.714   7.481   6.845 -0.0512  0.3051 -0.0905
  257POPC   NC3 3626   5.154   1.585   4.392  0.0432  0.0137 -0.0522
  257POPC   PO4 3627   4.808   1.515   4.693  0.0313  0.1353  0.2977
  257POPC   GL1 3628   4.699   1.395   5.161  0.3957  0.2572  0.1269
  257POPC   GL2 3629   4.910   1.136   5.413  0.0297 -0.1724  0.0604
  257POPC   C1A 3630   4.582   1.480   5.573  0.0780  0.1349  0.1191
  257POPC   D2A 3631   4.534   1.472   6.034 -0.1456  0.2378 -0.0764
  257POPC   C3A 3632   4.417   1.126   6.300  0.0895  0.0308  0.1056
  257POPC   C4A 3633   4.088   1.040   6.636  0.0623 -0.2491 -0.2379
  257POPC   C1B 3634   5.215   1.241   5.816  0.3264 -0.1976  0.0659
  257POPC   C2B 3635   5.351   1.360   6.199 -0.1771  0.1344  0.2257
  257POPC   C3B 3636   5.548   1.373   6.603  0.1690 -0.0478  0.0582
  257POPC   C4B 3637   5.561   1.689   6.994 -0.0785  0.1404 -0.0518
  258POPC   NC3 3638   9.263   6.405   5.128 -0.4784  0.1484 -0.1434
  258POPC   PO4 3639   8.981   6.784   5.305  0.1475 -0.2793  0.0955
  258POPC   GL1 3640   8.920   6.885   5.782  0.0607 -0.0045  0.2302
  258POPC   GL2 3641   8.839   6.574   5.974  0.2370 -0.1799  0.0802
  258POPC   C1A 3642   8.771   7.118   6.208 -0.1374  0.0178  0.0336
  258POPC   D2A 3643   8.837   7.118   6.627 -0.0273 -0.0196 -0.0041
  258POPC   C3A 3644   8.840   6.812   6.855  0.3008  0.0362  0.2007
  258POPC   C4A 3645   9.032   6.534   7.132 -0.1056  0.2751  0.0849
  258POPC   C1B 3646   8.885   6.656   6.383 -0.1412 -0.1774  0.0784
  258POPC   C2B 3647   8.986   6.230   6.688  0.0058  0.0065  0.2745
  258POPC   C3B 3648   8.883   5.876   6.624 -0.1763  0.0746  0.0374
  258POPC   C4B 3649   9.009   5.495   6.447 -0.0764 -0.0244 -0.1191
  259POPC   NC3 3650   5.790   2.393   4.480  0.1005 -0.0016  0.0549
  259POPC   PO4 3651   6.239   2.379   4.433 -0.2795 -0.0754  0.3255
  259POPC   GL1 3652   6.148   2.334   4.888 -0.0506 -0.0003  0.1078
  259POPC   GL2 3653   6.226   2.700   4.877  0.0758 -0.0897  0.2942
  259POPC   C1A 3654   6.094   2.094   5.296  0.1748 -0.4507  0.0565
  259POPC   D2A 3655   6.033   2.238   5.708  0.2259  0.1125  0.2243
  259POPC   C3A 3656   5.765   2.406   5.878  0.0964 -0.1723  0.0289
  259POPC   C4A 3657   5.603   2.619   5.687 -0.0663 -0.0505  0.2514
  259POPC   C1B 3658   6.242   2.616   5.299 -0.0512 -0.4302 -0.3362
  259POPC   C2B 3659   6.348   2.585   5.596  0.1152 -0.3552 -0.1192
  259POPC   C3B 3660   6.606   2.731   5.887  0.2586 -0.0089 -0.0571
  259POPC   C4B 3661   7.051   2.667   5.785  0.1585 -0.0068 -0.2611
  260POPC   NC3 3662   2.420   9.476   4.925 -0.1721 -0.1868 -0.3928
  260POPC   PO4 3663   2.173   9.250   5.187 -0.0454 -0.2885 -0.2435
  260POPC   GL1 3664   2.098   9.341   5.560 -0.1131  0.2781 -0.0716
  260POPC   GL2 3665   1.818   9.599   5.609 -0.2456 -0.2448  0.1229
  260POPC   C1A 3666   2.278   9.205   5.908 -0.0012 -0.2148 -0.0675
  260POPC   D2A 3667   2.212   9.165   6.356  0.2637  0.0156  0.1909
  260POPC   C3A 3668   2.152   9.516   6.537 -0.3942  0.1165  0.3328
  260POPC   C4A 3669   1.963   9.929   6.580  0.0442  0.1974  0.0111
  260POPC   C1B 3670   1.802   9.305   5.937  0.1193  0.2147 -0.0666
  260POPC   C2B 3671   1.735   9.019   6.248 -0.1270 -0.2836  0.0321
  260POPC   C3B 3672   1.690   8.624   6.533 -0.1492 -0.3036 -0.2162
  260POPC   C4B 3673   1.869   8.621   6.962 -0.0398 -0.2174  0.0406
  261POPC   NC3 3674   2.034   3.163   4.956  0.2666  0.2764  0.2415
  261POPC   PO4 3675   1.744   3.237   4.729 -0.1800 -0.1218  0.0889
  261POPC   GL1 3676   1.577   3.358   5.095  0.3572 -0.0192 -0.0744
  261POPC   GL2 3677   1.655   3.619   5.167  0.3022  0.0687  0.2378
  261POPC   C1A 3678   1.253   3.338   5.301 -0.2439  0.1493  0.0373
  261POPC   D2A 3679   1.159   3.482   5.810 -0.0294 -0.1086 -0.0370
  261POPC   C3A 3680   1.050   3.848   6.155  0.3024  0.1941  0.1623
  261POPC   C4A 3681   0.739   4.000   6.264 -0.1265 -0.1259 -0.0509
  261POPC   C1B 3682   1.659   3.538   5.612 -0.0417 -0.0878 -0.1197
  261POPC   C2B 3683   1.692   3.302   6.113  0.2361 -0.1957  0.2668
  261POPC   C3B 3684   1.711   3.402   6.502 -0.1020 -0.0940 -0.0650
  261POPC   C4B 3685   1.835   3.337   6.857  0.1000  0.2076  0.1215
  262POPC   NC3 3686   2.641   0.393   4.754  0.2186  0.2078 -0.1655
  262POPC   PO4 3687   2.186   0.200   4.907 -0.1325 -0.0371  0.4098
  262POPC   GL1 3688   1.939   0.071   5.241 -0.2246  0.3394  0.4236
  262POPC   GL2 3689   1.829   0.336   5.373 -0.0247 -0.0454  0.2313
  262POPC   C1A 3690   1.738  -0.087   5.632  0.2230  0.0722 -0.0112
  262POPC   D2A 3691   1.706  -0.302   6.019 -0.1075  0.0581  0.1736
  262POPC   C3A 3692   2.069  -0.349   5.975 -0.1193  0.1690 -0.2642
  262POPC   C4A 3693   2.518  -0.204   6.048  0.1258  0.0991 -0.3142
  262POPC   C1B 3694   1.564   0.363   5.724 -0.0797  0.0783 -0.0361
  262POPC   C2B 3695   1.433   0.517   6.100  0.0257  0.3854 -0.4014
  262POPC   C3B 3696   1.114   0.484   6.302 -0.0769 -0.2491  0.2184
  262POPC   C4B 3697   0.626   0.405   6.341 -0.1712  0.3358 -0.1826
  263POPC   NC3 3698   2.852   2.359   4.869  0.0267  0.1366 -0.2737
  263POPC   PO4 3699   2.536   2.114   4.853 -0.0482 -0.1710 -0.2266
  263POPC   GL1 3700   2.563   2.324   5.277  0.2112 -0.3275  0.0492
  263POPC   GL2 3701   2.833   2.443   5.438 -0.0460  0.0242  0.0094
  263POPC   C1A 3702   2.363   2.256   5.737  0.1789 -0.0127 -0.4359
  263POPC   D2A 3703   2.377   2.616   6.086 -0.2285  0.0487 -0.3556
  263POPC   C3A 3704   2.755   2.501   6.326 -0.1144  0.0821 -0.0356
  263POPC   C4A 3705   2.913   2.150   6.390 -0.1222 -0.0005 -0.0982
  263POPC   C1B 3706   2.817   2.436   5.887 -0.0377  0.3010  0.3300
  263POPC   C2B 3707   3.218   2.626   6.092  0.1342 -0.1750 -0.2316
  263POPC   C3B 3708   3.354   2.511   6.540 -0.2447  0.0280 -0.1680
  263POPC   C4B 3709   3.667   2.714   6.725 -0.2100  0.0731  0.0260
  264POPC   NC3 3710   3.391   2.875   4.682 -0.0526  0.0837 -0.1271
  264POPC   PO4 3711   3.860   2.688   4.694 -0.1339 -0.0107  0.0349
  264POPC   GL1 3712   4.144   2.647   5.164 -0.4290 -0.2145 -0.1402
  264POPC   GL2 3713   4.061   2.856   5.389  0.2020 -0.2062  0.2240
  264POPC   C1A 3714   4.157   2.464   5.624 -0.1077  0.2508  0.0689
  264POPC   D2A 3715   4.414   2.527   5.942  0.1621  0.0966 -0.3498
  264POPC   C3A 3716   4.405   2.410   6.406 -0.3615 -0.0861 -0.2341
  264POPC   C4A 3717   4.246   2.132   6.774 -0.0041  0.2023  0.0291
  264POPC   C1B 3718   3.774   2.867   5.782  0.1767 -0.1384 -0.0865
  264POPC   C2B 3719   3.637   2.864   6.225 -0.1307 -0.1130  0.4159
  264POPC   C3B 3720   3.719   3.200   6.407 -0.2515 -0.1495 -0.0266
  264POPC   C4B 3721   3.918   3.326   6.751  0.0887  0.1679  0.1502
  265POPC   NC3 3722   6.529   0.797   4.462 -0.0165  0.1432  0.0254
  265POPC   PO4 3723   6.447   0.425   4.492  0.0252 -0.1608  0.0735
  265POPC   GL1 3724   6.366   0.655   4.907 -0.4831  0.1777 -0.2339
  265POPC   GL2 3725   6.211   0.600   5.056  0.3120  0.1487 -0.0768
  265POPC   C1A 3726   6.656   0.700   5.226 -0.0123 -0.1086  0.1306
  265POPC   D2A 3727   6.914   0.466   5.365 -0.0850 -0.1768  0.1948
  265POPC   C3A 3728   7.258   0.671   5.611 -0.2255 -0.1124 -0.0114
  265POPC   C4A 3729   7.306   0.929   5.917  0.0673 -0.2434  0.0599
  265POPC   C1B 3730   6.239   0.776   5.483 -0.3455 -0.1835  0.1180
  265POPC   C2B 3731   6.439   1.113   5.768 -0.1992 -0.3268 -0.0992
  265POPC   C3B 3732   6.423   1.406   6.080 -0.1375  0.1449  0.1213
  265POPC   C4B 3733   6.633   1.730   6.218  0.1001  0.0299 -0.0163
  266POPC   NC3 3734   0.260   2.567   3.813 -0.0687  0.1529  0.2622
  266POPC   PO4 3735  -0.179   2.345   3.801  0.0226 -0.1429 -0.2719
  266POPC   GL1 3736  -0.260   2.406   4.139 -0.0040 -0.6212 -0.3126
  266POPC   GL2 3737   0.028   2.462   4.251 -0.5396  0.1700  0.2018
  266POPC   C1A 3738  -0.466   2.639   4.458  0.0974 -0.0314  0.1237
  266POPC   D2A 3739  -0.389   2.906   4.873 -0.0976 -0.1772  0.0569
  266POPC   C3A 3740   0.042   2.913   5.064  0.3035  0.0951 -0.2660
  266POPC   C4A 3741   0.385   3.116   5.214 -0.0590 -0.0555 -0.2121
  266POPC   C1B 3742   0.143   2.094   4.523 -0.0945 -0.1728  0.2446
  266POPC   C2B 3743   0.150   2.050   4.918  0.0345  0.1273 -0.0459
  266POPC   C3B 3744   0.077   2.362   5.332  0.2878 -0.0876  0.3733
  266POPC   C4B 3745  -0.289   2.602   5.253 -0.0646  0.1704 -0.3511
  267POPC   NC3 3746   4.649   4.148   4.702 -0.1196 -0.0063  0.0424
  267POPC   PO4 3747   4.531   4.028   5.145 -0.0617  0.0081  0.2697
  267POPC   GL1 3748   4.815   4.265   5.345 -0.2475 -0.3432  0.1903
  267POPC   GL2 3749   5.012   4.596   5.389 -0.0008  0.3401 -0.1881
  267POPC   C1A 3750   4.727   4.401   5.757  0.0653 -0.0248  0.2223
  267POPC   D2A 3751   4.534   4.351   6.162  0.1415  0.0364  0.1471
  267POPC   C3A 3752   4.050   4.136   6.155 -0.0100  0.0522 -0.1162
  267POPC   C4A 3753   3.932   3.653   6.206  0.1864 -0.1238 -0.1617
  267POPC   C1B 3754   5.045   4.789   5.824  0.0085 -0.2603  0.0272
  267POPC   C2B 3755   4.921   4.662   6.301  0.1741  0.3582 -0.2390
  267POPC   C3B 3756   4.833   4.380   6.622  0.0809  0.2060 -0.2315
  267POPC   C4B 3757   4.652   4.025   6.882 -0.0102 -0.3180 -0.0115
  268POPC   NC3 3758   6.927   2.521   4.310 -0.1298  0.0200 -0.2058
  268POPC   PO4 3759   6.655   2.166   4.323 -0.0055  0.0240  0.1752
  268POPC   GL1 3760   6.646   2.175   4.716 -0.2667  0.1032 -0.2032
  268POPC   GL2 3761   6.694   2.549   4.718  0.1272 -0.1084  0.0626
  268POPC   C1A 3762   6.570   2.196   5.150  0.2339  0.2615 -0.2631
  268POPC   D2A 3763   6.817   2.366   5.476 -0.1126  0.1333  0.1060
  268POPC   C3A 3764   7.261   2.220   5.622  0.4324 -0.0594 -0.1403
  268POPC   C4A 3765   7.692   2.088   5.679 -0.1311  0.2382 -0.2074
  268POPC   C1B 3766   6.758   2.711   5.136  0.2095  0.1897 -0.0473
  268POPC   C2B 3767   6.865   2.980   5.492  0.0021  0.1682 -0.0282
  268POPC   C3B 3768   6.802   3.218   5.838 -0.4414  0.4305  0.0671
  268POPC   C4B 3769   6.557   3.570   6.021 -0.1734  0.0419 -0.0165
  269POPC   NC3 3770   1.676   9.357   5.164 -0.1280  0.0141 -0.2290
  269POPC   PO4 3771   1.410   9.299   4.921  0.0264  0.1600  0.3379
  269POPC   GL1 3772   1.298   9.194   5.430  0.0090 -0.1016  0.0927
  269POPC   GL2 3773   1.004   9.012   5.538  0.3816 -0.2311  0.0671
  269POPC   C1A 3774   1.392   8.908   5.766  0.2966  0.1026 -0.1670
  269POPC   D2A 3775   1.402   8.581   6.097  0.1419  0.2461 -0.2801
  269POPC   C3A 3776   1.425   8.127   6.109  0.2495 -0.0868  0.3121
  269POPC   C4A 3777   1.666   7.792   6.245  0.0910  0.1412 -0.1644
  269POPC   C1B 3778   0.996   8.913   5.998 -0.0416  0.1303  0.0364
  269POPC   C2B 3779   1.112   8.753   6.462  0.3788 -0.1069  0.1866
  269POPC   C3B 3780   1.247   8.837   6.826  0.0233  0.2716 -0.2287
  269POPC   C4B 3781   1.588   9.063   6.942 -0.2176  0.1724 -0.0350
  270POPC   NC3 3782   4.316   8.961   5.493 -0.1138 -0.1725 -0.1021
  270POPC   PO4 3783   4.568   8.541   5.750 -0.0740 -0.0263 -0.0946
  270POPC   GL1 3784   4.610   8.915   5.997  0.2422  0.0178  0.3052
  270POPC   GL2 3785   4.336   8.828   6.082 -0.2302 -0.0176 -0.2064
  270POPC   C1A 3786   4.814   9.025   6.362 -0.2896 -0.2094 -0.0051
  270POPC   D2A 3787   4.659   8.951   6.773  0.1865  0.0618 -0.1295
  270POPC   C3A 3788   4.454   9.252   6.927  0.2841  0.2530  0.0978
  270POPC   C4A 3789   4.462   9.677   6.927 -0.2374 -0.0375  0.2183
  270POPC   C1B 3790   4.266   8.779   6.508 -0.0121  0.1756  0.1412
  270POPC   C2B 3791   3.994   8.825   6.805 -0.0726 -0.2016 -0.2548
  270POPC   C3B 3792   3.678   8.873   7.098 -0.0680  0.2599  0.0125
  270POPC   C4B 3793   3.299   8.890   7.432 -0.1976 -0.1580  0.0059
  271POPC   NC3 3794   8.342   4.502   3.848  0.1406  0.0302  0.1719
  271POPC   PO4 3795   8.305   4.661   4.299  0.1824 -0.1658  0.1928
  271POPC   GL1 3796   8.078   4.502   4.625  0.3781 -0.0902  0.0338
  271POPC   GL2 3797   8.221   4.212   4.701  0.0252 -0.0386  0.0205
  271POPC   C1A 3798   8.197   4.532   5.112 -0.1871  0.0303  0.0388
  271POPC   D2A 3799   8.179   4.508   5.500 -0.1886  0.1948  0.2401
  271POPC   C3A 3800   8.266   4.150   5.619  0.0064 -0.0541  0.1522
  271POPC   C4A 3801   8.136   4.147   6.055 -0.2733  0.2380  0.3942
  271POPC   C1B 3802   8.385   3.982   5.178  0.3706  0.3208 -0.2409
  271POPC   C2B 3803   8.736   3.683   5.367  0.0498 -0.1741 -0.1971
  271POPC   C3B 3804   9.024   3.693   5.706  0.0517  0.0032 -0.2574
  271POPC   C4B 3805   9.263   3.454   6.103 -0.3331  0.1811  0.0090
  272POPC   NC3 3806   6.157   6.588   5.073  0.1772 -0.1018  0.0108
  272POPC   PO4 3807   6.407   6.418   5.374  0.0982  0.2213  0.3202
  272POPC   GL1 3808   6.474   6.192   5.670 -0.0702  0.1254 -0.4437
  272POPC   GL2 3809   6.392   6.319   5.947 -0.1034 -0.0978 -0.0069
  272POPC   C1A 3810   6.612   5.853   5.873  0.0078  0.2519 -0.0627
  272POPC   D2A 3811   6.816   5.487   6.086  0.4357  0.1223 -0.1205
  272POPC   C3A 3812   6.973   5.043   5.858 -0.1013 -0.0413  0.0574
  272POPC   C4A 3813   6.894   4.843   5.422 -0.1555 -0.0861 -0.0884
  272POPC   C1B 3814   6.457   6.081   6.364 -0.1260 -0.0626 -0.0490
  272POPC   C2B 3815   6.633   5.718   6.486 -0.2857 -0.0174 -0.0072
  272POPC   C3B 3816   6.772   5.329   6.721 -0.0687 -0.2950  0.1284
  272POPC   C4B 3817   6.830   4.886   6.480  0.0977  0.0593 -0.4002
  273POPC   NC3 3818   5.371   3.057   4.106 -0.0091 -0.0814  0.0965
  273POPC   PO4 3819   5.439   2.771   4.454  0.0476  0.0106 -0.2638
  273POPC   GL1 3820   5.740   2.793   4.744 -0.1620  0.1822 -0.1467
  273POPC   GL2 3821   5.864   3.090   4.779 -0.1506 -0.1035  0.0380
  273POPC   C1A 3822   5.760   2.548   5.167  0.0912 -0.2001  0.1788
  273POPC   D2A 3823   5.594   2.135   5.423 -0.0003  0.3758 -0.0237
  273POPC   C3A 3824   5.367   2.172   5.729  0.2956 -0.1532  0.0338
  273POPC   C4A 3825   5.441   2.220   6.195  0.1154 -0.1493  0.1758
  273POPC   C1B 3826   5.835   3.018   5.233  0.2454 -0.2275  0.4037
  273POPC   C2B 3827   5.916   3.050   5.599  0.0614 -0.1677 -0.0204
  273POPC   C3B 3828   5.646   3.069   5.934  0.0672  0.0817  0.0030
  273POPC   C4B 3829   5.587   2.793   6.314  0.0777  0.4522 -0.1698
  274POPC   NC3 3830   3.260   0.250   4.232  0.0471 -0.0526  0.1383
  274POPC   PO4 3831   3.167   0.460   4.621 -0.0558  0.1367  0.0808
  274POPC   GL1 3832   3.200   0.444   5.002  0.1577 -0.3987  0.0790
  274POPC   GL2 3833   3.371   0.253   5.179  0.2681  0.3068 -0.3826
  274POPC   C1A 3834   3.150   0.631   5.492 -0.2177 -0.0691  0.2834
  274POPC   D2A 3835   3.028   0.955   5.764  0.2248 -0.3849  0.5544
  274POPC   C3A 3836   2.812   0.981   6.125 -0.0941 -0.0979  0.3980
  274POPC   C4A 3837   2.886   1.164   6.527 -0.1993 -0.0214  0.1379
  274POPC   C1B 3838   3.246   0.178   5.632  0.2084  0.0215 -0.4236
  274POPC   C2B 3839   3.095   0.209   6.052 -0.0755 -0.1219 -0.0178
  274POPC   C3B 3840   2.714   0.197   6.273 -0.2394  0.0914 -0.1715
  274POPC   C4B 3841   2.491  -0.017   6.641  0.1541 -0.1599  0.2468
  275POPC   NC3 3842   8.102   4.195   4.175  0.3710 -0.0669 -0.0370
  275POPC   PO4 3843   8.058   3.813   3.915 -0.0791  0.1011  0.0058
  275POPC   GL1 3844   8.101   3.658   4.318 -0.0481 -0.1957 -0.1926
  275POPC   GL2 3845   8.331   3.527   4.440 -0.0225 -0.1986  0.5091
  275POPC   C1A 3846   8.019   3.623   4.806  0.2594 -0.0937  0.1813
  275POPC   D2A 3847   7.860   3.549   5.245  0.0197  0.0810  0.0303
  275POPC   C3A 3848   8.152   3.636   5.668 -0.3557 -0.0225  0.0194
  275POPC   C4A 3849   8.333   3.333   5.693  0.3599  0.1004 -0.0220
  275POPC   C1B 3850   8.693   3.515   4.816 -0.2056  0.0655  0.1559
  275POPC   C2B 3851   8.800   3.205   5.061 -0.1634 -0.2791 -0.2914
  275POPC   C3B 3852   8.968   3.151   5.512 -0.1895  0.1383 -0.0215
  275POPC   C4B 3853   8.802   3.334   5.923 -0.1179  0.0571 -0.3149
  276POPC   NC3 3854   0.973   4.102   4.225  0.0377 -0.2365 -0.2099
  276POPC   PO4 3855   0.726   3.818   4.197 -0.2103  0.0077  0.0973
  276POPC   GL1 3856   0.697   3.781   4.638  0.0441 -0.2205  0.1171
  276POPC   GL2 3857   0.950   4.059   4.815  0.1865 -0.1755 -0.1944
  276POPC   C1A 3858   0.636   3.531   4.967 -0.0498 -0.0331 -0.4299
  276POPC   D2A 3859   0.778   3.372   5.356 -0.0837 -0.1607 -0.0484
  276POPC   C3A 3860   0.659   3.235   5.635 -0.3019  0.0101 -0.1558
  276POPC   C4A 3861   0.788   3.303   6.051  0.1332  0.0839  0.1596
  276POPC   C1B 3862   0.668   4.077   5.260 -0.0524 -0.2522 -0.1144
  276POPC   C2B 3863   0.241   4.120   5.564  0.0363 -0.2685 -0.0937
  276POPC   C3B 3864  -0.037   3.801   5.704  0.2581 -0.0404 -0.0521
  276POPC   C4B 3865  -0.144   3.646   6.053 -0.4457 -0.1550 -0.3034
  277POPC   NC3 3866   3.837   1.454   4.830  0.0708  0.0605 -0.5186
  277POPC   PO4 3867   3.603   1.669   4.688 -0.1443 -0.0315 -0.1720
  277POPC   GL1 3868   3.610   1.722   5.195  0.0010  0.1327  0.1387
  277POPC   GL2 3869   3.642   1.448   5.264  0.1101  0.1421 -0.1255
  277POPC   C1A 3870   3.433   1.783   5.633 -0.1228  0.1125  0.0452
  277POPC   D2A 3871   3.201   2.029   5.939 -0.1730 -0.0393  0.0694
  277POPC   C3A 3872   2.745   1.939   5.959  0.1953 -0.1243 -0.1561
  277POPC   C4A 3873   2.370   2.110   6.216 -0.1003 -0.2978  0.1516
  277POPC   C1B 3874   3.647   1.327   5.612  0.0654 -0.2201 -0.0001
  277POPC   C2B 3875   3.666   1.360   5.949  0.2406  0.0656  0.1120
  277POPC   C3B 3876   3.556   1.376   6.448  0.1954  0.3016 -0.1223
  277POPC   C4B 3877   3.727   1.268   6.889  0.1543 -0.1179 -0.0229
  278POPC   NC3 3878   9.049   7.637   5.158  0.3675 -0.0507 -0.1993
  278POPC   PO4 3879   8.657   7.711   5.127  0.0520 -0.2041 -0.0944
  278POPC   GL1 3880   8.507   7.722   5.618  0.1851 -0.0224 -0.2488
  278POPC   GL2 3881   8.279   7.706   5.869  0.5121  0.0557  0.1641
  278POPC   C1A 3882   8.725   7.924   5.952  0.1000  0.0362 -0.0586
  278POPC   D2A 3883   9.001   8.009   6.313  0.0943  0.1517 -0.2465
  278POPC   C3A 3884   9.345   8.239   6.538  0.0053 -0.0007 -0.2953
  278POPC   C4A 3885   9.617   8.405   6.950 -0.0011  0.2576 -0.1405
  278POPC   C1B 3886   8.385   7.608   6.272 -0.0824 -0.1342  0.2640
  278POPC   C2B 3887   8.519   7.781   6.635 -0.1135 -0.1003  0.0669
  278POPC   C3B 3888   8.649   7.518   6.951 -0.0590 -0.1252  0.1820
  278POPC   C4B 3889   8.754   7.231   7.156  0.0961 -0.3407 -0.0118
  279POPC   NC3 3890   5.348   3.793   4.865 -0.3187  0.0039  0.2948
  279POPC   PO4 3891   5.514   3.410   4.795 -0.2619  0.0825  0.2750
  279POPC   GL1 3892   5.643   3.469   5.140  0.2816 -0.2079  0.0659
  279POPC   GL2 3893   5.375   3.425   5.345  0.0786 -0.1823  0.5045
  279POPC   C1A 3894   6.034   3.551   5.403 -0.2189  0.3407  0.3285
  279POPC   D2A 3895   6.087   3.553   5.845  0.0069  0.0563 -0.0268
  279POPC   C3A 3896   5.735   3.494   6.056 -0.0537 -0.3696 -0.0147
  279POPC   C4A 3897   5.329   3.490   5.924  0.1089  0.0755 -0.0388
  279POPC   C1B 3898   5.280   3.079   5.602 -0.1077  0.1937 -0.0696
  279POPC   C2B 3899   5.153   2.628   5.487  0.0744  0.2956  0.0731
  279POPC   C3B 3900   5.125   2.222   5.277 -0.2736 -0.2801 -0.0917
  279POPC   C4B 3901   4.786   1.840   5.293 -0.1941 -0.2748 -0.2918
  280POPC   NC3 3902   5.553   1.082   4.811 -0.2928 -0.5680  0.3051
  280POPC   PO4 3903   5.327   1.451   4.889 -0.1340 -0.1406  0.0714
  280POPC   GL1 3904   5.307   1.744   5.282 -0.0260 -0.0301 -0.0253
  280POPC   GL2 3905   5.500   1.554   5.493  0.3066  0.0547 -0.2282
  280POPC   C1A 3906   5.123   1.730   5.696 -0.1472 -0.0201 -0.2019
  280POPC   D2A 3907   5.023   1.879   6.155  0.0813 -0.1386 -0.0652
  280POPC   C3A 3908   4.974   2.303   6.470  0.3327 -0.0963  0.0515
  280POPC   C4A 3909   5.136   2.742   6.600 -0.1193 -0.1073 -0.2738
  280POPC   C1B 3910   5.586   1.742   5.932  0.1401 -0.1673  0.1987
  280POPC   C2B 3911   5.631   1.754   6.333  0.0622  0.1060  0.2188
  280POPC   C3B 3912   5.819   1.792   6.615 -0.1306  0.2066  0.2789
  280POPC   C4B 3913   6.057   1.633   6.839  0.0410 -0.0032 -0.1857
  281POPC   NC3 3914   5.247   6.508   5.590 -0.0976  0.0736  0.1161
  281POPC   PO4 3915   5.132   6.077   5.716 -0.0038 -0.1375 -0.0211
  281POPC   GL1 3916   5.255   5.754   5.961  0.2980 -0.2024  0.3084
  281POPC   GL2 3917   5.643   5.732   6.092 -0.0299  0.0632 -0.1871
  281POPC   C1A 3918   5.146   5.553   6.354 -0.2037  0.1501 -0.0216
  281POPC   D2A 3919   5.261   5.487   6.782 -0.2019  0.1771 -0.0598
  281POPC   C3A 3920   5.472   5.067   6.966  0.1804 -0.3546 -0.3655
  281POPC   C4A 3921   5.788   4.859   7.108  0.0589  0.0212 -0.0304
  281POPC   C1B 3922   5.663   5.517   6.441  0.2682  0.0166  0.2657
  281POPC   C2B 3923   5.809   5.439   6.836 -0.2975  0.1283  0.1437
  281POPC   C3B 3924   5.868   5.312   7.306 -0.2263  0.0830 -0.1734
  281POPC   C4B 3925   5.837   4.946   7.567 -0.0209  0.0703 -0.0855
  282POPC   NC3 3926   4.796   5.698   5.601  0.2784  0.0118 -0.2929
  282POPC   PO4 3927   4.392   5.929   5.620  0.2596 -0.0094  0.1544
  282POPC   GL1 3928   4.390   5.738   5.995 -0.0621  0.2959 -0.0043
  282POPC   GL2 3929   4.389   6.006   6.233  0.0603 -0.1000 -0.0116
  282POPC   C1A 3930   4.064   5.599   6.272  0.0456  0.2699 -0.4452
  282POPC   D2A 3931   3.794   5.306   6.448  0.1475 -0.2309 -0.0524
  282POPC   C3A 3932   3.897   5.214   6.873  0.2454 -0.0260 -0.0321
  282POPC   C4A 3933   3.583   5.001   7.273 -0.0487 -0.0219 -0.0230
  282POPC   C1B 3934   4.182   6.195   6.535  0.0714 -0.1068 -0.2328
  282POPC   C2B 3935   3.724   6.238   6.804  0.2347  0.2667  0.3111
  282POPC   C3B 3936   3.517   6.086   7.144  0.1748 -0.2068 -0.1251
  282POPC   C4B 3937   3.159   5.808   7.350 -0.4377  0.0364  0.2737
  283POPC   NC3 3938   2.048   6.077   5.238 -0.2593 -0.1826 -0.1203
  283POPC   PO4 3939   1.747   5.794   5.386 -0.1038 -0.3567  0.2815
  283POPC   GL1 3940   1.560   5.714   5.775 -0.0281 -0.3118 -0.0982
  283POPC   GL2 3941   1.318   5.556   5.655  0.1540 -0.1631 -0.3822
  283POPC   C1A 3942   1.591   5.605   6.231 -0.3630 -0.2777  0.0115
  283POPC   D2A 3943   1.545   5.225   6.400 -0.1309  0.3360  0.0424
  283POPC   C3A 3944   1.419   5.279   6.831  0.0860 -0.2623 -0.3605
  283POPC   C4A 3945   0.842   5.373   6.843 -0.2090  0.4191 -0.2742
  283POPC   C1B 3946   1.455   5.213   5.943 -0.1053 -0.0749 -0.3307
  283POPC   C2B 3947   1.530   4.772   6.188  0.1588 -0.0099  0.1491
  283POPC   C3B 3948   1.361   4.515   6.517 -0.1271  0.1398  0.0280
  283POPC   C4B 3949   0.954   4.333   6.523  0.2805  0.0730  0.2034
  284POPC   NC3 3950   1.015   9.681   4.544  0.0078 -0.1270  0.1094
  284POPC   PO4 3951   0.584   9.833   4.798 -0.2767  0.0326 -0.1240
  284POPC   GL1 3952   0.633   9.870   5.282  0.2033 -0.1429 -0.1201
  284POPC   GL2 3953   0.857  10.091   5.385 -0.0603 -0.1365  0.1916
  284POPC   C1A 3954   0.472   9.774   5.642 -0.3076 -0.1814 -0.2172
  284POPC   D2A 3955   0.206   9.516   5.913 -0.1389  0.2034 -0.1116
  284POPC   C3A 3956  -0.020   9.721   6.209  0.0309 -0.1385 -0.0847
  284POPC   C4A 3957  -0.159  10.111   6.199 -0.1825  0.2535 -0.2180
  284POPC   C1B 3958   0.741  10.147   5.825 -0.0891 -0.1839  0.2625
  284POPC   C2B 3959   0.881  10.194   6.235 -0.0553 -0.1513 -0.0183
  284POPC   C3B 3960   0.956  10.157   6.744  0.3262  0.0748  0.1268
  284POPC   C4B 3961   1.119  10.050   7.181 -0.3029 -0.4231 -0.1775
  285POPC   NC3 3962   6.361   2.871   4.487 -0.0240  0.0219  0.0272
  285POPC   PO4 3963   6.828   3.049   4.307  0.2241 -0.1565 -0.0205
  285POPC   GL1 3964   6.965   2.973   4.655 -0.0034 -0.2122  0.0981
  285POPC   GL2 3965   7.254   2.768   4.613  0.3660 -0.0370  0.0929
  285POPC   C1A 3966   7.175   3.096   5.025 -0.1200  0.1924 -0.0729
  285POPC   D2A 3967   7.509   3.140   5.279 -0.0925 -0.0589 -0.0505
  285POPC   C3A 3968   7.847   3.115   5.031  0.0062 -0.1358  0.1153
  285POPC   C4A 3969   8.304   3.190   4.921  0.0949  0.1442 -0.4055
  285POPC   C1B 3970   7.555   2.658   4.895  0.0894  0.1411  0.1053
  285POPC   C2B 3971   7.842   2.659   5.307  0.0290  0.0453  0.0189
  285POPC   C3B 3972   8.233   2.865   5.339  0.2005  0.2234 -0.1197
  285POPC   C4B 3973   8.547   2.956   5.515  0.0469  0.1879 -0.0459
  286POPC   NC3 3974   7.558   6.974   5.411 -0.1119 -0.1106 -0.0838
  286POPC   PO4 3975   7.225   6.759   5.677  0.1933 -0.0003  0.1226
  286POPC   GL1 3976   7.035   6.609   6.028  0.0713  0.1450 -0.0267
  286POPC   GL2 3977   7.165   6.868   6.266  0.3735 -0.2043 -0.2688
  286POPC   C1A 3978   6.781   6.473   6.265 -0.0974  0.2618 -0.0854
  286POPC   D2A 3979   6.443   6.581   6.423  0.1331  0.2219 -0.0458
  286POPC   C3A 3980   6.181   6.446   6.686  0.1085 -0.0356  0.1667
  286POPC   C4A 3981   5.805   6.333   6.826  0.0259 -0.0486 -0.3510
  286POPC   C1B 3982   7.224   6.558   6.571 -0.1058 -0.2954 -0.0699
  286POPC   C2B 3983   7.298   6.198   6.841 -0.0492 -0.0584 -0.0425
  286POPC   C3B 3984   7.302   5.895   7.099 -0.4003  0.0292  0.2280
  286POPC   C4B 3985   7.233   5.740   7.591  0.1169 -0.0413  0.0083
  287POPC   NC3 3986   4.264   9.964   5.385  0.1071 -0.0240 -0.0490
  287POPC   PO4 3987   4.417  10.296   5.149  0.0599 -0.1195 -0.1467
  287POPC   GL1 3988   4.262  10.428   5.557  0.2992 -0.0656 -0.2125
  287POPC   GL2 3989   4.298  10.629   5.672 -0.1955  0.1085 -0.2019
  287POPC   C1A 3990   4.006  10.373   5.961  0.1787 -0.0951  0.0237
  287POPC   D2A 3991   4.140  10.302   6.422 -0.1176  0.0011  0.0140
  287POPC   C3A 3992   3.731  10.114   6.481  0.0848  0.0669 -0.1880
  287POPC   C4A 3993   3.526  10.124   6.127  0.2395 -0.1716  0.0653
  287POPC   C1B 3994   4.070  11.035   5.758  0.0966  0.2033 -0.0496
  287POPC   C2B 3995   3.883  11.079   6.177  0.3521  0.0497 -0.0633
  287POPC   C3B 3996   3.630  11.069   6.602  0.0737  0.3226 -0.0207
  287POPC   C4B 3997   3.235  10.962   6.828  0.2977 -0.1154 -0.1304
  288POPC   NC3 3998   5.063   3.336   4.943 -0.0869 -0.0848  0.2557
  288POPC   PO4 3999   4.865   3.750   4.812  0.3247  0.3775  0.0216
  288POPC   GL1 4000   4.994   3.789   5.250 -0.1040  0.3081 -0.1449
  288POPC   GL2 4001   4.878   3.862   5.569 -0.0202  0.3272  0.2339
  288POPC   C1A 4002   5.369   3.831   5.537 -0.0867 -0.4000 -0.1112
  288POPC   D2A 4003   5.700   3.909   5.722 -0.0441  0.4504 -0.0472
  288POPC   C3A 4004   5.653   3.966   6.122 -0.0421 -0.1439 -0.0765
  288POPC   C4A 4005   5.328   3.742   6.366 -0.1138 -0.0545  0.0915
  288POPC   C1B 4006   4.745   3.890   5.890  0.4891 -0.1077  0.0289
  288POPC   C2B 4007   4.467   3.843   6.332 -0.1199 -0.0546  0.3282
  288POPC   C3B 4008   4.213   3.725   6.621  0.1691 -0.2043  0.1772
  288POPC   C4B 4009   4.167   3.673   7.066 -0.1339 -0.1509  0.2115
  289POPC   NC3 4010   7.002   3.923   4.127  0.0796  0.1380 -0.2416
  289POPC   PO4 4011   7.215   4.126   4.479 -0.1212 -0.0034  0.0424
  289POPC   GL1 4012   7.199   4.091   4.909 -0.0495 -0.0201  0.2639
  289POPC   GL2 4013   6.893   4.178   5.092 -0.3235  0.0089  0.2621
  289POPC   C1A 4014   7.600   4.063   5.089 -0.0426 -0.2350  0.1644
  289POPC   D2A 4015   7.866   4.173   5.300 -0.1969 -0.1049  0.2498
  289POPC   C3A 4016   7.754   4.268   5.731  0.0523 -0.1743 -0.1928
  289POPC   C4A 4017   7.629   4.474   6.038  0.0979 -0.1345  0.0860
  289POPC   C1B 4018   6.889   3.956   5.437  0.2285  0.0117  0.2654
  289POPC   C2B 4019   7.009   3.811   5.833 -0.1818 -0.0531 -0.0484
  289POPC   C3B 4020   7.204   3.473   5.986  0.2093 -0.0918 -0.4003
  289POPC   C4B 4021   7.301   3.059   5.790 -0.0144  0.1057  0.0008
  290POPC   NC3 4022   9.892   4.529   3.931  0.2612 -0.2259 -0.1392
  290POPC   PO4 4023   9.788   4.844   4.189  0.0772  0.0728  0.0604
  290POPC   GL1 4024   9.880   4.757   4.628  0.1621 -0.3029  0.0534
  290POPC   GL2 4025  10.245   4.698   4.762  0.2121 -0.1270 -0.0023
  290POPC   C1A 4026   9.849   4.779   5.071 -0.3130 -0.0010 -0.0261
  290POPC   D2A 4027   9.797   4.818   5.511 -0.1078  0.3771 -0.1323
  290POPC   C3A 4028   9.590   4.609   5.723 -0.1206  0.0439  0.0251
  290POPC   C4A 4029   9.565   4.315   6.101  0.2653  0.1498  0.0154
  290POPC   C1B 4030  10.400   4.269   4.724 -0.1272  0.1105  0.0186
  290POPC   C2B 4031  10.430   3.913   4.947  0.2156  0.0867  0.0112
  290POPC   C3B 4032  10.518   3.662   5.374  0.2300  0.1617  0.1504
  290POPC   C4B 4033  10.370   3.313   5.718  0.3259  0.0007  0.0076
  291POPC   NC3 4034   5.439   4.399   4.331 -0.2187 -0.0379 -0.0394
  291POPC   PO4 4035   5.599   4.178   4.671  0.1263 -0.1395  0.1413
  291POPC   GL1 4036   5.696   4.253   4.998 -0.3917  0.1308 -0.0283
  291POPC   GL2 4037   5.503   4.255   5.189  0.3305 -0.0731 -0.0840
  291POPC   C1A 4038   5.988   3.986   5.237 -0.1197  0.1454  0.1684
  291POPC   D2A 4039   6.391   4.015   5.433 -0.1783  0.0288 -0.1537
  291POPC   C3A 4040   6.550   4.012   5.825 -0.1887  0.0543 -0.0110
  291POPC   C4A 4041   6.351   3.958   6.306 -0.1906 -0.2413 -0.1099
  291POPC   C1B 4042   5.366   4.330   5.637 -0.0526 -0.0666 -0.2110
  291POPC   C2B 4043   5.242   4.220   6.048 -0.0645  0.1122 -0.1024
  291POPC   C3B 4044   4.969   4.079   6.315 -0.3352  0.1138 -0.1578
  291POPC   C4B 4045   4.869   3.684   6.589 -0.1706  0.3407  0.0643
  292POPC   NC3 4046   1.829   5.093   4.696 -0.0604  0.2945  0.4261
  292POPC   PO4 4047   1.551   5.009   5.088  0.3362 -0.0318 -0.0396
  292POPC   GL1 4048   1.210   5.103   5.487 -0.2836 -0.0582 -0.0426
  292POPC   GL2 4049   0.876   4.942   5.507 -0.4336  0.1072 -0.2442
  292POPC   C1A 4050   0.931   5.108   5.959  0.0066  0.0044  0.4359
  292POPC   D2A 4051   0.490   4.999   5.838 -0.1129 -0.0035  0.2434
  292POPC   C3A 4052   0.299   4.865   6.135  0.2650  0.0417 -0.2588
  292POPC   C4A 4053   0.429   4.528   6.449 -0.0518  0.1315 -0.4827
  292POPC   C1B 4054   1.141   4.698   5.747 -0.0737  0.0408  0.0739
  292POPC   C2B 4055   1.000   4.621   6.126 -0.1116 -0.1877  0.0247
  292POPC   C3B 4056   1.042   5.013   6.500 -0.3898  0.3726  0.1467
  292POPC   C4B 4057   1.239   4.864   6.903 -0.0224  0.2350  0.1112
  293POPC   NC3 4058   6.531   7.236   5.667 -0.2078 -0.1453 -0.1504
  293POPC   PO4 4059   6.285   7.699   5.653  0.1592 -0.3911 -0.0177
  293POPC   GL1 4060   6.543   7.664   6.027 -0.2198  0.1763  0.2440
  293POPC   GL2 4061   6.691   7.932   6.049 -0.1062  0.2447  0.0175
  293POPC   C1A 4062   6.631   7.681   6.515 -0.0601 -0.0294  0.0491
  293POPC   D2A 4063   6.466   7.704   7.011  0.1881 -0.1988  0.0181
  293POPC   C3A 4064   6.822   7.924   7.306  0.0328 -0.1153 -0.0132
  293POPC   C4A 4065   6.875   8.319   7.412 -0.0194 -0.0816  0.0325
  293POPC   C1B 4066   6.603   8.231   6.349  0.0395  0.2053 -0.0232
  293POPC   C2B 4067   6.771   8.614   6.547  0.3955 -0.2137  0.1097
  293POPC   C3B 4068   6.723   8.723   6.985 -0.1580 -0.0187  0.1404
  293POPC   C4B 4069   6.400   8.609   7.237  0.0562  0.4052  0.0326
  294POPC   NC3 4070   3.778   8.341   5.092 -0.0886 -0.1170  0.1147
  294POPC   PO4 4071   3.620   8.728   5.076  0.2080  0.0166  0.1733
  294POPC   GL1 4072   3.605   8.646   5.498 -0.1011 -0.2254  0.0195
  294POPC   GL2 4073   3.337   8.373   5.473 -0.2331 -0.0569 -0.0087
  294POPC   C1A 4074   3.303   8.872   5.710 -0.0513 -0.1330 -0.0252
  294POPC   D2A 4075   3.157   8.866   6.151  0.2069  0.1489  0.1837
  294POPC   C3A 4076   3.079   9.230   6.452  0.1587 -0.5591 -0.0411
  294POPC   C4A 4077   2.985   9.529   6.693 -0.1492  0.2141 -0.2274
  294POPC   C1B 4078   3.140   8.358   5.930 -0.1118  0.2810  0.0326
  294POPC   C2B 4079   3.146   8.323   6.338 -0.2236  0.0417  0.5927
  294POPC   C3B 4080   3.300   8.375   6.624  0.0057  0.3052 -0.0202
  294POPC   C4B 4081   3.754   8.417   6.797 -0.2444 -0.0121  0.0980
  295POPC   NC3 4082   7.838   7.454   5.637  0.0906 -0.1507 -0.5077
  295POPC   PO4 4083   7.481   7.759   5.699 -0.1886  0.0194 -0.4715
  295POPC   GL1 4084   7.361   7.656   6.061 -0.2129 -0.3704 -0.1958
  295POPC   GL2 4085   7.047   7.587   6.262 -0.0089 -0.1423 -0.1552
  295POPC   C1A 4086   7.436   7.895   6.518 -0.0570 -0.2256  0.1619
  295POPC   D2A 4087   7.669   8.191   6.933  0.0025  0.3017 -0.2140
  295POPC   C3A 4088   8.084   7.995   6.953  0.2152 -0.2837  0.0092
  295POPC   C4A 4089   8.276   7.995   7.241  0.0498  0.1577  0.3764
  295POPC   C1B 4090   7.033   7.334   6.626  0.1135 -0.3290 -0.1555
  295POPC   C2B 4091   6.974   7.337   7.012  0.2256  0.2628 -0.1042
  295POPC   C3B 4092   6.772   7.373   7.349  0.0415  0.0861 -0.0021
  295POPC   C4B 4093   6.593   7.599   7.635 -0.0475 -0.2663 -0.0635
  296POPC   NC3 4094   9.864   5.903   5.003  0.1091 -0.2032 -0.0960
  296POPC   PO4 4095   9.378   5.957   4.978  0.0166 -0.0534  0.1341
  296POPC   GL1 4096   9.539   5.642   5.306  0.0128 -0.0346  0.0111
  296POPC   GL2 4097   9.289   5.468   5.188  0.0184  0.0112 -0.1751
  296POPC   C1A 4098   9.500   5.442   5.686 -0.2841 -0.0127  0.0858
  296POPC   D2A 4099   9.709   5.161   6.025 -0.2144 -0.0573  0.1334
  296POPC   C3A 4100  10.030   4.784   6.000 -0.3255  0.0758 -0.3685
  296POPC   C4A 4101  10.045   4.549   6.260 -0.2710  0.0866  0.0029
  296POPC   C1B 4102   9.387   5.074   5.366 -0.2333 -0.2821  0.0594
  296POPC   C2B 4103   9.141   4.696   5.420 -0.1172  0.1309 -0.0605
  296POPC   C3B 4104   8.961   4.613   5.833 -0.3957 -0.0078 -0.0721
  296POPC   C4B 4105   8.895   4.685   6.216  0.1325 -0.2219  0.0469
  297POPC   NC3 4106   2.630   3.597   4.640 -0.3931  0.0550  0.2000
  297POPC   PO4 4107   2.632   3.480   5.066  0.2560 -0.1181 -0.2301
  297POPC   GL1 4108   2.831   3.405   5.430  0.0546 -0.2024 -0.0612
  297POPC   GL2 4109   2.550   3.354   5.635 -0.0780 -0.2582  0.1253
  297POPC   C1A 4110   2.917   3.537   5.822 -0.1694  0.1491 -0.2019
  297POPC   D2A 4111   2.610   3.687   6.159  0.2777  0.0570 -0.1348
  297POPC   C3A 4112   2.671   3.599   6.523 -0.0169 -0.1105 -0.3478
  297POPC   C4A 4113   2.638   3.791   6.984  0.1775 -0.1502  0.1185
  297POPC   C1B 4114   2.488   3.258   6.030  0.2884 -0.0186  0.0543
  297POPC   C2B 4115   2.234   3.285   6.395  0.0856  0.0847 -0.4430
  297POPC   C3B 4116   2.143   2.948   6.661  0.0618  0.2624  0.1154
  297POPC   C4B 4117   2.335   2.513   6.552  0.0842  0.1455  0.0932
  298POPC   NC3 4118   6.624   9.149   5.811 -0.0282  0.1774 -0.2007
  298POPC   PO4 4119   6.243   9.104   5.680  0.0565 -0.4966  0.2216
  298POPC   GL1 4120   6.355   9.072   6.207  0.2267  0.1616 -0.2279
  298POPC   GL2 4121   6.696   9.238   6.342  0.0217  0.0868 -0.0572
  298POPC   C1A 4122   6.366   8.943   6.564  0.1504  0.0629 -0.1515
  298POPC   D2A 4123   6.202   9.053   6.991 -0.1076  0.0487 -0.0143
  298POPC   C3A 4124   5.662   9.187   6.937 -0.0341  0.1804 -0.2516
  298POPC   C4A 4125   5.306   8.997   6.852 -0.1474  0.0039 -0.0715
  298POPC   C1B 4126   6.691   9.292   6.830 -0.4367 -0.0507 -0.0018
  298POPC   C2B 4127   6.725   9.704   7.117  0.0469 -0.0118  0.2756
  298POPC   C3B 4128   6.833  10.061   6.973 -0.4310 -0.4819  0.2436
  298POPC   C4B 4129   6.674  10.530   7.022 -0.0761 -0.1135 -0.0271
  299POPC   NC3 4130   6.998   7.591   5.692  0.2376 -0.3498 -0.0544
  299POPC   PO4 4131   7.026   7.271   5.894  0.2202  0.1807 -0.1588
  299POPC   GL1 4132   6.666   7.102   6.187 -0.1158  0.1180  0.1707
  299POPC   GL2 4133   6.387   7.260   6.275  0.0454  0.3200 -0.1460
  299POPC   C1A 4134   6.743   6.965   6.551  0.0221 -0.1149  0.0368
  299POPC   D2A 4135   6.840   6.645   6.855  0.2915 -0.0130  0.3637
  299POPC   C3A 4136   6.828   6.156   6.685 -0.1146 -0.3590 -0.0133
  299POPC   C4A 4137   6.869   5.789   6.984 -0.0423 -0.2833 -0.0843
  299POPC   C1B 4138   6.406   7.308   6.754 -0.0144  0.0553  0.0106
  299POPC   C2B 4139   6.344   7.275   7.192 -0.0639 -0.1446 -0.1297
  299POPC   C3B 4140   6.146   7.585   7.507  0.1267  0.1115  0.1218
  299POPC   C4B 4141   5.903   7.915   7.540 -0.1887 -0.1101  0.3517
  300POPC   NC3 4142   4.521   6.930   5.794  0.1308  0.0406  0.0682
  300POPC   PO4 4143   4.885   7.057   5.681  0.0405 -0.1123 -0.3411
  300POPC   GL1 4144   4.869   7.152   6.077  0.4364 -0.1093  0.1396
  300POPC   GL2 4145   5.152   7.111   6.294  0.1002 -0.3266 -0.0855
  300POPC   C1A 4146   4.608   7.056   6.452  0.0062  0.0043 -0.3863
  300POPC   D2A 4147   4.723   7.012   6.833 -0.2721 -0.0716 -0.1380
  300POPC   C3A 4148   5.101   7.044   6.936  0.0752  0.0239  0.2732
  300POPC   C4A 4149   5.420   7.006   7.215 -0.1724  0.0201 -0.2223
  300POPC   C1B 4150   5.021   6.737   6.556  0.3423 -0.0430  0.2142
  300POPC   C2B 4151   5.142   6.473   6.864  0.0929  0.1239  0.3674
  300POPC   C3B 4152   5.137   6.307   7.200  0.0217  0.0257  0.1099
  300POPC   C4B 4153   5.536   5.984   7.363 -0.5219 -0.0259 -0.2638
  301POPC   NC3 4154   8.736   9.043   5.526 -0.0298 -0.2828  0.1475
  301POPC   PO4 4155   8.550   9.320   5.650  0.0933 -0.0951 -0.1112
  301POPC   GL1 4156   8.483   9.297   6.058 -0.0380 -0.2516  0.0475
  301POPC   GL2 4157   8.156   9.464   6.033  0.0357 -0.4214  0.0537
  301POPC   C1A 4158   8.562   9.587   6.364 -0.0245 -0.1448 -0.1677
  301POPC   D2A 4159   8.501  10.034   6.462  0.2494 -0.0924  0.1820
  301POPC   C3A 4160   8.636  10.242   6.820  0.3232 -0.0971 -0.0553
  301POPC   C4A 4161   8.873  10.349   7.091  0.2248  0.0352  0.0059
  301POPC   C1B 4162   8.065   9.869   6.238  0.0448 -0.3389  0.2224
  301POPC   C2B 4163   8.066  10.398   6.205 -0.3545 -0.0100 -0.0251
  301POPC   C3B 4164   7.961  10.674   5.963 -0.1385  0.0403  0.0024
  301POPC   C4B 4165   7.789  10.962   5.693 -0.1362  0.0275  0.1323
  302POPC   NC3 4166   8.397   7.345   4.913 -0.0104 -0.1275  0.0314
  302POPC   PO4 4167   7.869   7.239   5.184 -0.1880 -0.1767  0.2164
  302POPC   GL1 4168   8.284   7.298   5.505  0.1089  0.0163  0.0222
  302POPC   GL2 4169   8.735   7.253   5.507  0.2926 -0.0627  0.0804
  302POPC   C1A 4170   8.417   7.269   5.932  0.4403 -0.0621 -0.0189
  302POPC   D2A 4171   8.340   7.123   6.392  0.4140 -0.0979  0.1639
  302POPC   C3A 4172   7.913   7.236   6.576  0.4156  0.0433 -0.2948
  302POPC   C4A 4173   7.490   7.289   6.437  0.1270 -0.1662 -0.1239
  302POPC   C1B 4174   8.955   7.416   5.897 -0.0965 -0.1531  0.1187
  302POPC   C2B 4175   8.934   7.524   6.383 -0.0329 -0.2745 -0.3168
  302POPC   C3B 4176   9.192   7.689   6.668  0.4503 -0.0735  0.0336
  302POPC   C4B 4177   9.430   7.866   6.883 -0.0383  0.2779 -0.2328
  303POPC   NC3 4178   6.024   8.233   5.677  0.2241 -0.0172  0.0062
  303POPC   PO4 4179   5.647   8.692   5.689  0.1335 -0.0314 -0.0235
  303POPC   GL1 4180   5.533   8.583   6.072  0.0613 -0.0479  0.0596
  303POPC   GL2 4181   5.676   8.295   6.108 -0.3921 -0.2227 -0.0809
  303POPC   C1A 4182   5.479   8.461   6.582 -0.0806 -0.1210  0.1405
  303POPC   D2A 4183   5.381   8.491   6.999  0.0617  0.0635 -0.1086
  303POPC   C3A 4184   5.465   8.807   7.264  0.1856 -0.1849  0.0967
  303POPC   C4A 4185   5.535   9.143   7.581  0.1756 -0.1654  0.0774
  303POPC   C1B 4186   5.941   8.335   6.443 -0.0928 -0.0985 -0.0047
  303POPC   C2B 4187   6.260   8.391   6.748 -0.2372  0.0638 -0.3471
  303POPC   C3B 4188   6.672   8.162   6.898  0.0033 -0.1277 -0.0364
  303POPC   C4B 4189   7.131   8.278   7.002  0.0489  0.0006  0.4195
  304POPC   NC3 4190   0.065   9.925   4.853 -0.1761  0.1114 -0.2549
  304POPC   PO4 4191  -0.158   9.548   4.930 -0.2222  0.0637  0.3509
  304POPC   GL1 4192  -0.129   9.576   5.417  0.0024  0.3900 -0.2048
  304POPC   GL2 4193   0.031   9.759   5.470 -0.2463 -0.2764 -0.0181
  304POPC   C1A 4194  -0.378   9.433   5.897 -0.1148  0.0825 -0.0715
  304POPC   D2A 4195  -0.258   9.196   6.322  0.1259 -0.2608 -0.3889
  304POPC   C3A 4196  -0.156   9.537   6.630  0.1204 -0.1414  0.0146
  304POPC   C4A 4197  -0.111   9.974   6.777 -0.1783  0.1039 -0.0787
  304POPC   C1B 4198  -0.224   9.898   5.710 -0.0694  0.0611 -0.0627
  304POPC   C2B 4199  -0.569   9.961   6.002  0.2312 -0.1932 -0.1721
  304POPC   C3B 4200  -0.953  10.131   6.131  0.1135  0.1351  0.2068
  304POPC   C4B 4201  -1.341  10.144   6.054  0.0192  0.2932 -0.1150
  305POPC   NC3 4202   7.627   9.034   5.607  0.0026  0.0947  0.0795
  305POPC   PO4 4203   7.442   8.718   5.838  0.3430 -0.2045  0.0788
  305POPC   GL1 4204   7.531   8.876   6.126 -0.0260  0.0182 -0.2204
  305POPC   GL2 4205   7.691   9.202   6.079 -0.2328  0.3326  0.0273
  305POPC   C1A 4206   7.616   9.111   6.564  0.1738 -0.2798 -0.0906
  305POPC   D2A 4207   7.642   9.174   7.048 -0.1737  0.0147  0.0660
  305POPC   C3A 4208   7.245   9.254   7.238 -0.2054 -0.0171  0.2200
  305POPC   C4A 4209   6.855   9.154   7.300 -0.1435  0.1229 -0.0303
  305POPC   C1B 4210   8.072   9.060   6.286 -0.0928 -0.0179  0.1963
  305POPC   C2B 4211   8.496   9.092   6.474 -0.1110  0.1605 -0.0146
  305POPC   C3B 4212   8.940   9.250   6.587  0.2184 -0.0572 -0.1511
  305POPC   C4B 4213   9.336   9.152   6.705  0.0063  0.0379  0.2367
  306POPC   NC3 4214   8.918   5.756   4.969  0.2617  0.1482 -0.0146
  306POPC   PO4 4215   8.885   6.139   5.175  0.1241  0.0585  0.1532
  306POPC   GL1 4216   9.070   5.965   5.397 -0.2067  0.2502  0.0722
  306POPC   GL2 4217   8.776   5.959   5.691 -0.0332 -0.1042 -0.0352
  306POPC   C1A 4218   9.299   5.921   5.770 -0.0617 -0.0584 -0.1256
  306POPC   D2A 4219   9.257   5.693   6.095 -0.0334  0.0975  0.3663
  306POPC   C3A 4220   9.201   5.233   6.076 -0.1411 -0.1661 -0.2461
  306POPC   C4A 4221   9.361   4.810   6.092 -0.0372  0.2176  0.1778
  306POPC   C1B 4222   8.947   6.118   6.156 -0.2892  0.0976 -0.0953
  306POPC   C2B 4223   9.267   6.344   6.235  0.0303 -0.0358  0.0612
  306POPC   C3B 4224   9.403   6.757   6.350 -0.1409  0.2619  0.1025
  306POPC   C4B 4225   9.399   6.590   6.717  0.0999  0.0846  0.1519
  307POPC   NC3 4226   6.479   0.075   5.220  0.1369  0.1445  0.0538
  307POPC   PO4 4227   6.073   0.071   5.135  0.1802 -0.1982 -0.2224
  307POPC   GL1 4228   6.229   0.208   5.615  0.1574  0.2110 -0.5503
  307POPC   GL2 4229   6.567   0.189   5.695  0.1127 -0.0240 -0.5277
  307POPC   C1A 4230   6.162   0.427   6.058 -0.0653 -0.0854  0.0824
  307POPC   D2A 4231   6.093   0.828   6.008  0.0395  0.0752  0.1978
  307POPC   C3A 4232   5.787   0.818   6.315  0.0513  0.0580 -0.0553
  307POPC   C4A 4233   5.716   0.820   6.725  0.0839 -0.1720  0.0602
  307POPC   C1B 4234   6.727  -0.035   6.028  0.3851 -0.1701  0.2856
  307POPC   C2B 4235   6.771   0.114   6.462  0.0904  0.0740 -0.2379
  307POPC   C3B 4236   6.680   0.561   6.468  0.0034 -0.1977  0.3667
  307POPC   C4B 4237   6.517   0.980   6.359 -0.3876 -0.1992 -0.0565
  308POPC   NC3 4238   4.363   3.628   4.837  0.1073  0.0745  0.1883
  308POPC   PO4 4239   4.577   3.353   5.014 -0.2759 -0.3352  0.1020
  308POPC   GL1 4240   4.504   3.412   5.429  0.4327  0.2513  0.1502
  308POPC   GL2 4241   4.823   3.372   5.435  0.0317  0.0514 -0.1708
  308POPC   C1A 4242   4.252   3.038   5.752  0.3540  0.0945 -0.0763
  308POPC   D2A 4243   4.152   2.842   6.188 -0.0989  0.0599 -0.0592
  308POPC   C3A 4244   4.171   2.802   6.615 -0.2357 -0.0993  0.1304
  308POPC   C4A 4245   4.338   2.601   6.966  0.3412  0.2677 -0.4388
  308POPC   C1B 4246   4.835   3.395   5.832 -0.1720 -0.0045  0.1019
  308POPC   C2B 4247   4.838   3.348   6.275  0.0867  0.0074  0.2113
  308POPC   C3B 4248   5.035   3.254   6.706  0.1500 -0.1347 -0.0121
  308POPC   C4B 4249   4.760   2.843   6.896  0.1837 -0.0723  0.0911
  309POPC   NC3 4250   2.278   4.254   5.285 -0.0061  0.2391 -0.2089
  309POPC   PO4 4251   2.453   3.902   5.391  0.0728 -0.1966  0.0393
  309POPC   GL1 4252   2.432   3.923   5.708  0.0829  0.1295  0.0963
  309POPC   GL2 4253   2.323   4.222   5.795 -0.1625 -0.1456  0.3759
  309POPC   C1A 4254   2.158   3.620   5.974 -0.2530 -0.1505 -0.0583
  309POPC   D2A 4255   2.049   3.803   6.376  0.0071  0.1314  0.0346
  309POPC   C3A 4256   2.188   3.694   6.743 -0.2798  0.1169  0.0478
  309POPC   C4A 4257   2.234   3.548   7.156 -0.4901  0.2882  0.0489
  309POPC   C1B 4258   2.300   4.271   6.235  0.5071 -0.0074  0.0248
  309POPC   C2B 4259   2.252   4.194   6.716  0.2902  0.0373  0.2354
  309POPC   C3B 4260   2.182   4.068   7.094  0.1686  0.1800  0.0288
  309POPC   C4B 4261   1.875   4.256   7.481 -0.1232  0.6283 -0.2123
  310POPC   NC3 4262   1.703   0.686   4.200  0.2051  0.3594  0.1516
  310POPC   PO4 4263   1.579   0.988   4.590 -0.4198  0.1109  0.1005
  310POPC   GL1 4264   1.751   0.996   5.053 -0.1479  0.0345  0.1381
  310POPC   GL2 4265   1.726   1.361   4.911  0.2593 -0.0501 -0.1390
  310POPC   C1A 4266   1.546   1.073   5.405  0.3696 -0.2444  0.0564
  310POPC   D2A 4267   1.661   1.158   5.819 -0.5796  0.2777  0.0178
  310POPC   C3A 4268   1.588   1.554   5.871  0.0253  0.0343 -0.2921
  310POPC   C4A 4269   1.571   1.800   6.327 -0.3305 -0.2681 -0.1354
  310POPC   C1B 4270   1.843   1.585   5.199 -0.0269  0.1355  0.0412
  310POPC   C2B 4271   1.641   1.723   5.404  0.0373  0.2579 -0.2077
  310POPC   C3B 4272   1.525   2.045   5.543  0.0282 -0.0397  0.2927
  310POPC   C4B 4273   1.345   2.013   5.914  0.0615 -0.1187 -0.0938
  311POPC   NC3 4274   4.757   5.185   4.903  0.2014  0.1169 -0.0382
  311POPC   PO4 4275   4.263   5.001   4.936 -0.0795  0.0654  0.1410
  311POPC   GL1 4276   4.590   4.947   5.282 -0.0883 -0.3617  0.1682
  311POPC   GL2 4277   4.475   4.678   5.450  0.1000 -0.0184 -0.1074
  311POPC   C1A 4278   4.612   5.095   5.720  0.1271  0.2078  0.1643
  311POPC   D2A 4279   4.876   5.112   6.142 -0.2282  0.2080  0.2300
  311POPC   C3A 4280   4.734   5.370   6.432 -0.0273  0.0151  0.0309
  311POPC   C4A 4281   4.755   5.563   6.797  0.0313  0.0696 -0.0041
  311POPC   C1B 4282   4.276   4.644   5.784 -0.2744  0.1693 -0.0205
  311POPC   C2B 4283   4.100   4.836   6.228 -0.0560  0.1485 -0.0385
  311POPC   C3B 4284   4.008   4.792   6.658  0.2465  0.0241 -0.0245
  311POPC   C4B 4285   3.605   4.570   6.816  0.0755  0.1304 -0.1491
  312POPC   NC3 4286   5.742   9.009   5.334  0.0577 -0.0862 -0.4931
  312POPC   PO4 4287   5.434   9.324   5.311  0.0207  0.3154 -0.2912
  312POPC   GL1 4288   5.461   9.419   5.778  0.1158  0.1474  0.1957
  312POPC   GL2 4289   5.545   9.720   5.754  0.0991 -0.0358 -0.1538
  312POPC   C1A 4290   5.310   9.417   6.214 -0.4352 -0.1143 -0.0909
  312POPC   D2A 4291   5.323   9.447   6.616 -0.3718  0.0374 -0.0468
  312POPC   C3A 4292   5.652   9.547   6.631 -0.3061 -0.1553  0.0650
  312POPC   C4A 4293   5.991   9.817   6.745  0.0055 -0.1527  0.2363
  312POPC   C1B 4294   5.285   9.958   6.087  0.1243 -0.2067  0.2996
  312POPC   C2B 4295   4.935  10.281   6.268 -0.2574 -0.0996  0.2441
  312POPC   C3B 4296   4.574  10.408   6.568  0.0429  0.0323 -0.2116
  312POPC   C4B 4297   4.461  10.336   6.946  0.0460 -0.1169 -0.0328
  313POPC   NC3 4298   7.045   8.506   5.286 -0.3423 -0.2121  0.0363
  313POPC   PO4 4299   7.095   8.900   5.486 -0.2008 -0.1986  0.0526
  313POPC   GL1 4300   7.225   9.191   5.842 -0.5952 -0.1049  0.0237
  313POPC   GL2 4301   7.058   9.029   6.061 -0.0772 -0.2061  0.1159
  313POPC   C1A 4302   7.187   9.437   6.346 -0.2748 -0.1056 -0.0744
  313POPC   D2A 4303   7.105   9.549   6.808  0.1413 -0.2235  0.1676
  313POPC   C3A 4304   7.525   9.631   6.930 -0.0808 -0.0109  0.0765
  313POPC   C4A 4305   7.896   9.619   7.166  0.3334  0.1007  0.0008
  313POPC   C1B 4306   7.074   9.022   6.545 -0.0178  0.1778 -0.1685
  313POPC   C2B 4307   7.219   8.840   6.781 -0.0769  0.1309 -0.1546
  313POPC   C3B 4308   7.218   8.738   7.196  0.1556  0.1927 -0.0723
  313POPC   C4B 4309   7.551   8.486   7.339 -0.4645  0.0267 -0.0929
  314POPC   NC3 4310   9.127   8.148   5.097  0.3382  0.1460  0.0088
  314POPC   PO4 4311   9.449   7.881   4.878 -0.3077 -0.0106  0.3423
  314POPC   GL1 4312   9.571   7.675   5.290 -0.0113 -0.1112  0.1331
  314POPC   GL2 4313   9.899   7.550   5.291 -0.0028 -0.2220  0.2114
  314POPC   C1A 4314   9.520   7.561   5.702  0.0996  0.1901 -0.0679
  314POPC   D2A 4315   9.797   7.292   5.865 -0.2166  0.1009  0.1189
  314POPC   C3A 4316   9.822   7.112   6.288 -0.1404 -0.1718  0.0381
  314POPC   C4A 4317   9.768   6.911   6.651 -0.3099  0.0566  0.2339
  314POPC   C1B 4318  10.017   7.704   5.800 -0.0786  0.1747  0.1807
  314POPC   C2B 4319  10.170   7.562   6.158  0.0568 -0.1573  0.0989
  314POPC   C3B 4320  10.009   7.409   6.631  0.0001 -0.3600 -0.0738
  314POPC   C4B 4321  10.157   7.430   7.082 -0.1302  0.0524 -0.2553
  315POPC   NC3 4322   3.061   2.618   4.345 -0.0610  0.1792  0.0092
  315POPC   PO4 4323   2.899   2.822   4.697 -0.2115  0.0723 -0.2533
  315POPC   GL1 4324   2.659   2.915   5.179 -0.1722 -0.3026 -0.0279
  315POPC   GL2 4325   2.459   3.037   5.288 -0.1571 -0.0972 -0.3481
  315POPC   C1A 4326   2.993   2.920   5.548 -0.3085 -0.3140 -0.1455
  315POPC   D2A 4327   3.242   2.641   5.607  0.2398  0.0205 -0.4139
  315POPC   C3A 4328   3.250   2.224   5.359 -0.2654 -0.2296 -0.0655
  315POPC   C4A 4329   2.963   1.953   5.522  0.0893 -0.0695  0.0360
  315POPC   C1B 4330   2.571   2.844   5.737 -0.1487  0.0808  0.2793
  315POPC   C2B 4331   2.860   2.974   6.044  0.2849 -0.2430 -0.1291
  315POPC   C3B 4332   2.637   2.970   6.483 -0.5488 -0.0872  0.1290
  315POPC   C4B 4333   2.988   2.882   6.731  0.3038 -0.3843  0.0228
  316POPC   NC3 4334   8.025   6.471   4.560 -0.3008 -0.0193  0.3130
  316POPC   PO4 4335   7.847   6.137   4.851  0.0174  0.1547  0.0209
  316POPC   GL1 4336   7.751   5.829   5.121  0.5020 -0.0587 -0.0241
  316POPC   GL2 4337   8.115   5.653   5.199 -0.0272  0.0832  0.1102
  316POPC   C1A 4338   7.615   5.672   5.539  0.1049 -0.3043  0.1280
  316POPC   D2A 4339   7.993   5.519   5.867 -0.2465 -0.3238 -0.1256
  316POPC   C3A 4340   7.993   5.170   6.299  0.0158  0.0622 -0.0435
  316POPC   C4A 4341   8.378   4.819   6.433 -0.2124 -0.1979 -0.1150
  316POPC   C1B 4342   8.323   5.286   5.541 -0.0750 -0.0417  0.3305
  316POPC   C2B 4343   8.432   5.133   5.960  0.0654  0.2560 -0.1006
  316POPC   C3B 4344   8.578   5.281   6.419  0.1226 -0.0746 -0.3109
  316POPC   C4B 4345   8.487   5.245   6.829  0.0980  0.0108  0.1935
  317POPC   NC3 4346   1.366   5.444   5.150  0.2875 -0.0738 -0.1032
  317POPC   PO4 4347   0.980   5.750   5.319 -0.3012  0.1841 -0.2050
  317POPC   GL1 4348   0.730   5.992   5.678 -0.2994 -0.2189  0.2422
  317POPC   GL2 4349   0.389   6.186   5.734 -0.1727 -0.2763  0.0085
  317POPC   C1A 4350   0.618   6.038   6.145  0.2382  0.2035  0.0551
  317POPC   D2A 4351   0.413   5.887   6.531 -0.4042  0.0932 -0.0688
  317POPC   C3A 4352   0.826   5.850   6.728 -0.1722  0.0287  0.1304
  317POPC   C4A 4353   1.198   5.740   7.082 -0.0218  0.2445  0.1501
  317POPC   C1B 4354   0.149   5.839   5.900 -0.0179  0.1727  0.1625
  317POPC   C2B 4355   0.317   5.459   6.193 -0.2242 -0.2478 -0.2116
  317POPC   C3B 4356   0.571   5.262   6.415  0.0348 -0.2955 -0.0351
  317POPC   C4B 4357   0.605   4.952   6.762 -0.2561  0.2803  0.0627
  318POPC   NC3 4358   6.291   5.760   5.111 -0.2737 -0.0671  0.0240
  318POPC   PO4 4359   6.088   6.007   5.422 -0.2872 -0.0953 -0.0806
  318POPC   GL1 4360   6.161   5.652   5.674  0.0048 -0.0975  0.0266
  318POPC   GL2 4361   6.279   5.398   5.481  0.1780 -0.3746  0.2601
  318POPC   C1A 4362   6.208   5.680   6.138  0.0161  0.2110 -0.0771
  318POPC   D2A 4363   6.180   5.520   6.454  0.1846 -0.0369 -0.0144
  318POPC   C3A 4364   6.335   5.577   6.806  0.2635  0.0097 -0.0288
  318POPC   C4A 4365   6.440   5.615   7.122 -0.0867  0.3169  0.1806
  318POPC   C1B 4366   6.474   5.230   5.794 -0.0152  0.0995 -0.4290
  318POPC   C2B 4367   6.455   5.135   6.191  0.2287  0.0661  0.2338
  318POPC   C3B 4368   6.394   5.051   6.639  0.0624  0.0693  0.0245
  318POPC   C4B 4369   6.217   5.130   7.024  0.2923  0.0168  0.1782
  319W        W 4370   1.041   8.895   3.370 -0.1055 -0.2424  0.0704
  320W        W 4371  10.086   0.037  10.046  0.1459 -0.1031  0.1731
  321W        W 4372   6.859   2.364   0.054 -0.1717  0.1500 -0.1413
  322W        W 4373   9.067   7.633  13.228 -0.0569  0.1145 -0.2094
  323W        W 4374   2.586   8.476   3.812  0.0699 -0.0781 -0.4550
  324W        W 4375   6.374   7.077  10.668  0.3174 -0.1863  0.0977
  325W        W 4376   9.453   0.944   0.749  0.0494  0.0780 -0.1286
  326W        W 4377   9.826   6.348   3.392 -0.0336  0.3820 -0.1175
  327W        W 4378   8.172   7.227   9.005 -0.1224 -0.0304  0.3445
  328W        W 4379   6.652   1.269  10.514 -0.1194  0.2157  0.1105
  329W        W 4380   7.574   6.815  13.195 -0.0215 -0.1930  0.0558
  330W        W 4381   3.915   0.116   9.949 -0.4154 -0.0603 -0.0173
  331W        W 4382   6.120   9.131  11.653 -0.2990 -0.0804  0.3638
  332W        W 4383   2.702   3.310  13.283  0.1761  0.4123 -0.0990
  333W        W 4384   4.639   0.722   9.507  0.0363 -0.2056  0.0952
  334W        W 4385   6.445  10.078  10.064  0.0970  0.0193  0.1192
  335W        W 4386   4.019   1.898  10.123  0.0143 -0.1234 -0.0351
  336W        W 4387   3.102   7.869  10.099  0.0555 -0.4283 -0.1939
  337W        W 4388   1.664   0.313  13.050 -0.1688  0.2224  0.0376
  338W        W 4389   3.214   5.842   2.332 -0.1547 -0.1511  0.3830
  339W        W 4390   8.424   7.335   1.442 -0.2024 -0.0078  0.4365
  340W        W 4391   7.621   7.137   9.028 -0.0143 -0.0896  0.4106
  341W        W 4392   0.964   2.491   0.716  0.0761 -0.2833 -0.0630
  342W        W 4393   0.504   3.732   9.305  0.0362  0.0151 -0.0945
  343W        W 4394   6.812   0.821   1.723 -0.2996 -0.1645 -0.1774
  344W        W 4395   4.916   4.025  10.423 -0.1582  0.0100  0.1695
  345W        W 4396   5.826   9.317   3.080  0.1296  0.2599  0.1862
  346W        W 4397   8.996   9.966  11.105 -0.2139 -0.0536  0.1426
  347W        W 4398   7.896   4.779   0.869 -0.1412  0.0119  0.2118
  348W        W 4399   2.559   3.420  11.048  0.0378 -0.1381  0.1422
  349W        W 4400   8.881   3.903   2.259  0.0308  0.1486 -0.2318
  350W        W 4401   2.859  10.027  10.117  0.0750  0.1432 -0.0317
  351W        W 4402   2.984   3.624   4.228  0.3049 -0.1284  0.1201
  352W        W 4403   5.398   0.737   3.463 -0.0190 -0.1236  0.1674
  353W        W 4404   8.683   3.718   0.631 -0.0108 -0.0835 -0.0869
  354W        W 4405   7.540   5.203   2.649 -0.0772 -0.1396  0.1384
  355W        W 4406   5.685   4.881   0.527 -0.2372  0.2762  0.0505
  356W        W 4407   4.062   9.220  13.162  0.0887 -0.0524 -0.0190
  357W        W 4408   2.881   2.145   0.814 -0.0899 -0.3492  0.0876
  358W        W 4409   4.625   3.366   4.492  0.2703  0.4338  0.2428
  359W        W 4410   6.504   3.369   4.626 -0.3386  0.1984  0.0553
  360W        W 4411   9.100   5.088   0.887  0.0397 -0.0512 -0.0719
  361W        W 4412   1.831   5.085  13.003  0.0375  0.0997  0.0355
  362W        W 4413   4.669   1.906   3.412  0.3112 -0.0260 -0.0983
  363W        W 4414   7.575   6.076   0.254  0.0511  0.2973  0.0705
  364W        W 4415   1.619   1.569   2.306 -0.2188  0.1407 -0.1011
  365W        W 4416   1.320   8.488   3.232 -0.3232  0.0636  0.1606
  366W        W 4417   0.253   7.484  10.592 -0.0600 -0.1090  0.4363
  367W        W 4418   0.678   4.538  11.284  0.1129 -0.2178  0.2518
  368W        W 4419   9.627   9.741  11.238  0.1503  0.1821 -0.2027
  369W        W 4420   6.565   1.525   3.380 -0.0725 -0.0968  0.0795
  370W        W 4421   0.131   5.706  11.029 -0.0220  0.0081 -0.1840
  371W        W 4422   8.013   3.274   2.541  0.2682 -0.0781  0.2251
  372W        W 4423   1.673   6.618  11.857  0.0724  0.0558 -0.2332
  373W        W 4424   7.311   7.283  13.129 -0.2060  0.1653  0.3123
  374W        W 4425   4.873   0.646  13.169 -0.1798  0.0821  0.1737
  375W        W 4426   1.158   1.877  11.316  0.2651 -0.2655 -0.2522
  376W        W 4427   8.511   9.684   0.408 -0.1665  0.0240 -0.0665
  377W        W 4428   6.915   4.026   0.338 -0.1797  0.0343  0.0968
  378W        W 4429   2.305   9.049   8.889  0.1693 -0.1401  0.2287
  379W        W 4430   4.351   5.516  13.052  0.0298 -0.0994  0.0796
  380W        W 4431   5.330   0.695  13.657 -0.5170 -0.1655 -0.4448
  381W        W 4432   6.262   4.424  10.572  0.0624  0.2691  0.4232
  382W        W 4433   2.490   5.126   1.709 -0.3608  0.1195  0.0244
  383W        W 4434   0.537   4.261   2.039  0.0916  0.0970  0.1180
  384W        W 4435   6.829   1.064  12.779  0.0365  0.2536 -0.4900
  385W        W 4436   3.360   4.139  10.208  0.1704 -0.1536  0.1438
  386W        W 4437   3.814   5.555   3.642  0.1138 -0.1033  0.0873
  387W        W 4438   5.791   4.322  12.512 -0.0409 -0.2830  0.0859
  388W        W 4439   8.627   0.680  11.003  0.0572 -0.0006 -0.0336
  389W        W 4440   5.044   7.773   3.144 -0.0826  0.1957 -0.1553
  390W        W 4441   1.769   4.803   0.455  0.2595 -0.0946  0.4629
  391W        W 4442   5.911   1.978  13.018  0.1956 -0.0417  0.1335
  392W        W 4443   5.882   6.043   0.728  0.1733  0.0785 -0.3094
  393W        W 4444   0.078   7.946  10.789 -0.0838  0.3077 -0.1137
  394W        W 4445   3.548   7.293   0.908 -0.0262 -0.2250  0.1281
  395W        W 4446   9.450   4.114  11.480 -0.2748 -0.0248  0.0414
  396W        W 4447   3.440   3.126  12.831  0.1873 -0.0676 -0.0938
  397W        W 4448   1.402   5.807   2.663  0.0472 -0.1625  0.1720
  398W        W 4449   9.801   4.703   9.510  0.1512  0.2358 -0.1775
  399W        W 4450   9.576   9.652  10.243  0.2716 -0.0788 -0.0765
  400W        W 4451   1.142   2.018   2.568  0.4114 -0.2167  0.1024
  401W        W 4452   6.752   0.610   3.111  0.0256  0.0409 -0.0491
  402W        W 4453   9.059   8.949   3.097 -0.1079  0.0077  0.1107
  403W        W 4454   0.252   4.988   3.588 -0.0519 -0.1277  0.1178
  404W        W 4455   2.352   3.892  11.770  0.1606  0.0722 -0.2268
  405W        W 4456   0.292   2.171   3.506 -0.1131 -0.1674  0.2233
  406W        W 4457   6.433   5.781   2.944  0.1956  0.0922  0.2756
  407W        W 4458   0.797   9.232   1.976 -0.0383 -0.3641  0.0950
  408W        W 4459  10.003   1.746  13.316 -0.1885 -0.0878  0.2197
  409W        W 4460   8.354   7.876  10.965  0.2142 -0.1234 -0.0387
  410W        W 4461   7.413   8.111   8.989  0.0315  0.1609 -0.2303
  411W        W 4462   7.976   0.114  12.826 -0.2299 -0.0005 -0.3940
  412W        W 4463   3.827   8.904   4.504  0.3094  0.0597 -0.0299
  413W        W 4464   8.943   8.973   3.612  0.0829 -0.2398  0.1237
  414W        W 4465   7.918   4.264   3.691  0.2389 -0.2489 -0.1029
  415W        W 4466   5.294   4.133   0.613  0.1304 -0.3432  0.0048
  416W        W 4467   7.790   4.576   3.244 -0.0159  0.1940  0.0120
  417W        W 4468  10.098   0.050   0.608  0.0999 -0.2056 -0.0949
  418W        W 4469   7.319   9.921  11.914 -0.0776  0.1250  0.0302
  419W        W 4470   5.909   1.379  10.073  0.1085  0.3800 -0.2143
  420W        W 4471   8.887   8.641  11.460  0.0605 -0.3190  0.2752
  421W        W 4472   0.722   2.979   0.997 -0.4250  0.0940 -0.0011
  422W        W 4473   5.802   1.551   5.077 -0.3302  0.0602 -0.0032
  423W        W 4474   6.779   9.461   4.890 -0.0589 -0.0693  0.1425
  424W        W 4475   6.298   1.167  12.812 -0.0225 -0.2061 -0.0418
  425W        W 4476   7.847   9.104  10.809  0.3363 -0.3333 -0.0116
  426W        W 4477   4.585   6.013  12.108 -0.3570  0.2182  0.1319
  427W        W 4478   0.741   0.917   4.303  0.0123 -0.0813 -0.1843
  428W        W 4479   5.796   6.204  13.907 -0.1327  0.1567  0.0038
  429W        W 4480   4.315   9.964  13.554  0.2354  0.0958  0.1351
  430W        W 4481   4.441   0.827   2.299 -0.4139 -0.0056 -0.1792
  431W        W 4482   5.170   1.386   1.921 -0.2608 -0.3429 -0.2570
  432W        W 4483   2.453   2.660   3.538  0.0854 -0.0551  0.2659
  433W        W 4484   0.630   8.526   2.001 -0.0731  0.0218  0.2882
  434W        W 4485   7.098   7.726   2.927 -0.1027  0.3992 -0.0579
  435W        W 4486   8.227   7.458  11.744  0.0922  0.1595  0.0638
  436W        W 4487   5.182   3.826   9.084 -0.1465  0.1392 -0.1814
  437W        W 4488   5.730   0.169  10.304 -0.1340  0.0757 -0.0245
  438W        W 4489   5.353   4.878   1.704 -0.1896  0.0673 -0.1200
  439W        W 4490   1.945   5.906  10.064  0.3535 -0.2020  0.2460
  440W        W 4491   2.778   2.807  13.555 -0.0527 -0.3231  0.1825
  441W        W 4492   3.706   3.882   0.886 -0.1560  0.5364 -0.1787
  442W        W 4493   8.727   3.617  13.643 -0.1614  0.1972 -0.0470
  443W        W 4494   2.265   5.369   3.033  0.0663  0.1182 -0.0521
  444W        W 4495   9.376   9.682   1.035  0.0251 -0.1184  0.0388
  445W        W 4496   6.093   3.939  10.647  0.0645 -0.0500 -0.1399
  446W        W 4497   4.655   7.854  13.682 -0.2610  0.2339 -0.3197
  447W        W 4498   9.844   1.545  13.683 -0.0805 -0.0222  0.0936
  448W        W 4499   5.179   5.893   2.724  0.0895 -0.0329  0.0708
  449W        W 4500   7.403   4.197   0.186  0.1328  0.1147 -0.2391
  450W        W 4501   1.977   3.266   9.312 -0.3425 -0.0486 -0.1804
  451W        W 4502   0.202   9.788   8.717  0.2232 -0.0644 -0.4906
  452W        W 4503   4.046   2.703   1.962 -0.0703 -0.3862 -0.1912
  453W        W 4504   4.845   7.939  10.105 -0.2401 -0.2142 -0.2183
  454W        W 4505   1.104   3.552  13.724  0.1265 -0.0658 -0.1359
  455W        W 4506   4.829   6.712   9.700  0.0006  0.0264 -0.3042
  456W        W 4507   7.421   0.062  12.243  0.1922 -0.0614 -0.1548
  457W        W 4508  10.158   5.010   0.327 -0.2028 -0.0125 -0.1485
  458W        W 4509   0.031   7.185  13.928 -0.1398  0.1094  0.1503
  459W        W 4510   4.940   5.247   1.073 -0.0678 -0.3917 -0.1091
  460W        W 4511   0.247   0.163   3.996  0.1182 -0.0801 -0.0215
  461W        W 4512   0.789   0.050   9.978  0.0205 -0.0105 -0.0611
  462W        W 4513   6.062   7.269   5.872  0.5606 -0.3549  0.0266
  463W        W 4514   3.623   1.327  11.512  0.4010  0.1441 -0.1418
  464W        W 4515   2.451   0.469   9.154 -0.2653 -0.0016  0.0525
  465W        W 4516   9.481   9.259   0.623 -0.2129 -0.1554  0.0347
  466W        W 4517   6.903   7.766   3.948  0.1833 -0.0927 -0.2073
  467W        W 4518   6.242   8.599  11.862 -0.1231  0.0428  0.0771
  468W        W 4519   7.617   7.291  10.833 -0.1425  0.3188 -0.0387
  469W        W 4520   0.023   8.654   8.965 -0.0760  0.1598  0.3095
  470W        W 4521   4.875   8.815   3.574  0.0932  0.2566 -0.6622
  471W        W 4522   0.749   6.346   8.502 -0.0514  0.0645  0.0709
  472W        W 4523   2.738   7.980   1.842  0.0780 -0.2734 -0.0100
  473W        W 4524   3.461   4.115   1.246 -0.0462  0.2236 -0.0311
  474W        W 4525   1.067   0.479   3.602 -0.2099  0.0245 -0.1513
  475W        W 4526  10.037   3.311   0.012 -0.0238  0.0201 -0.1000
  476W        W 4527   3.456   7.073  12.695 -0.1300  0.0272 -0.0934
  477W        W 4528   4.130   9.769  10.421  0.1094 -0.0411 -0.1581
  478W        W 4529   6.148   0.365  13.056 -0.1167  0.0985  0.0454
  479W        W 4530   6.621   8.388  10.342 -0.1897 -0.1402 -0.2790
  480W        W 4531   9.755   0.799   0.392  0.4816 -0.1606  0.0838
  481W        W 4532   7.074   8.375   4.807 -0.1607 -0.5198  0.1509
  482W        W 4533   9.426   6.015   3.507  0.0409  0.2850  0.1370
  483W        W 4534   8.090   3.570  12.920  0.2299 -0.1657 -0.1478
  484W        W 4535   1.510   8.729   2.817 -0.2549  0.0748  0.1524
  485W        W 4536   3.312   8.466  12.470  0.0103  0.3544  0.0082
  486W        W 4537   4.424   7.637  11.434  0.1818 -0.1541 -0.0035
  487W        W 4538   6.625   1.241  12.386 -0.1601  0.2159 -0.0653
  488W        W 4539   8.860   8.968  12.231 -0.0154 -0.1517 -0.3727
  489W        W 4540   2.353   9.723   1.407  0.1284 -0.0667  0.1247
  490W        W 4541   1.761   4.445  10.622  0.1614 -0.1451 -0.0011
  491W        W 4542   9.358   1.749   2.074 -0.3175  0.2144 -0.1531
  492W        W 4543   8.187   2.202  13.883  0.1336 -0.0276 -0.0079
  493W        W 4544   3.254   2.901   9.160 -0.2193 -0.0573 -0.1296
  494W        W 4545   4.823   9.117   0.998 -0.1443  0.0798 -0.1344
  495W        W 4546   6.545   4.419   4.567 -0.1352  0.5684 -0.0911
  496W        W 4547   9.962   3.788  13.764 -0.0390  0.1730 -0.1292
  497W        W 4548   6.502   4.637  12.989 -0.4493 -0.2527 -0.3840
  498W        W 4549   5.175   3.142   9.653  0.2588  0.2333  0.0038
  499W        W 4550   5.133   5.937  11.996  0.2145  0.0722 -0.2147
  500W        W 4551  10.017   7.668  13.059 -0.0434 -0.4417 -0.1094
  501W        W 4552   5.221   6.132   5.203 -0.0249  0.3148  0.0837
  502W        W 4553   6.270   0.211  10.813 -0.1011 -0.2970 -0.0667
  503W        W 4554   8.846   7.752  11.052  0.1399  0.2132  0.0707
  504W        W 4555   3.779   1.358   1.351  0.0784 -0.1061 -0.1126
  505W        W 4556   7.107   4.819   1.064 -0.0654 -0.0411  0.0730
  506W        W 4557   6.888   0.515   2.307 -0.3889 -0.1826 -0.2626
  507W        W 4558   7.789   3.336   0.230 -0.2532 -0.0575 -0.0569
  508W        W 4559   2.120   5.952   9.466 -0.1238  0.3392 -0.0679
  509W        W 4560   5.458   6.415   3.916 -0.3970 -0.0725  0.1301
  510W        W 4561   2.417   9.101   2.119 -0.0388  0.0427 -0.2684
  511W        W 4562   4.480   7.667   2.520  0.0713  0.3111  0.3521
  512W        W 4563   5.662   2.692  10.749 -0.2410  0.2010  0.2189
  513W        W 4564   7.267   4.545   5.193  0.2347 -0.1021 -0.0119
  514W        W 4565   1.152   1.845  10.410  0.1471 -0.0215  0.1029
  515W        W 4566   1.955   1.207   2.484 -0.0679 -0.1746  0.0780
  516W        W 4567   0.215   5.426   2.461  0.0674 -0.1655 -0.0842
  517W        W 4568   6.766   7.491   0.562  0.0823  0.1863 -0.0313
  518W        W 4569   5.767   1.361  10.665 -0.2159 -0.0659 -0.2545
  519W        W 4570   1.921   8.878   4.384  0.1758  0.0333  0.0759
  520W        W 4571   2.357   8.353  11.680  0.0776  0.1531  0.4140
  521W        W 4572   4.661   5.330  11.308  0.2230 -0.2122 -0.0374
  522W        W 4573   9.585   2.467   1.802 -0.1082  0.1499  0.1690
  523W        W 4574   1.775   7.622   3.638  0.1114  0.0998 -0.1662
  524W        W 4575  10.041   7.303   3.228  0.1246 -0.1545 -0.2147
  525W        W 4576   3.772   4.342   2.435  0.0152  0.3207 -0.1365
  526W        W 4577   5.821   8.890   2.421 -0.0366  0.0586 -0.4242
  527W        W 4578   0.348   4.336   9.977 -0.0494 -0.1037  0.3202
  528W        W 4579   1.624   1.662  10.088  0.0221  0.1031 -0.1032
  529W        W 4580   8.299   2.477   1.432  0.0374  0.0387 -0.2156
  530W        W 4581   8.770   8.369   5.723  0.0647 -0.1054  0.0315
  531W        W 4582   1.203   5.940  10.221  0.0255  0.0178 -0.0435
  532W        W 4583   7.288   1.337  11.074 -0.2966 -0.2237 -0.1329
  533W        W 4584   9.103   0.145   4.167 -0.0637 -0.1529  0.0027
  534W        W 4585   1.922   3.774   3.961 -0.1302  0.2170 -0.0758
  535W        W 4586   0.806   4.041   3.567 -0.0286  0.1137 -0.0955
  536W        W 4587   8.185   0.720   3.460 -0.3940 -0.2089  0.0308
  537W        W 4588   3.591   2.017  10.963 -0.1608  0.0577 -0.0225
  538W        W 4589   4.288   9.301   0.837 -0.2941  0.0773  0.0502
  539W        W 4590   1.823   6.409  11.408 -0.0216  0.0324 -0.0461
  540W        W 4591   9.085   4.061   2.965 -0.2589 -0.1807  0.1558
  541W        W 4592   8.513   4.505  11.114 -0.1102 -0.2682 -0.1659
  542W        W 4593   5.342  10.103   5.477 -0.1148 -0.0662 -0.1231
  543W        W 4594   3.564   6.500   1.116  0.1686 -0.0182  0.0418
  544W        W 4595  10.056   2.802   3.575 -0.1052  0.0728 -0.0633
  545W        W 4596   6.412   5.952  13.587 -0.1370  0.3117 -0.3891
  546W        W 4597   8.232   9.977   3.689 -0.2305  0.3334 -0.0068
  547W        W 4598   4.355   4.136   0.563 -0.1470  0.1515  0.0352
  548W        W 4599   8.974   3.122   2.959  0.0087  0.2566 -0.1925
  549W        W 4600   2.822   2.445   2.612 -0.0628 -0.0686  0.3042
  550W        W 4601   0.166   3.284  11.643 -0.1392  0.0458  0.0527
  551W        W 4602   4.052   9.675   0.059 -0.1906  0.0783  0.5460
  552W        W 4603   6.767   7.054  12.052  0.3548  0.3354  0.1453
  553W        W 4604   9.646   3.415  12.728  0.0451  0.1066 -0.1337
  554W        W 4605   2.748   6.775   8.969 -0.0239 -0.1622 -0.3173
  555W        W 4606   5.574   0.841  12.123 -0.1993  0.2258  0.4966
  556W        W 4607   8.972   6.191   9.758  0.0651  0.3071 -0.2792
  557W        W 4608   8.829   8.431   4.300 -0.0032  0.1461 -0.0223
  558W        W 4609   2.123   6.487  13.316 -0.3671 -0.2202  0.0204
  559W        W 4610   1.631   6.911   4.716  0.1121 -0.0182  0.0086
  560W        W 4611   2.055   4.827   9.820 -0.0741  0.1117  0.0772
  561W        W 4612   8.234   5.235   0.158  0.1818 -0.2406  0.1172
  562W        W 4613   2.542   9.691   0.433  0.2701  0.0840 -0.0073
  563W        W 4614   9.724   3.498   0.814 -0.0993 -0.0087 -0.0730
  564W        W 4615   8.112   4.506  10.144  0.3122  0.1660 -0.3665
  565W        W 4616   1.804   4.134   1.336  0.2776 -0.1665 -0.1453
  566W        W 4617   1.952   8.751   0.017  0.3194 -0.2171  0.2215
  567W        W 4618   2.797   9.499  11.066  0.0198  0.0203  0.3077
  568W        W 4619   7.902   9.130  12.832 -0.4086 -0.0612  0.1767
  569W        W 4620   4.531   8.634   9.399  0.2466 -0.2582  0.3302
  570W        W 4621  10.126   5.958   0.028  0.2188  0.1678 -0.0391
  571W        W 4622   6.258   0.648   0.156 -0.6521  0.1602 -0.5126
  572W        W 4623   9.378   6.528   0.809 -0.2226 -0.1908  0.2104
  573W        W 4624   4.274   0.469   2.620  0.3131 -0.0267  0.0720
  574W        W 4625   8.491   0.823  11.505 -0.0253  0.1831 -0.0006
  575W        W 4626   5.417   2.020   4.145 -0.0699 -0.0086 -0.2054
  576W        W 4627   4.816   7.899   0.232 -0.3148  0.0996 -0.2571
  577W        W 4628   2.525   6.177   0.497  0.1974  0.3434  0.1001
  578W        W 4629   8.068   2.122   2.097 -0.0956  0.0921 -0.2691
  579W        W 4630   4.312   3.419   4.071 -0.0475 -0.1916  0.0838
  580W        W 4631   5.064   4.597   2.485 -0.1894 -0.0242 -0.2150
  581W        W 4632   0.143   9.122   1.153 -0.1259  0.2089  0.1819
  582W        W 4633   3.615   6.990   1.369  0.4744 -0.2311 -0.1189
  583W        W 4634   6.702   1.896   3.696  0.0073  0.0963  0.1685
  584W        W 4635   9.701  10.129   1.807 -0.3487  0.4078  0.0768
  585W        W 4636   3.546   6.476   1.830 -0.2576 -0.4426 -0.0477
  586W        W 4637   0.517   2.916   0.419 -0.0944  0.3127  0.4343
  587W        W 4638   0.715   3.334   0.191 -0.0600  0.1921  0.1183
  588W        W 4639   6.704   8.063   5.139 -0.0461  0.0146  0.1323
  589W        W 4640   2.337   0.684  13.968 -0.0248  0.0198 -0.5265
  590W        W 4641   5.350   4.870   4.332  0.1973 -0.1546 -0.2453
  591W        W 4642   2.794   2.560  10.973 -0.1542  0.1572  0.0531
  592W        W 4643   1.948   7.166  11.108 -0.0327  0.1324  0.0948
  593W        W 4644   9.782   2.516  10.331 -0.0065 -0.2460 -0.3372
  594W        W 4645   7.028   1.098   0.161  0.0184 -0.0791  0.0530
  595W        W 4646   5.801   7.661  13.139 -0.1518 -0.1468  0.0986
  596W        W 4647   6.389   9.178  13.261  0.2995  0.3617 -0.1980
  597W        W 4648   8.021   1.355   0.885 -0.1556  0.0309 -0.2608
  598W        W 4649   2.147   3.297   1.865 -0.2045 -0.0336 -0.1486
  599W        W 4650   0.215   9.158  10.290  0.0434 -0.0039  0.3022
  600W        W 4651   2.513   2.527   1.694 -0.1350  0.1641 -0.1258
  601W        W 4652   3.275   8.644   3.677 -0.3964 -0.0094  0.0332
  602W        W 4653   2.302   4.213   2.185 -0.3965  0.1168 -0.1229
  603W        W 4654   2.435   7.552   0.191 -0.2701 -0.3457  0.1724
  604W        W 4655   0.906   9.517  13.647 -0.2588 -0.0466  0.0731
  605W        W 4656   1.291   1.400   9.745 -0.2930 -0.3799  0.2192
  606W        W 4657   8.020   8.860   9.970  0.1061 -0.1686 -0.0734
  607W        W 4658   3.117   6.518   5.009 -0.3163  0.2939  0.0795
  608W        W 4659   8.091   9.190  12.134  0.2601  0.2879 -0.0356
  609W        W 4660   6.647   9.819  12.517  0.0106  0.0735  0.1812
  610W        W 4661   7.688   6.905  13.719  0.0818 -0.0914 -0.2120
  611W        W 4662   4.429   0.872  12.799  0.0611  0.2642  0.1506
  612W        W 4663   4.997   3.984   3.661 -0.3626 -0.1198 -0.2000
  613W        W 4664   0.629   2.574  11.533 -0.2063  0.0551 -0.2077
  614W        W 4665   2.412   3.693   3.870  0.0436 -0.0237  0.0555
  615W        W 4666   0.206   7.742  11.599 -0.0437  0.2627 -0.0844
  616W        W 4667   7.114   6.725   1.036  0.0267 -0.0433  0.0172
  617W        W 4668   2.927  10.133  11.833  0.1496 -0.2849 -0.0590
  618W        W 4669   0.179   4.539  13.042 -0.4874 -0.2555  0.0617
  619W        W 4670   3.383   5.440   2.008  0.1792 -0.3043  0.1686
  620W        W 4671   5.156   1.214   0.411  0.0520 -0.0164 -0.2886
  621W        W 4672   8.467   6.055  11.847  0.2612  0.2497 -0.0045
  622W        W 4673   7.533   9.462  12.853  0.1181 -0.2677 -0.0027
  623W        W 4674   9.181   4.377  10.451 -0.0788  0.1360 -0.1523
  624W        W 4675   6.050   7.264   1.804  0.3218 -0.1221  0.1802
  625W        W 4676   0.215   9.916  10.951 -0.3405 -0.3024  0.0306
  626W        W 4677   1.784   9.251  11.882  0.3705  0.3369  0.1821
  627W        W 4678   7.289   1.821   1.151 -0.0900  0.1410  0.3299
  628W        W 4679   0.805   2.580  10.732 -0.1781  0.0968 -0.2196
  629W        W 4680   0.754   1.587  10.031  0.1999 -0.2231 -0.1805
  630W        W 4681   1.866   2.557   2.582 -0.0548 -0.0496 -0.0933
  631W        W 4682   9.254   2.008  11.568  0.1372 -0.0451 -0.2151
  632W        W 4683   9.242   7.236   5.486 -0.2746  0.1159  0.0075
  633W        W 4684   5.626   1.685   4.542  0.0626  0.4870 -0.0577
  634W        W 4685   5.591   4.372  12.036 -0.0676 -0.0270  0.2384
  635W        W 4686  10.031   3.735  11.937 -0.0163  0.0966 -0.0402
  636W        W 4687   9.808   0.536  13.451 -0.3850 -0.3715  0.2534
  637W        W 4688   6.972   2.116   2.734  0.2303 -0.0025 -0.0519
  638W        W 4689   9.943   9.502   1.229  0.1611  0.2934 -0.3145
  639W        W 4690   7.407   8.748   5.078  0.0801 -0.1766  0.1211
  640W        W 4691   5.146   1.111   3.010 -0.2524  0.0482 -0.1511
  641W        W 4692   3.710   4.859   9.423 -0.5622  0.0846  0.0862
  642W        W 4693   1.171   3.713   4.444  0.0264  0.2551 -0.2394
  643W        W 4694   2.286   1.559   9.431  0.0564 -0.1845  0.2029
  644W        W 4695   1.325   0.648   2.102  0.0779 -0.0424  0.0631
  645W        W 4696   7.655   9.076  12.378  0.2324  0.2705  0.2184
  646W        W 4697   8.373   6.471  12.164 -0.2688 -0.0641 -0.0537
  647W        W 4698   4.104   4.814  12.510  0.0138  0.1763  0.0670
  648W        W 4699   2.102   8.067  12.578 -0.0476 -0.0024  0.3090
  649W        W 4700   0.780   9.879   2.732  0.3131  0.1110 -0.2358
  650W        W 4701   4.104   0.119   2.240 -0.0532 -0.0324  0.0231
  651W        W 4702   5.400   9.401   4.153  0.2323 -0.1179  0.1363
  652W        W 4703   4.007   8.203  12.245 -0.1105  0.0632  0.0701
  653W        W 4704   3.038   7.977   2.297  0.3790  0.0119 -0.0775
  654W        W 4705   4.266   2.116  11.305  0.1126  0.1587 -0.0750
  655W        W 4706   2.066   8.055  12.005  0.2040  0.1443  0.1969
  656W        W 4707   1.682   1.193  10.282  0.0897  0.1423 -0.2900
  657W        W 4708   6.593   4.255  12.092 -0.2366  0.1643 -0.0018
  658W        W 4709   8.491   1.397  10.602 -0.3911  0.2700 -0.3235
  659W        W 4710   4.362   8.317   4.702  0.3055  0.0129  0.0160
  660W        W 4711   4.524   2.188  12.513  0.0063  0.2163 -0.0256
  661W        W 4712   4.294   8.172   9.327 -0.1638  0.2465  0.1583
  662W        W 4713  10.163   6.489  10.845  0.0689  0.2506  0.1367
  663W        W 4714   0.606   7.144  10.128  0.4083  0.2325 -0.2276
  664W        W 4715   9.408   9.178   0.114 -0.3783  0.0384 -0.1739
  665W        W 4716   9.092   1.060  12.436 -0.0045 -0.2458  0.1779
  666W        W 4717   5.979   2.240   1.318  0.1919  0.4253 -0.0743
  667W        W 4718   3.718   1.405  13.924 -0.0306 -0.0182 -0.1384
  668W        W 4719   9.831   4.569   1.869  0.0804 -0.1065 -0.0670
  669W        W 4720   9.847   3.565   1.338 -0.2221 -0.1981 -0.1969
  670W        W 4721   2.681   0.570   2.621  0.2297  0.0601 -0.0164
  671W        W 4722   3.499   3.590   0.522  0.2287 -0.4648  0.2737
  672W        W 4723   6.374   8.481   3.729 -0.1439 -0.1080  0.0717
  673W        W 4724  10.004   4.073  10.575 -0.3360  0.1571 -0.0194
  674W        W 4725   6.323   2.725   2.128 -0.1822  0.1757 -0.0022
  675W        W 4726   7.316   0.674  12.947 -0.3674  0.0352 -0.0516
  676W        W 4727   2.478   1.292  13.475 -0.0280  0.1349 -0.0333
  677W        W 4728   4.058   4.725   4.166 -0.1278 -0.1727  0.1570
  678W        W 4729   2.203   3.590  13.500 -0.0680  0.1947  0.0501
  679W        W 4730   5.919   0.808  11.776  0.1856 -0.1089  0.3089
  680W        W 4731   8.227   0.490   4.479  0.3808 -0.1798 -0.0032
  681W        W 4732   9.048   4.795  10.089 -0.0630 -0.0741 -0.0002
  682W        W 4733   0.912   0.770  11.046  0.0141  0.0056 -0.0736
  683W        W 4734   4.979   7.599  10.726  0.1245 -0.0324 -0.0360
  684W        W 4735   9.316   6.356  11.116  0.3200 -0.0701 -0.0976
  685W        W 4736   5.828   9.739   9.610  0.0696  0.1368  0.0327
  686W        W 4737   3.456   3.470   2.377  0.1690 -0.1506  0.3871
  687W        W 4738   0.989   4.867   1.197  0.3115  0.2871  0.0079
  688W        W 4739   2.373   0.455  10.947  0.0267 -0.4272  0.1242
  689W        W 4740   5.741   9.560  12.629  0.2537  0.1776  0.2486
  690W        W 4741   6.039   8.109  10.568  0.4795  0.1178  0.1755
  691W        W 4742   3.986   8.353   2.256 -0.0648  0.1837 -0.1789
  692W        W 4743   4.197   0.913   0.253 -0.0950  0.1294  0.0270
  693W        W 4744   7.261   8.427  12.906  0.3200  0.1062  0.0098
  694W        W 4745   8.919   0.441  10.223  0.0029 -0.0054 -0.1003
  695W        W 4746   6.499   2.193   1.983  0.3518  0.0261 -0.2339
  696W        W 4747   8.533   6.657   4.285 -0.2062  0.0292  0.0056
  697W        W 4748   3.427   5.202   2.527 -0.0824 -0.0643  0.2418
  698W        W 4749   6.160   8.873   0.387  0.0746 -0.0710 -0.2461
  699W        W 4750   5.880   9.321  10.640 -0.0650 -0.2125 -0.0114
  700W        W 4751   0.165   5.266   9.698 -0.2010 -0.0882  0.1594
  701W        W 4752   3.035   0.476   1.487  0.0935  0.1369  0.3111
  702W        W 4753   1.654   4.501   0.889  0.2602  0.0265 -0.1622
  703W        W 4754   4.183  10.165   3.763 -0.0349 -0.2540 -0.0786
  704W        W 4755   0.221  10.071   3.479  0.1076 -0.0861 -0.1128
  705W        W 4756   2.372   9.439   9.605 -0.1194  0.2969 -0.1308
  706W        W 4757   1.745   0.620   2.375 -0.1091 -0.2386 -0.2958
  707W        W 4758   8.021   4.685  11.106  0.1190  0.0929 -0.0866
  708W        W 4759   9.206   3.303  12.134 -0.0179  0.4323 -0.0494
  709W        W 4760   4.025   1.842   9.388  0.1954 -0.3852  0.0037
  710W        W 4761   2.875   0.127  12.329 -0.5560  0.2045 -0.0553
  711W        W 4762   9.404   9.558  11.668 -0.1635  0.3171 -0.0847
  712W        W 4763   8.792   1.854   0.548 -0.0796  0.1019  0.1603
  713W        W 4764   6.894   3.842  11.698 -0.1305  0.0523  0.0743
  714W        W 4765   1.849   0.877   2.838 -0.1672 -0.3472 -0.0092
  715W        W 4766   8.007   3.345   1.219  0.1888  0.1193 -0.1649
  716W        W 4767   9.447   5.583   2.962 -0.0417 -0.1295  0.0533
  717W        W 4768   8.599   6.099  10.778  0.0684 -0.0687  0.1207
  718W        W 4769   8.340   8.643  12.869 -0.0508  0.0260 -0.1290
  719W        W 4770   4.517   2.045   0.871  0.1502  0.2666  0.1055
  720W        W 4771   1.891   2.504   0.187  0.1072  0.1105 -0.2682
  721W        W 4772   1.698   4.382  12.255  0.1069  0.0975 -0.1896
  722W        W 4773   7.213   5.247   3.600  0.2183  0.2944  0.0406
  723W        W 4774   2.197   4.421  12.517  0.1466 -0.1349  0.4876
  724W        W 4775   6.798   3.313  13.847  0.2290 -0.0931  0.1312
  725W        W 4776   0.658   0.384   4.490 -0.2473 -0.0365  0.0534
  726W        W 4777   3.660   8.374   0.503  0.4092  0.3274  0.3210
  727W        W 4778   8.329   9.117   5.207  0.0368  0.2587  0.2282
  728W        W 4779   5.441   6.586  11.167 -0.1703 -0.0103  0.2281
  729W        W 4780   3.208   0.138  10.367  0.0927  0.1397 -0.1358
  730W        W 4781   8.899   6.658   1.068 -0.4272  0.2138 -0.1482
  731W        W 4782   2.593   0.767   1.262 -0.1560  0.0045 -0.1733
  732W        W 4783   1.796   5.836   0.018  0.2916 -0.1995  0.0197
  733W        W 4784   8.912   5.392   1.820 -0.1357  0.2326  0.4471
  734W        W 4785   0.894   4.692   4.206 -0.2268 -0.3577  0.2188
  735W        W 4786   6.804   9.431   3.831  0.0460 -0.1788 -0.2659
  736W        W 4787   3.523   9.418   1.586  0.0973 -0.0049  0.1468
  737W        W 4788   8.763   0.161   2.168 -0.0046  0.1610  0.2047
  738W        W 4789   0.998   0.702   0.719  0.0982  0.2066  0.2941
  739W        W 4790   0.719   6.248  10.341  0.0149 -0.1634  0.0380
  740W        W 4791   1.073   2.885  13.924  0.2226  0.0349  0.1489
  741W        W 4792   9.641   7.255   3.948 -0.0357  0.0565 -0.2738
  742W        W 4793  10.050   3.587  12.525 -0.1010  0.1738 -0.0486
  743W        W 4794   2.261   4.927   4.753 -0.0664  0.0619 -0.0366
  744W        W 4795   1.745   9.601   1.702  0.0877 -0.0707 -0.0322
  745W        W 4796   8.630   4.046   3.216 -0.0090 -0.1720 -0.0645
  746W        W 4797   5.889   9.671  10.230 -0.2884 -0.0946  0.1225
  747W        W 4798   0.283   0.418   9.327  0.2425  0.1375  0.2221
  748W        W 4799   2.036   3.448  12.450 -0.4315  0.2187  0.0532
  749W        W 4800   1.233   1.825   2.105 -0.2905 -0.2804  0.1078
  750W        W 4801   8.196   6.799  10.198  0.0932  0.3284  0.1711
  751W        W 4802   0.003  10.003  12.682 -0.1379 -0.0127 -0.1455
  752W        W 4803   0.778   0.169  13.317  0.2631 -0.2002  0.0606
  753W        W 4804   5.387   4.316   2.947 -0.1387  0.0081 -0.0032
  754W        W 4805   8.901   6.183   1.794 -0.1001  0.0198  0.0588
  755W        W 4806   3.115  10.083  13.162 -0.1374 -0.0409  0.0093
  756W        W 4807   9.406   0.000   0.139  0.0658 -0.1579 -0.0447
  757W        W 4808   6.992   7.503   2.003  0.0316  0.2107 -0.0116
  758W        W 4809   3.621   5.061   1.658 -0.1758  0.0656 -0.1638
  759W        W 4810   9.670   3.421   1.780  0.1702 -0.0957  0.0405
  760W        W 4811   7.577   4.057   4.010 -0.1334 -0.0420 -0.1579
  761W        W 4812   2.133   3.655  11.428 -0.0207  0.1574  0.1692
  762W        W 4813   3.008   1.757   1.976  0.1878 -0.3280 -0.2205
  763W        W 4814   0.277   0.242  12.692  0.0957  0.2660 -0.0544
  764W        W 4815   1.766   9.759   0.721 -0.2087 -0.0302 -0.2364
  765W        W 4816   6.681   0.575   3.647 -0.5480 -0.1034 -0.0664
  766W        W 4817   2.216   1.216  13.936 -0.0422  0.0951 -0.2351
  767W        W 4818   7.361   5.647  13.975 -0.0836 -0.0962  0.1218
  768W        W 4819   4.987   5.718   0.929  0.0322  0.0987 -0.0909
  769W        W 4820   0.368   0.161   8.318 -0.0430 -0.1272 -0.2594
  770W        W 4821   5.120   6.355  12.868 -0.0387 -0.1382 -0.0388
  771W        W 4822   5.806   2.159  10.709 -0.2205 -0.0833  0.0116
  772W        W 4823   0.566   8.347   9.734 -0.1978 -0.2002  0.1355
  773W        W 4824   3.191   3.923   8.969  0.1434  0.1304 -0.1436
  774W        W 4825   4.112   3.632   3.438  0.0823  0.0806 -0.2160
  775W        W 4826   2.675   4.536   4.773 -0.0419  0.2653 -0.2486
  776W        W 4827   1.809   1.252  12.644 -0.1254 -0.0820 -0.2409
  777W        W 4828   9.102   4.626  13.445 -0.1061 -0.1145  0.1402
  778W        W 4829   8.162   7.737  12.152  0.0912  0.0723  0.0262
  779W        W 4830   5.648   6.463  10.642 -0.0540 -0.1319 -0.0915
  780W        W 4831   9.361   9.936   3.397 -0.0900 -0.0259  0.2968
  781W        W 4832   2.974   5.792   0.272 -0.3369 -0.1032  0.2035
  782W        W 4833   3.913   6.880  12.671 -0.1446 -0.0553  0.2365
  783W        W 4834   4.818   0.765  13.643 -0.2147 -0.2997 -0.0353
  784W        W 4835   3.872   4.105  10.990  0.1719  0.1354 -0.0722
  785W        W 4836   2.645   2.848  12.900  0.3511 -0.0902  0.2063
  786W        W 4837   9.660  10.134   2.398  0.1635 -0.3569  0.1896
  787W        W 4838   6.717   6.397  10.412  0.0799 -0.0308 -0.1283
  788W        W 4839   9.460   6.579   1.913  0.4286 -0.1636  0.0006
  789W        W 4840   8.691   5.603   9.794 -0.1889 -0.1958  0.0242
  790W        W 4841   7.119   9.733  12.375 -0.1447 -0.4545  0.3597
  791W        W 4842   0.321   4.603  10.383 -0.2946  0.3956 -0.2057
  792W        W 4843   8.556   0.586  12.024 -0.0550  0.0525  0.0716
  793W        W 4844   5.419   9.475   4.823 -0.1045 -0.2558 -0.3649
  794W        W 4845   9.995   5.387  10.024 -0.2135 -0.4798 -0.2515
  795W        W 4846  10.153   8.746  10.199  0.0982 -0.0255 -0.0578
  796W        W 4847   1.922   0.727   0.574 -0.0758 -0.1185 -0.1234
  797W        W 4848   4.913   0.999   3.477 -0.1229 -0.2151  0.1972
  798W        W 4849   0.664   0.571   3.935 -0.2487 -0.1274  0.0463
  799W        W 4850   2.842   4.197   9.878  0.1550  0.0900 -0.1218
  800W        W 4851   6.618   2.602  13.068 -0.1350 -0.0530 -0.1240
  801W        W 4852   5.196   0.487   4.174 -0.4554 -0.0410  0.0433
  802W        W 4853   0.601   6.599   3.601  0.3393 -0.2385  0.2182
  803W        W 4854   1.169   4.446   9.661 -0.4371  0.0031 -0.3362
  804W        W 4855   5.808   7.613  12.659 -0.1731 -0.0646  0.0773
  805W        W 4856   3.474   2.361  12.397  0.1753 -0.0233 -0.1356
  806W        W 4857   3.462   1.688   9.365  0.1115 -0.1644  0.1912
  807W        W 4858   4.191   7.371  12.906  0.1166 -0.5130  0.0303
  808W        W 4859   1.382   0.253  10.687 -0.0003 -0.0645  0.0560
  809W        W 4860   1.412   4.113  12.571 -0.1493  0.0641  0.0709
  810W        W 4861   1.342   1.577  13.547  0.4517  0.0415 -0.0842
  811W        W 4862   1.605   5.425   2.824 -0.1509  0.0424 -0.0520
  812W        W 4863   1.348   7.246   4.284 -0.2238 -0.1650 -0.0952
  813W        W 4864   6.541   9.131  12.710  0.0834  0.1858  0.1080
  814W        W 4865   4.202   2.056   2.549  0.0459  0.2878  0.0319
  815W        W 4866   3.873   3.435   2.093  0.2079 -0.0738 -0.0510
  816W        W 4867   5.535   3.974   1.016  0.3349 -0.1431 -0.5095
  817W        W 4868   1.991   0.199   3.383 -0.0620  0.0732 -0.1067
  818W        W 4869   0.954   8.439  10.024 -0.1635 -0.0617 -0.1176
  819W        W 4870   0.822   5.352   4.434 -0.4853  0.0147  0.1834
  820W        W 4871   4.581   6.821  10.860  0.2086  0.2399  0.2088
  821W        W 4872   1.656   8.765   2.303  0.0014  0.0080 -0.3168
  822W        W 4873   0.539   7.118  10.973  0.0535 -0.2323 -0.1112
  823W        W 4874   7.929   8.328  11.999 -0.1660 -0.0314 -0.2089
  824W        W 4875   2.946   2.831   3.460 -0.0540  0.1257 -0.2082
  825W        W 4876   6.717   5.718   2.439  0.2233 -0.0515 -0.0564
  826W        W 4877   5.142   3.490   4.455 -0.1529 -0.1242  0.0670
  827W        W 4878   2.948   2.900  10.323 -0.0423 -0.1709  0.0899
  828W        W 4879   0.740   4.220   3.059  0.3153 -0.0451 -0.1939
  829W        W 4880   8.701   8.011   1.887  0.0475 -0.1930  0.2338
  830W        W 4881   9.188   4.956   1.876  0.0120 -0.5229  0.0324
  831W        W 4882   5.028   1.937   9.853 -0.3730 -0.0041  0.2831
  832W        W 4883   1.684   6.921   3.307 -0.5780  0.1001 -0.1194
  833W        W 4884   8.582   7.362  13.300 -0.1707  0.0065  0.2602
  834W        W 4885   7.887   8.146   1.939  0.0330 -0.2677 -0.0250
  835W        W 4886   7.956   5.602   4.696 -0.0691  0.1877 -0.0734
  836W        W 4887   6.781   2.853  12.651 -0.0274  0.0394  0.0062
  837W        W 4888   0.394   8.267   3.128  0.0929  0.1425  0.0213
  838W        W 4889   7.413   7.792  13.290 -0.1375 -0.1339  0.0547
  839W        W 4890   1.462   0.336   4.473  0.1407 -0.0761  0.0802
  840W        W 4891   9.818   7.156  12.696 -0.0022  0.3474  0.1298
  841W        W 4892   2.997   8.520  13.063  0.1896  0.1902 -0.1718
  842W        W 4893   0.463   6.212  11.784 -0.3425  0.2259 -0.2583
  843W        W 4894   0.391   3.440  10.128 -0.3892 -0.2159 -0.1357
  844W        W 4895   7.456   8.076  10.446 -0.0563 -0.1879 -0.3538
  845W        W 4896   8.538   1.451   0.406  0.2469  0.2063  0.2309
  846W        W 4897   7.142   9.717   2.433  0.0478 -0.1643  0.0694
  847W        W 4898   3.304   6.105  12.845  0.0887  0.1732 -0.3127
  848W        W 4899   2.763   8.653  11.541 -0.3587 -0.1686  0.1206
  849W        W 4900   4.551   2.495   1.940  0.0904 -0.3879 -0.1338
  850W        W 4901   5.357   2.077   0.625  0.2413 -0.1779 -0.0062
  851W        W 4902   2.654   5.568   9.890 -0.0249 -0.0123  0.0349
  852W        W 4903   2.013   3.676   1.585  0.6170  0.3071 -0.1035
  853W        W 4904   2.108  10.096  12.964 -0.1160 -0.1015 -0.0672
  854W        W 4905   3.625   8.972  10.787  0.1554 -0.0236  0.1470
  855W        W 4906   1.394   0.629   5.390  0.1692  0.2865 -0.1786
  856W        W 4907   6.636   7.009  11.073 -0.3238 -0.2753  0.2336
  857W        W 4908   3.549   1.149   0.878 -0.2693 -0.1077  0.0155
  858W        W 4909   9.304   9.846  12.072 -0.1177 -0.3753 -0.0542
  859W        W 4910   3.918   5.027   3.449  0.0269  0.0656  0.2719
  860W        W 4911   9.963   1.619   0.374 -0.1589 -0.0747  0.0906
  861W        W 4912   7.727   2.107   3.731  0.0492  0.0092  0.0069
  862W        W 4913   6.421   4.732  12.515  0.0010  0.1265  0.1144
  863W        W 4914   4.545   8.677  11.124 -0.1284  0.3359 -0.0078
  864W        W 4915   1.364   9.209   9.474  0.0321 -0.1121 -0.3233
  865W        W 4916   7.589   8.661   4.066  0.2057  0.0458 -0.2770
  866W        W 4917   6.710   7.889   2.065 -0.1659  0.0059  0.0812
  867W        W 4918   9.722   9.059   0.979 -0.1355 -0.1490 -0.3177
  868W        W 4919   0.593   9.430   3.782  0.0535 -0.1750 -0.0225
  869W        W 4920   2.345   4.391  13.612  0.0220 -0.0399  0.0766
  870W        W 4921   8.577   6.414   2.808  0.1714 -0.1458 -0.0062
  871W        W 4922   3.267   4.856   9.202  0.0295  0.0453 -0.0637
  872W        W 4923   5.291   6.518   3.448 -0.0479  0.0236  0.0637
  873W        W 4924   4.111   0.925   9.398 -0.2003  0.0245  0.0845
  874W        W 4925   2.886   3.882  10.937  0.1105  0.0188 -0.1719
  875W        W 4926   4.489   9.125   3.773  0.1481  0.2552  0.1355
  876W        W 4927   3.544   7.745   2.218  0.5007  0.0274  0.2157
  877W        W 4928   4.718  10.027   3.174 -0.2045  0.1742  0.3330
  878W        W 4929   0.409   3.553  10.598 -0.0010  0.0587 -0.4165
  879W        W 4930   1.040   2.832   3.190  0.0802  0.0973 -0.0594
  880W        W 4931   0.082   9.677   2.619  0.0574 -0.1812  0.0984
  881W        W 4932   5.135   8.858  12.567 -0.2531  0.1749  0.0711
  882W        W 4933   9.242   2.814   1.168 -0.1174  0.0680 -0.0370
  883W        W 4934   5.773   7.811  11.254 -0.0060 -0.0660 -0.1987
  884W        W 4935   0.390   3.748   2.129  0.0530 -0.1550 -0.0101
  885W        W 4936   8.190   6.337   4.088 -0.1684  0.2128 -0.2287
  886W        W 4937   1.428   3.913   3.979  0.2457 -0.0490 -0.1463
  887W        W 4938   3.455   6.441  10.985  0.0371 -0.2203 -0.1969
  888W        W 4939   9.366   9.179  10.461 -0.0376  0.1223  0.0944
  889W        W 4940   4.943   9.167   1.885 -0.0525  0.1079 -0.0116
  890W        W 4941   7.322   2.573   2.529 -0.0614  0.1155 -0.1087
  891W        W 4942   0.881   9.807   2.249  0.1051  0.2750  0.1575
  892W        W 4943   6.372   2.475  12.415 -0.0941 -0.1268  0.1300
  893W        W 4944   1.621   4.630  13.642  0.0961  0.1706 -0.1451
  894W        W 4945   9.070   0.869  12.924  0.1060 -0.0453 -0.0222
  895W        W 4946   3.509   7.632  10.450 -0.0904  0.0546  0.0139
  896W        W 4947   8.479   6.156  11.347 -0.0261  0.0817  0.2155
  897W        W 4948   2.370   2.911   8.536  0.2326 -0.2042  0.2477
  898W        W 4949   9.160   1.021   2.654 -0.0704  0.3142 -0.2110
  899W        W 4950   5.466   2.625  10.230  0.1775  0.1028  0.3697
  900W        W 4951   4.649   6.073   0.754 -0.1064  0.0311  0.0019
  901W        W 4952   1.835   1.514   0.094 -0.1271  0.1090  0.1331
  902W        W 4953   4.721   3.481   9.639  0.1111 -0.0992  0.2578
  903W        W 4954   4.085   7.280   4.594 -0.0676 -0.1259  0.0817
  904W        W 4955   1.080   0.288  11.087  0.0688  0.2983  0.2195
  905W        W 4956   4.172   7.656  10.907 -0.0975 -0.3081  0.1717
  906W        W 4957   9.540   5.771   0.635  0.1032 -0.0772 -0.2766
  907W        W 4958   5.251   6.885   2.713  0.0703  0.0144 -0.3931
  908W        W 4959   5.225   6.343   9.047 -0.0098 -0.1869 -0.4057
  909W        W 4960   1.960   6.465  10.031 -0.0653  0.1424 -0.1614
  910W        W 4961   9.566   2.954   3.049  0.1362 -0.0464  0.1536
  911W        W 4962   5.523   0.934   0.256 -0.3505 -0.4931  0.0777
  912W        W 4963   0.787   2.100   3.656 -0.2208  0.0808  0.3115
  913W        W 4964   3.372   9.865   4.290  0.0849 -0.2662 -0.1260
  914W        W 4965   0.424   9.495  13.647 -0.0513  0.0944  0.0318
  915W        W 4966   9.943   8.870   9.783 -0.3465  0.2717  0.2986
  916W        W 4967   0.685   5.709  11.523  0.3399  0.1510 -0.2791
  917W        W 4968   2.727   6.910   0.954  0.1442 -0.2307  0.0264
  918W        W 4969   4.483   8.413   5.177 -0.1251 -0.1587 -0.2293
  919W        W 4970   7.104   7.227   3.123  0.1837  0.1292 -0.1348
  920W        W 4971   4.492   8.625   2.473  0.2753 -0.0408  0.0542
  921W        W 4972   4.012   2.062  13.422 -0.2000 -0.0763 -0.0598
  922W        W 4973   8.756   2.707   4.152 -0.1462 -0.0459 -0.3006
  923W        W 4974   3.036   1.349  10.532 -0.2106 -0.2285 -0.0775
  924W        W 4975   6.527   7.209   5.083 -0.1493 -0.1746  0.1860
  925W        W 4976   7.086   1.918  11.616  0.1283  0.0881  0.4027
  926W        W 4977   3.789   7.530  13.929 -0.3910  0.1451  0.2111
  927W        W 4978   4.783   8.525  12.397 -0.0153  0.0494  0.0760
  928W        W 4979   5.803   4.990   2.803  0.4095  0.1808  0.1098
  929W        W 4980   2.221   6.075  11.057  0.0297  0.2160 -0.0200
  930W        W 4981   1.437  10.053  13.785  0.1372  0.0174  0.3236
  931W        W 4982   3.318   9.130   4.576  0.1600  0.1654 -0.2638
  932W        W 4983   2.002   4.892   9.321  0.1626  0.0531  0.3067
  933W        W 4984   1.189   9.684   0.589  0.0852  0.0308 -0.2593
  934W        W 4985   0.218   0.773   3.736 -0.1543  0.2471 -0.1011
  935W        W 4986   3.090   8.891  12.093  0.2357  0.1550 -0.0394
  936W        W 4987   4.758   5.425  12.225 -0.0920  0.0085 -0.0469
  937W        W 4988   4.857   1.021  10.726 -0.0929  0.0072  0.0882
  938W        W 4989   5.845   2.782  13.640 -0.2033  0.2698  0.1431
  939W        W 4990   7.396   1.838   0.098  0.1558  0.0654 -0.1240
  940W        W 4991   5.388   6.620   2.074 -0.0572 -0.1352  0.0870
  941W        W 4992   9.886   4.545  13.125 -0.1429 -0.0379  0.0594
  942W        W 4993  10.179   0.523   9.856  0.2378  0.2963 -0.4221
  943W        W 4994   1.389   6.610   9.604  0.0151  0.2862 -0.1672
  944W        W 4995   9.755   4.623   1.199 -0.0717  0.2981  0.1499
  945W        W 4996   7.464   6.251  12.177  0.1390 -0.0527 -0.0430
  946W        W 4997   5.779   2.414   0.216  0.0005  0.0484 -0.0249
  947W        W 4998   8.630   7.668   3.613 -0.2357  0.1773 -0.3683
  948W        W 4999   8.740   7.085  12.883 -0.0473 -0.1500 -0.2904
  949W        W 5000   1.204   0.718  10.460  0.0138  0.1418 -0.2948
  950W        W 5001   8.369   7.335  12.365  0.0066  0.0984 -0.0072
  951W        W 5002   2.814   3.968   3.749 -0.1640 -0.1482  0.1506
  952W        W 5003   4.030   0.401  13.566  0.2298 -0.0482 -0.0147
  953W        W 5004   3.392   5.060   0.644 -0.2490 -0.1073 -0.0956
  954W        W 5005   4.432   1.999  11.937 -0.0727 -0.2929  0.3084
  955W        W 5006   3.517   0.431  12.432  0.2219  0.0453  0.0641
  956W        W 5007   7.564   8.926   2.287  0.2461 -0.0349 -0.1037
  957W        W 5008   6.768   8.398  13.792  0.0522 -0.2209  0.0499
  958W        W 5009   7.628   8.264  13.458  0.1072 -0.1037  0.2508
  959W        W 5010   5.476   7.041   4.879 -0.2584  0.4133  0.2055
  960W        W 5011   0.929   5.151   0.124 -0.0704 -0.0072 -0.2193
  961W        W 5012   7.154   1.481   2.256  0.0437  0.1069 -0.0366
  962W        W 5013   0.602   4.730  12.963  0.3668  0.0700 -0.0767
  963W        W 5014   7.429   9.152  11.690 -0.0375  0.1921 -0.0754
  964W        W 5015   1.599   5.765  12.494  0.0909  0.2233  0.1607
  965W        W 5016   5.239   0.412  12.804  0.1221 -0.0484 -0.0011
  966W        W 5017   6.145   4.455  11.795 -0.1974 -0.1363  0.2841
  967W        W 5018   8.412   9.404   3.628 -0.1723  0.0955 -0.0047
  968W        W 5019   1.687   7.720  12.592  0.1373  0.2616  0.1199
  969W        W 5020   4.004   5.594  10.675  0.1308  0.0319 -0.1503
  970W        W 5021   9.175   8.717  10.569 -0.2045  0.0326 -0.1031
  971W        W 5022   1.914   2.391   9.797  0.4298  0.4210 -0.0711
  972W        W 5023   4.053   3.208  13.356 -0.0633  0.1498  0.4444
  973W        W 5024   5.338   7.015  11.491 -0.3764 -0.2483  0.0804
  974W        W 5025   4.523   4.723   2.712 -0.0411  0.1657 -0.1593
  975W        W 5026   6.856   4.687  11.011 -0.2162 -0.1898 -0.1533
  976W        W 5027   6.140   0.335   2.855 -0.1196 -0.4802 -0.1870
  977W        W 5028   8.064   5.212   3.329 -0.0279  0.2467 -0.2034
  978W        W 5029   6.258   8.259   2.300 -0.5473  0.3627 -0.2482
  979W        W 5030   3.033   4.012  13.819 -0.1105  0.0261 -0.0692
  980W        W 5031   4.047   6.828   4.215 -0.1163  0.0451 -0.0777
  981W        W 5032   8.422   4.601  12.556  0.2722  0.0454 -0.2872
  982W        W 5033   1.633   1.962   2.659  0.0310 -0.0032 -0.0478
  983W        W 5034   8.008   8.087  10.629  0.1587 -0.0577 -0.0165
  984W        W 5035   4.125   3.801   1.811 -0.1449 -0.2467 -0.0435
  985W        W 5036   1.936   7.275   8.977 -0.1613  0.1163  0.2144
  986W        W 5037   8.958   9.051   1.516  0.1807 -0.1234 -0.0271
  987W        W 5038   0.069   0.557  11.547 -0.3723  0.1135 -0.0407
  988W        W 5039   4.845   5.567   2.584 -0.0135 -0.2416 -0.2619
  989W        W 5040   3.536   0.551   3.892 -0.0336 -0.1957  0.2385
  990W        W 5041   3.744   5.040   9.927  0.0988  0.0075 -0.1486
  991W        W 5042   2.344   3.249   0.407  0.2423  0.1553 -0.3724
  992W        W 5043   2.090   1.262   3.076  0.0399  0.2482  0.2003
  993W        W 5044   1.428   8.911  11.860  0.1784 -0.4869 -0.0382
  994W        W 5045   5.872   9.249   3.961 -0.2631  0.2579  0.0301
  995W        W 5046   4.978   2.137  13.416  0.0279 -0.2969 -0.0298
  996W        W 5047   1.721   1.014   9.666 -0.0769 -0.1129 -0.2549
  997W        W 5048   5.226   1.867  11.233  0.0910  0.0641 -0.0939
  998W        W 5049   0.866   0.724   3.016  0.0033 -0.0172  0.1747
  999W        W 5050   9.739   9.740   0.692  0.1269  0.1105 -0.0909
 1000W        W 5051   1.180   8.553  11.271  0.2735 -0.1943  0.1278
 1001W        W 5052   3.020   2.583  12.654 -0.0438  0.0015 -0.0056
 1002W        W 5053   1.385   9.487  13.870  0.2703  0.0415  0.1417
 1003W        W 5054   1.256   5.121   4.671  0.1302  0.0725  0.2282
 1004W        W 5055   9.794   2.268  13.374  0.4528  0.2546  0.1109
 1005W        W 5056   5.685   8.390   2.610  0.2670  0.1742 -0.0590
 1006W        W 5057   1.604   0.609  11.009  0.2329 -0.0758 -0.1853
 1007W        W 5058  10.153   4.826   3.201  0.1857 -0.1001 -0.3305
 1008W        W 5059   9.988   9.542  10.655  0.1654  0.1626 -0.1853
 1009W        W 5060   5.023   5.227  13.750 -0.1538 -0.1916 -0.2201
 1010W        W 5061   9.267   9.358   1.904 -0.2793  0.1013 -0.0969
 1011W        W 5062   3.397   5.014  10.861  0.4640  0.0287 -0.1858
 1012W        W 5063   2.061   2.005   0.066  0.3093 -0.1316  0.0787
 1013W        W 5064   3.339   1.561  11.053 -0.1171 -0.1356  0.1378
 1014W        W 5065   3.373   1.529   1.775 -0.0829  0.2436  0.1559
 1015W        W 5066   6.702   5.190   3.525  0.0852 -0.3756 -0.2606
 1016W        W 5067   7.230   9.888   0.696 -0.0295 -0.1876 -0.1173
 1017W        W 5068   3.879   3.597   4.326 -0.2114 -0.2294  0.1054
 1018W        W 5069   6.976   9.579  13.773 -0.0635 -0.1746 -0.0632
 1019W        W 5070   0.354   3.877   3.348 -0.1885  0.1646  0.1153
 1020W        W 5071   9.095   9.404   5.312 -0.0241 -0.2031  0.1560
 1021W        W 5072   7.945   3.663   2.213 -0.1312  0.2800 -0.0406
 1022W        W 5073   8.990   5.047   1.332 -0.2086  0.3473  0.3711
 1023W        W 5074   4.714   6.354  13.171 -0.2047  0.0940 -0.0087
 1024W        W 5075   9.542   8.210  13.754 -0.2297 -0.2665 -0.0621
 1025W        W 5076   0.086   7.976   3.357 -0.1378  0.2134 -0.2709
 1026W        W 5077   4.644   3.029   0.125 -0.0914 -0.0304 -0.3091
 1027W        W 5078   5.877   7.898   0.355 -0.0897  0.2497 -0.0430
 1028W        W 5079   1.033   5.460   2.841  0.1004  0.1356 -0.2113
 1029W        W 5080   5.866   1.254   3.831 -0.1644  0.0997 -0.1705
 1030W        W 5081   7.052   2.731   3.350  0.2582 -0.0947 -0.2433
 1031W        W 5082   7.091   8.564   4.248  0.0285  0.0063 -0.4841
 1032W        W 5083   3.897   9.210   3.669 -0.0887 -0.0281  0.5494
 1033W        W 5084   1.212   4.709   0.409 -0.0185  0.2504  0.2047
 1034W        W 5085   6.445   5.575  13.952 -0.1561  0.1191 -0.1114
 1035W        W 5086  10.101   5.998  10.683  0.3988  0.0381 -0.0000
 1036W        W 5087   5.200   8.358  12.781 -0.0523 -0.0679  0.1602
 1037W        W 5088   2.749   2.045  10.082 -0.0753  0.1291  0.0463
 1038W        W 5089   2.399   0.314  12.305  0.0009 -0.1658 -0.1151
 1039W        W 5090   1.498   8.654   8.722  0.0222  0.1899 -0.0385
 1040W        W 5091   6.642   9.502  11.032 -0.2068 -0.0405 -0.1544
 1041W        W 5092   3.507   5.963   2.708 -0.1603 -0.3443 -0.1037
 1042W        W 5093   9.070   8.806  13.924 -0.0972 -0.3341 -0.2429
 1043W        W 5094   4.730   2.316   1.243  0.1034  0.0703  0.0993
 1044W        W 5095   7.515   7.975   9.905  0.2626  0.0376  0.3153
 1045W        W 5096   7.303   6.641  13.611 -0.0068  0.0669 -0.1198
 1046W        W 5097  10.019   3.859   0.942  0.0870  0.0504 -0.1674
 1047W        W 5098   7.655   9.156   4.764 -0.0742  0.0551 -0.2468
 1048W        W 5099   9.669   5.332  12.710  0.1416 -0.0359  0.0893
 1049W        W 5100   1.191   8.496  13.529  0.3453 -0.0152  0.0573
 1050W        W 5101   1.453   9.723   3.837  0.1021  0.0443  0.0328
 1051W        W 5102   0.653   1.547  10.517  0.2124 -0.1507 -0.0293
 1052W        W 5103   2.719   5.281   3.208  0.5272  0.2043 -0.0237
 1053W        W 5104   7.731   0.402   1.002 -0.2317 -0.0978  0.1314
 1054W        W 5105   9.598   4.966   1.548 -0.1017 -0.0473 -0.0008
 1055W        W 5106   6.533   7.333  12.454 -0.0174  0.1757 -0.1084
 1056W        W 5107   9.381   0.950   1.469  0.3394 -0.0165  0.0037
 1057W        W 5108   1.323   0.692  11.488 -0.0610  0.1711 -0.0827
 1058W        W 5109   8.647   9.756   4.739 -0.2669 -0.1340 -0.0651
 1059W        W 5110   6.316   0.186   1.352  0.0391  0.1008 -0.2006
 1060W        W 5111   8.378   2.971   2.429 -0.2333  0.2939 -0.2149
 1061W        W 5112   7.050   2.739  11.776  0.0387 -0.3521  0.0806
 1062W        W 5113   7.576   9.993   2.470  0.0797  0.0118 -0.0575
 1063W        W 5114   9.949   3.152   1.060  0.0474 -0.1358  0.0079
 1064W        W 5115   9.906   3.907  11.413  0.0706  0.0179 -0.3769
 1065W        W 5116   2.188   4.741   3.843 -0.1435 -0.1447  0.2438
 1066W        W 5117   9.720   2.511  12.351 -0.1417 -0.0517  0.0083
 1067W        W 5118   4.691   1.746   2.548  0.1221  0.0984  0.3148
 1068W        W 5119   0.300   6.398   4.413 -0.0468 -0.0878  0.1200
 1069W        W 5120   5.951   1.505   0.002  0.2034 -0.2424  0.1657
 1070W        W 5121   4.478   5.514   0.986  0.3209  0.2658 -0.0623
 1071W        W 5122   7.977   6.293   2.115  0.0848  0.3436 -0.2205
 1072W        W 5123   5.994   2.649   1.752  0.0666  0.0069 -0.0315
 1073W        W 5124   3.362   6.411  13.939 -0.1118  0.0333 -0.0132
 1074W        W 5125   1.302   4.497  10.837 -0.1784  0.2341 -0.1961
 1075W        W 5126   0.620   7.629   4.753  0.2237 -0.1143 -0.0726
 1076W        W 5127   1.345   4.024   1.164 -0.0529  0.3904 -0.0419
 1077W        W 5128   9.720   6.489   1.174 -0.3454 -0.1734  0.0662
 1078W        W 5129   1.720   6.248  10.846  0.0201  0.1181 -0.1100
 1079W        W 5130   0.403   9.513   1.776 -0.0013  0.3260  0.1057
 1080W        W 5131   7.055   5.062  13.853 -0.0138 -0.0201  0.1312
 1081W        W 5132   7.754   6.036   4.389  0.1870  0.0503  0.0225
 1082W        W 5133   0.446   5.746  12.059  0.0675  0.1012 -0.1447
 1083W        W 5134   0.536   8.186  10.244 -0.2973  0.0217  0.3402
 1084W        W 5135   1.228   4.729  11.344  0.2452 -0.0674  0.0839
 1085W        W 5136   0.497   9.334   0.665 -0.2217  0.0764 -0.0984
 1086W        W 5137   4.564   3.475   3.168 -0.2332 -0.1661 -0.1413
 1087W        W 5138   0.056   8.486  13.672  0.4711 -0.0863 -0.2524
 1088W        W 5139   3.442   3.084  10.558 -0.0463  0.1581 -0.3075
 1089W        W 5140   3.043   7.276   0.730 -0.1031  0.0520 -0.1283
 1090W        W 5141   9.270   3.577  13.550  0.1711  0.2270  0.0909
 1091W        W 5142   2.330   5.361  12.209  0.0994  0.0791 -0.0211
 1092W        W 5143   1.737   1.258   4.148 -0.1491 -0.1104  0.0747
 1093W        W 5144   6.572   6.173   2.149 -0.0094 -0.0251 -0.0002
 1094W        W 5145   9.819   5.890   3.144 -0.0601 -0.2091 -0.2960
 1095W        W 5146   1.512   4.968   9.205  0.1260 -0.1226  0.3219
 1096W        W 5147   4.085   2.294  13.853  0.1544  0.4469  0.0139
 1097W        W 5148   6.700   0.761   0.367  0.1224 -0.0821  0.3451
 1098W        W 5149   8.452   3.757  12.356 -0.1910  0.1831  0.2709
 1099W        W 5150   0.962   5.587   9.952  0.2452 -0.0269 -0.0643
 1100W        W 5151   2.342   2.560  13.845 -0.0368  0.0441 -0.0058
 1101W        W 5152   9.982   0.054   4.127 -0.4156 -0.1864  0.0936
 1102W        W 5153   9.302   5.691   1.935 -0.1302  0.1386 -0.0165
 1103W        W 5154   6.648   7.738  12.688  0.2502  0.2424  0.1065
 1104W        W 5155   2.271   8.310  10.552  0.1511  0.0460  0.0851
 1105W        W 5156   4.072   2.055   3.866  0.0708 -0.1240 -0.1049
 1106W        W 5157   8.759   8.067   9.939  0.1466  0.1414 -0.0112
 1107W        W 5158   2.805   9.019  11.198 -0.1299  0.2241 -0.0402
 1108W        W 5159   5.088   5.879   4.156  0.1903  0.0405 -0.0560
 1109W        W 5160   2.454   4.005   4.884 -0.1283  0.2147  0.2174
 1110W        W 5161   7.099   7.574   0.988  0.2238 -0.2244  0.3924
 1111W        W 5162   7.355   5.373  11.682 -0.2773  0.0523  0.4153
 1112W        W 5163   7.446   8.828   1.680  0.4635  0.0656  0.2500
 1113W        W 5164   2.896   9.169   3.497  0.4415 -0.0174 -0.1681
 1114W        W 5165   4.215   4.218   1.478 -0.1557 -0.3612  0.0289
 1115W        W 5166   4.530   1.396   3.676  0.1676 -0.4739  0.1425
 1116W        W 5167   9.867   8.224   0.634  0.0269 -0.3706  0.2477
 1117W        W 5168   7.733   4.157  10.252  0.0815 -0.1909 -0.2308
 1118W        W 5169   1.919   8.680  10.836 -0.3014 -0.2073  0.3236
 1119W        W 5170   9.150   7.256   4.205 -0.0852 -0.1097 -0.2555
 1120W        W 5171   2.413   7.074   9.851  0.1205  0.0496 -0.3532
 1121W        W 5172   5.070   3.187   0.875 -0.4334  0.1914  0.1194
 1122W        W 5173   6.423   4.485   2.598 -0.0335  0.2043 -0.1324
 1123W        W 5174   2.522   9.760  10.465  0.1305 -0.0936  0.0738
 1124W        W 5175   2.440   1.006   3.515 -0.0710  0.0696  0.0805
 1125W        W 5176   4.020   7.878  12.860  0.0171 -0.1405 -0.3824
 1126W        W 5177   4.262   8.600  12.503 -0.1507  0.1597 -0.0783
 1127W        W 5178   9.514   0.542  12.987 -0.1007  0.1331  0.2859
 1128W        W 5179   3.953   3.415   0.736  0.2209  0.1377 -0.0367
 1129W        W 5180   0.010   2.366  12.550  0.1860 -0.0559  0.1965
 1130W        W 5181   0.074   5.594   4.805  0.2493  0.4557  0.2763
 1131W        W 5182   1.655   3.590  11.082  0.0397  0.0199  0.0986
 1132W        W 5183   4.661   4.666   4.898 -0.1049  0.1860 -0.1385
 1133W        W 5184   0.010   6.466   0.963  0.0532  0.0275 -0.0763
 1134W        W 5185   8.008   9.964   2.913 -0.3360  0.2094 -0.3779
 1135W        W 5186   6.863   3.241   1.932 -0.0778  0.2896  0.3391
 1136W        W 5187   4.372   5.347  10.903  0.1244  0.1527 -0.2097
 1137W        W 5188   9.362   8.378   0.607  0.2601 -0.0179 -0.1043
 1138W        W 5189   0.628   9.706   3.369  0.2715 -0.0536 -0.2903
 1139W        W 5190   2.266   9.338  10.247 -0.1789 -0.0230 -0.1131
 1140W        W 5191   4.029   6.238   9.249 -0.1758 -0.1844 -0.1442
 1141W        W 5192   4.837   6.143   9.446  0.2421 -0.1305 -0.0418
 1142W        W 5193   8.723   7.647  13.687 -0.0947  0.3610  0.0358
 1143W        W 5194   9.247   7.739  12.371  0.1580 -0.0108 -0.2113
 1144W        W 5195   2.554   0.060   9.576  0.1907 -0.1102 -0.0740
 1145W        W 5196  10.075   7.043   4.379  0.0442 -0.1456  0.1355
 1146W        W 5197   7.667   0.655   9.846  0.0088  0.1877 -0.0928
 1147W        W 5198   8.211   2.028   1.153  0.2051  0.1196 -0.0322
 1148W        W 5199   4.491   5.022  12.260  0.2301  0.1267 -0.0962
 1149W        W 5200   1.588   7.447   4.666  0.1394 -0.0997  0.3374
 1150W        W 5201   9.823   0.367  11.376  0.1499 -0.1854 -0.2299
 1151W        W 5202   8.746   2.798  10.548 -0.0402  0.1305  0.2225
 1152W        W 5203   7.308   4.200  11.662  0.1362  0.2785 -0.2361
 1153W        W 5204   1.606   9.959  10.638  0.2518  0.1172  0.0147
 1154W        W 5205   9.787   2.753   1.299  0.1013 -0.2382 -0.0230
 1155W        W 5206   4.513   8.087  12.561 -0.1346 -0.1875 -0.2709
 1156W        W 5207   3.131   9.483  12.496 -0.0739  0.1017 -0.0948
 1157W        W 5208   2.246   8.846   5.448 -0.2391 -0.1195 -0.0287
 1158W        W 5209   1.221   5.475  10.435  0.1216  0.1065 -0.0440
 1159W        W 5210   3.709   1.698  12.041 -0.1138 -0.0123  0.2606
 1160W        W 5211   7.736   8.963   0.202  0.0774 -0.1649 -0.0278
 1161W        W 5212   6.800   3.463   3.999 -0.0727  0.1621  0.0916
 1162W        W 5213   2.985   3.084  12.541  0.0321  0.1456 -0.1140
 1163W        W 5214   6.151   6.248   3.065  0.3542 -0.3326 -0.0382
 1164W        W 5215   6.296   1.654  12.858 -0.1895  0.1522 -0.0218
 1165W        W 5216   4.857   4.895  13.056 -0.0886 -0.2198  0.0643
 1166W        W 5217   5.250   3.586  11.548 -0.1818 -0.2529 -0.0159
 1167W        W 5218   2.112   6.695   4.228 -0.2040 -0.0344 -0.2109
 1168W        W 5219   6.459   5.835   4.635 -0.0035 -0.0272 -0.1986
 1169W        W 5220   9.679   4.119   0.174  0.0073  0.2453  0.1018
 1170W        W 5221   6.233   9.445   9.333  0.2323 -0.0365  0.1636
 1171W        W 5222   1.723  10.098   2.567 -0.0705 -0.1405  0.3486
 1172W        W 5223   9.739   4.941  10.298  0.1453  0.1034 -0.1147
 1173W        W 5224   3.894   6.031   9.714 -0.0133 -0.3454  0.0216
 1174W        W 5225   7.724   6.119   3.881 -0.3693  0.0785 -0.0868
 1175W        W 5226   4.194   3.517  10.972 -0.2580  0.3252  0.2181
 1176W        W 5227   6.186   7.466   0.307  0.3073 -0.2084 -0.0163
 1177W        W 5228   1.770   6.285  13.821  0.0011 -0.1622 -0.1107
 1178W        W 5229   8.011   4.253   2.976 -0.0292  0.0089  0.4139
 1179W        W 5230   2.953   7.109   5.242  0.0774  0.3013 -0.1765
 1180W        W 5231   8.409   1.732  11.765  0.0874  0.0172  0.3172
 1181W        W 5232   5.158   1.114  13.782  0.1562  0.0045  0.1635
 1182W        W 5233   2.393   1.498  10.706 -0.0904  0.0635 -0.1578
 1183W        W 5234   4.515   0.071  12.640  0.0967  0.0820 -0.0435
 1184W        W 5235  10.033   9.539  12.819 -0.4761  0.3234 -0.0146
 1185W        W 5236   7.292   2.520  10.352  0.0731  0.0296 -0.0401
 1186W        W 5237   1.683   6.900   4.180  0.1566 -0.0044 -0.2099
 1187W        W 5238   8.619   1.818   0.084 -0.1718 -0.3666  0.2030
 1188W        W 5239   5.939   6.670  13.594 -0.0650  0.2324 -0.1146
 1189W        W 5240   3.123   2.797  13.949  0.1343 -0.4437 -0.0917
 1190W        W 5241   6.030   7.362   1.321  0.0134  0.1969 -0.1098
 1191W        W 5242   2.957   6.623   3.466  0.1326 -0.2715 -0.0384
 1192W        W 5243   4.808   3.816  11.807 -0.0916 -0.0226 -0.3961
 1193W        W 5244   3.308   8.822   4.165 -0.0998  0.2537  0.1113
 1194W        W 5245   3.410   0.012   4.708 -0.1247 -0.0632  0.0276
 1195W        W 5246   5.097  10.112  12.057  0.2238  0.3364  0.1619
 1196W        W 5247   7.052   8.270   2.165  0.2678  0.1074 -0.1055
 1197W        W 5248   7.814   5.856   0.751  0.1609  0.1973  0.1690
 1198W        W 5249   6.720   0.600  12.861 -0.0122  0.0553  0.0360
 1199W        W 5250   9.832   5.758  11.553  0.1073  0.0245  0.2548
 1200W        W 5251   2.461   1.158   0.609 -0.1175  0.1448 -0.0488
 1201W        W 5252   9.172   9.253   1.073  0.1010  0.2955  0.0128
 1202W        W 5253   8.661   5.879   1.056  0.3605 -0.0469 -0.1730
 1203W        W 5254   1.444   4.963   1.625 -0.1487  0.0845 -0.1169
 1204W        W 5255   0.639   1.258   3.221  0.4017 -0.0962 -0.2453
 1205W        W 5256   4.854   1.203  12.791  0.1563 -0.0877 -0.0557
 1206W        W 5257   1.943   4.804  10.297 -0.1872 -0.1714 -0.0822
 1207W        W 5258   8.929   2.763   0.732  0.0819  0.1812  0.2940
 1208W        W 5259   3.626   0.954  11.221  0.0283  0.0123  0.1315
 1209W        W 5260   1.458   6.574  11.050  0.0399 -0.3142  0.1062
 1210W        W 5261   6.362   8.792   1.129  0.1137  0.1084 -0.3798
 1211W        W 5262   6.353   9.170   4.029  0.2079  0.1358 -0.1630
 1212W        W 5263   8.708   8.658   2.567  0.2271  0.0652 -0.0067
 1213W        W 5264   9.518   9.510   1.451 -0.0856 -0.0623  0.2443
 1214W        W 5265   2.572   6.214   2.099 -0.1218  0.0905 -0.1753
 1215W        W 5266   7.588   9.432   2.226  0.3600 -0.0793  0.1201
 1216W        W 5267   4.883   9.783   1.403  0.1752 -0.0813 -0.1183
 1217W        W 5268   6.926   4.368  13.065  0.1432  0.0742 -0.1503
 1218W        W 5269   3.963   7.956   4.765 -0.2820  0.2373  0.0648
 1219W        W 5270   9.040   2.572  13.868 -0.3059  0.3023  0.3185
 1220W        W 5271   3.478  10.187  10.814 -0.1184  0.0788  0.3748
 1221W        W 5272   8.284   4.572   2.391 -0.1831  0.0306  0.0672
 1222W        W 5273   0.669   7.547  11.200 -0.1683 -0.1116 -0.2403
 1223W        W 5274   7.993   9.525  13.290  0.0685 -0.0359  0.3619
 1224W        W 5275   8.860   4.328   2.485  0.3115 -0.0023 -0.1156
 1225W        W 5276   2.574   3.756  13.144  0.2882 -0.2316  0.3157
 1226W        W 5277   6.248   3.537  12.142  0.3021  0.1141  0.0871
 1227W        W 5278   0.745   3.885  11.419  0.1551  0.0207 -0.2290
 1228W        W 5279   2.568   1.980   1.779 -0.0628  0.0022  0.2923
 1229W        W 5280   8.552   3.274  12.865 -0.0551 -0.3540 -0.0756
 1230W        W 5281   0.282   4.553   0.120 -0.0762 -0.2607  0.3412
 1231W        W 5282   2.130   2.490  12.196 -0.0265 -0.2029  0.1185
 1232W        W 5283   1.983   6.586   2.709  0.3098 -0.0432  0.0377
 1233W        W 5284   8.040   2.980   2.947  0.1530  0.2511 -0.0297
 1234W        W 5285   4.686   8.959  12.264  0.0968  0.0294  0.0602
 1235W        W 5286   1.024   7.961   8.846  0.1102  0.0287 -0.4493
 1236W        W 5287   8.958   5.999  13.341 -0.0253  0.0021  0.2306
 1237W        W 5288   0.595   5.681   9.560  0.3689 -0.1832 -0.0020
 1238W        W 5289   0.439   4.711  11.731 -0.1611  0.0792  0.1519
 1239W        W 5290   2.277   2.731   2.373  0.1534  0.1157 -0.2095
 1240W        W 5291   0.400   7.949   4.108 -0.2450  0.0477 -0.3102
 1241W        W 5292   4.752   6.562   5.486 -0.2293  0.0270  0.0257
 1242W        W 5293   6.014   1.737   3.745  0.0536  0.2349  0.0212
 1243W        W 5294   3.378   4.107   1.963  0.2944 -0.0975  0.0424
 1244W        W 5295   4.101   3.393  10.138  0.1243 -0.0432  0.1705
 1245W        W 5296   6.043   4.873   2.373 -0.0960 -0.0220  0.1996
 1246W        W 5297   1.166   5.859   3.741 -0.1257 -0.1691  0.0700
 1247W        W 5298   2.016   2.417   4.270 -0.1127 -0.1403 -0.0386
 1248W        W 5299   2.863   8.405   0.091 -0.1860 -0.1092  0.2099
 1249W        W 5300   1.283   7.030  13.590  0.0889  0.0331  0.2157
 1250W        W 5301   0.063   6.305   9.876 -0.3204 -0.2627  0.2495
 1251W        W 5302   8.704   4.189  12.444 -0.0040 -0.1798  0.4281
 1252W        W 5303   1.011   3.206  11.281  0.0983 -0.0025  0.0668
 1253W        W 5304   4.712   8.545   0.281  0.3789 -0.3317 -0.1388
 1254W        W 5305   3.577   8.323   4.132 -0.2633 -0.0481  0.1364
 1255W        W 5306   4.741   8.417   2.849 -0.0539  0.0614  0.0986
 1256W        W 5307   9.638   7.495   0.352 -0.0299  0.1977  0.0773
 1257W        W 5308   9.778   1.483   3.425 -0.2001 -0.3972  0.0334
 1258W        W 5309   2.345   1.962  11.636  0.0603 -0.2364 -0.2223
 1259W        W 5310   9.671   2.659  10.828 -0.1138  0.1695  0.0806
 1260W        W 5311   7.124   3.944   2.339  0.0109  0.2738  0.1280
 1261W        W 5312   3.997   2.501   0.593 -0.0625  0.0478 -0.0633
 1262W        W 5313   4.133   6.097  12.496 -0.1213 -0.0175 -0.0434
 1263W        W 5314   0.026   4.144   3.799 -0.0420  0.0091  0.0791
 1264W        W 5315   5.557   5.352   3.690  0.1616  0.2085 -0.1629
 1265W        W 5316  10.097   8.702   4.036 -0.1704  0.2189  0.0073
 1266W        W 5317   1.447   8.355   0.929  0.0001 -0.0992  0.2847
 1267W        W 5318  10.024   5.911   3.673 -0.0390 -0.0146 -0.0515
 1268W        W 5319   0.376   5.648   4.342 -0.2685  0.3047  0.0258
 1269W        W 5320   0.243   9.138   2.535 -0.2642 -0.0641 -0.1411
 1270W        W 5321   0.333   5.227   3.068 -0.3619  0.0710  0.1275
 1271W        W 5322   8.465   5.562  12.707  0.0241  0.0977 -0.0576
 1272W        W 5323   1.566   2.599   4.114  0.0969  0.2788  0.0271
 1273W        W 5324   2.054   5.571   9.741 -0.0740 -0.2062  0.1390
 1274W        W 5325   9.615   4.945   0.612 -0.0560  0.1095  0.2201
 1275W        W 5326   0.825   2.085  11.705 -0.3112  0.0123  0.0256
 1276W        W 5327   6.482   1.283  11.375  0.0808 -0.0464  0.0305
 1277W        W 5328   4.042   7.112   3.745 -0.2502 -0.0349 -0.0435
 1278W        W 5329   5.682   1.100   4.296  0.2400 -0.0514 -0.0349
 1279W        W 5330   7.591   4.963   1.288 -0.0961  0.1487 -0.0870
 1280W        W 5331   2.495   8.860   1.714 -0.0215 -0.0014  0.0273
 1281W        W 5332   7.953   9.675  12.761  0.0555  0.2514 -0.1172
 1282W        W 5333   9.434   4.250   4.010  0.1704  0.1078  0.0907
 1283W        W 5334   2.808   0.730  10.984 -0.1525  0.6041 -0.2379
 1284W        W 5335   5.688   7.162   2.739  0.2107  0.3734  0.1254
 1285W        W 5336   2.425   7.833  10.380 -0.1773  0.0722  0.0018
 1286W        W 5337   5.070   3.172   1.822  0.0726  0.1888 -0.1913
 1287W        W 5338   6.650   7.780   0.164  0.1694 -0.3675  0.0899
 1288W        W 5339   9.183   6.914  12.131  0.1240 -0.0327 -0.0995
 1289W        W 5340   3.650   1.387   8.599 -0.2488  0.0526 -0.0339
 1290W        W 5341   9.917   1.116   3.799  0.0464  0.1005  0.0674
 1291W        W 5342   4.693   8.789   4.108  0.0796 -0.0408  0.0389
 1292W        W 5343   0.729   9.033  12.892 -0.3340  0.2369 -0.2246
 1293W        W 5344   3.097   3.225   3.112 -0.1844 -0.4177  0.2287
 1294W        W 5345   4.843   0.702   4.493  0.3703  0.1199 -0.0242
 1295W        W 5346   1.142   2.662  10.065 -0.1583  0.0930 -0.4510
 1296W        W 5347   6.691   4.772   4.246  0.0576  0.2805  0.2035
 1297W        W 5348   9.933   8.301   4.276 -0.0576  0.0763 -0.1768
 1298W        W 5349   9.379   1.608  10.802 -0.3464 -0.2500 -0.2196
 1299W        W 5350   5.041   1.457   9.815  0.4056  0.4368  0.1146
 1300W        W 5351   4.358   8.880   1.203 -0.2821 -0.1853  0.1952
 1301W        W 5352   6.295   2.088   3.482  0.2576  0.3585  0.3117
 1302W        W 5353   0.122   8.434   2.289  0.0546  0.0193 -0.0150
 1303W        W 5354   6.610   9.501   1.825  0.1216 -0.0768 -0.1779
 1304W        W 5355   9.218   0.348   9.037 -0.2843  0.0366 -0.0130
 1305W        W 5356   2.117   6.852   3.131  0.1772  0.2595  0.2381
 1306W        W 5357   8.659   1.559   1.604 -0.1538 -0.0578 -0.0600
 1307W        W 5358   0.151   5.070  13.861  0.0162  0.0347  0.1819
 1308W        W 5359   8.104   2.304  12.431  0.1731 -0.0246  0.1364
 1309W        W 5360   3.513   1.866  11.579  0.2494  0.0181 -0.0425
 1310W        W 5361   5.535   2.424   3.326  0.1492 -0.2119 -0.1593
 1311W        W 5362   1.927   4.066  11.957  0.0281 -0.3128 -0.2546
 1312W        W 5363   1.636   8.872  12.299  0.4216  0.1879  0.2681
 1313W        W 5364   9.113   4.324  11.782  0.1183 -0.3321 -0.2162
 1314W        W 5365   5.050   6.866  10.120  0.2572 -0.2059  0.0703
 1315W        W 5366   1.306   6.304  11.829  0.0686  0.2426 -0.1698
 1316W        W 5367   7.516   9.372   1.583  0.1358 -0.0634 -0.0012
 1317W        W 5368   7.467   6.402   4.668  0.2697 -0.1475 -0.2207
 1318W        W 5369   8.662   9.765   2.645  0.1071 -0.0686 -0.0704
 1319W        W 5370   2.027   0.339   0.281  0.0308  0.1786  0.3449
 1320W        W 5371   5.213   7.248   4.505 -0.0352  0.1848 -0.0871
 1321W        W 5372   1.626   9.011   0.286  0.0678 -0.2747 -0.3150
 1322W        W 5373   8.157   1.768   0.127 -0.0885  0.0129 -0.0198
 1323W        W 5374   8.989   6.184  11.605  0.3220  0.4393  0.3147
 1324W        W 5375   2.995   1.956   9.272  0.0913  0.0926  0.1007
 1325W        W 5376   1.907   4.482   3.441 -0.0530  0.0748  0.0943
 1326W        W 5377   8.153   5.476   0.613  0.0189  0.2680  0.1240
 1327W        W 5378   5.322   7.961  11.270  0.1050  0.1078  0.0570
 1328W        W 5379   8.173   0.987   4.457  0.1056 -0.0854  0.3475
 1329W        W 5380   7.029   4.625  10.152  0.0297  0.0433 -0.0448
 1330W        W 5381   1.604   2.107   4.298  0.2095 -0.0332  0.0240
 1331W        W 5382   7.804   9.992  10.352 -0.1890  0.2235  0.0117
 1332W        W 5383   6.660   3.454   3.432  0.0615 -0.0606  0.1152
 1333W        W 5384   6.770   4.879  10.534 -0.1980 -0.0179  0.0821
 1334W        W 5385   0.205   1.729  12.898 -0.2393  0.0079  0.0302
 1335W        W 5386   7.466   1.790  11.184  0.1841 -0.2046 -0.1078
 1336W        W 5387   8.649   5.624  11.640 -0.0968  0.0036 -0.1814
 1337W        W 5388   5.004   5.613   3.104  0.0259 -0.4883  0.0276
 1338W        W 5389   6.320   3.374  13.414  0.3061 -0.2397  0.1696
 1339W        W 5390   1.773   4.846  10.961  0.1103 -0.1173 -0.4403
 1340W        W 5391   8.461   8.980   1.647 -0.1105  0.3762  0.1138
 1341W        W 5392   2.475   6.577   3.864  0.3133 -0.0285  0.1079
 1342W        W 5393   1.089   8.947  13.712  0.1200 -0.0533  0.1383
 1343W        W 5394   0.793   3.074  10.863 -0.0256 -0.3237 -0.2736
 1344W        W 5395   7.216   7.742  10.227  0.1349 -0.0437  0.0567
 1345W        W 5396   3.182   1.900   2.655  0.2001  0.1583  0.0173
 1346W        W 5397   3.093   0.511  13.259 -0.0404 -0.0173 -0.0589
 1347W        W 5398   3.451   9.082   2.810  0.2506 -0.1293  0.0597
 1348W        W 5399   9.166   4.114  12.747 -0.0575  0.2272  0.0666
 1349W        W 5400   6.186   0.290   1.838  0.0163  0.0903  0.0392
 1350W        W 5401   3.422   0.183   3.500  0.0457 -0.0452  0.0770
 1351W        W 5402   6.148   7.794   3.951  0.0280 -0.0962  0.2099
 1352W        W 5403   0.876   2.445   9.681  0.0903 -0.1186  0.0237
 1353W        W 5404   5.465   7.618   2.509  0.1097 -0.1296 -0.0356
 1354W        W 5405   2.411   0.566   0.445 -0.0169 -0.0038 -0.1792
 1355W        W 5406   0.082   5.989   2.237  0.0662 -0.1013  0.0682
 1356W        W 5407   6.585   6.150   3.872 -0.1532  0.0249 -0.1094
 1357W        W 5408   0.197   7.617   7.939  0.0811  0.2592 -0.1110
 1358W        W 5409   3.841   3.327   9.634  0.0705  0.1297 -0.3461
 1359W        W 5410   9.547   0.358   1.981  0.2567 -0.2243 -0.0304
 1360W        W 5411   2.011   0.501   3.817  0.0715  0.0234 -0.0451
 1361W        W 5412   3.856   0.428   1.790  0.2794 -0.2348  0.3694
 1362W        W 5413   2.386   6.083  10.086 -0.1777 -0.1181 -0.1234
 1363W        W 5414   2.259   5.537   3.842 -0.1352 -0.1248  0.3176
 1364W        W 5415   5.604   7.057   3.213 -0.1459 -0.0393  0.1770
 1365W        W 5416   9.031   4.245   4.367  0.0356 -0.0513  0.0395
 1366W        W 5417   9.075   9.873   5.593 -0.1315 -0.0182 -0.0706
 1367W        W 5418   9.188   7.393  11.955 -0.2771 -0.1877 -0.0998
 1368W        W 5419   6.111   8.576   9.509 -0.2551 -0.1029  0.1286
 1369W        W 5420   8.212   0.527   0.830 -0.1285 -0.1375  0.0882
 1370W        W 5421   7.049   3.214  11.622 -0.2347  0.4040 -0.1004
 1371W        W 5422   3.562   9.620   0.169 -0.5128 -0.0089  0.1932
 1372W        W 5423   5.985   9.299   4.784 -0.3156 -0.3940  0.1727
 1373W        W 5424   3.398   9.792  11.171  0.1390  0.2030  0.1414
 1374W        W 5425   6.039   7.018  12.619  0.1019  0.1471  0.1642
 1375W        W 5426   8.148   1.931   1.633 -0.1965  0.2253  0.0070
 1376W        W 5427   8.286   8.252  13.780  0.1251  0.0459 -0.0779
 1377W        W 5428   3.015   5.302   0.910 -0.1435  0.2127 -0.0271
 1378W        W 5429   1.790   0.838  11.430 -0.0546  0.0810  0.0385
 1379W        W 5430   4.624   7.847   9.116  0.2492 -0.1639  0.0396
 1380W        W 5431   4.988   6.751   9.235  0.1123  0.3333 -0.0642
 1381W        W 5432   3.210   6.238  11.449  0.1017  0.2291  0.1411
 1382W        W 5433   4.757   2.544  12.815 -0.2504  0.2534 -0.1178
 1383W        W 5434   0.826   5.714  13.598 -0.1754  0.2640  0.1458
 1384W        W 5435   0.733   4.524   3.717  0.1675  0.0645  0.1012
 1385W        W 5436   2.869   3.633   9.613 -0.1032 -0.2033 -0.4323
 1386W        W 5437   2.022   5.877  12.306 -0.0719 -0.1423 -0.1965
 1387W        W 5438   6.200   2.479  13.847  0.0199 -0.0182 -0.0082
 1388W        W 5439   1.194   3.661  10.320  0.1389  0.0625  0.0025
 1389W        W 5440   3.850   6.387   2.705  0.1084 -0.1146  0.0520
 1390W        W 5441   8.440   9.155   9.414  0.2999  0.1059 -0.1775
 1391W        W 5442   0.152   1.226  10.578 -0.1758 -0.0821 -0.0311
 1392W        W 5443   6.168   9.887  12.165 -0.1327 -0.2156  0.2484
 1393W        W 5444   2.264   8.426   4.268 -0.2453 -0.0537 -0.1287
 1394W        W 5445   6.597   9.984   1.521 -0.0327 -0.2710 -0.1569
 1395W        W 5446   1.534   1.462  13.102  0.3364  0.3345  0.1296
 1396W        W 5447   0.654   1.852   4.038  0.1495  0.3709  0.0415
 1397W        W 5448   8.583   6.809  13.308 -0.0612  0.3403 -0.5962
 1398W        W 5449   4.643   4.447   2.304 -0.1440 -0.1984  0.1142
 1399W        W 5450   7.384   6.330  12.633  0.0398  0.1253 -0.2208
 1400W        W 5451   6.353   9.140  11.255 -0.1083 -0.1518  0.4130
 1401W        W 5452   6.609   4.230  12.658 -0.1296 -0.2371  0.0484
 1402W        W 5453   7.078   7.944  12.513  0.0273 -0.1241 -0.1480
 1403W        W 5454   8.281   0.335  13.284 -0.0078  0.0853  0.0140
 1404W        W 5455   4.852   1.457  13.880  0.0097 -0.1156 -0.1664
 1405W        W 5456   5.237   5.109   3.353 -0.1451 -0.1145  0.2265
 1406W        W 5457   0.147   7.852  10.068  0.2086  0.0323 -0.0432
 1407W        W 5458   0.060   2.373  11.423  0.0504 -0.1566 -0.1635
 1408W        W 5459   0.734   8.861   9.683  0.2752 -0.0351 -0.0388
 1409W        W 5460   9.919   4.467   0.534 -0.0823 -0.0155  0.0034
 1410W        W 5461   9.616   6.707  12.456  0.0438  0.0086  0.0503
 1411W        W 5462   1.940   5.439   3.484  0.1805 -0.2091  0.2245
 1412W        W 5463   8.296   1.877  12.232  0.0165  0.0819  0.1367
 1413W        W 5464   9.659   8.718  11.523 -0.2110 -0.1587  0.3276
 1414W        W 5465   9.287   2.762  12.091  0.0202 -0.2887  0.2335
 1415W        W 5466   9.148   7.916  13.641 -0.1224 -0.0822  0.2281
 1416W        W 5467   8.723   9.078  13.726 -0.1816  0.0334  0.1699
 1417W        W 5468   1.841   4.472  13.203 -0.2452  0.0725 -0.0848
 1418W        W 5469   8.949   5.944  11.176  0.1640  0.3985  0.0759
 1419W        W 5470   8.969   7.389   3.104  0.1353  0.0959 -0.0800
 1420W        W 5471   6.985   7.136   4.904  0.0159  0.0679  0.3744
 1421W        W 5472   6.173   8.620   1.851 -0.1121 -0.0864 -0.0149
 1422W        W 5473   7.520   4.987   3.925 -0.1583  0.3400  0.0082
 1423W        W 5474   0.015   1.340  13.911 -0.0943  0.2574  0.1404
 1424W        W 5475   5.385   1.899  13.089 -0.0122 -0.0140 -0.1760
 1425W        W 5476   7.878   4.491  10.686  0.0612 -0.0198  0.2492
 1426W        W 5477   0.931   0.775  13.429 -0.0390 -0.2432 -0.4868
 1427W        W 5478  10.031   7.249  10.394  0.1799  0.2001  0.0678
 1428W        W 5479   1.807   5.463   2.378  0.0757 -0.0094  0.3685
 1429W        W 5480  10.177   1.986   1.565  0.4643  0.0760  0.2485
 1430W        W 5481   1.297   0.089  12.672 -0.2768 -0.0103 -0.3633
 1431W        W 5482   2.535   6.415   4.329  0.0282  0.0326 -0.3132
 1432W        W 5483   3.214   2.591   3.889  0.0541  0.0545  0.1062
 1433W        W 5484   9.759   9.753   2.687 -0.1004  0.2335 -0.1382
 1434W        W 5485   2.953   9.294   4.998  0.0054 -0.0427 -0.2157
 1435W        W 5486   5.301   4.230   9.670  0.1408  0.2043  0.2356
 1436W        W 5487   2.712   5.804  13.437  0.2352 -0.1511 -0.1340
 1437W        W 5488   8.424   6.133   2.301 -0.3879 -0.2714 -0.2942
 1438W        W 5489   7.002   8.113  10.025  0.0939 -0.0249 -0.0221
 1439W        W 5490   4.014   0.915  13.718 -0.3485  0.0071  0.4187
 1440W        W 5491   1.089   8.756   0.157  0.2365  0.2047  0.0483
 1441W        W 5492   2.526   8.103   9.986 -0.1328 -0.0948  0.0548
 1442W        W 5493   8.272   7.339   3.809 -0.2171  0.3112 -0.2954
 1443W        W 5494   1.947   9.565   9.889 -0.0398 -0.3029 -0.4109
 1444W        W 5495   4.317   6.271   0.383  0.1176  0.0324  0.0461
 1445W        W 5496   2.465   2.989   1.426  0.0531 -0.1153  0.0523
 1446W        W 5497   4.353   0.408  10.730 -0.0114 -0.1361 -0.1863
 1447W        W 5498   0.436   8.019   8.692  0.2612 -0.1782  0.0082
 1448W        W 5499   0.181   8.131   9.113  0.0618 -0.0211 -0.2488
 1449W        W 5500   1.809   4.927   3.318  0.0623  0.1077 -0.0322
 1450W        W 5501   6.610   9.916  13.570 -0.1844  0.4194 -0.3403
 1451W        W 5502   5.708   9.621  11.640 -0.0813 -0.5593 -0.1885
 1452W        W 5503   0.379   6.540   1.332  0.0810 -0.1611 -0.0280
 1453W        W 5504   0.426   8.522   0.740 -0.0055 -0.3148 -0.1385
 1454W        W 5505   8.311   9.205  10.657  0.2215 -0.2785 -0.2984
 1455W        W 5506   5.029   2.001  12.674  0.1885  0.3858 -0.0391
 1456W        W 5507   2.896   0.379   9.373 -0.1855 -0.1938 -0.2232
 1457W        W 5508   8.729   0.330   0.814 -0.1046  0.0792 -0.1861
 1458W        W 5509   8.837   8.560   8.830 -0.1460 -0.0868 -0.1786
 1459W        W 5510   0.530   6.044   4.051  0.0833 -0.0392  0.1279
 1460W        W 5511   4.800   1.317   4.102 -0.0274 -0.0814  0.2129
 1461W        W 5512   8.278   7.154   0.583 -0.1904  0.2415  0.1371
 1462W        W 5513   1.996   7.670   4.621 -0.1063  0.0042 -0.1562
 1463W        W 5514   8.860   1.074  10.807 -0.1018 -0.0742  0.1408
 1464W        W 5515   4.710   0.968   0.142 -0.3892 -0.1650 -0.0931
 1465W        W 5516   2.949   4.245   0.561 -0.0161  0.0912 -0.1532
 1466W        W 5517   1.899   9.163   2.499  0.0392 -0.0766 -0.0656
 1467W        W 5518   3.036  10.003   1.931  0.3878  0.3860  0.0758
 1468W        W 5519   8.919   5.815  12.563 -0.1051  0.0498 -0.1789
 1469W        W 5520   3.743   5.602  12.082  0.0626  0.4049  0.0861
 1470W        W 5521   3.993   7.400   2.143 -0.0202 -0.0512 -0.0050
 1471W        W 5522   7.373   2.435  13.866  0.0861 -0.0227  0.3936
 1472W        W 5523   9.231   9.907   2.710  0.1573 -0.2754 -0.1305
 1473W        W 5524   5.480   9.567  13.947 -0.0187 -0.1791 -0.0441
 1474W        W 5525   0.676   0.847   3.493 -0.0624 -0.0024  0.0661
 1475W        W 5526   6.284   3.847  12.544  0.1206 -0.0661  0.0041
 1476W        W 5527   5.555   6.602   3.017  0.3194 -0.1387  0.1378
 1477W        W 5528   6.255   9.067  13.897  0.1268  0.0989  0.1756
 1478W        W 5529   3.277   9.832  10.259  0.1927  0.0186 -0.2219
 1479W        W 5530   6.456   1.481   0.949 -0.1873 -0.0383  0.0223
 1480W        W 5531   1.053   5.618   4.815  0.0032 -0.3596 -0.2661
 1481W        W 5532   8.632   4.962   1.668  0.1630  0.1885 -0.1205
 1482W        W 5533   7.071   0.973   1.306 -0.1368  0.1446 -0.0046
 1483W        W 5534   1.229   8.851   9.793 -0.0947  0.0379  0.3665
 1484W        W 5535   1.950   8.460   0.666  0.0147  0.0641  0.0291
 1485W        W 5536   8.677   7.984  10.609  0.1629  0.0191 -0.0423
 1486W        W 5537   2.502   8.628   4.682  0.5340 -0.0284  0.2118
 1487W        W 5538   8.265   6.345   9.800  0.1853  0.0033 -0.1633
 1488W        W 5539   4.202   3.743   2.954 -0.2614 -0.0534  0.0040
 1489W        W 5540   4.970   5.508   4.529 -0.0222  0.2756 -0.2351
 1490W        W 5541   0.849   8.078   3.250  0.0730 -0.0002 -0.3468
 1491W        W 5542   0.182   5.389   0.644 -0.2194 -0.0188 -0.1449
 1492W        W 5543   8.297   5.386   1.181  0.3830 -0.1475  0.1041
 1493W        W 5544   5.221   5.187  10.519 -0.4918 -0.3569  0.2454
 1494W        W 5545   9.852   8.537  10.554 -0.0439  0.2124 -0.3882
 1495W        W 5546   2.916   0.701  11.514  0.0028  0.0674 -0.2831
 1496W        W 5547   2.640   9.664   2.755  0.0709 -0.0781  0.1361
 1497W        W 5548   9.108   5.284  10.015  0.0297 -0.1415  0.0668
 1498W        W 5549   4.791   6.924   0.369 -0.1063  0.2754  0.0210
 1499W        W 5550   0.433   1.478  12.418  0.1211 -0.0168  0.0028
 1500W        W 5551   7.939   0.307   1.804 -0.0060  0.1470  0.3083
 1501W        W 5552   3.610   9.180  11.597 -0.0165 -0.1472 -0.2111
 1502W        W 5553   8.053   9.790  13.686 -0.1509 -0.3180 -0.1313
 1503W        W 5554   2.821   9.804   4.186  0.1185 -0.1627  0.0109
 1504W        W 5555   5.329   0.638   2.182  0.1263 -0.1314  0.3642
 1505W        W 5556   9.650   5.723   0.126 -0.1460 -0.2956 -0.2157
 1506W        W 5557   2.684   0.729  13.615  0.0219  0.2552  0.0646
 1507W        W 5558   1.575   3.274  12.397 -0.1190  0.1046 -0.0912
 1508W        W 5559   6.913   2.217   3.222  0.1000  0.1752  0.2202
 1509W        W 5560   2.389   2.137  10.454  0.1965 -0.1067 -0.1719
 1510W        W 5561   9.240   8.339  13.343 -0.3126 -0.3686  0.1229
 1511W        W 5562   3.589   3.712   9.349 -0.1113  0.0028 -0.0801
 1512W        W 5563   4.603   5.691   1.746 -0.0603  0.0085 -0.0639
 1513W        W 5564   3.129  10.101   1.295 -0.0234  0.0304 -0.0112
 1514W        W 5565   2.950   9.640   3.647  0.0454  0.1432  0.2145
 1515W        W 5566   3.508   0.974   3.637  0.0174  0.0400  0.2228
 1516W        W 5567   2.118   0.727   3.261  0.1706  0.0219 -0.0188
 1517W        W 5568   2.323   5.207   9.565 -0.1896 -0.3849  0.1726
 1518W        W 5569   6.115   6.243  11.853 -0.1852 -0.1446  0.2186
 1519W        W 5570   6.122   1.112   1.893  0.2571  0.2798 -0.0313
 1520W        W 5571   9.927   8.042   5.098  0.0745  0.0129 -0.3877
 1521W        W 5572   1.641   6.193   0.379  0.1640 -0.1122 -0.1746
 1522W        W 5573   5.921   3.837   4.757  0.1343  0.2439  0.3878
 1523W        W 5574   4.398   8.822   1.712 -0.2238  0.1210  0.1237
 1524W        W 5575   7.133   7.817  13.722  0.1426 -0.2473 -0.3859
 1525W        W 5576   3.665   7.453   3.714  0.3254  0.1388 -0.6051
 1526W        W 5577   0.135   2.801  11.660  0.0476 -0.2985 -0.1369
 1527W        W 5578   7.926   6.266  11.974  0.1285 -0.1344  0.0804
 1528W        W 5579   0.026   5.588  12.285  0.0665 -0.2003 -0.0471
 1529W        W 5580  10.151   0.260  10.968 -0.2856 -0.0415  0.1278
 1530W        W 5581   9.591   7.574   9.655  0.0942  0.0910  0.0176
 1531W        W 5582   6.535   7.334   4.616 -0.2248 -0.1970 -0.1185
 1532W        W 5583   0.126   7.570   2.900  0.1134 -0.2147  0.2868
 1533W        W 5584   2.156   8.748   3.312  0.1441 -0.0612  0.2515
 1534W        W 5585   9.369   8.462  11.851  0.0789  0.4044  0.3171
 1535W        W 5586   7.692   4.181   4.527 -0.0984 -0.1338  0.0609
 1536W        W 5587   6.673   2.477   3.574  0.4549 -0.1940  0.2104
 1537W        W 5588   1.587   7.719  11.693  0.1038 -0.0608  0.0271
 1538W        W 5589   1.387   7.449   2.027  0.3841  0.0476 -0.3761
 1539W        W 5590   0.462   3.672   0.576 -0.3173  0.1615 -0.0366
 1540W        W 5591   0.079   8.704   5.497 -0.0351  0.2557 -0.0793
 1541W        W 5592   3.844   4.806   0.697 -0.2178 -0.1808 -0.0988
 1542W        W 5593   0.312   9.784   0.631 -0.2222 -0.3689  0.1392
 1543W        W 5594   7.516   5.454  12.185  0.0814  0.1267  0.0162
 1544W        W 5595   7.750  10.013   4.364  0.0160  0.2002 -0.2595
 1545W        W 5596   6.717   7.041  13.822 -0.1126 -0.2492  0.2358
 1546W        W 5597   4.111   8.445  11.184 -0.2166 -0.1546 -0.1932
 1547W        W 5598   9.811   1.213  12.041 -0.0639  0.2341  0.2110
 1548W        W 5599   1.762   0.890   0.097 -0.0780  0.0231  0.1117
 1549W        W 5600   6.655   1.600   0.140 -0.0919  0.2083 -0.0168
 1550W        W 5601   9.513   3.188   1.238  0.2203 -0.1274  0.1564
 1551W        W 5602   2.459   1.439   2.653 -0.1987 -0.0956  0.0775
 1552W        W 5603   5.772   4.567  13.907 -0.3792  0.0643 -0.1990
 1553W        W 5604   4.140   2.378  11.729 -0.1369  0.2013 -0.1132
 1554W        W 5605  10.002   6.713  12.794  0.0062  0.0702  0.0770
 1555W        W 5606   4.181   3.862   0.918  0.0390 -0.0279 -0.1706
 1556W        W 5607   4.977   9.070  13.009  0.1260  0.1449 -0.0142
 1557W        W 5608   4.544   9.307   0.020  0.1589 -0.0115  0.1441
 1558W        W 5609   5.521   2.080   1.181  0.0922 -0.1425  0.1043
 1559W        W 5610   4.542   0.317   0.813 -0.1116 -0.0834  0.0366
 1560W        W 5611   8.606   7.120   2.835 -0.2232  0.0464  0.2423
 1561W        W 5612   6.390   0.473   0.891 -0.2446  0.0597 -0.0453
 1562W        W 5613   3.649   7.890  11.551 -0.2270  0.0674  0.3463
 1563W        W 5614   9.957   3.143   2.595 -0.0361  0.1250 -0.2227
 1564W        W 5615   6.879   3.031   0.393 -0.0091  0.3016 -0.2136
 1565W        W 5616   6.535   0.153  12.559  0.5066  0.1186  0.0366
 1566W        W 5617   7.877   2.996  11.399  0.3380 -0.0344 -0.3750
 1567W        W 5618   2.388   4.342  12.003 -0.3221 -0.0515 -0.0181
 1568W        W 5619   2.018   1.645   3.653  0.0431  0.3137 -0.1816
 1569W        W 5620   3.606   4.662  10.510 -0.1806  0.2732 -0.0995
 1570W        W 5621   5.847   7.975   4.280  0.1580 -0.1655 -0.1456
 1571W        W 5622   8.130   0.542   2.236 -0.1376  0.1583  0.2824
 1572W        W 5623   2.613   1.226   1.135  0.0594  0.1962  0.0661
 1573W        W 5624   4.168   8.633   2.865  0.4393  0.1186 -0.0261
 1574W        W 5625   6.339   9.149  10.737  0.1021 -0.1106  0.0181
 1575W        W 5626   1.760   9.627   2.774  0.0385 -0.0488 -0.3680
 1576W        W 5627   3.847   5.013  11.085 -0.0486  0.0606  0.0279
 1577W        W 5628   4.606   3.992   3.148  0.0990 -0.0821 -0.0831
 1578W        W 5629   5.982   8.865  13.071  0.0097 -0.0989 -0.0423
 1579W        W 5630   8.202   6.291  10.267 -0.2877  0.0778  0.3984
 1580W        W 5631   1.450   0.806   0.488 -0.1876  0.1304  0.0618
 1581W        W 5632   6.747   5.868   5.360 -0.2835 -0.1073 -0.0926
 1582W        W 5633   1.246   5.387  12.349 -0.0572 -0.3617 -0.0198
 1583W        W 5634   3.566   9.623  11.691  0.1306 -0.1618  0.1293
 1584W        W 5635   5.789   1.784  10.327  0.1159 -0.0695  0.1413
 1585W        W 5636   0.310   0.465  10.651  0.1650 -0.0383 -0.0991
 1586W        W 5637   1.616   4.096   3.534 -0.2068 -0.0467 -0.0709
 1587W        W 5638   3.533   1.093   1.759 -0.0699 -0.0018  0.1787
 1588W        W 5639   5.107  10.111   1.991 -0.0087  0.1638 -0.1583
 1589W        W 5640   8.586   7.184   3.462 -0.0215  0.1520  0.1421
 1590W        W 5641   2.481   4.530   9.929  0.1489 -0.0706 -0.0206
 1591W        W 5642   2.907   7.140  11.333  0.1239  0.0182 -0.0844
 1592W        W 5643   0.585   5.289  13.726 -0.1538  0.0770 -0.0003
 1593W        W 5644   6.612   4.729  11.508  0.1816 -0.0504  0.1314
 1594W        W 5645   4.602   3.091   0.874  0.0588 -0.0386 -0.2926
 1595W        W 5646   5.918   6.568  11.012 -0.1996  0.0245  0.0479
 1596W        W 5647   8.656   7.710   9.011 -0.0942 -0.3006 -0.0233
 1597W        W 5648   8.207   8.373   3.299  0.0550 -0.0457  0.2918
 1598W        W 5649  10.018   0.431   4.494 -0.3085 -0.1046 -0.0052
 1599W        W 5650   5.928   5.169   9.926  0.0730  0.2854 -0.0177
 1600W        W 5651   2.159   6.886  10.228 -0.0896 -0.3191 -0.0582
 1601W        W 5652   0.537   1.026  10.850  0.3008  0.0278  0.0067
 1602W        W 5653   1.508   1.999   9.681 -0.0765  0.0012 -0.2588
 1603W        W 5654   9.257   6.132   2.144 -0.0884  0.1339  0.0490
 1604W        W 5655   5.281   4.094  11.627  0.1921  0.0740 -0.1932
 1605W        W 5656   8.631   9.652  11.427 -0.1777 -0.2130  0.0525
 1606W        W 5657   3.566   5.429   5.489  0.0378 -0.1008  0.0805
 1607W        W 5658   3.986   4.586  10.857  0.2437 -0.2931  0.1032
 1608W        W 5659   0.168   4.109   2.415 -0.0187 -0.0826  0.2170
 1609W        W 5660   7.640   3.498   3.925 -0.1153 -0.0329  0.1047
 1610W        W 5661   9.159   3.376   0.032 -0.0953 -0.3402 -0.1550
 1611W        W 5662   8.954   8.349   0.962 -0.0623 -0.2576 -0.0171
 1612W        W 5663   5.354   9.137   0.929 -0.2494 -0.2898  0.4143
 1613W        W 5664   3.152   1.674   0.724  0.0434  0.1299  0.0497
 1614W        W 5665   2.384   6.079  12.595  0.0475 -0.2348 -0.0916
 1615W        W 5666   9.107   7.509   0.653 -0.1338  0.1407 -0.0834
 1616W        W 5667   5.304   3.572   3.936  0.2768  0.1910  0.2398
 1617W        W 5668   5.340   2.943  12.571 -0.1447  0.0358 -0.2697
 1618W        W 5669   8.232   9.922  13.158  0.2900 -0.2236  0.0429
 1619W        W 5670   0.524   2.620   4.536  0.3857  0.1264 -0.2315
 1620W        W 5671   1.207   2.604   3.732 -0.0715 -0.2111 -0.2674
 1621W        W 5672   1.800   0.106  12.588  0.2528  0.0728  0.0048
 1622W        W 5673   6.231   5.046  11.462 -0.2497 -0.0425 -0.2373
 1623W        W 5674   7.238   0.466  12.497 -0.0554  0.2645  0.1011
 1624W        W 5675   4.247   6.651   4.749 -0.1240 -0.3196 -0.3934
 1625W        W 5676   2.794   9.803   9.629  0.3012 -0.1002  0.0588
 1626W        W 5677   8.457   5.102   2.310  0.1132  0.1940 -0.0769
 1627W        W 5678   4.141   4.125   0.051 -0.2000  0.0204  0.1604
 1628W        W 5679   0.188   8.729   3.228  0.2044 -0.1367 -0.0555
 1629W        W 5680   8.103   1.638   2.305 -0.0011  0.3799  0.4305
 1630W        W 5681   6.312   3.527   0.730 -0.2041  0.0072  0.2392
 1631W        W 5682   9.875   9.107   5.533 -0.0115 -0.0817  0.1867
 1632W        W 5683   3.785   8.188   2.757  0.0198 -0.0410 -0.2030
 1633W        W 5684   3.210   2.069  10.315 -0.0190  0.0139  0.0226
 1634W        W 5685   4.665   7.693   3.956 -0.0821  0.1698  0.0641
 1635W        W 5686   4.682   2.814   3.649  0.0160 -0.0250 -0.1445
 1636W        W 5687   6.787   3.768   0.870 -0.0074 -0.2978  0.0686
 1637W        W 5688   1.597   2.752  10.000  0.0850 -0.0721 -0.3439
 1638W        W 5689   2.320   2.848   4.201  0.2480 -0.0286  0.0378
 1639W        W 5690   0.042   8.270  11.568  0.2161  0.0193  0.0838
 1640W        W 5691   8.609   6.019  12.911  0.0956  0.0082 -0.0320
 1641W        W 5692   1.592   2.207   3.764 -0.1442  0.2248 -0.0641
 1642W        W 5693   1.341   3.905   2.249 -0.0845  0.1235  0.0052
 1643W        W 5694   8.926   2.237  13.455 -0.0479 -0.3174 -0.2308
 1644W        W 5695   1.314   9.758  13.425  0.0689  0.0214  0.2200
 1645W        W 5696   1.696   3.575  10.573 -0.1694  0.0334  0.1061
 1646W        W 5697   1.130   9.786   9.420  0.1675  0.0508  0.0340
 1647W        W 5698   6.535   0.160  13.945 -0.0361  0.0063 -0.1939
 1648W        W 5699   6.591   5.402  12.124  0.0674 -0.2063 -0.1132
 1649W        W 5700   3.419   4.194   2.869 -0.2124  0.0275  0.0537
 1650W        W 5701   7.762   4.517   1.853  0.0354  0.0506  0.0897
 1651W        W 5702   2.602   6.919  13.336 -0.1953  0.3577 -0.2154
 1652W        W 5703   9.325   1.106   3.736  0.0050  0.1182  0.3504
 1653W        W 5704   6.943   4.593  11.794  0.0630  0.1847 -0.2494
 1654W        W 5705   5.436   5.613  10.564 -0.0659  0.1266 -0.3636
 1655W        W 5706   4.226   2.451   1.006 -0.0341 -0.1803 -0.0471
 1656W        W 5707   1.671   1.965   1.871  0.0696 -0.0520  0.3950
 1657W        W 5708   6.972   3.027   2.360 -0.1583  0.2861  0.1638
 1658W        W 5709   0.886   7.595   4.340  0.1507  0.1107 -0.1728
 1659W        W 5710   6.911   7.467  11.870 -0.0956 -0.1903  0.1416
 1660W        W 5711   3.630   2.524  13.965 -0.3189  0.1264 -0.1196
 1661W        W 5712   1.525   2.330  12.778 -0.0381  0.2107 -0.1740
 1662W        W 5713   5.155   7.682   9.528  0.2551  0.0720 -0.0768
 1663W        W 5714  10.149   7.349   1.048 -0.2129  0.0960 -0.1538
 1664W        W 5715   8.982   3.571   2.612  0.0521 -0.0132 -0.1123
 1665W        W 5716   3.505   8.033   4.669 -0.0758 -0.0425 -0.2040
 1666W        W 5717   3.729   5.977  10.832  0.3027 -0.0204 -0.2706
 1667W        W 5718   6.882   7.553   5.152  0.0088 -0.0968 -0.0680
 1668W        W 5719   6.064   3.786   0.349 -0.0308  0.0252  0.1462
 1669W        W 5720   0.225   7.738  12.199  0.1286 -0.0752 -0.0831
 1670W        W 5721   0.708   5.931   9.180 -0.2236  0.0042  0.1973
 1671W        W 5722   1.068   9.555   3.525  0.0610  0.4382  0.1841
 1672W        W 5723   1.493   3.908   0.181  0.0846 -0.1408 -0.3084
 1673W        W 5724   3.576   6.086  11.839  0.1184  0.3516  0.0247
 1674W        W 5725   7.732   9.529  11.592  0.2537  0.0587  0.1617
 1675W        W 5726   2.132   2.137  13.548  0.3471  0.0549 -0.2111
 1676W        W 5727   7.967   8.050   1.448 -0.1236  0.0358 -0.1876
 1677W        W 5728   1.124   8.894  12.271  0.0312  0.0816 -0.2184
 1678W        W 5729   6.669   4.363   3.963 -0.0494  0.1403  0.0696
 1679W        W 5730   4.169   9.618   3.682 -0.0951  0.1237  0.1824
 1680W        W 5731   4.762   8.003  11.604 -0.1503  0.0191 -0.0927
 1681W        W 5732   3.960   5.948  13.563 -0.0435  0.0406 -0.4372
 1682W        W 5733   6.382   6.149   0.885 -0.1363 -0.0324  0.0198
 1683W        W 5734   3.034   3.992  12.697  0.0088  0.1874 -0.1786
 1684W        W 5735   0.513   2.574   2.356 -0.2927 -0.3150 -0.0204
 1685W        W 5736   3.194   6.718  13.436  0.0516  0.2682 -0.1851
 1686W        W 5737   4.109   8.543   0.621  0.1284 -0.0934 -0.1120
 1687W        W 5738   6.636   4.616  13.478  0.2073  0.1473  0.2666
 1688W        W 5739   3.457   3.593   1.274  0.0324  0.2534  0.0924
 1689W        W 5740   7.732   3.864   1.245  0.0521  0.2824  0.3428
 1690W        W 5741   6.732   5.557  13.553  0.1154  0.0868 -0.0619
 1691W        W 5742   4.419   1.611   4.299  0.0978  0.0002  0.2845
 1692W        W 5743   2.431   1.602  12.699  0.4065 -0.3827  0.0711
 1693W        W 5744   4.236   4.492  13.581  0.2717 -0.2813 -0.2553
 1694W        W 5745   5.118   4.364  13.287 -0.0558  0.2836  0.0230
 1695W        W 5746   1.896   9.146   2.999  0.0595  0.0381  0.0970
 1696W        W 5747   7.670   3.461  12.230 -0.2184 -0.0035 -0.0489
 1697W        W 5748   5.777   3.294   3.805  0.1588  0.0281 -0.0039
 1698W        W 5749   0.386   4.779   4.377 -0.2290 -0.0195  0.4512
 1699W        W 5750   5.696   0.126   3.019  0.4710 -0.0184 -0.0380
 1700W        W 5751   4.605   1.289   3.193 -0.2100  0.0581 -0.0196
 1701W        W 5752   9.569   0.988   1.942  0.1489 -0.3994  0.1248
 1702W        W 5753   3.242  10.064   3.822 -0.1435  0.0468 -0.2841
 1703W        W 5754   2.702  10.080   3.627 -0.0345  0.0198 -0.2275
 1704W        W 5755   2.237   9.377  12.656 -0.2061  0.0471  0.3611
 1705W        W 5756   2.778  10.119   9.170  0.1275  0.3166 -0.2854
 1706W        W 5757   0.146   7.046   2.340  0.3170  0.0431  0.0119
 1707W        W 5758   7.159   7.217   0.421  0.2212 -0.2489 -0.0692
 1708W        W 5759   8.665   7.810   9.540  0.0526 -0.2196  0.0705
 1709W        W 5760   3.506   5.945   1.939 -0.1167  0.1448 -0.0632
 1710W        W 5761   8.416   5.383  10.385  0.1619  0.0730  0.1723
 1711W        W 5762   6.454   7.672   1.660  0.1437  0.1070  0.1724
 1712W        W 5763   0.583   5.616   4.922 -0.1045  0.0127 -0.0702
 1713W        W 5764   3.052   1.324   4.029 -0.2915 -0.2259  0.2990
 1714W        W 5765   2.655   2.362  11.406 -0.4879 -0.0188  0.1677
 1715W        W 5766   8.420   4.846   9.190 -0.0864 -0.1349  0.0062
 1716W        W 5767   5.774   8.797   4.895  0.1394  0.0709 -0.0042
 1717W        W 5768   1.014   2.648   1.459 -0.5773 -0.0304 -0.0234
 1718W        W 5769   3.456   4.335  12.631  0.0178 -0.0703  0.1695
 1719W        W 5770   9.358  10.158  12.959 -0.4399  0.3816 -0.0012
 1720W        W 5771   8.616   6.405   3.823 -0.1207 -0.0555  0.1229
 1721W        W 5772   8.885   1.605   2.038  0.0922 -0.1510  0.2256
 1722W        W 5773   6.782   3.271  10.675 -0.0277 -0.0689  0.1092
 1723W        W 5774   9.345   2.034   0.572 -0.0452 -0.2497 -0.3864
 1724W        W 5775   1.579   9.949  10.064 -0.1781  0.1762  0.0860
 1725W        W 5776   9.548   0.221   3.917 -0.1301 -0.2847  0.3091
 1726W        W 5777   5.710   8.404   5.268  0.1624 -0.1204  0.2071
 1727W        W 5778   6.878   2.227   1.507  0.0835 -0.2804 -0.1381
 1728W        W 5779   1.313   2.192   1.597  0.1020 -0.3032  0.0478
 1729W        W 5780   5.855   3.252  13.237 -0.2039 -0.1205 -0.2071
 1730W        W 5781   2.214   6.168  13.733 -0.0192  0.2701 -0.0212
 1731W        W 5782   0.499   0.634   2.640  0.0479 -0.0486  0.2068
 1732W        W 5783   6.938   1.968   0.305 -0.0249  0.0404 -0.2842
 1733W        W 5784   7.388   0.283  11.044  0.0709 -0.1918  0.2710
 1734W        W 5785   9.668   7.999   3.932  0.0949 -0.1680  0.2074
 1735W        W 5786   7.923   3.780  12.524 -0.1082 -0.1088  0.0258
 1736W        W 5787   4.196   7.023   1.474  0.0677  0.2185  0.0216
 1737W        W 5788   2.177   0.934   4.190 -0.0671 -0.0010 -0.1806
 1738W        W 5789   4.419   0.729  11.400  0.3237 -0.0076 -0.2750
 1739W        W 5790   9.483   2.414   0.913 -0.1065  0.1675  0.0473
 1740W        W 5791   3.146   2.710   5.138  0.1205 -0.2984  0.1422
 1741W        W 5792   5.511   2.033   2.989  0.0553 -0.1275 -0.3673
 1742W        W 5793   7.748   8.774  11.958 -0.0722 -0.0670  0.4480
 1743W        W 5794   4.282   9.236  12.284 -0.0802  0.5034 -0.0116
 1744W        W 5795   9.360   2.205  13.617 -0.3086 -0.0858  0.2629
 1745W        W 5796   5.047   7.159  13.350 -0.3418 -0.0352  0.2767
 1746W        W 5797   3.761   9.922   3.563  0.1241  0.2010 -0.0107
 1747W        W 5798   1.612   2.105  10.574  0.3330  0.0045 -0.0136
 1748W        W 5799   3.485   8.120   3.624  0.0335  0.1060  0.1008
 1749W        W 5800   2.553   7.027  12.318 -0.0207 -0.0233  0.1071
 1750W        W 5801   1.645   5.745   9.470  0.0295 -0.4465 -0.0924
 1751W        W 5802   1.553   3.397   2.529 -0.3215  0.2470 -0.2984
 1752W        W 5803   2.472   8.569  10.017 -0.0298 -0.3899 -0.2055
 1753W        W 5804   7.445   8.924  12.776 -0.0790  0.1231 -0.1445
 1754W        W 5805   5.516   5.211  10.917 -0.0820  0.1572 -0.0549
 1755W        W 5806   3.535   2.326   9.942 -0.2880 -0.0150  0.0236
 1756W        W 5807   4.830   8.739   4.981  0.3210 -0.0375 -0.1818
 1757W        W 5808   6.374   2.596   0.328  0.0360 -0.2060 -0.1380
 1758W        W 5809   0.750   2.661   3.579 -0.0516 -0.1895 -0.2971
 1759W        W 5810   2.467   8.950   4.223  0.0734  0.3051 -0.1989
 1760W        W 5811   8.165   2.864   4.251  0.1716 -0.4520  0.0543
 1761W        W 5812   7.964   8.289   0.629 -0.1148 -0.2692  0.3361
 1762W        W 5813   1.120   6.665   2.688  0.0582  0.1662 -0.1819
 1763W        W 5814   8.275   5.981   2.746 -0.0649 -0.0761  0.1680
 1764W        W 5815   3.405   8.419   9.832  0.2040  0.0484 -0.2322
 1765W        W 5816   7.791   4.553   2.552  0.1114 -0.0935 -0.0252
 1766W        W 5817   3.412   4.962   2.086 -0.0545 -0.1399 -0.1732
 1767W        W 5818   5.867   0.662   0.533  0.2697  0.3808  0.0191
 1768W        W 5819   6.413  10.123   4.730  0.3258 -0.5213 -0.0999
 1769W        W 5820   4.841   8.858   5.475 -0.0224  0.0076  0.2320
 1770W        W 5821   3.321   3.977   2.427 -0.0231  0.0815 -0.0646
 1771W        W 5822   5.306   9.311  12.153  0.0148 -0.2102 -0.1273
 1772W        W 5823   3.048   8.497  10.175 -0.2208  0.0838  0.2860
 1773W        W 5824   2.381   7.432   2.990  0.0847 -0.0122 -0.2217
 1774W        W 5825   0.163   1.792   9.232 -0.1060 -0.3349  0.0866
 1775W        W 5826   7.551   2.735  11.083 -0.0195  0.0808 -0.0036
 1776W        W 5827   6.953   3.636  10.402  0.0104 -0.2896 -0.1126
 1777W        W 5828   9.494   0.232   1.028 -0.2930 -0.2056 -0.0687
 1778W        W 5829   7.438   4.936   0.694  0.3985  0.0099  0.0776
 1779W        W 5830   3.183   2.027   9.760 -0.0011  0.0484 -0.4327
 1780W        W 5831   6.912   0.562   4.160  0.1292  0.1951 -0.5509
 1781W        W 5832   5.161   1.035  11.235  0.2824 -0.0409  0.5031
 1782W        W 5833   8.662   5.141   4.386 -0.0827 -0.0560 -0.1713
 1783W        W 5834   1.071   7.862   2.440 -0.3995  0.2403  0.0574
 1784W        W 5835   7.796   7.278  12.913 -0.1454 -0.2773 -0.0921
 1785W        W 5836   5.162   2.533  11.586 -0.1382 -0.2183  0.1404
 1786W        W 5837   6.534   5.872   1.422  0.1102 -0.0947  0.0091
 1787W        W 5838   8.744   6.529  12.949  0.0135 -0.0766 -0.1849
 1788W        W 5839   5.588   8.024   2.184  0.1599 -0.0272  0.0166
 1789W        W 5840   0.404   7.210   8.870  0.0858  0.0352  0.1235
 1790W        W 5841   8.914   1.919   3.826 -0.1021  0.2456  0.0727
 1791W        W 5842   7.487   7.547   0.700 -0.0992  0.0842 -0.0624
 1792W        W 5843   6.705   8.092   2.519  0.1753 -0.2361  0.1657
 1793W        W 5844   4.090   1.090   3.583  0.0295 -0.1883 -0.1237
 1794W        W 5845   4.231   6.693  11.270 -0.0521 -0.3485  0.3198
 1795W        W 5846   3.819   4.858   2.357 -0.0175  0.1004 -0.0476
 1796W        W 5847   5.201   6.532  10.731  0.1438 -0.0317  0.0320
 1797W        W 5848   4.227   2.461   1.562  0.1988 -0.0825 -0.1064
 1798W        W 5849   1.087   5.363   3.595  0.2212 -0.1153 -0.1666
 1799W        W 5850   5.218  10.148   3.058  0.0681 -0.2222  0.1250
 1800W        W 5851   1.789   8.287   3.129  0.2029  0.3000  0.1426
 1801W        W 5852   1.407   8.637   9.305  0.1383 -0.1669 -0.0663
 1802W        W 5853   3.199   5.927  13.323 -0.0661  0.1467  0.0942
 1803W        W 5854   8.130   0.980  13.134 -0.0293 -0.0071 -0.2859
 1804W        W 5855   2.468   3.164   3.204  0.1017 -0.1193 -0.0670
 1805W        W 5856   7.670   5.398   3.698 -0.0948  0.3615 -0.3220
 1806W        W 5857   1.583   6.758  12.388  0.0201  0.1051  0.1327
 1807W        W 5858   7.905   2.960  12.275  0.1370 -0.1549  0.0374
 1808W        W 5859   3.312   4.480  13.119  0.0591 -0.2778  0.2533
 1809W        W 5860   3.402   7.306  11.329 -0.0716  0.2568  0.3245
 1810W        W 5861   3.902   2.687  13.490  0.5961 -0.0178  0.1164
 1811W        W 5862   1.428   5.671   8.647  0.2554  0.1058  0.0538
 1812W        W 5863   5.549   6.922  10.351 -0.1598 -0.2782 -0.1294
 1813W        W 5864   5.016   2.267   9.511  0.2286 -0.0990 -0.2313
 1814W        W 5865   4.042   3.156   3.102 -0.0799  0.1531 -0.3132
 1815W        W 5866   1.248   1.410  11.561  0.2223  0.1161 -0.2173
 1816W        W 5867   4.598   7.065  11.355  0.1698  0.0259 -0.1163
 1817W        W 5868   7.272   9.696   1.963  0.2409 -0.2170  0.2265
 1818W        W 5869   2.001   6.349   2.208 -0.0213 -0.0731 -0.1881
 1819W        W 5870   3.408   6.483   0.579  0.0394  0.3816  0.0711
 1820W        W 5871   4.732   9.399   0.541 -0.1461 -0.0558  0.0149
 1821W        W 5872   3.099   3.324   1.561  0.1745 -0.0055 -0.1347
 1822W        W 5873   2.326   2.635  13.342  0.0515 -0.1531 -0.0192
 1823W        W 5874   5.753   4.847   4.151 -0.1431  0.2344  0.4496
 1824W        W 5875   0.912   3.767   0.165  0.1149 -0.0093 -0.2440
 1825W        W 5876   5.200   5.563   0.522  0.0345 -0.2669  0.0256
 1826W        W 5877   0.387   0.158   0.710  0.1704 -0.1055  0.1920
 1827W        W 5878   9.582   2.950   1.706  0.1429 -0.0301 -0.1140
 1828W        W 5879   0.998   8.960  10.256  0.2566  0.0592 -0.1120
 1829W        W 5880   5.018   0.308  13.663 -0.0924  0.0041  0.2312
 1830W        W 5881   4.104   1.874  12.616 -0.0188  0.4974 -0.0534
 1831W        W 5882   4.812   4.991   3.591  0.0771 -0.4390 -0.5917
 1832W        W 5883   8.831   7.099   0.730 -0.0415  0.4100  0.1574
 1833W        W 5884   2.090   3.658   4.883  0.4366 -0.2523 -0.1486
 1834W        W 5885   7.979   8.330   5.124 -0.0523 -0.0449 -0.0833
 1835W        W 5886   5.693   6.852   1.706 -0.0281  0.0852 -0.0191
 1836W        W 5887   7.603   8.037   0.420 -0.0025 -0.5407 -0.1059
 1837W        W 5888   4.036   0.050  13.197 -0.0222 -0.1911 -0.1316
 1838W        W 5889   9.567   6.128   1.692 -0.0378 -0.1164 -0.0136
 1839W        W 5890   3.996   1.878  11.646 -0.0170  0.0280  0.2302
 1840W        W 5891   9.419   7.942   2.615 -0.1061  0.1765 -0.3765
 1841W        W 5892   2.266   0.736   4.994 -0.0081 -0.2774 -0.2292
 1842W        W 5893   1.965   6.238   0.755 -0.4090  0.1816  0.1768
 1843W        W 5894   2.473   9.498   3.417 -0.0446 -0.1431  0.1536
 1844W        W 5895   7.262   6.085   4.378 -0.0566  0.0736 -0.0753
 1845W        W 5896   1.792   8.301   2.575 -0.0247  0.1952  0.1454
 1846W        W 5897   8.518   1.220   9.674  0.1428 -0.1848  0.0277
 1847W        W 5898   2.357   1.593  11.190  0.2099 -0.2262 -0.1781
 1848W        W 5899   6.342   3.877   3.363 -0.0056  0.2038 -0.1919
 1849W        W 5900   3.643   1.687   0.784 -0.2141  0.1040  0.2343
 1850W        W 5901   6.256   5.090  10.304  0.0437 -0.1241  0.1290
 1851W        W 5902   7.533   5.822   1.597 -0.2037 -0.1781 -0.3439
 1852W        W 5903   6.367   4.948   9.709  0.1346  0.1992  0.1420
 1853W        W 5904   2.292   0.318   1.369  0.1252  0.2831 -0.4813
 1854W        W 5905   9.149   8.284   3.831  0.0692 -0.1540  0.0050
 1855W        W 5906   0.912   9.473  13.135 -0.2750 -0.0151 -0.1467
 1856W        W 5907   2.151   5.146   4.130  0.2517 -0.3660 -0.1406
 1857W        W 5908   1.304   2.482  10.503 -0.1217 -0.2556 -0.2588
 1858W        W 5909   8.077   2.078  11.604  0.1696  0.0947  0.0738
 1859W        W 5910   1.118   5.580  13.192 -0.1284  0.0862 -0.2513
 1860W        W 5911   7.272   7.401   9.854 -0.2991  0.0823 -0.1249
 1861W        W 5912   4.694   9.460   2.801 -0.3398 -0.1489  0.0204
 1862W        W 5913   9.127   2.653  13.385  0.0975 -0.1199  0.1083
 1863W        W 5914   1.106   1.694  11.980  0.5382  0.1471 -0.2920
 1864W        W 5915   6.768   9.724  11.485  0.2013  0.1537 -0.0034
 1865W        W 5916   0.565   8.923   2.938  0.1120 -0.0708  0.3539
 1866W        W 5917   9.450   8.990   1.380 -0.0950  0.0260  0.0387
 1867W        W 5918   8.182   6.103  13.621  0.0023  0.1101  0.0854
 1868W        W 5919   0.595   5.676  13.128  0.2528 -0.2159 -0.2901
 1869W        W 5920   0.419   4.869  10.009 -0.2388  0.0786  0.1869
 1870W        W 5921   2.511   2.098  13.858  0.1182 -0.0928 -0.1924
 1871W        W 5922   7.177   6.665  12.321  0.2298 -0.1736  0.3242
 1872W        W 5923   1.840   9.777  12.600 -0.0962 -0.2500 -0.0095
 1873W        W 5924   8.511   2.822   2.933 -0.3056 -0.0360  0.0817
 1874W        W 5925   0.573   1.210  11.853  0.3763 -0.2913 -0.2426
 1875W        W 5926   3.048   8.618   2.714  0.1786 -0.0702 -0.0421
 1876W        W 5927   3.265   8.959   9.912 -0.1500 -0.1397 -0.1436
 1877W        W 5928   9.370   8.911  13.185  0.1022 -0.4808 -0.1487
 1878W        W 5929   6.444   8.573   5.668  0.0664 -0.0015  0.2402
 1879W        W 5930   9.295   0.274   2.515  0.2940  0.1869 -0.1232
 1880W        W 5931   8.103   9.954   1.728  0.1196  0.2031 -0.2549
 1881W        W 5932   8.154   5.487   9.541 -0.0499  0.0853 -0.1223
 1882W        W 5933   2.276   5.051   3.473 -0.1460 -0.0001 -0.0433
 1883W        W 5934   7.769   9.752   3.848 -0.3410 -0.0446  0.0706
 1884W        W 5935   4.637   5.970   4.322  0.1057 -0.1802  0.1898
 1885W        W 5936   9.344   7.040   9.953 -0.1564 -0.0862  0.2265
 1886W        W 5937   4.870   4.876  12.550  0.2542 -0.0290  0.2683
 1887W        W 5938   2.694   1.275   3.235  0.0681  0.0333  0.1916
 1888W        W 5939   3.915   3.504  12.394  0.2183  0.2676 -0.1723
 1889W        W 5940   6.305   2.164   3.961  0.2484  0.5828 -0.1506
 1890W        W 5941   1.683   8.362  12.485  0.0409 -0.0625 -0.0238
 1891W        W 5942   0.661   8.934   1.047 -0.0361 -0.1944  0.0713
 1892W        W 5943   2.220   5.139   8.225  0.1194  0.0342 -0.2095
 1893W        W 5944   6.398   9.448  10.348  0.0488  0.2110  0.0772
 1894W        W 5945   0.827   7.731  13.322 -0.0828  0.0292  0.1089
 1895W        W 5946   7.389   8.184   2.775  0.1383  0.3059  0.0372
 1896W        W 5947   0.001   3.838  10.988  0.1280 -0.2329 -0.0922
 1897W        W 5948   7.516   1.508   3.623  0.1832  0.2149 -0.4334
 1898W        W 5949   5.227   5.804  11.344 -0.2379 -0.0432  0.0624
 1899W        W 5950   7.769   7.679   1.759  0.0766 -0.1211  0.4468
 1900W        W 5951   8.780   6.324   3.270  0.1333  0.2306 -0.0884
 1901W        W 5952   7.577   8.374   1.484  0.1009  0.3214  0.0231
 1902W        W 5953   7.316   6.368  11.188  0.0435  0.1652 -0.3927
 1903W        W 5954   5.412   6.152  12.534  0.2311  0.2488  0.1641
 1904W        W 5955   3.649   5.748   9.268  0.5184  0.1229  0.0752
 1905W        W 5956   6.512   2.056   0.129 -0.0621 -0.0346 -0.2096
 1906W        W 5957   7.571   2.959   3.237  0.1687  0.1855 -0.0660
 1907W        W 5958   5.905   6.372   2.097 -0.0046  0.0055 -0.0066
 1908W        W 5959   7.324   2.031  10.786 -0.0731  0.0901 -0.1920
 1909W        W 5960   8.839   9.437   9.778 -0.0521 -0.1013 -0.0308
 1910W        W 5961   8.960   0.185   0.410  0.1469 -0.0886  0.0758
 1911W        W 5962   3.322   1.676  13.644 -0.0568  0.1418 -0.1524
 1912W        W 5963   9.297   5.539  12.365 -0.0229 -0.3812  0.0223
 1913W        W 5964   2.435   0.724  11.394  0.0581 -0.1770 -0.0525
 1914W        W 5965   7.793   5.298   0.957 -0.0038  0.0888  0.2740
 1915W        W 5966   0.228   9.335  10.808  0.0209  0.1251  0.0621
 1916W        W 5967   1.827   8.116  11.568 -0.1726  0.0907  0.1495
 1917W        W 5968   2.788   6.777  12.797  0.0968  0.1550  0.1807
 1918W        W 5969   1.820   4.689   2.337  0.0734  0.1292 -0.0661
 1919W        W 5970   5.500   2.729   1.921  0.0089 -0.1980 -0.2514
 1920W        W 5971   7.480   8.579   0.329  0.0864 -0.0487  0.0301
 1921W        W 5972   1.843   1.845   9.124 -0.0613 -0.3276 -0.1540
 1922W        W 5973   5.396   9.762   9.958  0.0704  0.0825 -0.2942
 1923W        W 5974   6.397   7.689   5.068  0.2510  0.0342 -0.0226
 1924W        W 5975   5.034   7.532   1.635  0.0621 -0.3940  0.1348
 1925W        W 5976   6.623   0.245  13.349 -0.3779  0.2487 -0.1419
 1926W        W 5977  10.055   9.456  13.919 -0.1169  0.2530 -0.1223
 1927W        W 5978   3.163   1.524  11.589 -0.1460  0.0993  0.0592
 1928W        W 5979   9.968   1.833   4.205 -0.1280  0.1161  0.2860
 1929W        W 5980   7.274   8.959  10.414 -0.0251 -0.0216 -0.2674
 1930W        W 5981   3.325   5.033   5.182 -0.1361  0.3405  0.0058
 1931W        W 5982   3.020   5.798   1.859 -0.1960  0.0959 -0.0190
 1932W        W 5983   8.919   8.523  11.997 -0.2648  0.0950 -0.3624
 1933W        W 5984   2.153   7.117   0.890 -0.0830 -0.2455  0.2348
 1934W        W 5985   9.471   6.555   3.872 -0.4655  0.0978 -0.2053
 1935W        W 5986   9.415   4.333   2.665  0.0556 -0.0906 -0.1148
 1936W        W 5987   6.279   0.453  13.565  0.4525 -0.0501 -0.0858
 1937W        W 5988   2.832   3.785  11.444 -0.3438 -0.0491 -0.0514
 1938W        W 5989   0.514   7.133   2.837  0.0807 -0.0171 -0.1309
 1939W        W 5990   3.125  10.165   9.538  0.0094  0.0735  0.1393
 1940W        W 5991   7.943   7.194   0.971  0.1825  0.1316 -0.2036
 1941W        W 5992   2.741   8.508  13.543  0.2138  0.1832 -0.1649
 1942W        W 5993   0.969   8.357   9.397  0.0385  0.0035 -0.0344
 1943W        W 5994   3.995   6.589   1.608  0.2214  0.1957 -0.0966
 1944W        W 5995   3.149   1.881  13.201 -0.0507 -0.2594  0.0614
 1945W        W 5996   7.167   6.382   0.068 -0.4152  0.2617 -0.0668
 1946W        W 5997   1.334   1.358   1.218  0.3239  0.2875 -0.3508
 1947W        W 5998   7.545   6.619   0.628  0.1201  0.0500  0.1183
 1948W        W 5999   1.569   5.485   1.495  0.0176 -0.4253 -0.4644
 1949W        W 6000   9.158   9.214  13.559  0.2170 -0.1202  0.1170
 1950W        W 6001   6.889   9.918   4.657 -0.1347  0.0405 -0.1821
 1951W        W 6002   3.450   9.030  12.396  0.5646  0.0507  0.0366
 1952W        W 6003   5.591   8.851   2.924 -0.3688 -0.0989 -0.0875
 1953W        W 6004   7.432   4.023  10.719 -0.2357  0.0053 -0.2351
 1954W        W 6005   3.640   3.876  13.979 -0.1857  0.0727 -0.0583
 1955W        W 6006   4.121   9.239   4.234 -0.0767  0.0069 -0.4365
 1956W        W 6007   7.951   1.529  11.946  0.0879 -0.2215 -0.1219
 1957W        W 6008   8.508   4.024   3.665 -0.0331 -0.0838  0.2215
 1958W        W 6009   4.296   3.260   2.295  0.2956 -0.3691 -0.4749
 1959W        W 6010   6.188   0.516   2.274 -0.1531  0.0472  0.0187
 1960W        W 6011   7.365   3.648  11.766  0.0540 -0.1623 -0.2121
 1961W        W 6012   5.219   3.565   2.559 -0.1076 -0.1941  0.0154
 1962W        W 6013   0.194   4.979   1.353 -0.2528 -0.0247  0.2270
 1963W        W 6014   6.237   1.491   0.436  0.1630  0.1794 -0.1357
 1964W        W 6015   2.313   5.278   2.182 -0.1861  0.0605 -0.1714
 1965W        W 6016   9.315   9.130  12.708 -0.1114  0.1723 -0.1369
 1966W        W 6017   3.059   1.862   3.803  0.2166  0.1074 -0.3134
 1967W        W 6018   1.494   4.713   2.856 -0.0032 -0.1377  0.1726
 1968W        W 6019   7.470   1.570  13.588 -0.0975 -0.0598  0.1314
 1969W        W 6020   0.345   3.769   3.835 -0.0638  0.5022  0.0947
 1970W        W 6021   4.236   6.099  12.999 -0.5241  0.0957 -0.2571
 1971W        W 6022   4.346   5.219   2.785  0.1191  0.0744  0.0832
 1972W        W 6023   4.780   6.054   2.288 -0.0226  0.2284 -0.0969
 1973W        W 6024   7.988   8.713  11.199 -0.1416 -0.0050  0.1573
 1974W        W 6025   4.411   5.022   3.227 -0.0808  0.4163 -0.1508
 1975W        W 6026   5.070   6.668  13.269 -0.1520  0.0249 -0.1390
 1976W        W 6027   3.735   9.573   4.594  0.1517 -0.1879 -0.0748
 1977W        W 6028   5.665   3.308   3.222  0.2206 -0.1295 -0.3034
 1978W        W 6029   4.856   2.245  12.090 -0.2359 -0.5448  0.1115
 1979W        W 6030   0.051   6.716   4.715  0.1422 -0.2777  0.0013
 1980W        W 6031   0.629   2.284   3.153  0.0749  0.3178  0.0398
 1981W        W 6032   9.376   8.886   9.672 -0.1745 -0.1291  0.2632
 1982W        W 6033   7.243   0.566  11.943 -0.0564 -0.1260  0.1739
 1983W        W 6034   9.878   7.152   9.901 -0.3421 -0.3262  0.0976
 1984W        W 6035   3.320   4.504   2.313  0.0508 -0.2801  0.0051
 1985W        W 6036   7.641   3.262   1.999  0.0816  0.1802  0.2571
 1986W        W 6037   8.789   7.547   2.136  0.1827 -0.1112  0.1414
 1987W        W 6038   7.334   7.592  11.210  0.0933  0.1238 -0.1133
 1988W        W 6039   5.471   9.330   3.610  0.1760 -0.0685 -0.1013
 1989W        W 6040   2.574   1.441   2.105  0.1390 -0.1614  0.0699
 1990W        W 6041   0.242  10.157  10.482 -0.3196 -0.1322 -0.3975
 1991W        W 6042   3.840   3.307   2.603 -0.0385 -0.0292  0.1928
 1992W        W 6043  10.112   4.849  11.633 -0.0287 -0.2171 -0.1586
 1993W        W 6044   8.825   0.071  13.264 -0.2125  0.3422  0.3564
 1994W        W 6045   2.654   7.985   5.175  0.0640 -0.1131 -0.1994
 1995W        W 6046   3.950   1.211  13.240 -0.0895 -0.2437 -0.1921
 1996W        W 6047   4.307   0.220   3.062 -0.2156  0.0499  0.1322
 1997W        W 6048   4.652   1.677  13.488 -0.2149 -0.0437  0.0786
 1998W        W 6049   0.168   0.808  10.282 -0.0534  0.2679  0.1922
 1999W        W 6050   1.571   1.636  11.177 -0.2096  0.1995 -0.1990
 2000W        W 6051   2.100   1.726   2.477  0.0943 -0.4065 -0.1633
 2001W        W 6052   2.801   5.472   1.495 -0.2295 -0.1218  0.1268
 2002W        W 6053   5.970   4.002  13.858  0.3172 -0.0143 -0.0836
 2003W        W 6054   9.717   0.275   2.753  0.1483 -0.0707  0.0295
 2004W        W 6055   3.141   5.958   5.338  0.2169  0.1380 -0.1098
 2005W        W 6056   6.240   2.393  12.893  0.0359 -0.4930 -0.3510
 2006W        W 6057   3.628  10.022  12.388 -0.2482  0.0325  0.1112
 2007W        W 6058   2.429  10.063   4.457  0.0369  0.0480 -0.1944
 2008W        W 6059   7.824   7.402   9.466 -0.1079  0.4018 -0.1427
 2009W        W 6060   5.968   4.513   4.571 -0.0849 -0.1146  0.2147
 2010W        W 6061   5.946   8.214  12.046 -0.1170  0.0440 -0.0731
 2011W        W 6062   9.952   9.154   0.325  0.0751 -0.4953 -0.3194
 2012W        W 6063   6.584   3.276  12.390 -0.0320  0.1262  0.0509
 2013W        W 6064   9.687   6.748  10.177 -0.0056 -0.0329 -0.1228
 2014W        W 6065   5.313   5.100   0.778 -0.5333  0.4420 -0.1048
 2015W        W 6066   7.743   8.916   1.312 -0.2099 -0.1878  0.4380
 2016W        W 6067   4.717   6.095   5.220 -0.0068  0.2391 -0.0062
 2017W        W 6068   9.170   0.608   4.031  0.0080  0.2147  0.1139
 2018W        W 6069   3.518   4.702   2.734 -0.0742 -0.3094 -0.1092
 2019W        W 6070   7.201   2.310  11.912  0.1238  0.0549  0.2602
 2020W        W 6071   9.993   0.637   2.306 -0.0767  0.1913 -0.1275
 2021W        W 6072   1.926   7.580  12.102  0.2104  0.1073 -0.1142
 2022W        W 6073   2.552   6.441  13.520 -0.1005 -0.3968 -0.0723
 2023W        W 6074   7.497   1.585  10.593  0.1065 -0.2021 -0.0067
 2024W        W 6075   9.663   9.246  13.617  0.1801 -0.1209 -0.2169
 2025W        W 6076   5.644   8.582  11.226 -0.0022  0.0874 -0.0276
 2026W        W 6077   9.796   6.878  11.467 -0.1003  0.1691  0.1270
 2027W        W 6078   8.140   9.295   9.798  0.3433  0.0319  0.0355
 2028W        W 6079   7.076   9.390   0.953  0.2766  0.1916  0.0679
 2029W        W 6080   5.677  10.020   2.626  0.1108  0.0707  0.0790
 2030W        W 6081   7.877   6.983  10.608 -0.1570  0.1639  0.3269
 2031W        W 6082   6.962   3.861   3.233 -0.0732  0.0455 -0.0814
 2032W        W 6083   8.143   8.744  13.894  0.0355 -0.0153 -0.0628
 2033W        W 6084   5.200   9.633  11.775 -0.2717 -0.2437  0.2434
 2034W        W 6085   0.376   8.600  12.746 -0.1740 -0.2420  0.0090
 2035W        W 6086   3.170   1.085  11.244  0.1991  0.0089 -0.1918
 2036W        W 6087   1.495   2.942   0.182 -0.1509  0.0620 -0.0652
 2037W        W 6088   3.735   7.736   0.937  0.1675 -0.3004  0.5605
 2038W        W 6089   0.392   9.616  12.666  0.1110 -0.1181  0.0206
 2039W        W 6090   2.806   0.731   5.144 -0.4964  0.1487 -0.0175
 2040W        W 6091   5.470   7.764  12.348 -0.1322  0.0775  0.4641
 2041W        W 6092   5.540   7.320   9.515  0.0616 -0.3199  0.0101
 2042W        W 6093   8.410   7.478   9.835  0.2270 -0.0962 -0.1820
 2043W        W 6094   3.734   1.031  12.828 -0.0575 -0.1991  0.0692
 2044W        W 6095   5.618   8.851   0.481  0.1689  0.2386 -0.2004
 2045W        W 6096   9.633   8.513   3.772  0.1239  0.1235 -0.3220
 2046W        W 6097   7.262   7.162   1.753  0.3776  0.1744  0.0443
 2047W        W 6098   7.787   3.624  11.154 -0.1085 -0.0488  0.0368
 2048W        W 6099   5.311   7.869   0.495 -0.0747 -0.0784  0.1231
 2049W        W 6100   9.865  10.084   3.508 -0.2624 -0.0961  0.0259
 2050W        W 6101   6.349   6.414   1.292 -0.3068  0.3200  0.0565
 2051W        W 6102   6.959   9.001   4.980 -0.3050 -0.0859 -0.0213
 2052W        W 6103   1.134   7.987  11.974  0.1765  0.2282  0.0192
 2053W        W 6104   0.511   6.282   3.186 -0.0993  0.1663 -0.0445
 2054W        W 6105   3.618   3.561  12.959 -0.2723 -0.1693  0.1722
 2055W        W 6106   1.355   9.254  13.391  0.0619  0.0798 -0.1744
 2056W        W 6107   8.280   8.270   5.879 -0.1883  0.0520  0.1723
 2057W        W 6108   4.411   3.241  10.611 -0.2969  0.0597  0.0885
 2058W        W 6109   1.360   5.735  12.031  0.0182 -0.1037  0.0299
 2059W        W 6110   7.917   5.428  13.408 -0.0871  0.0487  0.1033
 2060W        W 6111   2.613   5.706  12.346  0.1347 -0.1475  0.0369
 2061W        W 6112   0.322   3.943   1.058  0.0062  0.2249 -0.1576
 2062W        W 6113   7.963   8.651   2.117  0.0445 -0.1501  0.0244
 2063W        W 6114   0.529   1.331   9.644  0.0286 -0.0216  0.3607
 2064W        W 6115   8.572   7.439   0.975 -0.1779 -0.0306  0.4566
 2065W        W 6116   1.925   5.334   0.207 -0.0726 -0.4109  0.1327
 2066W        W 6117   7.746   8.304  11.019 -0.2187 -0.1110 -0.3316
 2067W        W 6118   4.303   7.173   0.313 -0.2459  0.0132  0.5629
 2068W        W 6119   0.483   0.632  12.968 -0.0107 -0.0272 -0.3543
 2069W        W 6120   7.711   9.636   4.874  0.0824  0.0796 -0.1100
 2070W        W 6121   4.588   7.530   2.033  0.0155 -0.0818  0.2654
 2071W        W 6122   7.359   3.546   3.299  0.0306  0.0323  0.1686
 2072W        W 6123   3.671   5.250  11.535  0.0686 -0.2662 -0.0018
 2073W        W 6124   0.985   1.296  13.847  0.1422 -0.1280  0.0410
 2074W        W 6125   9.246   9.848   1.790  0.0349  0.0115 -0.2223
 2075W        W 6126   6.338   9.612   9.777 -0.4130 -0.0697  0.1353
 2076W        W 6127   5.435   4.678  10.862  0.3175  0.0088  0.1457
 2077W        W 6128  10.141   0.770   3.330 -0.1175 -0.0224 -0.0322
 2078W        W 6129   5.534   6.889  13.481 -0.0357  0.3933  0.3471
 2079W        W 6130   3.068   5.333   0.364  0.0413 -0.2332  0.1047
 2080W        W 6131   3.891   5.702  11.574 -0.0791 -0.1275 -0.0564
 2081W        W 6132   0.268   5.130   2.039 -0.3211  0.0793  0.2439
 2082W        W 6133   8.334   3.991  13.719  0.1703 -0.1198 -0.1088
 2083W        W 6134   5.931   0.252   4.689  0.2214  0.2105  0.2128
 2084W        W 6135   0.660   9.909  11.719 -0.1203 -0.0359 -0.1184
 2085W        W 6136   4.799   1.310   2.272 -0.0702  0.3228 -0.0464
 2086W        W 6137   2.472   1.923   3.821  0.0460  0.4780  0.2287
 2087W        W 6138   1.128   6.105  13.375  0.3085  0.2772 -0.0154
 2088W        W 6139   2.709   7.453   1.156  0.3297 -0.0770  0.0970
 2089W        W 6140   3.894   4.206  10.489  0.4222  0.0231 -0.0882
 2090W        W 6141   9.566   1.086  12.666 -0.1490  0.0377  0.1624
 2091W        W 6142   5.948   5.639   4.737  0.4625 -0.5178  0.1493
 2092W        W 6143   5.146   1.013   9.520 -0.0237  0.1029  0.2569
 2093W        W 6144   7.599   6.893  11.217 -0.0234  0.2149  0.4220
 2094W        W 6145   1.989   7.297   3.961  0.1432  0.0860  0.1771
 2095W        W 6146   5.959   6.835  13.120 -0.1360  0.1289 -0.1584
 2096W        W 6147   7.486   0.193  13.290 -0.0607 -0.0761  0.1303
 2097W        W 6148   0.382   4.302   1.521  0.0170  0.1995 -0.0101
 2098W        W 6149   3.129   7.725   1.022 -0.1766 -0.2005  0.2181
 2099W        W 6150   8.574   9.948  11.826 -0.2895  0.0346 -0.0408
 2100W        W 6151   3.958   3.727  11.332  0.2452  0.0714 -0.1236
 2101W        W 6152   5.532   1.674  11.601 -0.1873  0.0413  0.1418
 2102W        W 6153   7.901   8.415   0.135  0.0719 -0.0228  0.4213
 2103W        W 6154   9.114   0.724   1.935  0.1926 -0.1587  0.2316
 2104W        W 6155   4.795   7.963   1.835 -0.2316 -0.0395 -0.3629
 2105W        W 6156   9.200   5.237  12.897  0.0817 -0.4176  0.3383
 2106W        W 6157   9.206   5.295  13.815 -0.1304  0.0944 -0.2595
 2107W        W 6158   4.541   9.878  11.288 -0.0075 -0.2030  0.2515
 2108W        W 6159   0.268   0.664   4.258  0.0967  0.0834  0.0636
 2109W        W 6160   2.612   9.759   2.214  0.0901 -0.1465  0.3709
 2110W        W 6161   0.469   0.095  11.387 -0.0553  0.0232  0.1335
 2111W        W 6162   8.210   7.944   9.714  0.1566 -0.1982 -0.2234
 2112W        W 6163   2.638   1.362  11.524 -0.4191 -0.0656  0.1755
 2113W        W 6164   2.239   6.121   3.036  0.0218 -0.0360  0.2064
 2114W        W 6165   2.230   9.908  13.473  0.0909 -0.1180 -0.1298
 2115W        W 6166   2.533   6.656  10.452 -0.2077 -0.1555 -0.0227
 2116W        W 6167   0.727   9.157   0.059 -0.1326 -0.0352 -0.0412
 2117W        W 6168   6.285   3.061  13.771 -0.2169  0.2328 -0.0293
 2118W        W 6169   3.161   6.640   1.477  0.1313  0.0542 -0.0225
 2119W        W 6170   7.932   3.573   1.653  0.0066  0.1549 -0.0966
 2120W        W 6171   3.874   0.866   4.120 -0.1967  0.3697  0.2432
 2121W        W 6172   4.082   5.317  10.242  0.2557 -0.0381  0.1544
 2122W        W 6173   7.222   5.674   5.231  0.1183 -0.0803  0.1678
 2123W        W 6174   3.871   3.006   4.263  0.1590 -0.1025 -0.3613
 2124W        W 6175   6.059   2.001  13.829  0.2157  0.1417 -0.1117
 2125W        W 6176   4.896   3.485   3.626  0.2073 -0.1037 -0.0991
 2126W        W 6177   5.362   8.147   4.162 -0.3711 -0.0910 -0.0841
 2127W        W 6178   8.423   0.185   3.503  0.1405  0.4391  0.3710
 2128W        W 6179   8.419   2.342  11.991  0.0340  0.1118  0.1125
 2129W        W 6180   6.384   2.035   1.525  0.1658  0.0083  0.1845
 2130W        W 6181   1.215   1.885   3.083  0.1666 -0.0328  0.0263
 2131W        W 6182   5.013   0.052  12.544  0.0115 -0.1122  0.0953
 2132W        W 6183   9.417   7.446   2.840  0.0419  0.0142 -0.0845
 2133W        W 6184   2.895   6.060  12.091 -0.1752  0.2001 -0.2992
 2134W        W 6185   0.281   4.684   0.653 -0.3328  0.1528  0.0572
 2135W        W 6186   4.298   7.555   3.329  0.1201 -0.0080 -0.1100
 2136W        W 6187   0.086   6.850   9.123  0.2754  0.0157 -0.1610
 2137W        W 6188   0.714   6.982   9.663  0.4195  0.0348  0.1868
 2138W        W 6189   8.044   0.208   3.121  0.3263  0.1495  0.0829
 2139W        W 6190   2.875   0.745   8.430 -0.1955  0.2421 -0.2742
 2140W        W 6191   1.210   4.042   3.256  0.2358 -0.2852  0.1142
 2141W        W 6192   0.383   9.940  10.004  0.0310 -0.1765 -0.0053
 2142W        W 6193   1.380   2.475   9.656 -0.1644  0.0134  0.3104
 2143W        W 6194   9.844   5.360   0.689  0.1824 -0.1675  0.1041
 2144W        W 6195   8.719   3.322   0.272  0.4120  0.4006 -0.1483
 2145W        W 6196   7.118   0.733   2.760  0.4536  0.1160 -0.2687
 2146W        W 6197   5.215   6.639   5.120  0.1022 -0.2021 -0.0339
 2147W        W 6198   6.112   3.145   0.928  0.3158 -0.0532  0.0747
 2148W        W 6199   6.666   6.538  11.788 -0.1082  0.2424 -0.2791
 2149W        W 6200   2.872   9.684   1.457  0.3230  0.0407 -0.1210
 2150W        W 6201   9.257   9.346  12.210 -0.1298  0.0499  0.4044
 2151W        W 6202   4.566   7.041   9.072  0.0491  0.2749 -0.1776
 2152W        W 6203   4.857   4.883   1.518 -0.0370  0.2318 -0.2061
 2153W        W 6204   0.799  10.075  12.490  0.1272  0.3306 -0.2372
 2154W        W 6205   0.224   4.461  10.844 -0.1044  0.0484 -0.0613
 2155W        W 6206   3.527  10.009   2.510  0.2696  0.1844 -0.1216
 2156W        W 6207   5.284   8.747   9.860  0.2820 -0.4259  0.0743
 2157W        W 6208   8.518   5.061  12.433  0.0792  0.0510  0.1651
 2158W        W 6209   4.884   6.985   4.200  0.1801  0.3002  0.1823
 2159W        W 6210   5.388   1.738  10.727  0.3508 -0.0952 -0.3176
 2160W        W 6211   3.956   1.436  10.245 -0.2740 -0.4496 -0.0481
 2161W        W 6212   1.711   0.011   4.833  0.2566 -0.1356 -0.2407
 2162W        W 6213   8.610   8.517   9.261  0.1920 -0.0577 -0.2659
 2163W        W 6214   8.062   6.778  12.953 -0.1748 -0.1240  0.0637
 2164W        W 6215   3.632   4.004  12.017 -0.0710  0.1460 -0.0906
 2165W        W 6216   2.423   2.410   3.984 -0.2571  0.1883  0.1795
 2166W        W 6217   0.877   4.787  13.364 -0.0022  0.2899 -0.1396
 2167W        W 6218   2.856   1.856  12.737  0.1107 -0.0158  0.2260
 2168W        W 6219   0.507   4.087   0.213 -0.3121 -0.0192 -0.1265
 2169W        W 6220   1.035   8.299   0.021  0.1776  0.2730 -0.4041
 2170W        W 6221   2.216   3.915   9.310 -0.0466 -0.1578  0.2380
 2171W        W 6222   6.137   4.479  11.322  0.1111 -0.0237 -0.2015
 2172W        W 6223   5.405  10.107  11.647 -0.0920  0.0492 -0.0797
 2173W        W 6224   5.183   9.972   4.987  0.0464  0.2401  0.1734
 2174W        W 6225   6.909   8.278   2.947 -0.0394 -0.2549  0.2471
 2175W        W 6226   3.706   7.948   9.235  0.1642 -0.0095  0.0430
 2176W        W 6227   3.006   2.294   1.794  0.2338  0.2061  0.1313
 2177W        W 6228   3.171   2.537   2.181 -0.1421 -0.5383  0.0954
 2178W        W 6229   4.118   9.000  13.688  0.0800  0.0121 -0.0046
 2179W        W 6230   3.874   1.285  12.308 -0.1866  0.1236 -0.1736
 2180W        W 6231   4.230   2.380  10.238  0.0288  0.3337 -0.0130
 2181W        W 6232   5.588   0.096   5.040 -0.0767  0.0268 -0.0431
 2182W        W 6233   1.781   9.130  12.672 -0.0469 -0.0557  0.2244
 2183W        W 6234   9.356   3.762   2.130 -0.3098  0.0489  0.1902
 2184W        W 6235   0.693   5.201  13.193  0.0187  0.1534  0.2206
 2185W        W 6236   5.596   3.759   0.549 -0.3030  0.1014  0.0368
 2186W        W 6237   5.389   4.802  12.267 -0.0573 -0.2831 -0.0757
 2187W        W 6238   1.986   0.529   4.602  0.1823  0.2104 -0.2881
 2188W        W 6239   7.099   2.336   3.785  0.1783 -0.0611 -0.0012
 2189W        W 6240   4.539   7.391  13.326  0.0274 -0.0415 -0.0598
 2190W        W 6241   5.044   9.282  10.625  0.3225 -0.0621 -0.1527
 2191W        W 6242   2.224   7.032  10.715  0.2592  0.0145 -0.0593
 2192W        W 6243   9.103   9.586  10.264 -0.0236 -0.1186 -0.0853
 2193W        W 6244   5.470   5.659   2.351 -0.1041 -0.2851 -0.2645
 2194W        W 6245   4.982   3.046   2.744  0.3462 -0.1072 -0.0246
 2195W        W 6246   7.760   7.224   2.580  0.1844  0.0625 -0.1556
 2196W        W 6247   8.781   0.566  12.554 -0.0304  0.1300  0.2873
 2197W        W 6248   4.943   2.103  10.836 -0.0708  0.0418  0.2564
 2198W        W 6249   9.404   5.738  12.787 -0.0016  0.1618  0.0478
 2199W        W 6250   9.932  10.141   4.585 -0.0051 -0.0931  0.0744
 2200W        W 6251   1.237   1.914   3.568 -0.0173  0.2144  0.0191
 2201W        W 6252   7.238   8.988   0.593  0.0642  0.4179 -0.0809
 2202W        W 6253   7.364   9.655   3.397 -0.1612  0.3271 -0.0666
 2203W        W 6254   4.320   3.883   4.362  0.1676  0.1937 -0.1730
 2204W        W 6255   8.945   7.832   1.015  0.2470  0.1874  0.0499
 2205W        W 6256   5.186   7.118  13.848 -0.1101 -0.0310  0.0239
 2206W        W 6257   9.766   9.228   3.001  0.1330  0.1563 -0.1247
 2207W        W 6258   2.688   8.797   2.447  0.1920  0.2159 -0.0081
 2208W        W 6259   0.269   2.972   3.307 -0.1422 -0.3711  0.0059
 2209W        W 6260   3.682   2.381   3.860  0.1253 -0.0419 -0.0822
 2210W        W 6261   5.342   7.145   2.262  0.0109  0.0748  0.0156
 2211W        W 6262   4.395  10.105   2.684  0.0614  0.1797 -0.0258
 2212W        W 6263   0.670   6.138   2.217 -0.3265  0.1292 -0.2693
 2213W        W 6264   2.253   6.393   9.665 -0.0502  0.1428 -0.0829
 2214W        W 6265   9.120   6.972  13.195  0.0036 -0.0513 -0.1214
 2215W        W 6266   9.338   4.339  13.782  0.0103 -0.2378 -0.0022
 2216W        W 6267   6.249   9.516  12.470 -0.2715  0.1091  0.0059
 2217W        W 6268   5.186   0.028   0.823 -0.1145  0.0065  0.1785
 2218W        W 6269   7.538   5.793  10.253 -0.1792  0.4546  0.0531
 2219W        W 6270   6.454   6.307   4.815  0.2121  0.1514  0.1955
 2220W        W 6271   1.206   3.307  12.739  0.0722 -0.3879 -0.4196
 2221W        W 6272   2.015   2.996   3.510  0.1931 -0.2794  0.1229
 2222W        W 6273   0.360   6.873   5.125 -0.2532 -0.0967  0.0979
 2223W        W 6274   6.457   2.608  11.296 -0.1955  0.0983  0.3686
 2224W        W 6275   2.968   7.790   3.934  0.0240  0.0754  0.0977
 2225W        W 6276   3.674   1.931  13.801  0.0439 -0.3352  0.1502
 2226W        W 6277   5.664   4.634  11.619  0.0152 -0.1015  0.1147
 2227W        W 6278   6.912   4.577   0.067  0.1962  0.1246  0.1937
 2228W        W 6279   0.777   4.763   0.726 -0.1925 -0.1990 -0.0789
 2229W        W 6280   1.570   2.151  11.212 -0.1355  0.1731  0.3731
 2230W        W 6281   6.436   4.042   0.102  0.1199 -0.1838 -0.4385
 2231W        W 6282   2.907   0.425   2.021 -0.0973  0.3626 -0.0833
 2232W        W 6283   9.611   3.565   0.084 -0.0366  0.2237 -0.0919
 2233W        W 6284   5.789   8.541  13.427  0.3308 -0.0183  0.2254
 2234W        W 6285   3.729   6.965   3.396  0.1225  0.0088 -0.2482
 2235W        W 6286   6.843   4.826   2.692 -0.2433 -0.0532  0.1041
 2236W        W 6287   2.752   6.157   5.066  0.2109 -0.0122 -0.0789
 2237W        W 6288   1.490   3.147  11.922  0.3625  0.0985 -0.1235
 2238W        W 6289   9.594  10.075   3.002  0.1527 -0.3668  0.5398
 2239W        W 6290   9.216   2.365  12.471 -0.1790 -0.1192 -0.2807
 2240W        W 6291   8.002   6.630   1.317 -0.3459  0.1537 -0.0542
 2241W        W 6292   2.185   1.127   2.015 -0.0280  0.0578 -0.0234
 2242W        W 6293   3.709   3.960   3.358  0.1966  0.1599  0.1339
 2243W        W 6294   0.051   5.780   9.716  0.1464  0.2227  0.2678
 2244W        W 6295   4.629   4.391   9.131  0.0365 -0.3469  0.1099
 2245W        W 6296   4.743   7.146   1.543 -0.2090 -0.0800  0.2464
 2246W        W 6297   2.084   7.958   1.210  0.1533  0.1678 -0.4255
 2247W        W 6298   2.225   1.999   1.364 -0.0097  0.1073 -0.1468
 2248W        W 6299   8.444   0.908   0.601  0.0051 -0.0907  0.2232
 2249W        W 6300  10.162   2.984  10.296  0.2887  0.1717 -0.1339
 2250W        W 6301   7.386   4.154   3.211 -0.1302  0.0242  0.1174
 2251W        W 6302   1.042   6.345   5.366 -0.0828 -0.1067 -0.0006
 2252W        W 6303   6.637   9.072   2.565  0.3267  0.1087 -0.7072
 2253W        W 6304   6.902   9.412   5.419 -0.1496  0.1291  0.1893
 2254W        W 6305   5.728   7.210   4.424 -0.0291  0.0757  0.0530
 2255W        W 6306   9.893   4.916  11.149  0.0680 -0.0719  0.0554
 2256W        W 6307   3.257   1.676   8.934  0.0630 -0.0824  0.1357
 2257W        W 6308   0.140   0.027   0.162 -0.0805 -0.2354 -0.1168
 2258W        W 6309   6.259   3.469   1.297  0.0312  0.0147  0.0492
 2259W        W 6310   4.654   2.883  10.820 -0.1204  0.0264  0.0192
 2260W        W 6311   1.730   1.353   0.969  0.0005 -0.2014 -0.0018
 2261W        W 6312   1.479   1.894   1.150 -0.1369 -0.5245 -0.1787
 2262W        W 6313   0.880   5.061   1.838 -0.4735  0.0606 -0.0263
 2263W        W 6314   0.860   5.791   8.608 -0.0238  0.0962  0.3193
 2264W        W 6315   2.674   0.905   2.154  0.1802  0.1710 -0.2128
 2265W        W 6316   6.932   7.123   5.437 -0.2324 -0.0899  0.1401
 2266W        W 6317   6.076   1.672   2.808  0.1787 -0.1711 -0.0568
 2267W        W 6318   2.978   8.119  12.742  0.2022  0.5742  0.2412
 2268W        W 6319   3.835   1.323   9.361  0.1317  0.1757  0.3044
 2269W        W 6320   7.794   1.596   0.512 -0.0640  0.0303  0.0254
 2270W        W 6321   4.804   8.538  10.696 -0.0631  0.0904 -0.0461
 2271W        W 6322   0.247   6.093  12.396 -0.1281 -0.0845  0.0476
 2272W        W 6323   0.428   0.331  10.158 -0.2263  0.2392  0.3305
 2273W        W 6324   5.202   8.412  10.314  0.2255  0.3332  0.1801
 2274W        W 6325   2.195   1.584   0.985  0.1164 -0.3834  0.2575
 2275W        W 6326   0.848   6.670  13.344  0.0495 -0.2505 -0.2793
 2276W        W 6327   4.478   8.821  10.154 -0.0303 -0.3361 -0.0855
 2277W        W 6328   7.073   0.500  11.404  0.0927 -0.1206 -0.2382
 2278W        W 6329   4.690   2.838  11.377 -0.1332  0.1054  0.0474
 2279W        W 6330   8.328   9.214   4.062 -0.0769  0.1610  0.2798
 2280W        W 6331   1.660   3.348  13.196 -0.0146  0.0209 -0.1581
 2281W        W 6332   1.538   4.154  13.610  0.0122 -0.0909 -0.1764
 2282W        W 6333   9.108   4.070   0.811 -0.2215 -0.0745  0.0324
 2283W        W 6334   2.628   6.544   9.939 -0.2457  0.1804 -0.1369
 2284W        W 6335   4.429   3.088  12.193 -0.3503  0.0477 -0.3097
 2285W        W 6336   4.502   5.649  12.563 -0.1536 -0.0824 -0.3710
 2286W        W 6337   1.157   1.462   2.451 -0.2609 -0.0802  0.2107
 2287W        W 6338   3.191   3.885   0.857  0.0415  0.1567 -0.5771
 2288W        W 6339   7.139   3.908   1.253 -0.0700 -0.0175  0.2639
 2289W        W 6340   8.622   2.581   3.353 -0.2273  0.0714  0.0249
 2290W        W 6341   4.272   5.662   3.522  0.0670 -0.0496  0.1056
 2291W        W 6342   3.432   0.318   0.272  0.0223  0.0906 -0.2125
 2292W        W 6343   4.169   7.837  10.239  0.0662 -0.3059  0.0585
 2293W        W 6344   0.781   5.587   3.976 -0.1417 -0.0261  0.2456
 2294W        W 6345   0.028   7.087   8.494  0.0032  0.0774  0.2732
 2295W        W 6346   8.574   5.832   1.655 -0.2156 -0.2234 -0.0225
 2296W        W 6347   8.143   3.937   3.325  0.1445  0.1338  0.0019
 2297W        W 6348   3.546   6.509   4.150 -0.0352 -0.2731  0.0657
 2298W        W 6349   3.726   0.566   8.671 -0.1489  0.1872 -0.2082
 2299W        W 6350   5.923   2.023   4.214  0.2041 -0.0290 -0.1485
 2300W        W 6351   9.101   1.349  12.034  0.0322  0.1325 -0.1582
 2301W        W 6352   1.612   1.689   3.963 -0.0907  0.0499  0.2572
 2302W        W 6353   4.666   5.407   3.382  0.1096 -0.0760 -0.0058
 2303W        W 6354   6.332   4.950   2.753 -0.1396  0.2965 -0.1553
 2304W        W 6355   1.585   8.409  13.843  0.2863  0.2338 -0.1296
 2305W        W 6356   8.736   4.724   2.140  0.1747 -0.1307 -0.4011
 2306W        W 6357   9.932   9.246  10.127 -0.1049  0.2616  0.1005
 2307W        W 6358   2.405   1.606   0.182  0.1131  0.2338  0.0983
 2308W        W 6359   5.863   5.690   2.016  0.1207 -0.2350  0.1014
 2309W        W 6360   0.163   4.099   0.585 -0.1097  0.0435 -0.0349
 2310W        W 6361   8.367   6.682   2.381  0.0519  0.1404  0.0716
 2311W        W 6362   4.141   8.474  13.598 -0.0068  0.4628  0.1281
 2312W        W 6363   7.146   8.185   0.101  0.0918  0.1246  0.0983
 2313W        W 6364   7.674   7.466  13.932 -0.1481 -0.0431  0.2532
 2314W        W 6365   0.862   8.575  12.769 -0.2559  0.1251 -0.0441
 2315W        W 6366   9.435   1.524   0.469  0.0040  0.0514  0.0238
 2316W        W 6367   3.764   1.865   1.247 -0.2425 -0.3144 -0.1040
 2317W        W 6368   2.977   1.273   4.511 -0.0620  0.2418  0.1237
 2318W        W 6369   3.371   8.390   0.043 -0.1317 -0.1162  0.0207
 2319W        W 6370   3.722   5.454   9.650  0.1529 -0.1242 -0.0718
 2320W        W 6371   7.871   2.829   2.278  0.0061  0.1971  0.1893
 2321W        W 6372   6.377   3.078   1.713  0.2036  0.2841  0.0966
 2322W        W 6373   4.415   9.481   4.581  0.0358 -0.2312  0.0400
 2323W        W 6374   1.353   1.118   9.302 -0.1335  0.3544  0.2375
 2324W        W 6375   1.310   6.450   1.310 -0.0236  0.0243  0.1880
 2325W        W 6376   8.187  10.091   0.849  0.0102  0.0257 -0.0433
 2326W        W 6377   0.940   0.548   9.968  0.0818  0.3539 -0.2284
 2327W        W 6378   0.583   2.912   1.517 -0.3703 -0.2210  0.0684
 2328W        W 6379   6.574   8.103   5.586  0.2640  0.1386  0.0366
 2329W        W 6380   6.678   4.005  13.228 -0.2683 -0.1852  0.0351
 2330W        W 6381   3.275   7.638   3.493 -0.3576 -0.1842  0.1598
 2331W        W 6382   9.231   5.053   3.422 -0.3913  0.1371  0.0228
 2332W        W 6383   8.656   8.561  13.922  0.2199  0.2114  0.1898
 2333W        W 6384   3.485   2.520   3.208  0.0871  0.1711  0.1682
 2334W        W 6385   8.558   5.562   2.585  0.0400 -0.4059 -0.1639
 2335W        W 6386   6.088   5.920   1.183  0.0851 -0.0032  0.3146
 2336W        W 6387   9.124   2.218   1.999  0.0341 -0.2056  0.0352
 2337W        W 6388   6.372   1.363   3.824  0.3046  0.0245  0.0343
 2338W        W 6389   2.426   8.349   3.364 -0.2599  0.2398 -0.3545
 2339W        W 6390   8.028   5.303   2.513 -0.2682 -0.0145  0.2203
 2340W        W 6391   3.361   3.051   0.361  0.3890  0.2087  0.0028
 2341W        W 6392   7.022   6.398   2.011  0.1835 -0.0188 -0.0580
 2342W        W 6393   2.967   1.114  10.077  0.0132 -0.0959 -0.3247
 2343W        W 6394   3.370   5.324   1.282 -0.0588  0.1749  0.1527
 2344W        W 6395   5.553   5.404  13.627  0.1907  0.1457  0.1595
 2345W        W 6396   6.481   0.698   2.646 -0.1587  0.0567 -0.2408
 2346W        W 6397   0.966   7.015   1.158 -0.0313 -0.0143  0.1556
 2347W        W 6398   2.400   2.692   0.433 -0.1092  0.0294 -0.1358
 2348W        W 6399   6.196   3.316   4.232  0.2658  0.0747  0.1407
 2349W        W 6400   3.093   0.105   2.383  0.0151  0.0073  0.0691
 2350W        W 6401   0.827   5.836   4.455  0.2845 -0.1211  0.1708
 2351W        W 6402   5.221   3.123  13.946  0.1413 -0.2280 -0.1259
 2352W        W 6403   7.661   3.381   2.900  0.0285 -0.2227  0.2891
 2353W        W 6404   5.435   4.293  11.207 -0.2144  0.0352  0.0149
 2354W        W 6405   3.973   7.949   9.697  0.1170 -0.1859  0.1891
 2355W        W 6406   6.135  10.172   4.328  0.0357 -0.0318 -0.2198
 2356W        W 6407   5.441   2.297  11.981  0.1795 -0.0718 -0.2892
 2357W        W 6408   5.399   0.355   3.750 -0.1358  0.1079  0.1820
 2358W        W 6409   2.922   2.823   1.824  0.3536 -0.2015  0.0780
 2359W        W 6410   5.873   7.119   0.924 -0.1460 -0.1037  0.0071
 2360W        W 6411   0.579   6.604  11.396 -0.2265 -0.0823 -0.4053
 2361W        W 6412   7.711   0.719  10.315 -0.1860  0.0898  0.4765
 2362W        W 6413   9.043   9.374  13.038  0.0926 -0.0794 -0.2710
 2363W        W 6414   8.156  10.009   0.269  0.2999  0.0986 -0.0450
 2364W        W 6415   0.724   1.413  12.929 -0.0471 -0.1113 -0.3077
 2365W        W 6416   4.357   9.007   0.443  0.0547 -0.4219 -0.0085
 2366W        W 6417   5.435   0.467  13.269  0.2129  0.1407  0.0269
 2367W        W 6418   9.205   1.375  12.820 -0.0427  0.0342 -0.2862
 2368W        W 6419   4.023   4.085  12.326 -0.1593  0.3384 -0.2406
 2369W        W 6420   3.449   9.596   3.767 -0.2142 -0.0849 -0.0105
 2370W        W 6421   3.931   0.502   0.167 -0.0397  0.3070  0.2177
 2371W        W 6422   1.026   2.329  13.168  0.0994 -0.1410  0.0045
 2372W        W 6423   1.648   9.368  10.900  0.1147 -0.2761  0.0384
 2373W        W 6424   0.090   5.815  13.391 -0.2198 -0.1442 -0.0790
 2374W        W 6425   2.188   2.683  12.663 -0.2487 -0.1101  0.0184
 2375W        W 6426   7.972   6.936   9.335 -0.0083 -0.3010 -0.3534
 2376W        W 6427   2.261   1.663  13.644  0.0218  0.1091  0.0811
 2377W        W 6428   2.879   0.659   4.254 -0.3456 -0.0848 -0.4156
 2378W        W 6429   1.983   0.723  10.011  0.4291  0.1853 -0.1495
 2379W        W 6430   1.235   7.172   1.568  0.0298  0.0748 -0.1433
 2380W        W 6431   8.988   3.295   0.678 -0.0438 -0.3331  0.1067
 2381W        W 6432   9.553   5.219  11.305  0.0570  0.2906  0.2419
 2382W        W 6433   6.691   8.855   1.573 -0.0311 -0.0349  0.0300
 2383W        W 6434   2.657   9.328  13.147 -0.0935  0.3607  0.2277
 2384W        W 6435   9.881   9.735  13.515  0.4283  0.4251 -0.2378
 2385W        W 6436   8.154   4.730   0.358  0.1708 -0.0968  0.1102
 2386W        W 6437   3.655   3.555  10.956 -0.0749  0.1164  0.1450
 2387W        W 6438   4.857   6.378  11.951  0.1916 -0.3809 -0.0745
 2388W        W 6439   8.260   3.324   9.918 -0.1238  0.1413 -0.0781
 2389W        W 6440   2.141   0.118   9.373 -0.0081 -0.1439  0.1911
 2390W        W 6441   7.010   8.045   3.427 -0.0518  0.2084  0.3593
 2391W        W 6442   3.277   8.761   2.302 -0.0233 -0.2866 -0.1537
 2392W        W 6443   2.321   8.406  13.846 -0.1079 -0.3153 -0.2969
 2393W        W 6444   5.838   5.594   5.248 -0.0266 -0.0847  0.3288
 2394W        W 6445   1.598   6.769  13.920 -0.1553 -0.0402  0.1284
 2395W        W 6446   6.748   6.198   4.344 -0.2317  0.1431 -0.0460
 2396W        W 6447   4.342   9.727   0.489 -0.1893  0.0578  0.4576
 2397W        W 6448   4.928   2.003  13.945 -0.2447  0.0104  0.2136
 2398W        W 6449   5.017   7.299   1.163 -0.0555 -0.1347 -0.4364
 2399W        W 6450   0.492   4.079  11.031  0.1936  0.1729 -0.0203
 2400W        W 6451   4.857   7.052   2.044  0.2538  0.0815 -0.1306
 2401W        W 6452   4.880   6.545   2.066  0.1315 -0.0635 -0.1351
 2402W        W 6453   1.586   8.100   8.732 -0.0656 -0.2361  0.0026
 2403W        W 6454   2.187   7.583   2.568  0.2848  0.1555  0.0855
 2404W        W 6455   4.250   9.957   1.926  0.1205  0.0511  0.1488
 2405W        W 6456   9.606   4.203   2.175 -0.0449 -0.1628 -0.2086
 2406W        W 6457   0.933   9.118  11.265  0.0129  0.3161  0.0488
 2407W        W 6458   4.965   1.448  10.952 -0.0589  0.0471 -0.1222
 2408W        W 6459   1.831   6.596  12.903 -0.0162 -0.0992  0.0107
 2409W        W 6460   7.718   7.844   4.518 -0.2065  0.0576 -0.0046
 2410W        W 6461   1.831   2.840   0.542  0.1405  0.4509  0.1587
 2411W        W 6462   2.325   7.539  10.767  0.0562  0.0180 -0.1210
 2412W        W 6463   1.009  10.079   1.263 -0.0221 -0.1824 -0.1166
 2413W        W 6464   3.111   9.778   2.348  0.0064  0.0857 -0.2027
 2414W        W 6465   0.347   8.045   0.026 -0.1193  0.1577  0.1761
 2415W        W 6466   3.732   5.527  11.127  0.1614 -0.0892 -0.1349
 2416W        W 6467   8.709   5.400   0.881  0.3301  0.2069  0.3758
 2417W        W 6468   9.087   4.582  12.614  0.0617  0.1449  0.0684
 2418W        W 6469   0.142   0.978   2.455  0.0407 -0.0821  0.3515
 2419W        W 6470   5.888   4.253   1.151 -0.0734 -0.1579 -0.0047
 2420W        W 6471   6.549   6.689   2.810 -0.1482 -0.2843 -0.0764
 2421W        W 6472   5.787   1.465   1.986 -0.1430  0.1978  0.2618
 2422W        W 6473   0.654   5.157   2.588  0.1817 -0.3970  0.1673
 2423W        W 6474   7.179   9.074   0.085  0.2665 -0.5096 -0.2371
 2424W        W 6475   5.786   1.880  12.121 -0.0455  0.1894  0.0428
 2425W        W 6476   3.006   4.618   2.829  0.2160  0.2779 -0.0931
 2426W        W 6477   0.062   7.193  13.074 -0.0793  0.1752 -0.1276
 2427W        W 6478   4.603   8.695   3.197  0.1243 -0.1685 -0.2640
 2428W        W 6479   5.550   7.219  12.429 -0.1760 -0.1563  0.1406
 2429W        W 6480   9.991   4.984   8.783  0.0169 -0.0228 -0.0962
 2430W        W 6481   7.030   3.725   1.742  0.0132  0.1925  0.1259
 2431W        W 6482   7.494   5.395  13.063  0.1284  0.0493  0.3612
 2432W        W 6483  10.022   0.249   3.158 -0.2302 -0.0823  0.0625
 2433W        W 6484   1.881   8.634  12.852  0.0885 -0.0155  0.1417
 2434W        W 6485   2.442   7.107   3.854  0.1369  0.3208 -0.1875
 2435W        W 6486   1.309   9.740   2.528  0.0053 -0.2274  0.4648
 2436W        W 6487   0.194   1.007  12.158  0.1290 -0.2132  0.2199
 2437W        W 6488   9.999   5.387   3.866  0.3139 -0.0017  0.2367
 2438W        W 6489   5.481   6.079   2.060 -0.2086  0.3407 -0.2553
 2439W        W 6490   5.007   0.457   1.008  0.1501  0.2777  0.1950
 2440W        W 6491   4.469   3.727   1.450 -0.0586  0.0672  0.0994
 2441W        W 6492   6.942   9.830   1.135 -0.0956 -0.0919 -0.1282
 2442W        W 6493   0.177   9.153  12.776  0.0470  0.0527 -0.1001
 2443W        W 6494   3.679   7.156  10.289 -0.3710 -0.3919 -0.1995
 2444W        W 6495   2.087   9.045  12.268 -0.1474  0.1395  0.2743
 2445W        W 6496   4.142   7.370   9.714  0.2265 -0.0599 -0.1589
 2446W        W 6497   8.106   7.082  13.337  0.1543 -0.3975 -0.0539
 2447W        W 6498   2.462   6.117  13.151 -0.1579  0.1670  0.0787
 2448W        W 6499   6.291   8.336  13.846  0.0842 -0.1125  0.2512
 2449W        W 6500   6.907   6.536   4.659 -0.3471 -0.3509 -0.2532
 2450W        W 6501   4.444   1.190  13.745  0.0917  0.2451 -0.2140
 2451W        W 6502   5.642   9.389   2.248 -0.0456  0.0197 -0.2857
 2452W        W 6503   5.296   3.945  13.774  0.3252 -0.2020 -0.0851
 2453W        W 6504   6.650   0.206  10.481  0.2730 -0.1968  0.0320
 2454W        W 6505   7.654   5.043  10.723  0.0374  0.2138  0.1397
 2455W        W 6506   4.437   2.680   3.178 -0.2067 -0.2579 -0.0119
 2456W        W 6507   8.074   2.584   0.801  0.0060 -0.1519  0.1543
 2457W        W 6508   0.114   0.778  10.981  0.1544 -0.1055  0.2243
 2458W        W 6509   4.172   0.570   5.186  0.1634  0.2117  0.1535
 2459W        W 6510   2.234   0.731   2.365 -0.2153  0.3460  0.0211
 2460W        W 6511   9.753   6.857   4.665 -0.0145  0.0186 -0.0865
 2461W        W 6512   4.417   6.997   9.577 -0.2021 -0.0799  0.1069
 2462W        W 6513   4.534   1.424   8.790 -0.0099 -0.3670  0.3841
 2463W        W 6514   4.150   2.922   0.829  0.3857  0.2021  0.0064
 2464W        W 6515   4.367   8.821   4.541 -0.0371  0.0555 -0.0666
 2465W        W 6516   4.215   2.422  13.089  0.0496  0.0610  0.0019
 2466W        W 6517   4.550   1.833   9.638  0.0625  0.0523 -0.0190
 2467W        W 6518   9.907   0.980  10.420 -0.0772 -0.1628  0.0382
 2468W        W 6519   2.603   9.239   1.268  0.1105  0.1316  0.0198
 2469W        W 6520   4.014   1.798  10.610 -0.1656  0.0774 -0.0414
 2470W        W 6521   7.847   5.493   1.421 -0.2658  0.0129  0.4924
 2471W        W 6522   3.883   7.434   4.173  0.1128  0.0399  0.0609
 2472W        W 6523   2.869   6.998  10.033  0.0300 -0.0101 -0.1162
 2473W        W 6524   3.420   0.117   9.935 -0.2407  0.4407 -0.1321
 2474W        W 6525   6.210   6.430   4.433  0.0503  0.1256 -0.0283
 2475W        W 6526   8.989   4.394  11.294  0.0129  0.0456 -0.1397
 2476W        W 6527   3.452   1.590   2.278  0.0592 -0.1258  0.0142
 2477W        W 6528   6.204   5.649   0.755 -0.2573  0.3697 -0.2498
 2478W        W 6529   0.914   1.149   3.822 -0.0956 -0.1057  0.2046
 2479W        W 6530   0.238   7.389   4.201  0.2290 -0.0195  0.0974
 2480W        W 6531   2.931   8.523   9.170  0.3309 -0.3119 -0.1494
 2481W        W 6532   3.412   1.974   3.092 -0.1073 -0.1059  0.1768
 2482W        W 6533   3.666   7.647   2.717  0.2679 -0.0880 -0.0191
 2483W        W 6534   6.742   8.377  12.753 -0.0205 -0.0171  0.0473
 2484W        W 6535   6.692   2.300  10.953  0.1092 -0.0606  0.1424
 2485W        W 6536   1.113   7.474   4.778 -0.0018 -0.0558  0.1267
 2486W        W 6537   5.734   0.310   2.543  0.2543 -0.1381  0.0477
 2487W        W 6538   7.554   3.701   4.352 -0.0751  0.1278  0.1602
 2488W        W 6539   7.154   0.498   1.451  0.4535 -0.1372  0.0812
 2489W        W 6540   0.409   4.135  10.530  0.4224 -0.1050  0.5486
 2490W        W 6541   0.353   7.437   3.310  0.1826 -0.0309 -0.2202
 2491W        W 6542   8.566   2.744   0.155  0.2186 -0.0244 -0.1925
 2492W        W 6543   6.047   5.817   4.261 -0.1169 -0.2183  0.0778
 2493W        W 6544   1.336   8.603  10.282  0.0701 -0.0522  0.1001
 2494W        W 6545   9.072   5.893   1.458 -0.3187  0.2219  0.0685
 2495W        W 6546   1.560   9.466   4.257 -0.1014 -0.2095  0.1860
 2496W        W 6547   3.109   5.137  13.781 -0.2365 -0.0952  0.0236
 2497W        W 6548   0.311   9.676  10.459  0.3794  0.1209  0.0566
 2498W        W 6549   6.910   3.335  11.180  0.0936  0.1419  0.0050
 2499W        W 6550   8.770   6.815  12.450 -0.0388 -0.1324  0.2423
 2500W        W 6551   6.545   4.293  10.951  0.1932 -0.2393 -0.0640
 2501W        W 6552   0.982   8.727   4.350 -0.2252 -0.0162  0.4080
 2502W        W 6553   2.292   7.846   1.666 -0.2511  0.1205  0.1076
 2503W        W 6554   4.369   2.235   0.441 -0.0283 -0.0098 -0.2184
 2504W        W 6555   6.359   9.759   2.287  0.2548  0.1786 -0.0764
 2505W        W 6556   6.477   4.744   3.629 -0.1896  0.2830 -0.0902
 2506W        W 6557   0.369   0.390   3.491 -0.2377  0.1829  0.0258
 2507W        W 6558   1.674   2.756  12.463  0.1606 -0.1010  0.1113
 2508W        W 6559   7.659   6.734  12.068 -0.0267  0.1378  0.1582
 2509W        W 6560   4.550   4.398  11.161  0.4225 -0.1088 -0.1061
 2510W        W 6561   5.860   2.265  13.422  0.1132 -0.2689 -0.0311
 2511W        W 6562   0.322  10.037  12.258 -0.1807  0.0188  0.0319
 2512W        W 6563   1.764   3.561   2.143 -0.1112 -0.0414 -0.3160
 2513W        W 6564   0.496   1.715  11.940  0.0252  0.1724  0.0629
 2514W        W 6565   2.219  10.070   0.360 -0.1588 -0.0744 -0.0951
 2515W        W 6566   3.112   7.148   3.460 -0.2517 -0.0092  0.0039
 2516W        W 6567   9.966   4.632   0.052  0.2628 -0.0868 -0.1244
 2517W        W 6568   1.268   5.669   4.218  0.2191  0.2196 -0.2302
 2518W        W 6569   6.204   7.838   1.257  0.0172 -0.2867 -0.2098
 2519W        W 6570   7.931   0.012  12.287 -0.3638 -0.1687 -0.1302
 2520W        W 6571   0.145   1.220   3.511 -0.0777  0.1045 -0.2594
 2521W        W 6572   2.479   1.304  12.270  0.0575  0.0091  0.0425
 2522W        W 6573   9.994   5.567   4.327  0.0227 -0.1070 -0.1639
 2523W        W 6574   9.410   5.496  11.793  0.0692  0.0056  0.0466
 2524W        W 6575   2.076   9.974  10.310  0.3685 -0.3899 -0.1261
 2525W        W 6576   0.592   1.245   2.674 -0.0156 -0.2583  0.2037
 2526W        W 6577   6.153   4.177  10.167  0.1411 -0.0531  0.1551
 2527W        W 6578   5.909   7.647  13.716  0.0168 -0.1700  0.2482
 2528W        W 6579   4.696   2.713  10.290  0.0121  0.4018  0.1551
 2529W        W 6580   4.695   9.482  12.016 -0.0408  0.2121  0.1889
 2530W        W 6581   5.466   2.492   4.041 -0.0206 -0.1882  0.0873
 2531W        W 6582   8.817   7.576  10.138  0.0366 -0.3002  0.2906
 2532W        W 6583   8.604   6.432   9.427 -0.0974  0.1153 -0.0552
 2533W        W 6584   4.854   2.711   1.645  0.0915  0.0076  0.1388
 2534W        W 6585   0.903   7.371   2.509  0.5424  0.1280  0.0813
 2535W        W 6586   6.058   8.629  10.407  0.2368  0.3854  0.1116
 2536W        W 6587   7.859   0.098   3.917 -0.0871  0.2651  0.1938
 2537W        W 6588   5.892   6.119  11.254  0.0806 -0.1882  0.0821
 2538W        W 6589   8.713   9.475   1.827 -0.1887  0.0056 -0.0693
 2539W        W 6590   5.170   7.379  12.801  0.2603 -0.1224  0.0514
 2540W        W 6591   9.293   7.181   1.575  0.0054  0.2534 -0.2143
 2541W        W 6592   0.259   7.992   9.600 -0.0191  0.0326 -0.1074
 2542W        W 6593   8.654   0.180  11.431 -0.2648  0.0743 -0.0792
 2543W        W 6594   5.645   0.988  10.343  0.4119 -0.0830  0.0470
 2544W        W 6595   7.737   0.369  12.043  0.2288  0.2979  0.2120
 2545W        W 6596   1.340   8.486  10.769 -0.0861  0.0637  0.1135
 2546W        W 6597   1.792   9.510  10.381  0.1789 -0.1225 -0.2557
 2547W        W 6598   8.998   5.282  12.023  0.0978  0.0046 -0.0764
 2548W        W 6599   8.323   3.538  13.929 -0.0996  0.1356 -0.0263
 2549W        W 6600   5.070   6.149   3.719  0.1221 -0.0851  0.0265
 2550W        W 6601   8.360   6.445   0.426 -0.2208 -0.2454  0.1764
 2551W        W 6602   5.762   7.331   9.987 -0.3459 -0.1502 -0.1140
 2552W        W 6603   7.170  10.107  11.172 -0.0364  0.0307  0.0306
 2553W        W 6604   9.606   7.716  12.690 -0.0291  0.0812  0.1470
 2554W        W 6605  10.040   1.533  10.175  0.1900 -0.2394  0.0778
 2555W        W 6606   2.740   7.171  10.851  0.0461  0.3583  0.2247
 2556W        W 6607   7.401   7.698   4.154 -0.0822  0.2077 -0.4357
 2557W        W 6608   1.796   2.929   2.040 -0.0385  0.0225 -0.4113
 2558W        W 6609   8.007   7.593   1.308  0.1979 -0.0045 -0.2376
 2559W        W 6610   8.160   8.318   9.353  0.0653 -0.0383 -0.0815
 2560W        W 6611   3.799   8.623  12.347 -0.0761  0.1192  0.4131
 2561W        W 6612   0.913   4.387  11.772  0.3430 -0.0298 -0.2050
 2562W        W 6613   8.633  10.043   0.067  0.1488 -0.0156 -0.0123
 2563W        W 6614   9.165   4.743   2.535  0.0368 -0.0287  0.2465
 2564W        W 6615   9.286   7.587   1.861 -0.3134  0.1188  0.2569
 2565W        W 6616   2.729   4.365   0.093  0.0076 -0.1804  0.0110
 2566W        W 6617   5.791   1.370   2.505  0.1511 -0.0518  0.0044
 2567W        W 6618   7.962   7.415   4.713 -0.2022  0.2811 -0.2963
 2568W        W 6619   4.554   1.833   3.897  0.0682 -0.0224  0.3486
 2569W        W 6620   6.352   8.932   9.253  0.0377  0.2001  0.0918
 2570W        W 6621   3.533   0.573  12.998 -0.0740 -0.2565  0.1927
 2571W        W 6622   4.705   5.750   3.878 -0.0356  0.1823  0.3384
 2572W        W 6623   3.199   1.852   1.218  0.3147  0.3262  0.2745
 2573W        W 6624   8.328  10.108   4.766  0.0167 -0.0225 -0.1038
 2574W        W 6625   3.214   4.915  11.904 -0.0903 -0.0496 -0.0796
 2575W        W 6626   2.748   0.791   0.776 -0.3355 -0.0150  0.2048
 2576W        W 6627  10.129   7.391  11.777 -0.1228 -0.1559 -0.2267
 2577W        W 6628   1.749   1.358  11.717 -0.2007 -0.0545  0.0988
 2578W        W 6629   5.011   1.752  10.352  0.0384 -0.2905  0.1502
 2579W        W 6630   0.419   7.815  12.721 -0.2032  0.1356  0.0528
 2580W        W 6631   0.493   8.675  10.159  0.0279  0.4155 -0.0797
 2581W        W 6632   4.981   2.995  12.947 -0.0595  0.7057  0.1897
 2582W        W 6633   6.726   0.355   1.807 -0.0050  0.0905 -0.1927
 2583W        W 6634   8.235   4.473   9.584 -0.3958 -0.0733 -0.1791
 2584W        W 6635   5.954   2.808   3.111  0.0439  0.0751 -0.0042
 2585W        W 6636   4.996   9.102  11.207 -0.1237  0.1835 -0.1548
 2586W        W 6637   2.875   8.968   2.020 -0.1851 -0.0857 -0.1187
 2587W        W 6638   5.240   8.395   2.674  0.0089  0.1060  0.1480
 2588W        W 6639   6.787   1.736   1.629 -0.0630 -0.2112 -0.1417
 2589W        W 6640   2.748   8.393   1.539 -0.0860 -0.1138  0.0419
 2590W        W 6641   7.743   8.066   9.399  0.0950 -0.1476  0.0775
 2591W        W 6642   2.886   9.007  10.187  0.1106 -0.1199 -0.0673
 2592W        W 6643   0.057   2.472  10.128  0.0677 -0.0803 -0.0609
 2593W        W 6644   9.628   4.674   2.283 -0.0224 -0.2469  0.2561
 2594W        W 6645   1.609   0.478   3.427  0.2718 -0.2755 -0.2801
 2595W        W 6646   1.860   4.163   9.090 -0.2017 -0.0552 -0.2157
 2596W        W 6647   8.592   7.639   4.578  0.2368  0.0732 -0.0495
 2597W        W 6648   4.199   5.759   1.469  0.0566 -0.1382 -0.1379
 2598W        W 6649   3.328   6.270   3.239  0.0422 -0.1551  0.2487
 2599W        W 6650   4.434   7.986   3.578  0.1097  0.1389  0.0949
 2600W        W 6651   1.566   4.364  11.239 -0.0289  0.0126  0.2411
 2601W        W 6652   7.106   0.992   3.328  0.0540 -0.4025 -0.0911
 2602W        W 6653   0.325   0.341   2.986  0.0948 -0.0662 -0.1275
 2603W        W 6654   4.408   5.302   9.083 -0.1004 -0.0969 -0.1225
 2604W        W 6655   5.210   2.773  12.024 -0.1352 -0.0215  0.1159
 2605W        W 6656   9.751   9.556   9.766 -0.0998  0.0867  0.1236
 2606W        W 6657   9.217   3.032  10.765 -0.0764 -0.0828  0.2511
 2607W        W 6658   7.170   0.851  10.083  0.0280  0.0120  0.1820
 2608W        W 6659   6.228   5.226  12.342 -0.0838  0.1651 -0.1791
 2609W        W 6660   9.574   2.450   3.088  0.0441 -0.1087 -0.0260
 2610W        W 6661   9.071   3.411  11.657  0.3279  0.1173 -0.2986
 2611W        W 6662   3.134   3.129   3.838 -0.1327 -0.1436  0.1934
 2612W        W 6663   1.256   4.003   9.935  0.1151  0.0457 -0.1143
 2613W        W 6664   4.913   6.645  11.274 -0.0219  0.0011  0.1541
 2614W        W 6665   7.462   7.505   2.196  0.3352 -0.0185 -0.1093
 2615W        W 6666   7.700   4.143   2.154  0.1070 -0.0855 -0.0654
 2616W        W 6667   6.547   1.038   3.472 -0.0787  0.1525 -0.0590
 2617W        W 6668   0.374   7.579  13.635  0.3933 -0.0834  0.1411
 2618W        W 6669  10.060  10.071  11.265  0.0103 -0.2045 -0.0571
 2619W        W 6670   4.096   8.703   4.073 -0.0782 -0.0148  0.0248
 2620W        W 6671   0.757   7.549   3.002  0.2089 -0.0432  0.2518
 2621W        W 6672   6.581   0.130   2.294  0.0634  0.0318  0.0808
 2622W        W 6673   1.328   9.479  10.491  0.2074 -0.1849  0.0852
 2623W        W 6674   9.937   2.057  12.197  0.0569  0.4955  0.4335
 2624W        W 6675   9.201   8.772   3.972  0.0480  0.0239  0.3394
 2625W        W 6676   1.485   2.981   8.761  0.1840  0.1400  0.3636
 2626W        W 6677   0.883   8.182  13.532 -0.0161  0.2141  0.0298
 2627W        W 6678   0.169   6.694   0.492  0.1182  0.0207  0.1196
 2628W        W 6679   0.757   7.965  11.523 -0.1743 -0.2871  0.1899
 2629W        W 6680   9.485   7.488   3.351  0.2465 -0.0726 -0.2011
 2630W        W 6681   1.818   1.117  12.135  0.1520  0.1629  0.0984
 2631W        W 6682   1.221   4.502  12.314  0.0804 -0.0014  0.2398
 2632W        W 6683   4.439   1.779   2.123  0.0474 -0.1133  0.3776
 2633W        W 6684   7.517   2.555   3.509  0.1213  0.0964  0.0681
 2634W        W 6685   3.759   9.136   9.932 -0.2221  0.2763 -0.0855
 2635W        W 6686   6.304   0.137  12.096 -0.0378 -0.1385  0.3036
 2636W        W 6687   7.482   4.763   0.067  0.0071 -0.2518  0.1412
 2637W        W 6688   9.962   6.462   1.607  0.1013 -0.2300 -0.1555
 2638W        W 6689   1.737   3.660   0.969  0.0275  0.0008  0.3849
 2639W        W 6690   0.216   3.886   4.313  0.3341 -0.3122  0.2269
 2640W        W 6691   8.772   7.168   1.781  0.1618 -0.2089  0.0115
 2641W        W 6692   5.063   2.706   9.893 -0.3955  0.1236 -0.0273
 2642W        W 6693   9.995   1.920   2.432 -0.0750  0.1341 -0.0425
 2643W        W 6694   8.457   9.653   1.384  0.2210  0.0697  0.0798
 2644W        W 6695   6.723   6.415  13.168 -0.1655 -0.3484  0.0680
 2645W        W 6696   8.962   8.332   9.601 -0.0411  0.0390  0.0912
 2646W        W 6697   4.493   7.019   0.730 -0.2789  0.2063  0.0176
 2647W        W 6698   2.280   7.503  12.671  0.0950 -0.0320  0.3376
 2648W        W 6699   0.933   6.438   9.584  0.0430 -0.0398 -0.1722
 2649W        W 6700   6.519   8.698  12.462  0.1951 -0.0873  0.1391
 2650W        W 6701   0.822   1.294  11.153  0.0093 -0.2531 -0.0035
 2651W        W 6702   8.577   1.858  13.535  0.0799 -0.0320  0.1772
 2652W        W 6703   2.534   6.536   0.136  0.0573  0.1486  0.0001
 2653W        W 6704   5.630   2.144  11.571  0.0114 -0.1331  0.1368
 2654W        W 6705   1.399   7.090   9.766  0.2462 -0.1354 -0.4223
 2655W        W 6706   3.150   5.765   1.187  0.0120 -0.1461  0.4406
 2656W        W 6707   6.735   9.461   2.327 -0.0513  0.1475  0.0615
 2657W        W 6708   0.763  10.133   9.465 -0.0249  0.2579  0.1752
 2658W        W 6709   9.906   2.918   9.856  0.2043 -0.0906  0.2927
 2659W        W 6710   1.711   0.888   1.965  0.1550  0.0230  0.2165
 2660W        W 6711   3.943   5.446   2.471 -0.0920  0.1015  0.0227
 2661W        W 6712   2.536   9.160   3.131  0.2137  0.2489  0.0104
 2662W        W 6713   6.020   9.260   1.147 -0.2009  0.3278 -0.0081
 2663W        W 6714   4.648   6.825   1.157  0.1129 -0.0567 -0.1964
 2664W        W 6715   5.460   0.196   1.201 -0.3054 -0.2159  0.0648
 2665W        W 6716   3.881   3.291   3.698  0.0020 -0.0092 -0.4615
 2666W        W 6717   4.858   5.266   4.041  0.1519 -0.0068  0.0638
 2667W        W 6718   7.328   4.556  10.623  0.0889 -0.3393 -0.1755
 2668W        W 6719   3.671   0.494   3.000 -0.0987  0.2996  0.2849
 2669W        W 6720   7.217   3.705   3.766 -0.0629 -0.2339  0.4248
 2670W        W 6721   8.318   6.182   3.242  0.1368 -0.2080  0.2227
 2671W        W 6722   6.322   7.845   0.623  0.0711  0.2693 -0.0713
 2672W        W 6723   2.659   6.190  10.477  0.2331 -0.2624 -0.1514
 2673W        W 6724   4.898   7.898   1.305 -0.0073  0.3375  0.2088
 2674W        W 6725   4.388   5.230   3.753 -0.2915  0.1289 -0.2203
 2675W        W 6726   7.807   1.354   4.448  0.0606 -0.0362 -0.0557
 2676W        W 6727   5.524   6.966  10.824  0.0584 -0.0247 -0.2725
 2677W        W 6728   9.914   1.644   1.255 -0.0030  0.1432  0.1763
 2678W        W 6729   6.202   9.046  12.147  0.3897 -0.0865  0.1636
 2679W        W 6730   8.183   1.471   1.808  0.0868 -0.0374 -0.0804
 2680W        W 6731   3.373   6.855   5.304 -0.0684 -0.0822  0.2074
 2681W        W 6732   6.788   2.748   1.934 -0.2285 -0.5514 -0.1490
 2682W        W 6733   7.205   5.931  12.408  0.1763  0.2111 -0.1834
 2683W        W 6734   3.029   4.018   9.390 -0.2272  0.4385  0.3653
 2684W        W 6735   4.639   9.580   0.998 -0.1918 -0.1676 -0.2133
 2685W        W 6736   9.791   1.264   0.684 -0.0487  0.1319 -0.2416
 2686W        W 6737   0.688   4.074   8.946 -0.1450 -0.1574  0.1117
 2687W        W 6738   4.970   7.667  13.301  0.1296  0.0257 -0.0447
 2688W        W 6739   6.090   2.180  11.673  0.0928  0.0388 -0.0773
 2689W        W 6740   5.984   1.438   3.270  0.0121 -0.1209  0.0587
 2690W        W 6741   9.975   4.601  12.561 -0.2859  0.2492  0.1158
 2691W        W 6742   3.868   2.398   2.403  0.1117 -0.0157  0.0166
 2692W        W 6743   4.543   3.507   1.898  0.0674  0.2736  0.1819
 2693W        W 6744   5.377   0.732   1.159 -0.0997 -0.2699  0.1536
 2694W        W 6745   1.456   3.108   9.270  0.1153 -0.1647  0.2530
 2695W        W 6746   4.050   2.228  10.921 -0.1352  0.0194  0.3082
 2696W        W 6747   9.829   6.163   9.800  0.1040 -0.1247  0.0174
 2697W        W 6748   5.486   4.815  10.349  0.0280 -0.1884 -0.1301
 2698W        W 6749   9.625   8.275   2.927  0.0862 -0.0247  0.0858
 2699W        W 6750   0.895   4.467   1.813 -0.2045 -0.0154 -0.2952
 2700W        W 6751   3.039   8.206   0.534 -0.1761  0.4543 -0.0958
 2701W        W 6752   4.835   8.111  12.967  0.1508  0.0559 -0.1486
 2702W        W 6753   3.834   8.017  10.624 -0.0068 -0.3169 -0.0773
 2703W        W 6754   4.570   6.771  12.158  0.2079 -0.1598 -0.0838
 2704W        W 6755   4.746   4.174   4.063  0.0158 -0.0961  0.0123
 2705W        W 6756   6.814   3.266   0.822  0.1926  0.3228 -0.1221
 2706W        W 6757   6.991   9.495   0.283  0.1211  0.2570 -0.2371
 2707W        W 6758   4.884   4.359  12.179 -0.0664 -0.1684 -0.2273
 2708W        W 6759   2.052   9.445   9.183  0.1903 -0.3270 -0.0182
 2709W        W 6760   7.722   2.289  10.780  0.0627 -0.2545  0.0059
 2710W        W 6761   2.283   4.175   0.116 -0.2839  0.0210  0.0401
 2711W        W 6762   1.618   9.175  10.046 -0.1255 -0.1439  0.0582
 2712W        W 6763   7.731   6.626   3.688 -0.0161  0.0139  0.1277
 2713W        W 6764   9.692   9.534   2.169  0.0196 -0.2882 -0.1481
 2714W        W 6765   5.532   6.296   4.835 -0.1318  0.0271 -0.0547
 2715W        W 6766   7.663   3.354  13.299  0.0102  0.1138 -0.2892
 2716W        W 6767   4.518   5.491   4.271  0.2510 -0.0674 -0.0442
 2717W        W 6768   7.158   0.007   2.252 -0.1862 -0.0029  0.0898
 2718W        W 6769   4.409  10.183   9.819 -0.0184  0.1886 -0.3702
 2719W        W 6770   2.558   1.951   2.280  0.0638  0.0798 -0.1796
 2720W        W 6771   8.215   3.923   1.433 -0.1876 -0.1231  0.0355
 2721W        W 6772   8.885   0.235  13.905  0.1829 -0.2936 -0.1480
 2722W        W 6773   8.418   5.091   3.970  0.1119  0.0736 -0.0389
 2723W        W 6774   2.223   6.229   1.256 -0.2604 -0.1834 -0.0888
 2724W        W 6775   8.433   1.959   2.482 -0.2275 -0.1750  0.0956
 2725W        W 6776   1.363   5.713  13.683  0.3797  0.0801 -0.3135
 2726W        W 6777   5.689   2.032   4.890  0.1384  0.2164  0.0235
 2727W        W 6778   9.725   8.234  11.509 -0.0532  0.5183 -0.0747
 2728W        W 6779   7.587   2.329   0.782  0.1030  0.0598 -0.3057
 2729W        W 6780   3.730   3.812  10.063 -0.1738 -0.2286  0.1919
 2730W        W 6781   5.007   6.913   0.832 -0.1630  0.1397 -0.1030
 2731W        W 6782   9.897   1.206  11.029 -0.2581  0.0204  0.1171
 2732W        W 6783   2.507   5.730   1.834  0.1749 -0.0092 -0.0516
 2733W        W 6784   1.818   7.841   9.073 -0.0348  0.1897  0.1242
 2734W        W 6785   5.188   9.701   3.305 -0.2291 -0.1485  0.0362
 2735W        W 6786   3.662   1.689  13.258 -0.0473 -0.2240  0.3665
 2736W        W 6787   6.799   1.128   4.808  0.2820  0.1873  0.0699
 2737W        W 6788   7.995   4.865   3.699  0.3045  0.2577  0.1734
 2738W        W 6789   6.548   6.879  12.893 -0.4192 -0.1568 -0.1841
 2739W        W 6790   0.717   4.603   9.619  0.3141 -0.0374 -0.1032
 2740W        W 6791   7.938   0.096  13.498  0.0440 -0.1177 -0.1452
 2741W        W 6792   4.596   1.747   0.377 -0.3619 -0.1935 -0.1698
 2742W        W 6793   3.309   3.352   0.886 -0.0849 -0.1147  0.0636
 2743W        W 6794   2.110   2.461   0.761 -0.0254  0.0158  0.0529
 2744W        W 6795   2.131   2.218   1.769 -0.0753  0.3088  0.1543
 2745W        W 6796   3.147   9.436   4.145  0.2991 -0.0114  0.0294
 2746W        W 6797   6.258  10.124  13.339 -0.0044 -0.1056  0.0828
 2747W        W 6798   0.166   0.323   2.502 -0.0943 -0.1196 -0.1093
 2748W        W 6799   5.979   6.145   4.864 -0.2325 -0.0457 -0.2662
 2749W        W 6800   7.114   4.020  12.756 -0.5013 -0.0809  0.2061
 2750W        W 6801   4.549   9.835  12.379  0.0264 -0.3796  0.0902
 2751W        W 6802   7.649   2.749   0.589  0.0297 -0.1566 -0.2571
 2752W        W 6803   8.192   7.319  10.270 -0.0943 -0.0107 -0.1187
 2753W        W 6804   3.381   3.914  11.137 -0.1056  0.0011  0.1512
 2754W        W 6805   5.688   7.216  11.201  0.1724  0.2558 -0.0210
 2755W        W 6806   1.789   3.912   2.580  0.0628  0.1642 -0.1259
 2756W        W 6807   0.756   1.787   3.288  0.3915 -0.2264 -0.1492
 2757W        W 6808   7.213   2.822   0.137 -0.0053  0.2464  0.0849
 2758W        W 6809   8.988   0.628   9.438  0.0755 -0.1184 -0.0964
 2759W        W 6810   0.404   5.933   1.847 -0.1687  0.0563 -0.2632
 2760W        W 6811   8.853   1.243  13.243  0.0095  0.0577  0.0079
 2761W        W 6812   9.305   8.445  11.225 -0.0242 -0.1110  0.1837
 2762W        W 6813   1.401   9.911   1.483 -0.0748 -0.1248  0.0907
 2763W        W 6814   8.328   9.989  12.659 -0.0009 -0.0944  0.0583
 2764W        W 6815   8.427   3.377   0.958 -0.3590 -0.3291  0.3770
 2765W        W 6816   7.227   3.180   3.604 -0.0708 -0.0265 -0.2716
 2766W        W 6817   0.343   2.561   2.900  0.0255 -0.0117  0.0673
 2767W        W 6818  10.079   5.147  12.525  0.1222  0.0803  0.1857
 2768W        W 6819   0.339   3.280  13.860  0.2070 -0.2054 -0.4122
 2769W        W 6820   7.812   1.136   2.303  0.1174  0.1216  0.0509
 2770W        W 6821   2.096   6.957  12.020 -0.1294  0.1569 -0.0335
 2771W        W 6822   1.062   6.963   3.835  0.0034 -0.1894 -0.4147
 2772W        W 6823   1.860   0.076   0.669  0.1750  0.0564 -0.1607
 2773W        W 6824   8.416   6.993  13.778 -0.1071  0.0680 -0.1455
 2774W        W 6825   9.363   6.837   1.169 -0.2179 -0.0110 -0.1166
 2775W        W 6826   4.979   2.723   0.338 -0.0363  0.1350 -0.1132
 2776W        W 6827   7.110   2.209   0.932 -0.2001 -0.1230 -0.0463
 2777W        W 6828   5.411   5.569  11.782 -0.0057 -0.0318  0.0334
 2778W        W 6829   4.792   9.699   1.912 -0.1898 -0.1844 -0.3496
 2779W        W 6830   5.579   1.059  13.264 -0.0377  0.0172  0.1851
 2780W        W 6831   6.741   8.284   3.985 -0.4865  0.1218  0.3209
 2781W        W 6832  10.085   5.708   0.440 -0.1952  0.1806 -0.0236
 2782W        W 6833   2.661   5.029  11.931 -0.1221 -0.1122  0.1074
 2783W        W 6834   9.569   5.113   9.818 -0.0081  0.0478  0.1374
 2784W        W 6835   3.731   4.681  11.472 -0.0589 -0.0714  0.1732
 2785W        W 6836   3.006   1.239  13.449  0.2977 -0.0346 -0.0944
 2786W        W 6837   4.920   3.355   0.387  0.2618 -0.2646  0.0935
 2787W        W 6838   6.020   1.058   0.137 -0.0408 -0.1273 -0.2212
 2788W        W 6839   4.877   7.356   5.292 -0.0251 -0.2075  0.0770
 2789W        W 6840   9.447   7.176  10.443 -0.0503 -0.1155  0.0405
 2790W        W 6841   3.058   6.586   9.727  0.0339 -0.0254 -0.0058
 2791W        W 6842   7.737   9.193   4.130 -0.0836  0.1638  0.0457
 2792W        W 6843   2.157  10.020   2.245  0.1414 -0.1088 -0.2713
 2793W        W 6844   0.227   0.223   1.586  0.3019  0.1561 -0.0670
 2794W        W 6845   4.862   8.478   9.804  0.0042  0.0307 -0.2118
 2795W        W 6846   2.713   3.456  13.774  0.2489 -0.0828 -0.2115
 2796W        W 6847   9.316   6.669  10.709  0.1727  0.1639 -0.1180
 2797W        W 6848   8.122   0.837   9.947 -0.1095  0.3306  0.1055
 2798W        W 6849   3.133   7.099   1.772  0.0211 -0.1817  0.0594
 2799W        W 6850   1.976   2.511  10.330 -0.0365 -0.3240  0.0884
 2800W        W 6851   2.366   6.541   0.809  0.0354 -0.3350  0.0184
 2801W        W 6852   8.498   6.439  13.944  0.3542  0.1371  0.0119
 2802W        W 6853   6.553   8.020   9.893 -0.1241 -0.4731  0.1005
 2803W        W 6854   4.715   5.816  13.194  0.0405 -0.0053  0.1323
 2804W        W 6855   0.846   1.043   1.706  0.2305  0.1080  0.0263
 2805W        W 6856   5.183   2.456  12.488 -0.0156 -0.1087 -0.1136
 2806W        W 6857   2.145   5.924  10.553  0.1586 -0.0462 -0.0194
 2807W        W 6858   1.471   4.644   3.543 -0.1830  0.0192 -0.2067
 2808W        W 6859   6.845   6.420  12.578 -0.0904  0.1661 -0.2967
 2809W        W 6860   0.172   8.526  11.979 -0.1448  0.2128  0.0306
 2810W        W 6861   4.171   8.960   3.361  0.2526  0.2464  0.0105
 2811W        W 6862   9.498  10.039  13.405  0.0593  0.0719 -0.0795
 2812W        W 6863   9.500   6.022   2.714  0.1169  0.1811  0.4324
 2813W        W 6864   1.938   8.610   9.534 -0.4214  0.0723  0.3364
 2814W        W 6865   6.074   1.727   2.253 -0.1140  0.0532 -0.1059
 2815W        W 6866   8.747   2.225  10.705  0.2596  0.1510 -0.0860
 2816W        W 6867   6.518   4.695  10.092  0.1286  0.1145 -0.1243
 2817W        W 6868   7.518   4.694   4.536 -0.3097 -0.0787 -0.0678
 2818W        W 6869  10.038   9.373   0.745 -0.0191  0.0379  0.3456
 2819W        W 6870   7.441   5.347  11.179  0.1063 -0.2112 -0.1361
 2820W        W 6871   8.316   4.105  10.371  0.1731 -0.0420 -0.1625
 2821W        W 6872   5.940   1.303  11.874  0.0898  0.0819  0.1161
 2822W        W 6873   7.930   1.194   3.909  0.3264  0.1565  0.2732
 2823W        W 6874   0.570   3.862   1.634  0.0524  0.2392  0.1420
 2824W        W 6875   6.499   1.261  11.870  0.2850 -0.0426  0.0834
 2825W        W 6876   2.656   5.142   4.558  0.0495  0.1966  0.0240
 2826W        W 6877   9.005   8.087  12.889 -0.1191 -0.2443 -0.2780
 2827W        W 6878   5.357   8.642  13.729 -0.0545 -0.0505 -0.0819
 2828W        W 6879   4.881   1.983   4.311  0.1441  0.1418  0.2548
 2829W        W 6880   5.946   6.811  10.575 -0.3594  0.1541  0.2227
 2830W        W 6881   2.201   0.053   3.842  0.1766  0.4296 -0.1515
 2831W        W 6882   4.143   8.706   4.986  0.2931 -0.0011 -0.0403
 2832W        W 6883   7.170   1.580   2.801  0.1325  0.0957 -0.1452
 2833W        W 6884   7.977   3.933   0.158 -0.1308 -0.1756  0.3081
 2834W        W 6885   2.236   7.531   3.538 -0.4584 -0.2720 -0.1030
 2835W        W 6886   2.249   9.767   5.348 -0.0378  0.0443 -0.0911
 2836W        W 6887   7.112   6.668  12.873 -0.2535  0.0082  0.1364
 2837W        W 6888   8.643   6.639   1.944  0.1051  0.2206 -0.1525
 2838W        W 6889   7.867   1.600  11.429  0.0499 -0.1989  0.2047
 2839W        W 6890   2.252   4.377   1.163 -0.0356 -0.5522  0.0808
 2840W        W 6891   3.039   6.851   0.441  0.1166  0.1145  0.2489
 2841W        W 6892   8.071   5.504  12.395 -0.0290  0.0310 -0.1805
 2842W        W 6893   8.689   6.277   1.341  0.0362  0.3342 -0.0100
 2843W        W 6894   3.274   6.101   1.537 -0.1838  0.1489  0.2273
 2844W        W 6895   6.064   9.077  12.611 -0.0159 -0.0653 -0.1208
 2845W        W 6896   4.564   4.633  11.835 -0.0031 -0.2437  0.1212
 2846W        W 6897   6.335   3.076   0.392 -0.0073  0.2054  0.0303
 2847W        W 6898   5.663   9.728  13.517 -0.1946  0.0895 -0.0269
 2848W        W 6899   0.130   4.605   2.078 -0.2997  0.0079 -0.1985
 2849W        W 6900   5.713   5.581   2.794  0.2283  0.3005  0.0317
 2850W        W 6901   3.663   6.787  13.170 -0.0886  0.1010  0.2142
 2851W        W 6902   6.326   0.696   1.628 -0.2692  0.0880 -0.2657
 2852W        W 6903   2.346   2.284   2.716 -0.0618  0.0804  0.1411
 2853W        W 6904   1.145   9.254  12.713  0.2723 -0.0517 -0.1701
 2854W        W 6905   3.386   0.494  10.655  0.1658 -0.4065 -0.3403
 2855W        W 6906   6.927   5.938  13.897  0.3209  0.0025 -0.1554
 2856W        W 6907   4.735   8.016  10.633  0.1308  0.0252 -0.1100
 2857W        W 6908   8.445   6.984   9.800  0.0407 -0.3562  0.4635
 2858W        W 6909   1.217   6.773   3.382  0.1799  0.2146 -0.1230
 2859W        W 6910   8.737   5.367   3.646 -0.2659  0.3579 -0.0695
 2860W        W 6911   0.072   2.768  12.252 -0.3507  0.0068  0.2171
 2861W        W 6912   1.359   6.131  11.169  0.0639 -0.2229  0.1139
 2862W        W 6913   9.467   0.018  11.158 -0.0245 -0.1102 -0.3528
 2863W        W 6914   4.159   7.217  11.118 -0.1141 -0.0101  0.0830
 2864W        W 6915   4.511   3.181   2.739 -0.2881 -0.0047 -0.0824
 2865W        W 6916   2.276   4.656   1.896  0.1305 -0.1116  0.0936
 2866W        W 6917  10.096   2.789  11.136 -0.0634  0.3260  0.0687
 2867W        W 6918   8.316   4.401   3.362 -0.1461 -0.0668 -0.2268
 2868W        W 6919   5.820   7.723  10.322 -0.1810 -0.0029  0.4399
 2869W        W 6920   4.079   9.476  11.699 -0.0637 -0.2793  0.3440
 2870W        W 6921   5.571   9.097   1.399 -0.2285 -0.0791  0.1017
 2871W        W 6922   7.496   4.069   1.616  0.1161 -0.2756 -0.0631
 2872W        W 6923   1.652   6.695  10.605  0.0712  0.1092  0.2164
 2873W        W 6924   6.720   8.571   2.479 -0.1296  0.1751  0.4401
 2874W        W 6925   8.874   0.171  11.933 -0.2178  0.3171 -0.4674
 2875W        W 6926   6.995   8.686  10.086 -0.1114 -0.1889  0.1536
 2876W        W 6927   2.469   0.597   1.841 -0.0576  0.0433 -0.1820
 2877W        W 6928   9.240   0.230  11.545  0.0450  0.1755  0.0676
 2878W        W 6929   1.191   1.200   4.274 -0.2041  0.1657  0.0064
 2879W        W 6930   5.434   9.544   2.692 -0.0626  0.1386  0.0986
 2880W        W 6931   0.818   5.398  10.782  0.1404  0.0008 -0.2916
 2881W        W 6932   4.182   2.195   2.042 -0.0722 -0.2156  0.1327
 2882W        W 6933   6.883   7.425  11.333 -0.1942 -0.3247 -0.2838
 2883W        W 6934   8.899   6.766   3.630 -0.0642  0.0625 -0.2572
 2884W        W 6935   3.326   0.357   0.945  0.1964  0.1597 -0.0580
 2885W        W 6936  10.071   5.026   1.746 -0.3122  0.1117  0.0836
 2886W        W 6937   3.396   6.579   2.735 -0.0361  0.3254 -0.0134
 2887W        W 6938   6.015   3.021  11.365 -0.3373 -0.1547  0.3573
 2888W        W 6939   6.250   1.743   9.941 -0.0142  0.1256  0.1666
 2889W        W 6940   6.627   3.574   0.243 -0.2314  0.1722  0.0208
 2890W        W 6941   6.540   6.160   0.157 -0.1378 -0.0951 -0.0575
 2891W        W 6942   2.488   7.050  13.890  0.0533  0.2670  0.0881
 2892W        W 6943   4.806   0.196   2.857 -0.1311 -0.1296 -0.2169
 2893W        W 6944   6.310   0.783   3.108  0.6613  0.0789  0.0907
 2894W        W 6945   1.720   3.395   0.145  0.5067 -0.4218 -0.0508
 2895W        W 6946   2.522   2.383  11.935 -0.2753 -0.1179  0.1436
 2896W        W 6947   9.547   2.881   0.757  0.2226 -0.0535  0.0979
 2897W        W 6948   0.011   0.641   5.338  0.1255  0.1341 -0.4903
 2898W        W 6949   8.739   8.441  13.093  0.1376 -0.3192 -0.2301
 2899W        W 6950   2.255   5.608  13.819 -0.2300  0.0767  0.1096
 2900W        W 6951   0.692   0.429   0.356 -0.1326  0.1759 -0.1928
 2901W        W 6952   7.077   4.517   3.345 -0.1027  0.0392 -0.2018
 2902W        W 6953   8.882   4.308   9.310  0.3132 -0.1566  0.2560
 2903W        W 6954   4.612   7.290  10.005 -0.1022 -0.0358  0.1595
 2904W        W 6955   4.064   7.959   0.582 -0.1111  0.1933  0.0944
 2905W        W 6956   0.842   3.878  11.892  0.1664  0.0316 -0.0901
 2906W        W 6957   7.919   8.275  10.135  0.0735  0.0296 -0.1007
 2907W        W 6958   4.184   2.712  10.706 -0.1175 -0.0047  0.0838
 2908W        W 6959   2.824   8.637   3.335  0.3810  0.1053  0.0023
 2909W        W 6960   7.979   1.687   3.705 -0.5666  0.0390 -0.0209
 2910W        W 6961   9.079   8.250  13.978 -0.1346  0.3723 -0.0597
 2911W        W 6962   0.178   1.371  13.303  0.3619  0.0918  0.0833
 2912W        W 6963   0.384   5.606  12.614 -0.0845  0.4505  0.0951
 2913W        W 6964   6.644  10.006  11.018 -0.1082 -0.0002 -0.0007
 2914W        W 6965   3.398   2.989  11.234 -0.1084  0.4098  0.1171
 2915W        W 6966   3.966   8.236   0.122  0.2641 -0.0696 -0.1492
 2916W        W 6967   3.935   1.806   2.120  0.5486  0.1164 -0.1427
 2917W        W 6968   9.177   0.640   2.950 -0.2764  0.3283 -0.3282
 2918W        W 6969   3.037   9.914  10.832  0.4110  0.2369 -0.2321
 2919W        W 6970   4.158   6.015   3.975 -0.1129  0.2035  0.1883
 2920W        W 6971   4.407   2.755  13.674 -0.1821 -0.0054 -0.1859
 2921W        W 6972   7.619   8.003  13.946  0.4056 -0.0508 -0.0484
 2922W        W 6973   6.866   5.098   9.594 -0.1687 -0.0404 -0.1793
 2923W        W 6974   6.839   5.403  10.520  0.1408 -0.1020 -0.0485
 2924W        W 6975   7.766   1.490   0.026 -0.0854 -0.4125 -0.4538
 2925W        W 6976   3.542   8.241  12.072  0.0206 -0.0134  0.2201
 2926W        W 6977   7.582   9.852  12.495  0.1043 -0.0908 -0.0661
 2927W        W 6978   8.881   7.202   5.013 -0.1251  0.0360  0.2529
 2928W        W 6979   1.397   4.098   9.410 -0.0581 -0.0609 -0.3759
 2929W        W 6980   5.695   5.191   4.552  0.1037 -0.0474  0.2069
 2930W        W 6981   3.485   7.832   0.529 -0.1678 -0.3291 -0.0469
 2931W        W 6982   0.516   0.493  11.109 -0.4653  0.0793 -0.0421
 2932W        W 6983   2.797   2.163  12.317  0.2052  0.0352 -0.0714
 2933W        W 6984   1.771   7.283   2.368 -0.1285 -0.1124  0.2237
 2934W        W 6985   6.127   5.225   1.947 -0.2063  0.0387 -0.1256
 2935W        W 6986   2.358   3.901  11.045 -0.0096 -0.1111  0.0505
 2936W        W 6987   5.670   2.652  11.665 -0.3474  0.1823  0.1061
 2937W        W 6988   3.370   3.716   4.603 -0.0105  0.1286 -0.2225
 2938W        W 6989   6.024   3.462  10.446 -0.2336 -0.1608  0.3414
 2939W        W 6990   1.276   0.533   2.579 -0.0157 -0.0171  0.3276
 2940W        W 6991   5.700   9.840   3.127  0.0697 -0.0001  0.1509
 2941W        W 6992   4.124   2.704   9.361  0.1721  0.0637 -0.3622
 2942W        W 6993   6.850   7.107   2.442  0.2065  0.0353  0.0966
 2943W        W 6994   1.825   3.832  13.289  0.0586  0.1125 -0.0021
 2944W        W 6995   9.650   4.089  12.991 -0.4475  0.1271  0.2860
 2945W        W 6996   4.365   5.660   2.435 -0.0518 -0.2984 -0.2732
 2946W        W 6997   2.970   7.204  12.587  0.0848  0.2807 -0.2784
 2947W        W 6998   5.724  10.021  13.923 -0.1896 -0.0623 -0.2064
 2948W        W 6999   7.705   9.053   2.826  0.1245  0.0448 -0.0329
 2949W        W 7000   7.565   1.189   1.251 -0.0865  0.0633  0.0700
 2950W        W 7001   2.467   4.349   8.303  0.0368  0.2518  0.0526
 2951W        W 7002   5.483   1.186   1.287 -0.2282  0.1377 -0.1254
 2952W        W 7003   8.230   1.135   2.619 -0.3066  0.4006 -0.1912
 2953W        W 7004   5.588   2.965   0.980  0.3881 -0.1016  0.0173
 2954W        W 7005   8.492   7.371   9.372  0.1308  0.2839 -0.3770
 2955W        W 7006   5.794   3.826  10.208 -0.0918 -0.2043  0.1089
 2956W        W 7007   1.605   1.112   3.244  0.1402 -0.1510 -0.0597
 2957W        W 7008   0.488   4.985  10.687  0.0884  0.2774 -0.1773
 2958W        W 7009   2.865   8.726   0.618 -0.0027 -0.0722  0.2270
 2959W        W 7010   3.551   1.457   2.809 -0.1357  0.1980 -0.0811
 2960W        W 7011   2.051   9.220   3.508  0.2432 -0.1121 -0.2965
 2961W        W 7012   5.009   2.340   1.917 -0.0948 -0.1467 -0.2783
 2962W        W 7013   8.834   2.851  11.870 -0.0398  0.1863 -0.0014
 2963W        W 7014   1.387   2.335   2.835  0.1019  0.2892 -0.2232
 2964W        W 7015   8.753  10.019   1.694 -0.2711 -0.0086  0.2609
 2965W        W 7016   5.837   6.447   3.427 -0.2832 -0.0918 -0.0306
 2966W        W 7017   8.316   1.006  10.763  0.4266  0.0598 -0.2992
 2967W        W 7018   5.304   0.172   4.591  0.1207 -0.0337  0.0736
 2968W        W 7019   4.961   9.642   0.149 -0.2634 -0.0670  0.3341
 2969W        W 7020   5.815   6.046  12.897  0.1911  0.1377  0.0826
 2970W        W 7021   9.208   4.245   0.371  0.2742 -0.0145 -0.0301
 2971W        W 7022   3.157   7.047   9.584 -0.1185  0.0659 -0.2964
 2972W        W 7023   6.621   7.220   2.878  0.2549 -0.2321 -0.1299
 2973W        W 7024   1.260  10.188   3.659  0.0372  0.1703  0.0348
 2974W        W 7025   2.120   3.193  11.214 -0.0807 -0.0888 -0.3957
 2975W        W 7026   0.785   8.022   1.690 -0.2085  0.0302 -0.1617
 2976W        W 7027   6.418   2.529   1.547  0.0511  0.0516 -0.2737
 2977W        W 7028   5.269   4.933   3.851  0.2072 -0.2265 -0.0500
 2978W        W 7029   1.120   5.035   3.065 -0.0880 -0.0842  0.0442
 2979W        W 7030   8.358   1.314  13.939  0.1676 -0.0819 -0.0034
 2980W        W 7031   0.766   7.435   3.828  0.1775 -0.0393 -0.1390
 2981W        W 7032   1.437   8.823   1.856  0.2458 -0.0817  0.0887
 2982W        W 7033   2.403   6.514   1.766 -0.2513 -0.3665 -0.0131
 2983W        W 7034   8.465  10.098  13.586  0.1555  0.0903  0.1274
 2984W        W 7035   6.692   3.015   3.716  0.0922 -0.1995  0.3603
 2985W        W 7036   6.268   5.184   1.271  0.0469 -0.0784  0.2524
 2986W        W 7037   8.903   9.639  13.789 -0.1521 -0.0770  0.0868
 2987W        W 7038   8.028  10.037   9.404  0.0938 -0.0296 -0.1827
 2988W        W 7039   5.357   3.944  12.135  0.0260 -0.1398  0.0073
 2989W        W 7040   6.754   8.982  13.803  0.0023  0.0687  0.0042
 2990W        W 7041   6.940   6.224  12.095 -0.1430 -0.0407 -0.0312
 2991W        W 7042   2.257   9.710   0.844 -0.0757 -0.3328  0.2774
 2992W        W 7043   6.830   6.417  13.669  0.2773 -0.1154  0.0542
 2993W        W 7044   1.985   5.551  12.761  0.2025 -0.3280  0.1870
 2994W        W 7045   8.137   7.669   4.315 -0.2223 -0.3255  0.0693
 2995W        W 7046   2.938   2.414  13.183  0.2379  0.1009  0.3490
 2996W        W 7047   9.381   1.112  11.664  0.2364 -0.1458 -0.0694
 2997W        W 7048   1.703   4.499   9.429 -0.1717 -0.2465  0.4410
 2998W        W 7049   0.067   0.409  13.672 -0.2209  0.0848 -0.0732
 2999W        W 7050   8.410   2.978  11.376 -0.2091 -0.2816 -0.2962
 3000W        W 7051   2.450   1.124  11.049 -0.1374  0.0652  0.2236
 3001W        W 7052   4.370   9.401  11.266  0.3157  0.2318 -0.3819
 3002W        W 7053   6.015   5.274  10.993 -0.0013  0.2409 -0.0252
 3003W        W 7054   3.303   4.810   1.260 -0.3254 -0.3074  0.2137
 3004W        W 7055   8.421   5.948  12.389  0.3453 -0.3199  0.3515
 3005W        W 7056   7.475   0.202   0.031 -0.1589 -0.2682 -0.5767
 3006W        W 7057   6.637   2.987  13.404 -0.1237 -0.2947  0.0697
 3007W        W 7058   4.808   0.399  10.020  0.1261 -0.3006 -0.0792
 3008W        W 7059   6.048   4.374   0.250  0.1904  0.2131 -0.0845
 3009W        W 7060   5.065   7.678   4.840 -0.0555  0.3046 -0.2439
 3010W        W 7061   8.834   9.031   2.025 -0.0995  0.2359  0.3057
 3011W        W 7062   0.296   6.494  10.432 -0.0083 -0.3000  0.0295
 3012W        W 7063   9.582   1.591   2.459 -0.1174  0.1741  0.1817
 3013W        W 7064   0.610   4.349   4.475 -0.1547 -0.2117  0.1152
 3014W        W 7065   5.302   1.342  12.982  0.3441 -0.4282  0.1333
 3015W        W 7066   0.660   9.084  12.396 -0.2941 -0.2074 -0.0540
 3016W        W 7067   0.059   3.656   9.630 -0.1460  0.2526 -0.1036
 3017W        W 7068   3.130   8.698   1.652 -0.2554  0.1689 -0.3423
 3018W        W 7069   1.265   5.779  11.575 -0.0212  0.0731  0.2187
 3019W        W 7070   4.190   8.048   5.239 -0.1036  0.4496  0.0838
 3020W        W 7071   5.646   3.604   0.093  0.0685  0.1401 -0.1382
 3021W        W 7072   2.205   3.889   1.191 -0.2905 -0.0583 -0.1949
 3022W        W 7073   6.850   4.697  12.260  0.1296  0.0811 -0.1012
 3023W        W 7074   1.024   3.786   1.483  0.1679  0.1956  0.1438
 3024W        W 7075   7.520   7.706   2.660 -0.0418 -0.1240 -0.0464
 3025W        W 7076   2.467   3.041   4.736  0.1393 -0.0235  0.0368
 3026W        W 7077   2.561   3.953  13.662  0.0990  0.0157  0.2445
 3027W        W 7078   0.882   5.425  12.734  0.0216  0.2261 -0.0540
 3028W        W 7079  10.040   4.282  11.711 -0.1948 -0.1115 -0.0617
 3029W        W 7080   1.442   9.625  11.726  0.0920 -0.0154  0.0231
 3030W        W 7081   9.640   5.793  10.650  0.2169  0.0281 -0.0442
 3031W        W 7082   5.239   9.340  12.677  0.0457 -0.2589  0.1179
 3032W        W 7083   9.276   3.049   2.579  0.0431  0.1532 -0.0636
 3033W        W 7084   6.582   8.536   5.011  0.2266  0.3565  0.0586
 3034W        W 7085   9.873   6.807   3.986 -0.0382  0.2008 -0.0312
 3035W        W 7086   1.324   9.347   1.691  0.1599 -0.0852 -0.0253
 3036W        W 7087   4.993   8.679   2.392 -0.0355  0.3639  0.3097
 3037W        W 7088   8.545   7.437  10.637  0.0104  0.0813  0.1763
 3038W        W 7089   0.697   7.072   3.370 -0.1658 -0.0180  0.1876
 3039W        W 7090   0.411   5.214   4.666  0.2601 -0.1097 -0.0637
 3040W        W 7091   1.020   6.968   0.538 -0.2958  0.2440  0.0565
 3041W        W 7092   6.695   6.648   0.137 -0.0829  0.1089  0.0042
 3042W        W 7093   0.928   2.386  12.643  0.1614 -0.0018  0.0341
 3043W        W 7094   2.859   4.248   1.941  0.0279  0.0035 -0.0981
 3044W        W 7095   1.577   1.488  12.305 -0.1207  0.0672  0.1265
 3045W        W 7096   7.718   2.672  12.635  0.0414 -0.0901  0.2183
 3046W        W 7097   4.041   1.086  11.430  0.0939  0.0769  0.2003
 3047W        W 7098   6.929   6.015  12.889  0.0313 -0.1672 -0.4126
 3048W        W 7099   1.742   4.807  11.533  0.0570 -0.3985  0.3023
 3049W        W 7100   4.511   7.132   3.586  0.4206  0.3089 -0.0979
 3050W        W 7101   1.018   2.839  13.314  0.1649  0.5270 -0.1015
 3051W        W 7102   7.027   1.565  10.627 -0.1267 -0.0718 -0.2272
 3052W        W 7103   1.616   4.255   2.968  0.0369  0.2038 -0.0093
 3053W        W 7104   6.844   0.870  11.217 -0.0469 -0.0154  0.0411
 3054W        W 7105   3.960   4.166   2.997  0.0924 -0.0095 -0.2479
 3055W        W 7106   5.895   5.434   1.087 -0.0813  0.1745 -0.2574
 3056W        W 7107   4.201   0.066  13.926 -0.0299  0.4908 -0.2258
 3057W        W 7108   2.404   2.076   0.899 -0.0337  0.1946  0.2104
 3058W        W 7109   3.145   7.835  11.238 -0.0621 -0.0098  0.0275
 3059W        W 7110   1.485   5.256  13.335  0.0749 -0.0245 -0.0185
 3060W        W 7111   1.008   0.580  12.454 -0.1338  0.0881  0.2993
 3061W        W 7112   3.821   7.461   3.173 -0.1486  0.3167  0.1465
 3062W        W 7113   0.033   1.567   3.861  0.1334  0.3297 -0.1604
 3063W        W 7114   2.579   5.602  11.843 -0.1212 -0.1036  0.2494
 3064W        W 7115   6.688   8.378  13.243  0.2615  0.1282  0.2594
 3065W        W 7116   3.520   1.225  10.355  0.1225 -0.3811  0.0555
 3066W        W 7117   1.822   3.221  13.676  0.0280 -0.0141 -0.0322
 3067W        W 7118   1.704   7.525  10.737 -0.1750  0.0186 -0.0473
 3068W        W 7119   8.752   6.063   0.294  0.1165  0.4610 -0.1722
 3069W        W 7120   3.078   1.390   9.549 -0.0593 -0.1609  0.1158
 3070W        W 7121   5.939   1.963   1.832 -0.5165  0.1833  0.1989
 3071W        W 7122   3.886   9.047  12.073  0.0440 -0.2955  0.2904
 3072W        W 7123   3.584   7.443   1.746  0.2089 -0.0496 -0.0607
 3073W        W 7124   5.768   9.441   1.750  0.0690 -0.1911 -0.0832
 3074W        W 7125   8.447   1.770   3.790 -0.0862 -0.0120 -0.2414
 3075W        W 7126   6.344  10.129   0.938  0.4483  0.0326  0.0307
 3076W        W 7127   0.750   3.233   3.087 -0.2725 -0.3896  0.1269
 3077W        W 7128   3.639   2.896   2.279 -0.0330  0.2783 -0.3584
 3078W        W 7129   8.179   3.813   0.972  0.0936 -0.2266 -0.3162
 3079W        W 7130   5.077   4.027   4.367  0.0233  0.0016  0.1579
 3080W        W 7131   5.139   7.422   0.364 -0.0802 -0.0607  0.0587
 3081W        W 7132   5.180   4.570  11.825 -0.0637  0.1942  0.2261
 3082W        W 7133   8.541   4.993  11.910  0.2205  0.2535  0.1099
 3083W        W 7134   5.184   2.436   1.404  0.0298  0.2345  0.1925
 3084W        W 7135   8.678   8.082   3.324  0.0785 -0.1152 -0.0668
 3085W        W 7136   5.696   2.782   3.640  0.1187  0.0319 -0.0678
 3086W        W 7137   4.692   5.800  11.156  0.1258  0.2503 -0.1571
 3087W        W 7138   0.288   8.587   1.226 -0.3529 -0.0348  0.1479
 3088W        W 7139   8.192   5.888   0.242  0.2824 -0.0670 -0.0059
 3089W        W 7140   9.855   9.727   4.331 -0.1961  0.0109  0.2467
 3090W        W 7141   0.397   3.970   2.874  0.0210  0.1157  0.0192
 3091W        W 7142   5.321   8.109   9.331  0.1522 -0.2038  0.0564
 3092W        W 7143   9.899   6.324   3.858 -0.0597  0.0788 -0.2264
 3093W        W 7144   0.165   7.333  10.023 -0.2661 -0.2465  0.1367
 3094W        W 7145   7.694   1.626   1.437 -0.0274 -0.3548  0.1423
 3095W        W 7146   1.608   1.613  10.591  0.0209  0.2847  0.0058
 3096W        W 7147   0.826   8.612  10.521 -0.0064  0.1304 -0.2305
 3097W        W 7148   0.528   0.458  12.298  0.2085  0.3108 -0.2507
 3098W        W 7149   6.605  10.064  12.977 -0.5059  0.0315 -0.3210
 3099W        W 7150   8.586   6.545  10.595  0.0226 -0.0936 -0.1218
 3100W        W 7151   6.862   0.183   3.337 -0.0065  0.0094  0.1363
 3101W        W 7152   9.836   5.437   1.536 -0.2902  0.0899 -0.0968
 3102W        W 7153   0.597   3.487   1.064  0.0428 -0.0708 -0.2924
 3103W        W 7154   6.610   7.103   0.321 -0.2582 -0.2267  0.2345
 3104W        W 7155   5.083   5.342   5.744 -0.0497 -0.0235  0.0539
 3105W        W 7156   8.573   1.103  10.191  0.0703 -0.0203 -0.0294
 3106W        W 7157  10.096   4.789  10.688  0.0227 -0.0783 -0.0547
 3107W        W 7158   3.282   8.836   0.287 -0.0063  0.1201  0.0563
 3108W        W 7159   1.136   4.138  13.912 -0.0640  0.0265  0.0264
 3109W        W 7160   7.421   8.738   4.596  0.0506 -0.2732 -0.0596
 3110W        W 7161   7.583   5.085   3.245 -0.3484 -0.0966 -0.0184
 3111W        W 7162   2.060   4.307  10.094  0.1140 -0.3680 -0.2705
 3112W        W 7163   3.135   0.862  12.682 -0.0550  0.2456 -0.2038
 3113W        W 7164   1.259   7.873   0.737 -0.2416 -0.0562 -0.2297
 3114W        W 7165  10.112   9.946   2.075 -0.0868  0.3081  0.3131
 3115W        W 7166   5.515   7.286   1.347 -0.0843 -0.2664  0.0160
 3116W        W 7167   2.947   8.448   2.138  0.0615 -0.2684  0.1122
 3117W        W 7168   3.458   9.098   0.761  0.1273 -0.2978 -0.1016
 3118W        W 7169   5.170   0.734  11.788  0.1901  0.1426  0.0146
 3119W        W 7170   6.475   8.113  10.769  0.0550  0.0942 -0.1716
 3120W        W 7171   5.980   2.520   4.006 -0.3730  0.2322  0.1225
 3121W        W 7172   5.301   0.314  11.303  0.0367  0.0967  0.0281
 3122W        W 7173  10.104   7.429  13.489  0.1462 -0.1320 -0.0435
 3123W        W 7174   5.404   1.658   2.314  0.3185  0.0801  0.0148
 3124W        W 7175   9.095   6.174  12.888 -0.0040 -0.2035  0.0567
 3125W        W 7176   4.980   0.640   1.493  0.1632 -0.2486  0.1589
 3126W        W 7177   9.227   2.512   2.718  0.1877 -0.0884  0.4537
 3127W        W 7178   0.660   5.230   9.779  0.0931  0.1441  0.1352
 3128W        W 7179   6.992   0.460   0.743 -0.0684  0.1073  0.1479
 3129W        W 7180   7.650   7.763   5.049 -0.0494  0.0691 -0.1120
 3130W        W 7181   5.378   9.164  13.510 -0.0763 -0.1294 -0.0257
 3131W        W 7182   5.244   5.832   9.525 -0.2224 -0.1567  0.0512
 3132W        W 7183   7.614   2.860  10.541 -0.0518 -0.2323  0.2485
 3133W        W 7184   9.152   5.715   3.753  0.3115 -0.0935 -0.0370
 3134W        W 7185   3.245   2.316  11.460 -0.0976  0.2482 -0.0121
 3135W        W 7186   0.495  10.045  12.933 -0.0345 -0.1377 -0.0927
 3136W        W 7187   4.820   4.264  11.569 -0.0356  0.0760  0.0414
 3137W        W 7188   1.535   7.193   5.062  0.0499 -0.1526 -0.1169
 3138W        W 7189   0.567   1.995   0.475 -0.0814 -0.2696 -0.1060
 3139W        W 7190   5.033   9.934  11.263  0.1042  0.0355 -0.3801
 3140W        W 7191   2.769   7.500  10.000  0.1773  0.2925 -0.0804
 3141W        W 7192   4.165   8.700   0.080  0.1687  0.2307  0.2476
 3142W        W 7193   3.339   4.456   5.217 -0.1419  0.0273  0.0417
 3143W        W 7194   5.766   0.957   0.938 -0.0345  0.0745  0.2065
 3144W        W 7195   1.454   6.113   0.929 -0.1296  0.1124  0.1515
 3145W        W 7196  10.122   9.814   3.864  0.0550 -0.3998 -0.2052
 3146W        W 7197   2.602   3.739   2.879 -0.0076  0.1220 -0.1463
 3147W        W 7198   5.736   2.626   2.345  0.3156 -0.3669  0.0984
 3148W        W 7199   8.302   4.099   0.562  0.1619 -0.3371 -0.3268
 3149W        W 7200   8.322   9.149  13.155 -0.5433  0.1585 -0.2138
 3150W        W 7201   4.106   8.371   5.928  0.2203 -0.3007  0.1579
 3151W        W 7202   2.865   2.039  11.791 -0.0816 -0.0249 -0.2303
 3152W        W 7203   0.695   6.522   2.512 -0.1222 -0.0352 -0.2511
 3153W        W 7204   6.803   9.511   3.300  0.0858  0.1899 -0.3441
 3154W        W 7205   6.999   7.459   4.414  0.0332 -0.2246 -0.0662
 3155W        W 7206   3.105   4.196   4.283 -0.1863  0.2064  0.1103
 3156W        W 7207   5.085   6.540   0.364  0.0838 -0.5296  0.0912
 3157W        W 7208   2.344   9.374  11.999  0.0035  0.0052 -0.0599
 3158W        W 7209   4.540   9.776  10.123  0.2755 -0.1319 -0.3050
 3159W        W 7210   5.929   0.436   3.525 -0.2206 -0.0415 -0.0129
 3160W        W 7211   9.535   0.315  10.046 -0.1790  0.2931 -0.1952
 3161W        W 7212   8.359   4.431  12.094 -0.3187 -0.0094  0.1479
 3162W        W 7213   6.741   9.349  12.302  0.0641 -0.2350  0.0023
 3163W        W 7214   2.489   8.421   2.034 -0.2944 -0.0868  0.0869
 3164W        W 7215   3.097   1.643  10.092 -0.2727 -0.2938  0.1990
 3165W        W 7216   5.777   9.042  11.302 -0.1543 -0.1799 -0.0596
 3166W        W 7217   9.036   5.566   3.279  0.0684  0.0714 -0.2500
 3167W        W 7218   3.376   5.712  11.516 -0.1411  0.1300  0.2547
 3168W        W 7219   6.662   7.889  13.627  0.0276  0.0203  0.1148
 3169W        W 7220   2.125   6.733  13.769 -0.3070  0.2017  0.0424
 3170W        W 7221   9.556   5.143   1.106 -0.5037 -0.0033 -0.0840
 3171W        W 7222   3.045   8.875  10.683 -0.0033  0.0643 -0.0508
 3172W        W 7223   9.856   3.272  11.664 -0.1765  0.0867  0.0677
 3173W        W 7224   2.260   5.729   0.340 -0.0733 -0.1055 -0.0790
 3174W        W 7225   5.529   8.862   3.886  0.0793  0.1983 -0.0911
 3175W        W 7226   4.784   0.891   0.643 -0.2743  0.0061  0.0564
 3176W        W 7227   7.848   5.063   1.756  0.2197 -0.0120  0.3405
 3177W        W 7228   3.532   9.846   9.740  0.0537  0.1314 -0.1543
 3178W        W 7229   1.237   9.654   1.099 -0.0941 -0.1080  0.1047
 3179W        W 7230   9.825   0.458   0.748  0.3322 -0.2553  0.0840
 3180W        W 7231   9.947   2.463   2.297  0.1194  0.3448 -0.0330
 3181W        W 7232   2.469   1.909   8.318 -0.2057  0.2260  0.3345
 3182W        W 7233   8.557   3.292   2.775  0.0283 -0.0893  0.1411
 3183W        W 7234   1.559   5.575   3.833 -0.0210 -0.0912  0.1675
 3184W        W 7235   8.989   8.941  10.132  0.0854  0.0697  0.1219
 3185W        W 7236   0.891   1.998   1.812 -0.2299  0.5040 -0.2029
 3186W        W 7237   8.360   5.924   0.678  0.0298 -0.0490 -0.0785
 3187W        W 7238   8.840   2.764   2.577 -0.1709 -0.0292 -0.0753
 3188W        W 7239   9.839   2.687  11.577  0.0078  0.1051 -0.1155
 3189W        W 7240   2.502   4.248   2.808  0.0886 -0.1669  0.1515
 3190W        W 7241   1.606   9.772  11.176  0.0485  0.2881  0.3121
 3191W        W 7242   8.517   2.341   0.975 -0.0174  0.0011 -0.1499
 3192W        W 7243  10.076   0.342   3.693  0.1904 -0.1556  0.3346
 3193W        W 7244   5.891   9.681   3.586 -0.2791 -0.0563 -0.2352
 3194W        W 7245   1.487   8.982   4.165 -0.0270  0.0069  0.2425
 3195W        W 7246   3.148   9.455  11.474  0.0662  0.0911  0.0220
 3196W        W 7247   0.230   6.354   1.792  0.0738  0.5142  0.0403
 3197W        W 7248   8.433   5.846   4.857 -0.1431 -0.1625  0.0113
 3198W        W 7249   0.630   4.798   2.236  0.0120 -0.0377  0.1190
 3199W        W 7250   9.104   9.941  11.569 -0.1474 -0.1441 -0.0568
 3200W        W 7251   2.699   7.574  11.087  0.0677  0.1399 -0.0809
 3201W        W 7252  10.119   7.302   3.732  0.0705 -0.2274 -0.0262
 3202W        W 7253   9.873   8.585  11.981 -0.1300  0.0505  0.1504
 3203W        W 7254   0.258   7.748   1.301  0.2241  0.0738 -0.0569
 3204W        W 7255   1.624   4.547  12.757  0.2669  0.2776 -0.0117
 3205W        W 7256   3.727   7.189  13.530  0.0795 -0.1065 -0.0104
 3206W        W 7257   5.071   4.857   9.542  0.0312 -0.0763 -0.3035
 3207W        W 7258   2.888   8.388   0.987 -0.1265 -0.1541 -0.0908
 3208W        W 7259   4.690   1.818   1.262 -0.1417  0.1163 -0.1247
 3209W        W 7260   9.682   9.433  12.513  0.0228 -0.1986  0.1842
 3210W        W 7261   1.953   5.882   4.686  0.0606  0.4886 -0.0037
 3211W        W 7262   8.079   9.582   4.381  0.1794 -0.3003 -0.0726
 3212W        W 7263   5.635   4.282  13.507  0.2052 -0.1294 -0.3374
 3213W        W 7264   1.126   9.833  10.206 -0.1728 -0.0885 -0.1593
 3214W        W 7265   4.576   8.828  13.842 -0.3446  0.2533  0.0287
 3215W        W 7266   4.121   5.913  11.956 -0.2462 -0.5040  0.0039
 3216W        W 7267   3.176   7.285   1.317 -0.1536  0.3703 -0.0370
 3217W        W 7268   5.856   8.137   3.043 -0.0076 -0.0329 -0.0926
 3218W        W 7269   9.645   2.966  10.398  0.1145  0.1510 -0.2146
 3219W        W 7270   5.197   8.712  10.930 -0.2322 -0.0362  0.1538
 3220W        W 7271   1.021   6.304   3.161 -0.1410 -0.0300 -0.1579
 3221W        W 7272   1.895   4.164   4.957 -0.0398 -0.0554  0.0383
 3222W        W 7273   6.825   8.409  10.939 -0.0769 -0.0067  0.0553
 3223W        W 7274   9.810   2.206   1.234 -0.1661 -0.0016  0.1878
 3224W        W 7275   8.754   0.451   3.741 -0.2877 -0.0777  0.2374
 3225W        W 7276   5.828   3.026  10.281 -0.0335 -0.0846 -0.2419
 3226W        W 7277   0.643   5.982   9.944  0.3207 -0.1515  0.0360
 3227W        W 7278   2.313   3.040  13.674  0.4620 -0.3548 -0.0075
 3228W        W 7279   8.970   2.199   0.908 -0.1338  0.4854  0.1016
 3229W        W 7280   0.321   0.553   0.046 -0.0963 -0.2994  0.1945
 3230W        W 7281  10.050   3.264   3.082  0.0124  0.1418 -0.1697
 3231W        W 7282   3.945   6.530  11.680 -0.0004  0.1898  0.0275
 3232W        W 7283   0.653   8.259   9.055 -0.0745 -0.2569 -0.1128
 3233W        W 7284   9.468   9.605   3.071 -0.3255 -0.0903 -0.0310
 3234W        W 7285   2.037   1.596  12.365  0.0127 -0.1193 -0.1538
 3235W        W 7286   0.176   9.573   3.509 -0.4563 -0.2486  0.5005
 3236W        W 7287   3.338   5.689   3.923 -0.0879 -0.0670 -0.1836
 3237W        W 7288   4.124   0.569  10.313 -0.0248 -0.1685 -0.1400
 3238W        W 7289   2.399   1.656   3.153  0.3212 -0.0836 -0.0437
 3239W        W 7290   5.004   4.256   1.994  0.0807  0.1883  0.0907
 3240W        W 7291   2.321   2.927   0.864  0.1895 -0.2153  0.3532
 3241W        W 7292   5.291   6.424  10.196  0.3677  0.0974 -0.0369
 3242W        W 7293   5.458   4.407   1.971 -0.1998 -0.2016  0.2137
 3243W        W 7294   8.345   2.190  11.182  0.0622  0.0444  0.1617
 3244W        W 7295   7.607   9.108   3.296  0.1222  0.0836  0.1413
 3245W        W 7296   8.941   9.226   0.621 -0.1100  0.1060 -0.0338
 3246W        W 7297   1.663   1.821   4.853 -0.4887 -0.4242 -0.1305
 3247W        W 7298   6.767   4.206  13.754 -0.2480  0.3389  0.3536
 3248W        W 7299   7.241   5.435   3.019 -0.1408  0.0968 -0.0187
 3249W        W 7300   1.282   3.569   1.902  0.1256  0.0592 -0.0138
 3250W        W 7301   7.998   8.637   1.632  0.3194 -0.1127  0.3002
 3251W        W 7302   5.283   8.675  13.155  0.1112 -0.0555  0.0543
 3252W        W 7303   4.908   2.208   0.468  0.2679 -0.2055  0.2362
 3253W        W 7304   5.768   3.211  12.542  0.1359 -0.1465  0.2684
 3254W        W 7305   6.176   5.515  11.894  0.2285  0.2261 -0.1631
 3255W        W 7306  10.127   3.335   2.157 -0.0867 -0.0214  0.3079
 3256W        W 7307   2.552   0.188   2.242  0.3361 -0.0169 -0.3056
 3257W        W 7308   6.068   6.875   1.346 -0.2651  0.0525  0.2193
 3258W        W 7309   0.018   1.802   3.393 -0.1971 -0.1576  0.0124
 3259W        W 7310   4.309   3.547  12.070  0.0076 -0.2124 -0.1853
 3260W        W 7311   8.799   1.427  11.508  0.1791  0.0790  0.3031
 3261W        W 7312   4.976   1.157  13.303 -0.0171 -0.0521 -0.1947
 3262W        W 7313   3.720   7.284  13.038  0.1954  0.2823 -0.3418
 3263W        W 7314   0.116   3.599  13.401 -0.1068 -0.0519 -0.1526
 3264W        W 7315   4.188   7.408  13.695  0.0251 -0.0498  0.1576
 3265W        W 7316   0.596   6.591   9.987 -0.0322  0.1359  0.0182
 3266W        W 7317   2.938   7.404  12.073 -0.0159  0.0224 -0.4145
 3267W        W 7318   4.392   9.047  12.745 -0.2010  0.1800 -0.0586
 3268W        W 7319   6.171   8.737   5.174  0.1691 -0.0365 -0.2946
 3269W        W 7320   8.354   6.423  12.695 -0.0158  0.4627 -0.1268
 3270W        W 7321   6.448   9.036   4.873  0.0318 -0.0086 -0.2136
 3271W        W 7322   5.179   3.647   2.052 -0.0205  0.1959  0.0232
 3272W        W 7323   0.764   0.059   3.690  0.1474 -0.1682  0.0008
 3273W        W 7324   3.159   3.149  13.574 -0.2355 -0.0111  0.3002
 3274W        W 7325   3.023   6.799  12.308  0.0631  0.0217 -0.1601
 3275W        W 7326   5.956   0.636  10.525  0.0296 -0.1115 -0.0701
 3276W        W 7327   8.535   1.188  11.172  0.3694 -0.0126 -0.0127
 3277W        W 7328   4.008   5.148   8.602  0.2488  0.1235  0.0275
 3278W        W 7329   6.615   0.531  12.271 -0.0386  0.2345  0.3257
 3279W        W 7330   5.190   2.596   0.867  0.0378 -0.2669  0.0002
 3280W        W 7331   0.003   6.286  13.655 -0.0776 -0.1359  0.3765
 3281W        W 7332   1.518   0.081  11.219  0.1249  0.2737  0.0357
 3282W        W 7333   4.696   6.380  10.026 -0.1353  0.1119 -0.0336
 3283W        W 7334   6.702   6.713   5.651  0.3802  0.7095  0.1419
 3284W        W 7335   6.830   7.072   0.790  0.6662 -0.1597  0.2778
 3285W        W 7336   0.847   1.269   4.667 -0.0297  0.0359  0.2285
 3286W        W 7337   8.048   0.856   1.213 -0.2152 -0.2140  0.3699
 3287W        W 7338  10.189   8.060   3.839 -0.0260  0.1676  0.0832
 3288W        W 7339   2.062   5.044  13.814  0.1733 -0.0522 -0.1418
 3289W        W 7340  10.176   7.065  10.953  0.0084 -0.1834  0.3323
 3290W        W 7341   5.309   8.971   4.689  0.0200  0.1725 -0.0044
 3291W        W 7342   8.713   9.754  10.553 -0.0892 -0.0603  0.0174
 3292W        W 7343   5.616   1.900   0.112 -0.3154 -0.1808  0.0263
 3293W        W 7344   8.996   8.192  11.560 -0.1873 -0.1106 -0.0885
 3294W        W 7345   3.129   7.516   2.049 -0.0210 -0.0450 -0.2217
 3295W        W 7346   7.318   9.540   3.906 -0.0725 -0.0501  0.0963
 3296W        W 7347   7.627   3.870   3.550 -0.0578 -0.4854 -0.1006
 3297W        W 7348   9.881   5.246  11.736 -0.0578 -0.0301  0.2919
 3298W        W 7349   0.900   3.911   1.982  0.2730 -0.2239 -0.1198
 3299W        W 7350   0.366   9.455  13.163  0.1874  0.1346  0.1423
 3300W        W 7351   3.634   7.059   4.436  0.0580  0.1399  0.2853
 3301W        W 7352   0.977   7.225  12.151 -0.1364  0.0910  0.2091
 3302W        W 7353   2.005   5.453  10.874  0.0088 -0.1909 -0.1724
 3303W        W 7354   1.251   2.134  12.052  0.1005  0.1700 -0.1068
 3304W        W 7355   3.009   3.331  11.547 -0.2101  0.2253 -0.0146
 3305W        W 7356   0.112   9.943   4.309  0.1563  0.0925 -0.0606
 3306W        W 7357   3.280   1.328   1.264 -0.1826  0.0169  0.2426
 3307W        W 7358   7.524   9.536   2.712  0.0992  0.4440  0.0429
 3308W        W 7359   1.158   0.499  13.040  0.3901  0.2106 -0.1064
 3309W        W 7360   2.041   3.027  12.170  0.3569 -0.1203  0.2479
 3310W        W 7361   1.970   6.260   9.081 -0.2723 -0.1238 -0.2126
 3311W        W 7362   1.061   1.598   0.863 -0.0171 -0.0226  0.0318
 3312W        W 7363   8.237   9.215  13.650 -0.2893 -0.2100  0.5857
 3313W        W 7364   3.938   6.869  12.122  0.2770 -0.1771 -0.5000
 3314W        W 7365   4.047   7.953  11.279 -0.1921 -0.2388  0.0682
 3315W        W 7366   2.816   0.316   1.026 -0.0026  0.3599 -0.0172
 3316W        W 7367   2.146   7.706  11.681  0.1266  0.0496 -0.1215
 3317W        W 7368   6.708   9.888   0.130 -0.0353  0.1320 -0.0952
 3318W        W 7369   1.717   2.262   9.349 -0.2879  0.0622  0.2462
 3319W        W 7370   0.392   1.263  10.134 -0.0073  0.1138  0.0858
 3320W        W 7371   6.258   5.984  10.451 -0.1828 -0.0755 -0.1084
 3321W        W 7372   5.142   7.489  10.008  0.4128  0.0435  0.1148
 3322W        W 7373   7.842   4.070   0.724  0.1050  0.1185  0.1523
 3323W        W 7374   3.162   7.009   2.656  0.1576  0.0376 -0.2189
 3324W        W 7375   4.356   4.033  13.600 -0.1728  0.0193  0.2059
 3325W        W 7376   6.498   3.636   1.744  0.3060  0.3886  0.4300
 3326W        W 7377   3.299   0.576  11.243  0.0775 -0.1709  0.2340
 3327W        W 7378   9.392   4.374  10.992  0.1134 -0.2550 -0.3492
 3328W        W 7379   5.031   7.138   3.754 -0.0894  0.2280 -0.1526
 3329W        W 7380   0.784   3.565  12.425  0.1369  0.2477  0.1781
 3330W        W 7381   7.378   7.088   0.857 -0.0472  0.0332  0.1711
 3331W        W 7382   9.222   6.377   1.399  0.0749  0.0086  0.2152
 3332W        W 7383   3.479   3.416   5.054 -0.3923 -0.0126 -0.3754
 3333W        W 7384   1.218   3.371   0.177  0.0778 -0.0420 -0.0789
 3334W        W 7385   0.751   0.301   9.027 -0.0561  0.0742 -0.0309
 3335W        W 7386   3.454   4.151  10.686 -0.0762  0.1333  0.3475
 3336W        W 7387   4.168   2.814   3.833  0.1860  0.1827  0.1615
 3337W        W 7388   4.948   8.348  11.240 -0.2431 -0.1510  0.0720
 3338W        W 7389  10.176   6.853   1.302  0.4798 -0.0838  0.2464
 3339W        W 7390   4.479   1.922  10.327  0.0609  0.5881  0.1216
 3340W        W 7391   9.595   4.630   9.964 -0.0692  0.2351  0.0624
 3341W        W 7392   4.943   3.282  10.556  0.0571 -0.0674 -0.1329
 3342W        W 7393   7.724   7.759  10.959 -0.1291  0.4628  0.1977
 3343W        W 7394   4.827   2.679  13.289  0.1835  0.1187 -0.1027
 3344W        W 7395   7.476   7.596  12.234 -0.1130  0.3895  0.1372
 3345W        W 7396   8.696   4.797   2.636 -0.1469 -0.1439 -0.3567
 3346W        W 7397   1.246   7.571   3.924 -0.3258  0.0810  0.1236
 3347W        W 7398   9.692   0.737   1.167  0.0854 -0.0300  0.0085
 3348W        W 7399   4.429   4.176  12.733 -0.3275 -0.2122 -0.3958
 3349W        W 7400   3.206   5.304   3.639 -0.1259  0.0522 -0.0239
 3350W        W 7401   6.191   7.409  12.910 -0.2656  0.2447 -0.1606
 3351W        W 7402   0.744   0.798  13.913 -0.0243  0.0805 -0.1264
 3352W        W 7403   7.171   2.511  10.859 -0.0300 -0.1250 -0.1661
 3353W        W 7404   0.108   8.352  10.508  0.2331 -0.2977  0.3415
 3354W        W 7405   5.052   1.111   1.015  0.3642  0.0181 -0.1813
 3355W        W 7406   1.117   2.841  12.706 -0.4302 -0.2130 -0.2951
 3356W        W 7407   2.217   7.711   9.876 -0.0355  0.1369  0.0163
 3357W        W 7408   7.488   3.714   1.972  0.0429 -0.0294  0.2061
 3358W        W 7409   0.336   3.758  12.597 -0.0242  0.0994  0.3699
 3359W        W 7410   2.748   7.562  11.615 -0.1298 -0.0356 -0.0791
 3360W        W 7411   0.142   8.373   9.973  0.0338  0.1022  0.0672
 3361W        W 7412   5.190   3.680   9.583 -0.3480 -0.1343 -0.1538
 3362W        W 7413   1.946   6.872   2.145 -0.3123 -0.0758  0.2335
 3363W        W 7414  10.094   7.748   1.651 -0.2913 -0.1527 -0.1908
 3364W        W 7415   1.177   1.525   1.671 -0.1767 -0.1071 -0.0022
 3365W        W 7416   8.625   6.923   0.287  0.1667  0.1179 -0.2343
 3366W        W 7417   4.770   7.931   4.431  0.3337  0.2918  0.2871
 3367W        W 7418   9.302   1.396   9.501 -0.3097  0.0792  0.2446
 3368W        W 7419   0.094   7.280   1.581 -0.1448 -0.4331 -0.0745
 3369W        W 7420   9.914   1.656   2.844  0.1030 -0.1728  0.2263
 3370W        W 7421   9.689   6.824  13.236  0.1083 -0.0103 -0.1494
 3371W        W 7422   7.565   1.269   1.914 -0.0317 -0.0246  0.0486
 3372W        W 7423   0.463   6.118  11.265 -0.2662 -0.1397 -0.0149
 3373W        W 7424   0.913   5.420   1.019 -0.0345 -0.1565 -0.2622
 3374W        W 7425   7.202   0.591  10.490 -0.0029 -0.0298  0.1124
 3375W        W 7426   2.924   8.089   3.518  0.0164  0.0024  0.3720
 3376W        W 7427   3.865   7.458  12.521 -0.2302 -0.0856  0.2387
 3377W        W 7428   4.996   7.677   0.881 -0.0818  0.1335  0.0970
 3378W        W 7429   7.153   1.431  10.157 -0.0048 -0.0504  0.2644
 3379W        W 7430   7.879   5.518  10.528 -0.3308  0.0514  0.3913
 3380W        W 7431   0.832   0.393  10.467  0.2974 -0.0301  0.1915
 3381W        W 7432   4.397   9.438   3.265 -0.1025 -0.1417 -0.1020
 3382W        W 7433   7.862   2.721   1.229 -0.1179  0.3051  0.0386
 3383W        W 7434  10.115   2.078  10.450  0.1566 -0.3176  0.2875
 3384W        W 7435   9.446   7.518  10.944 -0.3062 -0.1400 -0.0485
 3385W        W 7436   2.431   2.674  10.484 -0.0724  0.2424 -0.1979
 3386W        W 7437   2.234   8.339   1.512 -0.5452  0.1883  0.0451
 3387W        W 7438   8.105   9.104   5.708 -0.4572 -0.0782 -0.1088
 3388W        W 7439   3.841   0.576   2.286 -0.0749  0.0312  0.0286
 3389W        W 7440   5.822   7.683   0.862  0.0159  0.3604  0.0770
 3390W        W 7441   7.862   6.972   4.427  0.1037  0.1041 -0.0681
 3391W        W 7442   7.414   4.289  13.072  0.1438  0.4857 -0.3750
 3392W        W 7443   8.629   4.065   1.064 -0.0364  0.1497  0.0070
 3393W        W 7444   2.797   6.039   4.064  0.3120  0.0160  0.1205
 3394W        W 7445   9.130   7.842   9.680 -0.0940  0.1601  0.0970
 3395W        W 7446   7.151   4.504   0.597 -0.5404  0.0028  0.1920
 3396W        W 7447   3.702   0.953   3.158 -0.0035  0.1236 -0.1401
 3397W        W 7448   2.289   0.048  10.659 -0.1882 -0.0062  0.1835
 3398W        W 7449   4.204   0.777   3.128 -0.0247 -0.2763 -0.0200
 3399W        W 7450   0.720   2.096   0.959  0.2630  0.1112 -0.2427
 3400W        W 7451   0.539   0.863   2.067  0.1754  0.1831 -0.1366
 3401W        W 7452   7.544   9.187   0.972 -0.0167  0.0789 -0.1110
 3402W        W 7453   9.606   3.975  13.455  0.0593  0.2510 -0.1782
 3403W        W 7454   0.658   4.749   2.911  0.3288 -0.0348 -0.3178
 3404W        W 7455   5.744   6.110   2.507  0.0580  0.0947  0.0723
 3405W        W 7456   7.043   8.012   1.161 -0.1415 -0.1334 -0.1828
 3406W        W 7457   0.320   1.919  10.217  0.2225 -0.0644  0.2772
 3407W        W 7458   1.815   5.557  11.828 -0.0834 -0.1552  0.1014
 3408W        W 7459   0.373   5.477  10.604 -0.0117  0.1863 -0.2635
 3409W        W 7460   8.339   3.750   1.914  0.3779 -0.0621  0.0009
 3410W        W 7461   4.335   9.457  13.587  0.2665 -0.1488 -0.2754
 3411W        W 7462   9.348   7.652   3.977  0.0685  0.2411  0.3739
 3412W        W 7463   0.193   8.468  11.135 -0.0921  0.1752  0.1777
 3413W        W 7464   4.773   3.181   8.811 -0.3015  0.0181  0.0090
 3414W        W 7465   5.008   5.657   2.093  0.0455 -0.1610  0.1393
 3415W        W 7466   9.349   3.271   3.868 -0.0447 -0.4234 -0.1382
 3416W        W 7467   1.917   4.665   4.342 -0.2294  0.1453 -0.3453
 3417W        W 7468   4.277   3.380  11.493  0.2742 -0.0432 -0.0885
 3418W        W 7469   3.954   9.431   0.477  0.3683 -0.0425 -0.1055
 3419W        W 7470   6.083   8.357   0.393 -0.4463  0.0496 -0.1396
 3420W        W 7471   5.984   4.519   2.813  0.0518  0.0747  0.1459
 3421W        W 7472   9.541   9.056  11.926 -0.1484 -0.2092  0.1031
 3422W        W 7473   4.834   2.795   1.185  0.0546  0.2037 -0.0592
 3423W        W 7474   7.534  10.141   1.922  0.0906 -0.0298  0.1005
 3424W        W 7475   9.178   1.373   1.590  0.1463  0.1837  0.1640
 3425W        W 7476   3.092   5.674   4.525 -0.1533  0.3073  0.2416
 3426W        W 7477   7.110   0.140   2.769 -0.1560 -0.3413 -0.0870
 3427W        W 7478   6.242   6.364  13.188 -0.1349 -0.0070 -0.0875
 3428W        W 7479   3.664   0.715   1.009 -0.4389  0.0902 -0.1792
 3429W        W 7480   2.583   0.222   0.085  0.1585 -0.1979 -0.0107
 3430W        W 7481   0.175   4.445   2.902  0.5668 -0.0209  0.0188
 3431W        W 7482   8.747   5.914   3.556 -0.0059 -0.4275  0.0368
 3432W        W 7483   0.856   6.683  13.921  0.0248  0.1798  0.0126
 3433W        W 7484   4.598   5.702   4.752 -0.0439  0.2134  0.1344
 3434W        W 7485   0.569   6.722   0.912  0.0419  0.2905  0.0137
 3435W        W 7486   9.134   1.877  12.615 -0.0708 -0.2785 -0.2186
 3436W        W 7487   8.342   4.103   2.272 -0.1140 -0.0923  0.1658
 3437W        W 7488   9.996   9.715  11.643  0.5608 -0.2606  0.1406
 3438W        W 7489   0.768   1.598  11.571 -0.3505  0.0337  0.0671
 3439W        W 7490   0.879   0.127   0.806 -0.0410  0.0248  0.0982
 3440W        W 7491   5.745   7.472  12.023  0.1521  0.2595  0.2734
 3441W        W 7492   3.178   7.318  10.300  0.1218  0.1327  0.1773
 3442W        W 7493   1.464   2.245  10.103 -0.2466 -0.2006 -0.0841
 3443W        W 7494   2.225   4.809  13.406  0.2941 -0.5005 -0.2482
 3444W        W 7495   3.676  10.090  10.359  0.0379  0.1825 -0.0369
 3445W        W 7496   6.720   5.742  12.461  0.0727  0.3656  0.1956
 3446W        W 7497   6.080   6.563  12.737 -0.0488  0.1697  0.0394
 3447W        W 7498   0.225   2.330   2.014 -0.0932 -0.1421  0.1727
 3448W        W 7499   0.612   2.616  10.075  0.2287 -0.4535 -0.0291
 3449W        W 7500   2.679   2.594   0.853  0.0839 -0.2272 -0.1378
 3450W        W 7501   2.318   2.861   9.473 -0.0603  0.3950 -0.1766
 3451W        W 7502   9.209   7.360  12.786 -0.1533 -0.1488  0.1936
 3452W        W 7503   4.858   9.268   5.847  0.1458 -0.0795  0.0991
 3453W        W 7504   3.571   4.953   4.354 -0.0466  0.2284 -0.1766
 3454W        W 7505   3.030   6.041  13.801  0.2555  0.1902 -0.2428
 3455W        W 7506   0.926   7.590   2.058 -0.0476  0.4445 -0.1866
 3456W        W 7507   1.262   3.618  11.810 -0.4865  0.2206  0.0327
 3457W        W 7508   3.750   6.352  12.772  0.2518 -0.1265 -0.0273
 3458W        W 7509   7.124   2.114  13.648  0.0753 -0.0906  0.2981
 3459W        W 7510   8.793   3.750  12.731 -0.2016  0.0722  0.1453
 3460W        W 7511   8.233  10.145   4.282  0.2030 -0.1128 -0.0819
 3461W        W 7512   4.212   1.694   3.409 -0.1703  0.1048  0.0585
 3462W        W 7513   6.404   1.256   2.942  0.6296 -0.0772 -0.0200
 3463W        W 7514   4.771   7.525   3.454  0.1222  0.0295  0.0050
 3464W        W 7515   6.404  10.068  11.551  0.2575 -0.1119  0.0457
 3465W        W 7516   5.124   4.376   9.247  0.3927 -0.2558  0.1142
 3466W        W 7517   4.634   2.235   9.947 -0.1240 -0.2116 -0.0331
 3467W        W 7518   0.736   9.985  10.385  0.0303 -0.1963  0.2735
 3468W        W 7519   9.979   0.811  12.909 -0.1707  0.0900  0.2052
 3469W        W 7520   1.744   4.123   2.106  0.0710 -0.1482  0.0182
 3470W        W 7521   3.204   8.953  11.518 -0.0546 -0.3509  0.1306
 3471W        W 7522   7.666  10.113   0.903  0.2559 -0.0623 -0.1446
 3472W        W 7523   2.561   9.200   0.568 -0.1245 -0.2545  0.0150
 3473W        W 7524   3.504   4.520   4.196  0.1353  0.0277 -0.1468
 3474W        W 7525   9.621   1.020   3.290  0.0766 -0.0190 -0.1148
 3475W        W 7526   7.963   7.637   2.769  0.1052  0.1231  0.4091
 3476W        W 7527   8.683   9.403   4.390  0.1367  0.1896  0.2166
 3477W        W 7528   9.774   8.888   4.816  0.1897  0.0593 -0.0945
 3478W        W 7529   3.926   5.090  12.930 -0.0627  0.2115 -0.2010
 3479W        W 7530  10.108   9.590  11.163 -0.0379  0.2594 -0.0341
 3480W        W 7531   7.788   7.214   1.967  0.0049  0.1744 -0.0251
 3481W        W 7532   3.341   8.629   0.742 -0.0831  0.1121 -0.0590
 3482W        W 7533   6.510   1.079   0.050 -0.0925 -0.2508 -0.1964
 3483W        W 7534   0.976   9.874   4.059  0.1693 -0.0127 -0.1174
 3484W        W 7535   9.273   3.567  12.506 -0.0147  0.3273 -0.2145
 3485W        W 7536   9.012   7.552   9.300  0.0494  0.0063  0.1660
 3486W        W 7537   9.694  10.096  10.348 -0.1347  0.0862 -0.1510
 3487W        W 7538  10.147   4.020   1.421  0.0845  0.3124  0.2067
 3488W        W 7539   5.860   8.649   0.083  0.1989  0.2236 -0.0608
 3489W        W 7540   7.261   7.148  12.079  0.0670 -0.0448 -0.1325
 3490W        W 7541   3.600   8.009  13.816 -0.0142 -0.0598 -0.0886
 3491W        W 7542   7.070   3.069   1.360  0.0672 -0.3276 -0.0554
 3492W        W 7543   3.129   5.073   1.678  0.0989 -0.0591  0.1334
 3493W        W 7544   0.444   9.526   2.290  0.0330 -0.0689  0.1312
 3494W        W 7545   3.588   3.241  10.105 -0.2852  0.0357 -0.0146
 3495W        W 7546   2.587   1.125   1.696  0.1704  0.1858  0.1470
 3496W        W 7547   8.094  10.139   2.198  0.3631 -0.0402 -0.1609
 3497W        W 7548   6.694   3.780  12.261 -0.1384  0.0576  0.0049
 3498W        W 7549   3.480   4.616   0.431  0.0191 -0.0320  0.3252
 3499W        W 7550   8.987   5.732  10.313 -0.2686  0.2189 -0.0214
 3500W        W 7551  10.124   4.125   0.136 -0.1321  0.0749  0.2673
 3501W        W 7552   4.604   2.367   0.036 -0.0878 -0.0322  0.0839
 3502W        W 7553   6.231   4.846   0.323 -0.0080 -0.2320 -0.0050
 3503W        W 7554  10.039   2.633   1.802 -0.1860  0.1450  0.2037
 3504W        W 7555   8.012   2.638  11.077  0.2568  0.1590 -0.1361
 3505W        W 7556   4.347   0.513  12.493 -0.1286 -0.2107  0.1487
 3506W        W 7557   8.879   2.793  12.477 -0.2386 -0.0723  0.1904
 3507W        W 7558   9.936   8.939   3.542 -0.3537 -0.0501 -0.2908
 3508W        W 7559   2.739   8.236  10.389 -0.0675  0.2487  0.2575
 3509W        W 7560   4.132   5.309  11.341 -0.2081  0.1747  0.2048
 3510W        W 7561   5.372   9.816   2.281  0.0074 -0.0702 -0.3053
 3511W        W 7562   5.736   6.037  10.404 -0.2946  0.0877  0.0509
 3512W        W 7563   1.422   8.690   4.561  0.2083 -0.2527 -0.1492
 3513W        W 7564   1.961   1.402  10.951  0.3156  0.1436 -0.4317
 3514W        W 7565   2.487  10.143   2.706 -0.1231  0.4004 -0.1224
 3515W        W 7566   4.401   5.721   0.500  0.2290 -0.0591  0.0104
 3516W        W 7567   9.098   6.239   3.849 -0.2740  0.1293  0.3531
 3517W        W 7568   8.359   5.624   3.363  0.1061 -0.3692  0.0104
 3518W        W 7569   1.585   7.431   9.335 -0.2208  0.0473 -0.0720
 3519W        W 7570   7.263   7.316   2.560  0.1373  0.2789 -0.2815
 3520W        W 7571   1.725   8.332   9.129 -0.0738  0.1066 -0.0756
 3521W        W 7572   8.100   2.069   4.039 -0.1039  0.2246  0.2015
 3522W        W 7573   3.710   8.838   9.438 -0.1344  0.0156  0.0099
 3523W        W 7574   8.355   2.878   1.101 -0.1627 -0.0606  0.1889
 3524W        W 7575   5.889   7.271  10.753 -0.0583 -0.0529 -0.0155
 3525W        W 7576   8.292   0.297  11.075  0.2180  0.0637 -0.1211
 3526W        W 7577   7.767   3.948  11.622  0.0130 -0.0741  0.1295
 3527W        W 7578   5.591   0.418  11.805  0.3460 -0.0210  0.0382
 3528W        W 7579   7.281   3.296   0.091  0.1052 -0.4192  0.1126
 3529W        W 7580  10.116   0.680   2.800 -0.2388 -0.1369  0.0068
 3530W        W 7581   9.899   7.710   3.594 -0.0083 -0.2954  0.1406
 3531W        W 7582   0.812   9.728   9.853 -0.2203 -0.1230 -0.1977
 3532W        W 7583   9.974   0.731  12.159  0.0560 -0.1571 -0.1381
 3533W        W 7584   5.258   5.298  11.331  0.2954 -0.1517 -0.0490
 3534W        W 7585   1.570   7.947  12.172 -0.0993 -0.1034 -0.0863
 3535W        W 7586   6.380   1.421  13.740 -0.2909 -0.0610  0.0003
 3536W        W 7587   3.954   6.173   4.770  0.0269  0.2729 -0.4373
 3537W        W 7588   2.061   3.012   0.119  0.0559 -0.3113 -0.0378
 3538W        W 7589   6.031   9.680   0.918  0.2975  0.1142 -0.4451
 3539W        W 7590   3.148   2.416   9.004  0.2976  0.0506  0.0410
 3540W        W 7591   6.940   6.691   3.223  0.2918 -0.2860 -0.2308
 3541W        W 7592   9.141   6.222  13.883  0.3770  0.0607  0.1271
 3542W        W 7593   0.471   4.232   4.027 -0.3043 -0.1431 -0.0966
 3543W        W 7594   4.879   9.002   9.680  0.2519  0.1091 -0.1284
 3544W        W 7595   5.562   9.155   9.114  0.0367  0.1064  0.0617
 3545W        W 7596   2.873   7.265   0.200  0.4092  0.1278  0.1625
 3546W        W 7597   1.184   7.062  10.521  0.0100 -0.4604  0.3061
 3547W        W 7598   6.245   8.704   3.267 -0.0142 -0.1656 -0.2384
 3548W        W 7599   5.800   7.120  13.923  0.2071  0.2933 -0.0981
 3549W        W 7600   7.373   2.053   2.405 -0.0185 -0.2079  0.1313
 3550W        W 7601   2.443   7.468  12.144  0.2241  0.3964 -0.1515
 3551W        W 7602   1.754   4.334   3.931  0.1351 -0.0429 -0.0581
 3552W        W 7603   4.524   8.172   0.534  0.0762  0.0383  0.3297
 3553W        W 7604   1.737   2.496   1.832 -0.1078 -0.2392 -0.2440
 3554W        W 7605   9.823   3.657  13.111 -0.0764 -0.0415  0.0227
 3555W        W 7606   0.806   5.773  10.449  0.0514 -0.0123 -0.0294
 3556W        W 7607   5.845   4.763   1.933 -0.2833  0.1258  0.2168
 3557W        W 7608   2.285   5.885   8.943 -0.3940  0.0745 -0.1261
 3558W        W 7609   2.582   1.245   9.786  0.2728  0.0508 -0.0500
 3559W        W 7610   4.189  10.068   4.780 -0.0078  0.2998 -0.1512
 3560W        W 7611   1.336   1.227   0.209 -0.3103  0.0115  0.1807
 3561W        W 7612   9.818   9.948  13.017  0.1837 -0.1995  0.0763
 3562W        W 7613   8.352   1.854  10.748  0.0909  0.1222  0.0245
 3563W        W 7614   5.373  10.127  13.305 -0.0324 -0.1112  0.0007
 3564W        W 7615   5.698   8.246  10.217  0.1399  0.2269  0.0602
 3565W        W 7616   8.099   6.823   0.129 -0.1503  0.0816 -0.1003
 3566W        W 7617   5.601   7.509   1.949  0.1582  0.0050 -0.1798
 3567W        W 7618   0.683   9.393   4.256  0.0202  0.1294 -0.0857
 3568W        W 7619   0.801   2.849   4.102  0.1966  0.0068 -0.1031
 3569W        W 7620   4.987   0.670   9.215 -0.0879 -0.0438 -0.1307
 3570W        W 7621   7.328   3.180   4.230 -0.1192  0.0972 -0.2248
 3571W        W 7622   7.040   3.555   4.416 -0.0863  0.1696 -0.0545
 3572W        W 7623   0.581   2.501   1.227 -0.0441  0.3265 -0.2001
 3573W        W 7624   0.351   1.115  12.812 -0.1986 -0.1943 -0.0000
 3574W        W 7625   7.623   9.995  13.820  0.1504 -0.0498  0.0878
 3575W        W 7626   9.385   4.710  13.052 -0.1225 -0.2224 -0.0167
 3576W        W 7627   8.543   5.604   0.362 -0.3863  0.1416  0.0048
 3577W        W 7628   5.467  10.005   1.622 -0.2217 -0.0256 -0.2658
 3578W        W 7629   4.679   2.362  11.624 -0.0099 -0.1286 -0.1084
 3579W        W 7630   4.519   2.247  13.544  0.1395  0.1507  0.3492
 3580W        W 7631   6.199   3.398  12.692  0.0621  0.0827 -0.1848
 3581W        W 7632   9.062   8.239  12.400 -0.0079  0.1232  0.2188
 3582W        W 7633   0.246   6.023  10.297  0.3309 -0.2282  0.0242
 3583W        W 7634   8.689   3.398  11.312 -0.1586  0.1395  0.0431
 3584W        W 7635   8.896   6.233   0.779  0.0290  0.1929 -0.1112
 3585W        W 7636   8.283   3.531   3.571  0.2527  0.0068  0.2985
 3586W        W 7637   4.192   9.942   3.267 -0.0928 -0.0377 -0.0969
 3587W        W 7638   3.246   6.067   4.238  0.0995 -0.2402 -0.0684
 3588W        W 7639   4.908   3.993  12.934 -0.1124 -0.1834 -0.1966
 3589W        W 7640   2.516   2.468   4.503  0.2517  0.1074  0.3099
 3590W        W 7641   5.902   8.751   0.880  0.0343  0.0188 -0.0208
 3591W        W 7642   3.155   7.089  11.769  0.1064 -0.2281  0.0230
 3592W        W 7643   3.238   7.237  13.261 -0.0760 -0.0121  0.1131
 3593W        W 7644   1.108   8.114   1.327  0.1263 -0.0815 -0.0050
 3594W        W 7645   3.610   0.153   2.170 -0.2772  0.0124  0.3753
 3595W        W 7646   3.862   7.427  11.492 -0.1534 -0.0807 -0.2695
 3596W        W 7647   3.456   2.601   0.524 -0.0385 -0.0054  0.0056
 3597W        W 7648   9.774   7.822   3.053  0.0056 -0.2336  0.5337
 3598W        W 7649  10.125   8.802   2.803 -0.0582 -0.2143 -0.0214
 3599W        W 7650   5.931   6.521   0.848 -0.3215  0.0178  0.2378
 3600W        W 7651   7.768   2.037  12.170  0.4507 -0.0784 -0.1407
 3601W        W 7652   9.970  10.030  10.733 -0.3273  0.2158 -0.1750
 3602W        W 7653   9.865   9.011  10.653  0.1745 -0.0922  0.0068
 3603W        W 7654   2.171   5.866   2.258  0.1101  0.3022  0.0662
 3604W        W 7655   5.441   5.308   1.237 -0.0813  0.0256  0.2186
 3605W        W 7656   4.680   1.062   9.157 -0.2251  0.0152  0.1464
 3606W        W 7657   4.463   8.309   1.561 -0.1377 -0.2058 -0.1388
 3607W        W 7658   5.116   1.497  12.507 -0.3192 -0.0374 -0.0754
 3608W        W 7659   9.754   4.675   2.854 -0.1520  0.0280 -0.0049
 3609W        W 7660   3.065   5.517   9.640 -0.2656  0.0002 -0.3845
 3610W        W 7661   4.395   3.552   0.012  0.0149 -0.0677  0.0199
 3611W        W 7662   3.713   6.845  11.194  0.1250 -0.2354 -0.0262
 3612W        W 7663   7.904   6.435  12.451 -0.1789 -0.1375  0.0923
 3613W        W 7664   7.422   8.295  11.862  0.1434  0.1157  0.1223
 3614W        W 7665   4.352   6.042  10.150  0.0293  0.0448 -0.0545
 3615W        W 7666   0.621   3.170  12.858 -0.1255 -0.1081 -0.2357
 3616W        W 7667   0.695   8.616  13.833  0.0058 -0.1363 -0.1861
 3617W        W 7668   4.268   9.645   2.840  0.2173 -0.0884 -0.0041
 3618W        W 7669   5.438   8.120   5.654  0.1621  0.1732  0.0421
 3619W        W 7670   8.386   6.551  11.110  0.1606  0.0539  0.0978
 3620W        W 7671   5.202   1.069   4.360  0.1960 -0.1373  0.2029
 3621W        W 7672   2.978   5.426   2.544 -0.0571  0.1600  0.0940
 3622W        W 7673   4.583   8.332   6.202  0.2194  0.0564 -0.1759
 3623W        W 7674   4.771   5.695  13.722 -0.0623 -0.1630  0.0068
 3624W        W 7675   1.223   2.918   0.894  0.2642  0.0541 -0.0159
 3625W        W 7676   8.428   9.599  13.889  0.2746  0.1209 -0.2436
 3626W        W 7677   6.496   8.269  11.341 -0.1534  0.1227  0.0033
 3627W        W 7678   8.264   7.741   1.796 -0.0663  0.0993  0.2744
 3628W        W 7679   4.853   5.410  12.849 -0.2489  0.2393  0.1934
 3629W        W 7680   7.800   7.189  12.344  0.1342  0.1580 -0.1962
 3630W        W 7681   3.804   9.463   2.607 -0.0445  0.1963 -0.2253
 3631W        W 7682   1.646   6.244  10.315  0.0373 -0.1382 -0.1361
 3632W        W 7683   4.396   3.738   9.859 -0.2592 -0.0334 -0.0658
 3633W        W 7684   2.427   6.066   3.797 -0.0423  0.0775  0.0897
 3634W        W 7685   3.580   1.860   3.818 -0.0616 -0.0091 -0.0641
 3635W        W 7686   5.109   1.701   0.307  0.2199  0.0802  0.3138
 3636W        W 7687  10.135   7.982  13.560 -0.3431  0.0532  0.0560
 3637W        W 7688   8.791   9.693   3.611 -0.1312  0.1354  0.0066
 3638W        W 7689   5.586   6.262  12.000 -0.2878  0.0549  0.0806
 3639W        W 7690   7.970   6.331   0.006 -0.3091  0.2920 -0.1494
 3640W        W 7691   7.108   6.669  11.785 -0.3137  0.0666 -0.0561
 3641W        W 7692   4.120   4.132   4.733 -0.0056 -0.1338  0.0889
 3642W        W 7693   5.709   0.788   3.865  0.1943  0.1616  0.1376
 3643W        W 7694   1.523   0.275   4.017 -0.1352 -0.2030  0.0104
 3644W        W 7695   8.269   5.858   9.939 -0.1060 -0.2123 -0.2064
 3645W        W 7696   1.527   6.455   2.983  0.0362  0.3044 -0.3176
 3646W        W 7697   7.795   2.534   2.797  0.2309 -0.1540  0.1399
 3647W        W 7698   8.686   5.974  13.819  0.0500 -0.0523  0.1411
 3648W        W 7699   9.925   3.102   0.483  0.1383 -0.2018  0.2405
 3649W        W 7700   6.742   0.509  11.755  0.1609  0.1070  0.1182
 3650W        W 7701   9.570   2.340  11.898 -0.0074  0.2568  0.0594
 3651W        W 7702   6.561   7.193   1.813  0.1249  0.1219 -0.1299
 3652W        W 7703   7.610   1.013  11.785  0.3119  0.0429 -0.1594
 3653W        W 7704   3.090   3.705   2.056 -0.0459 -0.0160 -0.2330
 3654W        W 7705   2.112   1.082  10.507 -0.0550 -0.1007  0.0636
 3655W        W 7706   0.903   6.109   2.715  0.0890  0.2643  0.1339
 3656W        W 7707   8.367  10.141   9.832 -0.0674 -0.2652 -0.0237
 3657W        W 7708   0.548   9.275   9.942  0.1472 -0.1117 -0.1295
 3658W        W 7709   9.879   9.596   1.734 -0.0201  0.3039 -0.1361
 3659W        W 7710   7.254   4.718  11.418  0.4091 -0.2562 -0.1031
 3660W        W 7711   7.341   5.499  10.630 -0.2821  0.4602  0.0246
 3661W        W 7712   2.656   2.465   2.144  0.0198 -0.0955  0.0897
 3662W        W 7713   7.408   2.236   4.148 -0.1579  0.0147 -0.0663
 3663W        W 7714   1.688   7.353   0.729 -0.3532 -0.1712  0.1358
 3664W        W 7715   7.827   2.546   1.678  0.1170  0.3188 -0.2004
 3665W        W 7716   4.722   8.147   2.307 -0.0113  0.1428  0.0709
 3666W        W 7717   0.554   1.545   1.697 -0.0856  0.1093 -0.1261
 3667W        W 7718   2.401   0.665  13.184  0.1340 -0.1917  0.0405
 3668W        W 7719   3.587   8.233  11.036 -0.0001 -0.0276 -0.1531
 3669W        W 7720   5.146   8.355   1.403 -0.1069  0.5147 -0.1471
 3670W        W 7721   3.692   7.528   4.626 -0.0501  0.0072  0.1414
 3671W        W 7722   5.064   6.648  13.828 -0.3567  0.0017 -0.0630
 3672W        W 7723   3.910   4.374   0.451  0.4355 -0.0588  0.0819
 3673W        W 7724   8.611   8.790  10.522  0.0103 -0.0708 -0.1112
 3674W        W 7725   4.150   4.292   2.036  0.0599  0.0502 -0.1130
 3675W        W 7726   7.149   5.437   4.498 -0.1211  0.2305 -0.0243
 3676W        W 7727   7.486   9.932  10.812  0.0194 -0.0431 -0.1252
 3677W        W 7728   5.871   6.106  13.406 -0.3605 -0.0734  0.1856
 3678W        W 7729   1.871   1.373  13.447  0.2483 -0.0923 -0.4928
 3679W        W 7730   1.352   7.462   2.644  0.1341  0.0209  0.1846
 3680W        W 7731   7.558   8.676  10.732  0.0307  0.1834 -0.2053
 3681W        W 7732   6.790   6.387   1.027 -0.4407  0.0717 -0.0008
 3682W        W 7733   0.259   3.060  10.867 -0.2126 -0.0201 -0.3497
 3683W        W 7734   0.959   9.620  11.524 -0.2908 -0.0112  0.0576
 3684W        W 7735   4.816   4.427   9.619  0.1240 -0.0908 -0.0939
 3685W        W 7736   3.536   3.100   2.938 -0.1333  0.0643  0.1543
 3686W        W 7737   9.125   0.728   3.485 -0.0429  0.1928 -0.0621
 3687W        W 7738   4.302   6.425   5.196  0.1062 -0.0446  0.0756
 3688W        W 7739   4.116   1.257   3.005  0.0253  0.0048  0.3198
 3689W        W 7740   0.788   5.773  12.386 -0.0568 -0.0928  0.0727
 3690W        W 7741   7.891   6.644   9.728 -0.2710 -0.4200  0.1094
 3691W        W 7742   8.462   2.945   0.631 -0.0132 -0.1670  0.0757
 3692W        W 7743   6.380   3.515  10.861 -0.1477 -0.2083  0.0096
 3693W        W 7744   4.005   5.429   3.174 -0.3037 -0.1533 -0.0446
 3694W        W 7745   9.223   1.242   2.210  0.2357  0.3087  0.2022
 3695W        W 7746   1.535   4.637   4.735  0.1194  0.0710  0.0845
 3696W        W 7747   6.534   6.734   2.291  0.1519  0.3495 -0.0013
 3697W        W 7748   6.144   9.700   4.041 -0.2752 -0.1443  0.2884
 3698W        W 7749   2.492   8.730  12.055 -0.0050 -0.2139  0.0706
 3699W        W 7750   6.958   4.409   2.440  0.1813 -0.1026  0.0570
 3700W        W 7751   1.351   2.521   0.404 -0.1698 -0.2690  0.2383
 3701W        W 7752   9.101   2.671   3.166  0.2232 -0.0664 -0.0972
 3702W        W 7753   5.186   2.008   3.396 -0.0989 -0.2199  0.0280
 3703W        W 7754   6.970   8.630   0.390 -0.2743 -0.0353 -0.1366
 3704W        W 7755   6.516   2.334   2.935  0.1427  0.1105 -0.2920
 3705W        W 7756   3.594   2.865   9.561 -0.1372 -0.2202  0.1181
 3706W        W 7757   4.756   8.628   1.287 -0.1408 -0.0682  0.0352
 3707W        W 7758   1.452   1.038   2.480 -0.0105  0.2689  0.2892
 3708W        W 7759   6.186   1.806   4.618  0.0188  0.1247  0.0551
 3709W        W 7760   0.356   1.334   2.155 -0.1778  0.3043  0.3306
 3710W        W 7761   2.227   5.905  11.670  0.2313 -0.1471 -0.2939
 3711W        W 7762   1.280   3.681  12.383 -0.2586  0.0331 -0.2018
 3712W        W 7763   0.158   8.098   0.874  0.0001  0.2202 -0.1491
 3713W        W 7764   0.716   1.064  12.367 -0.0896  0.3172  0.2831
 3714W        W 7765   2.580   3.211   3.723  0.1649 -0.0643 -0.2797
 3715W        W 7766   1.759   0.389  11.680 -0.4128 -0.1515  0.0142
 3716W        W 7767   5.373   2.978   5.125 -0.3599 -0.0839 -0.1259
 3717W        W 7768   9.357   7.287  11.430 -0.1312 -0.2111 -0.0210
 3718W        W 7769   5.393   8.354   3.226  0.2657  0.1970 -0.0876
 3719W        W 7770   2.831   7.662  12.522  0.1007  0.1846  0.1583
 3720W        W 7771   2.944   7.188  13.687  0.1766 -0.1029 -0.1114
 3721W        W 7772   3.610   5.558   2.924 -0.0486  0.1708  0.0578
 3722W        W 7773   0.929   0.977   2.391 -0.0026 -0.0140  0.2318
 3723W        W 7774   9.912   1.281  13.075 -0.0064 -0.0560  0.1273
 3724W        W 7775   7.548   8.617  10.178  0.2736  0.0415  0.0201
 3725W        W 7776   2.823   7.328   4.200 -0.1336  0.1452  0.0029
 3726W        W 7777   4.100   1.374  11.814 -0.0555  0.0270 -0.1694
 3727W        W 7778   3.298   9.423  13.508  0.2810  0.0919 -0.0897
 3728W        W 7779   5.068   9.624  13.459 -0.0939 -0.0052 -0.1291
 3729W        W 7780   2.170   4.052   3.639  0.3423  0.2255  0.0368
 3730W        W 7781   8.537   3.763  13.196 -0.0053  0.1825 -0.1998
 3731W        W 7782   8.735   5.185   3.126 -0.0290 -0.0138  0.1977
 3732W        W 7783   5.915   0.500   9.321 -0.2769 -0.0868 -0.0233
 3733W        W 7784   5.807   8.983   1.935 -0.0733 -0.0396  0.2679
 3734W        W 7785   4.505   6.281  11.108  0.1170  0.1223  0.2387
 3735W        W 7786   4.002   0.859   4.646 -0.0851 -0.3068  0.2064
 3736W        W 7787   7.653   9.958   0.420  0.1072 -0.1131  0.1526
 3737W        W 7788  10.007   2.788   2.971 -0.1001  0.4536 -0.1096
 3738W        W 7789   3.565   3.139  13.336  0.2013 -0.0519 -0.2418
 3739W        W 7790   6.458  10.007   3.707 -0.0961 -0.0635 -0.0434
 3740W        W 7791   3.020   4.922  13.318  0.1675  0.1310  0.0006
 3741W        W 7792   4.863   8.657   1.847 -0.2697  0.0782  0.1286
 3742W        W 7793   1.880   9.380   4.674 -0.0951 -0.1842  0.2079
 3743W        W 7794   6.199   4.195  13.437  0.1715 -0.1243  0.0546
 3744W        W 7795   2.537   5.383  12.723  0.2957  0.0050 -0.1950
 3745W        W 7796   1.884   9.254  13.416  0.2440  0.1170 -0.5111
 3746W        W 7797   8.558   2.272   3.750 -0.2113 -0.0817  0.1108
 3747W        W 7798   3.779   5.699   4.766 -0.2439  0.0172  0.2506
 3748W        W 7799   0.639   2.447   1.767  0.1330 -0.0041 -0.0115
 3749W        W 7800   4.696   0.089  10.998  0.2147  0.1625 -0.0093
 3750W        W 7801   2.319   4.870   1.188  0.0450  0.1119  0.0322
 3751W        W 7802   3.854   4.100  13.570 -0.2792  0.1312  0.1303
 3752W        W 7803   6.019   6.926   3.516 -0.1929 -0.0307 -0.3670
 3753W        W 7804   2.141   8.570  12.435 -0.0839 -0.2248 -0.1514
 3754W        W 7805  10.094   1.681  12.497 -0.1976 -0.0849  0.0437
 3755W        W 7806   8.435   8.304   0.956 -0.1178  0.0024 -0.0441
 3756W        W 7807   5.299   2.388   0.159 -0.0696  0.0294 -0.0684
 3757W        W 7808   6.154   1.008   4.130  0.4619 -0.1530  0.1835
 3758W        W 7809   9.195   5.571   1.027 -0.4404  0.0838  0.2693
 3759W        W 7810   8.348   3.287  13.313 -0.1314 -0.1407  0.0125
 3760W        W 7811   3.850   9.666   4.114  0.2736  0.0483  0.0727
 3761W        W 7812   5.750   9.616   4.399 -0.1432  0.0871 -0.0227
 3762W        W 7813   7.538   0.737   3.076 -0.1905 -0.3786  0.0047
 3763W        W 7814   0.072   1.473   1.698  0.0784  0.0281  0.0035
 3764W        W 7815   7.497   9.453  10.579 -0.1203  0.0084  0.2702
 3765W        W 7816   8.266   5.580  10.806 -0.0812  0.0522 -0.0017
 3766W        W 7817   7.260   7.539   4.812 -0.1961  0.1552 -0.1797
 3767W        W 7818   0.541   2.829  13.929 -0.1887  0.1326 -0.2053
 3768W        W 7819   0.086   5.936  12.817  0.0479  0.1387 -0.0285
 3769W        W 7820   6.827   5.929  10.648 -0.4847 -0.2737  0.1499
 3770W        W 7821   3.727   6.730  13.672  0.1180 -0.2189  0.0224
 3771W        W 7822   2.491   0.495   9.695  0.1855  0.1050  0.1193
 3772W        W 7823   1.891   2.613  13.094 -0.2295  0.1170  0.1452
 3773W        W 7824   5.331   7.519  11.022 -0.2843  0.3813 -0.1073
 3774W        W 7825   6.579  10.049   4.224 -0.2618  0.0157  0.0162
 3775W        W 7826   4.808  10.035  13.516  0.1157 -0.2090 -0.0872
 3776W        W 7827   7.571   9.495  12.143 -0.3009  0.1616 -0.3202
 3777W        W 7828   5.306   4.680   0.303 -0.0138 -0.0094  0.3168
 3778W        W 7829   1.455   5.314   3.313 -0.3178 -0.3503  0.0782
 3779W        W 7830   5.742   7.411   0.462 -0.0882  0.0792  0.1163
 3780W        W 7831   7.284   0.873   1.753 -0.1137  0.2608  0.0151
 3781W        W 7832   6.191   7.823  11.865  0.3692 -0.3500 -0.1043
 3782W        W 7833   3.346   4.694   4.732 -0.0527 -0.0931  0.1079
 3783W        W 7834   0.664   8.133   4.474 -0.0568 -0.0939  0.1555
 3784W        W 7835   3.831   0.106   3.290  0.2330  0.1935  0.1240
 3785W        W 7836   0.252   9.819  11.446 -0.1698 -0.0535  0.3287
 3786W        W 7837   7.299   5.593   2.054 -0.1945  0.2900 -0.0967
 3787W        W 7838   8.896   8.399  10.884 -0.1863 -0.2222 -0.1698
 3788W        W 7839   7.660   1.581   2.597 -0.0491 -0.1607  0.0412
 3789W        W 7840   9.469   0.813  13.700 -0.2709 -0.1391  0.2326
 3790W        W 7841  10.118   0.256   4.948 -0.0446  0.0907 -0.1041
 3791W        W 7842   1.559   3.650  12.819 -0.2992 -0.1081 -0.0521
 3792W        W 7843   1.123   4.358   2.801  0.0428  0.0952  0.4627
 3793W        W 7844   1.086   5.970   9.683 -0.0568 -0.0605 -0.3307
 3794W        W 7845   8.794  10.004   1.121 -0.0069 -0.0025 -0.0663
 3795W        W 7846   5.808   8.128  12.551 -0.0551  0.2706 -0.1297
 3796W        W 7847   4.303   9.010   9.735  0.2005  0.1988 -0.0944
 3797W        W 7848   4.041   0.539  11.147  0.0134 -0.2299 -0.3234
 3798W        W 7849   5.849   3.560  10.900 -0.2459 -0.0501 -0.2685
 3799W        W 7850   0.763   4.554   0.284  0.0298  0.2213 -0.2411
 3800W        W 7851   0.729   3.845  10.294 -0.2067  0.3414 -0.3339
 3801W        W 7852   9.691   5.389  13.655  0.2353  0.1113  0.0684
 3802W        W 7853   4.204   6.993  11.672 -0.2461  0.2601  0.1145
 3803W        W 7854   2.829   6.096   4.586  0.0414  0.0212  0.1357
 3804W        W 7855   5.607   1.740  12.606 -0.0550 -0.1240  0.0558
 3805W        W 7856   7.008   3.318  12.681 -0.1786 -0.0160 -0.0132
 3806W        W 7857   3.273   1.680   4.312 -0.0234 -0.2143 -0.0426
 3807W        W 7858   4.120   0.460   3.804 -0.1287  0.1591 -0.2157
 3808W        W 7859   9.473   8.334   9.537  0.0598  0.1647 -0.2495
 3809W        W 7860   6.745   8.549   3.418 -0.2430 -0.0032  0.3430
 3810W        W 7861   9.803   6.143   0.816  0.0211 -0.0754  0.2562
 3811W        W 7862   4.209   0.064  11.106  0.1671  0.0796 -0.0481
 3812W        W 7863   8.231   4.708   1.882  0.2184 -0.1645 -0.1638
 3813W        W 7864   0.616   4.712  13.809 -0.4559  0.1448  0.2266
 3814W        W 7865   6.928   2.120  10.478 -0.0749 -0.2358  0.1872
 3815W        W 7866   4.296   6.674   3.487 -0.0793 -0.4676 -0.2533
 3816W        W 7867   4.860   7.786  11.156 -0.2399 -0.0679  0.2340
 3817W        W 7868   0.093   3.821  10.202 -0.0724  0.2215  0.2462
 3818W        W 7869   1.194   0.185  10.255 -0.0407 -0.1088  0.0382
 3819W        W 7870   3.254   4.315   3.700  0.2992  0.1092  0.0694
 3820W        W 7871   9.242   6.148   0.461 -0.0883  0.0923  0.1816
 3821W        W 7872   5.173   3.065  11.551  0.1114  0.2731 -0.0119
 3822W        W 7873   4.304   5.532  13.578 -0.0623  0.0161  0.0302
 3823W        W 7874   1.301   7.847   4.346  0.2347  0.1314 -0.1045
 3824W        W 7875   5.799   1.463  12.991  0.0748  0.0406  0.0269
 3825W        W 7876   5.309   9.657  10.886 -0.2484  0.1293 -0.2061
 3826W        W 7877   6.045   0.223   0.044 -0.1589  0.1623  0.2386
 3827W        W 7878   5.458   4.747   9.242  0.0011  0.3782  0.1627
 3828W        W 7879   3.359   8.122  13.111 -0.2854  0.1015  0.5776
 3829W        W 7880   1.750   1.381   1.869  0.3769  0.4456 -0.0949
 3830W        W 7881   7.165   1.230  11.969  0.1671  0.0191  0.2866
 3831W        W 7882   2.770   8.136  13.199 -0.0377  0.3585 -0.2722
 3832W        W 7883   6.721   9.167   4.354 -0.3834  0.0200  0.2298
 3833W        W 7884   0.266   1.647   4.368 -0.1216 -0.0111  0.0227
 3834W        W 7885   0.713   8.141  12.996 -0.1270 -0.2522 -0.2621
 3835W        W 7886   4.441   3.813  10.392  0.0018  0.2074  0.4786
 3836W        W 7887   2.051   9.811   4.341  0.0901  0.2707  0.1857
 3837W        W 7888   2.365   5.964   4.334 -0.0353  0.0183 -0.2415
 3838W        W 7889   6.080   5.333   0.287  0.1124 -0.2418  0.0414
 3839W        W 7890   3.242   0.712   9.157  0.2201  0.0256  0.0232
 3840W        W 7891   9.915   1.031  13.599 -0.0180  0.0453  0.3004
 3841W        W 7892   3.081   2.048  10.828  0.1131 -0.4768 -0.1893
 3842W        W 7893   1.313   4.876   0.835  0.0641 -0.0721 -0.0632
 3843W        W 7894   8.539   1.975   9.870 -0.0812  0.0354  0.0660
 3844W        W 7895   0.399   6.128   2.667  0.2167 -0.3882 -0.1419
 3845W        W 7896   4.031   7.633  13.309 -0.0904  0.1718  0.0067
 3846W        W 7897   3.608   5.113   3.889 -0.0056 -0.2794 -0.2150
 3847W        W 7898   4.005   7.879   2.349 -0.3975  0.2403  0.0833
 3848W        W 7899   8.835   9.876  12.771  0.3199  0.3492  0.0720
 3849W        W 7900   3.869   7.087   0.116 -0.1500  0.0379  0.1142
 3850W        W 7901   2.642   0.037  12.736  0.1084  0.0441  0.1232
 3851W        W 7902   4.671   5.932   3.399  0.0811 -0.0775  0.1250
 3852W        W 7903   6.142   1.740  13.366  0.1280  0.0854  0.1281
 3853W        W 7904   0.885   8.508   2.960 -0.0380  0.1327 -0.1812
 3854W        W 7905   6.035   7.436   5.270  0.2068  0.0452  0.0306
 3855W        W 7906   5.722   6.297   5.316  0.0051 -0.2330 -0.2420
 3856W        W 7907   2.597   6.894   4.404  0.4252 -0.0336 -0.0924
 3857W        W 7908   0.228   2.791  12.811 -0.1314 -0.1745  0.1020
 3858W        W 7909   3.092   8.584  11.128  0.1332 -0.0390 -0.1629
 3859W        W 7910   5.535   5.780   3.986 -0.1226 -0.3328 -0.1441
 3860W        W 7911   0.444   7.223   1.189 -0.0787 -0.2543 -0.2146
 3861W        W 7912   6.638   9.983   3.098  0.0633  0.1952 -0.0083
 3862W        W 7913   4.226   8.361   1.091  0.0723  0.1306  0.2810
 3863W        W 7914   6.086   1.530  12.426  0.1500 -0.0882 -0.1702
 3864W        W 7915   6.618   6.982  11.552 -0.1356 -0.1394 -0.3655
 3865W        W 7916   6.168   3.542  13.902 -0.0900 -0.1378 -0.0523
 3866W        W 7917   2.478   4.739   9.429  0.2148 -0.1250  0.0226
 3867W        W 7918   5.794   8.552   3.397  0.3203 -0.0683 -0.1004
 3868W        W 7919   5.556   8.758  10.300 -0.0015  0.2351  0.2020
 3869W        W 7920   8.722   9.007  12.859  0.2040  0.4012 -0.2167
 3870W        W 7921   3.688   5.911  12.455 -0.1787 -0.3013  0.0704
 3871W        W 7922   1.670   3.832  11.510  0.2334 -0.3581 -0.1641
 3872W        W 7923   7.865   6.841  11.607  0.0710 -0.0882 -0.0241
 3873W        W 7924   7.217   0.511   3.497 -0.2210 -0.3161  0.0062
 3874W        W 7925   6.202   2.705  11.691 -0.3264 -0.2703 -0.3543
 3875W        W 7926   7.682   3.640  13.803  0.3324  0.0340  0.3245
 3876W        W 7927   0.028   1.940  11.772 -0.1361  0.0455 -0.1539
 3877W        W 7928   9.582   9.358   5.080 -0.0424  0.1184  0.0304
 3878W        W 7929   3.293   3.534  13.900 -0.1056  0.1692  0.0013
 3879W        W 7930   2.333   2.760  10.999 -0.1018  0.0476 -0.0183
 3880W        W 7931   4.533   6.606  11.640  0.0414  0.1793  0.1774
 3881W        W 7932   3.858   9.390  11.234 -0.3124  0.0967  0.3205
 3882W        W 7933   6.205   6.932   5.425 -0.2877 -0.0529  0.0933
 3883W        W 7934   5.817   4.174   0.661  0.1696 -0.2914 -0.0210
 3884W        W 7935   2.133   2.291  11.299 -0.1728 -0.1851  0.0268
 3885W        W 7936   5.338   2.522   4.885 -0.0371 -0.2958  0.0780
 3886W        W 7937   5.377   3.741   3.487 -0.1449 -0.1551  0.0778
 3887W        W 7938   7.948   2.466  12.008  0.1663 -0.1046 -0.0929
 3888W        W 7939   7.949   9.700   2.483 -0.3103  0.0860  0.2053
 3889W        W 7940   7.314   6.319  13.176  0.0508  0.1037  0.0626
 3890W        W 7941   3.773   4.319   3.818  0.0702 -0.0641 -0.4394
 3891W        W 7942   1.077   3.818  12.812  0.1530 -0.0808 -0.3356
 3892W        W 7943   5.260  10.031  13.760  0.1825 -0.1870 -0.3175
 3893W        W 7944   2.223   0.819  12.604 -0.2448 -0.0580 -0.2121
 3894W        W 7945   0.179   2.444   0.258 -0.1872  0.1434  0.1996
 3895W        W 7946   9.870   9.053  12.853 -0.0657  0.3906 -0.4550
 3896W        W 7947   7.946   2.082   0.558 -0.1590 -0.0556 -0.0362
 3897W        W 7948   8.599   2.382  12.428 -0.2679 -0.0967  0.4352
 3898W        W 7949   7.647   6.573   4.181 -0.2693 -0.3241 -0.0580
 3899W        W 7950   6.107   3.703   2.470 -0.2747 -0.1520  0.1867
 3900W        W 7951   8.844   9.026   9.087 -0.2465  0.0349 -0.0607
 3901W        W 7952   5.783   6.340   1.442 -0.1976 -0.0280  0.0415
 3902W        W 7953   1.458   2.258   2.223 -0.0856  0.1942 -0.0842
 3903W        W 7954   9.788   6.258  12.181  0.0704 -0.0790 -0.0264
 3904W        W 7955   7.549   7.227   3.571 -0.0135  0.4205  0.2602
 3905W        W 7956   0.617   8.614  13.240 -0.0651  0.2636 -0.3666
 3906W        W 7957   2.125   3.636  12.884  0.0327  0.1496 -0.0035
 3907W        W 7958   5.082   0.010   0.183 -0.2779 -0.1743 -0.3422
 3908W        W 7959   7.240   6.256   3.792  0.0171 -0.1202 -0.0923
 3909W        W 7960   4.128   1.727   0.434  0.3057  0.2147 -0.2279
 3910W        W 7961   2.484   9.521   4.449  0.2529 -0.1703  0.2541
 3911W        W 7962   8.714   1.724   4.243 -0.1162  0.1362 -0.3834
 3912W        W 7963   2.424   7.917  11.322 -0.0733  0.0313  0.0105
 3913W        W 7964   1.289   7.008   2.382  0.0415 -0.0166 -0.2711
 3914W        W 7965   8.988   9.571   1.402 -0.2112 -0.0836  0.2683
 3915W        W 7966   6.650   1.853   1.155 -0.0713 -0.2792 -0.1196
 3916W        W 7967   1.492   8.305   4.822  0.0857  0.4739 -0.1472
 3917W        W 7968   6.604   4.715   3.150 -0.3068  0.2171  0.1900
 3918W        W 7969   5.579   4.177   0.183  0.1048  0.1098  0.1236
 3919W        W 7970   7.489   5.959   2.968  0.0786  0.2234 -0.0472
 3920W        W 7971   6.816   8.841   0.919 -0.2475 -0.1044  0.0702
 3921W        W 7972   6.161   3.293   3.347  0.3268 -0.1509  0.0765
 3922W        W 7973   5.252   0.519  12.238 -0.1556 -0.2152 -0.1584
 3923W        W 7974   2.388   5.749   3.340 -0.0477  0.0047  0.2943
 3924W        W 7975   1.064   4.815   2.612  0.0491  0.1192 -0.0812
 3925W        W 7976   0.010   7.533   9.583  0.3878  0.0930 -0.2421
 3926W        W 7977   4.662   9.082   2.264  0.0212 -0.1138  0.0829
 3927W        W 7978   6.796   9.940   2.015 -0.0910  0.0112  0.4714
 3928W        W 7979   6.517   8.692   4.152 -0.3705  0.0497 -0.0740
 3929W        W 7980   8.757   5.631  10.731  0.0754 -0.0536  0.0573
 3930W        W 7981   7.208   4.526  12.637  0.2534 -0.1778  0.2003
 3931W        W 7982   5.118   1.464   2.647 -0.1793  0.1394  0.2484
 3932W        W 7983   6.151   4.726   1.371  0.1509  0.3324 -0.2609
 3933W        W 7984   7.705   7.259  11.855 -0.2247  0.0125 -0.1678
 3934W        W 7985   2.398   8.322   1.001  0.3644 -0.0606  0.0795
 3935W        W 7986   4.459   2.680   9.784 -0.0147 -0.3197 -0.0495
 3936W        W 7987   6.909   7.953  10.529 -0.0367  0.0768  0.0425
 3937W        W 7988   8.959   7.953  12.007  0.0441 -0.0272  0.1354
 3938W        W 7989   4.467   5.133   1.884 -0.2120  0.1463  0.1977
 3939W        W 7990   1.314   0.961   8.824  0.0063  0.1962  0.0160
 3940W        W 7991   5.618   6.073   2.973  0.0926  0.1596 -0.0020
 3941W        W 7992  10.035   4.898   9.903 -0.2713  0.2866  0.1156
 3942W        W 7993   7.909   4.930   2.900  0.0511 -0.1869  0.0186
 3943W        W 7994   1.518   6.960   2.843 -0.1356 -0.1338  0.1831
 3944W        W 7995   9.585   2.883   3.667 -0.1272 -0.2092 -0.1000
 3945W        W 7996   5.311   0.446   3.029  0.0983  0.0367  0.0076
 3946W        W 7997   3.502   0.183  13.358  0.1503  0.2804  0.1045
 3947W        W 7998   9.784   2.097  11.523  0.0825 -0.0596 -0.5871
 3948W        W 7999   7.434   3.515   1.493  0.2944  0.0906 -0.0127
 3949W        W 8000   7.099   6.021   2.364  0.2020 -0.1112 -0.1005
 3950W        W 8001   8.994   7.081  10.625  0.1694 -0.0889 -0.0624
 3951W        W 8002   9.774   6.910   0.217  0.1867  0.1563  0.4842
 3952W        W 8003   2.611   7.832   2.726 -0.1093  0.4015 -0.1806
 3953W        W 8004   2.775   9.478  10.071  0.1771  0.0902 -0.0051
 3954W        W 8005   1.996   5.090   2.663 -0.0588  0.0082 -0.0472
 3955W        W 8006   2.903   2.994   0.650 -0.3307 -0.1844 -0.2322
 3956W        W 8007   3.053   5.418  13.070 -0.0699 -0.0289 -0.0764
 3957W        W 8008   8.815   1.976  11.307  0.1418  0.0391 -0.0238
 3958W        W 8009   2.832   1.444  11.057 -0.4755  0.1473  0.1041
 3959W        W 8010   3.432   3.282  12.392 -0.0262 -0.2335  0.1264
 3960W        W 8011   9.098   7.935   2.206  0.0105  0.1517  0.0110
 3961W        W 8012   4.003   1.110   5.279  0.0255 -0.3028  0.0246
 3962W        W 8013   4.145   5.143   9.561 -0.1925 -0.1893 -0.2291
 3963W        W 8014   2.500   0.367   3.516 -0.3491  0.0451 -0.0334
 3964W        W 8015   2.188   1.063   0.987  0.1983 -0.2457 -0.0606
 3965W        W 8016   7.272   0.379   1.955 -0.2158  0.0650  0.2309
 3966W        W 8017   3.340   9.362   3.291 -0.1760 -0.1387  0.1326
 3967W        W 8018   9.722   4.653   3.382  0.0779 -0.1237 -0.0366
 3968W        W 8019   0.276   0.224  13.253 -0.2584 -0.0172  0.1922
 3969W        W 8020   8.462   7.440  11.248 -0.3135 -0.2538 -0.0483
 3970W        W 8021   2.687   9.560  12.680  0.1511 -0.0983  0.0321
 3971W        W 8022   8.041   6.513  10.674 -0.2148 -0.1055  0.0920
 3972W        W 8023   9.132   5.731   0.150  0.0374 -0.1898 -0.1443
 3973W        W 8024   5.726   2.870  12.141 -0.0381  0.2963  0.2172
 3974W        W 8025   0.219   3.299   0.381  0.1363 -0.2180 -0.0919
 3975W        W 8026   1.167   5.754   3.249 -0.0581  0.2227  0.1869
 3976W        W 8027   5.746   5.709  12.122  0.1263 -0.1384  0.2043
 3977W        W 8028   6.860   6.852   1.951 -0.0295  0.2053  0.0867
 3978W        W 8029   8.376   8.890   3.620 -0.0471 -0.1291 -0.1413
 3979W        W 8030   2.011   0.657  12.120 -0.3465 -0.0484 -0.0095
 3980W        W 8031   2.384   3.690   0.582 -0.0936  0.0800 -0.3265
 3981W        W 8032   6.640   5.260   2.925 -0.1651  0.1902 -0.0988
 3982W        W 8033   7.465   8.566  12.397  0.2097 -0.1782  0.0187
 3983W        W 8034   6.281   1.771  11.989 -0.2937  0.0722  0.0456
 3984W        W 8035   3.127   5.732  12.479 -0.1318  0.1601 -0.0523
 3985W        W 8036   4.838   9.009   2.720 -0.0054 -0.2771 -0.1282
 3986W        W 8037   3.542   3.359   4.053  0.0127 -0.0982 -0.0137
 3987W        W 8038   5.159   7.674   4.175  0.0728 -0.0532  0.3706
 3988W        W 8039   3.515   3.535  11.475 -0.0641 -0.0648 -0.1035
 3989W        W 8040   7.530   8.040  11.416  0.0157  0.0569 -0.3207
 3990W        W 8041   8.444   0.788   9.453 -0.2012  0.0219  0.3084
 3991W        W 8042   1.628   9.978  13.110 -0.1126  0.2848  0.1562
 3992W        W 8043   5.704   9.792  10.661 -0.3263 -0.0269  0.0269
 3993W        W 8044   4.373   7.182  12.502  0.2678  0.1982  0.3112
 3994W        W 8045   1.085   8.276   3.618 -0.0107  0.1319  0.2341
 3995W        W 8046   9.104   3.244   1.539  0.4005 -0.3458  0.0000
 3996W        W 8047   4.938   0.388   0.506 -0.1943  0.0174  0.0166
 3997W        W 8048   4.812   6.524   3.443  0.1046  0.0841 -0.1412
 3998W        W 8049   9.175  10.041   2.222 -0.2424 -0.2648 -0.3978
 3999W        W 8050   1.663   8.966  13.122 -0.0706 -0.1164  0.2817
 4000W        W 8051   5.356   8.210   9.796  0.1025  0.1793 -0.2169
 4001W        W 8052   4.320   4.817  11.402 -0.0412  0.0466  0.0772
 4002W        W 8053   4.167   6.922  13.731 -0.2896  0.0615  0.0208
 4003W        W 8054   1.437   4.091   1.719  0.2330  0.0201  0.2618
 4004W        W 8055   1.967   5.537   1.811 -0.1200  0.4001 -0.2078
 4005W        W 8056   3.664   1.117   2.296 -0.3748  0.1796 -0.2457
 4006W        W 8057   0.214   8.884  13.214 -0.4356 -0.1883  0.3110
 4007W        W 8058   8.755  10.147  10.202 -0.0545  0.0251 -0.0501
 4008W        W 8059   1.503   1.682   0.636  0.0990  0.0424  0.1137
 4009W        W 8060   0.537   7.124   0.606  0.0659  0.3008 -0.1066
 4010W        W 8061   4.378   9.048   2.855  0.0778 -0.2302 -0.0134
 4011W        W 8062   4.559   6.746   1.732 -0.1079  0.1239  0.0799
 4012W        W 8063   5.423   7.512  11.536  0.0066  0.0042  0.0940
 4013W        W 8064   5.441   5.254  10.052 -0.0321 -0.0884  0.0243
 4014W        W 8065   5.155   3.364   3.089  0.3720 -0.0333  0.4257
 4015W        W 8066   5.623   8.670  12.664  0.2493  0.0739 -0.1922
 4016W        W 8067   5.515   3.152   2.727 -0.2697  0.0633  0.1643
 4017W        W 8068   1.504   2.675   1.380  0.0476 -0.1994  0.0506
 4018W        W 8069   6.668   9.812  10.525  0.1183  0.0100 -0.0701
 4019W        W 8070   1.099   2.513   4.277  0.0578  0.1925  0.4309
 4020W        W 8071   6.219   4.635   4.096  0.0931 -0.2943  0.2530
 4021W        W 8072   3.299   0.879   4.160  0.1995 -0.2439 -0.0021
 4022W        W 8073   4.828   5.999  11.576  0.0284 -0.1533  0.0545
 4023W        W 8074   9.731   7.326  13.891 -0.0859  0.4187 -0.1512
 4024W        W 8075   6.886   3.170  10.134  0.1584 -0.1547 -0.1419
 4025W        W 8076   5.518   6.631   0.004 -0.5547 -0.2451 -0.0195
 4026W        W 8077   3.307   9.891   3.306  0.1579 -0.2800 -0.2106
 4027W        W 8078   2.984   2.203   3.037  0.0397 -0.0781  0.0112
 4028W        W 8079   8.876   5.311   0.207  0.1456  0.1087  0.0835
 4029W        W 8080   7.028   4.957   1.617 -0.0264 -0.1995 -0.0510
 4030W        W 8081   4.483   0.754   3.614 -0.0026  0.4347  0.1282
 4031W        W 8082   1.700   2.275  12.273  0.1341 -0.1591 -0.0745
 4032W        W 8083   4.461   9.132  11.682  0.0660  0.2889 -0.3261
 4033W        W 8084   3.618   0.269  13.795 -0.0815  0.3339 -0.0813
 4034W        W 8085   9.949   6.641   2.536  0.0980 -0.1358  0.0216
 4035W        W 8086   2.113   2.864   9.973 -0.0869 -0.1583  0.1358
 4036W        W 8087   8.345   6.951   1.046  0.0030 -0.0217 -0.1471
 4037W        W 8088   0.198   3.706   0.047  0.0039 -0.0114 -0.2472
 4038W        W 8089   4.669   9.716   3.573 -0.1217 -0.2171  0.0931
 4039W        W 8090   8.176   0.533  12.308  0.4802 -0.1500  0.1516
 4040W        W 8091   8.957   6.012   2.568 -0.2427 -0.2276 -0.5223
 4041W        W 8092   2.021   1.963   2.988 -0.0028 -0.1107  0.0233
 4042W        W 8093   1.056   3.538   2.553 -0.3829 -0.2373 -0.1002
 4043W        W 8094   0.626   6.608   5.547  0.1932 -0.0923 -0.1671
 4044W        W 8095   0.256   0.129   4.571  0.1685 -0.0629  0.1226
 4045W        W 8096   5.245   4.824   1.197 -0.1586  0.2225 -0.2425
 4046W        W 8097   3.813   7.526   9.996 -0.1599 -0.2502 -0.0475
 4047W        W 8098   3.237   1.850  12.055  0.0176 -0.0616 -0.0169
 4048W        W 8099   1.091   2.110   9.395 -0.2141 -0.2109  0.0764
 4049W        W 8100   2.662   1.122   4.167 -0.2424  0.3069 -0.1689
 4050W        W 8101   4.886   0.173  13.100 -0.2612  0.3154  0.0876
 4051W        W 8102   7.952   1.076   1.677 -0.0244 -0.1265  0.0182
 4052W        W 8103   1.653   2.762   3.040 -0.0187 -0.3290  0.4465
 4053W        W 8104   3.162   3.553  12.970 -0.1879 -0.1707  0.2663
 4054W        W 8105   5.250   5.234  12.646 -0.0767  0.1440 -0.1044
 4055W        W 8106   3.916   7.505   0.417  0.1919 -0.2289 -0.2238
 4056W        W 8107   0.348   8.776   0.180  0.0408  0.0966  0.1333
 4057W        W 8108   6.225   4.124   2.942  0.0184  0.1533  0.1075
 4058W        W 8109   5.772   6.700   2.504  0.1381 -0.2007  0.0634
 4059W        W 8110   3.085   2.721   2.985  0.2550 -0.2228  0.0259
 4060W        W 8111   5.739   0.633   4.933  0.2332 -0.1816 -0.1959
 4061W        W 8112   1.605   6.200   9.774  0.0679  0.1373 -0.0223
 4062W        W 8113   9.553   7.045  11.028 -0.0301 -0.1196  0.1004
 4063W        W 8114   0.717   0.434   9.532 -0.0300  0.1088 -0.2840
 4064W        W 8115   9.685   5.123   3.167  0.0410  0.1394 -0.1470
 4065W        W 8116   8.277   5.198  11.418 -0.1950  0.1193  0.3837
 4066W        W 8117   1.773   8.470   4.112  0.0281  0.0719 -0.2716
 4067W        W 8118   7.633   3.807  13.083  0.3855 -0.3793 -0.1248
 4068W        W 8119   6.479   8.568   0.712  0.0183  0.3961  0.2779
 4069W        W 8120   3.100   4.247   4.817  0.0310 -0.3585 -0.0799
 4070W        W 8121   8.661  10.052   0.630  0.0193 -0.4165  0.2863
 4071W        W 8122   9.765   6.397   4.877 -0.2921 -0.1187 -0.2620
 4072W        W 8123   0.631   9.077  13.459  0.0016 -0.1875 -0.0940
 4073W        W 8124   2.340   1.906  12.134 -0.0056 -0.2931 -0.3343
 4074W        W 8125   3.750   2.235  10.429  0.0313  0.3361  0.0483
 4075W        W 8126   0.846   1.690   2.789  0.0267  0.3097  0.1198
 4076W        W 8127   7.583   6.551  10.807 -0.2887 -0.3111 -0.2664
 4077W        W 8128   7.097   7.804   2.346 -0.2043  0.0276 -0.2599
 4078W        W 8129   9.645  10.034  12.466  0.3819 -0.0563 -0.0150
 4079W        W 8130   7.145   9.795  10.383 -0.1928  0.2060 -0.2544
 4080W        W 8131   3.890   5.506   1.018  0.1014 -0.1499 -0.0283
 4081W        W 8132   8.443   6.797   5.711  0.1052 -0.1152 -0.5141
 4082W        W 8133   1.043   4.941  10.479  0.1379 -0.1062  0.0569
 4083W        W 8134   6.707   9.154  11.655  0.3171 -0.0300 -0.1311
 4084W        W 8135   3.294   8.894   3.219 -0.0304  0.0034 -0.0098
 4085W        W 8136   7.614   2.368   2.116 -0.3629 -0.2539  0.1095
 4086W        W 8137   9.170   2.141   3.170  0.2678  0.4567  0.0127
 4087W        W 8138   4.581   6.866  13.270 -0.1971  0.2330  0.0874
 4088W        W 8139   4.963   3.551  10.046  0.2306  0.0385 -0.1236
 4089W        W 8140   8.388   8.298  10.294 -0.1488 -0.2695 -0.0079
 4090W        W 8141   8.230   2.346  10.687  0.0524  0.1956 -0.2743
 4091W        W 8142   4.425   6.715   0.075 -0.1050  0.2245 -0.5095
 4092W        W 8143   1.924   5.029   1.890  0.1079 -0.0683  0.1053
 4093W        W 8144  10.067   9.812   3.119  0.2409  0.0936  0.4550
 4094W        W 8145   3.013   9.050  12.708  0.0586 -0.4049  0.0273
 4095W        W 8146   7.295   8.453   9.732 -0.0107 -0.0016 -0.0689
 4096W        W 8147  10.141   4.347   3.354 -0.0922  0.1572  0.2064
 4097W        W 8148   8.071   4.109  13.168  0.2240  0.2074 -0.0182
 4098W        W 8149   9.287   5.499  13.285  0.0132 -0.2746  0.1856
 4099W        W 8150   9.873   6.722   9.683  0.0717 -0.0417 -0.2594
 4100W        W 8151   3.653   9.485  12.249  0.2768 -0.0524  0.0408
 4101W        W 8152   2.117   4.622   8.067 -0.2250 -0.2396 -0.1298
 4102W        W 8153   0.727   6.181  13.670  0.3666  0.0410 -0.1116
 4103W        W 8154   1.911   8.137  13.063 -0.0746 -0.0366  0.1278
 4104W        W 8155   7.473   0.146  12.818  0.0578 -0.3487  0.0009
 4105W        W 8156   2.638   8.069   4.205  0.1076 -0.0605  0.2798
 4106W        W 8157   2.615   4.572   0.904  0.4683  0.1160  0.4109
 4107W        W 8158   3.626   4.086  13.116  0.0650 -0.0479  0.0412
 4108W        W 8159   8.027   7.027   3.551 -0.1393  0.2580 -0.0930
 4109W        W 8160   7.184   1.514   0.375  0.0083  0.2350  0.3077
 4110W        W 8161   3.240   4.531   0.011 -0.2007 -0.1601  0.1296
 4111W        W 8162   3.090   5.979   3.553  0.2873 -0.2401 -0.0554
 4112W        W 8163   5.186   0.001   4.100 -0.0631  0.1465  0.0176
 4113W        W 8164   7.880   1.281   3.392 -0.1551 -0.0351  0.0898
 4114W        W 8165   9.733   7.422   1.330 -0.0229  0.0497  0.0450
 4115W        W 8166  10.101   2.649  13.228  0.0025  0.0292  0.1339
 4116W        W 8167   2.334   0.336   3.035 -0.0216  0.5201  0.1566
 4117W        W 8168   0.803   8.038  12.517 -0.5636  0.2618 -0.3278
 4118W        W 8169   9.835   0.718  10.872 -0.0171 -0.0306 -0.0600
 4119W        W 8170   5.967   2.750   0.650 -0.0352  0.2047 -0.0820
 4120W        W 8171   4.379   6.271   1.584  0.1648  0.3031 -0.0715
 4121W        W 8172   6.147   5.371   2.856  0.0165  0.0893 -0.1416
 4122W        W 8173   0.933   8.993  11.736  0.1187  0.0197 -0.1271
 4123W        W 8174   7.809   4.327  13.893 -0.0704  0.0663 -0.1422
 4124W        W 8175   8.378   8.898   2.095 -0.1203  0.4833 -0.0427
 4125W        W 8176   2.928   6.576  11.848 -0.1772  0.2058 -0.1388
 4126W        W 8177   5.618   5.617   9.251 -0.0500 -0.1261  0.3976
 4127W        W 8178   8.187   5.487   3.803 -0.1304 -0.0047 -0.1865
 4128W        W 8179   4.369   8.139   4.135  0.1837  0.3031 -0.1128
 4129W        W 8180   0.394   7.023   3.837 -0.1858 -0.2032 -0.0924
 4130W        W 8181   2.080   8.684   2.804  0.1877  0.1036 -0.0067
 4131W        W 8182   8.125   0.260  13.938  0.0464 -0.0079 -0.1469
 4132W        W 8183   4.938   5.025  10.050  0.1205  0.0849  0.1255
 4133W        W 8184   9.964   2.559   0.596  0.1367 -0.2219  0.4878
 4134W        W 8185   6.154   4.774  13.483  0.1820 -0.2934  0.0481
 4135W        W 8186   7.239   8.071  10.913  0.1447 -0.2072 -0.3263
 4136W        W 8187   1.683   7.822   2.724 -0.0869  0.0340 -0.1227
 4137W        W 8188   2.470   8.260  12.236  0.0731  0.1416  0.0138
 4138W        W 8189   6.512   3.804  13.677 -0.3536  0.1758  0.2315
 4139W        W 8190   1.804   7.842  10.189  0.0397  0.3090  0.2060
 4140W        W 8191   2.974   4.122   2.729  0.5133  0.0799  0.0428
 4141W        W 8192   7.377   2.615   1.141 -0.1659  0.1856 -0.1443
 4142W        W 8193   4.185   6.767   2.757  0.3505  0.2916 -0.2416
 4143W        W 8194   0.634   0.869   1.233 -0.4552  0.3240 -0.2450
 4144W        W 8195   8.792   7.630  12.816  0.2485  0.1565  0.0783
 4145W        W 8196   4.900   9.942  10.708  0.2157 -0.2576 -0.3279
 4146W        W 8197   3.616   8.713  11.213  0.1658 -0.0917  0.1360
 4147W        W 8198   1.067   8.846  13.175  0.0075 -0.0379 -0.2900
 4148W        W 8199   2.566   5.017  13.140  0.0951 -0.2222 -0.0171
 4149W        W 8200   0.094   2.858   1.298 -0.0817 -0.1673  0.0388
 4150W        W 8201   7.213   9.681   5.096  0.0410  0.0456 -0.0061
 4151W        W 8202   0.802   9.838   0.886 -0.1634  0.0776 -0.2462
 4152W        W 8203   4.143   5.235   0.616 -0.1899 -0.0834  0.1829
 4153W        W 8204   2.094   4.452  11.003 -0.1761  0.1737 -0.0878
 4154W        W 8205   6.378   4.489   2.081 -0.0587  0.2846 -0.1316
 4155W        W 8206   0.166   4.671   3.922 -0.0258  0.1321 -0.0372
 4156W        W 8207   7.090   2.360   2.057 -0.1135 -0.0886 -0.0145
 4157W        W 8208   9.329   3.642   1.010  0.0242  0.1052 -0.2207
 4158W        W 8209   5.924   3.456   2.852 -0.0472  0.3111  0.0354
 4159W        W 8210   0.896   4.091  12.408  0.1347 -0.0257  0.0257
 4160W        W 8211   0.387   5.739   8.783 -0.1180 -0.1179  0.1705
 4161W        W 8212   3.582   4.278   4.672  0.1255  0.1694  0.2658
 4162W        W 8213   3.732   6.972   2.793  0.0722 -0.1756 -0.0011
 4163W        W 8214   4.457   5.619  11.701  0.2668 -0.0006  0.0457
 4164W        W 8215   4.808   6.374   1.345  0.1868 -0.3006  0.1932
 4165W        W 8216   3.900   2.509  12.614 -0.2753  0.1353  0.3250
 4166W        W 8217   2.850   5.845  12.921 -0.2414  0.0996 -0.1331
 4167W        W 8218   4.569   0.148  12.138  0.1112  0.2869 -0.5216
 4168W        W 8219  10.177   6.083   4.667 -0.0606 -0.1441 -0.0067
 4169W        W 8220   0.491   5.648   0.961  0.0407  0.1274 -0.0091
 4170W        W 8221   6.625   6.172   2.641 -0.1560 -0.0748  0.0115
 4171W        W 8222   0.718   2.669  12.968 -0.0679  0.0781 -0.1147
 4172W        W 8223   2.847   2.681   1.359 -0.2144 -0.1668  0.2105
 4173W        W 8224   1.233   6.141   2.266  0.0670 -0.2059 -0.1735
 4174W        W 8225   4.513   7.649   1.479 -0.3291  0.0563 -0.1704
 4175W        W 8226   5.039   8.351  11.960  0.0622 -0.2011  0.4821
 4176W        W 8227   9.516   1.406   1.165  0.0259 -0.2714 -0.2104
 4177W        W 8228   8.033   8.834   4.257  0.4473  0.2143 -0.0959
 4178W        W 8229   3.744   8.775   3.135  0.0539  0.1470  0.2475
 4179W        W 8230   5.668   9.344   9.911  0.2113 -0.2039 -0.1576
 4180W        W 8231   4.432   5.152  12.747 -0.1348 -0.1495 -0.1290
 4181W        W 8232   3.766   5.029   1.082 -0.3036 -0.0449 -0.0056
 4182W        W 8233   8.465   5.210  13.138  0.4279  0.1511 -0.0442
 4183W        W 8234   2.401   0.210  10.160 -0.0275 -0.1522  0.0964
 4184W        W 8235   5.389   2.980  13.376  0.0347  0.2429 -0.1643
 4185W        W 8236   8.641  10.185   3.985 -0.0417  0.0408  0.1688
 4186W        W 8237   9.724   5.244  10.772  0.1632 -0.2702 -0.1094
 4187W        W 8238   9.326   0.584  12.524 -0.0578 -0.0149 -0.0637
 4188W        W 8239   3.848   8.507  10.672  0.4632 -0.0156  0.1482
 4189W        W 8240   6.203   0.838   1.129  0.2836  0.0433 -0.1436
 4190W        W 8241   5.924   0.877  12.918  0.0284  0.1547 -0.0470
 4191W        W 8242   4.286   4.755   2.175 -0.0218  0.5084  0.2780
 4192W        W 8243  10.093   5.497   2.090  0.1149 -0.1304 -0.1030
 4193W        W 8244   3.098   0.637   2.924 -0.0198  0.1538  0.2271
 4194W        W 8245   1.141   5.232   4.089  0.0008  0.3000  0.1271
 4195W        W 8246   5.722   5.260  11.513 -0.0691  0.1404  0.1161
 4196W        W 8247   3.722   2.479   0.988  0.0135 -0.6149  0.1319
 4197W        W 8248   0.493   2.514  12.371  0.2175  0.0395  0.0441
 4198W        W 8249  10.061   9.088  11.906  0.1882  0.0760  0.0597
 4199W        W 8250   5.246   8.432   3.727 -0.0996 -0.0520 -0.0320
 4200W        W 8251   8.807   9.566   0.902  0.0396 -0.3190  0.2000
 4201W        W 8252   3.426   0.447   2.563  0.0941  0.0988  0.0369
 4202W        W 8253   2.004   4.086   0.837  0.2099 -0.2309  0.5534
 4203W        W 8254   3.904   0.747  12.465 -0.0348  0.1580  0.1360
 4204W        W 8255   0.267   5.587   3.843 -0.2092  0.1418 -0.1053
 4205W        W 8256   3.518   7.011   0.473  0.0735 -0.0432  0.2636
 4206W        W 8257   0.454   7.228   2.003  0.0746  0.0252 -0.2728
 4207W        W 8258   2.785   6.207   1.654  0.1980 -0.1298 -0.0804
 4208W        W 8259   2.969   6.530  10.849 -0.1357 -0.3709 -0.0171
 4209W        W 8260   4.951   2.250  10.320  0.3018 -0.0806  0.0898
 4210W        W 8261   6.641   6.313   3.098  0.0221  0.1441  0.0319
 4211W        W 8262   4.979   4.808   2.047 -0.1697 -0.2873 -0.1185
 4212W        W 8263   4.659   4.791   4.054  0.0934 -0.0248  0.1865
 4213W        W 8264   4.256   4.232   4.013  0.1370  0.0921  0.0369
 4214W        W 8265   8.366   8.746  12.099 -0.0386 -0.4452  0.0467
 4215W        W 8266   1.991   1.681   4.465 -0.0185  0.1041  0.2685
 4216W        W 8267   2.693   5.762   2.355  0.1607  0.1395 -0.0465
 4217W        W 8268   6.712   7.578  10.157  0.1668  0.2095 -0.1550
 4218W        W 8269   6.392   4.353   1.642 -0.0293  0.0050  0.2003
 4219W        W 8270   7.208   9.200  13.561 -0.0429  0.0836 -0.2438
 4220W        W 8271   3.790   8.363  12.793  0.1921  0.1020 -0.1367
 4221W        W 8272   4.969   7.136  10.563  0.1423  0.1363  0.1099
 4222W        W 8273   5.583   6.585  13.057 -0.0725  0.1466  0.0180
 4223W        W 8274   0.149   2.615   9.613  0.1269 -0.0801 -0.2917
 4224W        W 8275   2.091   5.484  11.416 -0.1074  0.2426 -0.2218
 4225W        W 8276   7.385   2.520   3.058 -0.0356  0.1375  0.2334
 4226W        W 8277   8.379   8.162   5.370  0.0180 -0.0037 -0.0215
 4227W        W 8278   9.969   3.837   3.271 -0.2079  0.0515  0.0774
 4228W        W 8279   5.815   0.120  13.542  0.0125 -0.0238 -0.0001
 4229W        W 8280   9.661   1.266   0.107  0.1136  0.1954 -0.2075
 4230W        W 8281   9.412   1.907   2.778 -0.1259 -0.2255  0.0341
 4231W        W 8282   2.010   7.501  13.101  0.0241 -0.0165 -0.0483
 4232W        W 8283   7.225   1.480   1.539 -0.0421  0.0099 -0.0057
 4233W        W 8284   9.230   0.247   3.576  0.1639  0.0410  0.0561
 4234W        W 8285   4.604   1.941   9.111  0.0121 -0.3541  0.1123
 4235W        W 8286   3.549   8.976   1.326 -0.2469 -0.1568 -0.0982
 4236W        W 8287   3.372   2.027   2.217 -0.2024 -0.1401  0.5012
 4237W        W 8288   7.595   6.662   2.791  0.2075 -0.1310  0.2137
 4238W        W 8289   4.378   4.149   9.552  0.0821  0.3776  0.2107
 4239W        W 8290   8.875   0.182   2.739  0.0279 -0.3050 -0.3939
 4240W        W 8291   5.826   4.168  11.599  0.1028  0.0146  0.1034
 4241W        W 8292   8.213   7.893   3.130 -0.0230  0.1129 -0.0870
 4242W        W 8293   7.635   8.674  13.738 -0.0455 -0.2707  0.1140
 4243W        W 8294   4.401   3.615   0.607 -0.2429 -0.3509 -0.2535
 4244W        W 8295   0.315   7.703   1.902  0.0486  0.2818 -0.0055
 4245W        W 8296   5.115   8.245  13.413  0.0310 -0.1353  0.0422
 4246W        W 8297  10.144   9.363  13.365 -0.0659 -0.1806  0.2553
 4247W        W 8298   7.870   5.690   4.078  0.1395  0.0455  0.2491
 4248W        W 8299   9.950   8.021  10.389  0.0803  0.0083  0.0820
 4249W        W 8300   1.259   0.671   9.580 -0.1642 -0.1036  0.1757
 4250W        W 8301   9.459   8.837   2.251 -0.1351  0.1739 -0.5024
 4251W        W 8302   9.914   8.680   8.595  0.1715  0.0326 -0.0813
 4252W        W 8303   0.315   7.216  12.192 -0.3507  0.0394  0.1261
 4253W        W 8304   0.289   3.163  12.467  0.0811 -0.1422 -0.1449
 4254W        W 8305   1.249   1.048   4.968  0.0614 -0.0463 -0.0009
 4255W        W 8306   3.012   6.304   0.255  0.0420  0.3152 -0.1666
 4256W        W 8307   7.925   1.244  13.508 -0.2433 -0.1636  0.1876
 4257W        W 8308   1.996   3.942  10.719  0.3001  0.1097 -0.2225
 4258W        W 8309   3.060   4.733   0.809 -0.0299  0.4782  0.1535
 4259W        W 8310   9.669   5.699   1.088  0.2201 -0.2244 -0.1196
 4260W        W 8311   7.590   6.628   0.106 -0.0705  0.0061  0.3046
 4261W        W 8312   6.411   5.261   2.395  0.0190  0.0306  0.0456
 4262W        W 8313   5.279   3.972  10.111  0.0427  0.0210  0.2669
 4263W        W 8314   0.734   5.895   3.461  0.0898 -0.4836  0.2639
 4264W        W 8315   6.087   0.556  11.110  0.0341 -0.1277 -0.0146
 4265W        W 8316   2.359   2.889   1.937 -0.1387 -0.2003 -0.2387
 4266W        W 8317   7.206   9.298  12.501  0.0655  0.1808  0.1814
 4267W        W 8318   0.587   9.409  11.771 -0.1491 -0.4814 -0.0651
 4268W        W 8319   6.417   6.597  10.819  0.0850  0.1744 -0.1698
 4269W        W 8320   2.386   9.861   9.943  0.2363 -0.0225  0.0583
 4270W        W 8321   7.797   5.663   9.840  0.0074  0.0748  0.1051
 4271W        W 8322   6.281   4.063   4.410 -0.1667 -0.3908 -0.0557
 4272W        W 8323   4.957   4.796  10.498  0.2120  0.5749  0.0714
 4273W        W 8324   1.457   4.786  10.264 -0.0322 -0.1691  0.2383
 4274W        W 8325   7.673   1.750   2.111 -0.0052  0.2325  0.0547
 4275W        W 8326   7.882   3.960   2.612  0.0456 -0.1909  0.2293
 4276W        W 8327   4.344   8.612  10.654  0.4453  0.0439 -0.0495
 4277W        W 8328   3.799   1.372   0.428 -0.0111  0.3299  0.2974
 4278W        W 8329   7.242   5.013  12.347 -0.1566  0.0998  0.4392
 4279W        W 8330   2.447   6.586  11.816 -0.0884  0.1472 -0.0634
 4280W        W 8331   7.418   9.453   0.532  0.1025 -0.1915 -0.1249
 4281W        W 8332   6.941   6.032  10.050 -0.1139 -0.2203  0.2519
 4282W        W 8333   7.705   5.228  12.585 -0.0526 -0.1255 -0.2357
 4283W        W 8334   9.647   2.973  11.232  0.0676  0.0609  0.0853
 4284W        W 8335   2.609   1.402  10.266  0.0603  0.1433  0.0786
 4285W        W 8336   7.766   8.798   0.711 -0.0344 -0.1489 -0.3193
 4286W        W 8337   4.482   5.644   2.949 -0.2701 -0.0716 -0.1088
 4287W        W 8338   2.473   8.974   3.610  0.0745  0.1860 -0.1396
 4288W        W 8339   3.200   0.832  13.667 -0.0405 -0.0166  0.3188
 4289W        W 8340   5.706   0.177  12.938 -0.2223 -0.0791 -0.0347
 4290W        W 8341   9.889   7.764   9.177  0.1082  0.3762 -0.1375
 4291W        W 8342   7.768   2.271  11.260 -0.1626  0.2348 -0.1474
 4292W        W 8343   0.563   9.844  13.371  0.1215 -0.0592 -0.0799
 4293W        W 8344   6.048   6.728   2.956  0.0584  0.3175 -0.0814
 4294W        W 8345   3.418   3.910   5.096  0.3262 -0.1603  0.0883
 4295W        W 8346   2.776   0.174   4.097  0.1983 -0.0091 -0.2474
 4296W        W 8347   9.604   4.893  12.624  0.1096  0.0705  0.2186
 4297W        W 8348   5.793   8.496   2.097 -0.0524  0.0077 -0.1199
 4298W        W 8349   2.337   2.629   4.943  0.4195 -0.1765  0.1156
 4299W        W 8350   4.037   4.646   2.787 -0.0037  0.2025 -0.1144
 4300W        W 8351   6.843   0.972  11.710 -0.3337  0.1439  0.1266
 4301W        W 8352   5.977   9.474   0.018  0.0461  0.0151 -0.3317
 4302W        W 8353   9.209   6.013  10.760 -0.0139  0.1071 -0.1877
 4303W        W 8354   1.439   7.933  10.714  0.0709  0.1242 -0.0479
 4304W        W 8355  10.154   6.128  11.342 -0.0301  0.0156 -0.1635
 4305W        W 8356   5.560   1.133  12.618  0.1412  0.0094 -0.0848
 4306W        W 8357   2.710   0.691   3.186 -0.0567 -0.0716  0.3143
 4307W        W 8358   8.258   1.588   2.804  0.1879  0.1764  0.0901
 4308W        W 8359   7.543   8.598  11.541 -0.0120  0.0257 -0.0126
 4309W        W 8360   0.249   2.149  10.925 -0.0856 -0.0971  0.0675
 4310W        W 8361   5.768   1.144   2.927  0.0916  0.7454  0.3382
 4311W        W 8362   5.589   6.919   3.684 -0.0432 -0.1184  0.2491
 4312W        W 8363   4.064   0.123  12.285 -0.2527  0.1461  0.0150
 4313W        W 8364   6.650   1.019   3.993 -0.1622  0.1185 -0.0935
 4314W        W 8365   6.926   6.271   0.486 -0.1904  0.1861  0.2214
 4315W        W 8366   6.234   1.289   9.727  0.1232  0.0507 -0.1373
 4316W        W 8367   1.895   7.177  12.509 -0.1422 -0.0705 -0.4972
 4317W        W 8368   4.955   4.313   0.247 -0.0491  0.2619 -0.4416
 4318W        W 8369   2.596   8.715  10.503 -0.1800 -0.2321 -0.0772
 4319W        W 8370   0.974   9.226   0.847  0.0013  0.1731 -0.0938
 4320W        W 8371   2.039   6.845   3.744 -0.1841  0.1100 -0.0191
 4321W        W 8372   3.922   6.031   0.150  0.2669  0.0476 -0.2326
 4322W        W 8373   6.933   0.034  11.632  0.0433  0.2528  0.1079
 4323W        W 8374   9.728   8.676   3.185 -0.0593 -0.4612  0.5776
 4324W        W 8375   5.491   2.761  11.234  0.3058 -0.0727  0.0266
 4325W        W 8376   5.869   0.989   1.487  0.1296  0.0029 -0.1206
 4326W        W 8377   1.248   3.462   3.021  0.0231 -0.0149  0.2083
 4327W        W 8378   9.405   6.558   2.454  0.1622  0.1917 -0.2320
 4328W        W 8379   4.241   0.515  11.865 -0.1559 -0.1083  0.1080
 4329W        W 8380   7.784   7.726  10.479  0.0736 -0.0688 -0.0138
 4330W        W 8381   6.916   6.017  13.401 -0.4156  0.0242  0.2733
 4331W        W 8382   5.325   6.418   1.590  0.0815  0.0115 -0.1521
 4332W        W 8383   2.522   7.067  11.794 -0.2933  0.0741 -0.1357
 4333W        W 8384   9.869   9.477   3.473 -0.3228 -0.0944 -0.0708
 4334W        W 8385   9.426   5.996   9.516  0.0976  0.0996  0.1193
 4335W        W 8386   0.212   8.968  13.726 -0.2425 -0.3520  0.0215
 4336W        W 8387   1.103   1.214  12.044 -0.4383 -0.1931 -0.0627
 4337W        W 8388   0.536   6.733  12.995  0.2318 -0.1577  0.1294
 4338W        W 8389   1.402   9.152   8.418  0.0446 -0.2855 -0.0530
 4339W        W 8390   5.162   7.801  11.881  0.1786 -0.0223 -0.2254
 4340W        W 8391   0.436   8.610   9.322 -0.1043  0.0410  0.1114
 4341W        W 8392   5.270   3.434   1.294  0.1924 -0.2787 -0.1424
 4342W        W 8393   3.572   5.580   4.365  0.1053  0.2567 -0.2165
 4343W        W 8394   9.651  10.081  11.696  0.0700 -0.0588  0.3232
 4344W        W 8395   6.256   1.239   2.368  0.0440 -0.1832 -0.1246
 4345W        W 8396   8.555   4.912   1.036  0.1167 -0.4502 -0.2326
 4346W        W 8397   6.458   9.595   2.742  0.1664  0.0652  0.0526
 4347W        W 8398   7.533   4.543   3.681 -0.3004  0.2604  0.0314
 4348W        W 8399   4.273   1.088  10.480 -0.1854  0.4327 -0.2510
 4349W        W 8400   6.026   3.548   1.879 -0.0352 -0.2147  0.2033
 4350W        W 8401   4.363   1.887  13.817 -0.2063  0.3652 -0.0666
 4351W        W 8402   5.002   9.616  10.257  0.1270 -0.2514 -0.0609
 4352W        W 8403   4.438   7.936  13.229  0.1060  0.1915 -0.0144
 4353W        W 8404  10.023   0.688   4.031  0.4050  0.3028 -0.1724
 4354W        W 8405   3.629   7.729  10.969 -0.5349  0.1384 -0.2551
 4355W        W 8406   9.518   1.534  12.401 -0.1224 -0.2471 -0.1542
 4356W        W 8407   5.887   4.231   1.746  0.1052 -0.2893 -0.0156
 4357W        W 8408   9.779   3.349  13.551 -0.1614  0.1501  0.0815
 4358W        W 8409   6.944   8.912   3.966 -0.0182 -0.0462  0.4730
 4359W        W 8410   7.048   7.967  11.929 -0.0636  0.1976 -0.1900
 4360W        W 8411   9.559   7.721  10.446 -0.0661 -0.0717 -0.1875
 4361W        W 8412   1.739   7.641   4.163  0.0283  0.0598 -0.2311
 4362W        W 8413   1.676   4.907  12.151  0.0441  0.3939  0.1744
 4363W        W 8414   4.221   0.768   0.744 -0.1324 -0.0861 -0.1159
 4364W        W 8415   8.008   7.588   0.557 -0.0719 -0.3214 -0.0738
 4365W        W 8416   8.360   7.021  10.650  0.4034  0.1302  0.1122
 4366W        W 8417   7.070   1.538  12.436  0.0547 -0.3255  0.0361
 4367W        W 8418   7.159   4.027  12.244  0.0535  0.0438 -0.0494
 4368W        W 8419   6.151   8.638  11.333  0.2405  0.0878  0.2671
 4369W        W 8420   4.625   0.318   1.300 -0.1138  0.1200 -0.1716
 4370W        W 8421   1.721   7.127  12.980  0.0485  0.2771  0.2265
 4371W        W 8422   5.360   3.473  13.477 -0.0883 -0.2652  0.1327
 4372W        W 8423  10.001  10.019  12.059  0.0789 -0.0752  0.2086
 4373W        W 8424   2.935   3.944  10.463  0.2620  0.0119  0.0148
 4374W        W 8425   2.247   1.518  11.802 -0.0185  0.0825 -0.1147
 4375W        W 8426   9.542   4.390  12.591 -0.1859 -0.2470 -0.1939
 4376W        W 8427   7.820   4.205  11.125 -0.6165  0.1008  0.2595
 4377W        W 8428   2.817   2.278   3.574 -0.3262 -0.1722  0.0424
 4378W        W 8429   9.985   6.177   2.612 -0.3694  0.1641 -0.1839
 4379W        W 8430   5.073   3.090  11.019 -0.0575  0.1338  0.1599
 4380W        W 8431   4.706   9.330  12.559 -0.0377 -0.2985  0.1074
 4381W        W 8432   6.259   0.946   0.602 -0.0846  0.0410  0.2562
 4382W        W 8433   5.501   0.117  12.371  0.2741 -0.2755 -0.2658
 4383W        W 8434   7.249   6.714   1.532 -0.1516  0.1196 -0.0850
 4384W        W 8435   5.586   9.864   3.969  0.0101  0.0682  0.1005
 4385W        W 8436   1.759   5.049   3.798  0.1684 -0.0694 -0.1093
 4386W        W 8437   7.574   2.877  13.630  0.0317  0.0093 -0.3966
 4387W        W 8438   9.308   8.725  12.301 -0.2916  0.3294 -0.2136
 4388W        W 8439   5.380   9.128   9.574  0.1440  0.0505  0.1063
 4389W        W 8440   3.065   1.194   2.098 -0.3151  0.0712  0.0241
 4390W        W 8441   9.226   5.569   4.650 -0.0822  0.0258  0.0408
 4391W        W 8442   7.384   6.824   3.275 -0.0253 -0.0487  0.1001
 4392W        W 8443   3.297   4.877  11.316 -0.0756  0.3419 -0.2037
 4393W        W 8444   0.547   0.115  13.873  0.0087  0.1792  0.0681
 4394W        W 8445  10.079   9.205   4.433  0.1236 -0.1209  0.1524
 4395W        W 8446   9.437   8.317  10.415 -0.1145  0.1056 -0.0541
 4396W        W 8447   4.563   2.332  10.580 -0.1087  0.0735  0.1753
 4397W        W 8448   0.563   6.034  12.781  0.5068 -0.0435  0.0884
 4398W        W 8449   9.053   0.108  12.457 -0.1260 -0.2211  0.1059
 4399W        W 8450   7.917   9.527   0.113 -0.2299  0.1746  0.1183
 4400W        W 8451   7.006   5.960   0.933 -0.1210  0.0617 -0.0810
 4401W        W 8452   6.795   1.138  13.624  0.0586 -0.2296 -0.0977
 4402W        W 8453   6.939   1.361   3.737 -0.1551 -0.2907  0.1769
 4403W        W 8454   1.874   1.819  11.968  0.0131  0.2194  0.1630
 4404W        W 8455   0.681   7.926   9.392 -0.3814  0.0364  0.3210
 4405W        W 8456   0.209   1.719  10.645  0.1407 -0.2610 -0.0503
 4406W        W 8457   2.609   2.765   9.898 -0.1169  0.0376  0.3470
 4407W        W 8458   3.465   8.241   2.261 -0.1583  0.1441 -0.1995
 4408W        W 8459   1.198   5.415   9.572  0.0649  0.1624 -0.0186
 4409W        W 8460   1.758   8.942   5.443  0.3390  0.2644  0.3104
 4410W        W 8461   4.184   1.701  13.126  0.0504  0.2884 -0.0538
 4411W        W 8462   1.139   4.211   0.421 -0.2504  0.1203  0.2229
 4412W        W 8463   3.954   3.170   9.039  0.1437 -0.1427 -0.0655
 4413W        W 8464   7.783   3.538  10.601  0.1882  0.0737  0.1245
 4414W        W 8465   3.071   2.796  11.616  0.0052 -0.4193  0.1666
 4415W        W 8466   7.186  10.138   1.602  0.0636  0.1432  0.2452
 4416W        W 8467   2.535   4.790  12.578 -0.1101 -0.0525  0.0367
 4417W        W 8468   1.650   6.295  13.333 -0.0731 -0.0447  0.1740
 4418W        W 8469   0.418   8.541   2.663  0.0337  0.0088  0.0729
 4419W        W 8470   9.072   2.453  11.161  0.0957 -0.0789 -0.1257
 4420W        W 8471   4.420   4.547   4.447  0.1158  0.3328 -0.0756
 4421W        W 8472   7.356   4.383   9.877 -0.0463  0.2420 -0.3367
 4422W        W 8473   1.069   4.041  10.606 -0.3770 -0.2213 -0.0438
 4423W        W 8474   3.951   3.702  10.581  0.5539  0.3690  0.1390
 4424W        W 8475   9.256   8.023  10.835  0.2504  0.1611  0.0469
 4425W        W 8476   1.798   5.900  11.283 -0.1424  0.1953 -0.1694
 4426W        W 8477   9.617   9.631   0.257 -0.1668  0.1582  0.2224
 4427W        W 8478   1.539   2.376  13.374  0.1354  0.0607  0.0095
 4428W        W 8479   2.914   9.895   8.744 -0.0057  0.2014  0.2153
 4429W        W 8480   4.848   5.122   2.942 -0.1637  0.0508 -0.1735
 4430W        W 8481   1.921   3.771   0.435  0.1865 -0.1048 -0.3349
 4431W        W 8482   3.827   9.198   2.158 -0.1453 -0.0649 -0.0931
 4432W        W 8483   2.597   4.056   1.452  0.2801 -0.2166  0.0511
 4433W        W 8484   9.955   7.608   2.581  0.1899 -0.0298  0.3044
 4434W        W 8485   4.729   8.653  12.943 -0.1742 -0.2000  0.2777
 4435W        W 8486   3.766   3.825   2.669  0.2170 -0.3672  0.0689
 4436W        W 8487   7.534   7.406   1.296  0.1753 -0.0321  0.1045
 4437W        W 8488   6.168   9.113  10.055  0.1812 -0.0678 -0.2483
 4438W        W 8489   7.752   0.939   0.692  0.0307 -0.1570 -0.2351
 4439W        W 8490   3.765   8.898   0.393 -0.3170  0.0708 -0.2326
 4440W        W 8491   6.146   8.232   9.991  0.0382 -0.0341  0.0137
 4441W        W 8492   7.005   5.017   3.179  0.2313  0.1395 -0.0882
 4442W        W 8493   6.939   8.402  12.207  0.0745 -0.1291 -0.1764
 4443W        W 8494   2.523   7.629   2.199  0.2002 -0.3088  0.0446
 4444W        W 8495   8.956   4.629   1.612  0.1486  0.0779  0.2470
 4445W        W 8496   3.115   5.097   2.924 -0.0802  0.3818  0.0582
 4446W        W 8497   4.008   1.344   4.385  0.0985 -0.1542  0.2364
 4447W        W 8498   0.643   7.354   9.301  0.1563  0.0951  0.1902
 4448W        W 8499   1.273   6.543  13.658 -0.0344  0.0052  0.1069
 4449W        W 8500   3.407   8.167   0.980 -0.1077 -0.1911 -0.0003
 4450W        W 8501   6.606   8.735  11.414  0.0988 -0.0375 -0.1157
 4451W        W 8502   5.350   8.888   2.106 -0.1101 -0.1724  0.0297
 4452W        W 8503   8.912   4.631  10.827 -0.3939  0.0670 -0.5031
 4453W        W 8504   4.646   7.214  11.935 -0.4777 -0.1022  0.0829
 4454W        W 8505   4.507   6.136   9.045 -0.2262 -0.2894 -0.1193
 4455W        W 8506   3.408  10.148  11.542 -0.1846  0.0939  0.0101
 4456W        W 8507   3.439   0.827   0.123  0.0304  0.2225  0.1855
 4457W        W 8508   3.989   8.593   1.546 -0.0660  0.1594 -0.1918
 4458W        W 8509   8.866   4.480   3.291 -0.1026 -0.0814  0.2581
 4459W        W 8510   7.116   9.589  10.921 -0.0577  0.4421  0.3157
 4460W        W 8511   8.957   4.555   0.861  0.2200 -0.3389  0.2099
 4461W        W 8512   3.882   6.505   3.273  0.1034  0.1336  0.0019
 4462W        W 8513   1.298   4.680  11.866 -0.2433  0.0691  0.3643
 4463W        W 8514   3.790   9.410  13.674  0.0002  0.0289  0.0445
 4464W        W 8515   8.880   9.837   4.248  0.2351 -0.2815  0.1903
 4465W        W 8516   3.374   9.115   5.212  0.0162  0.0057  0.0108
 4466W        W 8517   6.088   5.649  13.266 -0.3105 -0.0372 -0.2510
 4467W        W 8518   1.532   6.113   3.972 -0.2433 -0.1486 -0.0786
 4468W        W 8519   7.780   8.571  12.865  0.0833 -0.2203 -0.0401
 4469W        W 8520   6.498   6.501   9.914  0.1412 -0.1426  0.1827
 4470W        W 8521   1.164   5.849  12.749 -0.0893  0.0185  0.0807
 4471W        W 8522   2.291   9.702  13.979 -0.1217  0.0755  0.1910
 4472W        W 8523   8.242   1.046   2.106 -0.2237 -0.0919  0.2885
 4473W        W 8524   3.731   1.468   3.409  0.2637 -0.2709 -0.3827
 4474W        W 8525   6.889   1.223   2.998  0.1204  0.0022  0.2791
 4475W        W 8526   2.659   9.655  11.719 -0.2404  0.1039 -0.1471
 4476W        W 8527   5.847   0.694   1.965  0.1393 -0.2131  0.1139
 4477W        W 8528   1.938   9.155   9.616  0.1423  0.2811 -0.2415
 4478W        W 8529   7.280   5.478  13.544 -0.2478  0.1292 -0.0321
 4479W        W 8530   8.379   8.305   1.527  0.0039 -0.0576 -0.1468
 4480W        W 8531   2.918   9.906  11.346  0.0146  0.1968 -0.2428
 4481W        W 8532   2.098   4.144   1.709  0.2643  0.1324  0.2998
 4482W        W 8533  10.131   9.991   1.512 -0.0935  0.0366 -0.3130
 4483W        W 8534   3.270   6.971  10.937 -0.1105 -0.1072  0.1444
 4484W        W 8535   6.197   8.995   4.430  0.0262  0.2696 -0.1896
 4485W        W 8536   7.237   3.509   0.966  0.1718  0.0376  0.2384
 4486W        W 8537   7.289   6.463   9.906 -0.1752 -0.0597 -0.0254
 4487W        W 8538   5.838   7.910   2.601 -0.1329  0.0631  0.2353
 4488W        W 8539   1.089   0.466   8.741  0.0123 -0.0554  0.3843
 4489W        W 8540   6.625   8.981   5.320 -0.0744  0.3985 -0.0327
 4490W        W 8541   7.413   8.996   9.908  0.0957  0.1466  0.1438
 4491W        W 8542   1.206   0.905   3.403  0.2486  0.0661  0.1921
 4492W        W 8543   0.274   9.362   0.183  0.0113  0.0040 -0.3598
 4493W        W 8544   9.074   0.235   1.780 -0.1947 -0.0016  0.0488
 4494W        W 8545   2.166   5.179  11.776 -0.0457  0.3891 -0.0558
 4495W        W 8546   9.572   8.854  11.033 -0.1124  0.1078  0.0867
 4496W        W 8547   5.955   8.648  12.284  0.0139  0.1510 -0.0677
 4497W        W 8548   9.651   3.913  12.519 -0.1181  0.1738  0.0180
 4498W        W 8549   9.817   1.343  11.506  0.0619 -0.3050 -0.2045
 4499W        W 8550   1.687   7.503   1.250 -0.2969 -0.0767 -0.1110
 4500W        W 8551   4.773   5.197   9.377  0.2981  0.1578 -0.0695
 4501W        W 8552   3.525   3.763  12.493  0.0185 -0.2601 -0.0002
 4502W        W 8553   7.538   2.989   1.545  0.0626 -0.3991 -0.0817
 4503W        W 8554   5.327   5.332   4.222 -0.0189 -0.1611  0.1357
 4504W        W 8555   3.513   6.666  12.459 -0.2056 -0.0953 -0.0725
 4505W        W 8556   0.829   9.443  10.326 -0.1142  0.2847 -0.0721
 4506W        W 8557   9.900   6.283   2.077 -0.2041 -0.2440  0.0747
 4507W        W 8558   2.105   7.251   0.423 -0.0048  0.0847  0.3628
 4508W        W 8559   9.293   2.643   2.221 -0.1826 -0.0391 -0.2633
 4509W        W 8560   0.558   6.922  11.824  0.3227  0.0659  0.0746
 4510W        W 8561   3.837  10.117   4.409  0.2954  0.1851  0.2317
 4511W        W 8562   4.256   6.409  12.035 -0.0435 -0.3369  0.1419
 4512W        W 8563   3.963   2.712   3.330  0.2089 -0.4008 -0.2200
 4513W        W 8564   5.395   1.527   0.889 -0.0255 -0.0419 -0.0324
 4514W        W 8565   8.803   0.263   9.703 -0.0227 -0.1095 -0.0308
 4515W        W 8566   8.735   3.245  10.744 -0.2129 -0.1314  0.2302
 4516W        W 8567   7.579   8.236   0.952 -0.1523  0.0744 -0.1342
 4517W        W 8568   4.017   6.802   0.587  0.1013 -0.1129 -0.1234
 4518W        W 8569   0.712   9.942  11.168  0.0822 -0.0069  0.0767
 4519W        W 8570   2.861   1.429   0.331 -0.3161  0.0997 -0.0758
 4520W        W 8571   3.262   7.585  12.880 -0.3013  0.0570 -0.0391
 4521W        W 8572   4.518   1.295  13.151 -0.0362  0.0358 -0.1794
 4522W        W 8573   7.588   6.751   1.186  0.2431 -0.3291  0.3401
 4523W        W 8574   5.812   4.874  11.182  0.2416  0.1982  0.2013
 4524W        W 8575   4.857   9.014   4.541 -0.1710  0.1285  0.1408
 4525W        W 8576   6.401   9.258   3.106 -0.0371 -0.0242 -0.0987
 4526W        W 8577   2.523   2.693   3.009 -0.1958 -0.1014 -0.0170
 4527W        W 8578   9.558   7.872  13.306  0.0275 -0.2655 -0.0059
 4528W        W 8579   6.673   8.294   4.447 -0.1683 -0.1197 -0.1106
 4529W        W 8580   5.014   9.128   3.939  0.1785 -0.1192 -0.1724
 4530W        W 8581   8.223   6.179   5.187 -0.0038  0.1581  0.2002
 4531W        W 8582   3.930   1.353   1.863  0.0003  0.0683 -0.6297
 4532W        W 8583   9.653   4.356   4.507 -0.1436  0.0540  0.0094
 4533W        W 8584   5.571   4.651   4.756  0.0567 -0.3036  0.0930
 4534W        W 8585   7.013   6.087   3.372 -0.1169  0.2179 -0.0889
 4535W        W 8586   5.316   1.107  10.698  0.0279 -0.0840  0.0258
 4536W        W 8587   5.909   3.722   3.535  0.0569 -0.0362 -0.1909
 4537W        W 8588   8.975   8.739  13.438  0.0254  0.1637 -0.1307
 4538W        W 8589   5.891   9.478  12.157  0.1391 -0.2431  0.2382
 4539W        W 8590   0.415   3.526  12.047 -0.1572  0.0394 -0.0647
 4540W        W 8591   7.261   2.571  12.828  0.0031 -0.1817 -0.1264
 4541W        W 8592   1.969   2.056  10.153  0.0231  0.0343 -0.1861
 4542W        W 8593   4.085   7.521   5.074  0.1778 -0.0143 -0.0731
 4543W        W 8594   8.669   9.325   4.935 -0.1192 -0.0742  0.2863
 4544W        W 8595   3.197   1.307  13.931  0.1046 -0.1833  0.2336
 4545W        W 8596   8.653   2.286  13.903 -0.0121 -0.0238 -0.4201
 4546W        W 8597   8.982   3.908  13.341 -0.1987  0.2193 -0.0474
 4547W        W 8598   6.066   7.754   9.873 -0.0065  0.3373  0.3487
 4548W        W 8599   5.387   0.906   1.708  0.3193 -0.1676 -0.0289
 4549W        W 8600   4.432   0.418  13.033  0.3362  0.0720 -0.1212
 4550W        W 8601   1.046   2.083   0.240 -0.0517 -0.3471  0.1322
 4551W        W 8602   3.787   6.109   4.323 -0.0564 -0.0035  0.1664
 4552W        W 8603   1.437   9.260   3.194 -0.1223  0.0798  0.0264
 4553W        W 8604   8.237   8.759   0.426 -0.0838  0.2420 -0.2898
 4554W        W 8605   5.152   6.711   4.632 -0.2668 -0.2713  0.3467
 4555W        W 8606   3.400   1.213  12.476  0.0273 -0.0397 -0.1886
 4556W        W 8607   9.110   7.534   4.674  0.0689  0.4490  0.0497
 4557W        W 8608   4.921   8.758  13.467 -0.3473 -0.0944  0.1834
 4558W        W 8609   8.703   7.113   4.021 -0.0389 -0.1507  0.2368
 4559W        W 8610   5.170   6.029  10.466  0.1855  0.1271  0.1937
 4560W        W 8611   1.190   5.727   9.160  0.4452 -0.0264  0.4114
 4561W        W 8612   7.908   7.868  13.581  0.2412 -0.0326 -0.0571
 4562W        W 8613   3.825   0.379   0.734  0.2107  0.1306  0.0515
 4563W        W 8614   1.745   7.770   1.662 -0.0853 -0.1851 -0.0858
 4564W        W 8615   0.527   1.511   3.675  0.2063  0.1442  0.2895
 4565W        W 8616   5.148   6.367   2.496  0.0746  0.2898 -0.2228
 4566W        W 8617   0.296   7.667   9.201  0.3652 -0.4631 -0.2750
 4567W        W 8618   9.977   0.688  13.977  0.1268  0.1938  0.1772
 4568W        W 8619   5.411   9.955  12.717  0.1698  0.1362 -0.0737
 4569W        W 8620   4.894   3.380  12.273 -0.1350 -0.0398  0.2085
 4570W        W 8621   4.023   3.672  13.194 -0.0176  0.2259 -0.2020
 4571W        W 8622   5.401   6.815   6.042  0.0537  0.1942 -0.0895
 4572W        W 8623   2.261   5.861   0.898 -0.2290 -0.2232 -0.1411
 4573W        W 8624   1.630   5.243   0.709 -0.0160  0.0667  0.2957
 4574W        W 8625   6.232   8.540   4.651 -0.2556 -0.0987  0.1184
 4575W        W 8626   0.128   8.129  12.949  0.1795  0.1212 -0.1119
 4576W        W 8627   4.571   1.258   9.618  0.1620 -0.3049  0.5411
 4577W        W 8628   4.850   3.159   3.992 -0.1768 -0.3884 -0.1498
 4578W        W 8629   3.014   3.463   9.191  0.1624  0.2594 -0.1256
 4579W        W 8630   7.332   2.525   1.638 -0.0149  0.0633  0.1911
 4580W        W 8631   0.716   8.561   5.181 -0.1587  0.2764 -0.1178
 4581W        W 8632   4.573   5.155   2.349 -0.0222  0.3396 -0.0554
 4582W        W 8633   8.785   6.652  11.501  0.3987  0.0389  0.1989
 4583W        W 8634   2.312   6.409  11.385  0.0247  0.0246  0.2362
 4584W        W 8635   2.323   6.516  12.868  0.1378 -0.1500  0.1206
 4585W        W 8636   8.732   2.479   1.726 -0.0512  0.1888  0.0088
 4586W        W 8637  10.029   1.996  13.896 -0.0361  0.1541  0.2473
 4587W        W 8638   3.983   9.644   1.644 -0.1370 -0.1155 -0.1969
 4588W        W 8639   0.721   7.323  10.606  0.0609  0.1421  0.1012
 4589W        W 8640   1.913   9.901   8.882 -0.1808 -0.4148 -0.1846
 4590W        W 8641   6.615   5.655   1.018 -0.1271 -0.3927  0.4067
 4591W        W 8642   7.190   7.748   0.326 -0.0478 -0.1673  0.1794
 4592W        W 8643   8.063   7.757  11.396 -0.1505  0.0593  0.2442
 4593W        W 8644   9.320   7.817  11.322 -0.0463 -0.0229 -0.2488
 4594W        W 8645   7.742   7.330  11.358 -0.0003 -0.0104  0.0448
 4595W        W 8646   4.897   9.757  12.842 -0.0552  0.0793 -0.0246
 4596W        W 8647   5.754   0.266  10.862 -0.1696 -0.0305  0.1285
 4597W        W 8648   0.372   6.213  13.266  0.2039 -0.0080 -0.4400
 4598W        W 8649   9.926   8.098   2.572 -0.2274 -0.0250 -0.3036
 4599W        W 8650   1.486   4.380   2.457  0.1000 -0.0280 -0.3153
 4600W        W 8651   1.107   9.341  12.023 -0.0994 -0.1380  0.0665
 4601W        W 8652   7.997   2.484   3.619 -0.0896  0.0155  0.0707
 4602W        W 8653   9.206   6.887  12.662  0.3846  0.3935 -0.4354
 4603W        W 8654   3.282   5.602   8.872  0.0745 -0.0496  0.1301
 4604W        W 8655   9.280   8.712   0.987  0.0014 -0.2169  0.1884
 4605W        W 8656   0.670   5.671   2.464  0.1357  0.0220 -0.1562
 4606W        W 8657  10.056   8.176   1.954 -0.2819  0.2539  0.2279
 4607W        W 8658   2.064   7.418  10.359 -0.0562  0.0729  0.2226
 4608W        W 8659   6.448   6.872   3.264  0.0587 -0.1472  0.0071
 4609W        W 8660   7.406   0.391   2.460 -0.0139 -0.0138  0.1530
 4610W        W 8661   5.658   3.945   2.117 -0.1917 -0.1765  0.1611
 4611W        W 8662   6.166   9.119   2.710  0.0389 -0.1289 -0.3451
 4612W        W 8663   5.821   7.854   5.391  0.2030 -0.2410 -0.2745
 4613W        W 8664   5.051   1.771   8.993 -0.0025  0.1537 -0.0777
 4614W        W 8665   2.600   5.977   0.003 -0.1010  0.0712  0.0147
 4615W        W 8666   4.781   1.559   0.879 -0.3651 -0.0380  0.2189
 4616W        W 8667   6.792   5.205   3.998  0.0205 -0.1980  0.0271
 4617W        W 8668   5.314   4.022  10.755 -0.1121  0.2519  0.1397
 4618W        W 8669   7.926   3.238  13.767 -0.0166  0.2398  0.1351
 4619W        W 8670   5.184   8.076   4.593 -0.1058  0.0733 -0.5119
 4620W        W 8671   2.120   3.258   3.936 -0.0508 -0.1718  0.0488
 4621W        W 8672   4.560   5.157  11.772 -0.1055 -0.1725 -0.2204
 4622W        W 8673   1.002   2.382   2.127  0.2481  0.0768  0.1429
 4623W        W 8674   2.804   3.683  11.947  0.0219  0.0544 -0.0456
 4624W        W 8675   8.866   8.427   0.405 -0.2233  0.1935  0.0299
 4625W        W 8676   6.580   5.435  11.619  0.1979 -0.1619 -0.0188
 4626W        W 8677   9.493   5.983  13.214 -0.1015  0.1109  0.2226
 4627W        W 8678   7.770   8.624   3.155  0.1434  0.1109 -0.4168
 4628W        W 8679   3.209   4.726  12.356  0.1124  0.2022  0.2758
 4629W        W 8680   0.365   6.250   0.111  0.0943 -0.1310  0.2654
 4630W        W 8681   3.809   6.273  10.491  0.1444  0.1233 -0.0336
 4631W        W 8682   6.410   9.427   0.308 -0.1294 -0.2471 -0.2350
 4632W        W 8683  10.042   8.120   0.131  0.0792 -0.1640 -0.0143
 4633W        W 8684   5.011   5.603   1.411 -0.1109  0.0777  0.3396
 4634W        W 8685   6.407   8.227   3.193 -0.3273 -0.0552 -0.1264
 4635W        W 8686   6.541   5.440   1.598 -0.0621 -0.3682  0.0084
 4636W        W 8687   4.737   0.571   5.033  0.2572 -0.0703  0.2468
 4637W        W 8688   0.262   0.932  13.706 -0.2900  0.2151 -0.1495
 4638W        W 8689   7.026   7.626   1.515  0.1551 -0.2948 -0.1140
 4639W        W 8690  10.121   8.248   1.378  0.1064  0.0648 -0.1751
 4640W        W 8691   1.177   3.710   0.616  0.0031 -0.4401 -0.1667
 4641W        W 8692   4.864   4.852  11.453  0.1657  0.1273 -0.0654
 4642W        W 8693   1.078   1.260  13.240  0.2669 -0.1708 -0.0532
 4643W        W 8694   8.896   9.405  12.517  0.2958  0.4418  0.0787
 4644W        W 8695   4.413   0.401   1.971  0.0857 -0.1781  0.3434
 4645W        W 8696   8.763   7.590   4.102 -0.1399 -0.1656 -0.0311
 4646W        W 8697   2.835   1.659  13.729  0.1603  0.2440 -0.2992
 4647W        W 8698   7.545   3.618   2.512  0.1085 -0.0891 -0.0606
 4648W        W 8699   1.826   4.265   0.362  0.0395  0.0446 -0.1794
 4649W        W 8700   3.873   2.100   3.385  0.3375 -0.1442  0.1837
 4650W        W 8701   5.570   1.289   9.528 -0.0192 -0.2037 -0.0905
 4651W        W 8702   9.268   4.260  13.200 -0.1910  0.1661 -0.0852
 4652W        W 8703   1.490   3.645   1.484 -0.1123  0.2130 -0.0986
 4653W        W 8704   9.267   9.657  12.655 -0.1510 -0.0493  0.0459
 4654W        W 8705   2.784   9.099   4.585  0.3152  0.1532 -0.0482
 4655W        W 8706   5.416   1.517  13.982  0.1627  0.3198  0.2160
 4656W        W 8707   8.667   4.509  10.213 -0.2540  0.0120 -0.2398
 4657W        W 8708   1.495   6.591   3.820  0.2741  0.0889  0.0167
 4658W        W 8709   3.858   6.920   4.970  0.0783 -0.2900 -0.3104
 4659W        W 8710   0.446   7.549   2.491  0.0179  0.3254 -0.2819
 4660W        W 8711   5.942   4.729  10.177  0.1457 -0.0021  0.2370
 4661W        W 8712   5.149   0.591   0.121  0.1800  0.1947  0.0224
 4662W        W 8713   9.732   6.907   1.531  0.1505  0.0734  0.1055
 4663W        W 8714   4.727   6.550   4.902  0.1356  0.1545 -0.1703
 4664W        W 8715   3.499   7.880   3.176  0.0430 -0.4413  0.1695
 4665W        W 8716   3.239   1.531  12.905 -0.1538 -0.1869  0.0152
 4666W        W 8717   5.269   9.217   3.073  0.0268 -0.2410  0.1459
 4667W        W 8718   0.377   4.923  13.362 -0.0009  0.0401  0.1508
 4668W        W 8719   2.656   5.116   3.864  0.2930 -0.0208  0.1904
 4669W        W 8720   1.520   8.275   1.665  0.2346  0.1720 -0.1440
 4670W        W 8721   0.019   5.825   0.914  0.1944  0.1087  0.2349
 4671W        W 8722   5.334   3.878  13.243  0.0671 -0.0691 -0.1989
 4672W        W 8723   2.535   7.419   0.682 -0.2567  0.0547 -0.1369
 4673W        W 8724   8.638   7.794  12.390  0.2794 -0.0229 -0.1333
 4674W        W 8725   7.900   7.126   9.870 -0.0038  0.0809  0.3169
 4675W        W 8726   0.365  10.045   3.014 -0.1711  0.2057  0.0536
 4676W        W 8727   5.772   5.158  13.264  0.0265 -0.2378  0.3350
 4677W        W 8728   1.169   1.795  13.052  0.2469 -0.0232 -0.2412
 4678W        W 8729   0.214   1.827  13.586 -0.0111 -0.0228 -0.2039
 4679W        W 8730   1.669   0.658  10.452 -0.0831 -0.3462 -0.3935
 4680W        W 8731   7.231   6.298  10.405  0.3286 -0.0749  0.1549
 4681W        W 8732   3.273   9.193  11.075 -0.1809 -0.0457 -0.0013
 4682W        W 8733   5.319   8.788   5.245 -0.2514  0.1344  0.1047
 4683W        W 8734   4.898   0.843   3.929 -0.1251  0.0221  0.2264
 4684W        W 8735   3.523   4.964   0.111  0.1061 -0.2682 -0.2736
 4685W        W 8736   4.747   0.238   9.565  0.0683  0.0016  0.1099
 4686W        W 8737   2.121   2.949   2.814  0.1987 -0.1493  0.1603
 4687W        W 8738   5.477   8.607   1.673 -0.2451  0.0427 -0.2270
 4688W        W 8739   3.789   0.846   0.491  0.0210 -0.1514  0.0797
 4689W        W 8740   4.187   0.177   1.582  0.1710  0.1530 -0.1907
 4690W        W 8741   4.584   6.893  10.322  0.2602 -0.1957  0.0702
 4691W        W 8742   3.551   9.304  12.959  0.0631  0.1118  0.1056
 4692W        W 8743   9.309   7.016   0.703 -0.3562 -0.0200 -0.0773
 4693W        W 8744   3.983   8.224   3.789  0.0151 -0.1023 -0.0015
 4694W        W 8745   8.411   7.013   8.487  0.1725  0.1665  0.1347
 4695W        W 8746   2.104   5.085  12.576 -0.1490 -0.0134 -0.0533
 4696W        W 8747   9.378   3.428   2.938  0.2366 -0.2137 -0.0072
 4697W        W 8748   8.906   6.707   4.797 -0.0928  0.0620 -0.2785
 4698W        W 8749   2.654   3.137   2.749  0.1583  0.1242 -0.1932
 4699W        W 8750   3.122   4.750   3.939 -0.0922  0.0158 -0.4688
 4700W        W 8751   1.457   1.299   3.738 -0.2823  0.3814 -0.0794
 4701W        W 8752   8.249   7.157   2.440  0.1344  0.0376 -0.1768
 4702W        W 8753  10.164   8.985   9.299 -0.2739 -0.1886 -0.0239
 4703W        W 8754  10.081   8.541   5.105 -0.1063  0.0882 -0.2697
 4704W        W 8755   2.575   8.342   0.465  0.2537 -0.3456  0.2228
 4705W        W 8756   8.445   9.240   0.656 -0.1221 -0.2473 -0.0549
 4706W        W 8757   0.738   0.229   3.205  0.1558 -0.1909  0.1323
 4707W        W 8758   0.557   1.729  11.058  0.0006  0.1983 -0.2302
 4708W        W 8759   4.737   5.849  10.653 -0.1712  0.2432 -0.0350
 4709W        W 8760   5.314   7.441   3.424 -0.0960 -0.0432 -0.2026
 4710W        W 8761   0.135   8.892  12.327 -0.1126 -0.1826  0.3657
 4711W        W 8762   4.064   1.122   1.034  0.2788 -0.0252  0.4785
 4712W        W 8763   9.017   3.863  11.673 -0.0139 -0.1084 -0.0400
 4713W        W 8764  10.100   5.164   4.549  0.2833  0.1648 -0.1888
 4714W        W 8765   2.190   1.064   9.521  0.0932  0.1283  0.1588
 4715W        W 8766   3.072   4.759   3.394  0.0822  0.0764 -0.0164
 4716W        W 8767   2.684   0.236  11.408 -0.0884 -0.0667  0.0007
 4717W        W 8768   4.700   4.416   3.623  0.1078  0.1488 -0.3274
 4718W        W 8769   2.002   7.214   4.434  0.1032  0.0025  0.0545
 4719W        W 8770   8.177   9.754  10.676 -0.2136 -0.0983 -0.0266
 4720W        W 8771   6.269   8.046   2.761 -0.0137 -0.1486 -0.2114
 4721W        W 8772   5.449   4.933  13.851 -0.1787  0.1330  0.1860
 4722W        W 8773   0.851   6.397  10.985 -0.0844  0.0457 -0.3081
 4723W        W 8774   3.573   1.882  12.480 -0.0127  0.0186  0.2405
 4724W        W 8775   7.580   8.018   2.293 -0.1786  0.1581 -0.1731
 4725W        W 8776   8.254   2.704  12.714 -0.0413 -0.0882 -0.1619
 4726W        W 8777   0.023   2.436   1.007  0.0733  0.1918 -0.2667
 4727W        W 8778   3.959   7.988   1.370 -0.1338 -0.1584 -0.2167
 4728W        W 8779   2.819   4.454   2.396  0.0369  0.1782  0.0500
 4729W        W 8780   7.129   8.432   1.694 -0.2439 -0.0700 -0.1988
 4730W        W 8781   8.728   5.463   1.377  0.0679 -0.1622 -0.1420
 4731W        W 8782   8.777   7.103   4.494  0.0825 -0.2270 -0.1694
 4732W        W 8783   7.783   4.446   1.376 -0.1181 -0.0095  0.3177
 4733W        W 8784   5.576   1.446  12.198  0.1342 -0.4588 -0.3554
 4734W        W 8785   6.554   9.261   1.240 -0.5344 -0.2504 -0.0841
 4735W        W 8786   1.538   4.007   0.694 -0.2276 -0.1385  0.5818
 4736W        W 8787   0.585   5.444   3.434  0.4277 -0.1198  0.2843
 4737W        W 8788   1.548   7.217  12.085  0.1510 -0.3426 -0.1285
 4738W        W 8789   4.694   0.764   2.891  0.0699  0.0614 -0.0020
 4739W        W 8790   2.846   2.942   9.451 -0.0478 -0.1404  0.2444
 4740W        W 8791   2.874   3.662   1.217  0.0072 -0.0147  0.3948
 4741W        W 8792   0.780   3.098   9.948  0.1341  0.1674  0.2477
 4742W        W 8793   2.116   9.888   3.448  0.0484  0.1656  0.1938
 4743W        W 8794   3.098   6.241   2.065  0.0528 -0.0328  0.1515
 4744W        W 8795   9.117   3.428  11.038  0.1035 -0.0901  0.1164
 4745W        W 8796   4.503   4.964   0.385  0.3556 -0.1203  0.0454
 4746W        W 8797   1.169   3.458   3.991 -0.0403 -0.0798  0.1888
 4747W        W 8798   6.016   6.228   3.814  0.0297  0.1087 -0.3366
 4748W        W 8799   6.268   9.390   3.604  0.0736  0.2099  0.1826
 4749W        W 8800   9.239   8.439   3.287  0.0223  0.1055 -0.0630
 4750W        W 8801   1.746   9.609   1.188  0.5116  0.1738 -0.5344
 4751W        W 8802   3.691   0.039   9.418  0.1122 -0.0559  0.1128
 4752W        W 8803   7.761   1.143  11.324  0.0350 -0.0808 -0.1767
 4753W        W 8804   4.660   9.957   3.987 -0.0627 -0.0739  0.1452
 4754W        W 8805   2.452   9.332  11.378  0.0811  0.2770 -0.0722
 4755W        W 8806   3.435   1.734   0.270  0.0764 -0.0045 -0.0237
 4756W        W 8807   2.690   8.317   2.564 -0.0528 -0.1475  0.0056
 4757W        W 8808   8.477   9.190  10.183 -0.0679 -0.3106 -0.1421
 4758W        W 8809   6.432   1.996   2.498  0.0720 -0.5477 -0.0171
 4759W        W 8810   9.420   5.629   9.165 -0.3427 -0.2987 -0.0051
 4760W        W 8811   1.237   2.360   1.111 -0.1311 -0.1239 -0.0237
 4761W        W 8812   7.231   2.311  11.301 -0.0449  0.4900  0.1944
 4762W        W 8813   8.664   0.801   2.900  0.0879  0.0131  0.2893
 4763W        W 8814   2.929   4.875   0.270  0.0386  0.0045 -0.2415
 4764W        W 8815   5.050   8.284   0.500 -0.1020  0.0475 -0.0787
 4765W        W 8816   1.019   6.873  10.984 -0.0468 -0.3103  0.0582
 4766W        W 8817   5.447   9.167  10.954 -0.2076  0.0481 -0.0023
 4767W        W 8818   2.758   9.922  13.971  0.1127 -0.0677 -0.2562
 4768W        W 8819   9.856   1.903   0.836 -0.4216 -0.0001  0.1117
 4769W        W 8820  10.158   5.503  13.729  0.0305 -0.3229  0.1275
 4770W        W 8821   9.130   9.356   3.375 -0.0957 -0.2482  0.1184
 4771W        W 8822   5.452   7.386  10.539 -0.1741 -0.0029  0.2685
 4772W        W 8823   5.055  10.142   3.556  0.2926 -0.1852 -0.4418
 4773W        W 8824   1.250   0.029   0.440  0.0930  0.1969 -0.0763
 4774W        W 8825   0.099   5.137  12.002  0.0491 -0.0586  0.2387
 4775W        W 8826   8.855   6.314  12.466  0.0908 -0.0240 -0.0609
 4776W        W 8827   6.778   4.390  10.516  0.1379  0.1987  0.2772
 4777W        W 8828   7.654   8.036  12.347 -0.0499 -0.2307 -0.0770
 4778W        W 8829  10.150   4.899   0.891 -0.0708  0.2130 -0.0111
 4779W        W 8830   6.046   1.266  13.318  0.0013  0.0798 -0.2024
 4780W        W 8831   5.843   9.824   2.138 -0.0149 -0.4095 -0.0455
 4781W        W 8832   5.435   8.449   0.191  0.4154  0.2551 -0.0274
 4782W        W 8833   8.279   0.342   3.938 -0.4087  0.3028  0.1301
 4783W        W 8834   7.881   8.524   6.134 -0.0928 -0.3137  0.1733
 4784W        W 8835   8.525   8.783  11.015 -0.2711 -0.3782  0.1356
 4785W        W 8836   0.451   9.190   3.413 -0.0428  0.3837  0.4395
 4786W        W 8837   4.380   1.521  11.434  0.1162 -0.1007  0.1527
 4787W        W 8838   1.345   4.056  12.022  0.2556 -0.0100 -0.2041
 4788W        W 8839   7.428   3.257  11.287 -0.0760  0.0928 -0.0189
 4789W        W 8840   0.369   3.934  13.101 -0.0281  0.0855  0.2517
 4790W        W 8841   0.061   9.385   9.735 -0.2626  0.1171  0.1648
 4791W        W 8842   2.983   9.406   8.735  0.0733 -0.0526  0.0289
 4792W        W 8843   1.249   7.644   1.518  0.0815  0.0943 -0.0269
 4793W        W 8844   5.240   0.114   2.550 -0.1144  0.2151 -0.1803
 4794W        W 8845   7.107   5.077  10.857 -0.1616 -0.0512 -0.1184
 4795W        W 8846   1.806   4.939   1.111  0.3525  0.0127 -0.1071
 4796W        W 8847   3.869   6.254   0.630  0.0110  0.2013  0.0560
 4797W        W 8848   4.933   5.461  11.749 -0.1390  0.0099  0.1774
 4798W        W 8849   8.395   9.726   3.231 -0.1757  0.1537 -0.2344
 4799W        W 8850   2.045   1.699   0.521 -0.1139 -0.2250  0.2142
 4800W        W 8851   6.926   3.084  12.116  0.1625  0.1251  0.1013
 4801W        W 8852   6.582   1.731  12.409  0.1391  0.2151  0.1038
 4802W        W 8853   5.274   5.207   4.746 -0.1366 -0.1549 -0.2852
 4803W        W 8854   1.521   0.765  11.971 -0.0742 -0.1043 -0.0077
 4804W        W 8855   2.726   0.420  11.922  0.0950  0.2054 -0.2007
 4805W        W 8856   7.718   4.550  13.407  0.0354 -0.1164  0.0157
 4806W        W 8857   1.057   8.860   2.676 -0.2250 -0.0134  0.1719
 4807W        W 8858   7.793   3.414   3.432  0.0013  0.0555  0.2167
 4808W        W 8859   5.774   6.869   5.242 -0.0092 -0.1140 -0.0181
 4809W        W 8860   1.642   0.816   1.041 -0.1099 -0.0409 -0.0832
 4810W        W 8861   8.465   3.451   1.452  0.1782 -0.0213  0.4051
 4811W        W 8862   7.563   3.098   1.028  0.1726  0.2456 -0.2591
 4812W        W 8863   7.678   8.000   3.180  0.0084 -0.1437  0.1568
 4813W        W 8864   2.419  10.029  11.386  0.5661  0.0029 -0.0616
 4814W        W 8865   3.710  10.099   0.089 -0.0752  0.1601  0.0457
 4815W        W 8866   6.350   6.091  12.772  0.1358  0.0816  0.1835
 4816W        W 8867   9.778   7.748  11.633 -0.0449 -0.1081  0.3727
 4817W        W 8868   5.065   2.245   3.827 -0.2313  0.2487  0.3296
 4818W        W 8869   5.485   1.118   2.208  0.1657  0.3193 -0.1031
 4819W        W 8870   7.614   7.011   4.005 -0.0298  0.1226 -0.1206
 4820W        W 8871   1.910   6.581   1.714  0.0419 -0.2561  0.2441
 4821W        W 8872   0.571   4.413  13.326 -0.1541 -0.1036 -0.0500
 4822W        W 8873   0.293   7.089  11.440  0.1233 -0.0249  0.0086
 4823W        W 8874   1.016   3.284  12.040  0.0474 -0.0291 -0.1753
 4824W        W 8875   0.951   1.007   9.690 -0.1656 -0.0881  0.0156
 4825W        W 8876   6.835   1.053   2.508  0.1966  0.0772  0.1177
 4826W        W 8877   8.384   5.047  10.912  0.0771 -0.0997 -0.1018
 4827W        W 8878   5.893   3.350   0.531 -0.0212 -0.1641 -0.1849
 4828W        W 8879   3.069   1.529   8.461  0.1424 -0.3363  0.1058
 4829W        W 8880   4.221   6.355   4.312  0.2410 -0.2798 -0.2314
 4830W        W 8881  10.109   8.330   3.028  0.2645 -0.0505  0.3352
 4831W        W 8882   5.656   2.439   2.813 -0.1690 -0.2140  0.4292
 4832W        W 8883   9.736   1.019   9.512  0.2027  0.0591 -0.1285
 4833W        W 8884   4.542   2.356   3.860  0.0476  0.1774  0.0486
 4834W        W 8885   8.239   4.956   9.625  0.3687  0.2317  0.0140
 4835W        W 8886   5.486   3.127  10.718 -0.2736 -0.1493  0.2856
 4836W        W 8887   6.963   9.587   4.308  0.3098  0.1175  0.0066
 4837W        W 8888   3.508   4.522  11.022 -0.5282  0.0771  0.0202
 4838W        W 8889   6.659   7.692   1.163 -0.4132  0.1358  0.0101
 4839W        W 8890   1.578   9.490  12.982 -0.0602 -0.1768  0.3868
 4840W        W 8891   6.153   2.754   1.184  0.1597 -0.1356  0.2096
 4841W        W 8892   6.073   2.194   2.985  0.3065 -0.1169  0.1428
 4842W        W 8893   1.689   0.636  12.645 -0.0604  0.0047  0.1521
 4843W        W 8894   1.898   0.741  13.154 -0.0509  0.2177  0.2306
 4844W        W 8895   6.155   4.404   3.358 -0.2035  0.3738 -0.0413
 4845W        W 8896   4.489   4.637  12.888  0.0852 -0.3464 -0.0133
 4846W        W 8897   8.717   7.060   2.292  0.3605 -0.1161 -0.0941
 4847W        W 8898   2.134   8.691   2.306 -0.3043 -0.0613 -0.1683
 4848W        W 8899   8.061   1.365  10.911  0.2058 -0.0347 -0.1248
 4849W        W 8900   8.158   5.027   4.622 -0.2063 -0.0944  0.0852
 4850W        W 8901   6.128   6.411  10.294  0.0376 -0.1466 -0.3347
 4851W        W 8902   2.649   2.549   9.143  0.1060 -0.2006 -0.1111
 4852W        W 8903   3.695  10.027   0.562  0.1503 -0.2333  0.0573
 4853W        W 8904   9.505  10.066   4.275  0.0086 -0.0344  0.4678
 4854W        W 8905   7.417   1.999   2.950  0.1438 -0.0625 -0.1426
 4855W        W 8906   4.054   6.870  10.725 -0.0774 -0.3124 -0.0039
 4856W        W 8907   8.155   6.624  13.600 -0.0570 -0.2246 -0.0024
 4857W        W 8908   0.760   9.601   0.341  0.0547  0.2328  0.0942
 4858W        W 8909   2.571   5.209  11.425  0.3015 -0.2689  0.2849
 4859W        W 8910   5.965   0.779   2.586  0.3374  0.3105 -0.0443
 4860W        W 8911   7.078   2.873   3.920  0.1034  0.0910 -0.0105
 4861W        W 8912   0.736   5.302  10.307  0.0665  0.0378 -0.4265
 4862W        W 8913   4.275   7.020   1.979  0.1885 -0.1906  0.0627
 4863W        W 8914   6.238   9.639   1.383  0.0420 -0.1225 -0.1377
 4864W        W 8915   1.605   5.861   2.061  0.3463 -0.1343  0.1452
 4865W        W 8916   1.543   9.446  12.305 -0.1294  0.1409  0.0141
 4866W        W 8917   3.113   3.131   4.327  0.0365 -0.3018 -0.1775
 4867W        W 8918   8.081   7.506  10.810 -0.0861 -0.0062 -0.2919
 4868W        W 8919  10.184   5.692   5.410 -0.1180  0.1837  0.0063
 4869W        W 8920   4.778   9.536  10.986  0.2887  0.2218  0.0188
 4870W        W 8921   1.911   5.461   1.046  0.0597  0.1765 -0.1186
 4871W        W 8922   3.271   8.176   2.754  0.1277  0.2119 -0.2957
 4872W        W 8923   3.861   5.773   0.524 -0.2473  0.0906  0.1436
 4873W        W 8924   9.600   0.684   3.737 -0.2026 -0.1384 -0.2198
 4874W        W 8925   0.407   7.911   0.487  0.2197  0.2294  0.1434
 4875W        W 8926   5.857   7.653   4.877 -0.1110  0.1026  0.1247
 4876W        W 8927   9.003   5.512   2.780  0.2136 -0.2630 -0.3194
 4877W        W 8928   1.249   4.089  11.550  0.0338 -0.1247 -0.0079
 4878W        W 8929   2.906   1.474   1.555  0.0882  0.1916 -0.1925
 4879W        W 8930   6.954   7.549   3.447 -0.3407 -0.5775 -0.1002
 4880W        W 8931   4.499   8.080  11.078 -0.1267 -0.0928 -0.1773
 4881W        W 8932   7.727   2.225   0.129  0.2656  0.0035 -0.2694
 4882W        W 8933   0.101   6.810   9.967 -0.2018 -0.0553  0.1433
 4883W        W 8934   4.197   3.740   5.312 -0.0920 -0.0703 -0.0900
 4884W        W 8935   5.389   0.393   1.712 -0.0115 -0.0238 -0.2939
 4885W        W 8936   1.631   3.087  11.034 -0.1875  0.2071  0.0947
 4886W        W 8937   1.366   9.210  11.421  0.1264 -0.2226 -0.1815
 4887W        W 8938   6.188   7.660  10.723 -0.0883 -0.1284 -0.1139
 4888W        W 8939   7.099   5.703   9.299  0.1102  0.1047 -0.1544
 4889W        W 8940   2.800   6.567  11.345  0.4612  0.1037  0.2912
 4890W        W 8941   2.724   0.321  10.538  0.0857 -0.1005  0.1072
 4891W        W 8942   3.388   5.564   0.673 -0.0987  0.0482  0.2111
 4892W        W 8943   6.042   6.464   0.321 -0.2672  0.1371  0.1222
 4893W        W 8944   1.443   4.120  13.050  0.0373  0.0857  0.1544
 4894W        W 8945   7.974   5.833   2.363  0.1722 -0.2245  0.2182
 4895W        W 8946   2.207   4.835  12.144  0.1538  0.2113 -0.0685
 4896W        W 8947   5.410   7.968   2.868 -0.1643 -0.0460 -0.3312
 4897W        W 8948   0.372   2.262  12.879  0.0517  0.1709  0.1569
 4898W        W 8949   7.121   9.970  13.541  0.1189 -0.0348 -0.1878
 4899W        W 8950   4.564   9.106  10.806  0.0338  0.2991  0.1243
 4900W        W 8951   9.748   5.697  12.234  0.0104  0.1857  0.0934
 4901W        W 8952   5.285   5.393   2.768  0.2549  0.0925 -0.3489
 4902W        W 8953   5.173   1.925   4.796  0.1025  0.3096 -0.1595
 4903W        W 8954   1.214  10.174   2.806  0.0422  0.1516 -0.0387
 4904W        W 8955   3.969   5.327   4.201 -0.0583 -0.1697  0.3034
 4905W        W 8956   2.601   9.415   1.791  0.0900  0.1154  0.4804
 4906W        W 8957   0.682   4.228  13.759 -0.1801  0.0578 -0.3083
 4907W        W 8958   4.563   8.335  10.290 -0.1017  0.2386 -0.1101
 4908W        W 8959   1.237   2.076   0.685  0.0414  0.1518  0.1941
 4909W        W 8960  10.005   8.419   3.495  0.0416  0.1414  0.1028
 4910W        W 8961   1.848   6.519   9.472  0.1624  0.0739 -0.3626
 4911W        W 8962   4.355   3.963   8.912  0.0385  0.1633 -0.2169
 4912W        W 8963   0.615   8.362   0.298  0.0514  0.0406 -0.1119
 4913W        W 8964   5.533   6.252   1.002 -0.0413  0.1072  0.0972
 4914W        W 8965   5.157   5.751  12.942  0.2257 -0.1029 -0.0148
 4915W        W 8966   6.850   5.074  13.388  0.2441 -0.2039  0.1870
 4916W        W 8967   7.400   5.249   1.650  0.0267 -0.0987 -0.4958
 4917W        W 8968   7.886   0.191   2.527  0.2113  0.0728 -0.2278
 4918W        W 8969   8.949   7.279   9.685 -0.1943 -0.0275 -0.0500
 4919W        W 8970   2.414   8.840   0.869  0.1583 -0.1213 -0.0625
 4920W        W 8971   0.614   2.846   9.570  0.0780  0.1533 -0.0114
 4921W        W 8972   1.540   7.218   5.560 -0.0887  0.1398  0.1117
 4922W        W 8973   0.422   1.971  11.452  0.1297 -0.1804 -0.0488
 4923W        W 8974   3.984   5.046   1.931  0.1218 -0.0488 -0.4361
 4924W        W 8975   1.344   7.974  13.629  0.1310  0.2967 -0.0156
 4925W        W 8976   2.711   4.590   1.476 -0.1560  0.0909 -0.0106
 4926W        W 8977   3.987   6.412  13.279 -0.0282 -0.0417  0.1113
 4927W        W 8978   1.327   0.971  12.393 -0.0092 -0.2011  0.2248
 4928W        W 8979   6.124   2.016  12.542  0.0949 -0.1443 -0.1173
 4929W        W 8980   0.257   9.532   4.594  0.4342 -0.3190 -0.2040
 4930W        W 8981   9.006   1.513   0.164 -0.1152 -0.4057  0.0489
 4931W        W 8982   7.446   6.166   0.763  0.0450  0.0194 -0.0642
 4932W        W 8983   6.768   9.866  12.001 -0.0241 -0.2549  0.0888
 4933W        W 8984   7.515   6.878   9.526  0.0552 -0.4331 -0.0284
 4934W        W 8985   3.074   9.291   0.476  0.0725 -0.0021 -0.0793
 4935W        W 8986   7.873   6.469  11.200  0.0769 -0.1789  0.0928
 4936W        W 8987   7.212   9.886  12.939 -0.0096  0.0143  0.1792
 4937W        W 8988   0.216   2.022   4.009  0.1746 -0.3689 -0.0733
 4938W        W 8989   8.845   9.950   9.706  0.2038  0.1368 -0.2429
 4939W        W 8990   0.589   1.074  13.296 -0.1222  0.1402  0.2399
 4940W        W 8991   3.699   6.988   9.765 -0.0711  0.2834  0.1715
 4941W        W 8992   2.591   1.683   0.671  0.0994 -0.2707  0.1616
 4942W        W 8993   5.421   3.285   0.426  0.0150  0.0279  0.0012
 4943W        W 8994   4.887   0.514   3.341 -0.1281  0.2936 -0.2535
 4944W        W 8995   7.295   6.904   2.256 -0.2080 -0.0418  0.0392
 4945W        W 8996   8.641   1.875  10.321 -0.3695 -0.2862  0.2003
 4946W        W 8997   3.184   3.034   2.566  0.2327 -0.0769 -0.1476
 4947W        W 8998   5.587   6.247   0.387  0.2029 -0.0533 -0.0608
 4948W        W 8999   3.365   7.409   3.032  0.1562 -0.0142 -0.0179
 4949W        W 9000   9.312   9.584   4.205  0.1986 -0.1657  0.0182
 4950W        W 9001   5.446   6.077  10.896  0.1675 -0.1633  0.0851
 4951W        W 9002   2.399   1.578   1.590  0.0787  0.0946 -0.2000
 4952W        W 9003   2.582   7.449  13.550  0.1267  0.2372  0.0009
 4953W        W 9004   6.870   0.121   3.853 -0.1613 -0.0500 -0.1780
 4954W        W 9005   7.417   5.582   4.075  0.2602 -0.1757  0.1849
 4955W        W 9006   8.701   8.584   3.087  0.0684  0.2185 -0.0472
 4956W        W 9007   6.055   8.122   3.558 -0.1327  0.3631 -0.1588
 4957W        W 9008   1.512   8.420  12.011  0.2964  0.2105 -0.3469
 4958W        W 9009   9.961   6.624   3.012  0.1226 -0.3578  0.1517
 4959W        W 9010   2.802   1.512   9.148 -0.0334 -0.0031  0.0789
 4960W        W 9011   8.191   4.708  11.646 -0.1514  0.1547  0.1327
 4961W        W 9012   9.885   6.040   1.336  0.0953 -0.2931 -0.0678
 4962W        W 9013   9.934   5.889   9.344  0.3202  0.2114  0.1134
 4963W        W 9014   7.410   9.768   1.228 -0.1684  0.1113  0.0201
 4964W        W 9015  10.042   0.233   1.934  0.4970  0.0905  0.0724
 4965W        W 9016   5.119   4.753   4.844  0.2492  0.0574  0.0408
 4966W        W 9017   0.736   7.661  12.101  0.1577  0.0701 -0.2438
 4967W        W 9018   1.376   3.131  13.581  0.0860 -0.2648  0.0477
 4968W        W 9019   3.492   7.080  12.136  0.0564  0.0665  0.0212
 4969W        W 9020   9.299   1.811   3.580 -0.1286 -0.1159 -0.3459
 4970W        W 9021   0.179   2.083   2.995  0.1219  0.0239 -0.0689
 4971W        W 9022   0.637   0.316   1.271  0.1789 -0.0410  0.0000
 4972W        W 9023   7.467   6.320   2.438 -0.0966  0.1426 -0.2313
 4973W        W 9024   8.660   2.040   1.375  0.0006  0.1204  0.1912
 4974W        W 9025   0.775   2.199  11.144 -0.0361 -0.3619  0.0787
 4975W        W 9026   9.847   2.292  11.056 -0.0816  0.3087 -0.1433
 4976W        W 9027   7.878   6.480   3.136 -0.1991 -0.1122 -0.1566
 4977W        W 9028   6.732   6.928   9.178  0.0890 -0.3026  0.2932
 4978W        W 9029   2.957  10.138   4.551 -0.0401 -0.2563  0.1105
 4979W        W 9030   5.719   1.935  11.145 -0.0208  0.0540  0.0462
 4980W        W 9031   6.983   0.663   4.738 -0.0450  0.2037 -0.1291
 4981W        W 9032   5.307   4.270  12.517  0.2345  0.1989  0.5774
 4982W        W 9033   7.460   6.331   3.355 -0.3809  0.1006  0.1543
 4983W        W 9034   9.805   6.877  10.665 -0.2331 -0.0625 -0.0198
 4984W        W 9035   6.548   1.131   1.348 -0.1730 -0.1070 -0.0325
 4985W        W 9036   3.856   3.790   4.935  0.2018 -0.2644  0.1205
 4986W        W 9037   8.143   4.849   1.372  0.1406  0.1447 -0.1375
 4987W        W 9038   5.759   6.985  11.809 -0.3713 -0.1017 -0.1371
 4988W        W 9039   8.190   3.613  11.574  0.0511 -0.0337 -0.2065
 4989W        W 9040   1.035   6.896  10.077  0.0380 -0.2758  0.0809
 4990W        W 9041   8.736   3.789  10.905  0.2259  0.1593 -0.3092
 4991W        W 9042   3.786   4.602  13.230 -0.2018  0.1351  0.0342
 4992W        W 9043  10.149   4.565   1.486 -0.2781  0.2985  0.0591
 4993W        W 9044   1.543   3.332  11.474  0.0905  0.0484 -0.0027
 4994W        W 9045   2.222   2.405   9.289 -0.1239  0.1728 -0.1847
 4995W        W 9046   7.063   6.771  11.244 -0.2576 -0.0027 -0.0867
 4996W        W 9047   2.467   2.186   3.250 -0.1760  0.3002 -0.3142
 4997W        W 9048   8.187   2.740  13.846  0.1886 -0.1011  0.0783
 4998W        W 9049   3.770   3.932   2.163  0.0923  0.0667  0.0202
 4999W        W 9050   9.282   0.285  13.434  0.3590  0.1182  0.1246
 5000W        W 9051   3.315   2.892   9.986  0.1032 -0.0690  0.0531
 5001W        W 9052   6.375   0.865  13.238  0.2587  0.1490 -0.1611
 5002W        W 9053   5.368   9.427  11.338 -0.0051 -0.1143 -0.2079
 5003W        W 9054   9.272   3.748   0.494  0.2289  0.0861  0.2914
 5004W        W 9055   5.455   4.090   1.517 -0.2018 -0.0692 -0.1303
 5005W        W 9056   6.209   1.521  10.482 -0.1551 -0.3169  0.3714
 5006W        W 9057   6.496   0.647  10.854 -0.0006  0.0875 -0.0684
 5007W        W 9058   9.309   4.714  12.112  0.1712  0.0161 -0.1416
 5008W        W 9059   4.233   2.913  10.258  0.0097 -0.2161 -0.0088
 5009W        W 9060   9.370   6.978   3.587 -0.1006 -0.1332  0.2165
 5010W        W 9061   1.950   1.758  11.450  0.2297 -0.2064 -0.1154
 5011W        W 9062   6.111   7.011  11.493  0.0064  0.0143 -0.2687
 5012W        W 9063   0.969   3.356   9.419 -0.2838  0.2664  0.1323
 5013W        W 9064  10.127   8.720   4.550 -0.3863 -0.0283  0.2411
 5014W        W 9065   9.328   1.891  12.062 -0.3567 -0.2296  0.0592
 5015W        W 9066   4.356   6.120  11.547  0.0355 -0.1522  0.3134
 5016W        W 9067   3.766   9.066   9.003 -0.0229 -0.2162 -0.1130
 5017W        W 9068   1.253   6.009  10.730  0.0890 -0.1158  0.0312
 5018W        W 9069   3.133   3.459  10.957 -0.2945 -0.0668 -0.0258
 5019W        W 9070  10.072   5.531  10.514  0.0207  0.0301 -0.1480
 5020W        W 9071   0.864   0.115   1.696  0.2062 -0.0165 -0.2563
 5021W        W 9072   6.013   0.201  12.561 -0.1806 -0.2676  0.2365
 5022W        W 9073   8.187   3.067   0.219 -0.1005  0.0481 -0.4396
 5023W        W 9074   4.230   7.253   5.423 -0.1709 -0.2253 -0.1154
 5024W        W 9075   7.815   2.246   3.232 -0.0269 -0.2288  0.1148
 5025W        W 9076   0.586   5.325  11.219  0.3290 -0.1596  0.0916
 5026W        W 9077   8.409   2.253  12.884 -0.2597 -0.1315  0.0489
 5027W        W 9078   5.757   4.057   2.703  0.0224  0.0158 -0.2993
 5028W        W 9079   5.525   9.108  12.989  0.1729 -0.6894 -0.0397
 5029W        W 9080   7.316   7.087  11.535  0.1878  0.2222 -0.0683
 5030W        W 9081   7.838   9.079   1.869  0.0077  0.0777  0.2042
 5031W        W 9082   1.748   0.861   9.154 -0.1272 -0.0811  0.1914
 5032W        W 9083  10.091   7.912  11.272  0.0842  0.1820 -0.0878
 5033W        W 9084   0.827   7.684   1.201  0.3476  0.2229  0.0414
 5034W        W 9085   0.931   9.404   2.550  0.1165 -0.1529  0.1255
 5035W        W 9086   5.211   6.118   0.068 -0.2012 -0.2982 -0.2622
 5036W        W 9087   5.358   6.993   5.472 -0.0627  0.1247 -0.1493
 5037W        W 9088   6.691   8.310  11.780 -0.1822  0.0352  0.3535
 5038W        W 9089   3.260   6.603  12.849  0.0456 -0.1173  0.2717
 5039W        W 9090   3.872   2.960  12.421  0.1784  0.1769  0.2094
 5040W        W 9091   1.775   7.945   0.792  0.0779 -0.1696  0.1458
 5041W        W 9092   2.853   3.516   3.436 -0.2235  0.0137  0.2731
 5042W        W 9093   5.028   1.398  11.478  0.0960  0.1758  0.0244
 5043W        W 9094   9.056   7.088   2.651 -0.1477  0.1042  0.0166
 5044W        W 9095   5.912   2.135  10.003 -0.3253  0.1304 -0.0421
 5045W        W 9096   1.893   5.976   3.536 -0.0637 -0.1767 -0.1480
 5046W        W 9097   7.181   9.209   2.454 -0.2269  0.0026 -0.1498
 5047W        W 9098   9.391   3.118  13.172  0.0823 -0.2728 -0.1699
 5048W        W 9099   8.059   8.699  10.438 -0.0761 -0.1616 -0.2141
 5049W        W 9100   3.555   2.640   4.303  0.1249  0.2496 -0.0633
 5050W        W 9101   0.655   0.084  10.809 -0.1063 -0.2697 -0.2197
 5051W        W 9102   6.670   2.831  13.948 -0.0605  0.1302 -0.1790
 5052W        W 9103   3.134   7.993   4.351 -0.0385 -0.2157 -0.1165
 5053W        W 9104   0.231   4.045  13.653  0.0424 -0.0067 -0.1301
 5054W        W 9105   4.981   2.650  13.820  0.2648 -0.1444  0.0243
 5055W        W 9106   9.907   7.394  11.285 -0.1638 -0.2575  0.0850
 5056W        W 9107   4.989   5.965  10.000 -0.1811 -0.3436  0.0036
 5057W        W 9108   4.896   4.982   4.461  0.0405  0.0777  0.1073
 5058W        W 9109   1.783   2.679  13.704  0.0308 -0.1659 -0.1321
 5059W        W 9110   6.957   7.948  13.174 -0.1340 -0.0156  0.4702
 5060W        W 9111   0.463   9.132   9.332 -0.1302 -0.0925 -0.2235
 5061W        W 9112   5.931   5.088   5.063  0.1205 -0.0683 -0.3865
 5062W        W 9113   2.349   2.490   1.214 -0.0616  0.0276 -0.0013
 5063W        W 9114   6.961   0.870  12.335 -0.1725 -0.2757  0.2847
 5064W        W 9115   4.915   7.423  11.558  0.3654 -0.3820 -0.2927
 5065W        W 9116   8.138   0.170   1.292 -0.2937 -0.0648 -0.1800
 5066W        W 9117   9.660   4.196   3.045 -0.1434 -0.1753  0.1642
 5067W        W 9118   4.380   0.111   4.234  0.1043 -0.0591  0.2997
 5068W        W 9119   2.259  10.016  12.471  0.0754 -0.0526 -0.1948
 5069W        W 9120   6.106   8.629   6.021 -0.1131 -0.2431  0.1160
 5070W        W 9121   4.579   1.623  12.692 -0.0691 -0.1556  0.1485
 5071W        W 9122   3.709   5.785  10.232  0.1152 -0.3433 -0.2757
 5072W        W 9123   4.419   1.682   2.948 -0.2306 -0.2107  0.4619
 5073W        W 9124   7.032   9.714   2.922 -0.0715 -0.0592  0.0898
 5074W        W 9125   2.412   8.891  13.714 -0.1815 -0.1209 -0.0212
 5075W        W 9126   4.777   9.462   4.233  0.0313 -0.0436  0.4296
 5076W        W 9127   6.004   1.489   4.232 -0.1641 -0.2307  0.0551
 5077W        W 9128   5.119   9.381   1.411 -0.1590  0.0336 -0.0968
 5078W        W 9129   4.811   0.435   2.427 -0.2482  0.0446 -0.0698
 5079W        W 9130   7.157   1.874   1.875 -0.2419 -0.2054 -0.2053
 5080W        W 9131   2.126   6.724  12.462 -0.2137  0.0055 -0.0522
 5081W        W 9132   1.838   3.839   8.691 -0.0302 -0.3617 -0.0364
 5082W        W 9133   8.145   6.860  12.488  0.0448 -0.0325  0.0246
 5083W        W 9134   1.138   5.276   0.576  0.0582  0.4772  0.0539
 5084W        W 9135   3.851   0.955  10.126 -0.2915 -0.1527  0.1462
 5085W        W 9136   0.081   2.045   0.581  0.2585 -0.0674 -0.0988
 5086W        W 9137   9.108   0.638  12.129 -0.0759  0.3510 -0.0538
 5087W        W 9138   2.305   7.871  13.409 -0.1615 -0.0047 -0.1483
 5088W        W 9139   4.615   2.026   4.764 -0.0688  0.2316 -0.2079
 5089W        W 9140   8.390   6.424   1.002 -0.1742  0.3285  0.0646
 5090W        W 9141   2.981   2.451  11.990  0.0910 -0.1116 -0.0055
 5091W        W 9142   7.955   9.312   3.602 -0.0400 -0.0902  0.1356
 5092W        W 9143   3.806   4.327   9.994  0.0209 -0.4225 -0.0537
 5093W        W 9144   0.446   9.528   2.898 -0.2916  0.3406  0.0517
 5094W        W 9145   5.266   9.823   4.463  0.1247  0.0050  0.2457
 5095W        W 9146   2.214   1.723   4.912 -0.0154 -0.1993 -0.1382
 5096W        W 9147   1.043   1.596   3.898 -0.0392 -0.0361 -0.0040
 5097W        W 9148   2.085   4.021   2.971  0.2240 -0.1633 -0.2375
 5098W        W 9149   9.877   2.479  13.961  0.0972 -0.1754 -0.1392
 5099W        W 9150  10.043   7.882  12.508  0.0901  0.2798  0.2755
 5100W        W 9151   9.000   1.190   1.127 -0.1573 -0.2022  0.1165
 5101W        W 9152   2.623   0.904  10.545 -0.0808  0.2274 -0.0089
 5102W        W 9153   5.274   4.112   2.467  0.4542  0.2282 -0.1936
 5103W        W 9154   2.086   7.617   0.878  0.0262 -0.1298 -0.1670
 5104W        W 9155   2.237   6.255   4.773 -0.1975 -0.0792  0.0311
 5105W        W 9156   4.958   4.445  12.825  0.0696 -0.1009  0.1326
 5106W        W 9157   8.720   1.822   2.837 -0.0518 -0.1577 -0.0561
 5107W        W 9158   0.811   3.177  13.616 -0.1359  0.0636 -0.0884
 5108W        W 9159   9.241   6.478   5.618  0.1188 -0.0282 -0.0449
 5109W        W 9160   8.412   4.032  12.787 -0.1030  0.0393  0.1751
 5110W        W 9161   3.723   4.669   8.946 -0.3806 -0.2010  0.1169
 5111W        W 9162   0.389   1.759   2.498  0.2171  0.0634 -0.2760
 5112W        W 9163   0.145   1.257   9.253  0.2886  0.2395 -0.3129
 5113W        W 9164   5.558   0.635   4.458 -0.1732 -0.4027 -0.2886
 5114W        W 9165   3.342   7.514  12.373 -0.2778 -0.1360 -0.3267
 5115W        W 9166   4.602   9.297   9.392 -0.4956  0.0907  0.0346
 5116W        W 9167   4.522   5.269   9.840 -0.2319 -0.0267 -0.2066
 5117W        W 9168   1.207   0.132   9.685  0.0800  0.0331 -0.4082
 5118W        W 9169   1.089   1.957   9.904 -0.3316  0.1388  0.4081
 5119W        W 9170   2.199   1.820   8.732  0.2648  0.1175  0.0338
 5120W        W 9171   0.786   1.801  13.874 -0.0566 -0.0186  0.6586
 5121W        W 9172   1.226   8.815   0.779 -0.0202 -0.0799 -0.0323
 5122W        W 9173   6.889   4.960   0.381  0.1021  0.1169 -0.0506
 5123W        W 9174   1.129   9.862   0.141  0.0001 -0.1303  0.1844
 5124W        W 9175   2.781   7.511   3.619  0.0775 -0.0920 -0.0433
 5125W        W 9176   1.849   2.757  11.322  0.0008  0.2258 -0.0331
 5126W        W 9177   2.439   3.247  10.226 -0.0487 -0.2284 -0.1534
 5127W        W 9178   8.179   4.346   1.044  0.0600  0.2081 -0.2507
 5128W        W 9179   1.491   9.586   9.724  0.4120 -0.0128 -0.1082
 5129W        W 9180   8.676   9.247   3.248  0.0616 -0.0911 -0.0384
 5130W        W 9181   3.887   9.349   3.130 -0.0532  0.0083  0.0915
 5131W        W 9182   7.552   7.547   3.145  0.0392 -0.0095  0.3202
 5132W        W 9183   3.150   5.599  11.966  0.1295  0.0432 -0.1064
 5133W        W 9184   5.729   8.678  11.832  0.0634  0.0623  0.0872
 5134W        W 9185   3.386   3.846   4.068  0.1238 -0.0005 -0.1110
 5135W        W 9186   3.788   6.028   8.928  0.0705  0.0118  0.3954
 5136W        W 9187   7.385   2.836   2.094 -0.0596 -0.0941 -0.2006
 5137W        W 9188   4.156   7.360  10.437  0.0035  0.1765  0.0214
 5138W        W 9189   9.755   9.180  11.493 -0.0436  0.1081 -0.1315
 5139W        W 9190   6.492   9.440  13.708  0.0090  0.0374 -0.1456
 5140W        W 9191   5.916   6.172  12.423  0.0013 -0.1814 -0.0683
 5141W        W 9192   0.020   1.008  11.688  0.1293  0.0281  0.0822
 5142W        W 9193   2.370   8.941   9.353  0.1210 -0.3708 -0.0263
 5143W        W 9194   5.912   3.097   1.475  0.1090 -0.2326 -0.2949
 5144W        W 9195   3.535   6.302   2.312 -0.0547 -0.0961  0.1715
 5145W        W 9196   0.447   9.737   9.545  0.0476  0.0086  0.1883
 5146W        W 9197   9.740   0.735   9.903  0.1018 -0.0643 -0.2848
 5147W        W 9198   4.755   7.412   4.414  0.0762 -0.0897 -0.0864
 5148W        W 9199   2.947   9.097   2.835 -0.0055 -0.0806  0.0456
 5149W        W 9200   6.864   4.296   2.932  0.0840 -0.2295 -0.1163
 5150W        W 9201   3.399   4.227  13.560  0.1028 -0.0989  0.0004
 5151W        W 9202   4.053   3.032  13.857  0.2274 -0.2040  0.1691
 5152W        W 9203   1.426   8.375   0.315 -0.1427 -0.0692 -0.0590
 5153W        W 9204   0.886   5.888  11.052  0.1794 -0.0733 -0.0724
 5154W        W 9205   2.082  10.184  13.892 -0.0840 -0.0349  0.1014
 5155W        W 9206   1.666   8.331  11.114  0.1226  0.2016  0.2114
 5156W        W 9207   9.719   1.391   1.640  0.0116  0.0142 -0.0154
 5157W        W 9208   2.036   5.315  13.389 -0.4287  0.1738  0.0633
 5158W        W 9209   6.095  10.057  11.157 -0.2812 -0.0595  0.5362
 5159W        W 9210   4.674   4.376  13.677  0.0568 -0.0302 -0.1741
 5160W        W 9211   9.287   3.678  13.014  0.3166  0.3573  0.0119
 5161W        W 9212   9.615   0.886   2.821 -0.2312  0.1448  0.0332
 5162W        W 9213   7.529   6.333   9.529 -0.0868  0.2607  0.0958
 5163W        W 9214   8.615   9.512  13.352  0.0289 -0.3323 -0.3107
 5164W        W 9215   3.870   7.405   1.260 -0.0654 -0.0791 -0.0266
 5165W        W 9216   2.652   1.892  13.259  0.1236 -0.0908  0.0358
 5166W        W 9217   3.924   9.758   0.861 -0.0693 -0.2915 -0.1980
 5167W        W 9218   7.345   7.177  12.614 -0.1269 -0.3245  0.2521
 5168W        W 9219   8.268   5.331   1.688 -0.2412  0.3040 -0.2431
 5169W        W 9220   5.487   4.030   3.852 -0.0631  0.0048 -0.1851
 5170W        W 9221   1.643   5.751  10.496  0.0643  0.1093  0.1851
 5171W        W 9222   1.416  10.073   0.914  0.3339 -0.1818  0.0416
 5172W        W 9223   2.297   8.997  11.068 -0.1377 -0.1746  0.1391
 5173W        W 9224   4.634   1.539  11.872  0.1658 -0.0724  0.3620
 5174W        W 9225   8.745   2.324   2.873  0.1548 -0.0170 -0.4790
 5175W        W 9226   2.108   9.661  11.618  0.2272  0.1383  0.3056
 5176W        W 9227   4.458   8.872  13.304 -0.4427  0.3569  0.2494
 5177W        W 9228   7.817   0.512  10.981 -0.3304 -0.1745 -0.1741
 5178W        W 9229   7.054   7.163   1.302 -0.4097 -0.0097  0.1096
 5179W        W 9230   1.539   0.403   0.197  0.1794 -0.3804  0.2826
 5180W        W 9231   0.044   4.287  11.267  0.1400  0.1033 -0.1016
 5181W        W 9232   2.840   5.230  10.204  0.1639 -0.0122 -0.2394
 5182W        W 9233   0.063   3.619   2.588  0.0852 -0.1756  0.0273
 5183W        W 9234   2.847   4.620  12.074  0.1732 -0.2048  0.0661
 5184W        W 9235   9.613   3.011   0.123 -0.0558  0.1685 -0.3434
 5185W        W 9236   0.861   7.829  13.835 -0.0722  0.1905 -0.1992
 5186W        W 9237   1.015   7.051   2.981 -0.0207 -0.0540  0.3098
 5187W        W 9238   1.414   5.212  11.738  0.3002 -0.0900  0.1045
 5188W        W 9239   7.275   7.209  13.602 -0.0900  0.0578  0.0061
 5189W        W 9240   6.871   9.547  12.832  0.0980 -0.0066 -0.0183
 5190W        W 9241   9.456   3.740  11.897 -0.1412  0.0841  0.1063
 5191W        W 9242   4.646   0.828   1.125  0.0645  0.0733  0.1143
 5192W        W 9243   5.845   8.856  10.853  0.1230  0.2147  0.2091
 5193W        W 9244   4.628   7.529  10.403  0.0190  0.0755  0.3222
 5194W        W 9245   4.346   4.171  10.703  0.1940 -0.0348 -0.0268
 5195W        W 9246   4.406   0.378   4.696 -0.0767  0.3508  0.0504
 5196W        W 9247   0.190   2.536  13.722  0.0478 -0.3273  0.1742
 5197W        W 9248   1.544   8.885  11.098  0.0527 -0.1066 -0.0262
 5198W        W 9249   1.253   0.111  13.338  0.1359  0.0125  0.0855
 5199W        W 9250   4.576   6.823   3.075  0.0325 -0.0673  0.0833
 5200W        W 9251   5.546   1.243   3.394  0.0988  0.2295 -0.0105
 5201W        W 9252   4.326   7.700   4.333 -0.0762 -0.1656 -0.2614
 5202W        W 9253   5.123   1.572   1.339 -0.3507  0.2449  0.1720
 5203W        W 9254   2.744  10.129   0.512 -0.1067  0.0858  0.0847
 5204W        W 9255   9.073   0.320  12.936  0.0193  0.0560 -0.1398
 5205W        W 9256   5.387   3.559  10.430 -0.2084 -0.0214  0.2057
 5206W        W 9257   1.291   3.020   2.772  0.1188 -0.1560  0.0263
 5207W        W 9258   4.939   6.070   1.766  0.3027  0.0394  0.2822
 5208W        W 9259   7.865   1.846  10.877 -0.0745 -0.0732 -0.0414
 5209W        W 9260   1.357   5.620   0.924 -0.0528  0.1787  0.0974
 5210W        W 9261   1.303   8.253   2.756  0.0920 -0.1388  0.0132
 5211W        W 9262   3.674   5.163   4.789  0.0555 -0.0052 -0.2468
 5212W        W 9263   3.223   7.510   4.436 -0.2038  0.1673 -0.2377
 5213W        W 9264   9.909   7.835   1.116  0.0130  0.1599  0.2975
 5214W        W 9265   4.117   1.490   9.743 -0.0715  0.0238  0.1704
 5215W        W 9266   4.237   6.222   3.510 -0.0581  0.2168  0.4256
 5216W        W 9267   1.135   9.404  10.930  0.3539  0.0126  0.1496
 5217W        W 9268   8.552   5.554  12.143  0.0700  0.0262 -0.0017
 5218W        W 9269   7.354   6.931   9.958 -0.0076 -0.3391  0.3121
 5219W        W 9270   5.376   8.023   1.694 -0.5152  0.0706 -0.5397
 5220W        W 9271   1.866   2.259  11.750  0.2570  0.0635  0.1763
 5221W        W 9272   2.471   3.669  12.473  0.1511  0.0974 -0.0442
 5222W        W 9273   3.096   7.983  12.230  0.2961 -0.2380 -0.0129
 5223W        W 9274   8.735   9.138  11.395  0.0417 -0.2165 -0.1187
 5224W        W 9275   5.763   3.707  12.336 -0.2645  0.2314 -0.2321
 5225W        W 9276   3.176   4.368  11.488  0.2368 -0.0025  0.0366
 5226W        W 9277   3.562   4.711   3.627 -0.2039  0.0993 -0.0311
 5227W        W 9278   6.671   0.621   1.282 -0.2645  0.0346  0.2907
 5228W        W 9279   3.514   7.928  12.605 -0.1046 -0.2015  0.0095
 5229W        W 9280   5.729   3.431   4.345  0.1116  0.0915 -0.2321
 5230W        W 9281   5.814   5.111   1.525 -0.1828  0.3112  0.1487
 5231W        W 9282   6.047   1.035  12.371 -0.2370  0.1200  0.2267
 5232W        W 9283   6.173   9.780   4.984 -0.0626  0.2801  0.0960
 5233W        W 9284   9.648   3.904  10.981 -0.0159 -0.2236  0.1355
 5234W        W 9285   8.637   4.263  13.432  0.1051 -0.0615 -0.1689
 5235W        W 9286   0.739   4.208  12.878  0.2292  0.0894 -0.2077
 5236W        W 9287   0.481   9.823   0.014 -0.1851  0.0150  0.2077
 5237W        W 9288   0.141   1.457  11.592  0.2110 -0.2281  0.0470
 5238W        W 9289   3.017   1.444   2.504  0.0377 -0.0381  0.1324
 5239W        W 9290   2.095   6.236   0.216 -0.3733 -0.2046 -0.0458
 5240W        W 9291   1.206   9.198   0.328 -0.0041 -0.0056 -0.1820
 5241W        W 9292   7.223   9.368  10.114 -0.0446  0.2393  0.0327
 5242W        W 9293   6.309   7.053   4.306  0.0917 -0.2594  0.1325
 5243W        W 9294   5.043   6.974   3.247  0.1098 -0.2586  0.1012
 5244W        W 9295   7.517   5.734   1.138 -0.1544 -0.0405 -0.3784
 5245W        W 9296   6.720   7.567   2.563 -0.1504  0.0773  0.0173
 5246W        W 9297   3.392   2.137   0.781 -0.0814  0.2861  0.2860
 5247W        W 9298   9.605   1.681  12.884  0.1139 -0.1821 -0.3384
 5248W        W 9299   6.848   4.600   1.872  0.1760 -0.1642  0.2697
 5249W        W 9300   4.496   2.956   4.255 -0.1013  0.1875  0.0127
 5250W        W 9301   5.603   5.674  13.178 -0.2876  0.0186 -0.0751
 5251W        W 9302   2.816   5.006   1.266 -0.0637  0.1559  0.2698
 5252W        W 9303   2.317   3.388  11.982 -0.3915 -0.0868  0.1197
 5253W        W 9304   4.769   6.669  12.701 -0.0448  0.0518  0.0892
 5254W        W 9305   0.200   1.140   4.052 -0.2787  0.2758 -0.1227
 5255W        W 9306   9.464   2.000   4.071 -0.1487  0.3132 -0.0271
 5256W        W 9307   7.829   8.830   3.664  0.0707 -0.1260 -0.2126
 5257W        W 9308   4.837   0.228   4.429 -0.1399 -0.2023 -0.0175
 5258W        W 9309   6.377   4.275   1.111  0.0146  0.0054  0.5278
 5259W        W 9310   8.244   8.001   3.621 -0.0639  0.0029 -0.2943
 5260W        W 9311   4.710   3.255  11.827 -0.0037 -0.0299  0.4954
 5261W        W 9312   3.737   5.981   3.192  0.0551  0.0570  0.0808
 5262W        W 9313   5.930   0.915   3.463  0.2800 -0.3810  0.1223
 5263W        W 9314   1.346   4.520   1.386 -0.2969 -0.0677  0.0041
 5264W        W 9315   3.271   9.724   9.305  0.4017  0.2925  0.0141
 5265W        W 9316   4.528   0.188  11.530 -0.2834 -0.1637  0.0537
 5266W        W 9317   8.225   9.156  11.185 -0.3077 -0.2560 -0.2062
 5267W        W 9318   8.466   9.047   2.741  0.0258 -0.0875 -0.1637
 5268W        W 9319   1.650   7.786  13.325 -0.2512  0.1164 -0.2049
 5269W        W 9320   6.401   7.405  11.807  0.0188 -0.0324  0.3336
 5270W        W 9321   1.668   7.897   2.225 -0.0578  0.1345  0.0710
 5271W        W 9322   4.955   1.863   2.112  0.1288  0.1204  0.2075
 5272W        W 9323   8.494   7.837   0.607 -0.0933 -0.1067 -0.0885
 5273W        W 9324   1.275   6.125   0.015  0.1448 -0.1933  0.2010
 5274W        W 9325   3.078   3.836   0.299  0.0382 -0.2543 -0.1230
 5275W        W 9326   4.834   4.932   0.725  0.0764 -0.0244 -0.0974
 5276W        W 9327   1.981   8.912   3.902 -0.2735  0.1015  0.1049
 5277W        W 9328   4.131   2.302   9.062  0.0385  0.0862  0.2135
 5278W        W 9329   2.938   0.968   3.696 -0.1964 -0.0842  0.1706
 5279W        W 9330   7.321   1.980   3.431 -0.1466  0.1121 -0.2127
 5280W        W 9331   8.286   8.816   0.998  0.1486 -0.0569  0.2535
 5281W        W 9332   2.680   7.997   0.763  0.0969  0.0063 -0.2895
 5282W        W 9333   1.069   6.579   2.152  0.2425  0.0223  0.0969
 5283W        W 9334   7.345   0.188   0.552  0.0094  0.2911 -0.2935
 5284W        W 9335   4.610   5.325   0.032 -0.2814  0.0647 -0.0096
 5285W        W 9336   4.599   6.255   3.858  0.0191  0.5481 -0.3755
 5286W        W 9337   4.272   4.270  10.093  0.1869  0.1467 -0.1575
 5287W        W 9338   0.732   7.177  13.774 -0.2210  0.1196  0.1002
 5288W        W 9339   1.069   6.147   4.180 -0.0692 -0.1827  0.0647
 5289W        W 9340   1.115   5.036  13.012 -0.1281 -0.0686 -0.0489
 5290W        W 9341   2.410   6.452   3.369  0.0427 -0.2504 -0.2126
 5291W        W 9342   0.562   0.579   1.667 -0.0486  0.2247 -0.0141
 5292W        W 9343   8.459   5.048   0.543  0.2127  0.3902 -0.0305
 5293W        W 9344   1.326   7.447   0.408 -0.0729  0.0677 -0.1645
 5294W        W 9345   9.068   7.982  10.310 -0.1845 -0.2437  0.1794
 5295W        W 9346   1.307   1.204   2.050  0.1537  0.0098  0.1149
 5296W        W 9347   5.460   2.013  13.682  0.0067  0.1453 -0.1679
 5297W        W 9348   8.719   0.230   9.158  0.3068  0.0766 -0.3994
 5298W        W 9349   2.182   8.555   9.086 -0.0872 -0.1229 -0.0087
 5299W        W 9350   5.652   1.459   0.451  0.1708  0.5788  0.0448
 5300W        W 9351   5.830   4.336  10.936 -0.0838 -0.0023 -0.0383
 5301W        W 9352   2.078   9.407   0.430  0.3108  0.0004  0.0127
 5302W        W 9353   8.479   6.369   4.771  0.1339  0.0800 -0.1434
 5303W        W 9354   8.053   0.657  11.655  0.0349  0.2460 -0.1687
 5304W        W 9355   0.200  10.114   9.290  0.0597  0.0037  0.3579
 5305W        W 9356   0.892   5.206   5.035 -0.0873  0.0898  0.1613
 5306W        W 9357   0.493   6.229   9.535 -0.0908 -0.3336 -0.0980
 5307W        W 9358   9.291   6.412  12.034  0.0047 -0.1531 -0.0228
 5308W        W 9359   8.397   8.278  12.167  0.0858  0.2574  0.0144
 5309W        W 9360   6.107   7.196   3.069 -0.1489  0.0209 -0.0927
 5310W        W 9361   2.205   7.085   2.503  0.0659 -0.0477 -0.1863
 5311W        W 9362   5.258   3.329   9.109 -0.1586  0.1562 -0.3275
 5312W        W 9363   0.789   1.357   1.243  0.0814 -0.0367 -0.0662
 5313W        W 9364   1.438   8.702   5.083  0.0349 -0.0210 -0.0225
 5314W        W 9365   7.128   5.546  10.172  0.0452 -0.0066 -0.2138
 5315W        W 9366   6.423   6.117  11.006 -0.0049  0.0161 -0.1483
 5316W        W 9367   1.155   6.994   4.690 -0.4524 -0.1219  0.0703
 5317W        W 9368   7.962   7.127   1.491 -0.2230 -0.0300  0.0638
 5318W        W 9369   3.938   3.958   9.651 -0.0265 -0.1309  0.0269
 5319W        W 9370   6.550   6.588   4.151 -0.0433  0.3021  0.1774
 5320W        W 9371   8.876   7.633   1.588  0.1722  0.2104  0.2142
 5321W        W 9372   7.937   4.016  10.661  0.0572  0.0921  0.0366
 5322W        W 9373   3.935   2.744   9.865  0.4052 -0.2570 -0.0616
 5323W        W 9374   4.808   2.367   3.379 -0.0882  0.1068  0.0145
 5324W        W 9375   9.074   4.114   1.831 -0.0596  0.3647  0.1105
 5325W        W 9376   3.302  10.003  13.601 -0.0222  0.0350 -0.3538
 5326W        W 9377   2.049   6.738   0.282  0.1199  0.0898 -0.2339
 5327W        W 9378   7.169   8.647  13.829  0.0631  0.0198 -0.0899
 5328W        W 9379   0.736   8.851   0.535 -0.0329  0.0904  0.0765
 5329W        W 9380   1.577   3.621   3.550 -0.2484  0.4482 -0.5420
 5330W        W 9381   5.745   3.654   1.413  0.3558  0.1784 -0.1348
 5331W        W 9382   9.727   0.297  12.396  0.4252 -0.1570 -0.0542
 5332W        W 9383   2.301   1.211  12.983 -0.2236  0.0444  0.1967
 5333W        W 9384   5.605   5.808   0.239  0.0736 -0.4314  0.1347
 5334W        W 9385   9.183   0.155   3.104  0.2417  0.0231 -0.1854
 5335W        W 9386   6.237   0.726   3.744  0.0597  0.1353 -0.4008
 5336W        W 9387   2.014   1.994   4.020  0.1130 -0.2989 -0.0973
 5337W        W 9388   4.159   5.863  11.158 -0.5261  0.0583  0.3906
 5338W        W 9389   7.056   2.759   0.763  0.1431 -0.0868 -0.2328
 5339W        W 9390   2.632   3.809   0.172  0.2375 -0.2403  0.2070
 5340W        W 9391   5.793   9.537  11.075 -0.0916 -0.0729 -0.1491
 5341W        W 9392   0.815   2.009  12.307  0.1601 -0.1292  0.2127
 5342W        W 9393   1.851   1.332   9.119  0.1205 -0.2086 -0.0447
 5343W        W 9394   9.647   4.041   0.677 -0.1746  0.2832 -0.1689
 5344W        W 9395   8.874   6.914   9.305 -0.0651 -0.1368  0.0640
 5345W        W 9396   4.086   8.939  11.005  0.0001  0.1089 -0.2860
 5346W        W 9397   7.751   5.734  10.947  0.4080 -0.0093 -0.3167
 5347W        W 9398   8.276   6.292   1.595  0.2809  0.2717 -0.3865
 5348W        W 9399   5.783   1.600   1.428 -0.2359 -0.1411 -0.1520
 5349W        W 9400   4.750   0.190  10.450 -0.3081  0.3473  0.2585
 5350W        W 9401   6.623   7.813  11.628 -0.1104 -0.3111 -0.1527
 5351W        W 9402   8.208   3.513   0.485  0.0464  0.1246 -0.0593
 5352W        W 9403   2.837   2.240   4.100 -0.0972  0.0020  0.0237
 5353W        W 9404   2.149   9.284   4.159 -0.0981  0.0807 -0.0351
 5354W        W 9405   7.249   5.311   1.062  0.2817 -0.3759  0.0958
 5355W        W 9406   3.420   5.871   9.786  0.0130  0.2932 -0.1117
 5356W        W 9407   6.112   7.549   4.480  0.1623  0.0550 -0.1615
 5357W        W 9408   1.259   1.328  12.747 -0.1864 -0.0323  0.1754
 5358W        W 9409   8.210   8.474   3.880  0.0184 -0.0449  0.4708
 5359W        W 9410   6.496   5.299   0.524  0.0284 -0.3120  0.3560
 5360W        W 9411   4.755   1.580   1.704 -0.2399  0.2545 -0.1269
 5361W        W 9412   7.833   4.450  12.933 -0.1635  0.2456  0.1044
 5362W        W 9413   1.784   7.247   1.732  0.0125  0.2637  0.2298
 5363W        W 9414   4.337   8.358   9.816  0.2560 -0.2016 -0.0705
 5364W        W 9415   8.191   2.518   3.115 -0.0184  0.0272 -0.5183
 5365W        W 9416   7.833   0.077   4.839  0.3100  0.0900 -0.4127
 5366W        W 9417   7.584   1.686  12.654  0.1488  0.0738  0.0049
 5367W        W 9418   9.287   2.736  12.841  0.0471 -0.2377  0.0180
 5368W        W 9419   5.760   5.615   9.775  0.0418 -0.1462  0.3323
 5369W        W 9420   4.576   2.598   0.731  0.3138 -0.0682 -0.1142
 5370W        W 9421   3.389   3.111  11.813 -0.1416 -0.0689  0.2452
 5371W        W 9422  10.144   4.371   0.981 -0.1323 -0.0559  0.1007
 5372W        W 9423  10.098   9.796   0.325 -0.1170 -0.1533 -0.2939
 5373W        W 9424   0.137   1.970   1.082 -0.1408 -0.0531  0.3282
 5374W        W 9425   6.937   7.423   0.046  0.1456  0.3457 -0.0808
 5375W        W 9426   1.233   8.770   3.811  0.4039  0.0773  0.0263
 5376W        W 9427   0.073   0.071  11.712 -0.1912 -0.2388  0.0772
 5377W        W 9428   7.875   2.101   2.604  0.2211  0.1965  0.0584
 5378W        W 9429   1.693   1.903  13.713  0.1568  0.0076  0.1733
 5379W        W 9430   9.179   4.491   2.111 -0.4728 -0.0662  0.1866
 5380W        W 9431   5.693   6.405   9.968 -0.0362 -0.1018 -0.0084
 5381W        W 9432   4.283   1.293   2.252  0.0308 -0.0552 -0.0699
 5382W        W 9433   0.707   8.605  11.042  0.2414  0.0225  0.1445
 5383W        W 9434   0.491   2.970  10.420  0.3614  0.2609 -0.1720
 5384W        W 9435   5.372   2.829   3.042  0.4480 -0.1268  0.1393
 5385W        W 9436   0.407   4.576   3.347 -0.0300  0.0953  0.1164
 5386W        W 9437   9.308   9.006  11.391 -0.1777  0.2679 -0.0011
 5387W        W 9438   6.240   7.793  11.227 -0.1801  0.1756 -0.3640
 5388W        W 9439   8.549   3.928  11.849 -0.3629 -0.0177 -0.1498
 5389W        W 9440   0.671   6.584   0.410 -0.0490  0.1403 -0.0992
 5390W        W 9441   9.000   2.972   3.655  0.0618  0.0461 -0.1777
 5391W        W 9442   0.322   8.169  12.390 -0.5483  0.1785 -0.0731
 5392W        W 9443   0.738   0.153   4.920 -0.0355  0.1238 -0.1195
 5393W        W 9444   0.913   8.902   9.217  0.0158  0.0874  0.1597
 5394W        W 9445   3.026   0.470  13.935  0.2116  0.3114  0.1916
 5395W        W 9446   8.377   8.290   0.344  0.1794  0.3807 -0.0434
 5396W        W 9447   5.408   2.297  11.132  0.0677 -0.0294 -0.0919
 5397W        W 9448   8.603   4.466   4.594 -0.0932 -0.1174 -0.1648
 5398W        W 9449   7.036   0.185  13.038  0.0797 -0.2166  0.1714
 5399W        W 9450   2.125   3.801  10.222 -0.3493  0.0569  0.0006
 5400W        W 9451   6.806   4.303   0.887  0.1574  0.1304 -0.0689
 5401W        W 9452   4.183   5.852   4.448  0.1370  0.0394 -0.0505
 5402W        W 9453   0.877   4.292   1.382  0.1271  0.1329 -0.0122
 5403W        W 9454   3.329   7.540  13.711  0.1049 -0.1042  0.1426
 5404W        W 9455   2.545   8.513  10.955 -0.3261  0.1571 -0.5982
 5405W        W 9456   5.587   7.881  10.741 -0.0146  0.1246 -0.0483
 5406W        W 9457   3.632   6.950  11.684 -0.2761  0.0158  0.0823
 5407W        W 9458   4.327   4.918  13.266 -0.1153  0.0146 -0.1567
 5408W        W 9459   4.974   7.840   5.355  0.1845  0.0284  0.0311
 5409W        W 9460   9.325   1.656   9.914 -0.0339  0.2166  0.2033
 5410W        W 9461   4.536   2.024   1.714 -0.0315  0.0538 -0.1120
 5411W        W 9462   1.219   0.348   3.169  0.0136  0.1303  0.0202
 5412W        W 9463   0.223   6.523   3.936  0.0996 -0.0201  0.2089
 5413W        W 9464   6.178   6.122   1.706 -0.2909 -0.3302  0.2355
 5414W        W 9465   3.882   3.655  11.845  0.0480 -0.0624  0.1432
 5415W        W 9466   7.594   4.163  12.573  0.2895  0.0016  0.4147
 5416W        W 9467   1.081   4.327  13.352 -0.1851  0.0906 -0.1591
 5417W        W 9468   7.169   3.052  10.872 -0.1144  0.1015  0.0628
 5418W        W 9469   7.798   5.092   0.435 -0.0754 -0.1652 -0.0534
 5419W        W 9470   1.790   6.452   1.200  0.1509 -0.0574  0.0496
 5420W        W 9471   8.534   2.157   4.261 -0.3430 -0.1235 -0.2028
 5421W        W 9472   7.031   9.118  13.059  0.2285 -0.0186 -0.0790
 5422W        W 9473   0.307   6.163   3.629  0.0566  0.1143  0.0713
 5423W        W 9474   0.708   6.511   4.123 -0.3405 -0.0485  0.2176
 5424W        W 9475   9.935   7.592   4.735 -0.2838  0.3742 -0.1218
 5425W        W 9476   8.515   1.098   1.429  0.1582 -0.0802  0.0185
 5426W        W 9477   3.987   2.028   0.818 -0.1340 -0.1867  0.0061
 5427W        W 9478   1.147   8.911  10.814 -0.1081 -0.1089  0.2104
 5428W        W 9479   1.364   8.419   2.198 -0.0862  0.3081 -0.3864
 5429W        W 9480   2.500   5.313  10.729  0.0638  0.4439 -0.1053
 5430W        W 9481   9.930   3.845   2.195  0.0256  0.3350 -0.0309
 5431W        W 9482   9.345   5.352   0.467  0.3233 -0.1169  0.0193
 5432W        W 9483   4.512   1.161   2.688 -0.2134 -0.2950 -0.0437
 5433W        W 9484   5.719   2.114   3.727  0.2322 -0.0676 -0.1553
 5434W        W 9485   7.548   8.364   5.412  0.2809  0.0165  0.4749
 5435W        W 9486   1.417   6.749   0.886 -0.0639  0.0605 -0.0721
 5436W        W 9487   0.073   1.487  12.063 -0.1864  0.1411 -0.4107
 5437W        W 9488   5.584   6.754   1.163  0.0598  0.0374  0.4035
 5438W        W 9489   5.646   8.413  10.721 -0.0351  0.0601  0.3101
 5439W        W 9490   4.503   6.549   9.354  0.1386 -0.1074  0.0705
 5440W        W 9491   5.165   6.054   3.209 -0.1958  0.2014 -0.1439
 5441W        W 9492   0.158   1.827   2.043 -0.0589  0.2263  0.0882
 5442W        W 9493  10.158   9.903   9.701 -0.2241  0.0154  0.3061
 5443W        W 9494   1.514   7.959   3.387 -0.0770  0.0602 -0.1445
 5444W        W 9495   0.541   7.522   9.724 -0.1906 -0.0522  0.0769
 5445W        W 9496   3.371   5.386  10.038 -0.2341 -0.1898  0.2016
 5446W        W 9497   6.936   5.380   0.681 -0.0618  0.1455 -0.0586
 5447W        W 9498   1.130   6.648   4.285 -0.2684 -0.2535 -0.1530
 5448W        W 9499   5.239   3.561  10.949  0.2478  0.0933  0.0495
 5449W        W 9500   6.875   7.803   4.765  0.3679 -0.0038 -0.0752
 5450W        W 9501   8.924   4.396   3.830 -0.1477 -0.0401 -0.0504
 5451W        W 9502   3.849   5.934   2.319 -0.0287 -0.1497 -0.4586
 5452W        W 9503   7.401   7.588   9.334  0.3750  0.1295  0.2681
 5453W        W 9504   1.282   3.755  13.337  0.2423  0.1637  0.0655
 5454W        W 9505   8.913   6.459   2.333 -0.1228 -0.1053  0.2806
 5455W        W 9506   1.741   6.047  11.862  0.0231 -0.2220  0.3159
 5456W        W 9507   8.869   3.639   1.199  0.0275 -0.0440  0.0279
 5457W        W 9508   2.810   2.408  10.463  0.4144 -0.1643  0.3043
 5458W        W 9509   9.568   5.577   4.086  0.3886 -0.5329 -0.0097
 5459W        W 9510   7.678   6.581  10.264 -0.0036 -0.0431 -0.0862
 5460W        W 9511   4.009   4.678  10.259 -0.0854 -0.0513 -0.0417
 5461W        W 9512   5.954   2.447  11.273 -0.3187 -0.2113 -0.2527
 5462W        W 9513   3.579   8.830  12.831  0.1780  0.1943 -0.3717
 5463W        W 9514   9.001   9.574   2.282  0.3168  0.0243  0.1101
 5464W        W 9515   7.377   1.177   2.616  0.1708  0.4040  0.5353
 5465W        W 9516   2.896   0.310   9.982 -0.1436  0.0745  0.1450
 5466W        W 9517   2.659   3.370   2.062  0.0564  0.1109 -0.0365
 5467W        W 9518   2.053   5.697   2.736  0.1524 -0.3265  0.0796
 5468W        W 9519   2.622   9.878  13.067  0.0840  0.1301 -0.0803
 5469W        W 9520   9.064   1.781  13.645  0.1669  0.2187  0.1468
 5470W        W 9521   7.943   8.251   2.881  0.4130  0.2159  0.1313
 5471W        W 9522   8.695   2.392   2.267 -0.2334 -0.0204  0.0440
 5472W        W 9523   3.563   0.649   4.457  0.0086 -0.1928 -0.1599
 5473W        W 9524   3.544   3.409   8.929 -0.0885 -0.0283  0.0584
 5474W        W 9525   0.863   7.088  11.456 -0.0139 -0.1818  0.1238
 5475W        W 9526   2.826   8.221  11.269 -0.0303 -0.0317 -0.2904
 5476W        W 9527   4.133   7.082   3.130 -0.1470 -0.1356 -0.2336
 5477W        W 9528   1.900   8.304   2.031  0.1529  0.0790 -0.3416
 5478W        W 9529   9.383   6.508   4.603  0.0615  0.0869  0.1718
 5479W        W 9530   8.318   3.493  10.837  0.1657  0.0567 -0.1127
 5480W        W 9531   3.089   1.901   5.025 -0.1526 -0.1807  0.0666
 5481W        W 9532   1.206   9.689   3.008  0.1166  0.2379 -0.0470
 5482W        W 9533   6.784   1.380  11.032  0.0244 -0.0554 -0.0341
 5483W        W 9534   8.181   7.993   4.822  0.3434 -0.1962  0.2655
 5484W        W 9535   9.348   5.673   2.446  0.0548  0.2719  0.0408
 5485W        W 9536   6.957   1.703   0.782 -0.0845  0.0157  0.1945
 5486W        W 9537   3.641   2.703  11.613  0.2163  0.2113 -0.0026
 5487W        W 9538   7.053   1.487  13.322  0.2567  0.3587 -0.0432
 5488W        W 9539   8.725   3.928   1.553 -0.2880 -0.1373 -0.1305
 5489W        W 9540   5.950   5.812   3.244  0.1535  0.0887  0.0477
 5490W        W 9541  10.124   6.394   9.346  0.0394  0.0024  0.0512
 5491W        W 9542   5.858   8.287   1.648  0.3740 -0.1817  0.1160
 5492W        W 9543   3.245   3.655   9.962 -0.1953 -0.0141 -0.2566
 5493W        W 9544   5.735   2.662  13.132  0.0586  0.2597 -0.2132
 5494W        W 9545   6.934   4.963   2.162  0.1737  0.0233 -0.0772
 5495W        W 9546   9.879   6.895   2.122  0.1920 -0.3027  0.2920
 5496W        W 9547   3.558   8.301   1.437 -0.0353  0.2634 -0.2728
 5497W        W 9548   4.736   1.866  11.314 -0.1843 -0.2295  0.1966
 5498W        W 9549   0.162   4.533  12.074  0.0097 -0.3003 -0.1231
 5499W        W 9550   3.899   9.132  12.623 -0.4023 -0.1092 -0.2553
 5500W        W 9551   3.963   0.926   1.493 -0.2259 -0.3441 -0.2687
 5501W        W 9552   1.150   0.031   2.288  0.2250  0.0494 -0.0583
 5502W        W 9553   0.791   5.543   1.975 -0.1175  0.2178 -0.1579
 5503W        W 9554   3.285   8.227   5.024  0.1174 -0.0722 -0.0476
 5504W        W 9555   3.347   2.692  13.497 -0.1223 -0.1117  0.1099
 5505W        W 9556   6.899   1.428   1.193  0.0536 -0.0469 -0.0880
 5506W        W 9557   0.675   0.883  10.394  0.2024 -0.0088 -0.0163
 5507W        W 9558   7.570   7.371  10.267  0.0790 -0.0996  0.0094
 5508W        W 9559   2.845   8.218   3.069 -0.1200 -0.0247 -0.2602
 5509W        W 9560   3.725   3.350   0.180  0.2502  0.0193 -0.3014
 5510W        W 9561   1.671   3.669  10.075  0.0051  0.0144  0.1203
 5511W        W 9562   9.257   6.513   3.415  0.0944 -0.0716  0.1969
 5512W        W 9563   4.380   2.542  12.173 -0.0868 -0.0271 -0.0450
 5513W        W 9564   2.342   9.100   2.683  0.2381 -0.2620  0.2085
 5514W        W 9565   9.825   3.330   9.516 -0.0773  0.2276 -0.2119
 5515W        W 9566   0.254   1.563   2.953  0.1149 -0.1061 -0.0262
 5516W        W 9567   2.536   0.876  10.088  0.1416 -0.0858  0.1154
 5517W        W 9568   6.431   6.801  12.434 -0.1190  0.2655 -0.1806
 5518W        W 9569   4.167   7.936  13.699  0.2300 -0.2414 -0.2552
 5519W        W 9570   4.452   5.591  10.331  0.0800  0.0592 -0.1186
 5520W        W 9571   0.285   1.122   0.962 -0.0539  0.3000 -0.2960
 5521W        W 9572   6.215   0.986  10.338 -0.0996  0.0026  0.0798
 5522W        W 9573   8.536   0.152  12.340 -0.1177  0.1640  0.0895
 5523W        W 9574   9.910   3.097  13.143 -0.2598  0.1723 -0.1170
 5524W        W 9575   8.467   5.974   9.480 -0.1015  0.0070  0.1744
 5525W        W 9576   4.020   5.820   2.821 -0.0477  0.1199 -0.0098
 5526W        W 9577   0.524   4.796   1.636  0.1887  0.0323  0.0275
 5527W        W 9578   3.541   8.519  13.298 -0.4155 -0.0217  0.4047
 5528W        W 9579   4.826   4.225   2.806 -0.1036  0.1782 -0.1780
 5529W        W 9580   2.602   2.361  12.787 -0.0863  0.1084  0.2570
 5530W        W 9581   6.613   1.785   2.959 -0.2454 -0.2045  0.0331
 5531W        W 9582   9.099   2.898   0.269  0.1920 -0.0642 -0.2889
 5532W        W 9583   6.190   0.913  13.711  0.1362 -0.4374  0.2393
 5533W        W 9584   4.569   9.367  13.087  0.0712 -0.0439  0.0786
 5534W        W 9585   9.200   8.504   1.383 -0.1148  0.0254 -0.2833
 5535W        W 9586   5.392   8.022   5.078  0.1292 -0.1362 -0.0709
 5536W        W 9587   5.772   4.918   1.001  0.0852 -0.1241 -0.0347
 5537W        W 9588   2.761   2.210   1.329 -0.0130  0.3696  0.1562
 5538W        W 9589   9.210  10.100   1.389  0.1007 -0.0316  0.4255
 5539W        W 9590   5.855   8.149   4.812 -0.1269  0.0803 -0.0308
 5540W        W 9591   6.860   2.060  12.187  0.2385  0.1113 -0.0763
 5541W        W 9592   7.003   5.664  11.542 -0.0704  0.2372 -0.1358
 5542W        W 9593   6.804   7.325  12.891 -0.1580 -0.0415  0.0418
 5543W        W 9594   6.742   5.157   4.628  0.5311 -0.1623 -0.0985
 5544W        W 9595   0.931   6.196  11.467 -0.0282  0.0407  0.0900
 5545W        W 9596   3.942   3.198  10.616  0.1004  0.1083 -0.1380
 5546W        W 9597   6.235   8.138   5.179  0.1045 -0.1506  0.2093
 5547W        W 9598   0.158   5.555   1.572 -0.1835  0.0126 -0.2400
 5548W        W 9599   0.961   1.017  11.568  0.1036 -0.0043 -0.1013
 5549W        W 9600   0.924   8.471   1.053 -0.1469 -0.0844  0.2218
 5550W        W 9601   2.052   2.514   3.248 -0.0244 -0.2264 -0.0182
 5551W        W 9602   7.995   9.510  10.250  0.4358 -0.2285  0.1410
 5552W        W 9603   4.225   1.601   1.591  0.2500  0.1649 -0.0652
 5553W        W 9604   2.444   4.227   0.558  0.0524 -0.2352  0.0744
 5554W        W 9605   2.631   4.264  11.323  0.1184  0.2683  0.0100
 5555W        W 9606   4.914   7.038   4.895 -0.0015 -0.0965  0.1565
 5556W        W 9607   4.963   8.885  10.372 -0.1967  0.1727  0.1731
 5557W        W 9608   4.241   9.404   1.319 -0.1637 -0.1985  0.0762
 5558W        W 9609   3.530   1.242   4.471 -0.2367 -0.0316 -0.1108
 5559W        W 9610   5.158   1.587  13.526 -0.0474  0.1775 -0.2609
 5560W        W 9611   5.096   4.529   3.942  0.2795  0.2982  0.0748
 5561W        W 9612  10.147   3.689   1.788 -0.3403  0.3335 -0.0142
 5562W        W 9613   2.791   8.795   9.734 -0.0922 -0.2931  0.1848
 5563W        W 9614   2.610   0.890   4.627  0.1866  0.0766 -0.2362
 5564W        W 9615   6.191   9.267   2.224  0.1614 -0.0417 -0.0694
 5565W        W 9616   4.180   2.309   4.788 -0.1080 -0.0343  0.2484
 5566W        W 9617   7.790   7.488   3.960 -0.1694  0.1060 -0.0697
 5567W        W 9618   1.726  10.091   3.718  0.0294 -0.0227  0.0274
 5568W        W 9619   0.295   8.984   2.071 -0.0792 -0.0062 -0.1164
 5569W        W 9620   4.780   3.539  11.377  0.2274  0.0629  0.2019
 5570W        W 9621   9.293   7.995   1.285  0.0985 -0.3514  0.1317
 5571W        W 9622   7.160   7.148  11.003 -0.2692  0.3932 -0.0039
 5572W        W 9623   2.809   8.536   4.291  0.0560  0.1557  0.1164
 5573W        W 9624   5.140   8.333   2.037  0.1009  0.0235  0.1587
 5574W        W 9625   1.126   9.356  10.015 -0.1653 -0.2574  0.1859
 5575W        W 9626   3.504   0.635   1.496  0.0328  0.1296 -0.0549
 5576W        W 9627   3.419   4.071   9.732 -0.0334 -0.2217  0.0383
 5577W        W 9628  10.132   1.851  11.278 -0.0524  0.0348 -0.0140
 5578W        W 9629   7.515   6.601   1.944  0.3556  0.1132  0.3775
 5579W        W 9630   1.052   2.603   4.811  0.2356 -0.1395  0.1305
 5580W        W 9631   6.264   2.051  11.146  0.0092 -0.1387 -0.1523
 5581W        W 9632   7.857   1.703   3.082 -0.1066 -0.3745  0.1380
 5582W        W 9633   0.380   2.225  11.950 -0.3188  0.0825 -0.0242
 5583W        W 9634   2.562   5.690  10.393 -0.2857 -0.0852 -0.1228
 5584W        W 9635   9.715   5.819   2.139  0.2388  0.0879  0.0174
 5585W        W 9636   1.952   8.607  11.937 -0.2146  0.0424  0.2233
 5586W        W 9637   8.705   6.176   4.248  0.0751  0.0183  0.0573
 5587W        W 9638   9.360   1.939   1.148  0.4732 -0.0592 -0.2388
 5588W        W 9639   8.608   6.358   5.538 -0.2577 -0.2057 -0.2639
 5589W        W 9640   4.701   6.369  10.580 -0.1773 -0.2462 -0.2255
 5590W        W 9641   3.063   2.982  10.835  0.0933 -0.1517 -0.2893
 5591W        W 9642   1.421   0.572  13.561 -0.0119 -0.0022  0.1318
 5592W        W 9643   0.447   8.951   1.565 -0.0170 -0.3188  0.1865
 5593W        W 9644   7.060   9.482  11.873  0.2066  0.0936 -0.1569
 5594W        W 9645   2.805   9.602   0.852  0.0939  0.1548  0.1241
 5595W        W 9646   3.433   5.079  13.104  0.0416 -0.3307  0.2234
 5596W        W 9647   6.654   9.042   2.065  0.1135 -0.0350  0.2503
 5597W        W 9648   0.701   4.972   3.418 -0.1184  0.0731  0.1134
 5598W        W 9649   6.874   6.971   4.101  0.1461 -0.0041  0.0995
 5599W        W 9650   4.509   3.669  12.535 -0.0935  0.0545  0.1705
 5600W        W 9651   6.939   4.168   1.609 -0.0672  0.2806 -0.1571
 5601W        W 9652   6.522   5.023  13.937  0.3135 -0.0189 -0.0535
 5602W        W 9653   2.068   6.405  12.047 -0.0378 -0.1262  0.0183
 5603W        W 9654   3.571   4.831  12.679  0.0996 -0.0425  0.1081
 5604W        W 9655   5.915   0.092   0.508  0.0398  0.1089  0.0646
 5605W        W 9656   0.479   8.161   1.289  0.1188 -0.1122 -0.1389
 5606W        W 9657   6.373   0.810  11.976 -0.1585 -0.1674 -0.1171
 5607W        W 9658   8.723   1.125   1.891  0.2832 -0.3086  0.2484
 5608W        W 9659   9.022   5.094  13.395  0.0804 -0.1613 -0.1215
 5609W        W 9660   2.838   1.078   2.806  0.0047 -0.2535 -0.3294
 5610W        W 9661   8.106   9.570   2.028 -0.0379 -0.1166  0.0755
 5611W        W 9662   3.681   8.013  10.088 -0.1530 -0.2784 -0.0073
 5612W        W 9663   1.897  10.106  11.548  0.3523  0.0182 -0.1335
 5613W        W 9664   9.846   2.089   1.982 -0.1987 -0.1015  0.1558
 5614W        W 9665   4.091   9.761   9.823 -0.0228  0.1855 -0.0336
 5615W        W 9666   0.439   0.898  11.416 -0.2662  0.2291 -0.1285
 5616W        W 9667   2.880   4.423  12.627 -0.2234 -0.1212 -0.1105
 5617W        W 9668   4.934   9.209   5.142  0.0945  0.0411 -0.1000
 5618W        W 9669   5.856   7.300   2.318 -0.2682  0.1366 -0.1102
 5619W        W 9670   6.219   9.651  11.376 -0.2165 -0.1345  0.3311
 5620W        W 9671   6.575   2.680  12.000  0.2189  0.1794 -0.1331
 5621W        W 9672   1.382   7.920   0.160  0.0185 -0.0821 -0.0271
 5622W        W 9673   6.537   2.607   4.041 -0.0984 -0.1926 -0.2578
 5623W        W 9674   3.765   1.570  12.796 -0.1236  0.1842 -0.0806
 5624W        W 9675   6.111   5.593  11.417  0.3740 -0.1124  0.0899
 5625W        W 9676   6.500   8.772   9.943 -0.0180  0.0996  0.0117
 5626W        W 9677   9.525   8.012   9.958  0.0270  0.0677  0.2034
 5627W        W 9678   6.026   5.599  10.230  0.2161 -0.1291 -0.1793
 5628W        W 9679   4.106   7.331   2.683  0.1460 -0.2609  0.5354
 5629W        W 9680   8.626   0.724  10.469 -0.0754  0.1838  0.0781
 5630W        W 9681   9.008   3.950   3.455  0.2721 -0.0497  0.0716
 5631W        W 9682   8.137   7.574  13.222 -0.1397 -0.2716  0.1755
 5632W        W 9683   5.311   8.844  12.040  0.0338  0.1485 -0.0963
 5633W        W 9684   2.722   1.584  11.964 -0.5094  0.2186  0.0566
 5634W        W 9685   2.056  10.097   1.188  0.0994  0.2032  0.4608
 5635W        W 9686   9.127   5.948   4.300 -0.2061 -0.0838  0.1658
 5636W        W 9687   0.672   1.663  13.364 -0.1611  0.1813 -0.1611
 5637W        W 9688   3.475   6.691  10.560 -0.4846  0.2284  0.2839
 5638W        W 9689   4.273   3.600   9.347  0.2154  0.3084  0.0910
 5639W        W 9690   6.527   9.624   0.825 -0.1790  0.1845 -0.0762
 5640W        W 9691   8.937   8.428   2.160  0.1055 -0.1386  0.1756
 5641W        W 9692   9.737   3.378   3.420 -0.0138 -0.0872  0.1173
 5642W        W 9693   8.094   7.331   0.147 -0.1859 -0.1184 -0.0333
 5643W        W 9694   9.341   0.444   0.556 -0.1303 -0.3585 -0.0078
 5644W        W 9695   6.456   6.817   1.019 -0.2075 -0.1784 -0.0813
 5645W        W 9696   3.816   3.144  11.343 -0.2135  0.0464  0.0407
 5646W        W 9697   2.761   1.070   8.877 -0.2177 -0.0603  0.4158
 5647W        W 9698   2.042   8.727  13.430  0.1457 -0.3247  0.1096
 5648W        W 9699   1.132   2.339   3.278  0.4697 -0.2156  0.3258
 5649W        W 9700   3.353   6.895   3.115  0.1828  0.0970 -0.0611
 5650W        W 9701   3.370   9.104   3.709  0.3960  0.1036  0.0919
 5651W        W 9702   0.236   2.729   9.153  0.0269  0.0630 -0.1302
 5652W        W 9703  10.138   5.990  11.931  0.2388 -0.1317  0.0433
 5653W        W 9704   3.401   1.997   1.656 -0.1950  0.0014  0.1799
 5654W        W 9705   9.724   8.721   0.631  0.1343 -0.0723  0.1100
 5655W        W 9706  10.097   8.597   0.925 -0.2572 -0.5971  0.3361
 5656W        W 9707   4.544   9.746   2.358 -0.0423 -0.0243 -0.1957
 5657W        W 9708   8.560   4.202   4.151  0.0365  0.3646 -0.0017
 5658W        W 9709   3.422   6.353   5.514  0.0752 -0.1264 -0.0144
 5659W        W 9710   0.703   0.200   2.615 -0.1343 -0.1499 -0.2969
 5660W        W 9711   6.359   9.929   0.446 -0.1576 -0.0279 -0.0722
 5661W        W 9712   5.701   8.427   4.438  0.0842 -0.3189  0.0760
 5662W        W 9713   4.598   7.737  11.977  0.0235  0.2230  0.1393
 5663W        W 9714   6.386   7.869  10.330 -0.0700  0.0289  0.1198
 5664W        W 9715   7.983   7.361   8.584  0.0032 -0.1292 -0.0789
 5665W        W 9716   9.994   3.419  11.206 -0.1082  0.3090 -0.2876
 5666W        W 9717   4.015   2.375   2.932 -0.0015 -0.2292 -0.4657
 5667W        W 9718   6.251   3.995   2.113  0.3167  0.1784  0.0616
 5668W        W 9719   4.994   6.603   3.952  0.0096  0.0999  0.1562
 5669W        W 9720   6.476   7.821   3.609  0.3837 -0.0328 -0.0027
 5670W        W 9721   4.510   7.333   4.884 -0.0601 -0.0291 -0.1000
 5671W        W 9722   2.996   7.659  13.313  0.0632  0.0854 -0.0713
 5672W        W 9723   2.924   1.949   0.380 -0.0350  0.0602 -0.3079
 5673W        W 9724   9.593   0.008   0.604 -0.2880 -0.1322  0.1486
 5674W        W 9725   4.090   8.376  10.265 -0.1007  0.0327 -0.3899
 5675W        W 9726   9.524   5.177   2.507  0.1992 -0.0342 -0.0762
 5676W        W 9727   0.273   8.855   9.746 -0.1276  0.1053 -0.4994
 5677W        W 9728   4.417   8.332  11.565  0.1684  0.1638  0.0369
 5678W        W 9729   0.046   0.285  12.222  0.2246  0.0341  0.0371
 5679W        W 9730   0.892   3.952   0.994  0.1211 -0.0592  0.0126
 5680W        W 9731   9.282   1.476  11.314 -0.0290  0.2485  0.1822
 5681W        W 9732   8.112   6.997  12.010  0.1471  0.3549  0.1961
 5682W        W 9733   9.823   1.121   2.404  0.0206 -0.0752 -0.1064
 5683W        W 9734   0.633   1.350   4.163  0.1064  0.0013  0.0180
 5684W        W 9735   8.572   1.521   2.402  0.1779  0.0857  0.1704
 5685W        W 9736   4.829   8.138   4.975  0.2699  0.1339  0.1877
 5686W        W 9737   8.795   6.480  11.971 -0.2254  0.1994 -0.1211
 5687W        W 9738   1.943   9.682  12.137 -0.3234  0.1974  0.1633
 5688W        W 9739   6.961   5.885   2.917 -0.2531 -0.1178 -0.2342
 5689W        W 9740   4.906   0.646  11.413 -0.0885 -0.0486 -0.0644
 5690W        W 9741   9.054   2.334  12.017  0.3288 -0.1462  0.0986
 5691W        W 9742   2.181   9.267   1.549 -0.0064 -0.1289 -0.0235
 5692W        W 9743   4.732   8.259   0.955  0.0897  0.4077  0.4530
 5693W        W 9744   1.058   3.341  13.198 -0.1421 -0.0668 -0.0316
 5694W        W 9745   9.543   8.579   0.160  0.1240  0.2029  0.0641
 5695W        W 9746   2.617   9.296   5.440 -0.0548 -0.2741 -0.1057
 5696W        W 9747   3.316   2.608  10.470 -0.5349 -0.1830 -0.2488
 5697W        W 9748   9.159   0.613   1.104  0.2046  0.3549 -0.4491
 5698W        W 9749   7.296   6.311   1.199  0.0738  0.1575  0.1557
 5699W        W 9750   5.689   8.116   1.240  0.4250  0.0221 -0.1866
 5700W        W 9751   3.270   9.445   1.143  0.1047  0.0251  0.0340
 5701W        W 9752   4.655   1.127  11.282  0.0178  0.0514 -0.0178
 5702W        W 9753   4.794   2.550   2.682  0.2184 -0.1766  0.1128
 5703W        W 9754   5.304   5.043  11.774 -0.0191  0.0370  0.0344
 5704W        W 9755   9.650   0.250  10.805 -0.0869  0.0636  0.1269
 5705W        W 9756   3.768   7.002   1.848 -0.0629 -0.1089  0.1156
 5706W        W 9757   4.437   6.156   4.782 -0.3876  0.1417  0.1146
 5707W        W 9758   8.190   5.862   1.236  0.1304 -0.0685  0.0352
 5708W        W 9759   1.120   4.509  12.845 -0.2602 -0.1206 -0.1268
 5709W        W 9760   2.056   2.216   2.245 -0.0655  0.3263  0.0636
 5710W        W 9761   6.114   5.913   0.267 -0.2614  0.2121 -0.3389
 5711W        W 9762   6.416   6.297  12.337  0.0641  0.0146 -0.0190
 5712W        W 9763   8.070   4.968  10.452 -0.3202  0.0386  0.0421
 5713W        W 9764   6.190   6.422   2.536  0.1828  0.1546  0.5329
 5714W        W 9765   2.716   0.510  12.647  0.1139 -0.4316 -0.0153
 5715W        W 9766   3.042   4.868  12.858 -0.0369  0.1339  0.1326
 5716W        W 9767   1.929   4.123  12.855 -0.0285  0.1383 -0.0462
 5717W        W 9768   6.652   5.846   0.554  0.0774 -0.0819 -0.0186
 5718W        W 9769   7.217   9.991   4.089  0.2534  0.0498 -0.0321
 5719W        W 9770   7.527   1.172   0.301  0.1460  0.2911 -0.0192
 5720W        W 9771   1.353   0.166   1.823  0.0296  0.1026 -0.1982
 5721W        W 9772   0.268   6.968  10.547  0.2346 -0.0237  0.1450
 5722W        W 9773   2.187   9.115  13.053 -0.3131  0.0714  0.1876
 5723W        W 9774   0.254   8.390   4.256  0.1780  0.0119 -0.2603
 5724W        W 9775   1.584   4.031  10.419 -0.0344  0.1990 -0.1849
 5725W        W 9776   0.100   0.818  13.282  0.0007 -0.1931  0.2049
 5726W        W 9777   8.346   9.074  12.530  0.1247 -0.2704  0.0679
 5727W        W 9778   3.341   6.233  12.317  0.2003  0.0731  0.3350
 5728W        W 9779   8.326   4.841   3.083 -0.1442  0.0854  0.2036
 5729W        W 9780   7.978   0.641   0.373  0.1609  0.0080 -0.1022
 5730W        W 9781   4.334   4.762   3.685  0.2814  0.1046 -0.0544
 5731W        W 9782   3.093   9.453  13.928 -0.1188  0.3652 -0.5064
 5732W        W 9783   5.206   6.024   1.318 -0.2124  0.1451  0.2669
 5733W        W 9784   9.190   5.254  10.540 -0.2865 -0.0248 -0.1244
 5734W        W 9785   2.697   6.857   9.471 -0.1010 -0.0636  0.0963
 5735W        W 9786   7.249   6.788   3.770 -0.3124  0.1770 -0.0766
 5736W        W 9787   6.139   5.075   0.790  0.0404 -0.1231  0.1685
 5737W        W 9788   8.935   2.926  11.198 -0.0963 -0.1916  0.2269
 5738W        W 9789   0.758   1.995  10.689 -0.0835  0.2170  0.2119
 5739W        W 9790   3.172   2.666   0.927  0.0560  0.1031  0.2745
 5740W        W 9791   6.252   0.630  12.648  0.0577 -0.0938 -0.2801
 5741W        W 9792   5.973   5.819  10.847 -0.1632  0.2528  0.1255
 5742W        W 9793   6.659   0.647  13.783 -0.0127  0.0096  0.2594
 5743W        W 9794   1.360   1.078  11.180  0.4141 -0.1183  0.0905
 5744W        W 9795   5.312   4.810  11.359 -0.1723 -0.1624  0.0145
 5745W        W 9796   1.289   1.912  12.537  0.3190  0.1409 -0.1951
 5746W        W 9797   7.128   1.918  10.005 -0.2290 -0.0373 -0.0947
 5747W        W 9798   0.697   3.397   3.999  0.0548 -0.0456 -0.1376
 5748W        W 9799   8.607   4.297   1.897 -0.1978  0.0134  0.1662
 5749W        W 9800   1.943   3.135  11.693  0.3488 -0.0511 -0.1715
 5750W        W 9801   8.939   8.145   2.856 -0.0913  0.1290  0.0884
 5751W        W 9802   2.226   3.568   0.014  0.0437  0.0163  0.1500
 5752W        W 9803   2.569   5.132   2.660  0.0731  0.1304 -0.0176
 5753W        W 9804   5.195   8.632   4.336  0.0322  0.1400 -0.1730
 5754W        W 9805   0.980   8.481  11.842  0.0743  0.0424  0.1134
 5755W        W 9806   8.297   1.510  10.063 -0.2100 -0.0401 -0.4023
 5756W        W 9807   2.564   4.822  13.860 -0.1481 -0.2671 -0.1945
 5757W        W 9808   3.079   0.793   2.423  0.0409 -0.1698 -0.2192
 5758W        W 9809   6.469   2.374   1.061 -0.0264 -0.4450 -0.1999
 5759W        W 9810   9.093   5.266  11.506 -0.2035  0.0022 -0.1179
 5760W        W 9811   0.404   8.909   4.287  0.0576 -0.0823  0.0657
 5761W        W 9812   7.758   4.666   9.710  0.1261 -0.3169  0.3781
 5762W        W 9813   6.190   6.481  11.432 -0.2494 -0.3514  0.0796
 5763W        W 9814   3.543   3.691  13.433 -0.1038 -0.1668  0.4886
 5764W        W 9815   8.919   9.808   3.106  0.1804 -0.1377  0.0291
 5765W        W 9816   9.275   7.004   4.674 -0.3443 -0.1901 -0.0261
 5766W        W 9817   9.644   7.582   8.780  0.2453 -0.1049 -0.1268
 5767W        W 9818   5.764   4.393   3.714  0.0645  0.1283  0.3259
 5768W        W 9819   1.987   0.605   9.489 -0.1306 -0.2890 -0.2042
 5769W        W 9820   8.962   5.709   0.614 -0.2253 -0.3404  0.3389
 5770W        W 9821   8.693   2.845   2.042 -0.1414 -0.2210 -0.2181
 5771W        W 9822   4.415   3.227   3.579 -0.0919 -0.1033  0.0229
 5772W        W 9823   3.031   3.555  12.417  0.0991  0.0744 -0.0312
 5773W        W 9824   6.785   0.138   1.172  0.0277  0.0911 -0.4073
 5774W        W 9825   8.122   5.309  10.009  0.3936 -0.1114 -0.0255
 5775W        W 9826   8.619   3.416  11.836 -0.0520  0.2234  0.2211
 5776W        W 9827   6.020   3.807   0.985  0.0511  0.0150 -0.0498
 5777W        W 9828   8.241   7.368   3.035  0.0234 -0.4016  0.2593
 5778W        W 9829   1.524   9.757   4.666  0.1603 -0.0091 -0.0733
 5779W        W 9830   2.994   6.075   2.644  0.2543  0.2402  0.2729
 5780W        W 9831   2.129   5.416  10.287  0.2926  0.2461  0.0547
 5781W        W 9832   7.573   4.875  13.001  0.2049  0.0032 -0.1205
 5782W        W 9833   5.514   1.674   3.618  0.0500 -0.0609  0.1644
 5783W        W 9834   1.227   6.794  11.991  0.0167  0.0060 -0.0489
 5784W        W 9835   9.925   1.568   2.069 -0.1965 -0.0304 -0.3197
 5785W        W 9836   3.548   1.147  13.574  0.1118  0.3329  0.2395
 5786W        W 9837   6.761   7.830  11.072 -0.0485  0.0951  0.5310
 5787W        W 9838   9.880   0.315  11.870  0.2068  0.0217  0.1535
 5788W        W 9839   3.754   2.130  12.872 -0.3064 -0.1138  0.0592
 5789W        W 9840   7.196   8.949  12.170  0.2775 -0.0626 -0.0058
 5790W        W 9841   2.116   7.369  13.841  0.0085 -0.0283  0.0246
 5791W        W 9842   8.529  10.013  11.005 -0.4528  0.0409 -0.2351
 5792W        W 9843   8.622   8.218   4.748 -0.2369  0.0852 -0.4223
 5793W        W 9844   9.460   8.436   4.258  0.5884  0.2979 -0.1193
 5794W        W 9845   2.336   9.964  11.935  0.0990  0.1766 -0.1207
 5795W        W 9846   6.477   6.527   0.576  0.3348 -0.0640  0.0517
 5796W        W 9847   1.793   3.200   9.831  0.3284  0.1113  0.3230
 5797W        W 9848   6.801   8.048   1.582  0.0021 -0.0503 -0.2723
 5798W        W 9849   5.591   7.165  13.083  0.0438  0.0175 -0.2940
 5799W        W 9850   6.158   2.973  12.356 -0.1512 -0.0081 -0.1737
 5800W        W 9851   2.755   3.391  12.803 -0.1296  0.1999 -0.1124
 5801W        W 9852   1.670   2.098   0.398 -0.1462  0.1848  0.2337
 5802W        W 9853   5.363   6.851   4.164 -0.5747 -0.1158  0.2953
 5803W        W 9854   5.190   2.087   2.564 -0.2112 -0.0086  0.0666
 5804W        W 9855   8.730   8.676   1.278 -0.0604  0.0010 -0.2566
 5805W        W 9856   4.568   1.446  10.640  0.1347  0.1101 -0.2442
 5806W        W 9857   9.909   8.472  11.155 -0.2214  0.0113  0.0692
 5807W        W 9858   0.618   5.692   2.977  0.1737  0.1494  0.2143
 5808W        W 9859   4.079   4.360  11.363 -0.0435 -0.1712  0.1560
 5809W        W 9860   5.857   9.113   5.958 -0.0411  0.0725 -0.0029
 5810W        W 9861   3.248   9.977   0.855  0.3813 -0.1457  0.1351
 5811W        W 9862   1.936   3.277  10.257  0.0465 -0.1056 -0.2497
 5812W        W 9863   6.273   1.537   1.583  0.0606  0.0954 -0.2826
 5813W        W 9864   3.181   4.631   1.796  0.0514  0.0267 -0.0602
 5814W        W 9865   4.154   3.294   1.656  0.1380  0.0310 -0.1093
 5815W        W 9866   4.421   9.313   1.840  0.0221  0.1057 -0.2546
 5816W        W 9867   3.739   7.709  12.086 -0.0151 -0.2759  0.1768
 5817W        W 9868   8.999   6.897   3.163  0.3828 -0.1036  0.3873
 5818W        W 9869   5.955   7.468  11.538 -0.1369 -0.2471 -0.0870
 5819W        W 9870   5.655   0.109   4.234 -0.2203  0.0959 -0.0828
 5820W        W 9871   2.511   4.111  10.248 -0.1495  0.2507  0.1919
 5821W        W 9872   5.623   7.575   2.985  0.1848 -0.0139 -0.0495
 5822W        W 9873   1.604   1.450   2.809  0.2716  0.1647  0.2910
 5823W        W 9874   7.023   5.522   1.558  0.0447  0.0913 -0.2647
 5824W        W 9875   2.882   5.001  11.020 -0.0163 -0.3332 -0.1445
 5825W        W 9876   2.962   7.261   9.223  0.1070 -0.1042  0.0788
 5826W        W 9877   4.677   3.150  10.037 -0.1081 -0.3958  0.0618
 5827W        W 9878   7.698   6.348   1.562  0.2207  0.1842 -0.2010
 5828W        W 9879   3.450   4.751  13.596  0.1339  0.3622 -0.1895
 5829W        W 9880   5.235   0.890  12.901 -0.0280  0.5033 -0.0484
 5830W        W 9881   1.202   3.119   1.534  0.3510 -0.0937 -0.0148
 5831W        W 9882   4.625   4.558   1.802 -0.0120 -0.1202 -0.0012
 5832W        W 9883   4.018   7.264   0.803  0.0736  0.0839 -0.3382
 5833W        W 9884   5.102   0.045   1.452 -0.1720  0.5132 -0.0684
 5834W        W 9885   8.486   9.330   2.297 -0.0695  0.0392  0.0466
 5835W        W 9886   9.172   8.259   4.630  0.3914 -0.1152 -0.2684
 5836W        W 9887   2.902   6.261  12.635 -0.0612  0.1217  0.1228
 5837W        W 9888   4.487   3.821   3.691 -0.2671  0.1017 -0.0865
 5838W        W 9889   9.105  10.056   4.625  0.2663  0.1584 -0.2756
 5839W        W 9890   5.077   4.225   4.963 -0.2051 -0.0921  0.1341
 5840W        W 9891   9.661   9.980   1.327  0.0385  0.0209  0.0166
 5841W        W 9892   5.621   4.908  12.844  0.0223  0.0686 -0.0171
 5842W        W 9893   9.147   9.978   3.859 -0.1279 -0.0451 -0.1494
 5843W        W 9894  10.108   1.135   9.912 -0.0340  0.1328 -0.0426
 5844W        W 9895   6.516   2.857   2.587 -0.0780  0.0652 -0.3635
 5845W        W 9896   7.260   2.980   2.874 -0.2028  0.3165  0.1970
 5846W        W 9897   6.340   7.334   3.458 -0.1477 -0.1434 -0.1034
 5847W        W 9898   0.768   6.281  12.417  0.1708  0.0265  0.1795
 5848W        W 9899   9.433   8.881   3.506  0.2347  0.1517 -0.1849
 5849W        W 9900   9.482   4.645   0.207  0.1131  0.0656 -0.1376
 5850W        W 9901   3.046   2.480  10.000  0.3279  0.1605  0.0421
 5851W        W 9902   6.216   9.935   1.838 -0.0300  0.2017  0.0115
 5852W        W 9903   2.304   9.058   4.751 -0.4516  0.1571  0.2443
 5853W        W 9904   4.438   9.915  10.776 -0.4858  0.0591 -0.0898
 5854W        W 9905   7.097   6.498   4.171  0.1536 -0.2578 -0.0860
 5855W        W 9906   2.228   4.085  13.215  0.1844 -0.1453 -0.1529
 5856W        W 9907   7.387   7.632  12.801  0.2610 -0.2414  0.2254
 5857W        W 9908   6.058   6.865   9.957  0.0631  0.0406  0.1837
 5858W        W 9909   6.079   6.443   9.643  0.0956 -0.0140  0.0912
 5859W        W 9910  10.122   0.900   4.926  0.1347 -0.1444 -0.0767
 5860W        W 9911   4.632   5.923   1.262 -0.1484 -0.0271 -0.2042
 5861W        W 9912   8.091   2.573   0.308 -0.0664  0.0442  0.1682
 5862W        W 9913   2.921   6.273  13.134  0.2610 -0.2068  0.0588
 5863W        W 9914   1.952   0.173   9.898 -0.0969  0.3889 -0.4649
 5864W        W 9915   9.043   1.509   2.595 -0.1428 -0.0135 -0.1764
 5865W        W 9916   6.169   2.943  12.902  0.2142 -0.2423  0.0096
 5866W        W 9917   2.202   2.827   8.988 -0.1305 -0.2600 -0.0239
 5867W        W 9918   4.400   4.612   0.708 -0.1063 -0.1471 -0.0919
 5868W        W 9919   4.947   0.935   1.995  0.2290  0.1527 -0.1134
 5869W        W 9920   3.622   2.975   0.836 -0.0302  0.0317 -0.0174
 5870W        W 9921   2.775   7.886  13.731  0.1949 -0.1551 -0.0334
 5871W        W 9922   3.304   0.642   3.380 -0.1057  0.0682  0.2536
 5872W        W 9923   4.542   4.182   1.008  0.1978  0.2541 -0.1944
 5873W        W 9924   9.894   1.680  10.619  0.1885  0.3237  0.0114
 5874W        W 9925   6.673   4.019   2.561  0.0732  0.2968 -0.0695
 5875W        W 9926   8.688   9.699   5.271 -0.0066 -0.1946  0.1460
 5876W        W 9927   4.142   4.748  12.047 -0.1519 -0.2373  0.0679
 5877W        W 9928   2.860   7.730   0.386  0.0751 -0.1557  0.0142
 5878W        W 9929   7.202   4.308   2.002 -0.0071 -0.5173  0.1015
 5879W        W 9930   3.499   5.541  10.695 -0.0570 -0.0875 -0.1407
 5880W        W 9931   6.609   3.671   2.217 -0.0220  0.0476 -0.0566
 5881W        W 9932   0.953  10.003  13.630 -0.2701 -0.0749 -0.1164
 5882W        W 9933   7.607   3.175  12.752  0.0292 -0.0929 -0.2532
 5883W        W 9934   9.416   6.897   9.468  0.2980 -0.1766 -0.0592
 5884W        W 9935   6.179  10.053   2.728  0.1721 -0.0686 -0.1351
 5885W        W 9936   6.932   0.171  12.129  0.2563 -0.1930  0.0786
 5886W        W 9937   6.720   7.423  10.682  0.3359 -0.1532  0.1753
 5887W        W 9938   6.295   5.127   3.842 -0.3576 -0.3039 -0.1675
 5888W        W 9939   6.254   6.767  11.875  0.6800  0.0963  0.2888
 5889W        W 9940   6.408   8.195  12.338  0.1426  0.0224 -0.1850
 5890W        W 9941   6.663   1.529   2.555  0.1018  0.3878  0.1870
 5891W        W 9942   2.504   4.767   3.037 -0.3460  0.2373 -0.1390
 5892W        W 9943   4.566   8.682   0.757 -0.0346 -0.1901  0.1226
 5893W        W 9944   7.386   2.440  13.366 -0.0878 -0.1013  0.2474
 5894W        W 9945   2.178   7.397   1.449 -0.0253  0.0685  0.2949
 5895W        W 9946   4.212   0.814   8.926  0.0798  0.0287  0.1185
 5896W        W 9947   5.127   7.759   9.052 -0.2516 -0.1973  0.0672
 5897W        W 9948   9.559   1.882   1.607 -0.2735  0.0144 -0.2400
 5898W        W 9949   2.706   4.410   3.966 -0.0197 -0.1023  0.0774
 5899W        W 9950   4.825   3.657   4.093  0.3820 -0.0399  0.0413
 5900W        W 9951   7.350   9.256   5.283  0.0418  0.0404 -0.5294
 5901W        W 9952   8.163   7.896   0.167 -0.1256  0.2708  0.0525
 5902W        W 9953   7.827   7.745  11.833 -0.2389  0.2795  0.1186
 5903W        W 9954   1.620   5.247   4.221 -0.2498 -0.0498  0.2787
 5904W        W 9955   9.495   8.039   0.291  0.2701 -0.1279 -0.1074
 5905W        W 9956   4.597   7.976   2.886  0.1443 -0.0246 -0.0744
 5906W        W 9957   6.410   5.494   4.202 -0.0461  0.1862  0.1356
 5907W        W 9958   3.351   3.602   3.670  0.1695 -0.0918 -0.0015
 5908W        W 9959   8.664   0.196  10.697 -0.0391  0.2696 -0.0894
 5909W        W 9960   4.554   0.113   3.537  0.1257  0.0852  0.1151
 5910W        W 9961   6.447   0.259   0.434 -0.0060 -0.1440 -0.1658
 5911W        W 9962   8.077   4.251  12.484  0.0371  0.0594  0.2527
 5912W        W 9963   4.103   5.019  10.667  0.1455  0.0113  0.4469
 5913W        W 9964   4.134   9.413  10.773 -0.2950 -0.0377  0.0073
 5914W        W 9965  10.104   3.371   9.983  0.0381 -0.2176  0.1809
 5915W        W 9966  10.111   8.598   0.354  0.1314 -0.0551 -0.1508
 5916W        W 9967   5.969   2.527  10.306 -0.0290  0.2100  0.1594
 5917W        W 9968   9.319   5.807  13.683  0.0903  0.0247  0.1497
 5918W        W 9969   5.669   3.758  11.811  0.1529  0.0600  0.1201
 5919W        W 9970   2.062   1.622  10.366 -0.1060  0.0451 -0.0275
 5920W        W 9971   3.779   7.916   1.826 -0.2649 -0.1375  0.3687
 5921W        W 9972   6.943   6.729  10.127  0.0585 -0.1445 -0.0532
 5922W        W 9973   6.892   6.859  10.664  0.0303  0.2932 -0.4143
 5923W        W 9974   7.865   4.652   4.095  0.0447 -0.2857  0.0565
 5924W        W 9975   4.378   1.321   0.562  0.1977  0.0457  0.0774
 5925W        W 9976   3.519   7.242   2.421  0.4894 -0.0034 -0.2015
 5926W        W 9977   2.742   1.448  13.076 -0.4973  0.0774 -0.3871
 5927W        W 9978   7.732   5.601   0.296 -0.3560  0.0452 -0.1056
 5928W        W 9979   6.770   9.059   0.470 -0.0344  0.0624 -0.3307
 5929W        W 9980   9.436   9.672  13.774  0.1794  0.4345 -0.1232
 5930W        W 9981   1.682   7.285  13.500  0.2768 -0.1027 -0.1644
 5931W        W 9982   9.125   3.887  11.193 -0.0673  0.2106 -0.1333
 5932W        W 9983   3.937   8.042   4.289  0.1417 -0.0866  0.0068
 5933W        W 9984   0.330   3.312   1.837 -0.1800  0.1098  0.1866
 5934W        W 9985   3.152   3.171   2.071 -0.0536 -0.2124  0.2764
 5935W        W 9986   5.064   9.708   3.831 -0.2653 -0.0598  0.0488
 5936W        W 9987   4.323   8.209   2.611  0.1439  0.0099  0.0987
 5937W        W 9988   8.645   7.932   0.078  0.0705 -0.2533 -0.1913
 5938W        W 9989   8.331   8.355  10.856 -0.0778  0.0579  0.0557
 5939W        W 9990   2.000   2.601   3.790 -0.1793  0.0873  0.2417
 5940W        W 9991   6.186   2.971   3.788 -0.0568  0.0353 -0.0077
 5941W        W 9992   7.412   3.085  11.947 -0.0715  0.1932  0.0710
 5942W        W 9993   5.144   1.356  11.977 -0.0627 -0.1401  0.0894
 5943W        W 9994   0.178   3.472   1.376  0.0180  0.0499  0.0108
 5944W        W 9995   6.373   6.611   1.823  0.2337 -0.2224 -0.1464
 5945W        W 9996   3.726   7.247  10.794 -0.1727  0.0327 -0.0150
 5946W        W 9997   9.563   9.334   4.541 -0.0999  0.1050  0.2350
 5947W        W 9998   5.050   7.644  13.820  0.1682 -0.0834 -0.0400
 5948W        W 9999   7.497   9.589   4.362 -0.1307  0.1348  0.1764
 5949W        W10000   2.760   0.117   1.662  0.4124  0.0674  0.3935
 5950W        W10001   9.452   7.871   0.809  0.0617 -0.0596  0.2279
 5951W        W10002   7.810   5.829  13.800  0.2130  0.1545  0.1123
 5952W        W10003   3.318   5.017   9.669 -0.2663  0.0876 -0.0611
 5953W        W10004   4.240   5.507  12.176  0.2097 -0.1371 -0.0811
 5954W        W10005   5.983   5.651   3.724 -0.0825  0.1121 -0.2453
 5955W        W10006   3.680   9.514   5.297 -0.0070 -0.0611  0.1459
 5956W        W10007   7.194   2.060  12.568  0.3771  0.0720 -0.2920
 5957W        W10008   4.485   0.654   4.141  0.0435 -0.1623  0.2105
 5958W        W10009   6.980   8.807  12.608  0.1508  0.2222  0.2797
 5959W        W10010   9.126   1.955  10.437  0.0540 -0.2454 -0.0240
 5960W        W10011   3.803   9.944  13.577 -0.0989 -0.1084  0.0748
 5961W        W10012   3.592   1.738  10.308  0.0479 -0.2875 -0.0965
 5962W        W10013   6.506   5.655  11.134  0.0248  0.3160 -0.6728
 5963W        W10014   0.483   5.243  11.694 -0.1911 -0.1272 -0.1952
 5964W        W10015   0.019   6.088   4.148  0.1619 -0.2233  0.1300
 5965W        W10016   4.594   9.902  13.970  0.1125  0.3533 -0.0318
 5966W        W10017   7.444   0.199  11.583  0.0595  0.0349 -0.0771
 5967W        W10018   0.457   7.547   0.135  0.0021  0.0290  0.0252
 5968W        W10019   8.250   6.533  11.663 -0.0935 -0.2171  0.0158
 5969W        W10020   3.321   6.911  13.964 -0.2882 -0.1479  0.0679
 5970W        W10021   0.423   2.565  11.073  0.1410 -0.1777  0.1221
 5971W        W10022   5.786   0.443   0.964 -0.0019 -0.1001  0.0529
 5972W        W10023   5.255   2.601   2.518  0.0055 -0.0387  0.1308
 5973W        W10024   9.714   1.908   3.212  0.3229 -0.1219  0.0810
 5974W        W10025   3.225   8.990  13.169  0.0174 -0.0840 -0.1272
 5975W        W10026   0.803   3.377   1.675  0.3369 -0.4374  0.0870
 5976W        W10027   5.330   7.886  10.295 -0.0683 -0.0226  0.1282
 5977W        W10028   1.459   2.610  11.072  0.4299 -0.3191  0.0386
 5978W        W10029   7.972   8.797  13.310  0.2505  0.0880  0.1762
 5979W        W10030   3.987   1.569   2.599 -0.2691 -0.4554  0.1987
 5980W        W10031   4.950   1.760   2.989 -0.0615  0.0572 -0.6283
 5981W        W10032   6.983   6.062   4.769  0.0715 -0.1394  0.3557
 5982W        W10033   5.778   0.059  11.996  0.0652  0.1703  0.3307
 5983W        W10034   4.833   0.535  10.818 -0.3009 -0.2307  0.0282
 5984W        W10035   4.688   3.282   1.479  0.0152  0.0145  0.0770
 5985W        W10036   6.057   3.000   2.545  0.2361 -0.3176  0.0528
 5986W        W10037   1.089   8.402  12.335  0.0601 -0.0205 -0.1577
 5987W        W10038   4.357   7.868   1.084  0.1153  0.0773 -0.1949
 5988W        W10039   5.140   6.859   1.374  0.0184  0.1190  0.3149
 5989W        W10040   3.315   1.026  10.760  0.1749 -0.0590  0.3006
 5990W        W10041   5.060   6.425   0.949  0.1118 -0.1828  0.0233
 5991W        W10042   8.793   5.515  13.672  0.0017  0.0544 -0.4156
 5992W        W10043   8.691   4.205  10.671  0.0476 -0.0274  0.1007
 5993W        W10044   9.858   6.380   4.373  0.0218 -0.0901  0.0634
 5994W        W10045   8.672   3.960   0.129 -0.0328  0.1470 -0.0410
 5995W        W10046   5.941   6.588  12.187 -0.3596 -0.1638 -0.1221
 5996W        W10047   3.620   2.398   1.970 -0.4078  0.2456  0.2465
 5997W        W10048   3.283   2.312   1.273 -0.0027  0.3078 -0.1792
 5998W        W10049   0.747   6.753  10.534  0.0140 -0.1526 -0.1707
 5999W        W10050   1.466   5.617  11.007 -0.1771  0.2462 -0.0031
 6000W        W10051   0.381   4.241  11.740 -0.4489 -0.2537  0.2902
 6001W        W10052   4.365   2.912   1.325 -0.0043  0.0999 -0.3487
 6002W        W10053   0.486   2.184  13.914  0.0173 -0.1624  0.1103
 6003W        W10054   9.275   7.907   3.088 -0.0176 -0.0105 -0.1020
 6004W        W10055   4.726   5.377   0.550  0.1478  0.1666  0.0042
 6005W        W10056   6.975   6.938  13.349 -0.0093  0.0187  0.1033
 6006W        W10057   6.587   3.040  11.635  0.2166 -0.1477  0.1002
 6007W        W10058   7.436   5.556   0.679  0.4478  0.1455 -0.2232
 6008W        W10059   1.814   6.308   4.366  0.0107  0.0081 -0.0720
 6009W        W10060   4.125   2.579  11.265  0.0466 -0.4111  0.1172
 6010W        W10061   6.909   5.475   0.134  0.1103  0.3208  0.3010
 6011W        W10062   2.549   4.291  10.830  0.1471 -0.1558  0.1418
 6012W        W10063   8.111   6.861   4.032 -0.3061 -0.0631  0.0351
 6013W        W10064   2.359   4.334   3.260  0.2324 -0.0027 -0.2341
 6014W        W10065   9.439   9.307   3.772 -0.1014 -0.1930 -0.0404
 6015W        W10066   6.232   2.566  10.855  0.0487 -0.0689  0.0451
 6016W        W10067   9.030   0.515   4.584 -0.1008 -0.0526 -0.3359
 6017W        W10068   0.078   5.208  10.859 -0.0611  0.0767 -0.0642
 6018W        W10069   2.944   2.040   4.527 -0.1671  0.2714 -0.1626
 6019W        W10070   2.150   7.593   9.381 -0.0503 -0.0214  0.0472
 6020W        W10071   1.412   8.724   1.367  0.0913 -0.2503  0.0774
 6021W        W10072   4.836   5.823   0.264 -0.3024 -0.1605 -0.0614
 6022W        W10073   8.639   6.495  10.106  0.0042 -0.0316 -0.4559
 6023W        W10074   9.729   6.105  11.098 -0.0919  0.1697  0.0891
 6024W        W10075   1.868   1.985   0.862 -0.4186 -0.1508  0.0817
 6025W        W10076   7.395   0.662   0.469 -0.2578 -0.1359 -0.2611
 6026W        W10077   9.662   0.213   9.146  0.0516  0.0411 -0.1000
 6027W        W10078   1.995   7.912  10.740 -0.1246  0.0025  0.1723
 6028W        W10079   2.485   6.792   2.780  0.6366  0.2336  0.0315
 6029W        W10080   0.408   6.384   4.946  0.0745  0.0016  0.1835
 6030W        W10081   6.096   7.170  12.164 -0.3893  0.0182  0.0704
 6031W        W10082   2.848   3.564   0.705  0.1330  0.0763  0.0365
 6032W        W10083   5.457   9.440  10.403 -0.0615  0.0393 -0.0034
 6033W        W10084   4.464   3.934  11.209 -0.2817 -0.0889 -0.1115
 6034W        W10085   1.718   0.126  13.474  0.0597 -0.0475  0.0236
 6035W        W10086   0.958   5.913   0.979  0.4216 -0.0435  0.1095
 6036W        W10087   2.874   1.795   3.377 -0.2099 -0.0373  0.0706
 6037W        W10088   2.114   1.184  11.413  0.0991 -0.0755 -0.0622
 6038W        W10089   0.428   8.116  11.884  0.3052 -0.0969  0.0725
 6039W        W10090   9.270   8.799   1.812 -0.1419 -0.1967  0.2124
 6040W        W10091   3.192   5.153   4.675 -0.0996 -0.1202  0.0311
 6041W        W10092   7.137   0.864   3.821 -0.1935  0.2489 -0.1391
 6042W        W10093   3.794   6.139  11.383  0.2121  0.0346  0.2191
 6043W        W10094   4.964   9.093  11.725 -0.3710 -0.1600 -0.1801
 6044W        W10095   0.129   8.931   0.619 -0.0475 -0.3207 -0.1075
 6045W        W10096   8.455   2.859  12.213 -0.2044  0.2340 -0.1100
 6046W        W10097   3.565   7.809   4.062 -0.1242  0.0241 -0.1939
 6047W        W10098   2.347   5.648  13.084 -0.0478 -0.1167 -0.0683
 6048W        W10099   5.470   9.601  13.067  0.3077  0.1993 -0.1737
 6049W        W10100   9.897   7.650  10.043  0.1950  0.3481  0.1590
 6050W        W10101   5.349   2.264  10.609 -0.1391  0.2935  0.0498
 6051W        W10102   2.039   2.795   1.545  0.1105  0.4450 -0.0282
 6052W        W10103   1.019   8.524   4.801  0.1056  0.2287  0.0980
 6053W        W10104   0.344   0.135   9.721  0.0031 -0.0471  0.1826
 6054W        W10105   6.831   6.220   1.505 -0.2001  0.0515 -0.2548
 6055W        W10106   3.811   8.430   4.640  0.0640  0.2709  0.0608
 6056W        W10107   8.724   2.010   3.367 -0.0803 -0.3908  0.0638
 6057W        W10108   8.084   3.017   1.601  0.3217 -0.0759  0.1113
 6058W        W10109   5.772   6.247   4.309  0.1259 -0.2830 -0.5152
 6059W        W10110   9.404   5.864  11.421  0.0870 -0.0595  0.2402
 6060W        W10111   7.891   0.236  11.442 -0.0787  0.0280  0.1734
 6061W        W10112   4.494   0.266  13.518  0.0181  0.2050 -0.2863
 6062W        W10113   6.661   2.129  12.704 -0.0598 -0.2728  0.0881
 6063W        W10114   1.581   3.014  10.510 -0.2223 -0.3137 -0.1806
 6064W        W10115   8.543   1.011  12.449  0.1138  0.1064 -0.1445
 6065W        W10116   5.697   1.937   2.524 -0.3020 -0.0241 -0.0223
 6066W        W10117   3.792   5.132   2.829 -0.0961  0.1466 -0.1034
 6067W        W10118   7.822   3.142  10.887  0.1914 -0.0158 -0.0309
 6068W        W10119   2.923   4.800   9.948  0.2899 -0.0103  0.3535
 6069W        W10120   3.387   8.381  11.527  0.1308 -0.1038  0.0678
 6070W        W10121   2.835   3.164   1.112  0.0294  0.0307  0.1388
 6071W        W10122   1.844   3.874   9.683  0.1956  0.0247 -0.0219
 6072W        W10123   2.653   7.343   2.588  0.0268  0.1712 -0.1878
 6073W        W10124   2.346   0.885   2.862  0.0097 -0.1119  0.0256
 6074W        W10125   4.318   3.773   2.244  0.1131  0.1956  0.3176
 6075W        W10126   5.658   2.936   9.820 -0.2140 -0.0228 -0.3631
 6076W        W10127   6.147   9.928  12.732  0.2661 -0.0144 -0.0371
 6077W        W10128   1.815   9.132   1.993 -0.0427 -0.4491  0.0882
 6078W        W10129   2.349   0.195   0.824  0.3116 -0.0664  0.1058
 6079W        W10130   9.862   6.904   3.528 -0.0758 -0.1356 -0.1445
 6080W        W10131   5.288   7.111   1.743  0.1408  0.0517 -0.2556
 6081W        W10132   2.674   4.169   4.404  0.0808  0.1610  0.0518
 6082W        W10133   8.400   0.152   1.852 -0.2840  0.0973 -0.2294
 6083W        W10134   4.541   1.139   4.453 -0.1869  0.1839  0.2927
 6084W        W10135   5.736   5.901  11.638  0.2167  0.0258 -0.1241
 6085W        W10136   2.053   2.118   3.528  0.1512  0.2325 -0.0044
 6086W        W10137   1.158   0.378   1.183 -0.4236  0.0593 -0.0862
 6087W        W10138   9.121   4.810  13.898  0.1791  0.3183 -0.2269
 6088W        W10139   0.557   3.480   2.665  0.0329 -0.1488 -0.4296
 6089W        W10140   4.660   7.631  12.752 -0.2336 -0.0050 -0.2227
 6090W        W10141   5.792   0.477   1.472 -0.0770 -0.1051  0.1372
 6091W        W10142   3.812   0.581   3.450 -0.2032 -0.0327 -0.1938
 6092W        W10143   4.455   0.505   0.375  0.1539 -0.1283 -0.0201
 6093W        W10144   1.694   3.175   1.614 -0.1255 -0.0561 -0.2952
 6094W        W10145   5.689   5.257  12.434  0.0345  0.0056  0.4520
 6095W        W10146   8.108   0.861  11.196 -0.2458  0.0419 -0.0134
 6096W        W10147   7.609   7.111   0.304 -0.1280 -0.1732 -0.2752
 6097W        W10148   5.526   4.285  12.961  0.1208  0.0496  0.1243
 6098W        W10149   0.884   4.916  12.547 -0.2652  0.3154 -0.1520
 6099W        W10150   8.242   7.828  10.181  0.2012 -0.2234  0.3268
 6100W        W10151   3.047   7.587   2.630 -0.3160  0.1873 -0.0524
 6101W        W10152   8.390   1.584   3.329  0.0167  0.1780 -0.5158
 6102W        W10153   8.323   1.303   3.697 -0.3565 -0.1009 -0.3158
 6103W        W10154   0.302   0.955   2.998 -0.0340 -0.1071  0.1734
 6104W        W10155   1.419   6.117   9.254 -0.0271 -0.0324 -0.2195
 6105W        W10156   4.956   8.003  12.350  0.0938 -0.2120  0.0329
 6106W        W10157   2.520   7.969  10.857  0.0163 -0.1863 -0.1124
 6107W        W10158   0.054   5.057  10.313  0.1376 -0.1054  0.0411
 6108W        W10159   2.845   6.663   1.882  0.2644 -0.2894 -0.1090
 6109W        W10160   2.131   9.593  13.053 -0.0144 -0.2451 -0.1345
 6110W        W10161   6.290   6.809   5.955  0.1612 -0.2472 -0.2947
 6111W        W10162   1.102   5.331   2.352  0.1974 -0.0323 -0.0058
 6112W        W10163   9.211   8.831   0.441 -0.1375 -0.3443  0.1606
 6113W        W10164   0.634   2.156  13.433  0.0784 -0.0777 -0.5145
 6114W        W10165   4.899   3.476  12.750 -0.0894 -0.1863 -0.3918
 6115W        W10166   0.538   0.187  11.898  0.3054  0.1282 -0.3940
 6116W        W10167   9.708   8.729   9.321  0.0792 -0.0512 -0.0559
 6117W        W10168   0.399  10.047   2.467  0.3073  0.2399  0.4219
 6118W        W10169   7.007   4.815   3.795 -0.3853 -0.3956 -0.0606
 6119W        W10170   0.745  10.124   0.384  0.1095 -0.1565 -0.0435
 6120W        W10171   0.184   0.708  12.562  0.3752 -0.3973  0.3619
 6121W        W10172   0.162   8.282   4.756 -0.0402 -0.0616  0.0954
 6122W        W10173   1.111   4.625  13.782 -0.1855  0.1103 -0.0032
 6123W        W10174   8.468   2.433  10.289 -0.3790 -0.0191  0.1163
 6124W        W10175   9.996   0.066  13.460  0.2258  0.2756 -0.3295
 6125W        W10176   1.905   8.014   4.967  0.0959 -0.1112 -0.0029
 6126W        W10177   3.919   6.954   2.327  0.0254  0.0827 -0.5398
 6127W        W10178   1.969   3.302   0.754 -0.1734 -0.0672 -0.3190
 6128W        W10179   9.648   6.322  10.658  0.0150  0.1250  0.1094
 6129W        W10180   1.616   3.639  13.691 -0.1362  0.3472 -0.0487
 6130W        W10181   0.404   9.996   1.784 -0.0065 -0.0937  0.1326
 6131W        W10182   8.195   3.294  12.495  0.2504  0.1894  0.1859
 6132W        W10183   5.923   9.715   0.425  0.2927  0.2985  0.0637
 6133W        W10184   3.325   2.961   1.302 -0.2610 -0.0089 -0.2341
 6134W        W10185   3.175   7.458  10.896  0.0908 -0.1345  0.1726
 6135W        W10186   7.691  10.184   9.782  0.1718  0.0746 -0.1854
 6136W        W10187   6.097  10.077  10.489  0.0838 -0.1137  0.4089
 6137W        W10188   5.979   9.407  13.032  0.2625  0.0295  0.0744
 6138W        W10189   8.814   4.648  12.187 -0.0113 -0.1986  0.4017
 6139W        W10190   0.511   8.084   3.635 -0.0383 -0.2116 -0.1664
 6140W        W10191   5.002   5.537  10.221 -0.1630 -0.0822  0.0899
 6141W        W10192   7.890   5.980  12.357  0.4351  0.2225  0.1914
 6142W        W10193   6.527   3.079   1.221 -0.0131  0.2961  0.1104
 6143W        W10194   5.530   5.691  12.565 -0.1441  0.0258  0.1614
 6144W        W10195   0.166   7.534  11.075 -0.0614 -0.3537 -0.1841
 6145W        W10196   7.288   1.026  11.451 -0.0093 -0.1300  0.1579
 6146W        W10197   2.610   7.007   3.371 -0.2125 -0.2320 -0.1877
 6147W        W10198   1.936   8.465   4.710 -0.0126 -0.0097 -0.2089
 6148W        W10199   8.500   9.524  12.178 -0.1461  0.0173 -0.0982
 6149W        W10200   6.752   9.995   2.588 -0.1124  0.0351 -0.1958
 6150W        W10201   4.861   3.894  13.476  0.0696  0.4785  0.1247
 6151W        W10202   8.228   4.470  13.588  0.0780 -0.0969 -0.4761
 6152W        W10203   0.005   4.394   4.297  0.1971 -0.2653 -0.2272
 6153W        W10204   1.496   5.055   2.503 -0.3709 -0.1709  0.0102
 6154W        W10205   6.969   6.166  11.627 -0.1599  0.0758 -0.2514
 6155W        W10206   4.656   7.148  12.899 -0.0494  0.2854  0.1522
 6156W        W10207   5.897   9.993   1.310  0.3085 -0.1864 -0.0610
 6157W        W10208   9.247   2.329   1.463 -0.1512  0.0065  0.0166
 6158W        W10209   0.755   3.968   2.479 -0.2635  0.0614 -0.3465
 6159W        W10210   3.444   6.779   2.201 -0.1496  0.0640  0.1505
 6160W        W10211   8.277   4.005  11.043  0.1654 -0.1835 -0.1032
 6161W        W10212   5.494   1.777   1.757 -0.1817  0.1700  0.2130
 6162W        W10213   6.236   0.165   9.622 -0.0662 -0.1905 -0.1616
 6163W        W10214   7.364   5.858  13.169 -0.1938  0.4082  0.2610
 6164W        W10215   6.558   3.914  10.484 -0.0838  0.3404  0.0977
 6165W        W10216   6.762   9.700  10.019 -0.0227  0.0342 -0.3758
 6166W        W10217   7.293   3.744  11.308  0.0207 -0.0516  0.1810
 6167W        W10218   6.395   0.345   3.318 -0.1138  0.0702 -0.0525
 6168W        W10219   0.286   8.763  10.771  0.3557  0.2107  0.4652
 6169W        W10220   2.916   3.205  12.023  0.0533 -0.0704 -0.1034
 6170W        W10221   2.433   1.960   9.174 -0.1014  0.2283  0.0595
 6171W        W10222   3.578   5.942   0.972 -0.0366  0.1943 -0.3080
 6172W        W10223   7.613   6.777  12.632 -0.0295 -0.4356 -0.1872
 6173W        W10224   2.081   0.548   0.993 -0.0246 -0.1025  0.2342
 6174W        W10225   5.683   6.702   4.561 -0.0076  0.0672  0.1855
 6175W        W10226   7.518   6.129   9.066 -0.3297 -0.0772 -0.1749
 6176W        W10227   6.401   9.517  11.879  0.1733 -0.2131  0.0286
 6177W        W10228   9.047   0.915  11.303  0.1235 -0.2808 -0.1768
 6178W        W10229   4.366   0.599  13.886  0.0818  0.1863 -0.0887
 6179W        W10230   8.145   4.978  12.740  0.1971  0.2601 -0.0159
 6180W        W10231   0.388   7.563   0.807 -0.1867  0.2297 -0.3047
 6181W        W10232   1.544   0.407   9.888 -0.1480  0.1572  0.2721
 6182W        W10233   6.940   9.865   3.592 -0.1841 -0.0939 -0.3529
 6183W        W10234   8.889   3.489   3.627 -0.1167  0.3655  0.2691
 6184W        W10235   8.990   6.725  13.915  0.0073 -0.1449 -0.4171
 6185W        W10236   8.455   9.536  12.827 -0.3689  0.1166  0.0191
 6186W        W10237   9.631   4.225  12.031  0.2986  0.1377  0.0947
 6187W        W10238   9.840   4.704  12.089 -0.1173  0.0417  0.0362
 6188W        W10239   1.018   2.912   0.449  0.1216 -0.3118 -0.2186
 6189W        W10240   5.682   1.064  13.746  0.1565 -0.0172  0.3117
 6190W        W10241   0.876   7.958   3.943  0.2493  0.1067  0.0305
 6191W        W10242   7.386   1.137  10.547 -0.0716  0.0330  0.0643
 6192W        W10243   4.623   7.376  10.929 -0.0888 -0.2403 -0.3205
 6193W        W10244   3.896   4.402  12.731  0.0459  0.0862 -0.1345
 6194W        W10245   7.197  10.010   0.189  0.0646  0.0100 -0.1688
 6195W        W10246   3.565   8.631   2.682  0.2771  0.2288 -0.2149
 6196W        W10247   4.132   7.613   9.284  0.0814  0.0984  0.0766
 6197W        W10248   5.081   1.991   1.028 -0.0969  0.0310 -0.0345
 6198W        W10249   4.938   4.503   4.426  0.0741 -0.0158  0.0649
 6199W        W10250   9.361   9.280   9.951  0.0686 -0.1274  0.0063
 6200W        W10251   6.619   0.226   2.831  0.0446 -0.4382  0.1027
 6201W        W10252   1.101   6.410  10.081  0.0832  0.0266 -0.0884
 6202W        W10253   2.182   3.144  13.201  0.0477 -0.1078  0.3059
 6203W        W10254   4.947   5.268   1.777 -0.1479  0.0357 -0.2905
 6204W        W10255   2.350   2.324  10.018  0.3906 -0.0363  0.2292
 6205W        W10256   6.395   6.964   3.805  0.2969  0.1685  0.1796
 6206W        W10257   8.540   8.175  12.733 -0.1248 -0.1947  0.0303
 6207W        W10258   3.004   4.915   2.412 -0.1338  0.0116  0.1102
 6208W        W10259   3.748   2.781  10.344 -0.1395  0.1792 -0.1056
 6209W        W10260   3.781  10.120   1.791 -0.0158 -0.2971 -0.1576
 6210W        W10261   0.401   6.933   4.456  0.2477  0.1940 -0.1547
 6211W        W10262   7.206   7.569  10.687  0.0745 -0.1445  0.0906
 6212W        W10263   0.323   7.753  13.192  0.3623 -0.0734  0.0030
 6213W        W10264   9.019   6.711   4.114 -0.1630  0.0529  0.0660
 6214W        W10265   3.748   0.604  11.538 -0.1022 -0.0582 -0.3912
 6215W        W10266   9.823   8.384  10.002 -0.2439 -0.0679  0.0836
 6216W        W10267   8.729   0.572  13.215 -0.0810 -0.3196 -0.2090
 6217W        W10268   3.117   5.675   3.001  0.4735  0.0020  0.0215
 6218W        W10269   2.472   6.926  11.198 -0.0348 -0.1035 -0.0143
 6219W        W10270   5.708   5.180   3.235  0.3324  0.3858 -0.3451
 6220W        W10271   5.970   0.502   4.203  0.3916 -0.5355 -0.1966
 6221W        W10272   9.558   9.732   5.455 -0.0124 -0.3832 -0.1157
 6222W        W10273   6.498   8.755  13.013  0.2092  0.1687  0.1068
 6223W        W10274   0.024   9.398  12.347  0.0033  0.0215  0.1023
 6224W        W10275   0.875   4.711  10.081 -0.2072 -0.3520 -0.0529
 6225W        W10276   6.071   4.998  12.763  0.1475  0.3634 -0.0773
 6226W        W10277   4.509   6.987   4.503  0.0299 -0.0555  0.1281
 6227W        W10278   1.841   8.111   0.244 -0.0629 -0.0288  0.2093
 6228W        W10279   4.627   8.354  13.421 -0.0278  0.1982 -0.0170
 6229W        W10280   8.043   3.117  12.950  0.1971  0.2501  0.2660
 6230W        W10281   8.991   7.953   0.460  0.2958 -0.2137 -0.1287
 6231W        W10282   4.896   9.715   9.200  0.0861  0.0975 -0.2536
 6232W        W10283   7.997   3.095   0.800  0.1324 -0.2775  0.2131
 6233W        W10284   4.082   5.204  11.814  0.2731  0.1924  0.0681
 6234W        W10285   3.570   6.258  13.492  0.1266 -0.0396  0.2229
 6235W        W10286   1.219   7.028   0.079 -0.0401 -0.1836  0.1762
 6236W        W10287   6.995   5.532  10.987 -0.1150  0.2389  0.4485
 6237W        W10288   8.786   4.917  12.866 -0.2459  0.1266 -0.1046
 6238W        W10289   5.123   2.754  10.619  0.2137  0.0402 -0.0794
 6239W        W10290   9.214   3.637  10.062 -0.3065  0.1117  0.0691
 6240W        W10291   3.483   4.959   3.201 -0.3258 -0.0897 -0.0567
 6241W        W10292   2.592   4.654   3.556  0.4597 -0.1360  0.4186
 6242W        W10293   6.651   4.302   3.426 -0.0536 -0.1966  0.2668
 6243W        W10294   4.171   2.617   4.321 -0.1777  0.5366 -0.1924
 6244W        W10295   4.912   1.119   1.507  0.1672  0.1673  0.0397
 6245W        W10296   0.213   8.039   2.689 -0.1285  0.0791  0.0960
 6246W        W10297   5.483   6.777   9.742  0.3919 -0.1806  0.1065
 6247W        W10298   8.213   5.722  11.332  0.2044 -0.2115 -0.0772
 6248W        W10299  10.139   9.002  11.067  0.2417  0.0342 -0.0464
 6249W        W10300   2.446   2.183   0.395  0.1122  0.1755  0.1168
 6250W        W10301   5.108  10.063   9.484  0.0050 -0.0005 -0.1688
 6251W        W10302   8.247   5.984   4.407  0.3419  0.1485  0.0595
 6252W        W10303   0.897   3.615   9.847 -0.2421 -0.0422 -0.2073
 6253W        W10304   3.939   3.906  12.791  0.1757 -0.1946  0.5152
 6254W        W10305   5.482   6.688   0.684  0.3645  0.4721 -0.5324
 6255W        W10306   2.668   6.177  11.634 -0.0087 -0.2558  0.1063
 6256W        W10307   2.977   7.697   1.529  0.0246 -0.1132 -0.2253
 6257W        W10308   0.716   6.862  12.406  0.2606  0.2608  0.1526
 6258W        W10309   4.097   6.997  13.226  0.1538 -0.1478 -0.1621
 6259W        W10310   3.137   8.086   9.224  0.2730  0.2479  0.0897
 6260W        W10311   8.221   0.530  12.801  0.0696 -0.0744  0.0335
 6261W        W10312   2.764   2.892   2.322  0.0691  0.3169  0.2029
 6262W        W10313   1.051  10.179  11.543 -0.1078  0.1417 -0.0459
 6263W        W10314   5.258   5.312  12.188  0.0258  0.1825 -0.3491
 6264W        W10315   9.673   7.239  11.834 -0.3947 -0.0306  0.4495
 6265W        W10316   5.777   0.911  10.923 -0.0864  0.2149  0.1714
 6266W        W10317   0.054   0.247   1.069 -0.3812  0.0091  0.1223
 6267W        W10318   1.743   5.178  10.006  0.0131 -0.0095  0.0520
 6268W        W10319   3.623   5.145  10.410 -0.1472 -0.0520 -0.0730
 6269W        W10320   3.267   9.844  12.126 -0.3708 -0.1498  0.0032
 6270W        W10321   1.719   6.978   1.270  0.0849 -0.0920 -0.1712
 6271W        W10322   4.136   0.516   1.179 -0.1431 -0.0041  0.0901
 6272W        W10323   2.616   2.936   0.045  0.2477 -0.2326  0.3809
 6273W        W10324   1.513   9.574   9.159 -0.1764 -0.1854 -0.0684
 6274W        W10325   9.043   6.193   4.684  0.0528  0.0291  0.0680
 6275W        W10326   5.170   2.669   3.495  0.1004 -0.1267  0.0871
 6276W        W10327   8.981   0.974   4.368 -0.0487  0.1564  0.0665
 6277W        W10328   3.013   0.642  10.320 -0.3099  0.2118  0.0913
 6278W        W10329   4.773   3.528   9.141 -0.0592 -0.0585 -0.1262
 6279W        W10330   1.539   8.495  13.174  0.1354 -0.1166  0.0139
 6280W        W10331   7.316   5.226   0.280 -0.0409  0.1961 -0.1863
 6281W        W10332   7.328   2.940  12.462  0.2399  0.0615 -0.1123
 6282W        W10333   2.414   6.706   2.298 -0.0402  0.1548 -0.2339
 6283W        W10334   9.005   0.299  11.103  0.5669 -0.1178  0.0209
 6284W        W10335   2.565   3.073  10.683 -0.3761 -0.1493  0.1315
 6285W        W10336   7.498   7.143   5.885 -0.2790  0.1141 -0.3799
 6286W        W10337   6.375   8.724  13.534  0.0546 -0.3122  0.0367
 6287W        W10338   2.313   4.677  11.670 -0.1233  0.1154  0.0713
 6288W        W10339   0.625   8.611  12.174 -0.0613 -0.0320  0.0476
 6289W        W10340   5.841   1.913   0.827  0.1643  0.1260 -0.0457
 6290W        W10341   7.201   9.113   2.945 -0.0308 -0.0939 -0.0076
 6291W        W10342   9.386   7.915  11.843  0.0827  0.0683 -0.1436
 6292W        W10343   8.808   9.333   0.167  0.0848 -0.2030 -0.2611
 6293W        W10344   6.801   1.554  12.872  0.2206  0.2143  0.0641
 6294W        W10345   7.409   0.748   1.032  0.0274 -0.3326  0.2518
 6295W        W10346   7.476   0.730  13.474 -0.0522 -0.0002 -0.3386
 6296W        W10347   4.993   6.154  13.540 -0.1292 -0.0586 -0.2024
 6297W        W10348   9.765   5.619  11.092 -0.1393 -0.2025  0.1415
 6298W        W10349   3.230   1.415   4.930  0.0328 -0.3062 -0.1500
 6299W        W10350   7.858   7.669  12.630 -0.0517  0.0703 -0.0009
 6300W        W10351   4.280   3.021  11.118 -0.0884  0.0321 -0.1934
 6301W        W10352   0.714   6.698   3.059 -0.0571 -0.0097  0.2665
 6302W        W10353   2.127   6.434  10.518 -0.0372  0.0368 -0.4294
 6303W        W10354   5.385   4.577   0.800 -0.1009 -0.1015  0.1802
 6304W        W10355   0.657   8.991   2.398  0.0637 -0.1200  0.0034
 6305W        W10356   1.524   7.148   3.745  0.1862  0.2268 -0.0058
 6306W        W10357   4.721   0.025   1.723 -0.3493  0.0280  0.2411
 6307W        W10358   4.603   0.723  10.375  0.0523  0.1872 -0.2151
 6308W        W10359   5.876   4.911   3.681  0.1217 -0.0672  0.0414
 6309W        W10360   5.941   4.582  13.077  0.1813 -0.0469  0.0141
 6310W        W10361   1.375   8.075  10.153  0.0506 -0.2275  0.0685
 6311W        W10362   4.304   1.074  10.002  0.0506  0.0587  0.1053
 6312W        W10363   1.878   3.188  12.804  0.2703 -0.1573 -0.3173
 6313W        W10364   0.993   7.418  10.000 -0.0639  0.2053 -0.1326
 6314W        W10365   2.328   9.369  13.606  0.0185  0.1693  0.1269
 6315W        W10366   9.284   0.488   0.000 -0.1459 -0.1209 -0.1482
 6316W        W10367   2.832   9.304   2.399 -0.1230 -0.1774  0.0901
 6317W        W10368   5.498   5.973  10.007 -0.2688 -0.0653  0.6196
 6318W        W10369   5.483   8.304  11.621 -0.0708  0.2426  0.0451
 6319W        W10370   3.217   8.767  13.742 -0.2778  0.0405 -0.4037
 6320W        W10371   4.779   3.599   1.072 -0.0286  0.1311  0.1739
 6321W        W10372   0.618   3.746  13.765 -0.0447 -0.1759 -0.0135
 6322W        W10373   0.702   9.100  10.840  0.1725 -0.1658 -0.0218
 6323W        W10374   4.301   1.007  12.161 -0.2051 -0.1392  0.1545
 6324W        W10375   7.340   1.926   0.589 -0.0648 -0.2512  0.1132
 6325W        W10376   5.282   9.873   1.129  0.2789 -0.0798 -0.3620
 6326W        W10377   9.031   2.422   3.700  0.0367  0.3811  0.1838
 6327W        W10378   0.098   0.528   0.499  0.1091  0.0635  0.0514
 6328W        W10379   5.394   6.103  13.164  0.0744 -0.1986 -0.1120
 6329W        W10380   7.559   0.814  12.225 -0.1537  0.0888  0.0212
 6330W        W10381   9.902   2.234   2.789  0.0116  0.1903 -0.0624
 6331W        W10382   2.257   3.464   9.795 -0.0384  0.0204  0.2482
 6332W        W10383   4.971   7.830   2.617 -0.4205  0.1520  0.0108
 6333W        W10384   3.228   2.147   0.008 -0.0202 -0.1321 -0.0087
 6334W        W10385   1.159   4.378  10.289 -0.1774 -0.0381  0.1742
 6335W        W10386   0.298   1.982  12.413  0.1770 -0.3900 -0.2414
 6336W        W10387   1.392   6.277  12.890 -0.0041  0.6246 -0.2360
 6337W        W10388   1.540   9.998  12.276  0.0963 -0.0625 -0.3975
 6338W        W10389   4.010   8.816  11.528  0.1655 -0.0239  0.4327
 6339W        W10390   5.270   4.436  13.840  0.2041 -0.3044 -0.1623
 6340W        W10391   0.185   2.404   1.491 -0.1885  0.0464  0.0299
 6341W        W10392   0.424   2.341  10.478  0.3760 -0.0527 -0.1814
 6342W        W10393   1.893   1.235   0.542 -0.0678  0.0663  0.3085
 6343W        W10394   3.060   9.442  10.612 -0.0519 -0.0120 -0.0651
 6344W        W10395   0.063   7.420  12.614  0.0104 -0.2411  0.1123
 6345W        W10396   3.357   0.898  11.652 -0.1089  0.0123  0.1017
 6346W        W10397   6.538   1.679   2.032  0.3374  0.1103  0.0376
 6347W        W10398   0.416   6.969   0.158 -0.1435  0.1617  0.2644
 6348W        W10399   9.577   8.094   3.457  0.0611 -0.0896 -0.0618
 6349W        W10400   8.624   3.284  12.300 -0.0851  0.0395  0.1255
 6350W        W10401   6.513   9.175   9.633 -0.0196 -0.6031  0.3302
 6351W        W10402   5.520   1.511   4.080 -0.2805 -0.2412 -0.0955
 6352W        W10403   3.962   6.184   1.283 -0.1587 -0.0918 -0.5764
 6353W        W10404   2.361   2.002   4.354 -0.2436 -0.0683 -0.1289
 6354W        W10405   6.812   5.626   3.289  0.1849  0.0527 -0.0998
 6355W        W10406   2.474   2.034  10.982 -0.2021  0.1350 -0.4191
 6356W        W10407   3.710   9.609  10.162  0.0468 -0.2305 -0.1250
 6357W        W10408   1.908   6.480   3.395  0.2492 -0.0156  0.1225
 6358W        W10409   8.607   0.785   1.049 -0.1142 -0.3341  0.2059
 6359W        W10410   7.943   8.202   8.913 -0.0372  0.1133  0.2308
 6360W        W10411   6.537   7.841   4.251  0.4375  0.0609  0.2262
 6361W        W10412   3.476   4.489  11.866 -0.0037 -0.3177  0.0560
 6362W        W10413   9.625   4.222   9.589 -0.0675 -0.4018 -0.0871
 6363W        W10414   6.747   9.206  10.092 -0.0156  0.2306 -0.1737
 6364W        W10415   0.654   5.050   3.918  0.0791  0.0560 -0.1636
 6365W        W10416   0.468   4.982   0.283  0.3337 -0.1987  0.3198
 6366W        W10417   1.997   0.776   8.695  0.1240  0.1563  0.0848
 6367W        W10418   3.923   5.018  13.613 -0.2083 -0.0285  0.0371
 6368W        W10419   8.325   7.281   1.938 -0.0803  0.0786 -0.2221
 6369W        W10420   4.177   5.371   4.633  0.0425 -0.0746 -0.2015
 6370W        W10421   6.455   6.047   9.745 -0.2316  0.2370 -0.2016
 6371W        W10422   9.623   6.346  11.602 -0.1612  0.0433 -0.2075
 6372W        W10423   5.026   3.977  11.196  0.1571 -0.0600  0.2550
 6373W        W10424   9.783   2.660  12.845  0.0402  0.0951  0.1057
 6374W        W10425   9.245   6.971   2.160 -0.1090  0.2864  0.1032
 6375W        W10426   5.923   1.428   0.915 -0.1288 -0.1491 -0.1315
 6376W        W10427   7.691  10.007  11.342  0.1809 -0.0555  0.2727
 6377W        W10428   1.697   9.143   1.453  0.0121 -0.0584 -0.0650
 6378W        W10429   3.539   2.124   9.040  0.1004  0.1944 -0.1240
 6379W        W10430   8.431   2.180   0.424 -0.1610 -0.2215 -0.1798
 6380W        W10431   9.218   5.492  11.008  0.1866 -0.0624  0.1761
 6381W        W10432   9.728   0.576   8.828 -0.3123  0.0609  0.3092
 6382W        W10433   3.445   4.428   9.302 -0.3097  0.0799  0.0773
 6383W        W10434   5.889   3.733  13.453  0.0372  0.1266 -0.1938
 6384W        W10435   9.250   1.279  13.829 -0.2372  0.1254  0.1213
 6385W        W10436   2.182   2.630   5.454  0.0623  0.1288 -0.2357
 6386W        W10437   1.777   6.430   4.839  0.0927  0.0959 -0.1944
 6387W        W10438   3.912   9.887  10.841  0.0747 -0.1700 -0.1379
 6388W        W10439   6.891   2.647  10.007 -0.2624  0.1597  0.4669
 6389W        W10440   9.513   1.770  13.954 -0.3882  0.0191 -0.1653
 6390W        W10441   3.658   3.131   1.730  0.1277 -0.0253  0.0466
 6391W        W10442   7.777   6.052  10.539  0.0412  0.0435 -0.2039
 6392W        W10443   9.595   2.200  10.673 -0.1767 -0.0598 -0.1334
 6393W        W10444   6.194   7.664  12.361 -0.1396 -0.1461  0.1038
 6394W        W10445   1.365   5.544   0.211 -0.3237 -0.1653 -0.1226
 6395W        W10446   1.311   5.965   1.376  0.0639  0.0211  0.2577
 6396W        W10447   6.479   1.908   0.631 -0.0715  0.2622 -0.3120
 6397W        W10448   4.166   3.302  12.809 -0.1761  0.2352 -0.1164
 6398W        W10449   6.402   0.784  11.461 -0.0146  0.0171 -0.2352
 6399W        W10450   1.601   8.439   3.650  0.0038  0.1141  0.1456
 6400W        W10451   7.753   8.530   9.696  0.0055  0.1928  0.0936
 6401W        W10452   3.761   0.194   1.310 -0.2178  0.2149 -0.4147
 6402W        W10453   1.311   6.173  12.285  0.1547 -0.1301  0.0122
 6403W        W10454   2.093   7.406   2.050  0.1158  0.0171 -0.2279
 6404W        W10455   8.656   7.535  11.975 -0.3515 -0.0703 -0.2020
 6405W        W10456   6.030   8.158   0.899 -0.3690  0.0105  0.0145
 6406W        W10457   6.521   0.313  11.283 -0.3323 -0.0354 -0.2417
 6407W        W10458   9.329   4.305   3.442 -0.0106 -0.2710  0.3916
 6408W        W10459   8.069   5.820   1.750 -0.0005  0.0916 -0.1229
 6409W        W10460   6.676   3.460  11.863 -0.2005  0.3295 -0.2769
 6410W        W10461   7.743   9.071  10.314  0.0751  0.0879 -0.1207
 6411W        W10462   2.542   9.936   3.169 -0.0675 -0.0445  0.0526
 6412W        W10463   3.318   9.614   2.786 -0.1847  0.1818  0.0804
 6413W        W10464   1.710   0.271   1.115  0.2665  0.2545 -0.0514
 6414W        W10465   1.408   0.386   0.723 -0.0308  0.0227 -0.1568
 6415W        W10466   2.495   9.281   0.098 -0.3874  0.1105  0.1781
 6416W        W10467   2.177   8.834   1.343 -0.2185  0.0704  0.1367
 6417W        W10468   1.927   0.112   4.333 -0.1860  0.1932 -0.0826
 6418W        W10469   9.341   6.061  12.439 -0.1370 -0.2278 -0.0188
 6419W        W10470   3.918   8.932   2.639 -0.0456 -0.2259  0.1951
 6420W        W10471   7.351   4.271   2.663 -0.0131 -0.1294  0.2945
 6421W        W10472   6.244   2.667  13.345 -0.0780 -0.0282  0.1296
 6422W        W10473   7.297   4.783   2.455 -0.2446  0.2778  0.0691
 6423W        W10474   8.614   6.294  13.453 -0.2217 -0.2142  0.1990
 6424W        W10475   3.084   0.157  11.108 -0.2145 -0.2941  0.2521
 6425W        W10476   8.638   8.935   0.343 -0.0656 -0.0090 -0.0512
 6426W        W10477   8.689   5.485  11.178 -0.1463 -0.0632  0.1122
 6427W        W10478   8.428   3.558   2.351 -0.2781 -0.0045 -0.1804
 6428W        W10479   4.981   7.529  12.323 -0.2971  0.2090  0.5404
 6429W        W10480   1.479   2.568   8.443 -0.1382  0.0757  0.0400
 6430W        W10481   5.038   9.551   9.670 -0.0383  0.2784 -0.1396
 6431W        W10482   1.657   3.752   4.636 -0.0649  0.2243  0.1733
 6432W        W10483   5.660   5.607  11.174  0.1512 -0.2441  0.2279
 6433W        W10484   3.473   4.430   3.264  0.1113 -0.0853 -0.2435
 6434W        W10485   9.074   7.876   3.579  0.0561  0.1298  0.2152
 6435W        W10486   5.058   7.103  11.071  0.3241  0.0936  0.3811
 6436W        W10487   5.405   3.812  12.718  0.2925 -0.1330  0.3016
 6437W        W10488   0.151   1.617   9.762  0.0241 -0.0216  0.0667
 6438W        W10489   7.364   7.456   5.312 -0.0056  0.1583 -0.2821
 6439W        W10490   9.295   7.433  13.619 -0.0818 -0.2239  0.1988
 6440W        W10491   9.736   7.756   2.014 -0.0526  0.0337 -0.2909
 6441W        W10492   1.841   5.908   1.196 -0.2528 -0.0273  0.2757
 6442W        W10493   5.890   0.422   9.872 -0.4302 -0.2264  0.2603
 6443W        W10494   0.689   4.512  12.283 -0.1593 -0.0289  0.1811
 6444W        W10495   2.906   8.953   3.932 -0.1635  0.0771 -0.1286
 6445W        W10496   7.645   0.644   1.452 -0.4168  0.1586 -0.0335
 6446W        W10497   6.979   5.157  11.334 -0.1215  0.1176  0.0279
 6447W        W10498   7.551   4.372   0.951 -0.4381  0.1988  0.2093
 6448W        W10499   7.088   0.260  13.657 -0.2855  0.0012 -0.0886
 6449W        W10500   1.796   1.102   1.439  0.1188  0.1894  0.1431
 6450W        W10501   3.189   5.410  11.131  0.0110  0.1124  0.1185
 6451W        W10502   4.937   5.674   5.137  0.3411  0.0881  0.1099
 6452W        W10503   7.183   6.388   2.891  0.2563 -0.0907 -0.0240
 6453W        W10504   5.482   1.172  11.633 -0.1418  0.0865 -0.1994
 6454W        W10505   6.492   6.743  13.476 -0.0504  0.0917  0.4419
 6455W        W10506   2.696   0.915   9.347 -0.0162  0.4009  0.0766
 6456W        W10507   8.521   9.830   2.173 -0.3915 -0.0664  0.2834
 6457W        W10508   5.182   7.361   2.870  0.1188  0.0108  0.0144
 6458W        W10509   0.673   7.497   1.633 -0.2533 -0.1087 -0.1916
 6459W        W10510   1.474   9.267   2.672  0.1846  0.0116 -0.0463
 6460W        W10511   7.079   3.544   0.461 -0.0489  0.0059  0.1917
 6461W        W10512   5.464   5.872  13.661  0.1345 -0.3053 -0.1761
 6462W        W10513   3.793   4.151   1.698 -0.0790  0.3761 -0.3371
 6463W        W10514   8.206   3.638   2.883  0.2060 -0.0907  0.4783
 6464W        W10515   5.123   3.885   3.092 -0.0956 -0.1136  0.0849
 6465W        W10516   0.841   7.295   0.222 -0.1941 -0.1684 -0.2411
 6466W        W10517   5.420   2.122  10.151 -0.0169  0.0355 -0.1167
 6467W        W10518   1.681   0.345   2.860  0.2876 -0.0398 -0.2903
 6468W        W10519   1.655   3.786   3.109  0.1825 -0.0886  0.1289
 6469W        W10520   5.431   8.305  12.315 -0.2450 -0.0706  0.0521
 6470W        W10521   2.913   9.576   3.172 -0.0869  0.3072  0.0123
 6471W        W10522   7.478   8.470   2.071 -0.2537  0.1841  0.0352
 6472W        W10523   5.504   6.283   5.969  0.0944 -0.0935  0.0588
 6473W        W10524   3.704   2.811  10.845 -0.1009  0.2480 -0.0005
 6474W        W10525   1.693   0.171  10.338  0.1229  0.0189  0.0150
 6475W        W10526   9.071   7.350   3.666 -0.1648  0.2915  0.1733
 6476W        W10527   2.913   3.420  10.477 -0.3101 -0.1696 -0.0131
 6477W        W10528   4.155   8.834   2.188  0.0737 -0.0772  0.1371
 6478W        W10529   7.637   5.291  10.154 -0.2886  0.2074 -0.0262
 6479W        W10530   1.222   1.399  10.237 -0.2363 -0.0204 -0.3261
 6480W        W10531   5.820   7.734   1.561  0.0043 -0.2101 -0.2322
 6481W        W10532   5.898   4.291   4.145 -0.2552  0.0344 -0.1077
 6482W        W10533   7.273   2.417   0.414 -0.1652  0.0406 -0.0119
 6483W        W10534   4.953   0.273  11.717  0.1489 -0.0396 -0.2859
 6484W        W10535   7.776   7.031   3.087 -0.3242  0.1382 -0.1153
 6485W        W10536   5.959   7.184  13.450 -0.0035 -0.1528 -0.3101
 6486W        W10537   3.328   6.007   4.821 -0.2170 -0.0145 -0.1230
 6487W        W10538   1.036   2.582   2.561 -0.1834 -0.4419 -0.1164
 6488W        W10539   7.908   6.252   0.515 -0.0351  0.2364 -0.0478
 6489W        W10540   9.040   6.490   2.853 -0.1089 -0.2062  0.0057
 6490W        W10541   3.524   8.727  11.856  0.0407 -0.0628 -0.0549
 6491W        W10542   0.277   7.082  13.490  0.1224 -0.0740 -0.0966
 6492W        W10543   2.098   0.275   2.620  0.1686  0.1668 -0.3454
 6493W        W10544   6.696   2.308   0.571 -0.0829 -0.2629 -0.4478
 6494W        W10545   4.789   1.053  11.744  0.1964  0.1751 -0.0113
 6495W        W10546   2.000   6.148   5.781  0.0648  0.0114 -0.1831
 6496W        W10547   8.206   2.774  13.312  0.1296  0.2039 -0.0486
 6497W        W10548   3.790   0.473  12.045 -0.0823 -0.2683  0.2032
 6498W        W10549   3.853   8.302   3.296 -0.0658 -0.2655  0.1974
 6499W        W10550   9.637   2.714  13.453 -0.1125 -0.1272 -0.2476
 6500W        W10551  10.085   5.439   3.242  0.0793 -0.1069  0.0963
 6501W        W10552   4.045   9.717  13.168  0.1338  0.0736 -0.0636
 6502W        W10553   8.295  10.158  10.361  0.0957  0.2647 -0.0371
 6503W        W10554   1.336   6.721  13.065  0.0353  0.7494  0.0280
 6504W        W10555   5.330   7.730   1.221 -0.1267 -0.2897  0.1242
 6505W        W10556   4.593   9.504  10.505  0.0534 -0.1067  0.2437
 6506W        W10557   4.343   6.048   2.061 -0.4004  0.2498  0.0038
 6507W        W10558   4.719   2.756  11.908  0.0078 -0.0563  0.1198
 6508W        W10559   2.179   2.627  11.689  0.3182 -0.1562 -0.0396
 6509W        W10560   2.544   2.915  11.870 -0.0230 -0.4967 -0.0627
 6510W        W10561   2.450   6.246   2.609  0.1082 -0.1310  0.1482
 6511W        W10562   0.500   5.057   0.971  0.0530  0.0672  0.1147
 6512W        W10563   3.380   5.268  12.358 -0.1047 -0.1834 -0.2309
 6513W        W10564   7.207   4.507   4.206  0.0090 -0.0093  0.0459
 6514W        W10565   1.800   1.823  12.732 -0.2141  0.1366 -0.3059
 6515W        W10566   8.301   5.504   4.307 -0.2787  0.2106  0.3031
 6516W        W10567   3.907   2.105   1.657  0.1755  0.0687 -0.1598
 6517W        W10568   9.856   0.294   0.290  0.5173 -0.1396 -0.0320
 6518W        W10569   7.082   2.778  13.616  0.2101  0.0018 -0.1288
 6519W        W10570   4.831   0.117   4.901  0.0477 -0.2385 -0.0944
 6520W        W10571   9.595   3.625   4.152  0.4888 -0.0938  0.0032
 6521W        W10572   7.610   0.915   3.594 -0.1352 -0.1045  0.2541
 6522W        W10573   4.828   8.250   3.352 -0.0007  0.2005 -0.1272
 6523W        W10574   6.199   2.545   3.506 -0.3614  0.0100  0.1316
 6524W        W10575   8.760   4.731   4.159  0.3769  0.0427 -0.2871
 6525W        W10576   5.279   2.922   1.401  0.2122 -0.0732 -0.2872
 6526W        W10577   3.650   8.502   1.875 -0.2682  0.0713 -0.2180
 6527W        W10578   2.805   5.284   2.099 -0.0209  0.0179 -0.1839
 6528W        W10579   0.766   0.291  12.818  0.0892 -0.1793 -0.2268
 6529W        W10580   0.431   1.392   0.439  0.0496 -0.1227  0.1369
 6530W        W10581   8.504   9.702  10.110 -0.1814  0.0478  0.3652
 6531W        W10582   4.691   6.104  12.723 -0.3448  0.3933 -0.0030
 6532W        W10583   1.410   5.998   4.573  0.0664  0.3067 -0.1756
 6533W        W10584   1.486  10.139  11.791  0.0802  0.1136  0.2548
 6534W        W10585   9.481   9.451   8.687  0.1529 -0.4069  0.2764
 6535W        W10586   2.765   8.803   1.278 -0.1745  0.0310 -0.1112
 6536W        W10587   5.233   8.162   0.956 -0.0006  0.0768  0.3743
 6537W        W10588   3.080   3.318   4.794 -0.3762  0.1258 -0.0840
 6538W        W10589   9.874   6.618   0.582  0.0591  0.1741 -0.1321
 6539W        W10590   6.956   2.521  12.320 -0.1072  0.1014 -0.0374
 6540W        W10591   1.585   3.188   1.163  0.0587 -0.2812  0.0858
 6541W        W10592   7.149   9.202   1.885  0.3285  0.2819 -0.4323
 6542W        W10593   0.963   7.923   9.833 -0.0165 -0.1693  0.0251
 6543W        W10594   0.678   9.181   4.721  0.1768 -0.1426 -0.2749
 6544W        W10595   0.754   1.171   0.774  0.0170 -0.1587 -0.1964
 6545W        W10596   1.974   3.878   5.468 -0.1948 -0.0949 -0.0556
 6546W        W10597   4.045   9.420   9.505  0.0727 -0.1859  0.0053
 6547W        W10598   5.606   9.976  11.198 -0.1473  0.0391  0.1851
 6548W        W10599   3.903   3.753   1.333 -0.0761 -0.1454 -0.2155
 6549W        W10600   2.841   4.443  10.327  0.0119  0.0257  0.2736
 6550W        W10601   0.703   2.486   0.273  0.0278 -0.2846 -0.0572
 6551W        W10602   3.111   0.304  12.828  0.2067 -0.0105 -0.2802
 6552W        W10603   3.058   1.228   0.816  0.0087  0.2200  0.0368
 6553W        W10604   5.128   2.391   2.993 -0.2730  0.1073 -0.2434
 6554W        W10605   9.823   9.097   2.512  0.0802  0.1708 -0.1040
 6555W        W10606   0.369   0.657   0.892  0.2468  0.0022 -0.0059
 6556W        W10607   7.236   3.497  13.083  0.4411  0.0725 -0.0062
 6557W        W10608   3.974   3.776   0.370  0.4045  0.3938  0.1395
 6558W        W10609   6.813   5.391   2.003  0.0688 -0.2292  0.1833
 6559W        W10610   3.315   5.909  11.101 -0.0156  0.0916  0.2040
 6560W        W10611   5.699   2.441   0.885  0.0831 -0.1348 -0.0706
 6561W        W10612   0.650   7.781  10.735 -0.1212  0.2042  0.0634
 6562W        W10613   2.841   7.145   2.972 -0.1155 -0.0380 -0.0296
 6563W        W10614   0.874   3.330   0.678 -0.0978 -0.2359  0.2137
 6564W        W10615   6.794   9.877   5.567  0.2355 -0.1206  0.1059
 6565W        W10616   8.219   2.031   3.442 -0.0005  0.0001  0.2880
 6566W        W10617   9.125   9.544  10.767  0.3178  0.4457  0.1008
 6567W        W10618   8.502   9.138  11.855 -0.1121  0.0292  0.0756
 6568W        W10619   7.353   5.719   3.448 -0.2458 -0.3046 -0.1520
 6569W        W10620   4.871   7.350   2.452 -0.2621  0.1343 -0.0833
 6570W        W10621   2.249   9.561   3.005  0.1167  0.1684 -0.1269
 6571W        W10622   8.743   4.906  11.312 -0.0308  0.1632 -0.0532
 6572W        W10623   3.067   5.266  11.562 -0.0945 -0.1391 -0.1167
 6573W        W10624   3.065   5.762  10.150 -0.1065  0.0258  0.0287
 6574W        W10625   5.220   6.367   9.710  0.1514  0.0136  0.0431
 6575W        W10626   1.008   7.278   8.930 -0.1363  0.0320 -0.2269
 6576W        W10627   7.210   3.502  12.219  0.1737 -0.0707 -0.0916
 6577W        W10628   3.197   3.930   3.315  0.1116  0.0491 -0.1401
 6578W        W10629   8.110   9.621  11.193  0.3444 -0.0177 -0.1549
 6579W        W10630   5.679   9.952   4.728  0.0805 -0.2548  0.0935
 6580W        W10631   6.541   0.843   2.138  0.4273 -0.0994  0.1069
 6581W        W10632   3.259   2.817  12.163 -0.2940  0.2007  0.1415
 6582W        W10633   5.904   5.029  13.922  0.1150  0.0201  0.1430
 6583W        W10634   2.256   8.150   2.936  0.0443 -0.0303  0.0758
 6584W        W10635   8.044   9.144   2.380  0.1210 -0.0935  0.3043
 6585W        W10636   4.415   9.129   5.042 -0.1558 -0.3633  0.3174
 6586W        W10637   8.911   9.548  11.872  0.1841 -0.3461 -0.0559
 6587W        W10638   2.122   4.365   9.571 -0.1208  0.0927 -0.4869
 6588W        W10639  10.101   8.410  12.505  0.0794 -0.0976 -0.0491
 6589W        W10640   0.127   3.428   0.876 -0.0540 -0.1688  0.0072
 6590W        W10641   7.171   0.082  10.614  0.2155  0.3106 -0.1102
 6591W        W10642   4.018   0.160  11.572 -0.2661 -0.1007  0.2434
 6592W        W10643   0.021   6.235   3.079 -0.0895 -0.0090 -0.1925
 6593W        W10644   5.524   1.383  11.092  0.0615  0.1898 -0.1520
 6594W        W10645   4.869   2.886  12.465 -0.0599 -0.1275  0.1736
 6595W        W10646   6.116   7.697   2.082 -0.0840 -0.1801  0.2468
 6596W        W10647  10.184   9.186   1.654  0.0744 -0.3406  0.1082
 6597W        W10648   9.757   6.578  11.069 -0.0259  0.2064 -0.1581
 6598W        W10649   0.266   5.466   0.196  0.1605 -0.0569  0.1187
 6599W        W10650   3.791   0.971  11.918 -0.1813  0.1228 -0.0702
 6600W        W10651   5.478   2.781   0.469  0.2481  0.1308  0.1979
 6601W        W10652   4.351   0.532   9.831 -0.3669 -0.1928 -0.2096
 6602W        W10653   0.844   7.832   0.335  0.0951 -0.0370 -0.1493
 6603W        W10654   1.019   0.175   4.201 -0.2720  0.3235  0.2286
 6604W        W10655   6.071   8.778   4.029  0.2018 -0.1021 -0.2076
 6605W        W10656   6.378   3.236   2.241  0.1258 -0.0164  0.2471
 6606W        W10657   4.242   8.768  12.021  0.1228  0.3568  0.0640
 6607W        W10658   3.338   1.203   0.396 -0.0395 -0.2000 -0.2134
 6608W        W10659   1.281   2.755   1.865 -0.0549  0.0655  0.0454
 6609W        W10660   9.125   6.844  11.214  0.1938  0.0613 -0.1797
 6610W        W10661   3.630   2.882   3.846 -0.0072  0.1675 -0.4261
 6611W        W10662   7.024   3.739  13.797 -0.1080 -0.1991 -0.0358
 6612W        W10663   9.450   3.811   3.267  0.0280  0.1906  0.4223
 6613W        W10664   4.095   8.514   5.424 -0.0857  0.1477 -0.2488
 6614W        W10665   9.426   0.578  11.157 -0.2786  0.1197  0.2149
 6615W        W10666  10.027   7.717   0.672 -0.1710  0.3871  0.1342
 6616W        W10667   4.083   7.540   1.657 -0.2027  0.2005  0.2775
 6617W        W10668   2.957   0.418   0.432 -0.0731 -0.0177  0.2212
 6618W        W10669   9.705   4.554  11.440  0.1460 -0.0926 -0.0662
 6619W        W10670   4.259   6.066  10.676  0.1670 -0.1226  0.0339
 6620W        W10671   3.175   1.079   3.193  0.0549 -0.1593  0.0965
 6621W        W10672   7.413   7.757   3.640  0.0599  0.2278  0.4379
 6622W        W10673   2.659   0.252  13.182  0.1035  0.0341  0.0215
 6623W        W10674   0.446   6.086  10.775  0.0188 -0.1662 -0.1326
 6624W        W10675   5.375   8.890   3.439 -0.0539  0.1834  0.0058
 6625W        W10676   6.664   7.781  12.140  0.2713 -0.1091 -0.0273
 6626W        W10677   0.999   7.697  12.840 -0.1468  0.2154  0.2735
 6627W        W10678   2.211   2.060   9.588 -0.1163  0.1666 -0.0779
 6628W        W10679   1.611   2.128   3.264  0.0503 -0.1301  0.0003
 6629W        W10680   0.322   3.979  12.176 -0.1942  0.1992  0.0746
 6630W        W10681   1.950   7.715   3.133 -0.2314  0.0353 -0.1116
 6631W        W10682   0.635   6.999   2.371 -0.0716  0.0048  0.3201
 6632W        W10683   4.726   6.287   0.043 -0.1177  0.0368  0.1308
 6633W        W10684   5.284   6.336   4.342  0.0859  0.0878 -0.2062
 6634W        W10685   4.939   2.988   4.506 -0.2932 -0.1336 -0.1156
 6635W        W10686   2.626   5.095   0.668 -0.1721 -0.0019  0.1147
 6636W        W10687   8.984   5.268   2.331 -0.1426  0.0452 -0.1451
 6637W        W10688   2.661   6.474  12.279  0.0819  0.2215 -0.2026
 6638W        W10689   0.614   2.089   2.188 -0.0194 -0.0097 -0.0230
 6639W        W10690   2.239   1.441   4.122  0.0921 -0.1214 -0.0925
 6640W        W10691   6.940   6.401  10.875  0.1429 -0.1315 -0.0495
 6641W        W10692   7.703   4.047  13.493 -0.1681  0.0836 -0.1533
 6642W        W10693   0.291   4.763  12.517 -0.1483  0.4981  0.2037
 6643W        W10694   7.288   4.346  13.690  0.1483  0.0155 -0.1695
 6644W        W10695   2.564   5.766   5.300 -0.0279  0.1299  0.1038
 6645W        W10696   9.544   9.845  10.734  0.1990  0.3228 -0.0937
 6646W        W10697   1.588   4.371   9.917  0.1994 -0.3405 -0.1268
 6647W        W10698   9.227   4.141  12.265 -0.0974 -0.0730 -0.1309
 6648W        W10699   6.720   0.947   0.915  0.0687  0.0761 -0.1402
 6649W        W10700   3.310   7.992   1.856 -0.0090  0.1873  0.1356
 6650W        W10701   0.787   5.754   0.117 -0.0382  0.3463  0.0044
 6651W        W10702   0.648   2.360   4.052 -0.0530 -0.3912 -0.1978
 6652W        W10703   6.194   5.769  12.395 -0.1182 -0.0141  0.2282
 6653W        W10704   2.019   3.171   2.401 -0.1459  0.1976  0.0290
 6654W        W10705   2.907   8.279   9.652  0.3884 -0.1073  0.1033
 6655W        W10706   9.058   7.948   4.260  0.0940 -0.4108  0.1582
 6656W        W10707   6.763   3.862   3.655 -0.0744  0.0296  0.1886
 6657W        W10708   8.289   7.224  12.869  0.0757  0.1279 -0.0831
 6658W        W10709   5.007   7.027  12.320 -0.2456  0.1811  0.1611
 6659W        W10710   2.987   2.536   0.389 -0.1247  0.0695  0.1228
 6660W        W10711   8.498   0.512   2.514 -0.0217  0.3450  0.0566
 6661W        W10712   5.659   9.993   0.868 -0.2335 -0.1634 -0.0697
 6662W        W10713   5.732   6.528  11.628 -0.1562 -0.1419 -0.1514
 6663W        W10714   5.776   0.635   3.103 -0.2610  0.1029 -0.1978
 6664W        W10715   7.356   0.302   4.855 -0.2111 -0.0736 -0.0442
 6665W        W10716   5.366   9.942  10.391 -0.1103  0.1572  0.1127
 6666W        W10717  10.054   2.946  13.677 -0.2349  0.0330  0.2485
 6667W        W10718   8.277   9.133   4.580  0.1404 -0.1951  0.0189
 6668W        W10719   9.514   6.425   2.998 -0.1682 -0.4156  0.1989
 6669W        W10720   7.590   7.363   4.429 -0.2333 -0.1844 -0.1598
 6670W        W10721   6.248   8.248   4.225  0.1684 -0.0493  0.0124
 6671W        W10722   4.892   9.287   3.407 -0.2668  0.1895  0.1567
 6672W        W10723   0.917   9.281   3.073 -0.1622 -0.3204 -0.0801
 6673W        W10724   9.242   5.076   2.888  0.0472  0.2738 -0.3621
 6674W        W10725   5.029   9.695  12.345 -0.2112  0.1775 -0.1622
 6675W        W10726   3.845   0.519   9.222  0.0756  0.0029 -0.1055
 6676W        W10727   7.927   9.657   0.675 -0.0771  0.3754 -0.0214
 6677W        W10728   9.526   9.776   4.702  0.2012  0.1029  0.0894
 6678W        W10729   5.370   3.352  13.013 -0.1160 -0.0215  0.3937
 6679W        W10730   3.844   5.557  13.254  0.1807  0.2217 -0.0806
 6680W        W10731   6.724   6.758   5.108  0.0811 -0.1456 -0.0046
 6681W        W10732   6.181   3.971  11.193  0.2341  0.3508  0.1716
 6682W        W10733   9.247   3.314   3.359 -0.1308  0.0668 -0.1833
 6683W        W10734   3.365   1.310  11.960  0.1043 -0.1657 -0.2017
 6684W        W10735   4.831   0.368   3.810  0.1261  0.2075  0.1129
 6685W        W10736   4.156   0.019   0.460 -0.0037  0.2069  0.1685
 6686W        W10737   9.257   0.117   9.616  0.2126  0.1774  0.0406
 6687W        W10738   3.867   8.085  13.299  0.6664 -0.1942 -0.2549
 6688W        W10739   2.316   9.858   9.241  0.0340  0.1558 -0.0143
 6689W        W10740   2.251   7.069  12.852  0.1088 -0.2489  0.0727
 6690W        W10741   8.306   5.363   2.931 -0.1761  0.5126 -0.2283
 6691W        W10742   1.196   8.321   4.161 -0.1309 -0.0804  0.1022
 6692W        W10743   1.069   5.212  13.579  0.0241  0.0800 -0.1975
 6693W        W10744   4.965   3.774   1.587 -0.0441  0.1457 -0.2732
 6694W        W10745   8.133   4.203   1.815 -0.1148 -0.0166 -0.5319
 6695W        W10746   4.799   8.429   4.479  0.2412  0.1161 -0.1666
 6696W        W10747   6.419   7.430  13.803  0.0361 -0.2792 -0.4003
 6697W        W10748   3.959   7.839   3.509 -0.0905 -0.2956  0.3483
 6698W        W10749   8.075   5.207   9.162  0.3519 -0.3239 -0.2659
 6699W        W10750   9.455   6.501  12.911 -0.2495 -0.0040 -0.1291
 6700W        W10751   1.101   8.467   1.752  0.1036 -0.1143 -0.1413
 6701W        W10752   5.738   8.134  13.018 -0.1354 -0.0674 -0.2896
 6702W        W10753   8.602   3.913   2.688 -0.2121  0.1887 -0.1541
 6703W        W10754   2.280   3.665   2.553  0.2768  0.0258  0.3771
 6704W        W10755   4.427   7.249   4.100  0.0941 -0.2699  0.1899
 6705W        W10756   7.356   9.989   4.751 -0.0817  0.0956 -0.1263
 6706W        W10757   8.956   6.636   0.516  0.1562  0.0872 -0.3422
 6707W        W10758   3.023   4.393   8.988  0.2814 -0.2484 -0.0727
 6708W        W10759  10.100   8.564  12.974 -0.0698 -0.0667 -0.0609
 6709W        W10760   3.853   9.885  11.404 -0.0124  0.0950 -0.2523
 6710W        W10761   9.084   7.077   0.281  0.0407 -0.1370 -0.0361
 6711W        W10762   3.261   7.322   3.964  0.0325  0.2322 -0.0763
 6712W        W10763   8.915   7.663  11.557 -0.3201 -0.0797  0.0366
 6713W        W10764   5.985   9.576   2.593  0.4208 -0.0170  0.0619
 6714W        W10765   0.986   9.968  13.029 -0.2704 -0.2094 -0.0757
 6715W        W10766   8.078   0.996  12.132  0.1915 -0.1038 -0.0073
 6716W        W10767   7.810   9.959  11.862 -0.1838 -0.1459 -0.0122
 6717W        W10768   8.312   5.614  13.815  0.2139 -0.1050  0.2087
 6718W        W10769   0.915   2.943  11.681 -0.3868  0.1764  0.2596
 6719W        W10770  10.026   4.446   2.439 -0.0410  0.1355 -0.1214
 6720W        W10771   8.445   7.847   1.203  0.3268 -0.0112  0.1187
 6721W        W10772   3.399   3.594  10.475 -0.2652 -0.2365 -0.3019
 6722W        W10773   4.423   8.426   2.019 -0.1418 -0.1676  0.1032
 6723W        W10774   4.122   4.230  13.147  0.0215  0.1598 -0.0070
 6724W        W10775   6.296   9.937   9.392 -0.2555 -0.0493 -0.0512
 6725W        W10776   4.207   3.382   1.158 -0.1562  0.1853 -0.0778
 6726W        W10777   0.859   2.236  10.217  0.1301 -0.1475 -0.3015
 6727W        W10778   7.842   2.510  13.550 -0.4810  0.2571 -0.0981
 6728W        W10779   9.110   9.818  13.200 -0.1207 -0.2030 -0.1776
 6729W        W10780   6.191   9.719  10.808  0.2271 -0.1484 -0.1119
 6730W        W10781   9.859   5.532   2.590 -0.1624  0.3131 -0.1766
 6731W        W10782   5.804   8.218  13.856  0.1896  0.0575  0.1187
 6732W        W10783   3.594   3.315   4.559  0.0044  0.3250  0.0898
 6733W        W10784   0.850   2.512  12.014 -0.0550  0.1164 -0.0885
 6734W        W10785   1.933   9.170  11.360  0.0181  0.0233 -0.2321
 6735W        W10786   4.480   3.450  13.533  0.0628  0.0525  0.2167
 6736W        W10787   8.626   7.716   2.954 -0.1185  0.1051 -0.0922
 6737W        W10788   2.103   4.625   0.743  0.3232  0.1869  0.0272
 6738W        W10789   5.238   0.258  10.340 -0.3174  0.2363  0.0506
 6739W        W10790   9.659   0.237  13.819 -0.2955 -0.0581  0.0969
 6740W        W10791   6.529   2.892   3.217 -0.0661  0.0240 -0.1465
 6741W        W10792   3.247   3.923  11.693  0.1715  0.2428  0.1601
 6742W        W10793   0.564   3.497  13.263  0.1541 -0.0416 -0.0354
 6743W        W10794   7.754   0.458   3.516 -0.2559  0.0995 -0.1292
 6744W        W10795   1.351   3.965   8.918  0.1925  0.1311  0.4044
 6745W        W10796   2.600   3.274   4.198 -0.1413  0.0531 -0.1500
 6746W        W10797   1.974   6.651  11.012 -0.0580  0.2140  0.0115
 6747W        W10798   3.414   4.625   9.976 -0.1746  0.2034  0.2541
 6748W        W10799   0.855   6.066   4.939  0.2516 -0.1042  0.3438
 6749W        W10800   9.264   9.995  10.071  0.1148  0.1270  0.0065
 6750W        W10801   6.647   4.884   0.824  0.0394  0.2000  0.0157
 6751W        W10802   4.193   3.204   0.326 -0.2128  0.0330  0.0647
 6752W        W10803   7.932   5.234  11.053 -0.2022  0.0093  0.0235
 6753W        W10804  10.031   1.170   1.274  0.0741  0.0976 -0.0274
 6754W        W10805   7.626   9.515  11.085 -0.2344  0.1755 -0.3603
 6755W        W10806   7.994   6.351   2.654 -0.1675  0.2336 -0.1213
 6756W        W10807   2.343   8.361  13.297 -0.2268 -0.0458  0.0586
 6757W        W10808   9.163   9.980   0.742  0.0116 -0.0895 -0.1346
 6758W        W10809   9.909   0.272   1.389  0.2124 -0.0836 -0.2000
 6759W        W10810   2.446   7.617   4.014 -0.0725  0.2077 -0.0946
 6760W        W10811   0.263   9.610   1.295  0.3307  0.3567  0.2712
 6761W        W10812   4.238   7.739  12.371 -0.3179 -0.2428 -0.0499
 6762W        W10813   4.179   5.880   0.940 -0.1197 -0.0438  0.2728
 6763W        W10814   3.798   2.642   1.454  0.0207  0.1209  0.1472
 6764W        W10815   2.047   2.944  10.659  0.1219 -0.3004  0.0189
 6765W        W10816   5.422   2.211   2.141  0.0306 -0.0683  0.0327
 6766W        W10817   8.676   2.823  13.067 -0.0930  0.0789 -0.4493
 6767W        W10818   1.252   2.764  12.202  0.1840  0.3504 -0.1135
 6768W        W10819   1.151   0.896   1.119 -0.0108  0.2922 -0.1090
 6769W        W10820   4.150   2.253   9.736  0.1749 -0.1251 -0.1908
 6770W        W10821   6.844   7.468  13.408  0.0277 -0.2411  0.1265
 6771W        W10822   3.578   3.070  13.836  0.2432 -0.3520 -0.2010
 6772W        W10823   8.450   1.422  12.136 -0.0268 -0.0500 -0.0026
 6773W        W10824   5.599   3.439   2.193 -0.3080 -0.0721 -0.2658
 6774W        W10825   9.119   6.593  10.200  0.1131 -0.0688 -0.1150
 6775W        W10826   6.809   6.584   3.730  0.1231  0.2141 -0.0458
 6776W        W10827   9.006   9.062  11.786 -0.2655  0.0127 -0.2958
 6777W        W10828   9.604   8.837  10.188 -0.1861  0.0299  0.3315
 6778W        W10829   0.003   8.740  11.526 -0.1014  0.4228 -0.0475
 6779W        W10830   8.872   0.993   3.912  0.1349  0.2376 -0.0592
 6780W        W10831   2.772   1.799  10.507 -0.3470 -0.2680 -0.3149
 6781W        W10832   8.945   6.195  10.405 -0.1968 -0.1999 -0.1213
 6782W        W10833   1.572   5.780  13.188  0.4659  0.2274 -0.0292
 6783W        W10834   8.125   0.724   2.863 -0.0348 -0.1930 -0.5096
 6784W        W10835   9.595   7.947   4.437  0.2201  0.0090 -0.5667
 6785W        W10836   9.819   8.901  12.353 -0.1051  0.2691 -0.3784
 6786W        W10837   4.156   4.734   1.590  0.0957  0.1872 -0.0172
 6787W        W10838   0.184   1.337  11.070  0.2701 -0.0312  0.0203
 6788W        W10839   3.465   9.215  10.397 -0.1268  0.0255  0.0907
 6789W        W10840   1.115   9.298   4.003  0.0165 -0.0243  0.0497
 6790W        W10841   6.331   3.212   2.874  0.3585  0.0546  0.0869
 6791W        W10842   6.208   7.525   2.755 -0.1252 -0.3367  0.2621
 6792W        W10843   7.211   8.632   3.656 -0.2386  0.1925  0.0852
 6793W        W10844   1.271   1.196   0.714  0.0680  0.2559 -0.4419
 6794W        W10845   7.045   1.528  13.843  0.2667  0.1957  0.1794
 6795W        W10846   7.350   3.160   0.586 -0.3374 -0.2050 -0.2517
 6796W        W10847   2.935   4.707   4.414  0.1321  0.2776 -0.0822
 6797W        W10848   3.867   5.260  12.427 -0.3418  0.2707 -0.1222
 6798W        W10849   7.494   2.096  10.362 -0.0266  0.2512  0.1351
 6799W        W10850   0.622   9.679  12.206 -0.0216 -0.0524 -0.1454
 6800W        W10851   9.132  10.075  13.695  0.0544  0.0216  0.0107
 6801W        W10852   8.209   0.471  10.570 -0.1938  0.0377  0.2892
 6802W        W10853   0.046   6.901  11.864 -0.0597 -0.1065 -0.2469
 6803W        W10854  10.102   3.255  12.114  0.2946 -0.0335 -0.1880
 6804W        W10855   7.480   1.437   0.854  0.0564  0.3468  0.0062
 6805W        W10856  10.115   7.630   0.137 -0.0003 -0.0921  0.0037
 6806W        W10857   3.825   2.928   0.422 -0.2059  0.3188  0.1176
 6807W        W10858   7.262   9.097   4.287 -0.2134 -0.4467  0.0795
 6808W        W10859   0.718   7.363  12.507 -0.1775  0.0250 -0.3284
 6809W        W10860  10.163   5.375   1.132 -0.1052 -0.0679  0.2428
 6810W        W10861   4.966   4.643   3.174  0.1616 -0.2043 -0.2446
 6811W        W10862   2.946   7.690   3.119  0.0740  0.1940 -0.1501
 6812W        W10863   6.532   6.979  10.141 -0.0249 -0.1260  0.0541
 6813W        W10864   9.744   2.180   0.334  0.4000 -0.1261  0.1851
 6814W        W10865   8.197   6.353  13.137 -0.2571 -0.1998 -0.1803
 6815W        W10866   8.626   4.484  11.629  0.0585 -0.1123 -0.2835
 6816W        W10867   9.988   7.124   2.776 -0.1971 -0.2137  0.3186
 6817W        W10868   9.937   8.868  13.904 -0.1656 -0.0888 -0.0184
 6818W        W10869   4.801   3.979   2.366 -0.0249  0.1360  0.2425
 6819W        W10870   1.620   8.990  10.514 -0.0202  0.1399 -0.1713
 6820W        W10871   3.212   2.179  12.782  0.2145  0.1810  0.0663
 6821W        W10872   3.671   6.404   5.098 -0.2782  0.3131  0.1204
 6822W        W10873   6.451   6.060  11.506 -0.1733 -0.1235  0.0243
 6823W        W10874   9.482   4.485   0.763  0.1424 -0.2207 -0.2137
 6824W        W10875   9.490   3.554  11.428 -0.0081  0.0199 -0.2109
 6825W        W10876   9.201   8.168   1.768 -0.0279  0.0106 -0.3146
 6826W        W10877   4.000   6.388  10.946  0.2184  0.2710  0.2612
 6827W        W10878   4.857   4.785  13.973  0.0101  0.1795  0.0411
 6828W        W10879   5.660   4.625   3.219  0.0698  0.0686 -0.2346
 6829W        W10880   7.209   7.988   5.291 -0.2341 -0.0562  0.0502
 6830W        W10881   1.338   8.167  11.572 -0.1117 -0.0236 -0.4031
 6831W        W10882   2.981   8.230  10.815  0.3736  0.0070 -0.0425
 6832W        W10883   4.481   4.451   0.125 -0.1829 -0.2387 -0.2501
 6833W        W10884   1.140   5.129   9.981 -0.0040  0.1169 -0.1963
 6834W        W10885   5.925   5.042  11.872  0.0807  0.0443 -0.3555
 6835W        W10886   6.330   5.446   9.824 -0.1462 -0.2572  0.1045
 6836W        W10887   3.517   7.678  13.290  0.3311  0.3406 -0.1360
 6837W        W10888   8.867   6.479  10.997 -0.0126  0.2071 -0.4095
 6838W        W10889   7.627   2.181  12.802  0.3168  0.1492 -0.0500
 6839W        W10890   6.560   5.741  13.126  0.0897 -0.0751 -0.0503
 6840W        W10891   3.481   5.526  12.825 -0.0122  0.3076  0.0840
 6841W        W10892   9.978   3.072  12.605 -0.0878  0.0894  0.1739
 6842W        W10893   1.038   5.482   1.509  0.0734  0.1784 -0.2959
 6843W        W10894   7.379   6.947  10.487 -0.2799  0.2459 -0.2211
 6844W        W10895   8.006   9.702  12.279  0.3807  0.1446  0.3490
 6845W        W10896   1.105   7.507  10.910  0.1053  0.1058  0.3262
 6846W        W10897   3.044   2.955  13.137 -0.1611  0.1957  0.1537
 6847W        W10898   3.178   9.981  12.648 -0.1029 -0.2739 -0.0697
 6848W        W10899   2.810   0.824   0.263 -0.2877 -0.1529  0.1858
 6849W        W10900   6.049   8.170  11.563 -0.4380 -0.0520  0.1087
 6850W        W10901   3.107   8.122   1.337 -0.0253  0.1166  0.0680
 6851W        W10902   7.347  10.170   3.544  0.0624 -0.3434 -0.0501
 6852W        W10903   2.135   8.438   3.777  0.1321 -0.0298 -0.3180
 6853W        W10904   8.911   8.811   9.594 -0.2200 -0.4227 -0.0090
 6854W        W10905   1.720   7.911   9.607  0.2298 -0.0099  0.2646
 6855W        W10906   3.470   8.991   1.897 -0.3197  0.4260  0.1127
 6856W        W10907   2.139   8.233  11.096 -0.0458 -0.2660  0.0254
 6857W        W10908   7.851   1.735  13.198  0.2060  0.2890 -0.3144
 6858W        W10909   7.761   5.574  11.472  0.0910  0.0996 -0.0935
 6859W        W10910   7.587   0.615  11.449  0.0248 -0.1977  0.1113
 6860W        W10911   2.523   3.857   3.351  0.0726  0.0608 -0.2437
 6861W        W10912   3.745   8.662   3.656 -0.0777  0.1527  0.0516
 6862W        W10913   5.276   8.481   4.816 -0.1706  0.0784  0.2795
 6863W        W10914   4.181   1.293  12.719 -0.2713 -0.3802 -0.2026
 6864W        W10915   9.486   2.159   2.388  0.0648 -0.0874  0.0120
 6865W        W10916   3.393   6.185  10.142 -0.1112  0.0952 -0.1778
 6866W        W10917   9.764   1.712  11.838 -0.0357  0.0463  0.2715
 6867W        W10918   4.015   4.883   0.155  0.2079 -0.0839  0.1935
 6868W        W10919   1.437   4.012  10.922 -0.0527  0.0619  0.0949
 6869W        W10920   0.480   2.196   9.839 -0.3638  0.1776  0.0073
 6870W        W10921   2.083   1.308   9.988 -0.2598 -0.2277  0.0483
 6871W        W10922   5.078   5.535  10.929  0.0858 -0.1513  0.2877
 6872W        W10923   2.454   4.763   4.243  0.0462  0.1517 -0.3014
 6873W        W10924   8.324   4.347   0.124 -0.0803 -0.3074  0.2202
 6874W        W10925   5.888   4.758  10.668  0.1494 -0.0577 -0.0805
 6875W        W10926   4.651   6.589   0.677 -0.0871  0.3250 -0.0564
 6876W        W10927   2.926   0.747   9.773 -0.2813  0.0849 -0.0819
 6877W        W10928   2.746   0.033  13.608  0.0838  0.1583  0.4187
 6878W        W10929   7.933   9.760   1.255  0.1478 -0.1254  0.2520
 6879W        W10930   6.780   3.437   2.630 -0.0414 -0.2709 -0.1257
 6880W        W10931   5.497   7.884  13.502  0.0682 -0.2320 -0.1636
 6881W        W10932   0.254   8.513   3.660  0.4070 -0.1256 -0.0687
 6882W        W10933   0.509   2.871  11.955  0.1200 -0.3372 -0.0475
 6883W        W10934   6.694   8.876  10.477 -0.2331  0.2737 -0.3618
 6884W        W10935   8.702   0.611   0.275  0.1304  0.0805  0.1756
 6885W        W10936   3.283   0.739   0.638  0.0772 -0.1505 -0.0425
 6886W        W10937   4.174   9.354  10.099  0.0390 -0.3778 -0.3566
 6887W        W10938   7.317   5.510   8.826 -0.1053  0.0341 -0.2376
 6888W        W10939   6.476   7.193   1.313  0.1504  0.0569 -0.1777
 6889W        W10940   7.379   5.890  11.299 -0.1195 -0.1614 -0.2478
 6890W        W10941   1.611   8.568  11.552  0.1517 -0.0816  0.0925
 6891W        W10942   9.273   8.487   9.966 -0.1088  0.3688 -0.3021
 6892W        W10943   0.202   9.064   3.795  0.2195  0.2045  0.1488
 6893W        W10944   2.621   4.251   9.236 -0.0325 -0.1363 -0.1430
 6894W        W10945   7.734   4.996  11.468 -0.0629  0.0438  0.1300
 6895W        W10946   2.864   4.211  11.785  0.0463  0.0189  0.4273
 6896W        W10947   4.411   4.964  13.750 -0.0833  0.3814  0.0318
 6897W        W10948   3.927   4.568   3.272  0.0614  0.1491 -0.0280
 6898W        W10949   9.090   0.899  10.316 -0.1344  0.0794  0.1778
 6899W        W10950   2.174   3.407   5.354 -0.3229 -0.2594  0.1582
 6900W        W10951   3.464   4.469   0.902 -0.0110  0.2694  0.2326
 6901W        W10952   9.447   7.545   2.327 -0.2535 -0.2288  0.0942
 6902W        W10953   2.053   9.862   4.840 -0.2209  0.1485  0.1883
 6903W        W10954   2.084   6.885  11.502  0.0417  0.1571 -0.0267
 6904W        W10955   9.049   4.902   0.386 -0.3756 -0.1717 -0.1377
 6905W        W10956   9.274   4.615   3.051 -0.0944 -0.1156 -0.1379
 6906W        W10957   6.669   8.469   1.967 -0.2805 -0.1418 -0.0328
 6907W        W10958   2.334   0.971  11.867  0.4547  0.2613 -0.2552
 6908W        W10959   7.366   3.386   9.854 -0.0621  0.0318 -0.0188
 6909W        W10960   1.952   4.624   2.938 -0.3311 -0.3552  0.1024
 6910W        W10961   6.616   3.201  12.950 -0.0636 -0.0498 -0.1380
 6911W        W10962   9.087   7.944   5.548  0.1522  0.1782 -0.1681
 6912W        W10963   7.653   0.004   1.421 -0.2167  0.2040  0.2761
 6913W        W10964   0.045   9.360   3.046  0.0809 -0.1699 -0.0389
 6914W        W10965   8.042   3.676  13.450  0.0931  0.0951 -0.1277
 6915W        W10966   8.091   2.597  11.551 -0.0335  0.2170 -0.1662
 6916W        W10967   4.265   9.324   2.403  0.2330 -0.0100  0.0341
 6917W        W10968   8.261   9.478   2.793 -0.0319  0.1228 -0.0305
 6918W        W10969   8.975   0.863  13.756  0.2120 -0.1739 -0.1108
 6919W        W10970   4.146   9.455   5.593 -0.2194  0.2034  0.2423
 6920W        W10971   6.299   4.768  10.897 -0.1563 -0.0715 -0.1058
 6921W        W10972   7.128   4.989   4.302  0.0978  0.2101  0.0736
 6922W        W10973   0.591   2.659  13.458 -0.1120  0.1616 -0.0141
 6923W        W10974   5.928   6.803   4.122 -0.0447 -0.0714 -0.0042
 6924W        W10975   4.238   6.550   9.842  0.0341  0.0161 -0.2574
 6925W        W10976   6.924   2.777  11.288  0.1265 -0.0623  0.0181
 6926W        W10977   9.318   6.858  11.674 -0.2778 -0.0566 -0.1393
 6927W        W10978   0.675   8.529   1.519 -0.1257  0.1927  0.1632
 6928W        W10979   9.475   4.113  10.064  0.2064 -0.0946 -0.2586
 6929W        W10980   5.208   2.499  12.984  0.0502  0.0411 -0.1706
 6930W        W10981   2.263   8.964  11.697  0.0618  0.1508 -0.0177
 6931W        W10982   3.493   7.807   1.365 -0.2341 -0.0371  0.1222
 6932W        W10983   8.911   7.144  13.618  0.3904  0.2223  0.1902
 6933W        W10984   4.112   6.425  13.783 -0.0704 -0.0310 -0.0913
 6934W        W10985   3.595   6.519   9.093  0.0615 -0.2433 -0.1161
 6935W        W10986   1.201   7.960   1.969 -0.2145  0.1125 -0.0509
 6936W        W10987   1.030   8.400   0.555 -0.1825 -0.2289  0.2377
 6937W        W10988   6.959   3.970  10.797  0.0878  0.0467 -0.3338
 6938W        W10989   6.264   3.818  11.726 -0.0801  0.1538  0.0266
 6939W        W10990   9.157   9.154   4.304  0.1986  0.3506  0.1399
 6940W        W10991   1.633   2.452   0.821 -0.0305  0.0073 -0.2064
 6941W        W10992   2.905   1.102  11.945  0.0723  0.1891  0.2230
 6942W        W10993   4.076   5.269   1.459 -0.1540 -0.2351 -0.0351
 6943W        W10994   3.327   2.513  11.019 -0.1566  0.1106 -0.0128
 6944W        W10995   3.601   9.232   4.179 -0.0679  0.1437 -0.0325
 6945W        W10996   6.439   4.929  11.927 -0.0461  0.2782  0.0798
 6946W        W10997   8.857  10.129   3.465  0.2246 -0.0831  0.0768
 6947W        W10998   1.571   6.705  10.114 -0.2333 -0.1839  0.0381
 6948W        W10999   9.429   3.264   0.471 -0.1120 -0.0648 -0.2986
 6949W        W11000   4.600   4.038   1.937  0.1007 -0.0513 -0.2008
 6950W        W11001   0.184   5.170   4.164  0.1260  0.3424  0.0940
 6951W        W11002   6.328   7.711  13.303  0.0740 -0.0946  0.2255
 6952W        W11003   7.207   8.654   2.583  0.0866 -0.1397  0.0188
 6953W        W11004   0.997   6.347   3.752  0.1613 -0.0673  0.0326
 6954W        W11005   1.175   6.580  12.576  0.3296 -0.1781  0.2203
 6955W        W11006   4.282   7.973   1.928  0.1114  0.1092 -0.0453
 6956W        W11007   8.824   7.120   1.259 -0.0885  0.0441  0.1220
 6957W        W11008  10.025   1.162  12.542  0.1098  0.1261 -0.4845
 6958W        W11009   1.074   0.278  13.872  0.0527  0.0476 -0.0160
 6959W        W11010   5.795   0.629  13.869  0.0008  0.0071 -0.1606
 6960W        W11011   2.926   2.287  13.612  0.0316  0.3197 -0.0448
 6961W        W11012   3.885   0.089   2.758 -0.2043 -0.0126 -0.1290
 6962W        W11013   5.322   8.770  11.527 -0.4063  0.1530  0.0646
 6963W        W11014   3.765   4.521  12.246 -0.1543 -0.2033 -0.0782
 6964W        W11015   8.591   5.123   9.966 -0.2097  0.2260  0.0199
 6965W        W11016   4.275   6.494  10.343 -0.2309 -0.1732  0.1810
 6966W        W11017   7.472   5.734   2.530 -0.2147  0.0014  0.2573
 6967W        W11018   7.896   8.705   4.793 -0.1911  0.1440  0.2078
 6968W        W11019   0.908   7.484   0.706  0.1573  0.0499  0.5452
 6969W        W11020   4.401   0.812  13.377  0.0503  0.0025  0.0636
 6970W        W11021   7.145   5.841   0.387  0.1619  0.2269  0.1330
 6971W        W11022   9.602   5.267   1.977  0.1239  0.2322  0.2675
 6972W        W11023   5.204   8.196  10.835 -0.0511 -0.2315 -0.2953
 6973W        W11024   4.129   5.595   1.953 -0.0036  0.2524 -0.1335
 6974W        W11025   6.412   5.955   3.399  0.0058 -0.2772  0.1064
 6975W        W11026   1.157   8.222   5.225  0.1645  0.0489 -0.3637
 6976W        W11027   7.960   9.071  11.587  0.0182  0.0138  0.0795
 6977W        W11028   0.075   2.771   2.482  0.1032  0.0438  0.2328
 6978W        W11029   2.384   9.784  10.924 -0.2288 -0.3026 -0.1233
 6979W        W11030   2.846   1.908  11.271 -0.1155  0.0591  0.4169
 6980W        W11031   6.725   8.898  12.065  0.0538  0.0863  0.0476
 6981W        W11032   1.102   4.831   3.747  0.1172  0.1263  0.1153
 6982W        W11033   2.726   9.182  11.772 -0.0650  0.2443 -0.1471
 6983W        W11034   1.204   7.795  11.325 -0.0580  0.1723 -0.1464
 6984W        W11035   4.933   3.424  13.225  0.2903 -0.0425  0.0093
 6985W        W11036   7.677   8.029  12.926 -0.0055 -0.3096 -0.1162
 6986W        W11037   6.495   8.119   0.983 -0.2941  0.0423  0.0839
 6987W        W11038   3.956   6.084   1.805 -0.0873  0.1543 -0.2758
 6988W        W11039   2.785   1.786   9.704 -0.2904 -0.1575  0.1105
 6989W        W11040   4.454   0.725   1.544  0.3837 -0.0208  0.1270
 6990W        W11041   5.341   9.055   2.587  0.2205 -0.0182 -0.0218
 6991W        W11042   3.864   2.613  12.058 -0.0535  0.3401 -0.1225
 6992W        W11043   9.921   3.080  10.775 -0.2884 -0.1174  0.0265
 6993W        W11044   4.773   1.797  12.293 -0.1216  0.0500  0.2217
 6994W        W11045   6.653   1.182   9.956  0.1333 -0.1393 -0.0645
 6995W        W11046   1.145   6.663  11.423 -0.2148  0.0628 -0.0187
 6996W        W11047   1.327   3.919   2.721 -0.0817 -0.0305  0.0061
 6997W        W11048   8.200   6.528   3.554 -0.1264 -0.2087 -0.4686
 6998W        W11049   5.177   4.483   1.504  0.2102 -0.0542 -0.0519
 6999W        W11050   5.876   2.998   0.180 -0.0022  0.1036 -0.2345
 7000W        W11051   9.445   7.331   9.202  0.1200  0.1487  0.0752
 7001W        W11052   2.761   7.713   4.594 -0.0614  0.2108 -0.1054
 7002W        W11053   6.340   3.514   3.766  0.3122 -0.0387  0.0810
 7003W        W11054   3.770   6.599  10.108  0.1635 -0.4362 -0.1040
 7004W        W11055   0.449   8.948  11.268  0.3122 -0.3246 -0.0651
 7005W        W11056   6.907   2.669   2.838  0.1026 -0.0790  0.4348
 7006W        W11057   7.274   0.179   1.043  0.0504  0.2923  0.0177
 7007W        W11058   5.009   1.993   1.584 -0.0785  0.0806 -0.0198
 7008W        W11059   2.534   5.247   0.150 -0.0013 -0.0158 -0.1169
 7009W        W11060   9.221   3.936  10.655 -0.1538  0.1150  0.0401
 7010W        W11061   5.468   5.802   4.504 -0.1452 -0.1271 -0.1878
 7011W        W11062   4.229   2.035   1.321  0.0263 -0.5218 -0.2306
 7012W        W11063   8.061   7.949   0.933  0.2204 -0.0044 -0.0605
 7013W        W11064   8.602   9.495  10.974 -0.0046  0.2298  0.0383
 7014W        W11065  10.022   3.096   1.668 -0.2275 -0.1126  0.4329
 7015W        W11066   8.788   8.549   1.741 -0.0486 -0.0524  0.2961
 7016W        W11067   2.250   4.276   4.075 -0.1754  0.0398 -0.2300
 7017W        W11068   4.936   3.945  12.449  0.1031  0.1217  0.2886
 7018W        W11069   7.092   8.471   9.217  0.0498 -0.0442 -0.0055
 7019W        W11070   0.487   3.841   9.825 -0.1041 -0.3668  0.2391
 7020W        W11071   9.465   0.710   2.361  0.1937  0.1417 -0.1050
 7021W        W11072   1.339   0.937  10.025  0.2110  0.1917 -0.0870
 7022W        W11073   4.711   6.477   4.380 -0.0468 -0.0528 -0.1677
 7023W        W11074   0.049   6.660   0.018  0.0885 -0.0707 -0.0518
 7024W        W11075   8.121   5.967  12.783  0.2150 -0.1786  0.1968
 7025W        W11076   1.919   0.139  12.101 -0.1401 -0.0570  0.0726
 7026W        W11077   8.137   6.075  10.953  0.1584 -0.0401  0.1784
 7027W        W11078   7.168   3.921  13.352  0.1579  0.0121 -0.0195
 7028W        W11079   3.731   6.594   4.589 -0.1238 -0.1154  0.0983
 7029W        W11080   9.793   2.881  12.034  0.0324 -0.0334  0.0218
 7030W        W11081   2.532   7.969  12.791 -0.1802 -0.1530  0.0701
 7031W        W11082   0.964   7.121   1.989 -0.0148 -0.3411  0.0239
 7032W        W11083   0.706   8.560   3.433  0.1621  0.1310  0.5277
 7033W        W11084   1.108   2.891   9.645  0.1417 -0.0056  0.0003
 7034W        W11085   4.558   5.304   1.407  0.0884 -0.0525 -0.2584
 7035W        W11086   3.976   6.493   3.856  0.3639 -0.0350 -0.1115
 7036W        W11087   1.208   2.118  10.854 -0.1919 -0.1270 -0.0391
 7037W        W11088   9.740   3.960   1.747  0.0269  0.1297 -0.0152
 7038W        W11089   5.433   5.444   1.814 -0.4526  0.0143  0.1311
 7039W        W11090   8.217   7.786   8.754  0.2794  0.2300 -0.2372
 7040W        W11091   2.572   8.854   5.112  0.1142  0.0871  0.1890
 7041W        W11092   1.860   2.970   4.254  0.3424 -0.1496  0.0041
 7042W        W11093   7.990   9.182   0.525  0.0717  0.0242  0.0367
 7043W        W11094   9.402   6.536   0.191 -0.0271  0.1622  0.0182
 7044W        W11095   0.379   5.821  13.795  0.0164  0.1917 -0.1498
 7045W        W11096   0.499   1.972   1.416 -0.2449 -0.0705 -0.0148
 7046W        W11097   0.435   0.823   9.825 -0.2773 -0.1552 -0.2552
 7047W        W11098   6.230   9.911  13.858  0.1643 -0.2316  0.1506
 7048W        W11099   2.168   4.659  12.911 -0.1052 -0.3078  0.0113
 7049W        W11100   4.654   3.999   0.012  0.2626 -0.0940 -0.3250
 7050W        W11101   4.546   7.357   2.912 -0.0893 -0.1684 -0.1798
 7051W        W11102   9.155   6.002   3.038  0.0239 -0.0695  0.0195
 7052W        W11103   2.008   4.555   0.008 -0.1097 -0.0706  0.0438
 7053W        W11104   6.762   6.773   1.437 -0.2271  0.0051  0.2498
 7054W        W11105   5.778   9.309   0.684 -0.0166  0.0394  0.2473
 7055W        W11106   8.416   0.515   1.532  0.0161  0.1979 -0.1361
 7056W        W11107   0.220   4.821   2.546 -0.0606 -0.3379  0.2357
 7057W        W11108   8.629   0.987   3.466  0.0354 -0.5334  0.2346
 7058W        W11109   3.805   6.549   0.180  0.0963  0.1478  0.0112
 7059W        W11110   1.915   6.114   1.670 -0.1154  0.3286 -0.0900
 7060W        W11111   7.449   8.816  13.261 -0.1220  0.1697 -0.1725
 7061W        W11112   8.584   4.871   3.508 -0.1416  0.0094 -0.1452
 7062W        W11113   1.726   1.904  13.213  0.2882  0.1809  0.0088
 7063W        W11114   9.647   1.802  11.191 -0.0468 -0.2496 -0.1577
 7064W        W11115   2.545   7.220  10.368  0.3731  0.0887  0.2401
 7065W        W11116   6.180   7.051   2.611 -0.1144 -0.1441 -0.1277
 7066W        W11117   6.936   1.865  11.123  0.0618  0.3105  0.0460
 7067W        W11118   8.610   8.218  11.266  0.1625 -0.1426 -0.1855
 7068W        W11119   9.424   6.906  13.739  0.0572 -0.2699 -0.2898
 7069W        W11120   7.160   3.487   2.248  0.1335 -0.0656  0.0355
 7070W        W11121   7.987   9.817   9.873 -0.1204 -0.0538  0.0497
 7071W        W11122  10.061   4.178  12.273  0.0440 -0.0636 -0.0002
 7072W        W11123   1.429  10.022   4.261  0.1034 -0.1544 -0.0492
 7073W        W11124   6.017   8.217  11.049 -0.1882 -0.0198  0.0889
 7074W        W11125   7.031   9.552   1.521 -0.0645 -0.1426 -0.2134
 7075W        W11126   3.273   1.103   5.307  0.2424  0.2919 -0.0469
 7076W        W11127   1.073   5.915   1.839 -0.1778  0.1038 -0.4813
 7077W        W11128   5.134   0.774  10.371 -0.0441  0.0323 -0.1606
 7078W        W11129   2.632   1.422   3.749  0.1989  0.1237  0.1218
 7079W        W11130   2.749   9.859  12.262 -0.1565 -0.0981 -0.2466
 7080W        W11131   8.628   2.626  13.567  0.1403 -0.3956  0.3062
 7081W        W11132   8.789   1.603  10.967 -0.0769  0.0764 -0.0801
 7082W        W11133   1.375   2.893  11.453 -0.0825  0.1309 -0.0876
 7083W        W11134   2.727   1.682   4.245  0.0692  0.1626  0.1112
 7084W        W11135   8.261   1.288  11.672 -0.0903 -0.0609  0.0330
 7085W        W11136   4.336   2.236   3.428  0.0529 -0.0923  0.2375
 7086W        W11137   7.510   9.637  13.483  0.2354  0.3286  0.1838
 7087W        W11138   7.861   4.509  12.030  0.2698  0.0941  0.1369
 7088W        W11139   2.106   4.176  11.448  0.3503 -0.2454 -0.1460
 7089W        W11140   4.746   9.217  13.500 -0.0117  0.0622  0.0120
 7090W        W11141   9.558   0.677  10.449  0.2704  0.2556  0.0886
 7091W        W11142   2.915   5.742  11.466  0.1164  0.0659 -0.1181
 7092W        W11143   7.955   7.614   2.258  0.0005 -0.1960 -0.2052
 7093W        W11144   1.798   3.567  11.963  0.2590  0.6479  0.0625
 7094W        W11145   8.759   8.815   0.794  0.1757 -0.1719  0.0755
 7095W        W11146   4.518   9.993  13.070  0.2305  0.1564 -0.1121
 7096W        W11147   9.111   2.069   0.096 -0.0204 -0.1413 -0.4198
 7097W        W11148   7.599   2.548  11.620  0.0694 -0.0884  0.0995
 7098W        W11149   9.407   4.696   3.755  0.2164  0.0640  0.1263
 7099W        W11150   6.605   5.902   9.174 -0.1457  0.3705 -0.1013
 7100W        W11151   4.718   5.306  13.368 -0.1713  0.1066  0.0099
 7101W        W11152   5.295   9.518   1.886  0.1909 -0.2934  0.1574
 7102W        W11153   1.311   9.217   2.198  0.0796  0.1396  0.1614
 7103W        W11154   0.905   8.423   2.436  0.2365 -0.1070  0.1083
 7104W        W11155   1.269   9.172   1.198  0.1720  0.3127 -0.4506
 7105W        W11156   8.781   0.991  11.889 -0.1973 -0.4290  0.2790
 7106W        W11157   3.477   3.089   3.422 -0.2583 -0.0952 -0.2026
 7107W        W11158   6.987   1.432  11.515  0.1521  0.1266 -0.2959
 7108W        W11159   4.703   4.170   1.472  0.0512 -0.1736  0.1266
 7109W        W11160   0.835   0.478   2.192 -0.2896 -0.4652 -0.1109
 7110W        W11161   5.457   0.781   2.706  0.1750  0.2421  0.1613
 7111W        W11162   9.755   7.605  12.192  0.1138  0.2965 -0.2878
 7112W        W11163   5.099   3.842   0.276  0.0122 -0.0778  0.0632
 7113W        W11164   2.970  10.004   2.886  0.3535  0.2077  0.0715
 7114W        W11165   3.915   2.105  12.217 -0.1906 -0.1304 -0.1187
 7115W        W11166   4.126   5.459   0.157  0.3803  0.4077  0.2437
 7116W        W11167   6.798   3.519  13.337  0.0119  0.0791 -0.2003
 7117W        W11168   6.879   2.728  10.523  0.0563  0.0444  0.3167
 7118W        W11169   2.296   7.917   0.559  0.1562  0.0187 -0.0926
 7119W        W11170   2.980   0.217   3.260 -0.4217 -0.0527 -0.0003
 7120W        W11171   5.496   1.544   2.943 -0.0545 -0.0284  0.0145
 7121W        W11172   0.191   6.934  12.590 -0.3040 -0.0607  0.0682
 7122W        W11173   9.871   8.368  13.365 -0.2182  0.1309 -0.0810
 7123W        W11174   7.869   4.937   2.230  0.0917 -0.2248  0.0930
 7124W        W11175   7.673   4.700  10.211 -0.1906 -0.3691 -0.1079
 7125W        W11176   2.921   6.568   2.964 -0.0182 -0.1657 -0.0112
 7126W        W11177   0.266   1.748   0.080 -0.3971  0.1148  0.1163
 7127W        W11178   8.831   2.556   1.236 -0.0571  0.2314  0.0826
 7128W        W11179   1.033   8.064  10.525 -0.0996  0.0605 -0.1648
 7129W        W11180   4.313   6.577  12.550  0.1348  0.0970 -0.2605
 7130W        W11181   8.417   8.626   4.502  0.4805  0.0368  0.0507
 7131W        W11182   1.337   5.075  10.875 -0.2112 -0.0470  0.1175
 7132W        W11183   1.271   3.389  10.838  0.1354 -0.0172  0.0073
 7133W        W11184   9.529   6.948   3.107 -0.0530  0.0360  0.1568
 7134W        W11185   6.736   4.102   2.039  0.0872  0.0774 -0.1237
 7135W        W11186   3.665   0.407  10.250  0.0189  0.0222  0.4377
 7136W        W11187   1.587   7.273  10.175 -0.0954 -0.0850 -0.3196
 7137W        W11188   3.082   3.934   1.578 -0.0410 -0.3115  0.0463
 7138W        W11189   6.971   2.102  13.148  0.1559  0.1633 -0.1608
 7139W        W11190   1.209   3.124   2.229 -0.1405  0.2849  0.1552
 7140W        W11191   0.986   1.186  10.725 -0.2757 -0.1747  0.1069
 7141W        W11192   2.523   3.346  11.522  0.2787 -0.1733  0.2281
 7142W        W11193   2.663  10.021   1.075  0.0131  0.0226  0.1619
 7143W        W11194   4.299   2.864  11.621 -0.2681 -0.0086 -0.2709
 7144W        W11195   9.622   5.189  12.176  0.1438 -0.0826  0.0279
 7145W        W11196   4.860   3.017   3.247 -0.1718  0.2289 -0.2670
 7146W        W11197   8.715   7.087  10.220  0.0904 -0.0249 -0.0049
 7147W        W11198   3.668   1.403   3.993 -0.0271 -0.0254  0.1202
 7148W        W11199   6.874   6.999  12.541  0.0165  0.0093  0.0622
 7149W        W11200   5.444   0.275  13.906  0.0704  0.1202  0.1172
 7150W        W11201   4.661   9.159   1.463 -0.0900 -0.0520  0.3993
 7151W        W11202   9.659   4.454  10.507 -0.0609 -0.3135  0.4209
 7152W        W11203   0.519   1.328  13.700  0.4341 -0.2344 -0.2198
 7153W        W11204   7.440   5.138   2.128  0.1637 -0.2710 -0.0175
 7154W        W11205   7.681   5.310  13.883  0.0900 -0.1509  0.0958
 7155W        W11206   1.029   8.795   2.135 -0.1186  0.0107 -0.1526
 7156W        W11207   2.759   2.814   3.944 -0.2350  0.0922  0.0632
 7157W        W11208   0.123   6.833   1.876  0.1594  0.0639 -0.0003
 7158W        W11209   8.647   6.949  11.963  0.1464 -0.0361  0.2075
 7159W        W11210   5.830   8.152   9.621  0.7325  0.1044 -0.3236
 7160W        W11211   7.727   7.402  13.404 -0.0773  0.3279 -0.0221
 7161W        W11212   2.420   8.462  12.841  0.2918  0.3157  0.1749
 7162W        W11213   2.023   4.017  13.737 -0.1901  0.0418  0.2957
 7163W        W11214   7.942   7.611   3.439 -0.1619  0.2250  0.4370
 7164W        W11215   8.211   2.067   2.951  0.2297 -0.2185 -0.1074
 7165W        W11216   8.302   7.196   4.332  0.2757 -0.1681  0.1888
 7166W        W11217   9.158   3.909  13.952 -0.0788  0.1685 -0.0443
 7167W        W11218   9.705   9.092   1.856  0.0501 -0.1557  0.3074
 7168W        W11219   2.825   9.030   9.135  0.0613 -0.3949 -0.0451
 7169W        W11220   1.114   2.060   4.052  0.0552  0.2286  0.0023
 7170W        W11221   8.716   4.417   0.441  0.0696  0.1623  0.1557
 7171W        W11222   8.702   8.573  12.440  0.2378 -0.0726 -0.0330
 7172W        W11223   8.829   1.940  12.258  0.0720 -0.0646 -0.2150
 7173W        W11224   9.627   7.242   1.955  0.0195 -0.0411  0.1035
 7174W        W11225   4.788   3.281   2.342 -0.0458 -0.2352  0.1484
 7175W        W11226   9.122   3.502  10.508  0.0804 -0.3613  0.0376
 7176W        W11227   3.271   9.475   9.945  0.2420 -0.2836 -0.2401
 7177W        W11228   3.947   8.668   9.881  0.1767  0.1251 -0.1448
 7178W        W11229   4.969   4.426  10.866 -0.0134 -0.0366 -0.2873
 7179W        W11230   2.432   0.978   8.529  0.1789 -0.0149  0.1911
 7180W        W11231   9.553   0.490   3.262 -0.0214 -0.1195 -0.1599
 7181W        W11232   0.343   6.594  12.112  0.1113 -0.0357 -0.2996
 7182W        W11233   2.906   3.328   0.240  0.0816 -0.2888 -0.0544
 7183W        W11234   8.049   1.845  12.764 -0.0242 -0.1092 -0.2063
 7184W        W11235   8.299   9.202   0.168  0.1984 -0.2776 -0.0751
 7185W        W11236  10.120   9.869   0.955 -0.5255 -0.0273  0.2581
 7186W        W11237   5.787   7.185   9.071 -0.0649 -0.5270  0.0368
 7187W        W11238   1.492   7.111  10.884 -0.0926 -0.2049 -0.0177
 7188W        W11239   2.510   4.706  11.038 -0.1107  0.0634 -0.0904
 7189W        W11240   9.946   5.895  10.167 -0.5436  0.0323  0.0745
 7190W        W11241   5.521   7.876   3.343  0.3593 -0.3594  0.3348
 7191W        W11242   3.967   6.422   2.133  0.0837 -0.0100  0.0249
 7192W        W11243   4.482   6.730   4.017  0.1292 -0.1327 -0.3357
 7193W        W11244   8.788   4.427  13.927 -0.2966  0.1547 -0.0652
 7194W        W11245   7.556   5.026  13.518 -0.1410  0.2391 -0.0056
 7195W        W11246   9.201   2.577  10.609 -0.1538  0.0465 -0.2018
 7196W        W11247   7.728   4.508   0.450 -0.0878 -0.0328 -0.1574
 7197W        W11248   6.435   1.293   4.431 -0.0550  0.3440  0.2883
 7198W        W11249   6.852   2.648   1.176  0.1251  0.2756  0.2051
 7199W        W11250   1.079   0.236  12.016  0.2099  0.0472  0.3035
 7200W        W11251   2.745   6.131   3.150 -0.3278  0.0614  0.2586
 7201W        W11252   1.594   2.610   3.477  0.1939  0.0504  0.0599
 7202W        W11253   1.905   6.928   9.768 -0.1805 -0.1628  0.0138
 7203W        W11254   8.803   9.275  10.536  0.0793 -0.2078  0.0172
 7204W        W11255   9.572   9.345  10.924  0.0667  0.2282  0.2872
 7205W        W11256   5.550   3.251  11.215 -0.0321  0.2392  0.3084
 7206W        W11257   8.955   0.566   2.401 -0.0895  0.0465  0.0737
 7207W        W11258   8.274   2.622   1.943 -0.0157  0.2303  0.0764
 7208W        W11259   3.121   9.795   0.360  0.0977  0.1505  0.0675
 7209W        W11260   1.206   4.279   3.786  0.2724 -0.0761  0.2826
 7210W        W11261   9.045   1.885   1.657 -0.0117 -0.0677  0.2329
 7211W        W11262   1.824   2.835   9.553  0.1198 -0.2233 -0.0197
 7212W        W11263   5.891   3.064   2.006  0.1848 -0.0603  0.0403
 7213W        W11264   5.898   5.381   2.381  0.1311 -0.1840 -0.1235
 7214W        W11265   2.523   6.936   0.496  0.1435 -0.0952 -0.0463
 7215W        W11266   8.579   0.171  12.854  0.0986 -0.1414  0.0184
 7216W        W11267   7.855   1.055  13.913 -0.0965 -0.0408  0.2462
 7217W        W11268   3.400   6.556   3.688 -0.1490  0.2342  0.4998
 7218W        W11269   0.158   9.621  11.939 -0.2161 -0.1363 -0.0174
 7219W        W11270   4.926   0.402   1.930 -0.0814  0.0616  0.0866
 7220W        W11271   1.735   5.224   9.527 -0.2477  0.0344  0.0004
 7221W        W11272   0.908   1.072   0.328  0.4147 -0.1834  0.2957
 7222W        W11273   7.387   4.464  12.095  0.0678 -0.0529  0.1142
 7223W        W11274   1.565   6.973   0.452  0.1405 -0.0377 -0.1998
 7224W        W11275   0.824   3.350  10.381 -0.2978 -0.0983 -0.0296
 7225W        W11276   8.580   0.959  12.970  0.3731  0.0489 -0.2331
 7226W        W11277   8.668   7.430   0.203 -0.1850  0.1063 -0.1187
 7227W        W11278   2.444   7.674   5.564  0.0901  0.1020 -0.3732
 7228W        W11279   2.155   5.013  11.211 -0.2890 -0.3733 -0.1164
 7229W        W11280   0.015   7.210   0.528  0.1196 -0.1987  0.0004
 7230W        W11281   1.830   5.368  12.308 -0.1134  0.1271  0.0193
 7231W        W11282   9.135   9.472  11.267  0.2455  0.0979  0.0432
 7232W        W11283   7.849   5.841   3.372  0.0568 -0.6338 -0.2361
 7233W        W11284   1.169   5.942   0.488 -0.0375 -0.0615  0.0613
 7234W        W11285   1.403   7.655   9.874  0.1096 -0.0224 -0.0781
 7235W        W11286   1.887   0.458  13.810 -0.0280  0.0194 -0.2365
 7236W        W11287   3.262   6.731  11.418  0.1780 -0.2737 -0.2584
 7237W        W11288   1.505   7.945   1.231 -0.6173  0.2895 -0.1651
 7238W        W11289   6.419   3.443  11.412 -0.0896  0.5086 -0.0817
 7239W        W11290   6.311   1.127  10.875 -0.4083  0.0414  0.1809
 7240W        W11291   6.103   8.447  12.777  0.2791 -0.0262 -0.0365
 7241W        W11292   5.501   5.656   3.218  0.2607 -0.0156 -0.0005
 7242W        W11293   5.133   7.881   3.703 -0.1766  0.2076 -0.1645
 7243W        W11294   6.799   8.746   4.595  0.1188 -0.1845  0.3316
 7244W        W11295   0.010   1.532   0.800  0.1261 -0.3405  0.3405
 7245W        W11296   4.043   4.673   9.752  0.1441 -0.2935  0.1444
 7246W        W11297   7.281   8.585   3.145  0.1111  0.0041 -0.0538
 7247W        W11298   1.675   8.675   9.934  0.1483  0.0708 -0.0747
 7248W        W11299   8.796   8.143   1.400 -0.1759 -0.0924 -0.1821
 7249W        W11300   5.879   5.484  12.845 -0.1946  0.1183 -0.1536
 7250W        W11301   8.864   3.396  13.231  0.0391 -0.2370 -0.0867
 7251W        W11302   8.845   7.151  11.572 -0.1829  0.0606  0.1212
 7252W        W11303   1.791   8.402   1.256  0.1507 -0.0319  0.1326
 7253W        W11304   0.809   6.361   1.204  0.0266 -0.0482  0.2780
 7254W        W11305   8.770   4.399  12.951  0.0260 -0.0497  0.1311
 7255W        W11306   0.815   3.734   3.030 -0.0778 -0.1970  0.2497
 7256W        W11307   1.119   9.865  12.063  0.2737 -0.0487 -0.0538
 7257W        W11308   8.711   1.043   2.388  0.2001 -0.0769  0.2855
 7258W        W11309   5.888   2.911   4.287  0.1883 -0.0161  0.1153
 7259W        W11310   1.460   8.310   9.647  0.0013  0.2873 -0.0064
 7260W        W11311   0.717   1.911  12.779  0.0352  0.0530  0.1028
 7261W        W11312   9.369   1.036  10.781 -0.0385  0.1266 -0.1722
 7262W        W11313   7.784   5.517   3.002  0.0335 -0.1983  0.2228
 7263W        W11314   7.592   5.250   4.472  0.1016  0.1135  0.0352
 7264W        W11315   4.939   9.491   4.664  0.0280 -0.3700  0.0737
 7265W        W11316   7.852   1.327  12.898  0.2968 -0.0853  0.1976
 7266W        W11317   1.113   2.033  13.552 -0.1658 -0.0275  0.1196
 7267W        W11318   2.372   3.989   9.773 -0.1377  0.1681 -0.2986
 7268W        W11319   3.827   5.492  13.721 -0.2495  0.3495 -0.0135
 7269W        W11320   6.669   3.786  11.219  0.1441 -0.0980  0.0243
 7270W        W11321   0.418   6.601  13.612 -0.0303  0.1783  0.1483
 7271W        W11322   1.013   0.695  11.964  0.2371  0.2273  0.0123
 7272W        W11323  10.034   8.038  11.991 -0.2422  0.1649 -0.1289
 7273W        W11324   4.745   3.679   2.746  0.0517  0.2077 -0.0001
 7274W        W11325   9.038   8.973   2.488  0.0921 -0.1296 -0.4054
 7275W        W11326   6.383   8.694  10.915 -0.2700  0.1678 -0.0269
 7276W        W11327   5.615   3.854  11.193 -0.0432  0.0315  0.0138
 7277W        W11328   7.876   6.062  11.532 -0.4703 -0.0047  0.1456
 7278W        W11329   1.676   8.782   3.285 -0.0075 -0.0816  0.0900
 7279W        W11330   3.834   4.116   4.331 -0.0327 -0.2569  0.1939
 7280W        W11331   2.019   8.061   3.488 -0.0174 -0.0661  0.1257
 7281W        W11332   3.531   0.992   9.509 -0.2086  0.0463 -0.2263
 7282W        W11333   1.885   2.506  10.875  0.2025  0.0723 -0.1406
 7283W        W11334   3.919   3.102  11.886 -0.1318 -0.0523 -0.2202
 7284W        W11335   5.118   7.714   2.154  0.0048 -0.0166 -0.4580
 7285W        W11336   4.691  10.162   0.479  0.0520 -0.3195  0.2314
 7286W        W11337   8.906   2.352   0.419  0.1905 -0.3295  0.1030
 7287W        W11338   4.124   7.891  11.814 -0.4025  0.0591  0.2430
 7288W        W11339   1.887   7.673  11.174 -0.0822  0.0817 -0.2567
 7289W        W11340   5.573   7.740   9.810  0.2098 -0.2452 -0.2496
 7290W        W11341   8.222   9.563  11.742  0.0395  0.2424 -0.1812
 7291W        W11342   2.502   7.883   3.257  0.0767 -0.0100 -0.0638
 7292W        W11343   6.029   4.664  12.208 -0.0943  0.1899  0.0380
 7293W        W11344   4.170   9.548   5.057  0.0507 -0.2736 -0.2795
 7294W        W11345   8.108   1.139   0.358  0.1868 -0.0969 -0.1477
 7295W        W11346   5.620   9.087  13.980 -0.0230  0.1111 -0.1314
 7296W        W11347   8.192   3.064  11.843 -0.2847 -0.2180  0.0066
 7297W        W11348   7.125   6.885   2.795  0.0298 -0.1453 -0.0924
 7298W        W11349   5.070   6.514   2.981  0.0785  0.1137 -0.1117
 7299W        W11350   9.798   9.520  12.036 -0.0943  0.3282  0.2644
 7300W        W11351   2.150   7.076  13.348 -0.1119 -0.3522 -0.1862
 7301W        W11352   0.842   7.115   4.264 -0.0692 -0.2009 -0.2841
 7302W        W11353   2.947   6.518   4.045 -0.1935 -0.1643  0.0298
 7303W        W11354   0.365   5.172  12.800 -0.2455  0.2942 -0.1849
 7304W        W11355   7.651   4.675  12.499 -0.1440  0.0845  0.3634
 7305W        W11356   0.968   2.667  11.189 -0.3569  0.3222  0.1967
 7306W        W11357   4.053   6.796   5.516 -0.0512 -0.4564 -0.3331
 7307W        W11358   6.578   4.488   0.462 -0.0991  0.1649 -0.1363
 7308W        W11359   9.446   8.867   2.819 -0.0206  0.2426  0.1287
 7309W        W11360   4.303   5.020   1.006 -0.2251  0.0583  0.0933
 7310W        W11361   6.163   8.189  13.388  0.0141 -0.1207 -0.2902
 7311W        W11362   5.309   5.201  13.177 -0.4397  0.0608 -0.1163
 7312W        W11363   5.682   7.874  11.777  0.0432  0.1949 -0.0664
 7313W        W11364   3.546   9.831   1.280 -0.0784 -0.1440 -0.0919
 7314W        W11365   6.288   9.127   1.706 -0.0387 -0.1284  0.0429
 7315W        W11366   3.778   3.204   1.278 -0.1487 -0.1936  0.1615
 7316W        W11367   7.542   6.438  11.642 -0.1526  0.2294  0.1276
 7317W        W11368   3.511   3.645   1.775 -0.2777 -0.0273  0.0335
 7318W        W11369   0.900   6.371  12.945 -0.0587  0.1143 -0.0406
 7319W        W11370   7.410   5.876  11.810  0.0125 -0.0441 -0.0870
 7320W        W11371   7.771   5.550   1.986 -0.0796  0.1568 -0.2504
 7321W        W11372   3.370   5.429  13.455  0.2032  0.0485 -0.2202
 7322W        W11373   1.492   5.420  12.819 -0.1252 -0.0076  0.2249
 7323W        W11374   6.345   8.005   4.696 -0.0988  0.2994  0.2459
 7324W        W11375   2.867   6.439   0.714 -0.1451 -0.3189 -0.3264
 7325W        W11376   5.845   1.929   3.312  0.2913  0.1181 -0.0921
 7326W        W11377   7.298   9.642   9.376  0.1664  0.0988 -0.1367
 7327W        W11378   8.503   0.978  13.522 -0.0461 -0.1054 -0.1754
 7328W        W11379   3.116   7.750   4.935 -0.0392 -0.1100  0.1810
 7329W        W11380   9.759   5.141   0.147 -0.1033  0.1087  0.2505
 7330W        W11381   9.051   1.112   3.210  0.1763  0.1022 -0.0319
 7331W        W11382   3.768   8.469   1.050 -0.4359  0.1271  0.0325
 7332W        W11383   0.284   3.481   3.067  0.0160  0.0775  0.1240
 7333W        W11384   5.903   9.093  13.523 -0.2125 -0.1954 -0.0176
 7334W        W11385   6.380   9.519   4.450  0.0624 -0.0461 -0.1798
 7335W        W11386   6.019   0.549  12.178  0.0734 -0.1590  0.0203
 7336W        W11387   1.325   1.746   0.045  0.1205 -0.0018 -0.1700
 7337W        W11388   4.028   5.659  12.735  0.0039 -0.0151  0.2974
 7338W        W11389   5.518   7.675   4.516 -0.1207  0.1189  0.2516
 7339W        W11390   3.751   9.841   2.973 -0.0829  0.1569 -0.1599
 7340W        W11391   9.449   0.610  11.694  0.0455 -0.2541 -0.1871
 7341W        W11392   2.689   6.084   0.996  0.0501  0.2670 -0.1231
 7342W        W11393   6.169   8.599   2.773  0.0489  0.2391 -0.0239
 7343W        W11394   7.053  10.187  12.593 -0.2509 -0.2071  0.1326
 7344W        W11395   7.856   2.414   4.368 -0.0970  0.1679 -0.0178
 7345W        W11396   6.917   0.426  10.885  0.0692 -0.0505  0.2604
 7346W        W11397   2.485   7.984   3.740  0.0908 -0.2202  0.1638
 7347W        W11398   6.408   0.273   3.991  0.0622 -0.1202 -0.0242
 7348W        W11399   6.592   1.781  10.756  0.4054  0.0526  0.3105
 7349W        W11400   2.997   4.428  10.976  0.2181 -0.2002  0.0323
 7350W        W11401   3.580   6.980   3.892 -0.2795 -0.0319  0.0603
 7351W        W11402   0.123   2.215  13.307  0.2265  0.0218  0.2599
 7352W        W11403   2.979   4.560   9.499  0.0077 -0.1888  0.2656
 7353W        W11404   3.336   6.823  10.097  0.2500  0.0295 -0.0988
 7354W        W11405   4.078   7.854   3.022 -0.0019 -0.0826  0.2234
 7355W        W11406   7.143   4.224   3.765 -0.0571  0.0481  0.0257
 7356W        W11407   4.058   4.353   1.014 -0.1001 -0.3686  0.0340
 7357W        W11408  10.114   6.640  12.290  0.1106  0.3585  0.1536
 7358W        W11409   6.908   6.718   9.636 -0.1032  0.1110  0.0621
 7359W        W11410   4.297   4.176   2.546 -0.0692 -0.4166 -0.1109
 7360W        W11411   0.972   1.909   1.328  0.1773  0.3177 -0.0335
 7361W        W11412   1.966   1.093   3.656 -0.0720 -0.0452  0.1548
 7362W        W11413   0.413   6.191   0.823 -0.2499 -0.0723 -0.1260
 7363W        W11414   0.996   3.071   3.671  0.1696 -0.0309 -0.2514
 7364W        W11415   7.031   1.003   4.345  0.2041  0.0443  0.0001
 7365W        W11416   5.236   6.886  12.722 -0.1660  0.0032  0.2332
 7366W        W11417   0.142   2.202   2.521 -0.1369 -0.1254  0.0454
 7367W        W11418   3.372   0.649   2.069  0.1340 -0.0993 -0.1920
 7368W        W11419   5.137   8.896   1.368 -0.1447 -0.1271  0.1004
 7369W        W11420   6.223   9.718   3.183 -0.1775  0.2753 -0.1449
 7370W        W11421   4.767   9.916  11.751  0.0754 -0.1025 -0.0932
 7371W        W11422   5.525   3.873   4.316 -0.0433 -0.0956  0.3511
 7372W        W11423   6.707   1.851  13.660  0.1761  0.2674  0.2537
 7373W        W11424   7.701   0.728   1.999 -0.1804  0.2684  0.2933
 7374W        W11425   7.763   8.273   3.569 -0.1196 -0.4680  0.0690
 7375W        W11426   6.967   5.808   3.783 -0.0624  0.1775  0.0457
 7376W        W11427   2.815   4.733  11.538 -0.1069 -0.0228  0.2185
 7377W        W11428   5.028   4.798  13.526  0.2552  0.1233  0.2730
 7378W        W11429   9.828   5.928  13.579  0.0543  0.1246 -0.0599
 7379W        W11430   5.048   1.711   3.893 -0.0680  0.1508 -0.0041
 7380W        W11431   8.479   8.093   4.117  0.1712 -0.0391 -0.0128
 7381W        W11432   8.045   1.730  13.636  0.1155 -0.2280  0.0313
 7382W        W11433   3.340   6.893   4.800 -0.1517  0.0208  0.0653
 7383W        W11434   9.865   4.275  13.697 -0.0701  0.1956 -0.0208
 7384W        W11435   5.663   4.617   1.457  0.1728 -0.1708  0.0620
 7385W        W11436   0.022   1.053   0.385  0.1089  0.3562  0.0425
 7386W        W11437   1.401   2.089   8.953  0.3942  0.2907 -0.1156
 7387W        W11438   0.392   3.183   2.286  0.0605  0.0136  0.1877
 7388W        W11439   3.455   2.199  13.417  0.0619 -0.0410  0.0185
 7389W        W11440   7.189   8.666  11.178  0.2972 -0.1348 -0.0892
 7390W        W11441   8.746   1.064   0.137  0.0016 -0.4382 -0.2436
 7391W        W11442   0.891   0.923  12.864 -0.1759 -0.1463  0.0176
 7392W        W11443   4.855   3.109  13.603 -0.1271  0.1224 -0.0889
 7393W        W11444   6.973   8.362   0.831 -0.0943  0.2933  0.1783
 7394W        W11445   7.248   4.003   0.755  0.2082 -0.0460 -0.0467
 7395W        W11446   0.710   2.097   4.531 -0.0118  0.0061  0.1537
 7396W        W11447   9.037   9.861   0.274 -0.2521  0.0314 -0.0843
 7397W        W11448   4.536   6.923   5.222 -0.0144  0.0745  0.2358
 7398W        W11449   7.518   3.740   0.318 -0.0572 -0.1246 -0.2407
 7399W        W11450   9.877   0.735   1.624  0.2673 -0.1833  0.0471
 7400W        W11451   9.977   0.160   9.537  0.0983  0.5414 -0.1854
 7401W        W11452   5.579   2.241   1.686 -0.0394 -0.1866  0.2596
 7402W        W11453   3.131   9.388  12.013 -0.1780 -0.1895  0.0285
 7403W        W11454   8.821   5.772   2.147 -0.2835  0.0260 -0.0959
 7404W        W11455   5.407   6.739  12.103  0.3567 -0.2604  0.1950
 7405W        W11456   4.423   5.877   0.015  0.5104  0.0193 -0.3462
 7406W        W11457   1.893   1.636   1.448  0.1488 -0.1098  0.0190
 7407W        W11458   7.739   9.908  13.103  0.1161 -0.0916 -0.0405
 7408W        W11459   4.637   9.344   9.933  0.2345  0.1012 -0.4237
 7409W        W11460   7.365   1.782  13.119  0.2982 -0.1018 -0.2753
 7410W        W11461   3.037   3.630  13.422  0.3095 -0.1475  0.0323
 7411W        W11462   5.947   9.481   5.498  0.1168  0.1486 -0.1802
 7412W        W11463   2.913   1.333  12.537  0.0593 -0.1670 -0.2747
 7413W        W11464   7.262   4.560   1.502  0.2253  0.4756  0.0533
 7414W        W11465   1.940   8.726   1.748  0.0566  0.1819  0.1236
 7415W        W11466   0.303   6.651   9.541 -0.1324 -0.1069  0.1146
 7416W        W11467   3.463   2.538   2.707  0.1059  0.0490 -0.0235
 7417W        W11468   5.564  10.151   3.535  0.2325 -0.3552 -0.1226
 7418W        W11469   7.572   8.996  11.233 -0.0927  0.2429  0.0270
 7419W        W11470   0.870   4.941  12.031  0.2886  0.3602  0.1699
 7420W        W11471   1.458   6.260   1.800 -0.0722  0.1322  0.3423
 7421W        W11472   1.369   8.719  12.742 -0.1868 -0.0999  0.0666
 7422W        W11473   9.342   5.448   1.530  0.1253  0.1626  0.1044
 7423W        W11474   6.457   3.693   2.936 -0.0605  0.4083 -0.2063
 7424W        W11475   3.755   8.333   9.486 -0.3127 -0.2575  0.1248
 7425W        W11476   5.971   3.325   9.909  0.0008  0.1566 -0.3052
 7426W        W11477   0.019   4.157   1.919  0.1912 -0.0843 -0.0709
 7427W        W11478   1.633   4.361  11.688  0.0767  0.1231 -0.3658
 7428W        W11479   1.155   9.974  10.868 -0.0375 -0.0135 -0.0943
 7429W        W11480   8.427   8.710  13.505  0.0118 -0.0168  0.2871
 7430W        W11481   9.286   3.770   1.569  0.0332  0.0639 -0.0937
 7431W        W11482   3.618   5.755   1.434 -0.1499  0.0942  0.1060
 7432W        W11483   5.061   9.619   5.337  0.4604 -0.1243  0.3465
 7433W        W11484   9.445   3.852   2.570  0.1399  0.0331 -0.4488
 7434W        W11485   5.955   8.983   3.533  0.0934 -0.0781  0.0945
 7435W        W11486   2.749   4.791   2.014 -0.0002 -0.0748  0.1893
 7436W        W11487   0.080   3.109   9.464  0.0156 -0.4496  0.0766
 7437W        W11488   7.712   6.426  13.532 -0.0576  0.1444  0.0545
 7438W        W11489   1.897   6.738   0.789 -0.1268 -0.3276  0.4474
 7439W        W11490   0.639   2.178   2.668  0.3346 -0.0639 -0.4266
 7440W        W11491   2.337   7.376  11.375  0.3473  0.1247  0.1787
 7441W        W11492  10.120   3.992  12.757  0.0754 -0.1803 -0.1051
 7442W        W11493   5.461   0.911   9.123 -0.0513 -0.0304 -0.0718
 7443W        W11494   2.657   9.206  10.689  0.3094 -0.0230  0.0589
 7444W        W11495   6.670   0.742  10.255  0.0591  0.0018 -0.1412
 7445W        W11496   4.323   4.227   5.565  0.0248  0.0828  0.1951
 7446W        W11497   7.927   0.942  12.573  0.2010  0.1761 -0.1508
 7447W        W11498   5.881   9.887  13.107  0.2465  0.2808  0.1592
 7448W        W11499   1.486   1.895  11.665 -0.2576  0.1013 -0.0350
 7449W        W11500   6.532   4.219  11.602  0.1549  0.0837  0.1502
 7450W        W11501   5.004   6.199   4.716  0.1052  0.0006 -0.0855
 7451W        W11502   1.801   9.952   9.471  0.3876  0.1872 -0.1259
 7452W        W11503   9.478   6.846   4.270 -0.1172  0.1025  0.4366
 7453W        W11504   6.791   5.162   1.249 -0.1472  0.1038  0.0339
 7454W        W11505   2.748   4.070  12.280  0.1528 -0.0441  0.1140
 7455W        W11506   5.263   6.216  11.579 -0.0472 -0.0815 -0.2316
 7456W        W11507   7.774   6.377  12.916  0.1241  0.1374  0.1993
 7457W        W11508   6.549   2.941  10.967  0.0572 -0.0864  0.2387
 7458W        W11509   7.847   1.233   2.907 -0.0947 -0.1029  0.3058
 7459W        W11510   3.872   0.249  10.657  0.3638 -0.0568 -0.3403
 7460W        W11511   4.245   0.053  10.313  0.0970  0.1247  0.0841
 7461W        W11512   9.185   5.755   9.874 -0.2579 -0.4513  0.4316
 7462W        W11513   3.945   8.983  10.367 -0.1476  0.0712  0.2158
 7463W        W11514   8.505   6.747   1.462  0.0570 -0.1056 -0.1233
 7464W        W11515   1.697   5.287   5.508 -0.1949 -0.1400 -0.0114
 7465W        W11516   5.986   3.765   4.107  0.4700 -0.0979 -0.0398
 7466W        W11517   6.864   5.618   4.849  0.5075  0.3164 -0.0823
 7467W        W11518   6.973   5.465  13.139  0.0305 -0.0713  0.2604
 7468W        W11519   1.485   3.296   0.638 -0.1486  0.0021  0.0311
 7469W        W11520   5.667   9.087  12.332 -0.0155 -0.4253  0.2464
 7470W        W11521   7.791   6.180   9.953  0.0659  0.2525  0.1507
 7471W        W11522   0.571   5.258  12.329 -0.0202 -0.0648  0.1334
 7472W        W11523   8.045   4.873  13.850  0.2315 -0.2711 -0.1187
 7473W        W11524   4.650   6.550   2.658  0.1077  0.0475  0.1930
 7474W        W11525   4.270   6.359   3.001 -0.1262  0.3454 -0.0927
 7475W        W11526   5.056   4.073   1.094  0.0242  0.0157 -0.0571
 7476W        W11527   8.641   4.030  11.365  0.0642  0.3070  0.3128
 7477W        W11528   2.173   0.905  13.565 -0.1514  0.0090  0.1731
 7478W        W11529   3.203   0.367  11.720  0.1162 -0.1750  0.1687
 7479W        W11530   9.411   2.230  13.004 -0.1184  0.0791  0.1986
 7480W        W11531   0.424   2.459   0.696 -0.0087  0.2088 -0.1621
 7481W        W11532   5.211   0.130  10.849  0.4276  0.2192  0.2555
 7482W        W11533   1.160  10.157   4.717  0.0296  0.1029  0.1377
 7483W        W11534   3.333   1.071  13.103 -0.1449  0.0082 -0.2443
 7484W        W11535   4.471   4.531  12.367  0.0114  0.0659  0.4138
 7485W        W11536   6.854   1.607  12.002 -0.1633 -0.1425 -0.2597
 7486W        W11537   5.095   5.159   0.265  0.0845 -0.0948  0.0978
 7487W        W11538   4.178   7.623   3.863 -0.0321  0.1043  0.4948
 7488W        W11539   3.673   1.884   9.772  0.1899 -0.2439 -0.0065
 7489W        W11540   4.662   0.009   2.252 -0.3153  0.0920  0.2374
 7490W        W11541   3.599   1.332   9.857 -0.0110 -0.3304  0.0002
 7491W        W11542   3.549   2.290  11.844  0.3439 -0.0793 -0.1015
 7492W        W11543   6.984   8.765  13.379 -0.1094  0.1302 -0.1682
 7493W        W11544   0.454   5.860   0.478 -0.1508  0.0267 -0.0057
 7494W        W11545   9.644   6.367   9.340 -0.1277 -0.1828  0.1748
 7495W        W11546   2.076   9.228   0.983 -0.1223  0.3040  0.1192
 7496W        W11547   1.231   7.570  10.413  0.0841 -0.0930  0.1447
 7497W        W11548   5.077   8.365   5.378  0.0679 -0.2559 -0.3011
 7498W        W11549   1.642   3.082   3.813 -0.0536  0.0620  0.1278
 7499W        W11550   7.489   7.869   1.347  0.0899 -0.0485  0.1514
 7500W        W11551   5.702   4.140   3.283  0.0936 -0.1204 -0.1776
 7501W        W11552   3.753  10.026  11.903 -0.0427 -0.0793 -0.1741
 7502W        W11553   8.899   0.780   1.502 -0.0404  0.0846  0.2947
 7503W        W11554   6.611   2.265  11.655  0.0271  0.1789  0.2112
 7504W        W11555   5.659   1.497  13.532 -0.2390 -0.1939  0.0539
 7505W        W11556   2.328   0.331  13.575 -0.0510 -0.0439 -0.1342
 7506W        W11557   7.504   4.960  11.946 -0.0993 -0.0650  0.2117
 7507W        W11558   8.800   0.450   3.240 -0.1411  0.1296 -0.1074
 7508W        W11559   7.333   6.882   4.496 -0.1253 -0.1883 -0.1581
 7509W        W11560   2.156   3.492   2.943 -0.0295  0.1000 -0.0842
 7510W        W11561   1.246   0.818  13.977  0.1665 -0.3210  0.1119
 7511W        W11562   8.729   6.104   9.009  0.4908 -0.0255  0.0272
 7512W        W11563   1.796   9.740  13.730 -0.0937 -0.1215 -0.0800
 7513W        W11564   9.402   9.348   2.523  0.0621 -0.1920  0.0281
 7514W        W11565   8.431   8.250   2.825  0.2410 -0.2433 -0.2791
 7515W        W11566   1.858   7.320  11.595  0.0628  0.2361 -0.2002
 7516W        W11567   3.211   8.246  13.567  0.1295 -0.0210 -0.3100
 7517W        W11568   8.070   3.300   3.973 -0.4610 -0.1624  0.0898
 7518W        W11569   1.723   8.823   0.977  0.0165  0.0180  0.0823
 7519W        W11570   9.270   4.646   1.251  0.0082 -0.1180 -0.0356
 7520W        W11571   9.658   3.445  12.234 -0.0022 -0.1267  0.0444
 7521W        W11572   3.324   3.316   9.559 -0.1310 -0.1366  0.2371
 7522W        W11573   7.151   1.114   0.710 -0.2046  0.0959  0.0722
 7523W        W11574   0.610  10.078   4.356 -0.2963  0.2724 -0.1735
 7524W        W11575   6.303   6.400  13.797  0.4078 -0.1179 -0.2173
 7525W        W11576   1.408   1.047  13.571 -0.0429  0.0775 -0.2094
 7526W        W11577   0.302   6.667   2.771  0.2413 -0.1998  0.1702
 7527W        W11578   1.552   8.000   3.908  0.4087 -0.1892  0.2235
 7528W        W11579   5.668   2.188  12.442  0.0067 -0.1370  0.0983
 7529W        W11580   3.364   0.477   9.577  0.1070  0.1838 -0.2885
 7530W        W11581   2.166   9.586   1.937 -0.2179 -0.2442  0.1581
 7531W        W11582   9.527   1.143  10.114 -0.4464  0.1135  0.0742
 7532W        W11583   2.547   5.592  11.103  0.0947 -0.6078 -0.2643
 7533W        W11584   4.378   4.444   3.150 -0.0732  0.1835  0.1577
 7534W        W11585   0.282   2.824   1.896 -0.4056  0.2052 -0.0603
 7535W        W11586   9.844   4.976   3.699 -0.2829 -0.0290 -0.2279
 7536W        W11587   0.810   3.897  13.334  0.0691  0.1027  0.0812
 7537W        W11588   5.190   9.212  10.045 -0.3260  0.1436  0.4193
 7538W        W11589  10.020   2.343   3.279  0.0378  0.3012 -0.0842
 7539W        W11590   4.439   5.456   5.195  0.0983 -0.1663  0.1982
 7540W        W11591   2.899   4.106  13.302 -0.2459 -0.0752 -0.1414
 7541W        W11592   4.041  10.063  12.753  0.3330  0.2515 -0.0141
 7542W        W11593   0.542   0.515  13.523  0.0433  0.2614  0.2133
 7543W        W11594   1.563   9.285   0.813  0.1795  0.1315  0.3566
 7544W        W11595   0.693   9.338   1.322 -0.1659  0.1444  0.0291
 7545W        W11596   3.645   8.992  13.375  0.4213 -0.0284 -0.1497
 7546W        W11597   0.213   5.354  13.230  0.3988 -0.3274 -0.0316
 7547W        W11598   6.808   7.215   9.774 -0.0760  0.1008 -0.1768
 7548W        W11599   1.602   0.543   1.555  0.0161 -0.1247 -0.2172
 7549W        W11600   5.826   2.623  12.624  0.2653 -0.2041 -0.4507
 7550W        W11601   0.824   1.567   2.121  0.1805 -0.1055  0.0061
 7551W        W11602   1.174   7.666  12.326  0.3378  0.1461 -0.4420
 7552W        W11603   4.661   4.444  10.384 -0.1856  0.3799  0.2481
 7553W        W11604   8.980   2.496  10.167  0.1517  0.0743  0.0593
 7554W        W11605   3.921   5.437   5.121 -0.1555  0.1460  0.0678
 7555W        W11606   3.746   8.691  13.724 -0.1833 -0.0195 -0.0190
 7556W        W11607   9.279   6.057   1.032 -0.0825  0.1155  0.0048
 7557W        W11608   7.205   9.370   4.699  0.2885 -0.1210  0.1411
 7558W        W11609   3.774   2.215  11.374  0.1634  0.0658 -0.4616
 7559W        W11610   4.001   9.104   1.701 -0.0634 -0.0314  0.2745
 7560W        W11611   1.307   3.188  10.040  0.1785 -0.0509 -0.0167
 7561W        W11612   9.676  10.041   9.807  0.2715 -0.0457 -0.1297
 7562W        W11613   1.832   3.908  12.414 -0.2993 -0.1912 -0.3494
 7563W        W11614   0.279   4.251  12.571 -0.1796  0.2663  0.2830
 7564W        W11615   6.423   7.306   2.269 -0.0536  0.0562  0.1104
 7565W        W11616   3.307   8.510   4.547  0.0089  0.0417 -0.0005
 7566W        W11617   4.762   9.493  11.521 -0.2426 -0.0385  0.0273
 7567W        W11618   4.394   9.935   1.432 -0.2304 -0.1013 -0.3149
 7568W        W11619   0.555   1.664   0.847  0.2544 -0.2313 -0.0589
 7569W        W11620   7.278   9.684  11.451  0.1588  0.2274  0.0915
 7570W        W11621   7.855   0.628   3.961  0.0850  0.0696 -0.0588
 7571W        W11622   0.485   0.852   0.448 -0.4489  0.0966  0.0022
 7572W        W11623   5.037   5.758  12.465  0.0795  0.2914 -0.1024
 7573W        W11624   0.834   3.078   2.621  0.4173  0.0466  0.3283
 7574W        W11625   4.715   1.271  12.278  0.3096  0.1127  0.3861
 7575W        W11626   7.185   3.238  13.509  0.0438  0.2824  0.0797
 7576W        W11627   5.291   3.186   3.551  0.0983 -0.1021  0.0671
 7577W        W11628   9.231   0.994   0.270 -0.2326 -0.5241  0.1062
 7578W        W11629   9.395   3.809   3.733  0.1685  0.0059 -0.1939
 7579W        W11630   3.598   8.465   5.937  0.0607  0.1339  0.3960
 7580W        W11631  10.005   0.403  10.436  0.3514 -0.0971 -0.1229
 7581W        W11632   9.926   7.529  10.807 -0.1564  0.0551  0.0421
 7582W        W11633   1.835   7.695   8.567  0.2630 -0.2012 -0.0600
 7583W        W11634   8.026   8.755   2.663 -0.3485  0.2581  0.1127
 7584W        W11635   1.645   4.578   1.908 -0.1448 -0.1423  0.3287
 7585W        W11636   7.072   8.041   4.317 -0.0603 -0.2130 -0.2838
 7586W        W11637   9.424   1.036  13.275 -0.0499 -0.1035  0.2514
 7587W        W11638   0.005   1.437   2.512  0.1267  0.1614 -0.0355
 7588W        W11639   8.398   8.394   2.037 -0.2506  0.3972 -0.3146
 7589W        W11640   0.266   4.826  11.215  0.2390 -0.0182 -0.0310
 7590W        W11641   7.039   5.614  12.073  0.0808 -0.0856 -0.0442
 7591W        W11642   8.612   0.670   2.050 -0.2968 -0.0694 -0.0685
 7592W        W11643   0.113   0.658   1.889  0.0352  0.0187  0.1309
 7593W        W11644   5.486   7.484   5.155  0.2886  0.1792 -0.0880
 7594W        W11645   3.678   4.121  11.496 -0.2168  0.0265 -0.1190
 7595W        W11646   9.456   5.548  10.243 -0.3384 -0.2763 -0.1287
 7596W        W11647   3.642   4.585   1.917 -0.0074 -0.0233  0.2510
 7597W        W11648   1.241   8.133  12.779 -0.0055  0.0596 -0.3593
 7598W        W11649   7.463   6.083   1.990 -0.2775 -0.1527  0.0473
 7599W        W11650   3.420   6.603  11.930 -0.2834  0.2185 -0.1752
 7600W        W11651   2.605   5.541   4.204 -0.3058 -0.2271 -0.0011
 7601W        W11652   5.825   8.313   3.938 -0.2625 -0.0636 -0.2427
 7602W        W11653   9.678   5.629   9.779 -0.2877  0.1559 -0.1768
 7603W        W11654   2.781   6.105  11.116 -0.0855 -0.1202 -0.4496
 7604W        W11655   2.688   3.805   8.400 -0.0578 -0.0132  0.2059
 7605W        W11656   6.156   3.170  11.849 -0.1582  0.1348 -0.1905
 7606W        W11657   5.750   3.275  13.717  0.0431  0.1971 -0.5810
 7607W        W11658   8.535   1.309   0.898 -0.1349  0.1724  0.0167
 7608W        W11659   9.991   2.102  12.945  0.2944  0.1828 -0.0376
 7609W        W11660   4.324   2.713   2.361 -0.0879 -0.1739  0.3396
 7610W        W11661   6.686   8.842   3.005  0.0811  0.5833  0.1668
 7611W        W11662   6.183   1.826   1.148  0.0043  0.1075 -0.0540
 7612W        W11663   7.158   3.712   2.814  0.2538 -0.0798  0.0834
 7613W        W11664   6.514   8.696   0.179  0.0662 -0.0610  0.3797
 7614W        W11665   1.223   3.697  11.299  0.1875 -0.0918  0.0682
 7615W        W11666   4.987   9.442   2.376  0.1559 -0.1309 -0.0866
 7616W        W11667   1.536   7.444   3.172  0.0833 -0.0492  0.0835
 7617W        W11668   1.405   3.091   3.375  0.1704 -0.3680 -0.0610
 7618W        W11669   2.936   9.293   9.578  0.1193 -0.0750  0.0731
 7619W        W11670   6.855   1.271   1.967 -0.0157  0.0264 -0.3522
 7620W        W11671   5.900  10.065   9.963  0.1862  0.0505 -0.0232
 7621W        W11672   8.132   6.827   2.818  0.0462  0.1709  0.1036
 7622W        W11673   8.021   4.933  13.280 -0.0973  0.0712 -0.2353
 7623W        W11674   5.605   0.734  11.378 -0.0436  0.2319  0.2607
 7624W        W11675   3.126   9.536  12.993  0.3433  0.0350 -0.6890
 7625W        W11676   7.422   1.165  13.188 -0.2689  0.2838  0.1629
 7626W        W11677   7.813   0.544  13.118  0.1560  0.3566 -0.2299
 7627W        W11678   2.744   3.965   2.350 -0.0140 -0.1886 -0.1552
 7628W        W11679   7.690   2.219   1.296 -0.1692 -0.3410  0.1889
 7629W        W11680   6.220   7.371  10.268 -0.3080  0.0116 -0.1649
 7630W        W11681   9.430   1.571  13.356 -0.0509  0.2631  0.3955
 7631W        W11682  10.176   9.347   2.145  0.0820  0.2940 -0.2993
 7632W        W11683   0.889   4.950  10.986  0.1743 -0.0173  0.3624
 7633W        W11684   8.114   3.548  12.065 -0.3524 -0.0060 -0.1518
 7634W        W11685   7.647   2.881  13.150  0.1973  0.0921 -0.1396
 7635W        W11686   1.764   8.379  10.418  0.1993 -0.3801  0.0058
 7636W        W11687   3.093   8.018  11.694 -0.0087 -0.0123  0.1859
 7637W        W11688   2.053   8.938   0.515 -0.0197  0.0244  0.1271
 7638W        W11689   1.580  10.148   3.204 -0.2010  0.0631  0.0656
 7639W        W11690   4.987   9.822   0.613 -0.2072  0.4366  0.2056
 7640W        W11691   1.217   2.353  11.557 -0.0629  0.0289 -0.3469
 7641W        W11692   6.919   4.199  11.284  0.0331  0.0829  0.0495
 7642W        W11693   2.506   5.440   1.052  0.1777 -0.0518  0.3705
 7643W        W11694   5.995  10.118   3.820  0.0055  0.1300  0.0425
 7644W        W11695   0.326   3.038  13.251  0.0798  0.1970  0.0201
 7645W        W11696   1.971   5.897  13.392 -0.2862  0.0163  0.0646
 7646W        W11697   1.861   2.331   1.285 -0.0573  0.3178  0.1273
 7647W        W11698   7.672   8.518   9.180 -0.3138  0.2563  0.0154
 7648W        W11699   6.833   8.464   1.272  0.0125 -0.1798  0.0279
 7649W        W11700   1.236   9.765  12.653 -0.2828 -0.0513  0.1449
 7650W        W11701   3.546   9.136   0.011  0.1776 -0.2616 -0.0912
 7651W        W11702   4.332   3.973  11.691  0.2520  0.0433  0.1106
 7652W        W11703   2.404   6.229   5.495  0.1039 -0.0518 -0.0880
 7653W        W11704   7.370   7.626  11.685 -0.4182  0.2422  0.2574
 7654W        W11705   9.170   9.283   9.457 -0.2369 -0.1175 -0.1055
 7655W        W11706   5.757   0.209  11.370 -0.0489  0.0956  0.1766
 7656W        W11707   7.621   5.629   9.321 -0.2528 -0.0756  0.0687
 7657W        W11708   1.146   7.273   3.444  0.1624  0.0362 -0.0643
 7658W        W11709   1.253   6.565   0.265  0.1761 -0.0701 -0.1719
 7659W        W11710   4.783   3.943   0.660  0.0330  0.0049  0.1496
 7660W        W11711   5.576   6.618  12.531  0.1366  0.1201  0.2131
 7661W        W11712   8.203   9.540   4.940 -0.1401  0.3009 -0.0127
 7662W        W11713   4.429   8.605   3.724  0.3586  0.1320 -0.3137
 7663W        W11714   8.879   7.308  12.389  0.3198  0.0189 -0.0296
 7664W        W11715   8.607   9.227   1.199 -0.1014  0.0718  0.1300
 7665W        W11716   0.823   4.203   9.927 -0.0223  0.4293 -0.2516
 7666W        W11717   3.125  10.179   0.054 -0.2007 -0.2467  0.0717
 7667W        W11718   2.581   7.934  11.867  0.3678 -0.0526  0.2547
 7668W        W11719   6.148   3.933   1.462  0.0642 -0.2508  0.1772
 7669W        W11720   5.475   4.722  13.352  0.0392  0.3384  0.2403
 7670W        W11721   1.415   4.969  12.598 -0.1227 -0.3556  0.2733
 7671W        W11722   9.033   4.234   1.299 -0.0325  0.2333 -0.3425
 7672W        W11723   1.888   5.740   4.156  0.2898  0.3063  0.0428
 7673W        W11724   2.191   5.327   0.636  0.1730 -0.3977 -0.1652
 7674W        W11725   3.509   4.056   0.430  0.2771  0.0428  0.1224
 7675W        W11726   3.515   9.660  10.659  0.1585  0.0934 -0.0268
 7676W        W11727   0.910   9.694   1.619  0.1165 -0.0668  0.1580
 7677W        W11728   9.024   7.307  11.075 -0.0306  0.4222 -0.2425
 7678W        W11729   4.039   0.681  13.110  0.0724  0.2212  0.0634
 7679W        W11730   3.336   7.425   9.810 -0.1642 -0.0617 -0.1758
 7680W        W11731   8.920   1.706   1.059  0.0867  0.0574 -0.0707
 7681W        W11732   3.556   0.032  12.901  0.1436 -0.3110  0.2903
 7682W        W11733   4.980   0.902   2.492 -0.1659  0.1918 -0.0326
 7683W        W11734   8.060   9.365   1.526 -0.0646  0.4006  0.2309
 7684W        W11735   4.070   5.542   5.611  0.1359 -0.1115  0.2253
 7685W        W11736   6.505   1.748  11.524 -0.2760  0.2639 -0.0627
 7686W        W11737   9.287   7.520  10.086  0.1056  0.1839 -0.3851
 7687W        W11738   7.994   8.443   1.095 -0.0154 -0.3382 -0.3682
 7688W        W11739   1.610   3.436   4.251  0.2654  0.1306 -0.0107
 7689W        W11740   0.419  10.078   1.251 -0.0016  0.1360  0.0501
 7690W        W11741   9.744   7.759  13.799 -0.0381 -0.1338 -0.0756
 7691W        W11742   0.164   3.360  12.922 -0.3240  0.0232 -0.0728
 7692W        W11743   4.526   4.813  10.891 -0.1542  0.1196 -0.1303
 7693W        W11744  10.076   0.862   0.848  0.0483  0.2030 -0.0489
 7694W        W11745   2.653   0.042  10.970 -0.0847 -0.0891  0.0177
 7695W        W11746   6.224   7.885  13.950  0.0705  0.0918  0.1688
 7696W        W11747   8.606   2.978   1.566  0.0810  0.2200 -0.2875
 7697W        W11748   6.276   0.470  10.201  0.2181  0.0276 -0.2301
 7698W        W11749   6.358   5.188  13.203 -0.1938 -0.1649  0.0574
 7699W        W11750   2.124   1.662  13.118  0.2305  0.0136  0.1850
 7700W        W11751   0.730   8.047   2.765  0.2853  0.1459  0.0127
 7701W        W11752   2.973   6.921  10.513  0.0123  0.1183  0.1488
 7702W        W11753   8.341   1.754   0.754 -0.0559 -0.0758  0.3251
 7703W        W11754   3.401   0.088   2.974 -0.2269  0.2589 -0.0528
 7704W        W11755   0.268   1.527   1.244  0.0475  0.1533  0.2325
 7705W        W11756   6.189   4.212  12.902 -0.1073 -0.0374 -0.2031
 7706W        W11757   9.358   2.566  11.525 -0.1254 -0.1895  0.1778
 7707W        W11758   8.256   3.209   1.993 -0.0387 -0.3407  0.1622
 7708W        W11759   6.328   4.120   0.637  0.1142  0.1118  0.0184
 7709W        W11760   8.631   5.717   3.995 -0.0583 -0.2121 -0.2701
 7710W        W11761   3.905   2.845   2.699  0.4228  0.0337  0.2245
 7711W        W11762   2.050   3.249   1.300  0.1705  0.0099 -0.0227
 7712W        W11763   2.072   7.945   3.984  0.3728  0.0076  0.4066
 7713W        W11764   1.899   8.217  13.548 -0.1496  0.2063 -0.2085
 7714W        W11765   7.501   7.120   4.928  0.0832 -0.1748  0.2765
 7715W        W11766   0.476   4.566   1.102 -0.0224 -0.0378  0.0342
 7716W        W11767   3.066   8.310   3.933  0.0412  0.2059  0.1006
 7717W        W11768   2.641   9.355   3.918  0.2149  0.0850 -0.1547
 7718W        W11769   4.420   6.601   2.196  0.2207  0.3765 -0.0704
 7719W        W11770   6.126   9.614  13.424 -0.1521  0.2719 -0.2261
 7720W        W11771   0.359   3.060   2.826  0.2758  0.1861 -0.0493
 7721W        W11772  10.038   5.045  13.025 -0.2447  0.4510  0.0781
 7722W        W11773   3.701   1.964   2.635 -0.0270  0.0153  0.2090
 7723W        W11774   3.998   6.673   1.070  0.2785 -0.0755 -0.0067
 7724W        W11775   3.270   8.596   1.214 -0.3138  0.0711  0.1889
 7725W        W11776   0.213   5.722  11.573  0.0534  0.3003  0.2433
 7726W        W11777   8.985   1.976   2.415 -0.0280 -0.1503  0.0219
 7727W        W11778   6.644   8.209   0.354 -0.0137  0.0452 -0.2296
 7728W        W11779   2.177   3.410  10.732  0.1194  0.2984 -0.2540
 7729W        W11780   9.537   6.074   4.034  0.0192  0.1857  0.1329
 7730W        W11781   8.629   4.747  13.393  0.3192 -0.0077  0.0938
 7731W        W11782   1.976  10.046  10.992  0.2192  0.0039 -0.0436
 7732W        W11783   1.039   0.587   1.622  0.0941  0.1072  0.2680
 7733W        W11784   5.344   0.745   0.670 -0.0029  0.0931  0.1278
 7734W        W11785   5.307   7.844  12.912  0.0158  0.2693  0.1072
 7735W        W11786   3.527   5.479   0.136 -0.0047  0.1288 -0.0365
 7736W        W11787   5.445   9.894   0.387 -0.3178 -0.2951  0.1767
 7737W        W11788   6.930   5.899   1.903 -0.1349  0.1238 -0.4663
 7738W        W11789   4.461   1.181   1.803 -0.0675 -0.4292 -0.0115
 7739W        W11790   4.721   0.686  12.116 -0.1018  0.1461  0.0806
 7740W        W11791   9.686   6.705  11.994 -0.2522  0.2069  0.0882
 7741W        W11792   4.635   4.325  13.198 -0.2705  0.0218 -0.0013
 7742W        W11793   0.720   4.488  10.703  0.0735  0.1219  0.1251
 7743W        W11794   6.713   4.683   1.358  0.1013  0.4842  0.2780
 7744W        W11795   9.006   6.733   1.652  0.0873  0.2200 -0.0005
 7745W        W11796   2.443   3.130  12.494 -0.3892 -0.1034 -0.1697
 7746W        W11797   6.076   1.975   0.353  0.1932 -0.0123  0.0757
 7747W        W11798   2.627   7.455   1.744  0.1240  0.2803 -0.0623
 7748W        W11799   9.140   4.455   9.684  0.1937 -0.2916 -0.0703
 7749W        W11800   3.759   0.499   4.893  0.0953 -0.1519  0.3551
 7750W        W11801   1.839   8.912   4.893  0.1018  0.1555  0.0865
 7751W        W11802   8.367   7.979  11.755  0.2797  0.2502 -0.1154
 7752W        W11803   8.136   8.302  11.379  0.1500  0.0008  0.3965
 7753W        W11804   5.928   1.195  11.341 -0.1079  0.0521 -0.1949
 7754W        W11805   1.761   6.113   2.648  0.0089  0.0436  0.0936
 7755W        W11806   5.180   3.649   0.769  0.1891 -0.0317 -0.0531
 7756W        W11807   1.053   6.489   0.697  0.1322 -0.0279  0.0901
 7757W        W11808   7.811   6.777   4.908  0.0115  0.3393  0.0406
 7758W        W11809   5.337   5.711   4.937 -0.0026  0.1555 -0.0028
 7759W        W11810   9.052   7.568  10.562  0.0195 -0.1443  0.0425
 7760W        W11811   9.518   2.967  12.449  0.0411  0.2221  0.1396
 7761W        W11812   3.311   7.579  11.793 -0.3009 -0.1545  0.0267
 7762W        W11813   2.069   3.596   3.468 -0.1280  0.0741  0.2681
 7763W        W11814   6.076   7.096   4.916  0.0552 -0.5124 -0.0208
 7764W        W11815   3.040   5.326  10.669  0.0553  0.0115 -0.0065
 7765W        W11816   7.331   7.941   1.849  0.1586  0.2688  0.0151
 7766W        W11817   5.212   6.056   0.631  0.0273 -0.1422  0.1651
 7767W        W11818   3.673   0.089   3.947  0.1975 -0.2224 -0.3893
 7768W        W11819   8.925   8.584   4.959  0.0861 -0.2134 -0.1251
 7769W        W11820   0.514   8.239  10.789  0.1192 -0.1215 -0.0071
 7770W        W11821   2.022   1.963  10.806  0.1590 -0.2590 -0.0543
 7771W        W11822   2.639   1.745   1.187  0.0528  0.0524 -0.2838
 7772W        W11823   1.833   2.242   8.763  0.2416 -0.0491  0.0158
 7773W        W11824   1.851   5.453   8.559 -0.0534  0.1439 -0.0177
 7774W        W11825   1.610   9.511   0.315 -0.0034 -0.2203  0.0258
 7775W        W11826   8.716   5.844   3.029  0.0899  0.1019 -0.1831
 7776W        W11827   6.932   0.933  10.760  0.0689  0.3603  0.2901
 7777W        W11828   2.878   4.349   3.240 -0.2806  0.0693  0.0248
 7778W        W11829   9.990   7.126  12.231 -0.0955  0.0867 -0.0012
 7779W        W11830   4.139   7.386  12.022  0.0563  0.1039 -0.4648
 7780W        W11831   5.014   6.215  11.093 -0.1728  0.1272  0.2475
 7781W        W11832   8.520   4.438   1.440 -0.0249 -0.1281  0.0217
 7782W        W11833   9.022   3.044  13.615  0.1562 -0.4679 -0.3043
 7783W        W11834   1.644   0.239   9.434  0.2448 -0.1357  0.1042
 7784W        W11835   3.901   8.348  11.720 -0.1491 -0.0795  0.2239
 7785W        W11836   9.151   8.637  12.821  0.0163  0.1483 -0.0970
 7786W        W11837   0.602   7.685  10.184 -0.1514 -0.0720  0.1210
 7787W        W11838   1.455   6.181   3.436 -0.1160  0.1408  0.0339
 7788W        W11839   8.401   8.760  11.552  0.2538  0.2045  0.1614
 7789W        W11840   5.554   5.329   0.160 -0.0617 -0.1122 -0.1470
 7790W        W11841   6.861   3.483   1.293  0.2823 -0.0936 -0.1274
 7791W        W11842   0.826   7.243  13.298  0.0168  0.0420  0.0456
 7792W        W11843   7.953   5.746  11.923  0.0685  0.2608 -0.3152
 7793W        W11844   4.871   8.238   3.964  0.4499  0.1484 -0.1201
 7794W        W11845   6.216   7.326  11.096 -0.0654 -0.4092 -0.1960
 7795W        W11846   3.683   4.975  12.109 -0.2624  0.0678 -0.1264
 7796W        W11847   5.332   1.118   3.863  0.0568 -0.2997 -0.1109
 7797W        W11848   5.107   9.245  13.877  0.0260  0.1365 -0.2044
 7798W        W11849   2.183   9.580   2.449 -0.0327  0.0584 -0.0232
 7799W        W11850   9.621   6.401  13.728 -0.0011  0.0232 -0.3278
 7800W        W11851   3.873   1.820   4.265  0.2215  0.1088  0.1541
 7801W        W11852   6.410   5.463  12.759  0.3772  0.1592 -0.1834
 7802W        W11853   2.444   3.506   1.494 -0.4723  0.1364  0.3531
 7803W        W11854   0.088   4.556  13.535  0.2484 -0.2487  0.0151
 7804W        W11855   2.716   9.220  12.291  0.0224 -0.3350 -0.2125
 7805W        W11856   2.726   1.210  13.865  0.0016  0.1793 -0.0851
 7806W        W11857   8.319   2.274  13.424 -0.0276 -0.2347  0.0398
 7807W        W11858   4.177   0.042   1.059  0.1996  0.1833 -0.0859
 7808W        W11859   3.493   2.621  12.967  0.0903 -0.2848 -0.2322
 7809W        W11860   3.931   0.356  12.733 -0.4013  0.3162 -0.1383
 7810W        W11861   8.693   8.867   4.092 -0.0227 -0.0301  0.2504
 7811W        W11862   4.288   1.574  12.218 -0.0749  0.2334  0.0470
 7812W        W11863   4.709  10.076   1.009  0.2363 -0.5015 -0.2559
 7813W        W11864   4.964   5.042  10.981 -0.0959 -0.0650  0.0809
 7814W        W11865   8.548  10.140   3.048  0.0842 -0.0675  0.1652
 7815W        W11866   6.791   5.152  12.502 -0.3514  0.1520 -0.1040
 7816W        W11867   2.842   5.104   9.466 -0.2080 -0.2301  0.1316
 7817W        W11868   2.602   0.766  12.226 -0.2860  0.2872 -0.0485
 7818W        W11869   4.290   2.812  12.668 -0.0346 -0.2907  0.1895
 7819W        W11870   6.404   4.505  13.914  0.1278  0.1941  0.1369
 7820W        W11871   1.391   8.436   5.580 -0.1147 -0.2175 -0.1490
 7821W        W11872   4.912   4.805   9.077 -0.2832 -0.1167  0.0538
 7822W        W11873   0.418   6.624  10.900 -0.3758  0.3538 -0.2420
 7823W        W11874   2.163   3.335   4.448  0.2939 -0.0109 -0.1294
 7824W        W11875   2.456   3.829   1.896 -0.2176 -0.0980  0.1066
 7825W        W11876   2.091   8.764  10.329 -0.1985 -0.1900  0.1302
 7826W        W11877   4.017   0.436   4.320  0.1723 -0.2412 -0.0875
 7827W        W11878   8.799   3.571   3.105  0.3940 -0.0695 -0.1838
 7828W        W11879   0.098   9.909  13.726  0.1962 -0.0918  0.2158
 7829W        W11880   6.554   5.010   1.753  0.0011  0.0278 -0.4080
 7830W        W11881   7.243   5.520  12.670  0.1642  0.1756 -0.2956
 7831W        W11882   4.160   4.173   3.517 -0.3830  0.0954  0.5025
 7832W        W11883   8.888   2.336  12.972  0.2711  0.1134  0.1944
 7833W        W11884   7.214   8.164   3.854  0.0627 -0.0589  0.1875
 7834W        W11885   9.628   7.311   4.487 -0.1291  0.0202  0.1148
 7835W        W11886   8.861   1.498  12.448  0.0410 -0.2183 -0.3215
 7836W        W11887   8.034   6.733   0.737 -0.0594 -0.0407 -0.0550
 7837W        W11888   0.535   8.581   4.631 -0.0841  0.1090  0.1798
 7838W        W11889   7.050   6.735   0.456 -0.2661  0.1203  0.1178
 7839W        W11890   4.728   5.297  10.576 -0.1693 -0.2821 -0.0627
 7840W        W11891   0.957   7.018  12.814  0.0509  0.0038 -0.1501
 7841W        W11892   6.168   1.598  11.011  0.1248  0.3488  0.0482
 7842W        W11893   3.637   0.668  13.516 -0.0533 -0.0480 -0.0657
 7843W        W11894   1.348   7.257  12.589 -0.1619  0.2351  0.2205
 7844W        W11895   8.973   7.568   2.630 -0.2392 -0.1026  0.0349
 7845W        W11896   6.316   6.443   3.497 -0.2648  0.1339 -0.0365
 7846W        W11897   5.624   3.450   0.927  0.3517 -0.0671 -0.1928
 7847W        W11898   4.456   1.894  10.862  0.0531 -0.0993  0.0404
 7848W        W11899   9.019   9.068  10.910 -0.2681 -0.1234  0.2729
 7849W        W11900   6.980   0.327   0.224 -0.2940  0.3227 -0.2584
 7850W        W11901   2.784   9.635  13.539  0.1951  0.1421 -0.1575
 7851W        W11902   4.298   1.149   4.030  0.0374  0.0679 -0.1314
 7852W        W11903   4.487   8.225  13.968 -0.0613 -0.1349 -0.2962
 7853W        W11904   0.129   2.867   0.735 -0.0278 -0.3332 -0.1594
 7854W        W11905   0.224   6.039   1.373 -0.1576  0.1038 -0.2158
 7855W        W11906   1.460   6.903   1.905 -0.5257 -0.0953  0.0436
 7856W        W11907   4.224   1.349  10.988  0.0603 -0.2034 -0.0433
 7857W        W11908   1.044   4.556   3.326  0.2277  0.0629  0.3617
 7858W        W11909  10.090   3.513  10.562 -0.0010  0.3150  0.1404
 7859W        W11910   9.048   5.943  12.080  0.0245 -0.2768 -0.1151
 7860W        W11911   5.445   6.372  13.594  0.1224 -0.0221 -0.0856
 7861W        W11912   2.144   0.789   1.504  0.2041 -0.0965 -0.3013
 7862W        W11913   5.919   5.350   4.142 -0.2342 -0.0121 -0.1249
 7863W        W11914   7.080   5.308   2.484 -0.1118  0.2002  0.0574
 7864W        W11915   0.791   2.956   2.068 -0.0242  0.0747  0.2312
 7865W        W11916   0.063   6.634  13.253 -0.2922 -0.0785  0.0841
 7866W        W11917   3.051   0.916   1.643  0.0272 -0.1101 -0.2609
 7867W        W11918   1.808   8.089   4.449  0.0817  0.0985 -0.2369
 7868W        W11919   2.906   8.387  11.963 -0.0522 -0.1384 -0.0541
 7869W        W11920   8.504   0.480  13.683  0.2538  0.0735  0.2067
 7870W        W11921   7.578   2.069   1.733 -0.1981 -0.0901 -0.1853
 7871W        W11922   3.298   3.616   2.901  0.0319 -0.0369  0.0033
 7872W        W11923   1.469   5.061  13.985  0.3141  0.0560  0.2831
 7873W        W11924   3.087   1.546   3.035  0.2162 -0.0387  0.1359
 7874W        W11925   0.240   7.320   4.706  0.1431 -0.1769  0.1634
 7875W        W11926   7.736   9.206  13.720 -0.1086  0.0487  0.3244
 7876W        W11927   6.457   7.223  13.271 -0.1531 -0.3255 -0.0856
 7877W        W11928   6.856   9.318  10.544 -0.1548  0.0761 -0.1095
 7878W        W11929   5.739   8.964   4.415  0.3148 -0.4159  0.1806
 7879W        W11930   9.250   7.417   1.178  0.2061 -0.0238  0.0370
 7880W        W11931   2.080   4.330   2.595  0.0285  0.1960 -0.1026
 7881W        W11932   8.767   1.388  13.725 -0.0093 -0.1181 -0.1827
 7882W        W11933   8.810   0.267   1.327 -0.1603  0.2692 -0.0246
 7883W        W11934   5.641   7.750   3.795  0.1021  0.1340 -0.4197
 7884W        W11935   6.643   3.907   1.329  0.1762  0.2418 -0.0401
 7885W        W11936   3.177   7.968   0.039 -0.1303 -0.3027 -0.6393
 7886W        W11937   4.438   7.776   9.704 -0.0212 -0.1241 -0.0917
 7887W        W11938   2.657   7.354  13.000  0.0697 -0.3381  0.0996
 7888W        W11939   1.380   0.926  13.046 -0.1108 -0.0474 -0.3701
 7889W        W11940   2.775   5.632   3.700  0.1904 -0.2714 -0.1965
 7890W        W11941   4.699   0.243   0.031  0.3668 -0.0590  0.2583
 7891W        W11942   2.188   2.216  13.072 -0.0227 -0.1606  0.1099
 7892W        W11943   5.549   3.734   2.978 -0.0326  0.1918  0.2511
 7893W        W11944   9.616   8.347   1.081 -0.1132 -0.1493 -0.0508
 7894W        W11945   1.849   7.426   9.750  0.2377  0.0171 -0.1600
 7895W        W11946   2.901   3.181   9.935 -0.0706 -0.1527  0.2964
 7896W        W11947   2.001   0.345   1.986  0.0564  0.1492 -0.0458
 7897W        W11948   4.547   2.199   2.981  0.0979  0.3713 -0.1184
 7898W        W11949   5.496   9.808  12.156  0.0680  0.0463 -0.0347
 7899W        W11950   1.630   2.671  11.844  0.4535 -0.1284  0.2548
 7900W        W11951   3.680   3.522   3.201 -0.2469  0.1558  0.3155
 7901W        W11952   8.373  10.170   2.598  0.4024 -0.2875 -0.3637
 7902W        W11953   9.146   2.050  10.924  0.1634  0.3977  0.1829
 7903W        W11954   7.130   8.446  10.510 -0.3574  0.3012  0.1879
 7904W        W11955   9.458   5.163   3.923  0.1547 -0.1712  0.0868
 7905W        W11956   7.487   3.150   2.451  0.0164 -0.2500  0.2765
 7906W        W11957   7.187   7.347   3.886 -0.1857 -0.0494 -0.2371
 7907W        W11958   2.728   2.976  11.218  0.1630 -0.5171  0.2993
 7908W        W11959   2.581   8.845  13.173 -0.2014 -0.1538  0.1791
 7909W        W11960   1.498   9.654   8.582  0.1150  0.0983 -0.2540
 7910W        W11961   6.081   6.875   2.174  0.0204 -0.3535 -0.0120
 7911W        W11962   0.726   6.299   1.666 -0.0490 -0.1874 -0.0537
 7912W        W11963   3.547   8.670  10.338 -0.1412  0.2964 -0.2680
 7913W        W11964   5.085   4.541   9.989  0.0741  0.1215  0.1154
 7914W        W11965  10.002   5.013   2.292  0.0934  0.1884 -0.1844
 7915W        W11966   4.661   7.416   0.009  0.1101  0.3607 -0.3396
 7916W        W11967   4.983   2.686   4.069  0.3784 -0.0380  0.0475
 7917W        W11968   5.956   8.789   1.458  0.2949 -0.1598 -0.3112
 7918W        W11969   7.357   4.395  11.083 -0.2280 -0.0071  0.0753
 7919W        W11970   1.976   9.632   3.858  0.1861 -0.1775 -0.0243
 7920W        W11971   6.613   7.739   3.039  0.0947  0.2685  0.0421
 7921W        W11972   7.411   9.049   3.808 -0.0129  0.1787  0.1630
 7922W        W11973   7.938   8.832   5.244 -0.1469 -0.0295  0.0488
 7923W        W11974   7.328   0.847   2.250  0.2068  0.1458  0.0791
 7924W        W11975   9.484   7.226  12.337  0.2242  0.0095 -0.2901
 7925W        W11976   1.495   4.452   0.108  0.3745  0.0066 -0.2802
 7926W        W11977   6.915   0.756  13.303  0.1612  0.1336  0.1093
 7927W        W11978   2.827   7.658  10.553 -0.0895 -0.2059  0.3002
 7928W        W11979   0.575   6.976   1.570  0.1879  0.0277  0.0035
 7929W        W11980   9.564   3.418  10.804 -0.0057 -0.2322  0.1285
 7930W        W11981   2.983   4.278   1.162 -0.0789 -0.0684  0.0680
 7931W        W11982   4.008   4.322  11.833 -0.2987  0.1208 -0.2610
 7932W        W11983   3.148   0.826   1.138 -0.1044  0.0927 -0.1116
 7933W        W11984   6.815   5.747   4.256  0.1356 -0.0016 -0.2932
 7934W        W11985   8.857   9.912  12.258 -0.2059 -0.0307  0.1856
 7935W        W11986   2.470   7.348   4.557 -0.0655 -0.1008  0.2866
 7936W        W11987   6.145   5.300  13.628  0.0322  0.1545 -0.0191
 7937W        W11988   7.799   9.937   3.404  0.0583  0.3545 -0.2378
 7938W        W11989   9.671   2.702   2.617 -0.1023  0.1870 -0.0706
 7939W        W11990   3.669   0.226  11.195  0.0715  0.2069 -0.0976
 7940W        W11991   7.725   0.492  12.578  0.0188 -0.1227 -0.2309
 7941W        W11992   5.685   0.414   5.502  0.3003  0.0382 -0.0654
 7942W        W11993   5.582   6.059   3.508 -0.0453  0.1172  0.0961
 7943W        W11994   8.588   5.599   5.322  0.1618  0.0597 -0.0220
 7944W        W11995   0.573   7.436  11.699 -0.4691 -0.0473  0.0695
 7945W        W11996   7.888   6.240   1.026  0.3937 -0.5295 -0.1329
 7946W        W11997   9.281   8.468   2.577  0.3622 -0.1332 -0.0705
 7947W        W11998   0.364   8.172  13.421  0.3736 -0.0893 -0.2126
 7948W        W11999   3.843   3.825   3.868  0.0390  0.2381 -0.2879
 7949W        W12000   4.496   8.441   8.907 -0.0733 -0.3670  0.1144
 7950W        W12001   2.181   4.934  10.730  0.3143 -0.1106 -0.0155
 7951W        W12002   5.479   7.025   0.298  0.3337 -0.5819  0.0899
 7952W        W12003   3.114   8.792   4.953  0.1480 -0.0852  0.0876
 7953W        W12004   0.749   3.387  11.641 -0.1193 -0.2890  0.0205
 7954W        W12005   2.666   3.671  10.078 -0.2045  0.0958  0.0506
 7955W        W12006   2.360   4.540  10.454  0.0799 -0.1377  0.3293
 7956W        W12007   1.487   2.890  13.039  0.0621  0.3573 -0.3136
 7957W        W12008   8.883   0.555  11.622  0.0893  0.0954 -0.3303
 7958W        W12009   7.594   8.240   4.860  0.4855 -0.2619  0.0748
 7959W        W12010   9.807   9.981  13.923  0.2599 -0.0200 -0.1789
 7960W        W12011   9.850   6.958   0.950  0.0257  0.3365  0.0482
 7961W        W12012   0.160   6.522   2.285 -0.0511  0.1007  0.4362
 7962W        W12013   3.758   9.380   1.110  0.3233  0.0887  0.2707
 7963W        W12014   6.068   0.040   2.301  0.1016  0.1510 -0.2089
 7964W        W12015   0.934   1.586   0.374  0.2957  0.1782  0.1718
 7965W        W12016   9.219   6.427  13.340 -0.1440  0.0046 -0.0024
 7966W        W12017   8.690   8.511   3.712  0.1515  0.0345  0.1486
 7967W        W12018   9.636   9.863   3.871  0.1979 -0.2690  0.1332
 7968W        W12019   4.479   7.324   1.132  0.1554 -0.1903  0.0098
 7969W        W12020   6.880   1.889   2.321 -0.0787 -0.1516 -0.0078
 7970W        W12021   2.020   0.858  10.950  0.1948 -0.0825 -0.1385
 7971W        W12022   0.093   6.642  11.336  0.1272  0.1168  0.0738
 7972W        W12023   8.328   1.661  11.278 -0.2404 -0.1764 -0.0944
 7973W        W12024   7.040   8.199  11.418 -0.1914 -0.0008 -0.1871
 7974W        W12025  10.037   5.100   2.777 -0.0219 -0.2975 -0.0315
 7975W        W12026  10.108   4.059  13.288 -0.0374 -0.0657 -0.0570
 7976W        W12027   8.324   4.541  13.072  0.0058  0.0601  0.1892
 7977W        W12028   0.595   6.635   1.980  0.3270 -0.0398  0.3435
 7978W        W12029   5.515   3.372   1.738 -0.0908 -0.1613 -0.2448
 7979W        W12030   3.771   5.958  13.032 -0.0513 -0.1906  0.1723
 7980W        W12031   6.946   6.533   2.489 -0.2655 -0.0925 -0.2898
 7981W        W12032   8.065   8.264  12.611 -0.0994 -0.0091  0.0267
 7982W        W12033   7.204   3.031  13.004  0.3264  0.0285  0.0150
 7983W        W12034   5.609   9.553   1.229 -0.0954  0.2573  0.0218
 7984W        W12035   6.220   8.073   9.244  0.0534 -0.1162 -0.5185
 7985W        W12036   9.495   8.757  13.660  0.2103  0.0865  0.1508
 7986W        W12037   6.882   6.009  11.147 -0.0435 -0.0347  0.2385
 7987W        W12038   0.435   0.246   2.090  0.1472 -0.1881 -0.0327
 7988W        W12039   1.414   0.752   2.952  0.3589  0.1168 -0.2912
 7989W        W12040   7.045   9.106   3.468 -0.3423  0.2236 -0.1042
 7990W        W12041   1.138   0.635   4.171 -0.0438 -0.1572  0.2924
 7991W        W12042   9.150   5.022  12.418  0.0162 -0.0735 -0.4261
 7992W        W12043   3.361   7.446   0.280 -0.2338  0.3958  0.1997
 7993W        W12044   2.196   7.904  13.912  0.0287  0.2971 -0.1999
 7994W        W12045   2.065   5.198   1.444 -0.0628  0.0145 -0.3576
 7995W        W12046   8.383   7.629   2.479 -0.1428 -0.1858 -0.4393
 7996W        W12047   8.334   5.588   2.119 -0.3353  0.0749  0.1337
 7997W        W12048   8.410   1.369  12.818  0.0262 -0.0748  0.1514
 7998W        W12049   9.783   2.939   2.131 -0.0050  0.2261  0.1109
 7999W        W12050   1.600   9.854   5.195  0.0870  0.2302  0.6481
 8000W        W12051   4.128   6.978  10.062 -0.1161  0.1484  0.2509
 8001W        W12052   6.563   8.975   3.618 -0.7072 -0.0181 -0.3989
 8002W        W12053   9.821   8.108  12.879 -0.0256  0.6148  0.0864
 8003W        W12054   7.947   2.401  13.029  0.2647  0.2049  0.1151
 8004W        W12055   0.742   2.997  12.377  0.1777 -0.1135 -0.0722
 8005W        W12056   3.385   3.555  11.984 -0.3504  0.1975 -0.1017
 8006W        W12057   5.063   8.682   3.030  0.0107  0.2642 -0.0418
 8007W        W12058   3.478   9.584   0.703  0.0031 -0.0809 -0.0180
 8008W        W12059   2.257   0.383  11.748 -0.5622  0.1180 -0.2107
 8009W        W12060   7.535   2.573  12.192  0.0334  0.0977 -0.0117
 8010W        W12061   0.867   3.720  10.905  0.2945 -0.0297 -0.0367
 8011W        W12062   8.002   0.672  13.591  0.1927  0.0183  0.0804
 8012W        W12063   2.013   8.245   9.943  0.1431 -0.0377 -0.2800
 8013W        W12064   0.040   5.764   2.820 -0.3498 -0.1694  0.0867
 8014W        W12065   2.976   9.100   0.891 -0.1119 -0.0417 -0.3400
 8015W        W12066   9.438   5.057   4.894 -0.1367 -0.0749  0.1641
 8016W        W12067   8.069   4.880  12.266  0.1736  0.0112 -0.1485
 8017W        W12068   0.900   5.467  11.955 -0.2356 -0.0075  0.0587
 8018W        W12069   2.316   6.999   1.786  0.3368 -0.1573 -0.1369
 8019W        W12070   3.804   6.362  12.171  0.0613 -0.0812  0.0063
 8020W        W12071   4.203   5.678   9.887 -0.1251  0.2028 -0.0943
 8021W        W12072   3.721   1.392  10.849 -0.1893  0.1471  0.3127
 8022W        W12073   8.829   3.077   1.129  0.1337  0.0144 -0.1286
 8023W        W12074   5.390   7.385   0.827  0.2286  0.1099 -0.1757
 8024W        W12075   2.831   5.752  10.762 -0.0792 -0.1894 -0.4946
 8025W        W12076   9.570   5.073  13.283 -0.1867 -0.2721  0.1808
 8026W        W12077   3.784   4.502  13.857  0.0691  0.0912 -0.0802
 8027W        W12078   4.047   1.547  13.557 -0.1187 -0.1314 -0.0792
 8028W        W12079   6.314   3.722  13.081 -0.3488 -0.0336  0.2031
 8029W        W12080   7.987   8.709  12.426  0.0999 -0.0921  0.0710
 8030W        W12081   0.199   6.868   3.334 -0.0545  0.0576  0.0214
 8031W        W12082   1.682   7.262   0.052  0.0567 -0.1486  0.0248
 8032W        W12083   7.648   3.964  12.148 -0.0039  0.1615  0.4333
 8033W        W12084   7.019   7.185  10.262  0.1093 -0.1683 -0.4384
 8034W        W12085   5.140   5.608   3.556 -0.1467  0.0069  0.1816
 8035W        W12086   7.485   9.971   2.988  0.1992 -0.4768 -0.3789
 8036W        W12087   1.486   4.825   9.764  0.0728  0.0157 -0.0939
 8037W        W12088   6.468   6.772   4.680  0.0790  0.2004  0.0410
 8038W        W12089   8.351   0.258   0.491 -0.0301 -0.0755  0.0976
 8039W        W12090   8.533   2.042   1.902  0.0676 -0.0749  0.0448
 8040W        W12091   4.344   8.296   3.214 -0.2560 -0.4006 -0.1253
 8041W        W12092   9.765   6.143  12.709  0.2578  0.0733 -0.0279
 8042W        W12093   8.017   5.520  12.963  0.0234  0.1693  0.1926
 8043W        W12094   4.501   3.749  13.147  0.0479  0.2543 -0.0363
 8044W        W12095   0.781   6.572   4.622 -0.2175 -0.0504  0.0434
 8045W        W12096   1.511   5.636   9.958 -0.1494 -0.2496  0.2514
 8046W        W12097   3.548   9.773  13.206  0.1629  0.1156 -0.3295
 8047W        W12098   3.732   4.557   1.352 -0.3996  0.0246 -0.2558
 8048W        W12099   7.810   1.821   0.976 -0.0756 -0.0603 -0.1005
 8049W        W12100   5.040   7.132   9.672  0.0544  0.0371  0.1957
 8050W        W12101   8.042   8.138   2.395 -0.0861  0.0075 -0.1787
 8051W        W12102   7.868   2.473  10.317 -0.2245  0.3342 -0.2438
 8052W        W12103   4.710   8.706  11.794  0.1025 -0.0897 -0.0719
 8053W        W12104   5.305   4.848   2.848  0.1632 -0.0310 -0.0929
 8054W        W12105   8.270   1.108   3.146 -0.1903 -0.1269  0.1372
 8055W        W12106   9.565   8.075  12.303  0.0502  0.1229 -0.2043
 8056W        W12107   2.831   5.557  13.809 -0.0193 -0.0539 -0.1345
 8057W        W12108   8.292   1.550   1.301  0.4337 -0.4501 -0.1022
 8058W        W12109   2.642   2.678  12.363  0.1146 -0.1967 -0.0131
 8059W        W12110   1.597   9.241   3.711  0.4346  0.2236 -0.0722
 8060W        W12111   3.322   8.397   3.230 -0.4488 -0.1603 -0.1225
 8061W        W12112   7.415   9.491  13.964 -0.1278 -0.0292  0.2087
 8062W        W12113   8.971   3.741  12.188  0.0301  0.1573  0.2530
 8063W        W12114   0.698   5.840   1.401 -0.0963 -0.0543  0.0205
 8064W        W12115   3.979   3.591  13.765 -0.3064  0.0503  0.1670
 8065W        W12116   1.004   6.719   1.642  0.2317 -0.0449 -0.0642
 8066W        W12117   7.683   8.460   2.502  0.1453  0.0910 -0.1471
 8067W        W12118   7.708   0.739   2.575  0.2677 -0.4241  0.1979
 8068W        W12119   4.283   2.703   0.256 -0.0566 -0.1134 -0.2097
 8069W        W12120   8.523   6.793   3.184 -0.0351 -0.2704 -0.1351
 8070W        W12121   4.964   6.851  11.752 -0.1695 -0.0812 -0.2782
 8071W        W12122   1.687   5.175  10.525 -0.1858  0.4038 -0.1776
 8072W        W12123   1.389   5.312   1.951 -0.0371  0.2436 -0.1849
 8073W        W12124   5.277   7.298  11.955  0.1777 -0.1256 -0.1358
 8074W        W12125   9.489   5.932  11.940  0.1558  0.0060 -0.2178
 8075W        W12126   5.130   5.610  13.428 -0.1378 -0.3774  0.0835
 8076W        W12127   9.424   7.974   9.153  0.2015 -0.2783 -0.1571
 8077W        W12128   0.344   1.078   1.605 -0.1960 -0.0319 -0.0776
 8078W        W12129   2.250   4.540   9.034 -0.0504 -0.0044 -0.3347
 8079W        W12130   7.380   6.073  13.698 -0.2047  0.3126 -0.4281
 8080W        W12131   2.640   6.555   1.337  0.0527 -0.1354 -0.0964
 8081W        W12132   3.881   0.583   9.717  0.2953 -0.0573 -0.0199
 8082W        W12133   2.574   1.850   5.271  0.1399 -0.1865 -0.2138
 8083W        W12134   7.288   9.114  10.891 -0.1472  0.0579 -0.2398
 8084W        W12135   9.929   6.885  13.687 -0.0568  0.0122  0.1901
 8085W        W12136   5.809   5.257  10.508 -0.1858 -0.0871 -0.1658
 8086W        W12137   5.045   1.461   3.402  0.2086 -0.3962 -0.5265
 8087W        W12138   4.187   1.605   1.046 -0.1414 -0.1287 -0.1719
 8088W        W12139   9.382   0.197  12.048  0.1398  0.1400  0.2055
 8089W        W12140   2.070   8.647  11.347  0.0465  0.2969 -0.1194
 8090W        W12141   8.795   3.502   1.868  0.2391  0.0069  0.1695
 8091W        W12142   4.923   4.918  12.008  0.0478 -0.0243 -0.0901
 8092W        W12143   8.812   3.241   2.318 -0.0955  0.1996 -0.4298
 8093W        W12144   7.148   8.278  13.479 -0.0052 -0.1741 -0.0045
 8094W        W12145   3.361   0.217   1.759  0.1904  0.2356 -0.0627
 8095W        W12146   3.070   0.589  12.250  0.0277  0.0817 -0.1913
 8096W        W12147   2.628   5.709   2.884  0.2556  0.1349 -0.2642
 8097W        W12148   3.007   6.475  10.288 -0.0891  0.2256 -0.0099
 8098W        W12149   8.120   6.719   1.837 -0.2578 -0.1670 -0.2758
 8099W        W12150   7.744   2.801   0.073  0.0372  0.0264  0.1553
 8100W        W12151   6.814  10.157   0.581  0.2707 -0.0062 -0.4041
 8101W        W12152   6.142   0.358  11.674  0.2512  0.0441 -0.1183
 8102W        W12153   3.183   5.246   4.191  0.0662 -0.0498  0.0649
 8103W        W12154   4.739   9.930   4.478 -0.1732  0.2090  0.0545
 8104W        W12155   0.088   0.707   1.329  0.1327  0.0696 -0.1853
 8105W        W12156   2.891   4.523  13.618  0.0698 -0.0445  0.1692
 8106W        W12157   5.228   4.353   3.489 -0.2328 -0.0591 -0.0069
 8107W        W12158   9.678   9.290   9.349  0.1472  0.0961  0.1595
 8108W        W12159   4.508   4.030  12.182  0.0980  0.0613  0.0125
 8109W        W12160   7.801   3.357  11.754  0.1030 -0.0545 -0.2920
 8110W        W12161   7.288   6.689   5.138  0.1140 -0.2068 -0.1318
 8111W        W12162   9.433   4.379   1.710 -0.2491 -0.0912  0.1243
 8112W        W12163   6.238   7.257   9.756  0.2775  0.2683 -0.2390
 8113W        W12164   8.944   0.815   0.670  0.0482  0.1848 -0.2148
 8114W        W12165   1.627   9.690   3.360 -0.0957  0.0744 -0.1520
 8115W        W12166   1.062   7.445   9.501  0.1371  0.0156  0.1138
 8116W        W12167   2.374  10.042   1.786  0.2119  0.2293 -0.1191
 8117W        W12168   6.054   2.287   2.180  0.1121  0.2554 -0.1257
 8118W        W12169   6.204   6.830   0.074 -0.2552 -0.1582 -0.1294
 8119W        W12170   7.645   2.060  13.597  0.2550  0.0095  0.0146
 8120W        W12171   4.567   2.038  13.034 -0.1411  0.0358  0.1599
 8121W        W12172   9.784   8.611   2.535  0.0394  0.1269  0.2057
 8122W        W12173   1.903   2.801   1.056  0.2560 -0.2280 -0.1253
 8123W        W12174   4.890   4.454   0.753 -0.2514  0.1260  0.2436
 8124W        W12175   1.097   7.730   3.495  0.1764 -0.2335  0.0766
 8125W        W12176   6.902   3.245   3.074  0.0824 -0.0720  0.1515
 8126W        W12177   9.667   7.320  13.187  0.0774  0.2281 -0.0099
 8127W        W12178   5.484   7.377  13.548  0.1904  0.2053  0.1363
 8128W        W12179   8.273  10.032  11.453 -0.1045  0.0330 -0.2490
 8129W        W12180   7.005   1.634   3.275  0.1945 -0.3855 -0.1454
 8130W        W12181   8.797   5.562  13.092  0.0912 -0.1201  0.4076
 8131W        W12182   2.512   5.237  13.572  0.0289  0.2586  0.1201
 8132W        W12183   2.692   3.990   0.914  0.1934  0.1763  0.0869
 8133W        W12184   1.077   1.190   2.850 -0.2209  0.1792  0.3762
 8134W        W12185   1.234   7.468  13.815  0.1495 -0.0593 -0.0034
 8135W        W12186   0.062   2.886   0.136 -0.0737  0.1110 -0.1197
 8136W        W12187   4.563   1.500  10.057 -0.2920  0.0918 -0.1487
 8137W        W12188   7.335   3.532  10.849 -0.3895  0.1917 -0.1847
 8138W        W12189   2.506   5.246   5.054 -0.0637 -0.1014  0.0538
 8139W        W12190   8.889   9.379   3.938 -0.3133  0.2046  0.0302
 8140W        W12191   4.321   6.193   2.543 -0.2129 -0.1344  0.3202
 8141W        W12192   1.987   4.607   1.498  0.1503 -0.2944 -0.3187
 8142W        W12193   0.805   3.457   2.178  0.0611 -0.2016 -0.3191
 8143W        W12194   7.022   7.468  12.408  0.1510 -0.0992 -0.2163
 8144W        W12195   3.722   2.127   0.373  0.1495  0.2176  0.3727
 8145W        W12196   5.367   1.083   9.955 -0.0846  0.1889 -0.0040
 8146W        W12197   6.714   2.455  13.594  0.0326  0.0916 -0.1054
 8147W        W12198   0.768   9.655  10.780  0.0813  0.2176  0.1181
 8148W        W12199   9.599   1.548   3.896  0.1467  0.2526  0.3296
 8149W        W12200   5.126   2.034  11.689  0.1211  0.1893 -0.1518
 8150W        W12201   5.648   0.115   2.082  0.0309 -0.0987  0.0367
 8151W        W12202   3.998   8.735  13.158 -0.1351 -0.1205  0.0134
 8152W        W12203   3.320   2.196   3.562  0.0378  0.1494 -0.1112
 8153W        W12204   5.600   8.416   0.718  0.1011 -0.2898 -0.1082
 8154W        W12205   5.208   5.620   0.034 -0.0171  0.0370  0.0033
 8155W        W12206   1.242   7.804   2.973 -0.0391 -0.1185 -0.1659
 8156W        W12207   1.069   5.387  11.203 -0.1221  0.1799 -0.1343
 8157W        W12208   1.304   9.795   1.963  0.3923 -0.2099  0.0847
 8158W        W12209   6.267   8.750   2.310 -0.0505 -0.1012 -0.1069
 8159W        W12210   8.583   4.839   0.075  0.1494 -0.2047  0.0741
 8160W        W12211   9.758   8.124  10.870  0.3762 -0.1874  0.2656
 8161W        W12212   0.081   9.327  11.510  0.0441 -0.0961 -0.0803
 8162W        W12213   1.706   5.746   0.602 -0.0221  0.3288  0.1584
 8163W        W12214   7.833   5.943  13.269  0.0122 -0.1971  0.0225
 8164W        W12215  10.148   2.578  10.690  0.2026  0.3193  0.0022
 8165W        W12216   1.114   7.521  11.736 -0.1964 -0.1535  0.2027
 8166W        W12217   0.096   8.603   1.696  0.2489  0.0127 -0.0704
 8167W        W12218   4.516   1.310   1.275 -0.0220  0.2081 -0.2682
 8168W        W12219   9.022   1.306   0.643 -0.0360  0.1716  0.2619
 8169W        W12220   6.810   5.183  10.074  0.2829 -0.2202 -0.1211
 8170W        W12221   2.087   9.182  10.669  0.2895 -0.0524 -0.2933
 8171W        W12222   4.281   9.813   4.180 -0.1111  0.2821 -0.0768
 8172W        W12223   2.400   4.714   0.334 -0.0752  0.0147  0.1196
 8173W        W12224   6.938   5.085  11.900 -0.1286 -0.1322 -0.0551
 8174W        W12225   7.718   3.528   0.798 -0.0792  0.1462 -0.2178
 8175W        W12226   2.907   7.216   4.698  0.1548  0.3529 -0.0162
 8176W        W12227   6.464   7.413   4.004 -0.1032  0.2305  0.1387
 8177W        W12228   9.671   8.050   1.612  0.3048  0.1821 -0.0276
 8178W        W12229   8.360   1.447  13.299 -0.3744  0.0067 -0.2494
 8179W        W12230   4.731   6.132   2.948  0.0968  0.0076  0.0787
 8180W        W12231   1.216   3.450   1.072  0.1310  0.1977  0.0900
 8181W        W12232   7.324   1.132  13.735 -0.3623 -0.0636 -0.4068
 8182W        W12233   2.354   0.461   4.283 -0.5870  0.0390  0.4255
 8183W        W12234   0.937   1.503  12.443  0.0512 -0.3047  0.2544
 8184W        W12235   3.876   1.718   3.035  0.1416 -0.0726 -0.3767
 8185W        W12236   0.293   8.160   1.715  0.2073  0.1249  0.0740
 8186W        W12237   1.822   8.845   9.120  0.0081  0.1190  0.1640
 8187W        W12238   8.117   4.058  11.984  0.3705  0.0271  0.0090
 8188W        W12239   0.820   6.558  11.991  0.0980  0.1307  0.3504
 8189W        W12240   5.923   8.722   9.909 -0.1539  0.1692  0.0073
 8190W        W12241   6.126   7.717   3.248 -0.0185  0.0647  0.3736
 8191W        W12242   2.206   6.783   1.297 -0.2591  0.0113 -0.1219
 8192W        W12243   6.842   7.931   0.685  0.0422 -0.1484  0.0166
 8193W        W12244   2.482   0.668   3.887 -0.1847  0.0382 -0.0337
 8194W        W12245   8.152   0.158  11.819 -0.3266  0.0152 -0.1061
 8195W        W12246   2.204   5.477   4.497  0.1725  0.2199  0.0375
 8196W        W12247   6.105   4.602   0.790 -0.1209  0.1531 -0.1286
 8197W        W12248   9.809   3.639   2.827  0.1974  0.0930 -0.0969
 8198W        W12249   4.927   1.699  13.089 -0.1730  0.0090  0.2754
 8199W        W12250   7.744   3.835   3.077 -0.2845 -0.0161 -0.1691
 8200W        W12251   2.216   4.380   4.622  0.4689 -0.0337 -0.0275
 8201W        W12252   2.830   8.581  12.427 -0.1091 -0.1503 -0.2974
 8202W        W12253   6.108   4.509   9.725  0.0994  0.1749  0.0607
 8203W        W12254   8.322   5.719  13.296  0.0864 -0.2488 -0.4462
 8204W        W12255   0.740   8.031   0.852 -0.3088  0.0321 -0.3378
 8205W        W12256   8.456   5.166  13.639 -0.1280  0.3291 -0.0047
 8206W        W12257  10.114   4.407  10.204 -0.2008 -0.0202 -0.1059
 8207W        W12258   9.071   3.225  12.815  0.2524  0.0561  0.3758
 8208W        W12259   5.946   7.329   4.021 -0.0510  0.0736 -0.1395
 8209W        W12260   7.714   4.481  11.544  0.0442  0.1220 -0.0279
 8210W        W12261   2.851   5.145  12.415 -0.1627 -0.0659  0.2959
 8211W        W12262   0.229   7.645   3.747 -0.0417 -0.3516  0.0023
 8212W        W12263   5.350   0.606  10.867  0.2779 -0.2300 -0.1391
 8213W        W12264   8.575   7.854  13.200  0.2068  0.0033 -0.3197
 8214W        W12265   7.502   8.281   4.375  0.2349  0.2000 -0.3472
 8215W        W12266   7.146   0.705  13.820 -0.0506  0.0189 -0.0704
 8216W        W12267   7.080   5.017  12.953 -0.2787  0.2282  0.2567
 8217W        W12268   2.939   6.597   2.390  0.3015  0.0990  0.0365
 8218W        W12269   9.570   3.382   2.400 -0.0713 -0.3048  0.1196
 8219W        W12270   8.555   3.122  13.790  0.1765  0.4631  0.2359
 8220W        W12271   5.995   9.271   8.859  0.0871 -0.0839 -0.0977
 8221W        W12272   0.641   8.440   3.945 -0.1855  0.0675 -0.3323
 8222W        W12273   2.611   4.526  13.191  0.1534  0.1245  0.1717
 8223W        W12274  10.065   1.188   3.021  0.1272  0.0655  0.3470
 8224W        W12275   2.246   5.738   1.410 -0.0622 -0.0953  0.1069
 8225W        W12276   2.615   7.980   1.258 -0.2741 -0.2344 -0.1346
 8226W        W12277   1.079   7.980   4.771 -0.1594  0.1574 -0.0552
 8227W        W12278   6.048   4.107  12.148  0.1701  0.2945 -0.0350
 8228W        W12279   4.126   1.578   3.894  0.1304 -0.0731 -0.0285
 8229W        W12280   4.369   5.042   4.372  0.2943 -0.0044 -0.2054
 8230W        W12281   0.911   5.963  11.905  0.1845  0.4093 -0.3075
 8231W        W12282   1.088   4.400   0.874 -0.1399 -0.3674  0.1626
 8232W        W12283   1.636   5.219  11.269 -0.1664 -0.1351 -0.1569
 8233W        W12284   9.413   6.467   9.784  0.2833 -0.0675  0.1429
 8234W        W12285   1.215   4.831   2.163 -0.0915  0.0329  0.0080
 8235W        W12286   3.235   4.198  12.240  0.0049 -0.0562  0.1946
 8236W        W12287   5.579   4.545   2.501  0.1040 -0.3761 -0.1525
 8237W        W12288   0.307   5.548  10.130 -0.1833  0.5777  0.0620
 8238W        W12289   7.283   5.912   9.720  0.0814 -0.1632  0.0853
 8239W        W12290   9.797   0.838  11.342  0.0260 -0.0345 -0.2243
 8240W        W12291   9.400   4.818  10.778  0.0606  0.3820 -0.0615
 8241W        W12292   6.821   7.074   3.584  0.4706  0.1080  0.3000
 8242W        W12293   1.395   2.314  13.877  0.1228 -0.1504 -0.0284
 8243W        W12294   5.856   3.732  12.910  0.0772  0.0277  0.3613
 8244W        W12295   6.904   7.749   9.713  0.0353 -0.2538 -0.2753
 8245W        W12296   5.121   8.864   0.307 -0.3131  0.1778 -0.4736
 8246W        W12297   9.886   4.383  10.958  0.1082 -0.2065 -0.3629
 8247W        W12298   6.702   9.884   5.089  0.2522 -0.0744 -0.1286
 8248W        W12299   7.459   1.501  11.682 -0.0296  0.0285 -0.1119
 8249W        W12300   9.631   5.522   3.557  0.2508  0.1276  0.3218
 8250W        W12301   4.478   8.223  12.070 -0.1157  0.0718 -0.0113
 8251W        W12302   4.526   2.449  11.044  0.2452  0.1003  0.1189
 8252W        W12303   4.046   0.900   1.964 -0.0753  0.1527 -0.0361
 8253W        W12304   3.341   9.319   2.356  0.1657 -0.0614  0.0878
 8254W        W12305   3.205   1.451   3.573  0.0518  0.1804  0.0125
 8255W        W12306   7.042   8.750   2.074  0.0109 -0.0822 -0.2832
 8256W        W12307   4.886   0.657  12.596  0.0865  0.0670 -0.2107
 8257W        W12308   2.874   3.544   2.544  0.1934 -0.0144 -0.3550
 8258W        W12309   2.532   8.626   2.944  0.5370 -0.0519  0.0563
 8259W        W12310   6.370   5.640   2.008 -0.2185 -0.0178 -0.0703
 8260W        W12311   1.336   1.016   1.573 -0.0806  0.2571 -0.1577
 8261W        W12312   0.543   8.454  11.510 -0.2221  0.1466 -0.2756
 8262W        W12313   2.907   6.691  13.813 -0.1619  0.0769  0.2392
 8263W        W12314   1.605   6.855  11.456 -0.0449  0.0113  0.0834
 8264W        W12315   1.487   0.301  12.218 -0.1481 -0.2142  0.0446
 8265W        W12316   9.395   3.069  11.665 -0.0179  0.3155 -0.0791
 8266W        W12317   4.680   2.227   2.318 -0.2295 -0.0458 -0.0497
 8267W        W12318   8.282   2.418   2.581  0.4696 -0.0204 -0.1918
 8268W        W12319   8.321   0.818   0.079  0.2053 -0.1209 -0.0731
 8269W        W12320   7.092   9.224  11.340  0.3809  0.0566 -0.0897
 8270W        W12321   6.153   2.505   2.640 -0.1517  0.1292  0.3009
 8271W        W12322   5.465   0.601  10.089  0.0273 -0.0266  0.3162
 8272W        W12323   1.585   6.605   2.370  0.2488  0.3921  0.2111
 8273W        W12324   8.781   8.959   4.602 -0.2618 -0.1997  0.1311
 8274W        W12325   1.740   3.307   3.097  0.1827  0.0054  0.0118
 8275W        W12326   8.290   5.982   3.735  0.0385 -0.2638 -0.0145
 8276W        W12327   5.257   1.908  12.267 -0.1708 -0.0925  0.1100
 8277W        W12328   3.332   5.324   9.298  0.1771  0.1182  0.2757
 8278W        W12329   9.468   6.099  10.232  0.1382  0.1650 -0.2354
 8279W        W12330   9.663   8.582  12.734 -0.1233 -0.1325  0.1221
 8280W        W12331   6.377   0.758   9.827  0.1689 -0.0694  0.0505
 8281W        W12332   3.247   6.155  10.605  0.1717  0.0618 -0.2160
 8282W        W12333   2.683   7.060   2.143 -0.0520  0.0016  0.0158
 8283W        W12334   4.478   7.811   4.778  0.2662  0.1930 -0.0938
 8284W        W12335   1.524   6.560   9.092  0.0167 -0.0838 -0.0153
 8285W        W12336   4.949   3.554  13.814 -0.2511 -0.1496  0.0703
 8286W        W12337   9.645   5.967   4.514  0.1071  0.0356  0.0791
 8287W        W12338   0.385   4.205   9.476  0.0118 -0.1403 -0.1487
 8288W        W12339   0.524   7.363  12.943 -0.1793  0.1548  0.1084
 8289W        W12340   0.188   5.838   3.270 -0.0921  0.0929  0.0096
 8290W        W12341   0.395   8.948  11.846  0.3405  0.0722 -0.1132
 8291W        W12342  10.010   6.389  10.285 -0.1481 -0.2689  0.0148
 8292W        W12343   5.964   4.346   2.275 -0.0604 -0.1315  0.1120
 8293W        W12344   2.468   8.441   5.499 -0.1686 -0.0900 -0.2070
 8294W        W12345   2.422   8.778   0.250  0.0284 -0.1449 -0.2147
 8295W        W12346   0.586   5.295   1.484  0.3422  0.0147  0.0462
 8296W        W12347   5.919   5.689  13.828 -0.2321  0.0244 -0.1576
 8297W        W12348   9.445   0.413   1.469 -0.2174 -0.1109  0.0380
 8298W        W12349   7.034   8.636  11.722 -0.0597 -0.0144  0.2179
 8299W        W12350   3.345   2.689   1.704  0.0849  0.0305  0.1782
 8300W        W12351   9.673   7.360   0.799 -0.1245  0.0058  0.0605
 8301W        W12352   0.926   3.997   9.491 -0.1495  0.0092 -0.0044
 8302W        W12353  10.156   6.438  11.845  0.0072 -0.1265  0.2970
 8303W        W12354   7.349   0.777  10.988 -0.0528  0.1354  0.0195
 8304W        W12355   1.867  10.101   1.683 -0.2482  0.1857  0.0921
 8305W        W12356   7.815   0.231   0.439  0.0263  0.1736  0.0254
 8306W        W12357   1.170   6.506  10.586 -0.0080  0.0708 -0.1509
 8307W        W12358   1.729   9.583   2.232  0.0689 -0.1779 -0.1609
 8308W        W12359   1.093   1.639  10.881  0.1031  0.5231  0.1712
 8309W        W12360   5.066   9.208   9.227  0.2821 -0.0919 -0.1167
 8310W        W12361   0.739   8.938   3.805 -0.1390 -0.0863 -0.1565
 8311W        W12362   1.126   1.415   3.326  0.0970 -0.0596 -0.1037
 8312W        W12363   2.128   1.739   1.989 -0.1359  0.0933  0.0257
 8313W        W12364   7.438   0.275   3.125  0.0093  0.0888  0.0216
 8314W        W12365   1.915   7.671   0.359 -0.0571  0.1239  0.0745
 8315W        W12366   6.638   5.853  11.909  0.2535 -0.0039  0.1539
 8316W        W12367   7.593   5.843  12.709 -0.1238  0.0366 -0.6907
 8317W        W12368  10.078   1.077   1.958  0.2391 -0.1219  0.0726
 8318W        W12369   7.445   1.345   3.179  0.1111 -0.2223  0.0732
 8319W        W12370   2.242   2.141  12.564 -0.0221  0.2138  0.0141
 8320W        W12371   8.316   7.707  12.780  0.0176  0.2914  0.0459
 8321W        W12372   8.983   5.030   3.868  0.1029  0.0904  0.2302
 8322W        W12373   2.874   6.043   9.795  0.3469  0.0507 -0.0925
 8323W        W12374   7.289   1.790  12.059 -0.1207 -0.3902  0.1883
 8324W        W12375   2.410   9.769   3.950  0.4213 -0.3005 -0.0331
 8325W        W12376   3.836   0.839  10.748  0.0227 -0.1346  0.1582
 8326W        W12377   1.470   2.769   2.375 -0.0501 -0.1329  0.2384
 8327W        W12378   1.571   1.119  10.736 -0.0232 -0.1756  0.1864
 8328W        W12379   7.597   1.970  11.689  0.0480 -0.1945  0.2297
 8329W        W12380   1.675   5.851   3.121  0.0039 -0.0411 -0.3276
 8330W        W12381   1.097   4.742   5.086  0.0459 -0.0050 -0.1429
 8331W        W12382   7.195   6.909   0.032 -0.2055 -0.0112  0.1344
 8332W        W12383   1.950   7.268   2.911  0.1651  0.3706  0.3457
 8333W        W12384   5.606   9.169  11.765 -0.0089  0.1282  0.0529
 8334W        W12385   7.632   0.650   0.016 -0.2478  0.2333  0.1328
 8335W        W12386   6.646   6.527  11.290  0.1974  0.1897  0.0042
 8336W        W12387   3.331   0.121  12.091 -0.2116 -0.0540  0.0542
 8337W        W12388   3.953   8.946   0.872 -0.0581  0.1698  0.2264
 8338W        W12389   2.670   7.057   1.464 -0.1406  0.0324  0.4398
 8339W        W12390   7.392   0.312   3.944 -0.4837 -0.1930 -0.1389
 8340W        W12391   4.023   9.796  12.283  0.2254 -0.0405  0.0092
 8341W        W12392   2.677   1.892   2.739 -0.2181  0.1009 -0.2803
 8342W        W12393   7.962   5.167  11.901  0.3109  0.0608 -0.1196
 8343W        W12394   9.124   7.645   0.072  0.2463 -0.1330  0.1228
 8344W        W12395   8.177   8.303  13.210 -0.2950 -0.1334 -0.0482
 8345W        W12396   4.854   0.938   9.930  0.0688 -0.1251 -0.1653
 8346W        W12397   0.435   7.996  11.164 -0.1091  0.3684 -0.1281
 8347W        W12398   5.870   0.648  13.349 -0.4495  0.4072 -0.2574
 8348W        W12399  10.030   4.098   2.777  0.0557  0.3399  0.3684
 8349W        W12400   0.881   2.426  13.811  0.3676 -0.0542  0.0991
 8350W        W12401   0.591   9.460  11.214 -0.3040 -0.0854 -0.2604
 8351W        W12402   9.660   6.209   5.321  0.1710  0.2230 -0.0786
 8352W        W12403   6.723   3.738  12.786 -0.0100 -0.3304 -0.3622
 8353W        W12404   1.266   7.401  13.163 -0.1874  0.1727 -0.2655
 8354W        W12405   1.319   5.209   1.190 -0.0996 -0.0306 -0.2034
 8355W        W12406   8.743   2.505  11.527 -0.0696  0.0494  0.1693
 8356W        W12407   3.643   6.080   3.694  0.2394  0.1476  0.1763
 8357W        W12408   0.716   7.089   4.816  0.1183 -0.3879 -0.1682
 8358W        W12409   3.353   8.203  10.447  0.0266  0.1468  0.2546
 8359W        W12410   2.666   5.601   0.609 -0.1374 -0.2250 -0.1165
 8360W        W12411   7.901   9.541   3.142 -0.0153  0.0672 -0.0020
 8361W        W12412   4.223   9.937  11.745 -0.2962 -0.1772 -0.0715
 8362W        W12413   9.450   1.437   2.918 -0.0137  0.0442  0.1187
 8363W        W12414   5.321   2.448  13.468  0.2835  0.1192 -0.0039
 8364W        W12415   9.882   7.146   9.403 -0.0083  0.1713  0.0543
 8365W        W12416   8.689   4.989  10.472 -0.0362 -0.0305  0.0210
 8366W        W12417   8.614   3.121   3.371  0.0273 -0.0417  0.1838
 8367W        W12418   0.656   4.245   0.680 -0.0278 -0.2271 -0.2381
 8368W        W12419   1.316   7.243  11.328  0.0098  0.0798  0.0385
 8369W        W12420   6.762   2.423   2.402 -0.0881  0.0023 -0.1865
 8370W        W12421   6.200   7.977  12.857  0.0545 -0.1216  0.2233
 8371W        W12422   8.267   7.497  13.692 -0.1056 -0.2635 -0.1604
 8372W        W12423   2.373   8.026   4.681  0.1111  0.0345  0.3136
 8373W        W12424   7.787   6.697   2.358 -0.2315  0.1843  0.0726
 8374W        W12425   8.975   6.779   9.774  0.2175  0.0142 -0.0734
 8375W        W12426   0.203   3.789  11.591  0.2510  0.1151 -0.0206
 8376W        W12427   8.635   8.093   2.409 -0.0800 -0.1247  0.0286
 8377W        W12428   4.510   2.997  13.048 -0.0880 -0.0785 -0.2567
 8378W        W12429   0.969   4.194  11.084 -0.0233 -0.1641 -0.2274
 8379W        W12430   8.446   9.745   4.046 -0.1066  0.0600  0.2048
 8380W        W12431   2.172   0.338  12.816 -0.2003 -0.0798  0.1616
 8381W        W12432   1.039  10.035   3.265  0.0152  0.0389 -0.0925
 8382W        W12433   7.334   6.035  10.819  0.0524  0.2345  0.1282
 8383W        W12434   2.206   8.103   2.389 -0.1442 -0.1425  0.2166
 8384W        W12435   6.598   5.187  10.998  0.1527 -0.0219  0.0348
 8385W        W12436   9.086   1.643   3.144  0.1946 -0.0616 -0.0098
 8386W        W12437   0.666   5.413   0.547  0.1690  0.0240 -0.0098
 8387W        W12438   4.518   7.040   2.430 -0.0498  0.0501  0.1097
 8388W        W12439   5.674   2.650   1.384  0.1165 -0.2069  0.0647
 8389W        W12440   4.995   6.289  12.402  0.1318  0.1297  0.2795
 8390W        W12441   7.986   5.144   4.166  0.0712 -0.0945 -0.1672
 8391W        W12442   1.045   4.347   2.263 -0.0970  0.0411 -0.2141
 8392W        W12443   8.295   0.891   3.948  0.0774 -0.2978 -0.0361
 8393W        W12444   2.702   0.904  12.937  0.1565  0.0205 -0.1731
 8394W        W12445   6.793   9.523  13.330  0.0230 -0.2483 -0.0740
 8395W        W12446   7.306   8.731   0.991  0.1809 -0.0239 -0.2283
 8396W        W12447   9.948   8.811   1.370 -0.1422 -0.1151 -0.1035
 8397W        W12448   6.452   2.115  13.311 -0.2157 -0.2471 -0.2273
 8398W        W12449   2.467   4.119  12.790  0.1291  0.0243 -0.0589
 8399W        W12450   8.895   8.439  10.279  0.5652  0.1227 -0.0499
 8400W        W12451   7.453   3.663  12.641  0.4382 -0.1891  0.1842
 8401W        W12452  10.080  10.148   2.661  0.2536  0.3092  0.0176
 8402W        W12453   0.915   8.100  11.048  0.0146 -0.1426  0.3203
 8403W        W12454   4.520   3.000   1.905 -0.0266 -0.3276  0.0441
 8404W        W12455   1.168   9.188   4.503 -0.0592 -0.1397  0.1085
 8405W        W12456   9.994   8.821   2.122  0.1840  0.1601 -0.1942
 8406W        W12457   2.345   1.707   9.976 -0.1991  0.1973 -0.0161
 8407W        W12458   9.135  10.129  10.612 -0.1851 -0.3783  0.2314
 8408W        W12459   5.316   9.316   0.406 -0.1883 -0.0798  0.3312
 8409W        W12460   7.092   7.715   8.939 -0.4863 -0.1706 -0.1142
 8410W        W12461   7.802   8.032   4.023  0.2109  0.2114 -0.2928
 8411W        W12462   2.016   0.336  11.246  0.1999  0.5914 -0.2466
 8412W        W12463   8.374   3.217  10.369 -0.0035  0.3381 -0.3025
 8413W        W12464   8.103   8.996   3.184  0.0559 -0.0106  0.2380
 8414W        W12465  10.096   8.419   9.501 -0.0391 -0.1203 -0.0478
 8415W        W12466   7.105   9.066   1.345 -0.1504 -0.1142  0.0989
 8416W        W12467   9.617   2.066  12.554  0.1006  0.2830  0.1657
 8417W        W12468   8.477   5.879  10.370 -0.1166 -0.2831 -0.0164
 8418W        W12469   7.998   8.316   4.383  0.0759 -0.0168 -0.3716
 8419W        W12470   6.018   1.692  11.518 -0.4956  0.0138 -0.1792
 8420W        W12471   3.433   5.657   3.369  0.1590 -0.0647  0.1549
 8421W        W12472   3.344   2.174   4.259  0.1409  0.0059  0.3800
 8422W        W12473   8.214   4.256  11.468  0.2975 -0.1542 -0.1066
 8423W        W12474   6.314   7.364   0.849 -0.1372  0.0146 -0.1006
 8424W        W12475   3.549   7.819   5.163 -0.2246  0.3004 -0.1770
 8425W        W12476   8.118   9.359   1.027  0.0773  0.0255 -0.0162
 8426W        W12477   9.947   6.179  13.142  0.0015 -0.3657 -0.0328
 8427W        W12478   4.510   4.614   1.253  0.1044  0.0169  0.1083
 8428W        W12479   6.312   9.191   0.732  0.0130 -0.0010  0.1250
 8429W        W12480   8.371   4.601  10.635 -0.0368 -0.1810  0.1352
 8430W        W12481   1.406   4.735  13.224 -0.1671  0.0512  0.0100
 8431W        W12482   2.497   3.347   9.364 -0.1006  0.0899  0.2607
 8432W        W12483   8.990   9.418   2.821 -0.2338  0.2517 -0.0758
 8433W        W12484   8.631   6.982  11.074 -0.1374  0.2529 -0.1573
 8434W        W12485   0.966   8.941   1.560  0.3236 -0.2545  0.0523
 8435W        W12486   6.527   1.369  13.280 -0.0573  0.0996 -0.1014
 8436W        W12487   2.397   3.441   0.990  0.2644  0.3769  0.0556
 8437W        W12488   1.038   2.923  10.439 -0.2209  0.2272 -0.1499
 8438W        W12489   5.983   2.427  12.058  0.2181 -0.0609  0.0014
 8439W        W12490   9.002   4.800  11.734 -0.0106 -0.1294 -0.1699
 8440W        W12491   9.873   5.524  13.223  0.1601 -0.0267  0.1151
 8441W        W12492   6.048  10.173   3.320  0.1984  0.0940 -0.0971
 8442W        W12493   9.969   8.007   9.690 -0.0769 -0.2540  0.1511
 8443W        W12494   4.400   6.380   1.027 -0.2217 -0.1313 -0.1516
 8444W        W12495   8.903   5.132  10.906  0.0931  0.2062 -0.4370
 8445W        W12496   9.398   2.531   0.398 -0.1561  0.0415 -0.1488
 8446W        W12497   3.906   1.716  11.172 -0.1414 -0.1552 -0.2621
 8447W        W12498   8.119   3.001   3.469 -0.3738 -0.1557  0.1617
 8448ION    NA+12499   1.606   1.617   3.374 -0.3204  0.1528  0.2225
 8449ION    NA+12500   3.467   5.835  13.810  0.0354 -0.0290 -0.1205
 8450ION    NA+12501   5.527   8.645   1.173  0.0284  0.1010  0.0276
 8451ION    NA+12502   6.267   5.419   3.334  0.0913  0.3202  0.1649
 8452ION    NA+12503   8.010   1.412  12.457  0.0470 -0.0265  0.3650
 8453ION    NA+12504   2.403   4.699   2.466 -0.4158  0.0747 -0.0537
 8454ION    NA+12505   9.118   2.787   1.741  0.0299  0.2872  0.0735
 8455ION    NA+12506   0.332   7.381   5.197 -0.0755  0.1192 -0.0468
 8456ION    NA+12507   5.658   3.195  11.718 -0.4823 -0.5373  0.1866
 8457ION    NA+12508   3.272   2.650   8.572 -0.1342 -0.0906 -0.1198
 8458ION    NA+12509   5.661   5.878   1.499  0.0037 -0.0219  0.1746
 8459ION    NA+12510   2.855   8.951   0.073  0.0002 -0.1591  0.2105
 8460ION    NA+12511   6.413   6.816   9.578 -0.3457 -0.0145 -0.0010
 8461ION    NA+12512   7.308   3.243  10.384  0.0217  0.2597 -0.0071
 8462ION    NA+12513   6.301   5.499  10.681  0.1325  0.0958  0.0270
 8463ION    NA+12514   4.961   8.307  13.887 -0.1952 -0.0455 -0.0108
 8464ION    NA+12515   4.430   4.946  10.288 -0.2867  0.1830  0.2320
 8465ION    NA+12516   9.774   6.210   0.256  0.0729  0.0439 -0.0417
 8466ION    NA+12517   7.551   8.255   5.907 -0.1287  0.2687  0.1250
 8467ION    NA+12518   8.432   8.561   5.039  0.0788 -0.1644 -0.3062
 8468ION    NA+12519   0.369   3.513  11.198  0.1116 -0.0020  0.3666
 8469ION    NA+12520   1.508   5.087   8.658  0.1907 -0.2614 -0.0290
 8470ION    NA+12521   8.318   6.998  11.529 -0.2743 -0.1999  0.1507
 8471ION    NA+12522   0.071   7.845   2.271 -0.3343 -0.1640 -0.1803
 8472ION    NA+12523   9.558   7.069   2.518  0.1260  0.1545  0.0256
 8473ION    NA+12524   2.713   4.863  10.569  0.0752  0.1002 -0.0653
 8474ION    NA+12525   3.198   6.802   0.922  0.2566 -0.0893 -0.4113
 8475ION    NA+12526   6.775   9.013  10.967  0.2525  0.3625  0.4166
 8476ION    NA+12527   0.307   9.362   5.108  0.0333 -0.1388 -0.0349
 8477ION    NA+12528   0.487   0.687  11.858  0.0564 -0.2191 -0.0310
 8478ION    NA+12529   8.793   8.269  13.549  0.2279 -0.2586 -0.2078
 8479ION    NA+12530   3.193   2.499   9.541 -0.0329  0.0543 -0.0927
 8480ION    NA+12531   1.707  10.058   0.192  0.0757 -0.1702  0.0066
 8481ION    NA+12532   2.244   0.548  10.466 -0.3037 -0.2613  0.0713
 8482ION    NA+12533   3.547   9.749   2.011 -0.1318 -0.1154  0.1459
 8483ION    NA+12534   5.452   0.256   0.423 -0.1797 -0.0355 -0.1040
 8484ION    NA+12535   5.106   0.993  12.345 -0.2586  0.1520  0.3520
 8485ION    NA+12536   2.498  10.035   4.968 -0.0297  0.0972 -0.1196
 8486ION    NA+12537   9.907   9.353   3.965  0.1560 -0.4389 -0.1392
 8487ION    NA+12538   1.339   9.073   9.010 -0.0418 -0.2187  0.4085
 8488ION    NA+12539  10.084   5.966   1.770 -0.0710 -0.0133 -0.0881
 8489ION    NA+12540   0.081   9.884  13.195  0.0694 -0.0434 -0.2576
 8490ION    NA+12541   5.514   7.560   0.067  0.0231  0.0472 -0.1581
 8491ION    NA+12542   9.957   8.879  13.416 -0.0827  0.2240 -0.1488
 8492ION    NA+12543   4.576  10.120   9.154  0.2157  0.1830 -0.1685
 8493ION    NA+12544   2.015  10.101   2.985 -0.0051  0.2230 -0.1473
 8494ION    NA+12545   9.627   3.787  10.397 -0.1052 -0.1155  0.2157
 8495ION    NA+12546   6.312   8.133   1.799  0.1619  0.0071 -0.0212
 8496ION    NA+12547   2.517   3.731  10.571 -0.2983  0.1748 -0.4069
 8497ION    NA+12548   3.068   6.027   0.701 -0.1855 -0.0482  0.0760
 8498ION    NA+12549   2.375   5.138   5.541 -0.0176  0.5177 -0.1638
 8499ION    NA+12550   3.040   9.169   1.536  0.1822 -0.1333 -0.0935
 8500ION    NA+12551   9.515   4.120   1.217  0.1261 -0.0346 -0.0370
 8501ION    NA+12552   5.541   4.958   2.264 -0.1903 -0.2306 -0.0396
 8502ION    NA+12553   1.766   6.758   5.238  0.0066 -0.1900  0.1361
 8503ION    NA+12554   4.596   6.543  13.626 -0.2343  0.0331  0.1598
 8504ION    NA+12555   8.953   1.813  13.075 -0.3886  0.3412  0.2432
 8505ION    NA+12556   4.923   9.886   2.698 -0.0167  0.2587  0.1611
 8506ION    NA+12557   3.907   0.824   2.705  0.3054 -0.4351 -0.0099
 8507ION    NA+12558   2.493   8.911  12.625 -0.2395 -0.0274 -0.2995
 8508ION    NA+12559   4.617   7.521   0.498  0.1390  0.0827 -0.2747
 8509ION    NA+12560   4.317   8.370  12.971 -0.0436 -0.0102 -0.0502
 8510ION    NA+12561   0.851   7.663   5.182 -0.1538 -0.0483  0.0829
 8511ION    NA+12562   3.405   0.800   9.982 -0.1744 -0.0213  0.2988
 8512ION    NA+12563  10.085   3.651   0.497 -0.1309  0.0596  0.3622
 8513ION    NA+12564   7.335   1.078  12.649 -0.0256 -0.1702  0.0138
 8514ION    NA+12565   4.868   2.756   2.213 -0.1188  0.2538 -0.1809
 8515ION    NA+12566   1.742   6.242  12.517 -0.1540  0.1176 -0.0073
 8516ION    NA+12567   0.904   5.066  11.549 -0.1011  0.2115  0.3061
 8517ION    NA+12568   7.776   6.382   5.372 -0.1451  0.0562 -0.0219
 8518ION    NA+12569   0.207   6.407  12.810  0.0296  0.1647  0.0521
 8519ION    NA+12570   5.889   3.896   9.742 -0.0449  0.0583  0.1908
 8520ION    NA+12571   1.088   9.806   5.069 -0.0930  0.1730 -0.1783
 8521ION    NA+12572   0.045   5.324  11.341  0.2094 -0.0049  0.1084
 8522ION    NA+12573   4.293   9.546  12.745  0.0472 -0.4961  0.3294
 8523ION    NA+12574   1.576   8.881  13.669 -0.2922  0.0032 -0.1141
 8524ION    NA+12575   2.475   6.486  10.917  0.0788  0.3335 -0.0680
 8525ION    NA+12576   7.423   5.757   4.765 -0.0396 -0.2246  0.1373
 8526ION    NA+12577   0.460   9.913   3.890 -0.1532  0.2101  0.1263
 8527ION    NA+12578   6.499   2.811   0.810 -0.0536  0.4323  0.0415
 8528ION    NA+12579   0.975   1.508   9.392  0.0637 -0.0452  0.0526
 8529ION    NA+12580   9.544   8.196   2.135  0.0883 -0.0147 -0.2313
 8530ION    NA+12581  10.066   9.727  10.204 -0.5239  0.0243  0.3741
 8531ION    NA+12582   5.690   5.468   0.628 -0.2844  0.4242 -0.3195
 8532ION    NA+12583   2.900   6.960   3.841  0.1910  0.2313  0.0522
 8533ION    NA+12584   9.243   4.800  11.249  0.1070 -0.1680 -0.0443
 8534ION    NA+12585   9.995   5.007  13.506 -0.0424  0.1475 -0.0580
 8535ION    NA+12586   5.798   7.418   3.523 -0.0095  0.2705 -0.6618
 8536ION    NA+12587   1.716   6.798  13.404  0.0748  0.0109  0.0275
 8537ION    CL-12588   7.891   7.615   9.969  0.2417  0.3145 -0.1393
 8538ION    CL-12589   9.145   0.481  10.642  0.6606  0.0281  0.1446
 8539ION    CL-12590   5.506   5.746   1.010 -0.2610 -0.1852  0.1205
 8540ION    CL-12591   2.894   9.089  13.591  0.1167  0.2038  0.1133
 8541ION    CL-12592   6.336   8.392   1.389  0.2225 -0.1582 -0.0347
 8542ION    CL-12593   5.079   8.673   0.868  0.1388 -0.0423  0.0731
 8543ION    CL-12594   9.587   9.400  13.052 -0.1423 -0.1750  0.2096
 8544ION    CL-12595   6.571   5.666  10.253 -0.1181  0.4026  0.1101
 8545ION    CL-12596   6.425   9.580  12.991  0.3913 -0.3474  0.0591
 8546ION    CL-12597   8.581   1.820  12.696  0.0975 -0.2581  0.1339
 8547ION    CL-12598   9.642   8.953   4.228  0.1729  0.0009 -0.0654
 8548ION    CL-12599   4.006   9.804   2.310  0.1121 -0.2211  0.0232
 8549ION    CL-12600   6.174   2.304   0.680 -0.0963  0.2777  0.0639
 8550ION    CL-12601   7.362   4.759   2.947 -0.1136  0.1042 -0.1653
 8551ION    CL-12602   8.777   0.780   9.861  0.0455 -0.1158 -0.0395
 8552ION    CL-12603   6.482   5.619   3.748 -0.1271 -0.0015  0.0196
 8553ION    CL-12604   4.503   4.660   9.916 -0.2768  0.0002 -0.0931
 8554ION    CL-12605   5.328   7.986  13.986 -0.0193  0.0900  0.3069
 8555ION    CL-12606   5.951   3.558  11.432  0.0118  0.0650 -0.2783
 8556ION    CL-12607   1.000   3.576   3.476  0.3440  0.0666 -0.0491
 8557ION    CL-12608  10.101   7.380   2.020 -0.0423 -0.3565 -0.1524
 8558ION    CL-12609   5.413   3.410  12.115 -0.0557  0.1506  0.0330
 8559ION    CL-12610   1.491   0.793   3.788 -0.3017  0.2284  0.3536
 8560ION    CL-12611   2.410   4.960  10.199 -0.1025  0.3784  0.0361
 8561ION    CL-12612   0.205   9.507   4.103 -0.1285 -0.1754  0.1956
 8562ION    CL-12613   0.819   0.477  11.523  0.2260  0.0498  0.0026
 8563ION    CL-12614   6.040   6.003   9.962 -0.0589 -0.1593 -0.1574
 8564ION    CL-12615   9.958   7.598   4.178  0.1105 -0.0816 -0.2693
 8565ION    CL-12616   1.861   9.289  13.933  0.2823  0.1752  0.1935
 8566ION    CL-12617   4.277   7.685   0.164  0.0931  0.0156 -0.4168
 8567ION    CL-12618   8.685   1.318   2.901  0.5528  0.3872 -0.2208
 8568ION    CL-12619  10.069   2.447  11.929 -0.0759  0.0263 -0.2488
 8569ION    CL-12620   6.024   5.538   1.605 -0.3918  0.1008  0.1450
 8570ION    CL-12621   6.126   6.944   0.540 -0.2304  0.0419  0.6441
 8571ION    CL-12622   7.915  10.176  10.898 -0.0772  0.2681  0.0930
 8572ION    CL-12623   4.245   3.122   9.746 -0.0620  0.1006 -0.0061
 8573ION    CL-12624   2.296   3.832   4.342 -0.1535  0.4860 -0.1207
 8574ION    CL-12625   2.000   6.098  12.932  0.0220  0.0234 -0.1319
 8575ION    CL-12626   3.086   9.521   1.903 -0.0267 -0.1250  0.0922
 8576ION    CL-12627   9.660   8.544   1.698 -0.4305  0.3113 -0.1681
 8577ION    CL-12628   1.403   4.693   4.166 -0.0415 -0.2689 -0.1508
 8578ION    CL-12629   5.680   0.588  12.602  0.4339  0.0650  0.2652
 8579ION    CL-12630   2.704   2.262   9.614 -0.3099  0.0029  0.1558
 8580ION    CL-12631   3.450   0.973   2.724  0.1092 -0.3841  0.3474
 8581ION    CL-12632   3.170   6.253   1.103  0.2563  0.0934  0.1495
 8582ION    CL-12633   5.428   7.323   4.002 -0.0399  0.2258  0.3719
 8583ION    CL-12634   4.483   6.065  13.555  0.0864 -0.1170 -0.0988
 8584ION    CL-12635   8.354   6.852   4.715  0.1973  0.0422  0.0132
 8585ION    CL-12636   3.218   6.869   4.221 -0.0697 -0.1011 -0.0116
 8586ION    CL-12637   3.167   4.838  10.380  0.1758 -0.3141  0.1186
 8587ION    CL-12638   0.615   8.022   2.224  0.0017  0.1808  0.0985
 8588ION    CL-12639   9.859   4.040   4.161  0.2760  0.1044 -0.4719
 8589ION    CL-12640   8.088   7.037  11.050 -0.1243 -0.2142 -0.1851
 8590ION    CL-12641   9.258   3.226   1.968 -0.1865  0.0458 -0.0434
 8591ION    CL-12642   1.909   0.330  10.779 -0.0739  0.0965 -0.0470
 8592ION    CL-12643   3.917   2.875  12.965 -0.0864 -0.1933 -0.1501
 8593ION    CL-12644   0.031   6.167   0.530 -0.2369 -0.0743 -0.0337
 8594ION    CL-12645   3.770   9.659  12.700 -0.4123  0.0421 -0.0814
 8595ION    CL-12646   5.001   2.579  11.051 -0.0179  0.2568 -0.0378
 8596ION    CL-12647   1.767   7.731  13.826  0.0288 -0.2077  0.0800
 8597ION    CL-12648   8.503   4.401   2.871  0.3681  0.2078 -0.1842
 8598ION    CL-12649   4.792   3.745  10.853 -0.2172 -0.2384  0.2413
 8599ION    CL-12650   6.119   4.921   3.241 -0.0930  0.0211  0.0404
 8600ION    CL-12651   1.540   5.558   4.716  0.1802  0.1785 -0.0171
 8601ION    CL-12652  10.025   0.276  12.982  0.0647 -0.0138  0.2340
 8602ION    CL-12653   0.513   3.005  11.340  0.0484 -0.0107  0.0676
 8603ION    CL-12654   9.495   4.914  11.729 -0.1445 -0.0519  0.1301
 8604ION    CL-12655   0.228   7.144   9.510 -0.2994 -0.1547  0.0560
 8605ION    CL-12656   2.277   8.976   9.893  0.2396  0.2655 -0.1906
 8606ION    CL-12657   5.139   5.242   2.328  0.1547 -0.4601 -0.2283
 8607ION    CL-12658   7.217   4.688  13.387  0.0008  0.0984  0.1076
 8608ION    CL-12659   1.987   6.332   3.883 -0.2451 -0.0440  0.2029
 8609ION    CL-12660   4.975   1.288  10.287 -0.2223 -0.2349  0.0094
 8610ION    CL-12661   0.582   4.436   2.538 -0.0081  0.4081  0.1907
 8611ION    CL-12662   7.574   1.300  12.228  0.1963  0.1645  0.2206
 8612ION    CL-12663   5.285   3.060   2.263 -0.2107 -0.2111  0.2363
 8613ION    CL-12664   3.457   6.011   0.359 -0.0061 -0.4161  0.0911
 8614ION    CL-12665   9.754   4.166   3.631  0.2284 -0.0690 -0.2738
 8615ION    CL-12666   4.388   0.866  10.896  0.0426  0.3182  0.0529
 8616ION    CL-12667   9.121   1.368  10.475  0.0825 -0.1945 -0.0196
 8617ION    CL-12668   4.719   7.014  13.726 -0.1621 -0.2240 -0.5333
 8618ION    CL-12669   9.653   4.723  13.667  0.1238  0.3431  0.0931
 8619ION    CL-12670   6.695   1.288   0.538  0.0333 -0.0330  0.2088
 8620ION    CL-12671   1.268   7.388   1.030  0.2329 -0.0707  0.0537
 8621ION    CL-12672   3.686   2.285   9.467 -0.1511 -0.0235 -0.2872
 8622ION    CL-12673   5.228   4.407  10.449 -0.0730 -0.1660  0.1712
 8623ION    CL-12674   3.032   0.396   3.739 -0.3543  0.1227 -0.3777
 8624ION    CL-12675   6.167   5.841   2.458  0.1031  0.2375  0.2827
 8625ION    CL-12676   5.006  10.088  10.023 -0.2069 -0.0847 -0.0537
  10.18868  10.18868  13.98781
