Protein in INSANE! Membrane UpperLeaflet>POPC=1.0 LowerLeaflet>POPC=1.0
10365
    1AU     AUC    1   1.646   3.210   5.750 -0.0277  0.0410  0.0333
    1AU     AUC    2   1.923   3.208   5.590  0.0722  0.0359 -0.0431
    1AU     AUC    3   1.684   3.471   5.610 -0.0653 -0.0825  0.0528
    1AU     AUC    4   1.595   2.936   5.904  0.0076  0.0436  0.0531
    1AU     AUC    5   1.327   3.178   5.832 -0.1396 -0.0830 -0.0945
    1AU     AUC    6   1.483   3.002   5.637 -0.0421 -0.0455  0.0674
    1AU     AUC    7   1.729   3.193   5.420 -0.0114  0.0017  0.0740
    1AU     AUC    8   1.559   3.220   6.070 -0.0171  0.0160  0.0631
    1AU     AUC    9   1.820   3.398   5.893  0.1249 -0.0400 -0.0170
    1AU     AUC   10   1.466   3.477   5.869  0.0582 -0.0104 -0.0132
    1AU     AUC   11   1.416   3.346   5.615  0.0092 -0.0333 -0.0467
    1AU     AUC   12   1.849   3.065   5.914  0.0759 -0.0054 -0.0911
    1AU     AUC   13   1.830   2.914   5.629  0.0496  0.0683 -0.0684
    1AU     AUC   14   2.226   3.307   5.423  0.0623 -0.0939  0.0252
    1AU     AUC   15   2.023   3.570   5.385  0.0761 -0.0386 -0.0730
    1AU     AUC   16   1.722   3.806   5.432 -0.0348 -0.0428 -0.1152
    1AU     AUC   17   1.527   2.662   6.093 -0.1268  0.1277  0.0960
    1AU     AUC   18   1.214   2.835   5.972  0.0297  0.0266 -0.1006
    1AU     AUC   19   1.007   3.063   5.880 -0.0133 -0.0396 -0.0162
    1AU     AUC   20   1.333   2.740   5.421  0.0361  0.0129 -0.0208
    1AU     AUC   21   1.578   2.908   5.246  0.0839  0.0035 -0.0672
    1AU     AUC   22   1.802   3.187   5.077 -0.0145 -0.0430  0.0236
    1AU     AUC   23   1.500   3.230   6.404 -0.1017  0.0568  0.0106
    1AU     AUC   24   1.777   3.432   6.276 -0.0542  0.0037  0.0327
    1AU     AUC   25   2.009   3.602   6.046  0.0235 -0.0829 -0.0620
    1AU     AUC   26   1.322   3.761   6.012  0.0324 -0.1032 -0.0120
    1AU     AUC   27   1.186   3.630   5.698  0.0562 -0.0511  0.0552
    1AU     AUC   28   1.153   3.474   5.377  0.0210 -0.0904  0.0095
    1AU     AUC   29   2.115   2.943   6.094  0.0304 -0.0496 -0.0117
    1AU     AUC   30   2.074   2.748   5.810  0.0726  0.0337  0.0079
    1AU     AUC   31   1.960   2.636   5.507  0.0951 -0.0567 -0.0393
    1AU     AUC   32   1.523   3.832   5.772  0.0588  0.0844 -0.0380
    1AU     AUC   33   1.444   3.699   5.392  0.0801  0.0682  0.0024
    1AU     AUC   34   2.216   3.106   5.734  0.0747 -0.0485  0.0291
    1AU     AUC   35   2.140   2.938   5.443 -0.0868 -0.0317 -0.0963
    1AU     AUC   36   1.109   3.432   5.985  0.0228  0.1202 -0.0644
    1AU     AUC   37   1.074   3.280   5.632  0.0231  0.0004  0.0408
    1AU     AUC   38   1.802   2.797   6.168  0.0395  0.0121 -0.0402
    1AU     AUC   39   1.764   2.594   5.843  0.0591 -0.0120  0.0039
    1AU     AUC   40   2.054   3.239   5.204 -0.0363  0.0355  0.0531
    1AU     AUC   41   1.726   3.520   5.251 -0.0785  0.0653  0.0166
    1AU     AUC   42   1.431   2.687   5.747 -0.0659 -0.0217  0.0745
    1AU     AUC   43   1.131   2.898   5.627  0.0305 -0.0180 -0.0775
    1AU     AUC   44   2.117   3.461   5.746 -0.0490 -0.0316 -0.0397
    1AU     AUC   45   1.872   3.752   5.787 -0.0141 -0.0608  0.0293
    1AU     AUC   46   1.459   2.946   6.244  0.1139 -0.0820 -0.0384
    1AU     AUC   47   1.217   3.186   6.141  0.0283  0.0707 -0.0538
    1AU     AUC   48   1.251   3.094   5.379 -0.0478 -0.0248  0.0302
    1AU     AUC   49   1.473   3.353   5.244 -0.0181  0.0522 -0.0609
    1AU     AUC   50   1.407   3.485   6.217  0.0518  0.1033 -0.1529
    1AU     AUC   51   1.658   3.722   6.104 -0.0372 -0.0395 -0.0222
    1AU     AUC   52   1.679   2.634   5.501 -0.0214 -0.0398  0.0062
    1AU     AUC   53   1.910   2.870   5.241 -0.0630 -0.0264 -0.0597
    1AU     AUC   54   1.806   3.102   6.316  0.0334 -0.0443 -0.0289
    1AU     AUC   55   2.060   3.264   6.050  0.1706 -0.0102 -0.0405
    1AU    AUSL   56   1.472   4.129   5.506 -0.0485  0.0465  0.0781
    1AU    AUSL   57   1.545   4.121   5.968  0.0385 -0.0467 -0.0357
    1AU     AUL   58   1.600   4.377   5.703  0.0535 -0.0301 -0.0476
    1AU       S   59   1.917   4.459   6.066  0.3220 -0.0436  0.1584
    1AU     LIG   60   1.598   4.719   6.106 -0.2769 -0.1660 -0.3038
    1AU     LIG   61   1.520   5.076   5.949 -0.1897  0.0438 -0.0270
    1AU     LIG   62   1.327   5.439   5.875  0.1616  0.0469  0.1898
    1AU       S   63   1.164   4.387   5.834 -0.0525  0.1281  0.1937
    1AU     LIG   64   1.137   4.789   5.995  0.4003 -0.0897  0.0694
    1AU     LIG   65   0.970   5.189   6.149 -0.1374  0.2230 -0.0934
    1AU     LIG   66   0.939   5.620   6.409  0.3244 -0.1025  0.3303
    1AU    AUSL   67   1.176   3.941   5.816 -0.1131  0.0424  0.0034
    1AU    AUSL   68   0.834   3.678   5.513  0.1006  0.0385  0.0804
    1AU     AUL   69   0.869   4.043   5.557  0.0331  0.0242  0.0033
    1AU       S   70   1.080   4.152   5.997  0.4506 -0.0964 -0.0741
    1AU     LIG   71   1.268   4.432   6.493 -0.0755 -0.1080  0.0901
    1AU     LIG   72   1.299   4.849   6.505 -0.1992  0.2031  0.3552
    1AU     LIG   73   1.260   5.037   6.875 -0.0792 -0.0447  0.1745
    1AU       S   74   0.415   3.906   5.615 -0.2667  0.1438 -0.0783
    1AU     LIG   75   0.136   4.198   5.809  0.0310  0.2915 -0.2726
    1AU     LIG   76   0.149   4.635   5.826 -0.1698 -0.0399 -0.3818
    1AU     LIG   77   0.552   4.999   5.880  0.0615 -0.1927  0.3229
    1AU    AUSL   78   1.242   3.753   5.435  0.0075  0.0152 -0.0077
    1AU    AUSL   79   1.536   3.929   5.124  0.0550 -0.0576 -0.0059
    1AU     AUL   80   1.211   4.115   5.256  0.0166  0.0079 -0.0153
    1AU       S   81   1.081   4.413   5.619  0.2120 -0.3513  0.2976
    1AU     LIG   82   0.898   4.749   5.501 -0.2661  0.3439  0.3135
    1AU     LIG   83   0.952   5.127   5.571 -0.0543 -0.1007  0.1562
    1AU     LIG   84   0.815   5.540   5.808  0.3087  0.5411 -0.0243
    1AU       S   85   1.418   4.036   4.857 -0.3858  0.4023 -0.1930
    1AU     LIG   86   1.535   4.355   4.810  0.1186 -0.4167  0.2806
    1AU     LIG   87   1.410   4.774   4.753  0.0197 -0.0173 -0.0807
    1AU     LIG   88   1.332   5.203   4.925 -0.1194  0.0577  0.0706
    1AU    AUSL   89   2.351   2.992   5.505  0.0532 -0.0473  0.0009
    1AU    AUSL   90   2.174   2.759   5.168 -0.0352  0.0619  0.0615
    1AU     AUL   91   2.465   2.679   5.160  0.0217 -0.0269 -0.0550
    1AU       S   92   2.753   2.547   5.493 -0.2380 -0.0259  0.1061
    1AU     LIG   93   3.116   2.255   5.630  0.3839  0.0710  0.0731
    1AU     LIG   94   3.380   2.161   5.960 -0.0804 -0.2403 -0.2540
    1AU     LIG   95   3.610   1.983   6.272  0.0391  0.2025  0.0977
    1AU       S   96   2.442   2.775   4.728 -0.1702  0.2198  0.1756
    1AU     LIG   97   2.839   2.482   4.835 -0.0017 -0.4270 -0.4231
    1AU     LIG   98   3.147   2.363   5.145  0.0405  0.0368 -0.0118
    1AU     LIG   99   3.255   2.664   5.361 -0.3196  0.0054  0.2136
    1AU    AUSL  100   2.454   2.772   5.843 -0.1306  0.0092  0.0880
    1AU    AUSL  101   2.554   3.379   5.481  0.0054  0.0035  0.0251
    1AU     AUL  102   2.657   3.016   5.415  0.0343 -0.1363  0.0118
    1AU       S  103   2.897   3.519   5.703  0.0125 -0.0885  0.3459
    1AU     LIG  104   3.313   3.538   5.808 -0.2382 -0.0051 -0.1953
    1AU     LIG  105   3.687   3.469   5.962  0.0853  0.3439  0.0215
    1AU     LIG  106   4.094   3.583   6.169 -0.1588 -0.1902 -0.2521
    1AU       S  107   2.801   2.635   5.621  0.3377  0.1065 -0.1596
    1AU     LIG  108   3.203   2.683   5.837  0.2251 -0.0675  0.0288
    1AU     LIG  109   3.577   2.551   5.797  0.2258  0.3340  0.0735
    1AU     LIG  110   3.939   2.442   6.013 -0.0983  0.4114 -0.1271
    1AU    AUSL  111   2.270   2.528   5.539 -0.0048  0.0686  0.0342
    1AU    AUSL  112   2.233   2.663   6.189 -0.0658 -0.0719  0.1254
    1AU     AUL  113   2.499   2.561   5.979  0.0490 -0.1113  0.1052
    1AU       S  114   2.284   2.205   6.200  0.1926  0.1698 -0.0016
    1AU     LIG  115   2.666   1.901   6.346  0.2432 -0.0957 -0.1156
    1AU     LIG  116   3.052   1.674   6.507  0.0784 -0.0552  0.1038
    1AU     LIG  117   3.362   1.530   6.292 -0.1567 -0.2792  0.2803
    1AU       S  118   2.482   2.382   5.547  0.0844 -0.7246 -0.0532
    1AU     LIG  119   2.675   2.069   5.846 -0.1416 -0.1582  0.4828
    1AU     LIG  120   3.054   1.806   5.936 -0.4939  0.4463 -0.2586
    1AU     LIG  121   3.497   1.655   5.863  0.0913  0.3031 -0.0223
    1AU    AUSL  122   0.840   3.338   5.779 -0.0849  0.0712 -0.0225
    1AU    AUSL  123   0.889   3.286   5.317  0.0449 -0.0764 -0.0296
    1AU     AUL  124   0.610   3.445   5.524 -0.0238 -0.0722  0.0462
    1AU       S  125   0.356   3.688   5.809  0.3776  0.4113 -0.1167
    1AU     LIG  126   0.008   3.678   6.111  0.0812  0.0902  0.0630
    1AU     LIG  127  -0.208   4.051   6.219  0.2561 -0.0040 -0.3357
    1AU     LIG  128  -0.380   4.337   6.547 -0.1417 -0.1944  0.1366
    1AU       S  129   0.558   3.144   5.179 -0.1303 -0.2102  0.1466
    1AU     LIG  130   0.090   3.192   5.090 -0.3169 -0.0920 -0.0823
    1AU     LIG  131  -0.234   3.448   5.246 -0.0475 -0.6510  0.0419
    1AU     LIG  132  -0.263   3.777   5.554 -0.2590  0.1220 -0.1708
    1AU    AUSL  133   0.833   3.733   5.958 -0.0385  0.0257 -0.0063
    1AU    AUSL  134   0.830   3.350   6.239 -0.0548 -0.0730  0.0075
    1AU     AUL  135   0.619   3.404   6.045  0.0209 -0.0226  0.0497
    1AU       S  136   0.710   3.584   6.472 -0.2072  0.0766  0.6124
    1AU     LIG  137   0.371   3.361   6.610 -0.0924  0.1444  0.0176
    1AU     LIG  138   0.249   3.187   6.975 -0.1264  0.1154 -0.1365
    1AU     LIG  139   0.204   2.950   7.293  0.4675 -0.2325  0.2584
    1AU       S  140   0.538   3.849   5.893  0.0721 -0.1454  0.3574
    1AU     LIG  141   0.456   3.992   6.214 -0.2334  0.0633  0.4232
    1AU     LIG  142   0.301   3.899   6.646 -0.0749  0.2440 -0.2253
    1AU     LIG  143   0.111   4.027   7.131 -0.0381  0.1294  0.0765
    1AU    AUSL  144   1.842   2.427   6.273  0.0316 -0.0580 -0.0145
    1AU    AUSL  145   1.889   2.871   6.365 -0.0800  0.0392  0.0661
    1AU     AUL  146   2.141   2.587   6.511 -0.0574  0.0054  0.0757
    1AU       S  147   2.160   2.115   6.331 -0.5778 -0.1731 -0.2097
    1AU     LIG  148   1.945   2.063   6.672  0.0472  0.2104 -0.2342
    1AU     LIG  149   1.971   1.919   7.060  0.1315 -0.1214 -0.0484
    1AU     LIG  150   1.898   1.620   7.365 -0.0805 -0.1167  0.0396
    1AU       S  151   1.750   2.520   6.753 -0.0188 -0.0048  0.0362
    1AU     LIG  152   2.076   2.620   7.025  0.0093  0.2034  0.0608
    1AU     LIG  153   2.064   3.089   7.169 -0.0789 -0.2377  0.2832
    1AU     LIG  154   2.159   3.277   7.503 -0.3034 -0.0447  0.1719
    1AU    AUSL  155   1.972   2.529   5.860 -0.0737  0.0779  0.0494
    1AU    AUSL  156   1.581   2.298   5.926  0.0121 -0.0369  0.0276
    1AU     AUL  157   1.724   2.223   6.155 -0.0076 -0.0572  0.0027
    1AU       S  158   1.579   1.962   5.797  0.2013  0.3438 -0.2580
    1AU     LIG  159   1.718   1.699   6.153  0.3276 -0.0941  0.1914
    1AU     LIG  160   2.099   1.482   6.290 -0.1314  0.4399 -0.1251
    1AU     LIG  161   2.196   1.069   6.238  0.1013  0.1078 -0.1938
    1AU       S  162   2.159   2.210   5.963 -0.3601 -0.2383  0.2061
    1AU     LIG  163   2.286   1.756   5.940 -0.0641 -0.2212 -0.0425
    1AU     LIG  164   2.662   1.466   6.085 -0.2815  0.1883 -0.1238
    1AU     LIG  165   3.002   1.224   6.075 -0.0051 -0.1555  0.0128
    1AU    AUSL  166   1.977   3.426   4.884 -0.0306  0.0354  0.0264
    1AU    AUSL  167   2.307   3.186   5.123  0.0268  0.0339  0.0311
    1AU     AUL  168   2.274   3.395   4.718 -0.0424  0.0399  0.0896
    1AU       S  169   2.510   3.069   4.908  0.0008 -0.2140 -0.3866
    1AU     LIG  170   2.966   2.954   5.063  0.3583  0.4167  0.0370
    1AU     LIG  171   3.158   3.129   5.503  0.0652 -0.4631  0.2033
    1AU     LIG  172   3.544   3.069   5.649 -0.1406 -0.1051  0.0163
    1AU       S  173   2.173   3.859   4.647  0.0947  0.3850 -0.2624
    1AU     LIG  174   2.264   4.276   4.533  0.0236 -0.1219  0.0237
    1AU     LIG  175   2.370   4.623   4.587  0.1143 -0.0323 -0.3183
    1AU     LIG  176   2.617   4.746   4.818  0.1598  0.1976  0.1425
    1AU    AUSL  177   2.323   3.633   5.126  0.0764  0.0037 -0.0594
    1AU    AUSL  178   2.110   3.995   5.394  0.0790  0.0016 -0.0089
    1AU     AUL  179   2.442   3.952   5.233 -0.0382  0.0368 -0.0575
    1AU       S  180   2.255   3.847   4.852  0.2724 -0.0024  0.1815
    1AU     LIG  181   2.618   4.168   4.860 -0.2095 -0.1610  0.0844
    1AU     LIG  182   2.781   4.398   5.162  0.1929 -0.1823 -0.3281
    1AU     LIG  183   3.133   4.409   5.345 -0.0830 -0.3202 -0.1459
    1AU       S  184   2.445   4.309   5.560 -0.1898  0.0662  0.2283
    1AU     LIG  185   2.029   4.612   5.549 -0.1890  0.3476 -0.0855
    1AU     LIG  186   1.921   5.022   5.626  0.1658 -0.1630  0.0131
    1AU     LIG  187   1.550   5.324   5.434  0.2602  0.3209 -0.3189
    1AU    AUSL  188   1.875   3.674   5.212 -0.0369  0.0702 -0.0518
    1AU    AUSL  189   1.539   3.546   4.916 -0.0375 -0.0093  0.0175
    1AU     AUL  190   1.786   3.715   4.857  0.0192  0.0646 -0.0156
    1AU       S  191   1.384   3.879   4.653  0.0672 -0.3157  0.0203
    1AU     LIG  192   1.262   4.374   4.421  0.2425  0.0231 -0.0191
    1AU     LIG  193   1.144   4.821   4.312 -0.0120 -0.0663  0.1220
    1AU     LIG  194   1.080   5.331   4.494 -0.2681  0.2209  0.0524
    1AU       S  195   2.109   3.989   4.924 -0.2967 -0.2642  0.2117
    1AU     LIG  196   2.273   4.429   5.133 -0.1386  0.2552 -0.1486
    1AU     LIG  197   2.289   4.860   5.216 -0.4366 -0.0815  0.2454
    1AU     LIG  198   2.374   5.259   5.295  0.0774 -0.2805 -0.0308
    1AU    AUSL  199   1.083   2.573   5.524 -0.0403  0.0389  0.0206
    1AU    AUSL  200   0.807   2.943   5.620 -0.0297 -0.0990 -0.0408
    1AU     AUL  201   0.737   2.579   5.426  0.0678 -0.0261 -0.0514
    1AU       S  202   0.514   2.978   5.487  0.1507 -0.2484  0.1213
    1AU     LIG  203   0.219   3.245   5.642  0.5017  0.2795  0.1647
    1AU     LIG  204  -0.234   3.321   5.831 -0.2359  0.3697 -0.2288
    1AU     LIG  205  -0.613   3.496   5.892  0.3421  0.2494  0.0894
    1AU       S  206   0.826   2.147   5.615 -0.2201  0.5183  0.3685
    1AU     LIG  207   0.519   1.793   5.687  0.1776 -0.1738  0.2644
    1AU     LIG  208   0.375   1.464   5.947 -0.1759 -0.0202 -0.0496
    1AU     LIG  209  -0.080   1.309   6.118  0.1608  0.1735  0.1840
    1AU    AUSL  210   1.284   2.588   5.934 -0.0497  0.0285  0.0073
    1AU    AUSL  211   1.483   2.465   5.527 -0.0013 -0.0579 -0.0324
    1AU     AUL  212   1.270   2.270   5.679 -0.1362 -0.1082 -0.0304
    1AU       S  213   0.901   2.100   5.890 -0.1314 -0.1940  0.0910
    1AU     LIG  214   0.704   1.807   6.162 -0.1241  0.1635 -0.2578
    1AU     LIG  215   0.941   1.708   6.560  0.4139 -0.2435  0.0002
    1AU     LIG  216   1.072   1.793   6.859 -0.7176 -0.2993  0.1442
    1AU       S  217   1.512   1.865   5.611  0.1889 -0.0195  0.2249
    1AU     LIG  218   1.469   1.608   5.279  0.2880  0.1014 -0.1043
    1AU     LIG  219   1.157   1.369   5.124  0.2892  0.2960  0.1646
    1AU     LIG  220   0.933   1.227   5.277  0.1656 -0.0809  0.1621
    1AU    AUSL  221   0.846   2.599   5.893 -0.0620 -0.0628  0.0621
    1AU    AUSL  222   1.078   2.650   6.319  0.0222  0.0067  0.0106
    1AU     AUL  223   1.106   2.386   6.152  0.0177 -0.0982  0.0868
    1AU       S  224   0.774   2.658   6.377 -0.2354  0.0631 -0.3313
    1AU     LIG  225   0.544   2.256   6.447 -0.4632 -0.0113 -0.1049
    1AU     LIG  226   0.148   2.217   6.699 -0.1349  0.2810  0.0209
    1AU     LIG  227  -0.177   2.469   6.829 -0.4870 -0.2142 -0.2995
    1AU       S  228   0.702   2.383   5.904  0.3983  0.1469  0.2007
    1AU     LIG  229   0.403   2.237   5.904 -0.0424 -0.4037  0.2092
    1AU     LIG  230   0.070   2.317   6.136 -0.1485  0.3948 -0.2101
    1AU     LIG  231  -0.199   2.535   6.361 -0.3038 -0.3671 -0.3472
    1AU    AUSL  232   2.218   3.898   5.819  0.0610  0.0166  0.0693
    1AU    AUSL  233   1.791   3.888   5.680  0.0606 -0.0653  0.0332
    1AU     AUL  234   2.010   4.164   5.584 -0.0846 -0.0424  0.0333
    1AU       S  235   2.468   4.120   5.850  0.1456 -0.3773 -0.0567
    1AU     LIG  236   2.743   4.348   6.105 -0.1619 -0.1725 -0.1298
    1AU     LIG  237   3.195   4.426   6.017 -0.0035 -0.1874 -0.3721
    1AU     LIG  238   3.361   4.631   5.686  0.4018 -0.2728 -0.0127
    1AU       S  239   2.059   4.328   6.010 -0.6364  0.1212  0.1287
    1AU     LIG  240   2.357   4.666   5.950 -0.2668  0.1711 -0.0900
    1AU     LIG  241   2.404   5.135   5.760  0.1184 -0.1050 -0.0215
    1AU     LIG  242   2.321   5.549   5.976 -0.0875  0.3025 -0.2034
    1AU    AUSL  243   2.170   3.571   5.522  0.0582  0.0719 -0.0549
    1AU    AUSL  244   2.372   3.490   5.904  0.0696 -0.0590  0.0098
    1AU     AUL  245   2.476   3.709   5.625  0.0357 -0.1421 -0.0364
    1AU       S  246   2.588   4.151   5.651  0.2254 -0.2010 -0.2395
    1AU     LIG  247   2.798   4.644   5.696 -0.2999  0.4045  0.3235
    1AU     LIG  248   2.772   4.912   6.025  0.1158  0.2123 -0.1261
    1AU     LIG  249   2.797   5.253   6.229  0.0830  0.1018  0.6231
    1AU       S  250   2.795   3.670   5.935  0.1130  0.0518  0.1888
    1AU     LIG  251   3.126   3.943   6.077  0.1878 -0.1606  0.0869
    1AU     LIG  252   3.085   4.297   6.497  0.0885  0.0874  0.0514
    1AU     LIG  253   3.263   4.639   6.611  0.1220 -0.5685 -0.5129
    1AU    AUSL  254   1.239   3.057   6.386  0.0016 -0.0259 -0.0695
    1AU    AUSL  255   1.497   2.662   6.355  0.0330  0.0360  0.0044
    1AU     AUL  256   1.170   2.728   6.607 -0.0068 -0.0616 -0.0683
    1AU       S  257   1.549   2.459   6.692  0.0454 -0.1608  0.1718
    1AU     LIG  258   1.487   1.934   6.486 -0.2263 -0.1581 -0.0818
    1AU     LIG  259   1.224   1.739   6.129  0.0173  0.2305  0.1418
    1AU     LIG  260   1.418   1.447   5.814  0.1174 -0.0843 -0.0043
    1AU       S  261   0.663   2.803   6.447  0.3194 -0.3237  0.5110
    1AU     LIG  262   0.182   2.759   6.577  0.0819  0.0350  0.2356
    1AU     LIG  263  -0.172   2.932   6.665  0.1384  0.2555 -0.3210
    1AU     LIG  264  -0.320   3.135   7.101  0.1668 -0.2433  0.0745
    1AU    AUSL  265   0.954   2.981   6.061 -0.0006 -0.0231 -0.0234
    1AU    AUSL  266   1.131   3.422   6.595 -0.1196 -0.0022 -0.0011
    1AU     AUL  267   0.946   3.149   6.503  0.0598 -0.0309 -0.0408
    1AU       S  268   0.828   3.587   6.671 -0.3572  0.1513 -0.3462
    1AU     LIG  269   1.000   3.629   7.053 -0.0121  0.0957 -0.2657
    1AU     LIG  270   1.166   3.403   7.411 -0.0012  0.0186  0.1328
    1AU     LIG  271   1.633   3.341   7.336 -0.2274 -0.0172  0.3119
    1AU       S  272   0.638   2.855   6.269  0.0201  0.2431  0.1044
    1AU     LIG  273   0.399   2.766   6.023 -0.1834  0.0369  0.3639
    1AU     LIG  274   0.007   2.824   5.931 -0.2585  0.0252  0.1926
    1AU     LIG  275  -0.374   2.900   6.113 -0.2276  0.2096  0.2820
    1AU    AUSL  276   1.311   3.282   5.205 -0.0398  0.0118 -0.0685
    1AU    AUSL  277   1.010   2.878   5.208  0.0867 -0.0423 -0.0137
    1AU     AUL  278   0.994   3.145   4.973  0.0054 -0.1844 -0.0227
    1AU       S  279   0.613   2.939   5.134  0.0931 -0.2783  0.1049
    1AU     LIG  280   0.135   2.768   5.260  0.1661 -0.2057 -0.1221
    1AU     LIG  281   0.107   2.537   5.592 -0.1023  0.0256 -0.0875
    1AU     LIG  282  -0.330   2.392   5.824 -0.1105 -0.0343 -0.1540
    1AU       S  283   2.405   3.786   6.186 -0.2360  0.1002 -0.4797
    1AU     LIG  284   2.685   3.895   6.383  0.2383 -0.0897 -0.0586
    1AU     LIG  285   3.028   3.863   6.645  0.1309  0.1402 -0.0966
    1AU     LIG  286   3.190   3.535   6.805 -0.2520 -0.5225 -0.1962
    1AU    AUSL  287   1.443   2.867   5.232 -0.0318  0.1062  0.0110
    1AU    AUSL  288   1.676   2.746   4.875  0.0015  0.1223 -0.0080
    1AU     AUL  289   1.338   2.840   4.820  0.0244  0.1013  0.0482
    1AU       S  290   2.659   3.174   5.837  0.0561  0.3146 -0.0502
    1AU     LIG  291   3.145   3.075   6.077  0.1717 -0.0833 -0.2216
    1AU     LIG  292   3.627   2.922   6.126  0.4515  0.3000 -0.4021
    1AU     LIG  293   3.972   3.084   6.218 -0.1715  0.0553 -0.2821
    1AU       S  294   1.616   2.476   4.708  0.0081  0.2590 -0.3281
    1AU     LIG  295   1.482   2.197   4.391 -0.2010 -0.0347  0.3006
    1AU     LIG  296   1.142   1.949   4.330  0.0711 -0.0780 -0.2452
    1AU     LIG  297   0.877   1.824   4.717 -0.2907  0.0341  0.0820
    1AU    AUSL  298   1.658   3.148   4.981  0.1401 -0.0685 -0.0293
    1AU    AUSL  299   1.131   3.638   5.037  0.0164  0.0247  0.0278
    1AU     AUL  300   1.356   3.378   4.782 -0.0635  0.0421  0.0619
    1AU       S  301   1.142   3.865   4.862 -0.0028  0.2494  0.0585
    1AU     LIG  302   0.905   4.195   4.818 -0.1340 -0.3120 -0.1275
    1AU     LIG  303   0.829   4.600   4.605 -0.4429 -0.0768  0.0749
    1AU     LIG  304   0.678   4.973   4.523 -0.0675  0.1048 -0.0269
    1AU       S  305   2.666   3.132   5.858  0.1313 -0.3168 -0.3860
    1AU     LIG  306   2.718   2.845   6.291  0.0224 -0.1872  0.1147
    1AU     LIG  307   2.971   2.426   6.140  0.1553 -0.0293 -0.2020
    1AU     LIG  308   3.105   2.134   6.340 -0.0571 -0.0542 -0.3721
    1AU    AUSL  309   1.487   3.897   6.340 -0.0208  0.0166 -0.0357
    1AU    AUSL  310   1.903   3.909   6.111 -0.0803  0.1044  0.0744
    1AU     AUL  311   1.614   4.170   6.296  0.0169  0.0505 -0.0767
    1AU       S  312   1.611   4.109   6.776 -0.2255  0.0913  0.4238
    1AU     LIG  313   1.764   4.538   6.647 -0.1407 -0.1906  0.2964
    1AU     LIG  314   2.131   4.803   6.471 -0.1755  0.0432 -0.0912
    1AU     LIG  315   2.207   5.060   6.260  0.2194  0.0744 -0.3642
    1AU       S  316   2.057   4.140   6.213  0.3147 -0.0036 -0.3238
    1AU     LIG  317   2.382   4.304   6.415  0.0950 -0.3214 -0.1929
    1AU     LIG  318   2.666   4.718   6.565  0.5353  0.2156  0.3202
    1AU     LIG  319   2.899   4.837   6.899  0.0066  0.1261 -0.3332
    1AU    AUSL  320   1.529   3.461   6.451 -0.1257  0.0105  0.0169
    1AU    AUSL  321   1.168   3.635   6.211  0.0572  0.0373 -0.0354
    1AU     AUL  322   1.303   3.729   6.605 -0.0592  0.0247 -0.0798
    1AU       S  323   1.696   3.999   6.779 -0.0327  0.1027 -0.2330
    1AU     LIG  324   1.145   4.123   6.835  0.0929 -0.2896 -0.0679
    1AU     LIG  325   0.709   4.093   7.114 -0.2733  0.2225 -0.1418
    1AU     LIG  326   0.834   3.801   7.485 -0.1052  0.1634 -0.2433
    1AU       S  327   0.888   3.814   6.391  0.1017  0.0410 -0.0037
    1AU     LIG  328   0.760   4.246   6.516  0.0145 -0.2579  0.1426
    1AU     LIG  329   0.352   4.503   6.305  0.2470  0.2221  0.1357
    1AU     LIG  330  -0.092   4.539   6.263 -0.3860  0.1695  0.1600
    1AU    AUSL  331   1.879   3.723   6.486 -0.0144 -0.0196  0.0294
    1AU    AUSL  332   1.901   3.278   6.596 -0.0557 -0.0260  0.0693
    1AU     AUL  333   1.686   3.498   6.773 -0.0371 -0.0432 -0.1127
    1AU       S  334   2.174   3.448   6.774 -0.1150 -0.0653 -0.1619
    1AU     LIG  335   1.986   3.658   7.098  0.0702  0.0367 -0.1499
    1AU     LIG  336   1.976   4.054   7.258  0.0360  0.0307  0.2375
    1AU     LIG  337   1.709   4.286   7.379  0.1869 -0.0957 -0.1112
    1AU       S  338   1.885   3.901   6.618 -0.1251  0.0245 -0.6101
    1AU     LIG  339   2.288   4.067   6.814 -0.0444  0.1509  0.1558
    1AU     LIG  340   2.745   4.215   6.877  0.0511 -0.1043  0.1119
    1AU     LIG  341   3.014   4.342   7.037  0.1110  0.3429  0.0340
    1AU    AUSL  342   1.818   2.536   5.228 -0.0228 -0.0129 -0.0246
    1AU    AUSL  343   2.041   2.989   4.825  0.0135 -0.0884 -0.0055
    1AU     AUL  344   2.018   2.571   4.911  0.0069  0.0023  0.0462
    1AU       S  345   1.820   2.178   4.855  0.3342  0.0615  0.3594
    1AU     LIG  346   1.914   1.814   5.070  0.2154 -0.0951  0.1385
    1AU     LIG  347   1.958   1.391   5.164  0.4086  0.3583 -0.4250
    1AU     LIG  348   1.747   1.143   5.495 -0.5199 -0.2182  0.0125
    1AU       S  349   2.358   2.907   4.696 -0.2953 -0.0083 -0.4743
    1AU     LIG  350   2.821   3.035   4.562  0.0011  0.0686  0.0821
    1AU     LIG  351   3.117   2.722   4.441  0.0364 -0.3153  0.1273
    1AU     LIG  352   3.256   2.307   4.619  0.1209 -0.0255 -0.0043
    1AU    AUSL  353   1.373   2.465   5.111 -0.0278  0.0099 -0.0591
    1AU    AUSL  354   1.860   2.239   5.562 -0.0053  0.0298  0.0038
    1AU     AUL  355   1.611   2.225   5.273  0.0027  0.0129 -0.0282
    1AU       S  356   1.434   2.317   4.857  0.2233 -0.1027  0.1471
    1AU     LIG  357   1.413   1.857   4.786  0.1033 -0.1039  0.0685
    1AU     LIG  358   1.383   1.552   4.598  0.3512 -0.1325 -0.0550
    1AU     LIG  359   1.435   1.211   4.306 -0.2485 -0.0619  0.2923
    1AU       S  360   1.876   2.043   5.652  0.1698 -0.1040  0.2650
    1AU     LIG  361   1.927   1.576   5.703 -0.2335  0.5095  0.0793
    1AU     LIG  362   2.265   1.190   5.763  0.3629 -0.4850 -0.1834
    1AU     LIG  363   2.620   1.018   5.836 -0.2274 -0.2652 -0.2833
    1AU    AUSL  364   2.265   3.079   6.470 -0.0594  0.1081 -0.0306
    1AU    AUSL  365   1.576   3.000   6.655  0.0467  0.0311  0.0513
    1AU     AUL  366   1.993   2.988   6.733  0.0597 -0.0211 -0.0471
    1AU       S  367   1.569   2.766   6.831  0.6047 -0.1631 -0.0193
    1AU     LIG  368   1.615   2.826   7.300  0.7007 -0.0768 -0.0611
    1AU     LIG  369   1.931   2.870   7.634  0.0208  0.2907 -0.2057
    1AU     LIG  370   1.931   3.082   7.977  0.0296 -0.2793 -0.0293
    1AU       S  371   2.387   3.262   6.666  0.1693  0.0361  0.0803
    1AU     LIG  372   2.482   2.879   6.799 -0.1718  0.1306  0.3126
    1AU     LIG  373   2.639   2.564   7.033  0.1802  0.2716 -0.2735
    1AU     LIG  374   2.794   2.645   7.472  0.2267  0.3188  0.3075
    1AU    AUSL  375   2.097   3.463   6.245 -0.0716  0.0429  0.0362
    1AU    AUSL  376   2.259   3.104   6.037 -0.1429 -0.0683  0.0035
    1AU     AUL  377   2.479   3.336   6.241 -0.0481  0.0047  0.0778
    1AU       S  378   2.339   3.566   6.620  0.1879 -0.0977 -0.0298
    1AU     LIG  379   2.851   3.375   6.555 -0.0984  0.1483 -0.2990
    1AU     LIG  380   3.296   3.103   6.534  0.3127  0.4145 -0.1484
    1AU     LIG  381   3.700   2.931   6.732 -0.2332 -0.2092  0.2574
    1AU       S  382   2.848   3.535   6.063  0.1199  0.0229  0.1170
    1AU     LIG  383   3.236   3.540   6.312 -0.0949  0.1549  0.4226
    1AU     LIG  384   3.479   3.894   6.476  0.0673  0.1536  0.1999
    1AU     LIG  385   3.449   4.118   6.822 -0.1056  0.1539 -0.1412
    2POPC   NC3  386   1.559   9.461   7.172  0.1260  0.0665  0.1534
    2POPC   PO4  387   1.672   9.120   6.931 -0.0639  0.1728 -0.0788
    2POPC   GL1  388   1.539   9.486   6.649 -0.0116 -0.2313  0.1671
    2POPC   GL2  389   1.490   9.825   6.752 -0.1133  0.1159  0.0309
    2POPC   C1A  390   1.451   9.768   6.263 -0.3451 -0.1417  0.1530
    2POPC   D2A  391   1.185  10.070   6.055 -0.0263  0.0662 -0.0067
    2POPC   C3A  392   1.261  10.460   5.960 -0.1218  0.1122  0.3447
    2POPC   C4A  393   1.259  10.875   6.067 -0.2150  0.0887  0.0851
    2POPC   C1B  394   1.105   9.824   6.543  0.0840 -0.0835 -0.3190
    2POPC   C2B  395   0.835   9.617   6.256 -0.2919  0.1099  0.1327
    2POPC   C3B  396   0.808   9.587   5.756  0.2144 -0.0779  0.1007
    2POPC   C4B  397   0.787   9.274   5.460  0.0347  0.0745 -0.0955
    3POPC   NC3  398   3.330   3.616   9.205 -0.1889 -0.1203 -0.1378
    3POPC   PO4  399   3.492   3.270   8.890  0.1450  0.0688  0.0251
    3POPC   GL1  400   3.163   3.346   8.613  0.0015 -0.0253 -0.1587
    3POPC   GL2  401   3.111   3.737   8.472 -0.0328  0.2540  0.0683
    3POPC   C1A  402   3.100   3.408   8.113 -0.0489  0.3879 -0.1469
    3POPC   D2A  403   2.985   3.664   7.753  0.2024  0.1017 -0.0645
    3POPC   C3A  404   2.694   3.600   7.642 -0.3046 -0.1649  0.3769
    3POPC   C4A  405   2.381   3.735   7.468  0.1439  0.1387  0.0738
    3POPC   C1B  406   3.022   3.991   8.136 -0.1783  0.3036  0.2713
    3POPC   C2B  407   2.546   3.948   8.045  0.1035  0.0197 -0.0602
    3POPC   C3B  408   2.144   3.995   8.242 -0.1357  0.2429 -0.1972
    3POPC   C4B  409   1.748   4.309   8.173 -0.2847  0.1389  0.1918
    4POPC   NC3  410   2.436   7.740   7.527  0.1346 -0.1076 -0.1809
    4POPC   PO4  411   2.128   7.858   7.861 -0.0551  0.2546  0.1347
    4POPC   GL1  412   1.887   7.829   7.477 -0.0137 -0.0962  0.0367
    4POPC   GL2  413   2.082   7.738   7.167  0.1707  0.1205  0.0007
    4POPC   C1A  414   1.822   8.195   7.069  0.1488 -0.0613  0.0989
    4POPC   D2A  415   1.826   8.594   6.810  0.0241 -0.2439  0.2002
    4POPC   C3A  416   2.073   8.723   6.543  0.1418 -0.1113  0.0572
    4POPC   C4A  417   2.073   8.562   6.121  0.0498 -0.1739 -0.1410
    4POPC   C1B  418   1.821   7.762   6.839 -0.1622 -0.0029  0.1513
    4POPC   C2B  419   1.764   7.815   6.384  0.0658 -0.0645  0.4256
    4POPC   C3B  420   1.734   8.243   6.025  0.2857  0.0935  0.0359
    4POPC   C4B  421   1.549   8.620   5.810  0.1233 -0.0552  0.0321
    5POPC   NC3  422   9.127   5.125   7.845 -0.0920 -0.1331 -0.0895
    5POPC   PO4  423   9.130   5.491   7.558 -0.0557 -0.2682  0.0312
    5POPC   GL1  424   9.398   5.850   7.289  0.2930  0.1499  0.0397
    5POPC   GL2  425   9.393   6.212   7.424  0.3103  0.2301  0.2133
    5POPC   C1A  426   9.483   5.792   6.808  0.1903  0.0318  0.3441
    5POPC   D2A  427   9.489   5.667   6.420  0.2456 -0.1244  0.1310
    5POPC   C3A  428   9.685   5.308   6.309  0.1904 -0.2632 -0.0427
    5POPC   C4A  429  10.023   5.033   6.318 -0.0322 -0.0001  0.0321
    5POPC   C1B  430   9.541   6.259   6.951  0.1451  0.0750 -0.2149
    5POPC   C2B  431   9.472   6.241   6.513  0.0162  0.0054  0.1023
    5POPC   C3B  432   9.203   6.027   6.160  0.0653 -0.0728  0.1955
    5POPC   C4B  433   9.073   6.189   5.791  0.2953  0.1348 -0.0802
    6POPC   NC3  434   8.102   1.703   7.534 -0.4244 -0.0632  0.2788
    6POPC   PO4  435   7.727   1.780   7.717 -0.2881  0.0725  0.0178
    6POPC   GL1  436   7.651   1.824   7.255  0.1100  0.0141 -0.2552
    6POPC   GL2  437   7.301   1.897   7.147  0.1723  0.3949 -0.2221
    6POPC   C1A  438   7.652   1.621   6.924 -0.1693 -0.0705  0.4399
    6POPC   D2A  439   7.510   1.921   6.574 -0.0907 -0.0275 -0.0929
    6POPC   C3A  440   7.394   1.815   6.155  0.0277  0.1034 -0.0164
    6POPC   C4A  441   7.369   1.366   5.930  0.3015 -0.0555  0.2130
    6POPC   C1B  442   7.361   2.279   6.914 -0.2488  0.1302 -0.0085
    6POPC   C2B  443   7.230   2.598   6.712 -0.2138 -0.1923  0.0487
    6POPC   C3B  444   6.932   2.898   6.472 -0.0520  0.0987  0.2343
    6POPC   C4B  445   6.757   3.066   6.139 -0.0382  0.1522 -0.1256
    7POPC   NC3  446   4.083   1.224   7.958 -0.0014 -0.0039  0.2164
    7POPC   PO4  447   3.787   1.390   8.187  0.0032 -0.1681  0.2277
    7POPC   GL1  448   3.596   1.506   7.848  0.3063  0.1274 -0.0061
    7POPC   GL2  449   3.251   1.424   7.879  0.2114 -0.0847 -0.0024
    7POPC   C1A  450   3.486   1.265   7.462 -0.1329  0.0094 -0.0896
    7POPC   D2A  451   3.584   0.976   7.192  0.0383 -0.2539  0.2904
    7POPC   C3A  452   3.266   0.770   6.983  0.2158  0.0708 -0.2319
    7POPC   C4A  453   2.802   0.725   6.987  0.2668  0.1835  0.3236
    7POPC   C1B  454   3.298   1.712   7.550  0.3929  0.1144 -0.0452
    7POPC   C2B  455   3.680   1.838   7.434 -0.1346  0.1229  0.0467
    7POPC   C3B  456   3.724   1.858   7.015  0.2478  0.0116  0.1776
    7POPC   C4B  457   3.897   2.128   6.624  0.0457  0.0185 -0.0151
    8POPC   NC3  458   5.511   3.473   7.397 -0.1851 -0.0151  0.4292
    8POPC   PO4  459   5.983   3.540   7.263 -0.3344  0.0136 -0.0621
    8POPC   GL1  460   6.107   3.482   6.769 -0.1387  0.1079  0.0131
    8POPC   GL2  461   5.975   3.340   6.641  0.2552 -0.2356  0.1138
    8POPC   C1A  462   6.197   3.771   6.345 -0.0089  0.0045 -0.0028
    8POPC   D2A  463   6.617   3.596   6.020 -0.0747 -0.2039  0.0186
    8POPC   C3A  464   6.705   3.681   5.528 -0.0740 -0.0514  0.0964
    8POPC   C4A  465   6.438   3.490   5.369 -0.0722 -0.0166 -0.1482
    8POPC   C1B  466   5.549   3.282   6.372 -0.0864  0.0265 -0.1437
    8POPC   C2B  467   5.057   3.298   6.234 -0.1185  0.1644 -0.1664
    8POPC   C3B  468   4.760   3.268   5.934  0.2797  0.2664  0.0946
    8POPC   C4B  469   4.267   3.320   5.834 -0.3169  0.1702 -0.1879
    9POPC   NC3  470   3.871   2.882   8.525  0.1041  0.3082 -0.1850
    9POPC   PO4  471   3.704   3.222   8.355  0.0086  0.3848  0.1608
    9POPC   GL1  472   3.817   3.130   8.024 -0.1120  0.0167 -0.0349
    9POPC   GL2  473   3.833   3.345   7.794  0.0590 -0.0320 -0.2172
    9POPC   C1A  474   3.901   2.854   7.659 -0.1036 -0.0465 -0.2748
    9POPC   D2A  475   3.777   2.821   7.252 -0.1656  0.1045  0.1509
    9POPC   C3A  476   3.388   3.077   7.155  0.1450 -0.1993  0.1570
    9POPC   C4A  477   2.950   3.003   6.952  0.1533 -0.1660 -0.1687
    9POPC   C1B  478   3.569   3.574   7.446  0.3117 -0.2176 -0.0408
    9POPC   C2B  479   3.499   3.732   7.151 -0.1744 -0.1556 -0.3160
    9POPC   C3B  480   3.821   3.533   6.829  0.1179  0.1646 -0.0559
    9POPC   C4B  481   3.706   3.384   6.456  0.3465  0.1450 -0.0124
   10POPC   NC3  482   0.415   0.962   8.242  0.0130  0.1733 -0.1977
   10POPC   PO4  483   0.077   0.932   7.977  0.3238  0.0610 -0.1275
   10POPC   GL1  484   0.408   1.053   7.749 -0.1011 -0.1543  0.2069
   10POPC   GL2  485   0.522   1.363   7.816 -0.2496 -0.0058  0.0015
   10POPC   C1A  486   0.409   0.902   7.434  0.0079 -0.3134  0.2302
   10POPC   D2A  487   0.338   0.633   7.123  0.0938 -0.1360  0.0558
   10POPC   C3A  488   0.400   0.908   6.741  0.1276 -0.0860  0.0414
   10POPC   C4A  489   0.207   0.981   6.379  0.1909 -0.1730 -0.0388
   10POPC   C1B  490   0.283   1.519   7.494 -0.0958  0.2510 -0.0429
   10POPC   C2B  491   0.184   1.336   7.143  0.0087  0.1517 -0.2701
   10POPC   C3B  492  -0.020   0.951   7.034  0.0205 -0.0339 -0.1800
   10POPC   C4B  493  -0.045   0.682   6.839 -0.1718  0.3205 -0.1116
   11POPC   NC3  494   2.681   4.894   8.655  0.1478 -0.0162  0.2175
   11POPC   PO4  495   3.058   5.084   8.478 -0.1196  0.1394 -0.0047
   11POPC   GL1  496   3.149   5.188   8.033  0.1458 -0.1536  0.2619
   11POPC   GL2  497   2.820   5.173   7.919 -0.0288  0.3072  0.0035
   11POPC   C1A  498   3.124   5.121   7.550  0.0161  0.3193 -0.0273
   11POPC   D2A  499   2.657   5.088   7.351  0.3533  0.3871 -0.3029
   11POPC   C3A  500   2.402   5.009   7.038 -0.1514 -0.2111 -0.2611
   11POPC   C4A  501   1.928   4.810   7.036 -0.1653 -0.2263 -0.3007
   11POPC   C1B  502   2.661   4.754   7.828  0.0909 -0.0900  0.2057
   11POPC   C2B  503   2.758   4.275   7.706  0.0638  0.0024 -0.4277
   11POPC   C3B  504   2.822   4.007   7.351 -0.0586  0.2386 -0.1444
   11POPC   C4B  505   2.632   3.742   7.028  0.2386 -0.2054  0.1361
   12POPC   NC3  506   5.990   9.710   7.477 -0.1063 -0.3945  0.2656
   12POPC   PO4  507   5.669   9.849   7.722  0.0201  0.1474  0.0507
   12POPC   GL1  508   5.835  10.160   7.367 -0.0777 -0.4389  0.0920
   12POPC   GL2  509   5.692  10.472   7.042 -0.0212  0.2429  0.1892
   12POPC   C1A  510   5.944  10.050   6.907  0.5535 -0.6016  0.0118
   12POPC   D2A  511   5.850  10.234   6.393 -0.0186 -0.0597 -0.3467
   12POPC   C3A  512   5.576  10.327   6.004  0.1805 -0.1603 -0.2221
   12POPC   C4A  513   5.208  10.242   5.721  0.1526  0.1324 -0.1965
   12POPC   C1B  514   5.771  10.655   6.689 -0.1737  0.3312  0.3815
   12POPC   C2B  515   5.752  10.705   6.221  0.0444 -0.0814  0.0398
   12POPC   C3B  516   5.603  10.793   5.794  0.1673 -0.0134 -0.0294
   12POPC   C4B  517   5.640  11.055   5.418 -0.2159 -0.0119  0.1329
   13POPC   NC3  518   2.344   6.951   7.542  0.3303  0.1751  0.4889
   13POPC   PO4  519   2.794   6.920   7.368 -0.0286 -0.0918 -0.0802
   13POPC   GL1  520   2.733   6.959   6.915  0.0336 -0.0118 -0.2013
   13POPC   GL2  521   2.946   7.137   6.707  0.0092 -0.1236  0.0860
   13POPC   C1A  522   2.530   7.002   6.465  0.2649 -0.0376  0.3042
   13POPC   D2A  523   2.216   7.132   6.229 -0.0965  0.3218 -0.1306
   13POPC   C3A  524   1.823   6.947   5.837  0.0055 -0.0626  0.1431
   13POPC   C4A  525   1.340   6.862   5.880  0.1981 -0.1095 -0.1184
   13POPC   C1B  526   3.039   7.005   6.287 -0.1810 -0.1747  0.3131
   13POPC   C2B  527   3.238   7.086   5.987 -0.2605 -0.1126 -0.0470
   13POPC   C3B  528   3.229   7.060   5.544 -0.1646 -0.1056  0.0206
   13POPC   C4B  529   2.944   6.953   5.261 -0.1096 -0.0757 -0.1497
   14POPC   NC3  530   5.847   6.556   7.682  0.2315 -0.3317 -0.2382
   14POPC   PO4  531   5.803   7.054   7.621 -0.1182  0.0858 -0.3419
   14POPC   GL1  532   5.730   7.019   7.253 -0.1754 -0.4688  0.2102
   14POPC   GL2  533   5.379   7.158   7.225 -0.4054  0.0054 -0.0828
   14POPC   C1A  534   5.723   7.081   6.801  0.1453  0.1675  0.0527
   14POPC   D2A  535   5.885   7.458   6.575  0.0299 -0.1067  0.4854
   14POPC   C3A  536   5.668   7.547   6.198  0.1418  0.0391  0.1438
   14POPC   C4A  537   5.654   7.511   5.712  0.2273 -0.0718  0.4830
   14POPC   C1B  538   5.203   6.939   6.869  0.2096  0.0877  0.0631
   14POPC   C2B  539   5.247   6.715   6.360  0.2436 -0.0030  0.0198
   14POPC   C3B  540   5.351   6.376   6.260  0.0526 -0.2576 -0.2536
   14POPC   C4B  541   5.758   6.169   6.285 -0.3526  0.0550  0.1150
   15POPC   NC3  542   8.148   1.947   7.963  0.2527  0.0468  0.0806
   15POPC   PO4  543   8.013   2.169   7.576 -0.0265 -0.1039 -0.1966
   15POPC   GL1  544   8.166   2.072   7.236  0.1447 -0.0067  0.4866
   15POPC   GL2  545   8.505   2.127   7.305 -0.1100  0.2173  0.0775
   15POPC   C1A  546   7.937   2.104   6.848 -0.0797 -0.1063  0.0098
   15POPC   D2A  547   7.945   2.150   6.360  0.3032 -0.0633  0.0029
   15POPC   C3A  548   8.029   2.564   6.159 -0.0053  0.0118  0.1286
   15POPC   C4A  549   8.538   2.862   6.030  0.0587  0.0210  0.2513
   15POPC   C1B  550   8.438   2.363   6.970 -0.0403 -0.1742  0.1152
   15POPC   C2B  551   8.372   2.389   6.521  0.2694 -0.1481  0.1750
   15POPC   C3B  552   8.621   2.372   6.161 -0.0528 -0.0272 -0.0909
   15POPC   C4B  553   8.969   2.143   6.287  0.2706 -0.1875 -0.0583
   16POPC   NC3  554   1.738   7.473   7.837 -0.2521  0.2134 -0.2091
   16POPC   PO4  555   2.019   7.370   7.565  0.0644  0.0121 -0.1473
   16POPC   GL1  556   1.900   7.240   7.106  0.0496  0.3477 -0.1999
   16POPC   GL2  557   2.108   6.971   7.106 -0.1233  0.0831  0.2990
   16POPC   C1A  558   1.757   7.175   6.694 -0.1419 -0.0104  0.0580
   16POPC   D2A  559   1.483   7.331   6.318  0.1323 -0.0784  0.2464
   16POPC   C3A  560   1.090   7.354   6.103 -0.1383  0.0240  0.3615
   16POPC   C4A  561   0.663   7.355   5.850  0.1433  0.0108 -0.1007
   16POPC   C1B  562   2.303   7.248   6.762  0.0498 -0.2509  0.0242
   16POPC   C2B  563   2.240   7.526   6.547  0.1814 -0.0696  0.0290
   16POPC   C3B  564   2.192   7.660   6.190 -0.0272  0.1541 -0.0349
   16POPC   C4B  565   1.863   7.750   5.850  0.0973  0.1474 -0.0699
   17POPC   NC3  566   8.453   7.047   7.646  0.2432  0.0233  0.2568
   17POPC   PO4  567   8.311   6.708   7.849  0.2953 -0.3270 -0.0661
   17POPC   GL1  568   8.433   6.554   7.380 -0.1748  0.0454 -0.2477
   17POPC   GL2  569   8.660   6.263   7.309 -0.3791  0.2344  0.4212
   17POPC   C1A  570   8.135   6.523   7.066 -0.0439  0.1732 -0.3240
   17POPC   D2A  571   7.950   6.222   6.909  0.3391 -0.1511  0.2963
   17POPC   C3A  572   8.013   6.009   6.571  0.0192  0.2102 -0.1619
   17POPC   C4A  573   7.821   6.187   6.148 -0.0927 -0.1542 -0.0146
   17POPC   C1B  574   8.999   6.131   6.999  0.3151  0.1501  0.0063
   17POPC   C2B  575   9.010   5.920   6.641 -0.1154 -0.0333 -0.1928
   17POPC   C3B  576   8.737   5.766   6.281  0.1017  0.2507  0.1495
   17POPC   C4B  577   8.379   5.915   6.238  0.0082 -0.1344 -0.1155
   18POPC   NC3  578   0.225   2.593   8.728  0.2504  0.1827  0.5213
   18POPC   PO4  579  -0.075   2.744   8.568 -0.0419 -0.0290  0.0721
   18POPC   GL1  580  -0.017   2.691   8.166 -0.3302 -0.1816 -0.1337
   18POPC   GL2  581  -0.048   2.970   8.014 -0.1078 -0.1390  0.0068
   18POPC   C1A  582  -0.050   2.422   7.732  0.3511  0.0256  0.0607
   18POPC   D2A  583  -0.022   2.464   7.336  0.0335 -0.1856 -0.1335
   18POPC   C3A  584  -0.421   2.679   7.233 -0.0541 -0.1155  0.0701
   18POPC   C4A  585  -0.661   2.832   6.899 -0.1523  0.4408 -0.2272
   18POPC   C1B  586   0.015   3.258   7.680  0.0551  0.1123 -0.2862
   18POPC   C2B  587   0.014   3.503   7.298 -0.0978  0.0667 -0.1645
   18POPC   C3B  588  -0.057   3.544   6.869 -0.0530 -0.0300 -0.0002
   18POPC   C4B  589  -0.263   3.890   6.752  0.0314  0.2210 -0.0033
   19POPC   NC3  590   7.353   6.891   7.857 -0.0444  0.0506 -0.0814
   19POPC   PO4  591   7.082   7.091   7.568 -0.0025 -0.0895  0.1241
   19POPC   GL1  592   7.065   6.664   7.361  0.2679  0.1937  0.1846
   19POPC   GL2  593   6.857   6.734   7.136  0.1670 -0.0554  0.1390
   19POPC   C1A  594   7.076   6.258   7.011 -0.1760 -0.0831  0.0258
   19POPC   D2A  595   7.037   6.042   6.660 -0.4206 -0.2500  0.2056
   19POPC   C3A  596   6.769   5.900   6.318 -0.1043  0.1495  0.1234
   19POPC   C4A  597   6.801   6.010   5.923  0.0051 -0.3328  0.0132
   19POPC   C1B  598   6.962   6.611   6.697 -0.2505  0.1034 -0.0762
   19POPC   C2B  599   7.321   6.624   6.405 -0.0877  0.0443 -0.0865
   19POPC   C3B  600   7.370   6.900   6.016  0.0011  0.1071  0.0837
   19POPC   C4B  601   7.484   7.327   5.789  0.0910  0.0666  0.2877
   20POPC   NC3  602   9.598   9.476   7.899 -0.1429 -0.1338 -0.1835
   20POPC   PO4  603   9.217   9.811   7.736  0.2071  0.1013  0.1767
   20POPC   GL1  604   8.960   9.989   7.500  0.1563 -0.1354  0.2306
   20POPC   GL2  605   8.575  10.100   7.637  0.0923  0.1325 -0.1465
   20POPC   C1A  606   8.785  10.176   7.012 -0.1348  0.0301 -0.1507
   20POPC   D2A  607   8.701   9.932   6.664 -0.0056  0.2614 -0.2690
   20POPC   C3A  608   8.534  10.146   6.274  0.2943 -0.4076  0.2084
   20POPC   C4A  609   8.323  10.239   5.864  0.1263  0.2403 -0.2910
   20POPC   C1B  610   8.493   9.881   7.253  0.1254  0.2211 -0.1239
   20POPC   C2B  611   8.203   9.538   7.282  0.1843  0.0397  0.0999
   20POPC   C3B  612   8.001   9.210   6.967  0.1983  0.0089 -0.1193
   20POPC   C4B  613   7.534   9.178   6.960  0.2567 -0.1529 -0.0805
   21POPC   NC3  614   6.624   5.863   7.765 -0.1416 -0.1609 -0.0911
   21POPC   PO4  615   6.218   6.254   7.769 -0.0215  0.1798 -0.0691
   21POPC   GL1  616   6.552   6.365   7.422 -0.2518  0.2043  0.2018
   21POPC   GL2  617   6.857   6.114   7.404  0.3145  0.0769 -0.1500
   21POPC   C1A  618   6.528   6.305   6.954  0.0292 -0.1666 -0.0419
   21POPC   D2A  619   6.593   6.350   6.429  0.1128  0.0846 -0.0529
   21POPC   C3A  620   6.912   6.417   6.273 -0.3443 -0.1897 -0.0197
   21POPC   C4A  621   6.948   6.526   5.896 -0.0760 -0.2630  0.1229
   21POPC   C1B  622   6.640   5.849   7.141 -0.0888 -0.1492 -0.2860
   21POPC   C2B  623   6.550   5.752   6.810 -0.1734 -0.2204  0.5863
   21POPC   C3B  624   6.289   5.923   6.538 -0.0523 -0.2255 -0.2148
   21POPC   C4B  625   6.307   6.118   6.095 -0.2399  0.3192  0.0925
   22POPC   NC3  626   5.510   1.995   7.596  0.2112 -0.2778  0.0186
   22POPC   PO4  627   5.781   1.989   7.299 -0.2709 -0.1141 -0.0987
   22POPC   GL1  628   5.931   2.120   6.917 -0.1265  0.0912  0.4556
   22POPC   GL2  629   6.158   1.918   6.776  0.3030  0.0400 -0.3399
   22POPC   C1A  630   5.789   2.234   6.519 -0.2566  0.0995  0.0190
   22POPC   D2A  631   5.865   2.450   6.108  0.2708  0.2456 -0.4254
   22POPC   C3A  632   6.052   2.935   6.061 -0.1008 -0.0684 -0.0996
   22POPC   C4A  633   6.301   3.182   5.788  0.0348 -0.0218 -0.0647
   22POPC   C1B  634   6.041   1.711   6.450 -0.0659 -0.2895 -0.2638
   22POPC   C2B  635   6.043   1.613   5.973  0.1815 -0.0461  0.0734
   22POPC   C3B  636   5.918   1.597   5.550  0.1301  0.3642 -0.1052
   22POPC   C4B  637   5.856   1.518   5.220  0.0849 -0.1602 -0.1547
   23POPC   NC3  638   9.162   2.070   8.296  0.1745 -0.1799 -0.2681
   23POPC   PO4  639   8.939   2.422   8.192 -0.2392 -0.0805  0.2860
   23POPC   GL1  640   9.115   2.575   7.776 -0.1274  0.0357  0.1572
   23POPC   GL2  641   9.465   2.702   7.881 -0.2037 -0.1826 -0.0471
   23POPC   C1A  642   9.419   2.320   7.559  0.0437  0.4929 -0.1924
   23POPC   D2A  643   9.510   2.105   7.294 -0.1921  0.0910 -0.1536
   23POPC   C3A  644   9.270   2.272   6.891 -0.0324 -0.0808 -0.2890
   23POPC   C4A  645   8.890   2.330   6.738 -0.2033 -0.1129 -0.1139
   23POPC   C1B  646   9.497   3.061   7.612  0.2415  0.1007 -0.1548
   23POPC   C2B  647   9.456   3.436   7.501 -0.1299 -0.1733 -0.3906
   23POPC   C3B  648   9.535   3.857   7.363 -0.0404  0.3900 -0.0275
   23POPC   C4B  649   9.532   4.309   7.104 -0.0149  0.0068 -0.0227
   24POPC   NC3  650   8.430   8.906   8.032 -0.1457  0.0542  0.2595
   24POPC   PO4  651   8.271   9.241   7.854 -0.3177 -0.1216  0.0363
   24POPC   GL1  652   8.623   9.068   7.398 -0.1643  0.1591 -0.3004
   24POPC   GL2  653   8.697   8.739   7.316  0.2779  0.2120  0.2089
   24POPC   C1A  654   8.510   9.196   6.917 -0.0765 -0.1041 -0.0940
   24POPC   D2A  655   8.295   9.125   6.482 -0.0197 -0.2453  0.2842
   24POPC   C3A  656   8.026   9.347   6.254 -0.0790  0.2497  0.0925
   24POPC   C4A  657   7.731   9.606   6.070 -0.1357  0.0655  0.0128
   24POPC   C1B  658   9.027   8.939   7.047 -0.2106  0.0687 -0.1169
   24POPC   C2B  659   9.264   9.192   6.779 -0.2551  0.2063 -0.0990
   24POPC   C3B  660   9.487   9.516   6.777 -0.0526  0.0511  0.1099
   24POPC   C4B  661   9.835  10.034   6.754 -0.3791 -0.1848  0.1173
   25POPC   NC3  662   3.431   7.386   6.875 -0.0879 -0.2317 -0.2733
   25POPC   PO4  663   3.293   7.848   6.997 -0.0834 -0.3199  0.2122
   25POPC   GL1  664   3.164   7.745   6.618 -0.0962 -0.0568 -0.3505
   25POPC   GL2  665   3.516   7.844   6.541 -0.1483 -0.1353 -0.0124
   25POPC   C1A  666   3.286   7.586   6.169 -0.3616  0.0510 -0.3326
   25POPC   D2A  667   3.398   7.549   5.745 -0.2184  0.0894  0.1680
   25POPC   C3A  668   3.619   7.810   5.409 -0.1934 -0.2034  0.2737
   25POPC   C4A  669   3.706   8.151   5.209  0.0123  0.0530  0.2965
   25POPC   C1B  670   3.674   7.907   6.123 -0.0195 -0.0669  0.0558
   25POPC   C2B  671   3.730   8.244   5.965 -0.1050  0.1580  0.0850
   25POPC   C3B  672   4.098   8.476   5.827  0.3744  0.1170 -0.1677
   25POPC   C4B  673   4.539   8.664   5.716 -0.1723  0.3719 -0.0809
   26POPC   NC3  674   7.762   2.758   7.570 -0.2234  0.2198 -0.1068
   26POPC   PO4  675   7.574   3.105   7.618  0.0834 -0.0130  0.2326
   26POPC   GL1  676   7.578   3.034   7.203  0.0634 -0.3360  0.0954
   26POPC   GL2  677   7.802   2.777   7.057  0.2926 -0.2254 -0.2837
   26POPC   C1A  678   7.526   3.017   6.713 -0.1722  0.0514  0.1535
   26POPC   D2A  679   7.386   3.089   6.290  0.0972 -0.0240 -0.0640
   26POPC   C3A  680   7.234   2.767   6.011 -0.1698 -0.0637 -0.5170
   26POPC   C4A  681   6.823   2.641   5.812  0.0664 -0.1131 -0.0696
   26POPC   C1B  682   8.028   2.907   6.587 -0.2052  0.0016 -0.3299
   26POPC   C2B  683   8.171   3.240   6.323  0.0294  0.3229 -0.2942
   26POPC   C3B  684   8.414   3.380   5.980  0.0304 -0.2474  0.1663
   26POPC   C4B  685   8.381   3.633   5.583  0.4249  0.1373  0.0152
   27POPC   NC3  686   0.063   1.748   8.392 -0.1497  0.2328  0.1536
   27POPC   PO4  687  -0.422   1.681   8.394 -0.1239  0.2205 -0.0228
   27POPC   GL1  688  -0.355   1.638   7.856  0.0646  0.1590 -0.2492
   27POPC   GL2  689  -0.554   1.776   7.601 -0.1169 -0.2589 -0.2213
   27POPC   C1A  690  -0.130   1.403   7.644  0.0481 -0.1626  0.1849
   27POPC   D2A  691  -0.040   1.029   7.477 -0.2218 -0.0058 -0.3278
   27POPC   C3A  692  -0.373   0.778   7.360 -0.0021 -0.2235 -0.2508
   27POPC   C4A  693  -0.228   0.279   7.184 -0.3302 -0.2275  0.0553
   27POPC   C1B  694  -0.517   1.444   7.377 -0.2571 -0.0678 -0.3865
   27POPC   C2B  695  -0.278   1.378   6.919  0.2025 -0.0934  0.1630
   27POPC   C3B  696   0.119   1.458   6.682 -0.0960 -0.2305 -0.0898
   27POPC   C4B  697   0.315   1.752   6.813  0.1267  0.1625  0.2948
   28POPC   NC3  698   5.073   4.306   8.025 -0.2280  0.1183  0.1861
   28POPC   PO4  699   4.770   4.593   7.833 -0.1119  0.2495  0.0845
   28POPC   GL1  700   4.658   4.641   7.393  0.0145 -0.0517 -0.0154
   28POPC   GL2  701   4.873   4.557   7.188  0.2503 -0.1827  0.2946
   28POPC   C1A  702   4.219   4.889   7.205 -0.1236  0.1287  0.1042
   28POPC   D2A  703   4.023   5.019   6.793  0.1613 -0.0298 -0.1257
   28POPC   C3A  704   3.713   4.854   6.462  0.3311 -0.2692 -0.1103
   28POPC   C4A  705   3.646   4.406   6.299 -0.4440  0.1101  0.1193
   28POPC   C1B  706   4.522   4.515   6.891  0.1047 -0.0015 -0.0343
   28POPC   C2B  707   4.339   4.558   6.444 -0.0775  0.3341 -0.0004
   28POPC   C3B  708   4.079   4.619   6.121  0.1169 -0.3519 -0.1135
   28POPC   C4B  709   3.702   4.786   5.973 -0.2711  0.0352  0.0676
   29POPC   NC3  710   3.696   1.714   8.811 -0.0911 -0.1981 -0.1791
   29POPC   PO4  711   3.430   1.630   8.481  0.1400  0.2013 -0.1862
   29POPC   GL1  712   3.223   1.904   8.090  0.2563 -0.1656 -0.2023
   29POPC   GL2  713   3.531   2.125   7.923  0.2040  0.2701  0.0461
   29POPC   C1A  714   3.004   2.091   7.819 -0.3630  0.3039  0.1751
   29POPC   D2A  715   2.967   2.082   7.390  0.3109 -0.1766 -0.0022
   29POPC   C3A  716   3.316   2.127   7.156 -0.0689  0.0624 -0.1731
   29POPC   C4A  717   3.380   2.020   6.726 -0.0698  0.3434  0.2229
   29POPC   C1B  718   3.725   2.310   7.563 -0.0961 -0.0853 -0.5117
   29POPC   C2B  719   3.815   2.350   7.133 -0.0803  0.2206 -0.2836
   29POPC   C3B  720   3.585   2.459   6.805 -0.0575  0.2496 -0.2993
   29POPC   C4B  721   3.444   2.446   6.384  0.1346 -0.0321  0.0905
   30POPC   NC3  722   0.450   5.796   8.441 -0.3239 -0.0711  0.1889
   30POPC   PO4  723   0.307   6.043   8.009 -0.2593 -0.1201  0.0152
   30POPC   GL1  724   0.262   5.929   7.505  0.3230  0.3127  0.0269
   30POPC   GL2  725  -0.075   6.003   7.582 -0.1682 -0.2274 -0.0331
   30POPC   C1A  726   0.575   6.065   7.138 -0.0934 -0.0039  0.0252
   30POPC   D2A  727   0.926   6.052   6.881  0.4479  0.1225 -0.1189
   30POPC   C3A  728   1.302   6.099   6.902 -0.3980  0.0128  0.1449
   30POPC   C4A  729   1.545   6.132   7.210 -0.1076  0.0285  0.0220
   30POPC   C1B  730  -0.075   5.820   7.101 -0.1936 -0.1338 -0.1332
   30POPC   C2B  731  -0.014   5.517   6.832 -0.1084  0.1697 -0.1377
   30POPC   C3B  732   0.232   5.134   6.807 -0.0978 -0.3263  0.2432
   30POPC   C4B  733   0.387   4.838   6.649 -0.0431 -0.0542 -0.1425
   31POPC   NC3  734   6.607   6.870   7.517  0.2081 -0.2329  0.0628
   31POPC   PO4  735   6.245   6.771   7.609 -0.2919 -0.0781  0.0804
   31POPC   GL1  736   6.144   6.659   7.307  0.0441 -0.4645 -0.0725
   31POPC   GL2  737   6.287   6.944   7.013  0.2560 -0.0427  0.1282
   31POPC   C1A  738   5.974   6.571   6.952 -0.0396  0.1842  0.0351
   31POPC   D2A  739   6.078   6.619   6.521 -0.1223  0.0575  0.2129
   31POPC   C3A  740   6.057   7.006   6.444  0.0804 -0.1570 -0.3182
   31POPC   C4A  741   6.118   7.024   6.055 -0.1092 -0.1272  0.2856
   31POPC   C1B  742   6.493   6.818   6.734 -0.0776  0.3026 -0.1596
   31POPC   C2B  743   6.783   6.932   6.399  0.0228  0.0516  0.1478
   31POPC   C3B  744   6.740   7.027   6.028  0.1375  0.1104  0.1707
   31POPC   C4B  745   6.584   7.306   5.832 -0.0635 -0.2165  0.0084
   32POPC   NC3  746   5.075   2.829   7.878  0.1715 -0.2663 -0.1397
   32POPC   PO4  747   5.340   2.469   7.770 -0.0752  0.1410 -0.0680
   32POPC   GL1  748   5.059   2.247   7.440 -0.1184 -0.0915  0.1385
   32POPC   GL2  749   4.739   2.380   7.301 -0.3206  0.1429 -0.0222
   32POPC   C1A  750   5.118   1.883   7.153  0.1559  0.2042 -0.1045
   32POPC   D2A  751   5.133   1.562   6.834 -0.5342 -0.6065  0.1196
   32POPC   C3A  752   5.202   1.277   6.478 -0.0086  0.3446 -0.0405
   32POPC   C4A  753   5.259   0.848   6.313  0.0341 -0.1509  0.1609
   32POPC   C1B  754   4.360   2.269   6.998 -0.0627  0.1163  0.1591
   32POPC   C2B  755   4.396   2.219   6.581  0.0763 -0.1447  0.0035
   32POPC   C3B  756   4.382   2.334   6.149  0.2076  0.0497 -0.3802
   32POPC   C4B  757   4.466   2.837   6.060  0.0132  0.0150 -0.0950
   33POPC   NC3  758   7.528   5.781   7.825  0.3180 -0.3623  0.1802
   33POPC   PO4  759   7.161   5.687   7.565  0.0837 -0.1253 -0.2407
   33POPC   GL1  760   7.213   5.527   7.159 -0.0533  0.0152  0.1674
   33POPC   GL2  761   7.550   5.314   6.914  0.1069 -0.1654  0.1928
   33POPC   C1A  762   7.161   5.570   6.664 -0.0008 -0.1165 -0.1313
   33POPC   D2A  763   7.211   5.688   6.247 -0.1176 -0.0674 -0.0481
   33POPC   C3A  764   7.628   5.763   5.976  0.0009 -0.0604  0.1155
   33POPC   C4A  765   7.575   5.861   5.471 -0.0905 -0.0316 -0.0734
   33POPC   C1B  766   7.653   5.518   6.519  0.0901 -0.0944 -0.0717
   33POPC   C2B  767   7.564   5.330   6.198 -0.0920 -0.1256 -0.1161
   33POPC   C3B  768   7.235   5.185   6.021 -0.1826 -0.2176 -0.0879
   33POPC   C4B  769   6.936   4.981   5.811  0.0902 -0.0928  0.0471
   34POPC   NC3  770   1.340   6.059   8.195 -0.1977  0.3001 -0.0275
   34POPC   PO4  771   1.774   6.203   8.053  0.0222 -0.0144  0.0278
   34POPC   GL1  772   1.847   6.086   7.636  0.0162  0.0699 -0.1603
   34POPC   GL2  773   1.907   6.448   7.496 -0.5510 -0.2344 -0.2059
   34POPC   C1A  774   2.142   5.942   7.351 -0.0250 -0.3464  0.1128
   34POPC   D2A  775   2.434   5.989   7.028  0.1471 -0.1729  0.3758
   34POPC   C3A  776   2.687   5.708   6.905  0.0656 -0.1193 -0.1770
   34POPC   C4A  777   2.794   5.356   6.737  0.1494 -0.1252 -0.0677
   34POPC   C1B  778   2.203   6.461   7.108 -0.2646  0.1278 -0.0775
   34POPC   C2B  779   2.012   6.201   6.880 -0.1818  0.1522 -0.1893
   34POPC   C3B  780   1.711   6.243   6.619  0.1973 -0.0257 -0.1056
   34POPC   C4B  781   1.445   5.907   6.490  0.1349 -0.0956  0.0180
   35POPC   NC3  782   7.548   0.867   7.800 -0.0632 -0.2064  0.3503
   35POPC   PO4  783   8.021   0.805   7.855  0.0548  0.0163  0.0022
   35POPC   GL1  784   7.903   0.913   7.419 -0.0047  0.3772 -0.1516
   35POPC   GL2  785   7.615   0.810   7.243  0.0795 -0.0603  0.1575
   35POPC   C1A  786   7.980   1.266   7.113 -0.3665  0.2252 -0.1146
   35POPC   D2A  787   8.179   1.630   6.909 -0.1978 -0.0123  0.1137
   35POPC   C3A  788   8.138   1.649   6.495  0.1316 -0.2216  0.1766
   35POPC   C4A  789   7.665   1.435   6.333 -0.1561  0.0416  0.1204
   35POPC   C1B  790   7.582   0.940   6.903  0.0225 -0.2920 -0.4929
   35POPC   C2B  791   7.493   0.963   6.464 -0.0107 -0.2262 -0.0499
   35POPC   C3B  792   7.235   0.895   6.178  0.4563 -0.2929 -0.1266
   35POPC   C4B  793   7.057   0.656   5.936  0.1332  0.0424 -0.0992
   36POPC   NC3  794   8.267   3.580   7.951  0.0912  0.0187 -0.0144
   36POPC   PO4  795   7.824   3.539   7.708 -0.1162  0.0318  0.1514
   36POPC   GL1  796   7.780   3.523   7.256  0.1087  0.1205  0.1387
   36POPC   GL2  797   7.993   3.705   7.119 -0.1120  0.0417 -0.0799
   36POPC   C1A  798   7.403   3.471   6.954 -0.2732  0.1574 -0.0067
   36POPC   D2A  799   7.041   3.699   6.813 -0.2617 -0.0411  0.0868
   36POPC   C3A  800   7.160   4.044   6.594  0.2051 -0.0189 -0.0338
   36POPC   C4A  801   7.466   4.112   6.157  0.0755  0.3317  0.0270
   36POPC   C1B  802   8.062   4.036   6.802  0.0521  0.3792 -0.0141
   36POPC   C2B  803   7.925   4.456   6.637  0.2295 -0.0323  0.0949
   36POPC   C3B  804   8.073   4.725   6.375  0.3289 -0.0150  0.3975
   36POPC   C4B  805   7.916   4.929   5.935  0.4976 -0.2032 -0.0392
   37POPC   NC3  806   3.235   0.305   8.091  0.0851  0.1630 -0.1880
   37POPC   PO4  807   3.467   0.572   7.985 -0.1384  0.2605  0.2159
   37POPC   GL1  808   3.368   0.646   7.500  0.1267 -0.0293  0.1429
   37POPC   GL2  809   3.118   0.703   7.493  0.1620  0.2254  0.1991
   37POPC   C1A  810   3.648   0.485   7.122 -0.1970  0.2344  0.1148
   37POPC   D2A  811   3.674   0.740   6.684  0.0177  0.1844  0.2092
   37POPC   C3A  812   3.618   1.063   6.454 -0.2263 -0.3707  0.3935
   37POPC   C4A  813   3.676   0.947   6.025 -0.0300  0.0330 -0.1984
   37POPC   C1B  814   3.038   1.046   7.419  0.0232 -0.0953  0.3559
   37POPC   C2B  815   2.834   1.231   7.018 -0.2100 -0.0505 -0.2204
   37POPC   C3B  816   2.572   1.295   6.645 -0.1943 -0.2587  0.0808
   37POPC   C4B  817   2.351   1.726   6.720  0.0059 -0.0202  0.0270
   38POPC   NC3  818   7.832   8.554   7.655 -0.4126  0.0600  0.0958
   38POPC   PO4  819   7.828   8.081   7.716 -0.3134  0.0250 -0.0033
   38POPC   GL1  820   8.070   8.274   7.292 -0.1622 -0.1284 -0.0029
   38POPC   GL2  821   8.160   7.964   7.074 -0.0671  0.0256 -0.0967
   38POPC   C1A  822   8.227   8.638   7.013  0.1559 -0.0599 -0.1897
   38POPC   D2A  823   7.957   8.790   6.674  0.0627 -0.1540 -0.0839
   38POPC   C3A  824   7.947   8.808   6.258  0.1467  0.1656  0.3287
   38POPC   C4A  825   8.252   8.750   5.861  0.1211  0.1142 -0.1262
   38POPC   C1B  826   8.275   7.827   6.637  0.0258  0.1384 -0.3381
   38POPC   C2B  827   8.582   7.741   6.363  0.2561  0.0720  0.0266
   38POPC   C3B  828   8.772   7.926   6.120 -0.0145  0.2069 -0.0667
   38POPC   C4B  829   8.597   8.313   6.006  0.2918  0.1825 -0.1141
   39POPC   NC3  830   8.967   7.570   7.800 -0.1016  0.2564 -0.2010
   39POPC   PO4  831   8.945   7.208   7.790  0.0824 -0.0084  0.2190
   39POPC   GL1  832   8.791   6.997   7.340 -0.2223 -0.1636  0.0446
   39POPC   GL2  833   8.703   7.189   7.129 -0.1517 -0.0822  0.1682
   39POPC   C1A  834   8.738   6.731   6.958  0.1589 -0.1228  0.0841
   39POPC   D2A  835   9.056   6.536   6.601 -0.2463  0.0228 -0.1479
   39POPC   C3A  836   9.240   6.532   6.228  0.4172 -0.1887  0.0198
   39POPC   C4A  837   9.535   6.563   5.953 -0.1742 -0.1775  0.1477
   39POPC   C1B  838   8.629   7.141   6.708  0.2942 -0.2516 -0.1026
   39POPC   C2B  839   8.659   6.776   6.431 -0.0246 -0.1513 -0.2057
   39POPC   C3B  840   8.829   6.730   6.009 -0.2444 -0.2037  0.0009
   39POPC   C4B  841   9.199   6.686   5.629  0.0491  0.3445 -0.1123
   40POPC   NC3  842   2.839   0.206   8.604 -0.0609  0.0783  0.0509
   40POPC   PO4  843   2.721   0.273   8.191 -0.0566 -0.2677  0.1014
   40POPC   GL1  844   2.834   0.246   7.744  0.5207  0.3279  0.0719
   40POPC   GL2  845   3.042   0.130   7.542  0.0811 -0.5946 -0.1175
   40POPC   C1A  846   2.670   0.456   7.437  0.1216 -0.3126 -0.0949
   40POPC   D2A  847   2.336   0.370   7.074 -0.0765  0.1127  0.2235
   40POPC   C3A  848   2.418   0.527   6.635 -0.2754  0.0625 -0.0269
   40POPC   C4A  849   2.768   0.935   6.402 -0.0122  0.0809 -0.0698
   40POPC   C1B  850   3.236   0.308   7.203 -0.1140  0.0735  0.1218
   40POPC   C2B  851   3.358   0.312   6.738 -0.0055  0.1920 -0.1072
   40POPC   C3B  852   3.481   0.360   6.355  0.1886  0.0709  0.1326
   40POPC   C4B  853   3.456   0.432   5.899  0.2460 -0.2156  0.2127
   41POPC   NC3  854   5.814   2.776   7.766 -0.0404  0.1450 -0.1722
   41POPC   PO4  855   5.482   2.926   7.548  0.3413 -0.0239  0.1408
   41POPC   GL1  856   5.272   2.834   7.165  0.0783 -0.2589  0.1408
   41POPC   GL2  857   5.198   3.166   7.056 -0.0145  0.1353  0.0052
   41POPC   C1A  858   5.099   2.578   6.977 -0.0900  0.3105 -0.2724
   41POPC   D2A  859   4.858   2.280   6.797  0.1704 -0.1806 -0.2219
   41POPC   C3A  860   4.862   2.315   6.330  0.1958  0.0763 -0.2768
   41POPC   C4A  861   4.700   2.009   5.896  0.0093  0.0512 -0.1831
   41POPC   C1B  862   5.277   2.963   6.583  0.2147 -0.2888 -0.0648
   41POPC   C2B  863   5.241   2.537   6.469 -0.1138  0.0144  0.1132
   41POPC   C3B  864   5.390   2.386   6.120 -0.2972  0.2593  0.1530
   41POPC   C4B  865   5.236   2.530   5.686  0.0400  0.2650  0.1113
   42POPC   NC3  866   1.003   7.974   7.602  0.3891 -0.0218  0.1662
   42POPC   PO4  867   0.809   8.402   7.714 -0.1022 -0.0958 -0.0079
   42POPC   GL1  868   0.738   8.600   7.307  0.3132 -0.0610 -0.1725
   42POPC   GL2  869   0.552   8.467   7.190 -0.2246  0.0074 -0.1515
   42POPC   C1A  870   0.758   8.990   6.999  0.2754 -0.0711 -0.1305
   42POPC   D2A  871   1.066   9.357   6.821 -0.0334 -0.4335  0.1321
   42POPC   C3A  872   1.246   9.305   6.385  0.0517 -0.2662  0.1602
   42POPC   C4A  873   1.218   9.342   5.958 -0.4254 -0.0361  0.0971
   42POPC   C1B  874   0.367   8.592   6.829 -0.0869  0.2894  0.0211
   42POPC   C2B  875   0.099   8.701   6.467 -0.2670 -0.4303 -0.3004
   42POPC   C3B  876  -0.100   8.771   6.125  0.1128  0.3818  0.0423
   42POPC   C4B  877  -0.344   8.476   5.969 -0.1131 -0.1971 -0.0593
   43POPC   NC3  878   8.976   6.258   7.923 -0.0421 -0.0438  0.0173
   43POPC   PO4  879   8.847   5.900   7.732  0.0704 -0.3988  0.0669
   43POPC   GL1  880   8.722   5.732   7.273 -0.0328  0.0430 -0.0542
   43POPC   GL2  881   9.017   5.526   7.082  0.0703  0.1389 -0.1704
   43POPC   C1A  882   8.594   5.891   6.890 -0.0022 -0.2986 -0.1290
   43POPC   D2A  883   8.547   6.220   6.741  0.1698  0.1032 -0.0436
   43POPC   C3A  884   8.732   6.303   6.293  0.1082 -0.1982  0.1373
   43POPC   C4A  885   8.464   6.399   5.951  0.1761  0.1574 -0.2210
   43POPC   C1B  886   9.095   5.432   6.659  0.0818  0.0841 -0.3965
   43POPC   C2B  887   9.163   5.327   6.281  0.0486 -0.2685  0.0218
   43POPC   C3B  888   9.043   5.578   5.936  0.1283  0.0377  0.1822
   43POPC   C4B  889   9.289   5.700   5.650 -0.2281  0.0416  0.0434
   44POPC   NC3  890   9.534   8.214   8.021  0.2656 -0.1612 -0.5062
   44POPC   PO4  891   9.384   8.491   7.824  0.1245 -0.1856  0.5755
   44POPC   GL1  892   9.252   8.375   7.385  0.3705 -0.0934  0.0927
   44POPC   GL2  893   9.410   8.474   7.203 -0.1260 -0.1785 -0.0242
   44POPC   C1A  894   8.857   8.402   7.021 -0.1955 -0.0090  0.0504
   44POPC   D2A  895   8.678   8.698   6.779  0.0625  0.0915  0.2496
   44POPC   C3A  896   8.472   8.627   6.369  0.0975 -0.3285  0.3081
   44POPC   C4A  897   8.163   8.316   6.281  0.1331 -0.0724 -0.2182
   44POPC   C1B  898   9.553   8.037   7.091 -0.1547  0.2730  0.0366
   44POPC   C2B  899   9.581   7.745   6.766 -0.1919  0.0580  0.4109
   44POPC   C3B  900   9.375   7.538   6.463 -0.1752 -0.0852 -0.3264
   44POPC   C4B  901   9.159   7.507   6.132  0.2100  0.1076 -0.0557
   45POPC   NC3  902   6.322   3.113   7.836 -0.0720  0.1435  0.2276
   45POPC   PO4  903   6.542   2.874   7.392  0.1300  0.3662  0.2410
   45POPC   GL1  904   6.451   2.845   6.908 -0.1147  0.1426 -0.0581
   45POPC   GL2  905   6.138   2.923   6.893  0.1757 -0.1672  0.1776
   45POPC   C1A  906   6.347   2.896   6.462  0.1027 -0.2005 -0.0650
   45POPC   D2A  907   6.312   3.255   6.328 -0.1286  0.0301 -0.2892
   45POPC   C3A  908   5.931   3.418   6.057 -0.1285  0.0543 -0.3717
   45POPC   C4A  909   5.533   3.411   5.922  0.2468  0.0151 -0.1938
   45POPC   C1B  910   6.232   2.447   6.702 -0.1166  0.0594 -0.0665
   45POPC   C2B  911   6.263   2.280   6.381 -0.1170 -0.0633 -0.0289
   45POPC   C3B  912   6.305   2.029   6.104  0.2507 -0.1832  0.1329
   45POPC   C4B  913   6.269   1.961   5.716  0.0072 -0.5206 -0.0230
   46POPC   NC3  914   0.690   6.526   7.969  0.1094  0.1006  0.0510
   46POPC   PO4  915   0.826   6.176   8.194  0.1087  0.0160 -0.3106
   46POPC   GL1  916   0.825   5.943   7.862  0.3409  0.0154 -0.2516
   46POPC   GL2  917   0.733   5.600   8.006 -0.2760 -0.2025  0.1493
   46POPC   C1A  918   0.723   5.683   7.525 -0.1481 -0.0153  0.3034
   46POPC   D2A  919   0.594   5.211   7.452 -0.1610 -0.0081 -0.0316
   46POPC   C3A  920   0.718   4.954   7.151  0.3519 -0.0461  0.0475
   46POPC   C4A  921   0.913   4.637   7.002  0.2604  0.0316  0.1473
   46POPC   C1B  922   1.122   5.539   7.808 -0.0340  0.1433  0.1512
   46POPC   C2B  923   1.091   5.311   7.442  0.2775 -0.1058 -0.2524
   46POPC   C3B  924   1.172   4.893   7.340  0.2304 -0.0851 -0.1404
   46POPC   C4B  925   1.411   4.620   7.005 -0.2738  0.0067  0.2549
   47POPC   NC3  926   7.523   7.775   7.931  0.0683  0.0220 -0.2025
   47POPC   PO4  927   7.271   7.772   7.515  0.2061  0.1537  0.1691
   47POPC   GL1  928   7.137   7.816   7.169  0.1833 -0.0858  0.0366
   47POPC   GL2  929   7.200   7.950   6.973 -0.1089 -0.1764  0.1915
   47POPC   C1A  930   7.076   7.533   6.770 -0.2471  0.1507  0.1868
   47POPC   D2A  931   6.910   7.403   6.419  0.0325  0.0689  0.3327
   47POPC   C3A  932   7.118   7.489   6.041 -0.0148  0.3130  0.3237
   47POPC   C4A  933   7.303   7.828   5.836 -0.1890  0.1112 -0.0136
   47POPC   C1B  934   7.571   8.049   6.792  0.0693  0.0804  0.1909
   47POPC   C2B  935   7.952   8.293   6.788  0.1345 -0.1484 -0.0382
   47POPC   C3B  936   8.428   8.279   6.753 -0.1454 -0.0208 -0.3917
   47POPC   C4B  937   8.749   8.256   6.485 -0.3053 -0.0887  0.2661
   48POPC   NC3  938   6.128   0.771   7.389  0.2878 -0.2762  0.1076
   48POPC   PO4  939   6.602   0.924   7.458  0.1063  0.3392 -0.0452
   48POPC   GL1  940   6.683   0.813   7.058 -0.1591 -0.2289  0.1508
   48POPC   GL2  941   6.406   1.073   6.836 -0.3361 -0.0293 -0.0869
   48POPC   C1A  942   6.759   0.416   6.806  0.1063  0.0279 -0.0849
   48POPC   D2A  943   6.644   0.167   6.517 -0.0569  0.0193  0.1159
   48POPC   C3A  944   6.310   0.189   6.298 -0.1440  0.2543 -0.2062
   48POPC   C4A  945   6.099   0.426   5.976  0.0449  0.0530 -0.1108
   48POPC   C1B  946   6.196   1.167   6.533 -0.0710  0.0085  0.0110
   48POPC   C2B  947   6.111   1.152   6.122  0.3535 -0.2599  0.0814
   48POPC   C3B  948   5.991   1.117   5.756 -0.1223  0.1639 -0.0406
   48POPC   C4B  949   6.152   0.681   5.596 -0.3049 -0.0487  0.0299
   49POPC   NC3  950   4.263   4.823   8.209 -0.0042 -0.1667 -0.0500
   49POPC   PO4  951   3.988   5.114   8.213 -0.0704  0.0759 -0.2582
   49POPC   GL1  952   3.815   4.790   7.891 -0.2039  0.2668  0.1415
   49POPC   GL2  953   3.923   4.886   7.639 -0.0941  0.0167  0.0577
   49POPC   C1A  954   3.467   4.777   7.566 -0.0895  0.1146  0.2144
   49POPC   D2A  955   3.404   4.766   7.115  0.3972 -0.0071  0.0977
   49POPC   C3A  956   3.738   4.535   6.884  0.2040 -0.2570  0.1778
   49POPC   C4A  957   3.963   4.255   6.649  0.0385  0.2904  0.0283
   49POPC   C1B  958   3.730   5.104   7.248  0.0023  0.1609 -0.1370
   49POPC   C2B  959   3.658   5.417   6.889 -0.4120 -0.0440 -0.4252
   49POPC   C3B  960   3.601   5.335   6.359  0.2438  0.0256  0.4004
   49POPC   C4B  961   3.700   5.336   5.856 -0.1101  0.2067 -0.0448
   50POPC   NC3  962   6.852   5.297   7.380  0.3199  0.1277  0.0016
   50POPC   PO4  963   6.498   5.366   7.677  0.1566 -0.0352 -0.0251
   50POPC   GL1  964   6.350   5.290   7.246 -0.2897  0.2082  0.1504
   50POPC   GL2  965   6.467   4.992   7.135  0.0396 -0.2807 -0.2786
   50POPC   C1A  966   6.125   5.543   7.049 -0.0897 -0.1917  0.0269
   50POPC   D2A  967   6.082   5.966   7.031  0.3373 -0.1414  0.1015
   50POPC   C3A  968   5.704   6.218   6.767  0.2162 -0.0238 -0.0143
   50POPC   C4A  969   5.584   6.601   6.634 -0.0692 -0.1495  0.3720
   50POPC   C1B  970   6.468   4.811   6.779 -0.3975  0.1626  0.1306
   50POPC   C2B  971   6.282   4.917   6.394  0.1269 -0.0071 -0.5267
   50POPC   C3B  972   5.905   5.135   6.235  0.1336 -0.1359  0.1540
   50POPC   C4B  973   5.461   5.359   6.019 -0.0612  0.2257  0.2094
   51POPC   NC3  974   5.339   4.786   7.384  0.0800  0.2807 -0.0569
   51POPC   PO4  975   5.394   5.243   7.595 -0.1397  0.0556  0.2149
   51POPC   GL1  976   5.430   5.338   7.203  0.1768 -0.1816  0.1209
   51POPC   GL2  977   5.755   5.146   7.148 -0.1601  0.2735  0.0456
   51POPC   C1A  978   5.602   5.616   6.957  0.0267 -0.3434 -0.0102
   51POPC   D2A  979   5.866   5.694   6.543  0.0387 -0.2649 -0.1100
   51POPC   C3A  980   5.919   5.705   6.124 -0.3305  0.1165 -0.0799
   51POPC   C4A  981   5.775   5.643   5.695 -0.3348 -0.0654  0.1013
   51POPC   C1B  982   6.004   5.120   6.725 -0.1086 -0.0751 -0.1438
   51POPC   C2B  983   6.246   5.394   6.593 -0.2422  0.1485 -0.0066
   51POPC   C3B  984   6.381   5.575   6.216 -0.3654 -0.0850 -0.0510
   51POPC   C4B  985   6.221   5.393   5.848  0.2612  0.2792  0.1619
   52POPC   NC3  986   8.207   7.826   7.579 -0.0607  0.1024  0.0496
   52POPC   PO4  987   8.599   7.575   7.442  0.0230 -0.2747 -0.0661
   52POPC   GL1  988   8.543   7.680   7.042 -0.0026  0.0096 -0.0775
   52POPC   GL2  989   8.298   7.457   6.987  0.1039  0.2350 -0.0179
   52POPC   C1A  990   8.886   7.578   6.678  0.1343  0.1579 -0.5134
   52POPC   D2A  991   9.063   7.938   6.574 -0.3078  0.2283 -0.0918
   52POPC   C3A  992   9.381   8.163   6.578 -0.2883 -0.0716  0.0763
   52POPC   C4A  993   9.729   8.273   6.441 -0.1016 -0.1126  0.2061
   52POPC   C1B  994   7.895   7.611   6.867  0.0632  0.1602 -0.1139
   52POPC   C2B  995   7.584   7.557   6.616  0.0006 -0.2118  0.1527
   52POPC   C3B  996   7.297   7.766   6.425  0.1036  0.0357  0.2128
   52POPC   C4B  997   6.901   7.916   6.149  0.1028 -0.1351  0.2821
   53POPC   NC3  998   4.652   9.034   7.221 -0.2420 -0.0806 -0.1108
   53POPC   PO4  999   4.240   8.750   7.105 -0.3321  0.3020 -0.0192
   53POPC   GL1 1000   4.381   8.923   6.804 -0.0018 -0.2943  0.2766
   53POPC   GL2 1001   4.252   9.261   6.688  0.4418 -0.1371  0.0996
   53POPC   C1A 1002   4.608   9.017   6.459 -0.3427  0.1587 -0.0629
   53POPC   D2A 1003   4.565   9.060   5.984 -0.0916 -0.2843 -0.1304
   53POPC   C3A 1004   4.732   9.420   5.801  0.2903  0.1974  0.0863
   53POPC   C4A 1005   4.786   9.558   5.459 -0.1970  0.1878  0.1847
   53POPC   C1B 1006   3.915   9.290   6.455  0.1079  0.0392 -0.3327
   53POPC   C2B 1007   3.714   9.372   6.191 -0.0897 -0.2010 -0.0733
   53POPC   C3B 1008   3.321   9.358   6.186  0.1406 -0.0188 -0.1815
   53POPC   C4B 1009   3.167   9.462   5.802 -0.0899 -0.2427 -0.0857
   54POPC   NC3 1010   6.238   1.694   7.205  0.1649 -0.0355 -0.1094
   54POPC   PO4 1011   6.109   1.298   7.304 -0.1049  0.1161 -0.2207
   54POPC   GL1 1012   5.926   1.441   6.879 -0.0785  0.0077 -0.0821
   54POPC   GL2 1013   5.644   1.711   6.729  0.0436 -0.1646 -0.0955
   54POPC   C1A 1014   5.706   1.261   6.461  0.4352  0.1376 -0.0010
   54POPC   D2A 1015   5.605   1.290   6.025  0.0399 -0.1851 -0.4464
   54POPC   C3A 1016   5.435   1.634   5.758  0.1960  0.0350 -0.0555
   54POPC   C4A 1017   5.234   1.979   5.826  0.0496  0.1536 -0.0881
   54POPC   C1B 1018   5.571   1.731   6.241  0.3700  0.0797  0.2217
   54POPC   C2B 1019   5.781   1.992   5.963 -0.0888 -0.1778 -0.0336
   54POPC   C3B 1020   5.616   2.239   5.669  0.4585  0.2108  0.1331
   54POPC   C4B 1021   5.684   2.740   5.737 -0.0625 -0.1381 -0.0020
   55POPC   NC3 1022   6.785   7.889   7.572  0.0629 -0.1461 -0.0466
   55POPC   PO4 1023   6.506   8.207   7.472  0.0337  0.3973  0.1981
   55POPC   GL1 1024   6.284   8.327   7.180  0.0339  0.3970  0.0886
   55POPC   GL2 1025   6.032   7.999   7.105 -0.1491  0.1976 -0.2420
   55POPC   C1A 1026   6.311   8.289   6.744  0.2110 -0.2496 -0.1250
   55POPC   D2A 1027   6.643   8.331   6.404 -0.1564 -0.1247  0.1181
   55POPC   C3A 1028   6.980   8.449   6.153  0.0481  0.4080 -0.2307
   55POPC   C4A 1029   7.220   8.318   5.871  0.1123  0.2375  0.0702
   55POPC   C1B 1030   5.785   7.922   6.799 -0.1619  0.0607 -0.0173
   55POPC   C2B 1031   5.634   8.009   6.369 -0.4430  0.2557  0.0227
   55POPC   C3B 1032   5.470   8.475   6.315 -0.0729 -0.1345 -0.0343
   55POPC   C4B 1033   5.632   8.877   6.290 -0.1254 -0.1585  0.3407
   56POPC   NC3 1034   3.343   1.160   8.287 -0.0606  0.1934 -0.0158
   56POPC   PO4 1035   2.858   1.264   8.230 -0.1249 -0.1789 -0.1148
   56POPC   GL1 1036   2.573   1.067   7.945  0.0839  0.0001  0.0058
   56POPC   GL2 1037   2.733   1.329   7.676  0.2559  0.2210  0.0992
   56POPC   C1A 1038   2.148   0.808   7.732 -0.0584  0.0316  0.1214
   56POPC   D2A 1039   2.017   0.622   7.353  0.0419 -0.0695 -0.0305
   56POPC   C3A 1040   1.864   0.702   6.963  0.1112  0.0260 -0.0490
   56POPC   C4A 1041   1.889   0.879   6.627 -0.1016  0.1710 -0.1028
   56POPC   C1B 1042   2.492   0.969   7.445 -0.0966 -0.1318  0.3214
   56POPC   C2B 1043   2.310   0.983   6.974  0.0457 -0.3953  0.0969
   56POPC   C3B 1044   2.092   1.308   6.816 -0.1418  0.1776 -0.1281
   56POPC   C4B 1045   1.818   1.536   6.690 -0.2133 -0.5076 -0.2989
   57POPC   NC3 1046   3.686   8.359   7.180 -0.0739  0.0790  0.0772
   57POPC   PO4 1047   3.218   8.377   7.089 -0.4434 -0.1646  0.4971
   57POPC   GL1 1048   3.272   8.377   6.657 -0.1371 -0.3966  0.1260
   57POPC   GL2 1049   3.640   8.353   6.570 -0.0438  0.0365 -0.2527
   57POPC   C1A 1050   3.312   8.362   6.224  0.1472 -0.0037  0.1147
   57POPC   D2A 1051   3.005   8.469   5.862 -0.0679 -0.3175 -0.1494
   57POPC   C3A 1052   2.969   8.860   5.881 -0.2363  0.2268  0.0192
   57POPC   C4A 1053   3.173   9.078   5.457  0.0343 -0.2767  0.1649
   57POPC   C1B 1054   3.994   8.533   6.386  0.1099 -0.0453 -0.0362
   57POPC   C2B 1055   4.141   8.871   6.224  0.1707  0.0436 -0.3117
   57POPC   C3B 1056   4.079   9.147   5.893 -0.0238 -0.0924  0.1742
   57POPC   C4B 1057   4.225   9.594   5.786  0.3208 -0.1265  0.0774
   58POPC   NC3 1058   0.876   1.750   8.434  0.0444  0.2475 -0.2631
   58POPC   PO4 1059   0.492   1.528   8.446 -0.2662  0.2031  0.0666
   58POPC   GL1 1060   0.481   1.855   8.064 -0.0925 -0.1116  0.0042
   58POPC   GL2 1061   0.219   1.911   7.962  0.0763  0.0646 -0.2748
   58POPC   C1A 1062   0.455   2.093   7.576  0.0524  0.5835 -0.1371
   58POPC   D2A 1063   0.238   2.092   7.208 -0.1304 -0.0265  0.1127
   58POPC   C3A 1064   0.331   2.563   7.016  0.0233  0.0022 -0.1815
   58POPC   C4A 1065   0.668   2.748   6.958  0.0606  0.5236 -0.1735
   58POPC   C1B 1066  -0.045   1.923   7.594  0.1257  0.0041 -0.0742
   58POPC   C2B 1067  -0.098   1.720   7.209 -0.0475 -0.2977  0.2828
   58POPC   C3B 1068  -0.270   1.921   6.798  0.2522 -0.2715 -0.0645
   58POPC   C4B 1069  -0.337   1.593   6.425 -0.3498 -0.3035 -0.0313
   59POPC   NC3 1070   9.576   8.944   7.786  0.0586 -0.1108  0.0173
   59POPC   PO4 1071   9.874   8.635   7.667 -0.1687  0.0273 -0.1488
   59POPC   GL1 1072   9.939   8.538   7.319 -0.0097  0.2576  0.0492
   59POPC   GL2 1073  10.052   8.217   7.173  0.1523 -0.5043 -0.0024
   59POPC   C1A 1074   9.809   8.622   6.904  0.0457 -0.0720  0.1723
   59POPC   D2A 1075   9.460   8.740   6.726 -0.0579 -0.0180 -0.1558
   59POPC   C3A 1076   9.109   8.583   6.546 -0.1853  0.1177 -0.0736
   59POPC   C4A 1077   9.103   8.298   6.148  0.0446  0.2123 -0.0148
   59POPC   C1B 1078  10.033   8.161   6.843  0.1327 -0.0620  0.0777
   59POPC   C2B 1079  10.287   7.971   6.618  0.2117  0.0067 -0.2378
   59POPC   C3B 1080  10.454   7.848   6.216  0.0863 -0.2074  0.0827
   59POPC   C4B 1081  10.462   7.874   5.788  0.0210  0.2313  0.0016
   60POPC   NC3 1082   4.803   1.188   7.403  0.3621  0.0781 -0.0902
   60POPC   PO4 1083   4.514   1.420   7.743  0.0539 -0.0770  0.2603
   60POPC   GL1 1084   4.125   1.535   7.563 -0.2188  0.2607 -0.0454
   60POPC   GL2 1085   4.051   1.815   7.748  0.0454 -0.1157 -0.3401
   60POPC   C1A 1086   3.957   1.442   7.172  0.1731  0.1383  0.1058
   60POPC   D2A 1087   3.940   1.195   6.878  0.1216  0.1623  0.1946
   60POPC   C3A 1088   3.532   1.386   6.803 -0.1216 -0.0478  0.0508
   60POPC   C4A 1089   3.155   1.645   7.013  0.1272  0.1789 -0.3308
   60POPC   C1B 1090   4.116   1.922   7.314  0.0572  0.1150 -0.0392
   60POPC   C2B 1091   4.206   1.828   6.935  0.0543 -0.0916  0.0435
   60POPC   C3B 1092   3.916   1.654   6.551 -0.0083  0.3029  0.0981
   60POPC   C4B 1093   3.882   1.420   6.171  0.1894  0.0061  0.0075
   61POPC   NC3 1094   5.272   8.597   7.219  0.1902 -0.4141 -0.2462
   61POPC   PO4 1095   5.090   8.491   7.583  0.1846  0.2723  0.1707
   61POPC   GL1 1096   4.996   8.069   7.303  0.1326  0.0700 -0.1581
   61POPC   GL2 1097   5.180   8.165   7.084 -0.1335  0.0134 -0.0610
   61POPC   C1A 1098   4.884   7.835   6.857  0.0973 -0.0623  0.4498
   61POPC   D2A 1099   5.124   7.680   6.497 -0.3709  0.0013  0.2055
   61POPC   C3A 1100   5.254   7.846   6.063 -0.0568 -0.0419 -0.2104
   61POPC   C4A 1101   5.429   8.221   5.878  0.0067 -0.0525 -0.1859
   61POPC   C1B 1102   5.192   8.267   6.656  0.1351  0.2000 -0.0024
   61POPC   C2B 1103   5.038   8.231   6.288  0.0624 -0.1600  0.0243
   61POPC   C3B 1104   4.640   8.066   6.172  0.0695  0.1815 -0.3189
   61POPC   C4B 1105   4.563   7.669   6.436  0.1623  0.0909  0.1370
   62POPC   NC3 1106   7.639   9.808   7.912 -0.1854 -0.0816 -0.2811
   62POPC   PO4 1107   7.599   9.937   7.552  0.2687  0.0159  0.0849
   62POPC   GL1 1108   7.819  10.091   7.146 -0.0181 -0.0086  0.2104
   62POPC   GL2 1109   7.600  10.266   6.978  0.2855 -0.1286  0.0747
   62POPC   C1A 1110   8.182   9.946   6.877 -0.0476 -0.3399 -0.0074
   62POPC   D2A 1111   8.325   9.550   6.705 -0.1476 -0.6046  0.3308
   62POPC   C3A 1112   8.531   9.638   6.289 -0.1169 -0.3467 -0.1945
   62POPC   C4A 1113   8.278   9.731   5.889 -0.1292  0.2342 -0.0269
   62POPC   C1B 1114   7.902  10.287   6.667  0.2536  0.1392 -0.2372
   62POPC   C2B 1115   7.922  10.483   6.371 -0.3387  0.1842  0.4840
   62POPC   C3B 1116   7.797  10.820   6.054 -0.0995 -0.2284 -0.1417
   62POPC   C4B 1117   7.533  10.926   5.649  0.0833 -0.0303  0.0634
   63POPC   NC3 1118   6.112   4.881   7.458 -0.0603 -0.1052  0.2915
   63POPC   PO4 1119   5.803   4.580   7.321 -0.1175 -0.3538 -0.2689
   63POPC   GL1 1120   5.580   4.757   6.932  0.0852  0.0179 -0.2165
   63POPC   GL2 1121   5.218   4.817   6.914  0.0380  0.0319  0.0238
   63POPC   C1A 1122   5.565   5.126   6.643  0.2627 -0.4219 -0.1946
   63POPC   D2A 1123   5.352   5.517   6.474 -0.2378 -0.0138  0.2126
   63POPC   C3A 1124   5.388   5.786   6.170 -0.1021  0.1625  0.0388
   63POPC   C4A 1125   5.252   5.673   5.695 -0.0228  0.3638 -0.5538
   63POPC   C1B 1126   5.011   4.570   6.723  0.0072 -0.2886 -0.1707
   63POPC   C2B 1127   4.886   4.690   6.264 -0.0725  0.2409  0.1156
   63POPC   C3B 1128   5.089   4.857   5.848  0.1498  0.0628 -0.3004
   63POPC   C4B 1129   5.268   4.657   5.473  0.1987  0.0443  0.1547
   64POPC   NC3 1130   8.313   1.011   8.194  0.2088  0.2755 -0.2664
   64POPC   PO4 1131   8.288   1.464   7.926 -0.0485 -0.0053 -0.0489
   64POPC   GL1 1132   8.376   1.282   7.517  0.0090 -0.0142 -0.0101
   64POPC   GL2 1133   8.680   1.208   7.601 -0.3839 -0.2056 -0.1581
   64POPC   C1A 1134   8.464   1.072   7.101  0.0813  0.2674  0.4070
   64POPC   D2A 1135   8.607   0.725   6.871  0.0927 -0.0349  0.1142
   64POPC   C3A 1136   8.424   0.808   6.395  0.0274  0.0870 -0.1145
   64POPC   C4A 1137   8.291   0.804   5.925  0.2097 -0.0856  0.1249
   64POPC   C1B 1138   8.927   1.052   7.276 -0.2782  0.3206  0.2021
   64POPC   C2B 1139   8.976   1.079   6.872  0.2646 -0.2307  0.2220
   64POPC   C3B 1140   9.314   1.176   6.631  0.1416 -0.0427  0.0362
   64POPC   C4B 1141   9.647   1.029   6.511  0.1393  0.1814 -0.1053
   65POPC   NC3 1142   0.471   6.955   7.627 -0.2015  0.2546 -0.0038
   65POPC   PO4 1143   0.935   6.916   7.795  0.4370  0.2976  0.0755
   65POPC   GL1 1144   0.883   6.723   7.410 -0.1217 -0.2092  0.1529
   65POPC   GL2 1145   1.037   7.028   7.299  0.0321 -0.2073 -0.0000
   65POPC   C1A 1146   0.599   6.675   7.037  0.0314  0.0992  0.1177
   65POPC   D2A 1147   0.463   6.583   6.603 -0.0573 -0.0205  0.1985
   65POPC   C3A 1148   0.528   6.126   6.596  0.0698 -0.0205  0.1546
   65POPC   C4A 1149   0.511   5.870   6.218  0.0140 -0.2825 -0.1051
   65POPC   C1B 1150   1.187   7.271   7.095  0.0055  0.1564  0.1303
   65POPC   C2B 1151   1.207   7.332   6.745 -0.0492  0.0633  0.2345
   65POPC   C3B 1152   1.226   7.725   6.532 -0.2263 -0.0480 -0.1028
   65POPC   C4B 1153   0.988   7.974   6.353 -0.0148 -0.0724  0.1458
   66POPC   NC3 1154   4.187   0.024   7.765  0.3231  0.0041  0.0531
   66POPC   PO4 1155   4.383  -0.414   7.733 -0.0781 -0.3398  0.0702
   66POPC   GL1 1156   4.388  -0.206   7.292 -0.1322  0.0435 -0.0884
   66POPC   GL2 1157   4.456  -0.469   7.062  0.6678  0.1208  0.0054
   66POPC   C1A 1158   4.471   0.086   6.881  0.3251 -0.0388  0.1841
   66POPC   D2A 1159   4.534   0.176   6.315 -0.1790  0.0359  0.2582
   66POPC   C3A 1160   4.450   0.618   6.269  0.2628  0.2575 -0.5608
   66POPC   C4A 1161   4.135   0.912   6.321 -0.1358 -0.1019 -0.1109
   66POPC   C1B 1162   4.652  -0.401   6.648  0.0698  0.2500 -0.0666
   66POPC   C2B 1163   4.840  -0.225   6.290  0.0239 -0.1200 -0.2888
   66POPC   C3B 1164   5.142  -0.263   5.848  0.1894 -0.2847 -0.2088
   66POPC   C4B 1165   5.350  -0.106   5.511  0.0728  0.1686  0.3992
   67POPC   NC3 1166   1.609   1.756   8.585 -0.0982 -0.3256 -0.1974
   67POPC   PO4 1167   1.755   1.544   8.427 -0.6930  0.1093  0.0856
   67POPC   GL1 1168   2.156   1.481   8.066  0.2019  0.1327 -0.1014
   67POPC   GL2 1169   2.545   1.587   8.047 -0.2273  0.0718  0.2040
   67POPC   C1A 1170   2.227   1.386   7.699 -0.5155  0.0776 -0.1509
   67POPC   D2A 1171   2.438   1.472   7.234  0.0032 -0.2379  0.0364
   67POPC   C3A 1172   2.709   1.778   7.076  0.1073 -0.2308 -0.0559
   67POPC   C4A 1173   2.874   2.044   6.841  0.0245  0.1087 -0.2529
   67POPC   C1B 1174   2.535   1.892   7.664 -0.1388  0.1858  0.6877
   67POPC   C2B 1175   2.387   2.096   7.261  0.0532  0.0572  0.0680
   67POPC   C3B 1176   2.363   2.233   6.797  0.1209 -0.0722  0.0141
   67POPC   C4B 1177   2.619   2.419   6.526  0.1873 -0.1408 -0.2406
   68POPC   NC3 1178   4.341   1.714   8.180 -0.0390 -0.1708 -0.1272
   68POPC   PO4 1179   4.718   1.735   8.144 -0.0016  0.1979  0.1180
   68POPC   GL1 1180   4.631   1.908   7.632  0.0156  0.2811 -0.4624
   68POPC   GL2 1181   4.612   1.694   7.321  0.1744 -0.1633  0.0499
   68POPC   C1A 1182   4.300   2.410   7.578 -0.1553 -0.1473  0.1669
   68POPC   D2A 1183   4.261   2.724   7.276  0.0643 -0.1318  0.0969
   68POPC   C3A 1184   4.143   2.676   6.777  0.1932 -0.3274  0.2302
   68POPC   C4A 1185   3.984   2.608   6.466 -0.1771  0.4133  0.0958
   68POPC   C1B 1186   4.665   1.822   6.812 -0.0369 -0.1444 -0.2124
   68POPC   C2B 1187   4.420   1.787   6.393  0.1429 -0.0875  0.0690
   68POPC   C3B 1188   4.173   1.826   6.071  0.2781 -0.2054 -0.2533
   68POPC   C4B 1189   3.869   1.991   5.832  0.1496  0.2943 -0.1274
   69POPC   NC3 1190   6.658   4.161   7.398  0.1476  0.0839  0.0325
   69POPC   PO4 1191   6.341   4.408   7.422  0.0970 -0.0705  0.2180
   69POPC   GL1 1192   6.228   4.523   7.079 -0.1997 -0.0038  0.1453
   69POPC   GL2 1193   6.501   4.354   6.939 -0.0037 -0.1868  0.1385
   69POPC   C1A 1194   6.007   4.538   6.733  0.1404 -0.1684  0.3219
   69POPC   D2A 1195   5.866   4.597   6.359  0.0779 -0.0888  0.3062
   69POPC   C3A 1196   6.068   4.664   5.914  0.0926 -0.2877 -0.3224
   69POPC   C4A 1197   6.414   4.659   5.649  0.1228  0.1602 -0.0301
   69POPC   C1B 1198   6.295   4.295   6.455 -0.1382 -0.2502  0.3832
   69POPC   C2B 1199   6.031   4.204   6.111 -0.0540  0.0278  0.2293
   69POPC   C3B 1200   6.084   4.270   5.639 -0.3291 -0.1383  0.0100
   69POPC   C4B 1201   6.087   4.387   5.245  0.1054  0.4343 -0.0514
   70POPC   NC3 1202   5.954   7.509   7.814 -0.0444 -0.0221 -0.0438
   70POPC   PO4 1203   6.264   7.786   7.521 -0.0056 -0.2482 -0.1145
   70POPC   GL1 1204   6.492   7.573   7.175  0.2123 -0.1425 -0.2798
   70POPC   GL2 1205   6.655   7.881   7.082 -0.3987  0.2618 -0.0187
   70POPC   C1A 1206   6.598   7.254   6.795 -0.1822 -0.2714 -0.0288
   70POPC   D2A 1207   6.465   7.294   6.339  0.1773 -0.1171 -0.0842
   70POPC   C3A 1208   6.160   7.565   6.102 -0.1512 -0.3289 -0.1501
   70POPC   C4A 1209   5.866   7.951   5.925  0.0235 -0.2674 -0.0629
   70POPC   C1B 1210   6.811   7.938   6.688 -0.2371  0.1670  0.1580
   70POPC   C2B 1211   7.174   8.238   6.543  0.0202  0.1737  0.2556
   70POPC   C3B 1212   7.551   8.156   6.338  0.1603  0.1627  0.0810
   70POPC   C4B 1213   7.885   7.945   6.438  0.1144 -0.3895  0.0315
   71POPC   NC3 1214   8.531   3.036   8.189  0.0636  0.3881 -0.4649
   71POPC   PO4 1215   8.791   3.472   8.026 -0.2762  0.4084 -0.1961
   71POPC   GL1 1216   8.953   3.398   7.624  0.1098  0.0911  0.3287
   71POPC   GL2 1217   8.976   3.565   7.358 -0.0546 -0.0388  0.2832
   71POPC   C1A 1218   9.043   3.039   7.289 -0.3500  0.1839 -0.1621
   71POPC   D2A 1219   8.745   2.801   7.163 -0.0010 -0.1687  0.0011
   71POPC   C3A 1220   8.940   2.434   7.264 -0.2913  0.3567  0.0134
   71POPC   C4A 1221   8.987   2.069   7.263  0.0804 -0.1125 -0.1796
   71POPC   C1B 1222   9.339   3.524   7.010  0.0778  0.3940  0.5286
   71POPC   C2B 1223   9.386   3.585   6.517 -0.1698 -0.0039 -0.2854
   71POPC   C3B 1224   9.702   3.343   6.351  0.0842 -0.2241  0.0292
   71POPC   C4B 1225  10.096   3.169   6.225  0.3097 -0.0162  0.1342
   72POPC   NC3 1226   4.960   5.422   7.369 -0.1541 -0.1511 -0.3481
   72POPC   PO4 1227   4.916   5.051   7.523  0.0459  0.3245  0.1595
   72POPC   GL1 1228   4.734   5.101   7.083  0.0092 -0.1760  0.1547
   72POPC   GL2 1229   4.937   5.311   6.847  0.0570  0.3396 -0.2359
   72POPC   C1A 1230   4.588   4.914   6.639  0.2115  0.0039 -0.2900
   72POPC   D2A 1231   4.421   5.022   6.250  0.1110 -0.3096  0.1309
   72POPC   C3A 1232   4.608   4.812   5.895 -0.2055 -0.0833 -0.2545
   72POPC   C4A 1233   4.784   4.526   5.551 -0.3225  0.1440 -0.1026
   72POPC   C1B 1234   5.015   5.074   6.500  0.0866 -0.1290 -0.2596
   72POPC   C2B 1235   5.409   4.810   6.329  0.1513 -0.2639  0.1791
   72POPC   C3B 1236   5.593   4.852   5.913  0.0694 -0.0614  0.0835
   72POPC   C4B 1237   5.865   5.108   5.715 -0.2359  0.0217  0.0507
   73POPC   NC3 1238   1.140   0.315   8.522 -0.0260 -0.0511 -0.1226
   73POPC   PO4 1239   1.005   0.387   8.081 -0.1623  0.1417 -0.0408
   73POPC   GL1 1240   1.138   0.471   7.626 -0.2019 -0.1322 -0.1396
   73POPC   GL2 1241   1.296   0.234   7.431 -0.0709  0.0853  0.1684
   73POPC   C1A 1242   0.896   0.887   7.480 -0.1814 -0.0878 -0.1917
   73POPC   D2A 1243   0.690   1.270   7.232 -0.2316 -0.2571 -0.1453
   73POPC   C3A 1244   0.658   1.377   6.788 -0.4094  0.1164 -0.0492
   73POPC   C4A 1245   0.535   1.420   6.403 -0.0265  0.1385  0.0796
   73POPC   C1B 1246   1.593   0.306   7.069  0.1255  0.3075 -0.1287
   73POPC   C2B 1247   1.539   0.408   6.490 -0.2247  0.0803 -0.0296
   73POPC   C3B 1248   1.668   0.661   6.153 -0.2337 -0.0449  0.1814
   73POPC   C4B 1249   1.730   1.008   5.948 -0.4244  0.1272  0.3256
   74POPC   NC3 1250   3.628   7.195   7.757  0.1522 -0.1020 -0.3684
   74POPC   PO4 1251   3.697   7.418   7.320  0.1325 -0.0036 -0.0269
   74POPC   GL1 1252   3.913   7.370   6.894  0.2731  0.2578 -0.1463
   74POPC   GL2 1253   3.933   7.028   6.759 -0.0882  0.0274 -0.1330
   74POPC   C1A 1254   4.034   7.553   6.403 -0.1876 -0.1872  0.1479
   74POPC   D2A 1255   4.333   7.558   6.021 -0.0244  0.0521 -0.1565
   74POPC   C3A 1256   4.767   7.521   6.000 -0.2194 -0.0003 -0.0175
   74POPC   C4A 1257   5.264   7.351   5.956  0.0745  0.1282  0.0632
   74POPC   C1B 1258   3.994   6.985   6.375  0.0550  0.1185  0.1891
   74POPC   C2B 1259   4.141   6.940   5.923  0.2643 -0.0493  0.0902
   74POPC   C3B 1260   4.469   7.216   5.705 -0.2054 -0.3379  0.2033
   74POPC   C4B 1261   4.579   7.578   5.540 -0.3625  0.0812 -0.1450
   75POPC   NC3 1262   9.141   1.625   8.049  0.1844  0.0024 -0.1033
   75POPC   PO4 1263   8.979   1.509   7.843  0.0752 -0.1960 -0.1751
   75POPC   GL1 1264   8.935   1.578   7.366  0.1156 -0.3241  0.2839
   75POPC   GL2 1265   8.600   1.659   7.191 -0.0595  0.1466  0.0830
   75POPC   C1A 1266   9.205   1.708   6.994  0.4089 -0.0195  0.0488
   75POPC   D2A 1267   9.169   1.779   6.584 -0.0654 -0.1289 -0.0885
   75POPC   C3A 1268   8.805   1.553   6.401 -0.1066 -0.2479 -0.1834
   75POPC   C4A 1269   8.545   1.304   6.666 -0.2024 -0.0701 -0.2882
   75POPC   C1B 1270   8.680   1.913   6.838  0.0247 -0.3632 -0.1563
   75POPC   C2B 1271   8.545   1.954   6.506  0.0019 -0.0822 -0.0961
   75POPC   C3B 1272   8.533   1.859   6.136  0.3758 -0.0105  0.0766
   75POPC   C4B 1273   8.761   1.882   5.813  0.2780  0.1974 -0.1908
   76POPC   NC3 1274   4.425   6.350   7.470 -0.1224  0.2688  0.0142
   76POPC   PO4 1275   4.179   6.536   7.221  0.2782  0.4524 -0.1310
   76POPC   GL1 1276   3.922   6.369   6.863 -0.1857  0.3880 -0.0347
   76POPC   GL2 1277   3.946   6.491   6.407  0.0863  0.0177 -0.1246
   76POPC   C1A 1278   3.482   6.242   6.720 -0.2204 -0.0919  0.2356
   76POPC   D2A 1279   3.323   6.234   6.395 -0.2130  0.0001 -0.2094
   76POPC   C3A 1280   3.488   6.631   6.086  0.0909  0.1340  0.2832
   76POPC   C4A 1281   3.686   6.821   5.933 -0.1329  0.1200  0.1957
   76POPC   C1B 1282   4.357   6.481   6.447 -0.2881 -0.2681  0.0404
   76POPC   C2B 1283   4.788   6.398   6.316 -0.1364  0.1684  0.0125
   76POPC   C3B 1284   4.967   6.237   5.943 -0.2123  0.0193  0.1935
   76POPC   C4B 1285   5.004   6.097   5.525  0.2408  0.3726 -0.1564
   77POPC   NC3 1286   6.734   1.071   7.960  0.0264  0.2747  0.1621
   77POPC   PO4 1287   7.097   1.009   7.663  0.3109 -0.1028  0.0318
   77POPC   GL1 1288   7.134   0.876   7.262  0.4119  0.2120 -0.4528
   77POPC   GL2 1289   7.114   1.059   7.052 -0.0453  0.2865  0.0830
   77POPC   C1A 1290   7.213   0.644   6.767  0.4084 -0.0128 -0.1734
   77POPC   D2A 1291   7.301   0.352   6.306 -0.2963  0.1667 -0.2074
   77POPC   C3A 1292   7.604   0.086   6.363 -0.1008 -0.1198  0.0194
   77POPC   C4A 1293   8.073  -0.014   6.375 -0.1526 -0.0476  0.4315
   77POPC   C1B 1294   6.856   0.974   6.624  0.1208  0.1565 -0.0177
   77POPC   C2B 1295   6.850   0.593   6.371 -0.2293  0.2689  0.0161
   77POPC   C3B 1296   6.709   0.371   6.070  0.0106 -0.0010 -0.0687
   77POPC   C4B 1297   6.490   0.329   5.660 -0.0601 -0.0933  0.0985
   78POPC   NC3 1298   8.672   3.829   7.731  0.0570 -0.2685 -0.1520
   78POPC   PO4 1299   8.196   3.890   7.547 -0.4033 -0.2142 -0.2815
   78POPC   GL1 1300   8.332   3.406   7.398 -0.1306 -0.0219  0.3017
   78POPC   GL2 1301   8.118   3.091   7.372 -0.1763  0.0712 -0.2796
   78POPC   C1A 1302   8.543   3.243   7.086  0.1591 -0.1967 -0.2800
   78POPC   D2A 1303   8.473   3.010   6.736  0.3523 -0.0085 -0.2714
   78POPC   C3A 1304   8.802   2.850   6.446 -0.0847  0.0273 -0.1575
   78POPC   C4A 1305   9.220   2.504   6.474 -0.6392  0.0307 -0.1597
   78POPC   C1B 1306   8.034   3.273   6.933 -0.2418  0.1497  0.1142
   78POPC   C2B 1307   7.877   3.527   6.586 -0.2337 -0.1844  0.2072
   78POPC   C3B 1308   7.813   3.866   6.385  0.1609  0.0521 -0.2081
   78POPC   C4B 1309   8.100   4.239   6.226 -0.1445  0.1105 -0.1412
   79POPC   NC3 1310   4.100   7.117   7.309 -0.0334  0.1020  0.1058
   79POPC   PO4 1311   3.774   6.826   7.404 -0.0165  0.0989 -0.1327
   79POPC   GL1 1312   3.458   6.618   7.035 -0.3354  0.0512  0.0963
   79POPC   GL2 1313   3.166   6.779   7.003 -0.1768  0.5550  0.1091
   79POPC   C1A 1314   3.526   6.797   6.606  0.1298  0.0528  0.4279
   79POPC   D2A 1315   3.533   7.203   6.410 -0.4211 -0.1066 -0.0232
   79POPC   C3A 1316   3.780   7.284   6.021  0.1163 -0.0261  0.3758
   79POPC   C4A 1317   3.964   7.641   5.735  0.2093 -0.1909 -0.0503
   79POPC   C1B 1318   3.019   6.588   6.604 -0.1180 -0.2074 -0.0682
   79POPC   C2B 1319   2.809   6.568   6.184 -0.1183 -0.0326  0.3190
   79POPC   C3B 1320   2.542   6.489   5.836 -0.0089  0.1224 -0.1868
   79POPC   C4B 1321   2.556   6.542   5.412  0.0179  0.0562  0.4037
   80POPC   NC3 1322   8.386   5.614   7.732  0.1356 -0.0874 -0.0644
   80POPC   PO4 1323   8.011   5.826   7.772 -0.0651  0.2702 -0.0081
   80POPC   GL1 1324   7.692   5.910   7.403  0.0612  0.0581 -0.0174
   80POPC   GL2 1325   7.715   5.752   7.135  0.2462  0.3630 -0.1228
   80POPC   C1A 1326   7.578   6.300   7.249  0.2549  0.0856  0.0077
   80POPC   D2A 1327   7.506   6.489   6.862  0.0199 -0.3268 -0.2562
   80POPC   C3A 1328   7.802   6.577   6.490 -0.1380  0.2392 -0.4457
   80POPC   C4A 1329   8.219   6.426   6.409  0.2202  0.1486 -0.3625
   80POPC   C1B 1330   7.539   5.951   6.770  0.0978 -0.0222 -0.5463
   80POPC   C2B 1331   7.465   6.114   6.435 -0.0663  0.0814  0.1809
   80POPC   C3B 1332   7.320   6.138   6.001 -0.1525  0.0620  0.2441
   80POPC   C4B 1333   7.431   6.377   5.654  0.1348 -0.2385  0.1833
   81POPC   NC3 1334   2.397   2.425   8.838  0.0479  0.0271 -0.0193
   81POPC   PO4 1335   2.453   2.874   8.709  0.1315 -0.1881 -0.1897
   81POPC   GL1 1336   2.465   2.586   8.369 -0.0940  0.2172  0.0858
   81POPC   GL2 1337   2.230   2.507   8.312 -0.3514 -0.0506  0.0962
   81POPC   C1A 1338   2.486   2.817   7.933  0.1036  0.0061  0.2303
   81POPC   D2A 1339   2.686   3.133   7.729  0.1722 -0.0795  0.0359
   81POPC   C3A 1340   2.958   3.118   7.489  0.0513  0.0472  0.1109
   81POPC   C4A 1341   3.082   3.455   7.331  0.0954 -0.1110 -0.2029
   81POPC   C1B 1342   1.983   2.396   7.916 -0.3858 -0.2610  0.0739
   81POPC   C2B 1343   1.605   2.459   7.667 -0.0311 -0.1114 -0.2700
   81POPC   C3B 1344   1.136   2.462   7.550 -0.2009  0.1904  0.0129
   81POPC   C4B 1345   1.250   2.471   7.126  0.1574 -0.0861  0.2300
   82POPC   NC3 1346   7.794   4.807   7.690 -0.1067 -0.1769  0.2026
   82POPC   PO4 1347   8.218   4.772   7.464 -0.0498 -0.0840 -0.0109
   82POPC   GL1 1348   8.308   4.745   7.006  0.0379  0.1441 -0.0316
   82POPC   GL2 1349   8.435   4.518   6.888 -0.1425 -0.1099 -0.2180
   82POPC   C1A 1350   8.611   4.997   6.741 -0.0929 -0.1924  0.1336
   82POPC   D2A 1351   8.674   5.305   6.430  0.3183 -0.0206  0.1910
   82POPC   C3A 1352   8.575   5.339   6.012  0.0613 -0.2059  0.0434
   82POPC   C4A 1353   8.477   5.705   5.734  0.2306  0.1358  0.1198
   82POPC   C1B 1354   8.529   4.535   6.467 -0.1754 -0.0572  0.1134
   82POPC   C2B 1355   8.640   4.412   6.078  0.1810 -0.1172 -0.0399
   82POPC   C3B 1356   8.912   4.687   5.791  0.0362  0.1769 -0.5064
   82POPC   C4B 1357   9.222   4.952   5.792  0.1210  0.0928  0.1606
   83POPC   NC3 1358   4.448   2.695   8.608 -0.0561  0.1506 -0.1576
   83POPC   PO4 1359   4.684   2.789   8.253  0.0123 -0.3570  0.2894
   83POPC   GL1 1360   4.567   2.912   7.750 -0.1867  0.0333  0.0414
   83POPC   GL2 1361   4.325   3.125   7.697  0.2144 -0.0928  0.0844
   83POPC   C1A 1362   4.776   2.853   7.289 -0.0630  0.0495  0.0670
   83POPC   D2A 1363   4.577   2.871   6.912 -0.1013  0.0617  0.0897
   83POPC   C3A 1364   4.843   2.725   6.581  0.2007 -0.1336 -0.3024
   83POPC   C4A 1365   4.996   2.786   6.164 -0.0255 -0.2716 -0.2726
   83POPC   C1B 1366   4.055   3.319   7.367  0.1138  0.1204  0.0110
   83POPC   C2B 1367   4.257   3.582   7.057 -0.0507 -0.2813 -0.1297
   83POPC   C3B 1368   4.254   3.581   6.634  0.2191  0.2036  0.0339
   83POPC   C4B 1369   4.743   3.738   6.256 -0.0314 -0.2035  0.1187
   84POPC   NC3 1370   5.171   5.799   7.678 -0.2013  0.1508  0.1650
   84POPC   PO4 1371   5.301   6.266   7.549 -0.1243 -0.0095 -0.1806
   84POPC   GL1 1372   5.372   6.079   7.097  0.0782  0.0805  0.0262
   84POPC   GL2 1373   5.159   5.798   7.093 -0.1201 -0.0249 -0.4250
   84POPC   C1A 1374   5.167   6.054   6.570 -0.3534 -0.3400 -0.3095
   84POPC   D2A 1375   4.914   5.869   6.300  0.2494  0.0994  0.2564
   84POPC   C3A 1376   4.782   5.810   6.009  0.3572  0.1356 -0.0039
   84POPC   C4A 1377   4.533   6.086   5.793 -0.1711  0.1396 -0.1742
   84POPC   C1B 1378   4.810   5.847   6.817  0.1492  0.2657 -0.3482
   84POPC   C2B 1379   4.611   5.506   6.533 -0.1845  0.1635 -0.0617
   84POPC   C3B 1380   4.784   5.352   6.127  0.0119 -0.1865  0.2030
   84POPC   C4B 1381   4.805   5.308   5.682  0.3079  0.0631  0.1245
   85POPC   NC3 1382   5.246   9.643   7.442 -0.0873 -0.0620 -0.1878
   85POPC   PO4 1383   4.853   9.472   7.413  0.1001 -0.0826  0.0347
   85POPC   GL1 1384   4.920   9.646   7.050 -0.0937  0.3458  0.1770
   85POPC   GL2 1385   4.888   9.908   7.108 -0.1602 -0.2379 -0.0890
   85POPC   C1A 1386   5.168   9.635   6.710 -0.0656  0.2158  0.1777
   85POPC   D2A 1387   5.423   9.353   6.383 -0.3389 -0.2921  0.2719
   85POPC   C3A 1388   5.861   9.330   6.204 -0.0913 -0.4422  0.0360
   85POPC   C4A 1389   6.120   9.117   6.007  0.1312  0.1444  0.2473
   85POPC   C1B 1390   4.939  10.021   6.684  0.2947 -0.2214  0.2568
   85POPC   C2B 1391   5.243  10.022   6.206  0.0585 -0.3603 -0.3800
   85POPC   C3B 1392   5.592   9.823   6.158 -0.1264  0.0550  0.0647
   85POPC   C4B 1393   6.024   9.833   5.981  0.1320  0.5229  0.0506
   86POPC   NC3 1394   6.660   2.375   7.587  0.0857  0.1095  0.2047
   86POPC   PO4 1395   6.135   2.465   7.553  0.0357  0.3762  0.1163
   86POPC   GL1 1396   5.850   2.536   7.195 -0.0285 -0.1800  0.1217
   86POPC   GL2 1397   5.501   2.397   7.208 -0.2131  0.1937 -0.0083
   86POPC   C1A 1398   5.669   2.674   6.829 -0.0630 -0.1897  0.1639
   86POPC   D2A 1399   5.854   2.779   6.474 -0.3372  0.0195 -0.2384
   86POPC   C3A 1400   5.537   2.879   6.136 -0.0619  0.0695 -0.0105
   86POPC   C4A 1401   5.242   3.025   5.825 -0.0033  0.2558  0.1277
   86POPC   C1B 1402   5.399   2.197   6.828 -0.0605  0.0579 -0.2720
   86POPC   C2B 1403   5.269   2.034   6.482  0.0828  0.1841  0.1291
   86POPC   C3B 1404   4.974   1.776   6.316 -0.1016 -0.1233  0.1734
   86POPC   C4B 1405   4.969   1.458   6.045 -0.2128 -0.2313 -0.0454
   87POPC   NC3 1406   0.361   7.746   8.054  0.0775 -0.2678  0.2927
   87POPC   PO4 1407   0.128   7.469   7.671  0.1938 -0.1647  0.0485
   87POPC   GL1 1408   0.226   7.237   7.328  0.0277  0.1491  0.0385
   87POPC   GL2 1409   0.118   6.884   7.309 -0.0508  0.2051 -0.1228
   87POPC   C1A 1410   0.597   7.200   6.976  0.3571  0.2398  0.2098
   87POPC   D2A 1411   0.835   7.009   6.736  0.0578 -0.1718 -0.0270
   87POPC   C3A 1412   1.300   6.870   6.688  0.1844  0.0709  0.2988
   87POPC   C4A 1413   1.529   6.727   6.445  0.3066 -0.3017 -0.2897
   87POPC   C1B 1414   0.069   6.987   6.933  0.0240 -0.0337  0.1587
   87POPC   C2B 1415   0.290   7.025   6.579  0.1628  0.1823  0.1325
   87POPC   C3B 1416   0.576   7.020   6.327 -0.2389  0.1172  0.1598
   87POPC   C4B 1417   0.971   6.858   6.298 -0.2755  0.0407  0.3033
   88POPC   NC3 1418   2.855   5.984   7.904  0.1292 -0.1564  0.2651
   88POPC   PO4 1419   2.696   5.631   7.995  0.1795  0.0508 -0.0180
   88POPC   GL1 1420   2.749   5.531   7.510 -0.1216 -0.1476  0.0226
   88POPC   GL2 1421   2.590   5.857   7.499 -0.2399 -0.0636 -0.2963
   88POPC   C1A 1422   3.018   5.533   7.243  0.0448 -0.2055 -0.0416
   88POPC   D2A 1423   3.262   5.221   6.986  0.0363  0.2625 -0.0356
   88POPC   C3A 1424   3.206   5.109   6.562 -0.1222  0.0997 -0.1557
   88POPC   C4A 1425   3.295   4.986   6.165  0.3944 -0.0492 -0.0610
   88POPC   C1B 1426   2.348   5.468   7.265 -0.2410  0.1477 -0.2124
   88POPC   C2B 1427   2.017   5.320   7.241  0.1149 -0.0045 -0.1103
   88POPC   C3B 1428   1.623   5.074   7.313  0.2056 -0.1359  0.2279
   88POPC   C4B 1429   1.387   5.099   7.786  0.3479  0.0479  0.0846
   89POPC   NC3 1430   2.869   8.364   7.546  0.0477  0.0431  0.0550
   89POPC   PO4 1431   2.448   8.259   7.322  0.1521  0.2580 -0.1669
   89POPC   GL1 1432   2.229   8.290   6.884 -0.0185  0.0118 -0.0531
   89POPC   GL2 1433   2.483   8.482   6.708  0.0971  0.0863 -0.0806
   89POPC   C1A 1434   2.154   8.123   6.379 -0.2163 -0.2814 -0.2963
   89POPC   D2A 1435   2.235   8.088   5.928  0.1007  0.0170 -0.1020
   89POPC   C3A 1436   2.604   7.810   5.911 -0.0485 -0.2022  0.2545
   89POPC   C4A 1437   2.925   7.529   5.690 -0.2647  0.2343  0.5712
   89POPC   C1B 1438   2.518   8.888   6.455  0.0476 -0.2714 -0.1118
   89POPC   C2B 1439   2.328   9.057   6.019 -0.0115 -0.0695 -0.0274
   89POPC   C3B 1440   1.981   8.944   5.786 -0.1889  0.1080 -0.0602
   89POPC   C4B 1441   1.921   8.911   5.353  0.0254 -0.0608 -0.0946
   90POPC   NC3 1442   3.518   6.258   7.855  0.0721  0.0122  0.1419
   90POPC   PO4 1443   3.208   6.028   7.497 -0.0521 -0.0859 -0.4233
   90POPC   GL1 1444   2.919   6.107   7.160  0.0002 -0.0715  0.3351
   90POPC   GL2 1445   2.768   6.408   7.076 -0.0190 -0.1695  0.0582
   90POPC   C1A 1446   2.866   6.093   6.668 -0.1086  0.2858  0.0169
   90POPC   D2A 1447   2.791   6.051   6.240 -0.0945  0.0269  0.3309
   90POPC   C3A 1448   2.478   5.725   6.422  0.0259 -0.0351 -0.0095
   90POPC   C4A 1449   2.229   5.460   6.622 -0.1716 -0.0141 -0.1951
   90POPC   C1B 1450   2.514   6.512   6.640  0.0984  0.0295 -0.2495
   90POPC   C2B 1451   2.319   6.218   6.398 -0.3248  0.3046 -0.1583
   90POPC   C3B 1452   2.012   5.970   6.390 -0.0436  0.2439 -0.1312
   90POPC   C4B 1453   1.774   5.612   6.221 -0.0285  0.1022 -0.1682
   91POPC   NC3 1454   3.559   5.524   8.237 -0.0205  0.0871 -0.1461
   91POPC   PO4 1455   3.606   5.806   7.995 -0.1099 -0.0886  0.3700
   91POPC   GL1 1456   3.743   5.755   7.586  0.2668 -0.0548  0.0634
   91POPC   GL2 1457   3.529   5.615   7.356 -0.0753  0.2327  0.1966
   91POPC   C1A 1458   4.048   5.483   7.258  0.0239 -0.1359 -0.0397
   91POPC   D2A 1459   4.333   5.409   6.929 -0.1387 -0.0147  0.0961
   91POPC   C3A 1460   4.104   5.499   6.532 -0.0417  0.3060 -0.0001
   91POPC   C4A 1461   4.226   5.569   6.067 -0.2436 -0.1394 -0.1119
   91POPC   C1B 1462   3.269   5.744   6.868 -0.1397 -0.0133 -0.0949
   91POPC   C2B 1463   3.115   5.663   6.466 -0.0772  0.2573  0.1124
   91POPC   C3B 1464   3.181   5.506   6.035  0.5132  0.1099 -0.1408
   91POPC   C4B 1465   3.285   5.160   5.669 -0.1812 -0.1320  0.2337
   92POPC   NC3 1466   1.444   9.131   7.547 -0.2108 -0.0293 -0.0418
   92POPC   PO4 1467   1.114   9.352   7.894 -0.3353 -0.0544  0.0707
   92POPC   GL1 1468   0.986   9.447   7.482 -0.0725 -0.1024  0.1609
   92POPC   GL2 1469   1.189   9.689   7.323  0.0314  0.0723 -0.0637
   92POPC   C1A 1470   0.726   9.836   7.253  0.2248  0.0439 -0.0212
   92POPC   D2A 1471   0.684  10.284   7.346 -0.1026  0.0938 -0.1168
   92POPC   C3A 1472   0.824  10.604   7.033 -0.2253 -0.0692  0.0425
   92POPC   C4A 1473   0.929  10.801   6.675 -0.1097 -0.1689  0.0827
   92POPC   C1B 1474   1.083  10.013   7.013  0.1049  0.1487  0.2039
   92POPC   C2B 1475   1.046  10.283   6.652 -0.0809 -0.0860 -0.2675
   92POPC   C3B 1476   0.916  10.480   6.294 -0.1502 -0.1281  0.0644
   92POPC   C4B 1477   0.634  10.859   6.253  0.0993  0.5247 -0.1509
   93POPC   NC3 1478   4.966   7.136   7.511 -0.0196  0.1851  0.3474
   93POPC   PO4 1479   4.605   7.328   7.482  0.1777 -0.0663  0.2421
   93POPC   GL1 1480   4.587   7.435   7.143  0.1441  0.0938  0.3792
   93POPC   GL2 1481   4.375   7.468   6.822 -0.1517 -0.1949 -0.1115
   93POPC   C1A 1482   4.844   7.334   6.747  0.2147  0.3919 -0.1968
   93POPC   D2A 1483   4.874   7.163   6.291 -0.2261  0.2664  0.0806
   93POPC   C3A 1484   4.619   6.838   6.150  0.1346  0.2187  0.1838
   93POPC   C4A 1485   4.323   6.508   5.989  0.1661  0.1774  0.2000
   93POPC   C1B 1486   4.432   7.160   6.523 -0.0772  0.0762 -0.0085
   93POPC   C2B 1487   4.680   6.751   6.647 -0.2362  0.1642  0.2648
   93POPC   C3B 1488   4.761   6.395   6.788  0.0274 -0.1068  0.3153
   93POPC   C4B 1489   5.156   6.411   6.867 -0.1996 -0.0764  0.0075
   94POPC   NC3 1490   4.272   7.818   7.299 -0.3792 -0.4745 -0.1371
   94POPC   PO4 1491   4.540   7.973   7.448  0.2407  0.4503  0.2701
   94POPC   GL1 1492   4.587   8.223   7.062  0.0115  0.0077  0.1487
   94POPC   GL2 1493   4.188   8.279   6.883 -0.2652  0.2033 -0.0432
   94POPC   C1A 1494   4.634   8.287   6.638  0.1571  0.1376 -0.0158
   94POPC   D2A 1495   4.603   8.583   6.193 -0.0560  0.4398 -0.2105
   94POPC   C3A 1496   5.030   8.618   5.945 -0.2322  0.0783 -0.2240
   94POPC   C4A 1497   5.378   8.740   5.776  0.0287 -0.0553  0.0696
   94POPC   C1B 1498   4.050   8.033   6.522  0.0151 -0.0548  0.0620
   94POPC   C2B 1499   4.170   8.026   6.154  0.1935 -0.3150  0.1932
   94POPC   C3B 1500   4.323   8.056   5.746  0.2174  0.0574 -0.3154
   94POPC   C4B 1501   4.154   8.328   5.356  0.0956  0.1895  0.1097
   95POPC   NC3 1502   5.767   7.925   7.632 -0.0966 -0.3115 -0.1359
   95POPC   PO4 1503   5.587   8.282   7.324 -0.1740 -0.2311 -0.1339
   95POPC   GL1 1504   5.812   8.491   7.064  0.4722  0.1445  0.1436
   95POPC   GL2 1505   6.023   8.825   7.013 -0.1158  0.6426 -0.2687
   95POPC   C1A 1506   5.847   8.541   6.599 -0.2876 -0.0732  0.0276
   95POPC   D2A 1507   6.154   8.458   6.234  0.1822 -0.3536 -0.1937
   95POPC   C3A 1508   5.847   8.588   5.857  0.0653  0.1436  0.0612
   95POPC   C4A 1509   5.787   8.516   5.417 -0.5187  0.1115  0.0622
   95POPC   C1B 1510   6.395   8.856   6.745 -0.1050 -0.0576 -0.3628
   95POPC   C2B 1511   6.570   9.125   6.460 -0.1110 -0.0784 -0.1372
   95POPC   C3B 1512   6.902   9.456   6.441  0.3090  0.1684  0.0574
   95POPC   C4B 1513   7.341   9.515   6.412  0.1218 -0.0878  0.1204
   96POPC   NC3 1514   5.083   9.104   7.673 -0.0557  0.0328 -0.1198
   96POPC   PO4 1515   5.299   9.173   7.255  0.0201 -0.0339  0.1152
   96POPC   GL1 1516   5.583   9.017   6.985  0.5683  0.2534 -0.1061
   96POPC   GL2 1517   5.426   8.794   6.750  0.0903 -0.1449  0.0774
   96POPC   C1A 1518   5.795   9.158   6.663  0.2788 -0.0152  0.0982
   96POPC   D2A 1519   6.139   9.233   6.610 -0.0811 -0.1424 -0.1804
   96POPC   C3A 1520   6.355   9.573   6.249 -0.1815 -0.0893 -0.1716
   96POPC   C4A 1521   6.615   9.826   6.001 -0.1204  0.1716  0.3933
   96POPC   C1B 1522   5.144   8.788   6.476 -0.1836 -0.0669  0.0460
   96POPC   C2B 1523   5.140   9.079   6.044  0.1251  0.3658  0.4689
   96POPC   C3B 1524   5.499   9.218   5.855  0.0488  0.3549 -0.0969
   96POPC   C4B 1525   5.798   9.468   5.721 -0.2663 -0.3351  0.0500
   97POPC   NC3 1526   7.141   3.169   7.851 -0.1919 -0.0198 -0.1292
   97POPC   PO4 1527   7.264   2.721   7.785  0.3337  0.0609  0.0160
   97POPC   GL1 1528   7.210   2.777   7.422 -0.0529 -0.3006 -0.0815
   97POPC   GL2 1529   7.036   2.558   7.241  0.1927  0.2047 -0.5752
   97POPC   C1A 1530   7.108   3.009   6.984  0.0397 -0.1514  0.0460
   97POPC   D2A 1531   6.770   3.265   6.801 -0.0070  0.1710  0.1454
   97POPC   C3A 1532   6.893   3.425   6.412 -0.3005  0.0587  0.0328
   97POPC   C4A 1533   7.076   3.678   6.110 -0.1322 -0.1066 -0.2652
   97POPC   C1B 1534   6.745   2.484   6.765 -0.2504 -0.0031 -0.2633
   97POPC   C2B 1535   6.661   2.472   6.267  0.0357 -0.3119  0.2498
   97POPC   C3B 1536   6.369   2.538   6.013  0.0870 -0.0398  0.2851
   97POPC   C4B 1537   6.164   2.537   5.699  0.3533  0.1498 -0.1153
   98POPC   NC3 1538   8.751   4.360   8.492  0.1385 -0.1244  0.1110
   98POPC   PO4 1539   8.914   4.272   7.917  0.2006  0.2083  0.1145
   98POPC   GL1 1540   9.001   4.106   7.534  0.2043  0.1024  0.0624
   98POPC   GL2 1541   9.085   4.389   7.398 -0.1023 -0.1483 -0.0566
   98POPC   C1A 1542   9.131   3.987   7.114  0.3112 -0.2084  0.0299
   98POPC   D2A 1543   8.952   3.892   6.764  0.0003  0.3839  0.3775
   98POPC   C3A 1544   8.925   3.404   6.681  0.0804  0.0944 -0.2885
   98POPC   C4A 1545   9.240   3.124   6.538  0.1297 -0.0071  0.0057
   98POPC   C1B 1546   9.114   4.475   6.952  0.2699  0.3690 -0.2942
   98POPC   C2B 1547   9.030   4.416   6.519 -0.1307  0.1429  0.4161
   98POPC   C3B 1548   9.164   4.401   6.120  0.1222 -0.1706 -0.0157
   98POPC   C4B 1549   9.410   4.406   5.915  0.0052  0.1047  0.0945
   99POPC   NC3 1550   0.933   3.022   8.969 -0.0639  0.2526  0.1133
   99POPC   PO4 1551   0.697   2.736   8.795 -0.0055 -0.1969  0.3803
   99POPC   GL1 1552   0.662   2.540   8.425 -0.1984 -0.1409 -0.1940
   99POPC   GL2 1553   0.763   2.262   8.319 -0.0700 -0.0484  0.3604
   99POPC   C1A 1554   0.416   2.615   8.031  0.2493 -0.1212 -0.1011
   99POPC   D2A 1555   0.408   2.583   7.592  0.2585  0.0184 -0.0106
   99POPC   C3A 1556   0.732   2.452   7.325  0.1091 -0.0144 -0.0950
   99POPC   C4A 1557   0.698   2.206   6.912  0.1248 -0.1841 -0.0897
   99POPC   C1B 1558   0.925   2.165   7.895  0.2342 -0.0430 -0.1685
   99POPC   C2B 1559   0.927   1.744   7.701 -0.2525  0.1814 -0.1316
   99POPC   C3B 1560   1.047   1.375   7.671  0.1971  0.3732  0.0349
   99POPC   C4B 1561   1.402   1.212   7.467 -0.1224 -0.2638 -0.0462
  100POPC   NC3 1562   8.749   9.548   7.695  0.0395 -0.1775  0.0190
  100POPC   PO4 1563   9.137   9.315   7.851  0.0528  0.1681  0.2442
  100POPC   GL1 1564   9.150   9.394   7.419 -0.3599 -0.0444 -0.0011
  100POPC   GL2 1565   9.395   9.366   7.231  0.1728  0.0379  0.3192
  100POPC   C1A 1566   8.916   9.517   7.076 -0.0378  0.0553 -0.5734
  100POPC   D2A 1567   8.903   9.475   6.659  0.0717 -0.2559  0.1232
  100POPC   C3A 1568   8.834   9.054   6.496  0.1836 -0.2582 -0.1715
  100POPC   C4A 1569   8.848   8.896   6.086 -0.3469 -0.5146 -0.0688
  100POPC   C1B 1570   9.314   9.814   7.129  0.3365 -0.1573  0.2459
  100POPC   C2B 1571   9.236  10.045   6.763 -0.1498 -0.2294  0.1049
  100POPC   C3B 1572   8.870  10.441   6.550  0.1833  0.1946 -0.5348
  100POPC   C4B 1573   8.877  10.951   6.372 -0.1181  0.1477  0.1570
  101POPC   NC3 1574   5.515   4.001   7.339  0.0452 -0.1037 -0.1185
  101POPC   PO4 1575   5.399   4.318   7.145 -0.0133 -0.0225 -0.1011
  101POPC   GL1 1576   5.189   4.068   6.873  0.3059  0.1595  0.1262
  101POPC   GL2 1577   4.925   4.120   6.990  0.0046 -0.2927 -0.1351
  101POPC   C1A 1578   4.987   4.141   6.468 -0.1638  0.0295  0.0833
  101POPC   D2A 1579   4.719   4.278   6.014 -0.1701  0.1124 -0.1261
  101POPC   C3A 1580   4.485   3.865   5.805 -0.0680  0.1388  0.0441
  101POPC   C4A 1581   4.422   3.545   5.453 -0.0046 -0.4359  0.0633
  101POPC   C1B 1582   4.746   3.746   6.802 -0.3357 -0.2750  0.2137
  101POPC   C2B 1583   4.696   3.325   6.625 -0.2000  0.1974 -0.2857
  101POPC   C3B 1584   4.341   3.111   6.540 -0.0677  0.3976  0.1039
  101POPC   C4B 1585   4.111   3.124   6.921 -0.1659 -0.2209 -0.1308
  102POPC   NC3 1586   2.628   4.173   9.095  0.1679 -0.1207  0.1848
  102POPC   PO4 1587   3.024   4.277   8.869 -0.3643  0.0354  0.0421
  102POPC   GL1 1588   2.850   4.396   8.505  0.0659 -0.1229  0.1965
  102POPC   GL2 1589   3.006   4.526   8.355 -0.1259 -0.1251  0.4046
  102POPC   C1A 1590   2.513   4.395   8.200  0.2794 -0.1363  0.0185
  102POPC   D2A 1591   2.132   4.656   8.174 -0.2243 -0.0498 -0.1510
  102POPC   C3A 1592   1.826   4.741   7.842 -0.1963 -0.2754 -0.1839
  102POPC   C4A 1593   1.438   4.581   7.684  0.1090 -0.3450  0.0367
  102POPC   C1B 1594   3.141   4.695   7.892  0.2253  0.1315 -0.0653
  102POPC   C2B 1595   3.016   4.645   7.436  0.0408 -0.0267 -0.1212
  102POPC   C3B 1596   2.640   4.547   7.247 -0.2646 -0.0563 -0.4974
  102POPC   C4B 1597   2.274   4.510   6.956 -0.1646 -0.3188  0.4805
  103POPC   NC3 1598   3.876   8.825   7.424  0.0137  0.2981 -0.1775
  103POPC   PO4 1599   3.893   9.168   7.089 -0.0343  0.0141 -0.2158
  103POPC   GL1 1600   3.689   9.434   6.927 -0.2569  0.1969  0.1437
  103POPC   GL2 1601   3.350   9.381   7.005 -0.5266 -0.1626 -0.0494
  103POPC   C1A 1602   3.447   9.768   6.668  0.1100  0.1472  0.0024
  103POPC   D2A 1603   3.454   9.846   6.173 -0.0576  0.1049  0.0126
  103POPC   C3A 1604   3.854  10.036   6.042  0.1857  0.1138 -0.0815
  103POPC   C4A 1605   4.000  10.457   6.100 -0.0466  0.1225  0.1701
  103POPC   C1B 1606   3.413   9.228   6.621 -0.1054  0.0787 -0.2774
  103POPC   C2B 1607   3.481   8.860   6.363 -0.4176 -0.1359 -0.0164
  103POPC   C3B 1608   3.719   8.812   6.026  0.2611 -0.0162  0.0777
  103POPC   C4B 1609   3.477   8.718   5.706 -0.1491  0.1446  0.1898
  104POPC   NC3 1610   5.037   0.366   8.157 -0.1689  0.0504  0.1539
  104POPC   PO4 1611   4.606   0.318   7.934 -0.2518  0.1161  0.1211
  104POPC   GL1 1612   4.671   0.493   7.555 -0.0999  0.2862  0.0731
  104POPC   GL2 1613   4.381   0.297   7.367  0.0376  0.1022 -0.0949
  104POPC   C1A 1614   4.528   0.708   7.127 -0.0292  0.0767 -0.0444
  104POPC   D2A 1615   4.280   0.830   6.814  0.1365  0.3059  0.1331
  104POPC   C3A 1616   4.196   0.546   6.665 -0.0707  0.1490  0.4260
  104POPC   C4A 1617   3.873   0.219   6.557 -0.0520  0.1160  0.1306
  104POPC   C1B 1618   3.989   0.142   7.135 -0.0370 -0.1470  0.1274
  104POPC   C2B 1619   4.016  -0.157   6.819  0.0701  0.1682  0.3785
  104POPC   C3B 1620   4.151  -0.202   6.562  0.1762 -0.0754 -0.1215
  104POPC   C4B 1621   4.383  -0.444   6.242 -0.1065 -0.3806  0.0835
  105POPC   NC3 1622   9.278   0.744   8.206  0.0944 -0.0236  0.0557
  105POPC   PO4 1623   8.774   0.843   8.238  0.0445  0.0116 -0.0290
  105POPC   GL1 1624   8.726   0.833   7.941 -0.0032  0.1612  0.0642
  105POPC   GL2 1625   8.450   0.735   7.621  0.1130 -0.1557  0.0910
  105POPC   C1A 1626   8.887   0.608   7.515  0.0181  0.1840 -0.1255
  105POPC   D2A 1627   9.177   0.493   7.149 -0.0838 -0.0220  0.2872
  105POPC   C3A 1628   9.410   0.661   6.793  0.0641  0.4374 -0.0526
  105POPC   C4A 1629   9.732   0.511   6.424 -0.0573  0.0277 -0.0105
  105POPC   C1B 1630   8.475   0.537   7.337 -0.1822  0.0901 -0.0210
  105POPC   C2B 1631   8.209   0.494   7.040 -0.0389  0.2400 -0.2552
  105POPC   C3B 1632   8.073   0.785   6.813  0.1341 -0.4142 -0.1981
  105POPC   C4B 1633   7.981   1.152   6.611 -0.0652 -0.0925  0.0893
  106POPC   NC3 1634   5.440   0.679   7.412 -0.4405 -0.1720 -0.0814
  106POPC   PO4 1635   5.205   1.099   7.122  0.1369 -0.3255  0.3010
  106POPC   GL1 1636   4.904   1.036   6.793 -0.0859 -0.2112  0.2433
  106POPC   GL2 1637   4.547   1.253   6.957  0.1172  0.0578  0.0039
  106POPC   C1A 1638   4.722   1.035   6.356 -0.0918 -0.0813  0.1910
  106POPC   D2A 1639   4.507   0.923   5.940  0.0510  0.3947 -0.1088
  106POPC   C3A 1640   4.175   1.001   5.739 -0.2299  0.2625  0.1113
  106POPC   C4A 1641   3.946   1.469   5.622 -0.1133  0.2207 -0.0032
  106POPC   C1B 1642   4.319   1.296   6.549  0.0046  0.2640 -0.2240
  106POPC   C2B 1643   4.391   1.378   6.121 -0.0303  0.1494  0.0275
  106POPC   C3B 1644   4.496   1.570   5.761  0.1769  0.2035 -0.0830
  106POPC   C4B 1645   4.408   1.485   5.312 -0.0658  0.0157 -0.1836
  107POPC   NC3 1646   2.830   8.176   6.916  0.0885 -0.0162  0.0615
  107POPC   PO4 1647   2.524   7.888   7.033 -0.0120  0.0738  0.1813
  107POPC   GL1 1648   2.717   7.681   6.760 -0.1055  0.0033  0.1453
  107POPC   GL2 1649   2.627   7.930   6.541 -0.1428 -0.2160  0.0018
  107POPC   C1A 1650   2.743   7.478   6.408  0.1787  0.1871  0.3388
  107POPC   D2A 1651   2.613   7.276   5.947 -0.2863 -0.0135  0.0061
  107POPC   C3A 1652   2.777   6.897   5.715  0.0815  0.1214  0.3241
  107POPC   C4A 1653   3.094   6.500   5.705 -0.5317 -0.0224 -0.0205
  107POPC   C1B 1654   2.932   8.033   6.179  0.1173 -0.1046 -0.0091
  107POPC   C2B 1655   3.106   7.957   5.855  0.1239 -0.1308 -0.1536
  107POPC   C3B 1656   3.347   8.264   5.541 -0.1233  0.0456 -0.3116
  107POPC   C4B 1657   3.343   8.615   5.176  0.1014  0.1207  0.2182
  108POPC   NC3 1658   0.260   4.031   8.637 -0.2699  0.1297  0.1476
  108POPC   PO4 1659   0.707   3.888   8.752  0.1258  0.1722 -0.1556
  108POPC   GL1 1660   1.058   3.637   8.552 -0.0748 -0.0856 -0.1467
  108POPC   GL2 1661   1.187   3.256   8.545 -0.2462  0.1180  0.0272
  108POPC   C1A 1662   1.204   3.518   8.084  0.1583  0.0582 -0.1320
  108POPC   D2A 1663   1.471   3.309   7.815 -0.0498  0.0792 -0.1421
  108POPC   C3A 1664   1.397   2.906   7.852 -0.1724 -0.0643 -0.0777
  108POPC   C4A 1665   1.217   2.564   8.067  0.1625  0.0114 -0.0383
  108POPC   C1B 1666   1.008   3.055   8.225  0.0287 -0.0339 -0.1439
  108POPC   C2B 1667   0.900   2.878   7.840 -0.0658 -0.0284  0.1582
  108POPC   C3B 1668   0.887   2.948   7.466 -0.0683 -0.3207  0.0122
  108POPC   C4B 1669   0.846   3.179   7.020 -0.0431 -0.2015  0.1072
  109POPC   NC3 1670   6.883   9.220   7.516 -0.0418 -0.0684 -0.3604
  109POPC   PO4 1671   6.475   9.535   7.613  0.0704 -0.2658 -0.0835
  109POPC   GL1 1672   6.483   9.764   7.223 -0.1813 -0.1595  0.3357
  109POPC   GL2 1673   6.432  10.210   7.218  0.0189  0.1177  0.0042
  109POPC   C1A 1674   6.818   9.808   6.842  0.0245  0.1133  0.0779
  109POPC   D2A 1675   7.211   9.978   6.645  0.0258 -0.0597 -0.1609
  109POPC   C3A 1676   7.044   9.878   6.235 -0.4168 -0.2417 -0.1900
  109POPC   C4A 1677   7.006   9.526   5.931 -0.1260  0.1726 -0.0856
  109POPC   C1B 1678   6.229  10.434   6.796  0.1563 -0.2163 -0.0653
  109POPC   C2B 1679   6.306  10.563   6.454  0.2810 -0.1055 -0.1114
  109POPC   C3B 1680   6.416  10.713   6.052 -0.3919 -0.1099 -0.0804
  109POPC   C4B 1681   6.541  10.821   5.552 -0.0204 -0.0096  0.1828
  110POPC   NC3 1682   2.677   2.277   9.505  0.2893  0.1707 -0.1397
  110POPC   PO4 1683   2.795   2.138   8.988 -0.0935 -0.1080 -0.2225
  110POPC   GL1 1684   2.489   2.066   8.517  0.0793  0.4256 -0.0575
  110POPC   GL2 1685   2.744   2.101   8.262 -0.1237 -0.0046 -0.0703
  110POPC   C1A 1686   2.194   1.961   8.267  0.5170 -0.0032  0.0975
  110POPC   D2A 1687   1.765   2.162   8.264 -0.0502  0.2613  0.0860
  110POPC   C3A 1688   1.725   2.608   8.237  0.0859 -0.3849 -0.1276
  110POPC   C4A 1689   1.557   3.015   8.398 -0.0581  0.2589 -0.1623
  110POPC   C1B 1690   2.578   2.328   7.872  0.0478  0.0717  0.2431
  110POPC   C2B 1691   2.291   2.481   7.556 -0.2474  0.4074  0.0445
  110POPC   C3B 1692   2.395   2.850   7.398 -0.0154  0.1438 -0.2273
  110POPC   C4B 1693   2.518   3.242   7.155 -0.4448 -0.0102 -0.1323
  111POPC   NC3 1694   3.934   3.715   8.295  0.4788 -0.0166  0.4324
  111POPC   PO4 1695   4.291   3.649   7.936 -0.0300  0.0424  0.0353
  111POPC   GL1 1696   4.240   3.828   7.545 -0.0286  0.0289  0.0329
  111POPC   GL2 1697   4.544   3.934   7.322 -0.0983 -0.2249 -0.4092
  111POPC   C1A 1698   3.952   3.891   7.234 -0.2079  0.5440 -0.1085
  111POPC   D2A 1699   4.297   4.025   6.921 -0.2172 -0.2413 -0.0287
  111POPC   C3A 1700   4.335   4.022   6.508  0.1137 -0.0162  0.1379
  111POPC   C4A 1701   4.292   4.125   6.156 -0.4053  0.1830  0.1732
  111POPC   C1B 1702   4.451   4.205   7.370  0.0403  0.0287 -0.2020
  111POPC   C2B 1703   4.061   4.425   7.388 -0.2408  0.0331 -0.0090
  111POPC   C3B 1704   3.638   4.317   7.276 -0.1827 -0.0976 -0.1705
  111POPC   C4B 1705   3.333   4.100   7.477  0.1912 -0.0050 -0.2078
  112POPC   NC3 1706   0.030   5.248   8.060  0.2007  0.1298 -0.1101
  112POPC   PO4 1707   0.395   5.282   8.239 -0.0089  0.0984  0.2759
  112POPC   GL1 1708   0.438   4.925   8.067 -0.1049  0.0300 -0.4374
  112POPC   GL2 1709   0.672   4.736   8.155  0.2863 -0.0662 -0.0361
  112POPC   C1A 1710   0.208   4.678   7.757  0.0845  0.2551  0.1219
  112POPC   D2A 1711  -0.068   4.531   7.439  0.0029  0.1076 -0.1857
  112POPC   C3A 1712  -0.022   4.100   7.607  0.1973 -0.2818 -0.0818
  112POPC   C4A 1713  -0.158   3.811   7.793  0.2183  0.2134  0.1940
  112POPC   C1B 1714   0.760   4.696   7.712 -0.0194 -0.2517  0.1169
  112POPC   C2B 1715   0.972   4.419   7.459 -0.0822  0.3720 -0.1767
  112POPC   C3B 1716   1.274   4.058   7.285 -0.0376  0.0570  0.0385
  112POPC   C4B 1717   1.495   3.799   7.201  0.3789 -0.0069 -0.3792
  113POPC   NC3 1718   9.635   5.562   7.624 -0.2461  0.1472 -0.2398
  113POPC   PO4 1719   9.597   5.179   7.680  0.3865 -0.0226 -0.0049
  113POPC   GL1 1720   9.936   5.138   7.532 -0.1913  0.2823 -0.0947
  113POPC   GL2 1721  10.056   5.379   7.317  0.0812  0.1950 -0.1587
  113POPC   C1A 1722  10.153   4.863   7.225  0.1473  0.1613 -0.2888
  113POPC   D2A 1723  10.404   4.527   7.310 -0.2569 -0.3909 -0.1011
  113POPC   C3A 1724  10.368   4.150   7.527  0.0088 -0.0676  0.1140
  113POPC   C4A 1725  10.253   3.734   7.623  0.0352  0.0285  0.0059
  113POPC   C1B 1726  10.324   5.640   7.095 -0.0766 -0.0305  0.3056
  113POPC   C2B 1727  10.441   5.594   6.644 -0.1377  0.2153  0.0657
  113POPC   C3B 1728  10.397   5.367   6.289 -0.0020 -0.0009  0.4399
  113POPC   C4B 1729  10.206   5.432   5.877 -0.3030 -0.0814 -0.0682
  114POPC   NC3 1730   9.326   7.102   7.541 -0.3085 -0.0286  0.0005
  114POPC   PO4 1731   9.175   7.418   7.316  0.1207  0.1910  0.2245
  114POPC   GL1 1732   9.196   7.024   7.068  0.0028  0.1298 -0.0150
  114POPC   GL2 1733   9.268   7.085   6.747  0.0286  0.0134  0.3495
  114POPC   C1A 1734   9.564   6.744   6.917 -0.0830  0.2325  0.0455
  114POPC   D2A 1735   9.767   6.708   6.574  0.0144 -0.1557 -0.2958
  114POPC   C3A 1736   9.959   6.334   6.266  0.1420 -0.1317  0.0767
  114POPC   C4A 1737  10.159   6.417   5.834  0.4467 -0.0158 -0.2400
  114POPC   C1B 1738   9.084   7.145   6.513  0.2512  0.1816 -0.0070
  114POPC   C2B 1739   8.728   7.240   6.177  0.1176 -0.0511 -0.3620
  114POPC   C3B 1740   8.312   7.388   5.958  0.1609 -0.2132 -0.0577
  114POPC   C4B 1741   7.944   7.149   5.806 -0.0110 -0.1317  0.0267
  115POPC   NC3 1742   0.290   8.240   7.666 -0.0572 -0.2726  0.0621
  115POPC   PO4 1743   0.489   7.954   7.607 -0.1671  0.2897  0.0339
  115POPC   GL1 1744   0.575   7.952   7.192 -0.0326 -0.1893 -0.1023
  115POPC   GL2 1745   0.413   7.704   7.028  0.0798  0.1852 -0.0054
  115POPC   C1A 1746   0.806   8.188   6.856 -0.0357  0.1501 -0.2637
  115POPC   D2A 1747   0.875   8.500   6.606 -0.0472  0.2237 -0.0841
  115POPC   C3A 1748   1.228   8.803   6.576  0.0545  0.0563  0.1017
  115POPC   C4A 1749   1.489   8.879   6.260  0.3636 -0.1019  0.0124
  115POPC   C1B 1750   0.103   7.488   6.702  0.5486 -0.1646 -0.0900
  115POPC   C2B 1751  -0.166   7.201   6.505  0.1419  0.1965 -0.2518
  115POPC   C3B 1752  -0.468   6.994   6.230 -0.3105 -0.1133  0.0167
  115POPC   C4B 1753  -0.764   7.072   5.943 -0.4031 -0.2189 -0.1720
  116POPC   NC3 1754   7.807   6.661   7.953  0.0076  0.4109 -0.1100
  116POPC   PO4 1755   7.921   7.000   7.701 -0.2071 -0.0679 -0.1381
  116POPC   GL1 1756   7.811   6.944   7.332  0.4111  0.0476  0.1329
  116POPC   GL2 1757   7.530   6.827   7.331 -0.1219  0.1022  0.0725
  116POPC   C1A 1758   7.751   6.980   6.834  0.0921  0.4216 -0.0584
  116POPC   D2A 1759   8.176   6.866   6.681  0.2135 -0.1420  0.1991
  116POPC   C3A 1760   8.248   6.935   6.244 -0.1092  0.0508  0.0635
  116POPC   C4A 1761   8.375   6.907   5.840  0.2561 -0.0324 -0.2815
  116POPC   C1B 1762   7.222   6.946   6.900 -0.1796 -0.1122 -0.0964
  116POPC   C2B 1763   7.350   7.128   6.486  0.1432 -0.1934  0.1186
  116POPC   C3B 1764   7.801   7.156   6.324 -0.1236  0.2708 -0.3293
  116POPC   C4B 1765   8.217   7.351   6.514 -0.0893 -0.0853 -0.3374
  117POPC   NC3 1766   0.437   8.792   7.631  0.0186 -0.1095  0.1531
  117POPC   PO4 1767   0.087   9.234   7.704  0.0129  0.0449  0.3993
  117POPC   GL1 1768   0.298   9.093   7.267  0.0870 -0.0938  0.1168
  117POPC   GL2 1769   0.440   9.437   7.254  0.2564  0.5580 -0.2464
  117POPC   C1A 1770   0.126   9.086   6.885 -0.1052  0.1769  0.0514
  117POPC   D2A 1771  -0.172   9.080   6.528  0.0011  0.1260  0.3299
  117POPC   C3A 1772  -0.572   9.076   6.268  0.1399 -0.1563  0.1306
  117POPC   C4A 1773  -0.842   9.365   6.084 -0.0221  0.1795  0.1975
  117POPC   C1B 1774   0.524   9.453   6.819  0.0323  0.0523 -0.1396
  117POPC   C2B 1775   0.406   9.847   6.548  0.1746 -0.0192  0.1344
  117POPC   C3B 1776   0.178  10.095   6.263 -0.0511  0.1754  0.2251
  117POPC   C4B 1777  -0.247  10.018   6.201  0.1418 -0.1140  0.2011
  118POPC   NC3 1778   3.029   9.061   7.248  0.0190 -0.4934  0.2513
  118POPC   PO4 1779   2.739   8.658   7.192  0.1259  0.1261 -0.1335
  118POPC   GL1 1780   2.914   8.683   6.874  0.0295 -0.4436  0.0292
  118POPC   GL2 1781   3.079   8.855   6.769  0.0005 -0.0939 -0.2628
  118POPC   C1A 1782   2.859   8.552   6.402 -0.0317  0.1275  0.3414
  118POPC   D2A 1783   2.588   8.343   6.176  0.1076 -0.1826  0.0159
  118POPC   C3A 1784   2.488   8.475   5.753 -0.2283 -0.3524  0.0131
  118POPC   C4A 1785   2.395   8.279   5.308  0.0376  0.0081  0.1429
  118POPC   C1B 1786   2.965   9.078   6.383  0.1013  0.1261 -0.3545
  118POPC   C2B 1787   2.737   9.348   6.168 -0.3062 -0.1627  0.1752
  118POPC   C3B 1788   2.761   9.647   5.831  0.0279 -0.0435 -0.0569
  118POPC   C4B 1789   2.496   9.663   5.477  0.0796 -0.2354 -0.4657
  119POPC   NC3 1790   4.695   3.604   7.662  0.3622 -0.1508 -0.0829
  119POPC   PO4 1791   5.088   3.682   7.320  0.2412 -0.0379  0.0093
  119POPC   GL1 1792   5.378   3.611   6.925 -0.0862  0.2006 -0.1651
  119POPC   GL2 1793   5.654   3.677   6.863 -0.1238  0.1735 -0.1150
  119POPC   C1A 1794   5.226   3.684   6.555  0.0750  0.2003  0.0231
  119POPC   D2A 1795   5.243   3.853   6.173  0.1348 -0.1427 -0.0902
  119POPC   C3A 1796   5.054   3.602   5.846 -0.2145  0.0735  0.2352
  119POPC   C4A 1797   5.233   3.434   5.507  0.3060 -0.1114 -0.2305
  119POPC   C1B 1798   5.725   3.774   6.416  0.0917  0.0666 -0.3140
  119POPC   C2B 1799   5.712   3.883   5.989 -0.0114 -0.0166 -0.1825
  119POPC   C3B 1800   5.464   3.995   5.576  0.0079 -0.3431  0.2061
  119POPC   C4B 1801   5.697   4.182   5.180 -0.3209 -0.2134  0.2727
  120POPC   NC3 1802   9.279   4.176   8.202  0.0422 -0.1733 -0.2832
  120POPC   PO4 1803   9.288   4.575   7.972  0.1875 -0.2798  0.1536
  120POPC   GL1 1804   9.416   4.745   7.573  0.1639 -0.0151  0.0389
  120POPC   GL2 1805   9.146   5.008   7.398  0.0782  0.3340  0.1044
  120POPC   C1A 1806   9.580   4.846   7.178 -0.0459  0.0283  0.1255
  120POPC   D2A 1807   9.610   4.782   6.775  0.1438 -0.2476  0.0428
  120POPC   C3A 1808   9.928   4.393   6.813 -0.2038 -0.0241  0.3222
  120POPC   C4A 1809  10.345   4.399   6.845  0.2201  0.1704  0.2230
  120POPC   C1B 1810   9.116   5.063   6.987  0.2968  0.1521 -0.1035
  120POPC   C2B 1811   9.035   4.899   6.607 -0.1442  0.1542  0.0723
  120POPC   C3B 1812   8.830   4.884   6.241  0.0871  0.1913  0.0463
  120POPC   C4B 1813   8.418   4.842   6.055  0.3091 -0.0513 -0.1771
  121POPC   NC3 1814   3.068   2.925   8.899 -0.0418 -0.0210 -0.0084
  121POPC   PO4 1815   2.873   2.549   8.630  0.2153  0.0856  0.0108
  121POPC   GL1 1816   2.875   2.766   8.217  0.0709 -0.1714  0.1646
  121POPC   GL2 1817   2.704   3.103   8.332  0.1845 -0.0441  0.0661
  121POPC   C1A 1818   3.216   2.893   7.860 -0.0178 -0.0769  0.0628
  121POPC   D2A 1819   3.304   2.578   7.438  0.2080  0.2349 -0.1230
  121POPC   C3A 1820   3.126   2.555   6.994 -0.2293  0.0270 -0.3111
  121POPC   C4A 1821   3.073   2.664   6.559 -0.2377  0.3960  0.3944
  121POPC   C1B 1822   2.595   3.412   8.119 -0.1148  0.0908 -0.1924
  121POPC   C2B 1823   2.203   3.555   7.934  0.1701 -0.0891  0.1199
  121POPC   C3B 1824   1.883   3.648   7.717 -0.1359  0.0866  0.0955
  121POPC   C4B 1825   1.468   3.769   7.685  0.0611 -0.0346 -0.1774
  122POPC   NC3 1826   7.697   3.982   7.502  0.1394 -0.4315 -0.3950
  122POPC   PO4 1827   7.588   4.362   7.498 -0.0042 -0.1547  0.3191
  122POPC   GL1 1828   7.541   4.287   7.068  0.1398  0.3951 -0.0499
  122POPC   GL2 1829   7.363   4.578   6.981  0.1061 -0.2235  0.1854
  122POPC   C1A 1830   7.572   3.949   6.834 -0.1251 -0.1077 -0.0145
  122POPC   D2A 1831   7.406   3.617   6.470 -0.1266 -0.1356 -0.1474
  122POPC   C3A 1832   7.681   3.466   6.166  0.0236  0.1232  0.0369
  122POPC   C4A 1833   7.882   3.028   5.950 -0.2502  0.1524 -0.1974
  122POPC   C1B 1834   7.409   4.474   6.534  0.1107 -0.1071 -0.3093
  122POPC   C2B 1835   7.591   4.642   6.233 -0.2496 -0.2136 -0.2228
  122POPC   C3B 1836   7.792   4.444   5.930 -0.3511 -0.0835 -0.0702
  122POPC   C4B 1837   7.533   4.240   5.563  0.1757 -0.2025 -0.0123
  123POPC   NC3 1838   4.744   9.915   7.592  0.0945 -0.1425  0.0357
  123POPC   PO4 1839   5.131  10.248   7.544  0.0855 -0.1519  0.2817
  123POPC   GL1 1840   5.038  10.409   7.059 -0.2311  0.0180  0.2039
  123POPC   GL2 1841   5.216  10.603   6.894  0.0286 -0.1162  0.0926
  123POPC   C1A 1842   4.744  10.451   6.659 -0.0088  0.0618 -0.0279
  123POPC   D2A 1843   4.915  10.406   6.196  0.3897 -0.2503  0.0662
  123POPC   C3A 1844   5.029  10.767   5.829  0.1775 -0.0776 -0.0366
  123POPC   C4A 1845   5.210  11.119   5.647 -0.1087  0.0414 -0.3478
  123POPC   C1B 1846   5.382  10.328   6.527 -0.2611  0.3038  0.0315
  123POPC   C2B 1847   5.505  10.010   6.657 -0.2281 -0.0306 -0.1224
  123POPC   C3B 1848   5.894   9.721   6.530  0.0277  0.0065 -0.0527
  123POPC   C4B 1849   6.298   9.758   6.738 -0.0397 -0.1214 -0.0822
  124POPC   NC3 1850   7.643   5.287   7.363  0.0292  0.1666  0.1135
  124POPC   PO4 1851   8.055   5.339   7.500 -0.2342 -0.0618  0.1682
  124POPC   GL1 1852   8.124   5.419   7.093  0.0572 -0.0255 -0.1446
  124POPC   GL2 1853   8.483   5.441   6.962 -0.0733  0.1175 -0.2180
  124POPC   C1A 1854   7.995   5.164   6.739  0.0329  0.0309  0.0588
  124POPC   D2A 1855   7.640   4.920   6.693 -0.0587  0.0344  0.0755
  124POPC   C3A 1856   7.310   4.984   6.446 -0.1506 -0.2436  0.1160
  124POPC   C4A 1857   6.959   4.863   6.313 -0.1539  0.1850 -0.4058
  124POPC   C1B 1858   8.287   5.582   6.605  0.2393  0.1329 -0.1479
  124POPC   C2B 1859   8.117   5.312   6.223  0.1859  0.0569 -0.0338
  124POPC   C3B 1860   7.897   5.395   5.761 -0.2047 -0.0848  0.3537
  124POPC   C4B 1861   7.903   5.319   5.274 -0.2995  0.1831 -0.0828
  125POPC   NC3 1862   1.519   6.652   8.301 -0.2913  0.1147 -0.1434
  125POPC   PO4 1863   1.590   6.708   7.828  0.1493 -0.3373  0.1952
  125POPC   GL1 1864   1.393   6.571   7.394  0.0672  0.0800 -0.1653
  125POPC   GL2 1865   1.608   6.681   7.208 -0.1516 -0.1778  0.0584
  125POPC   C1A 1866   1.092   6.529   6.953  0.1657  0.1342  0.1981
  125POPC   D2A 1867   1.145   6.347   6.474 -0.1198  0.0506  0.1369
  125POPC   C3A 1868   0.784   6.417   6.239 -0.1168  0.2254 -0.0477
  125POPC   C4A 1869   0.638   6.613   5.832  0.0833 -0.0754 -0.0204
  125POPC   C1B 1870   1.726   6.700   6.906  0.0044  0.0579  0.0475
  125POPC   C2B 1871   2.057   6.745   6.549  0.0575 -0.3302  0.1983
  125POPC   C3B 1872   2.130   6.597   6.089  0.0741 -0.0830 -0.2800
  125POPC   C4B 1873   2.056   6.465   5.602 -0.0178  0.2238 -0.1337
  126POPC   NC3 1874   7.419   1.343   7.483  0.1118  0.0781 -0.1494
  126POPC   PO4 1875   7.048   1.668   7.638 -0.1046  0.1010  0.3151
  126POPC   GL1 1876   7.030   1.508   7.197  0.3032 -0.2335 -0.2392
  126POPC   GL2 1877   6.734   1.497   7.074 -0.1378  0.0030 -0.2363
  126POPC   C1A 1878   7.197   1.542   6.845  0.1285  0.1006  0.1299
  126POPC   D2A 1879   7.197   1.373   6.466  0.1860  0.0755  0.0098
  126POPC   C3A 1880   6.921   1.282   6.204 -0.0700 -0.1760  0.2074
  126POPC   C4A 1881   6.886   1.148   5.747  0.2625 -0.0507  0.0714
  126POPC   C1B 1882   6.706   1.483   6.617  0.1995 -0.3630  0.2930
  126POPC   C2B 1883   6.482   1.463   6.239  0.2729 -0.1343 -0.0185
  126POPC   C3B 1884   6.428   1.386   5.768 -0.1366  0.0253 -0.1782
  126POPC   C4B 1885   6.497   1.615   5.377 -0.0933 -0.0631 -0.2219
  127POPC   NC3 1886   0.884   1.960   9.162  0.0730 -0.0386 -0.0711
  127POPC   PO4 1887   1.050   2.155   8.725  0.2366  0.2165 -0.1901
  127POPC   GL1 1888   1.267   2.035   8.316 -0.2713 -0.0068  0.2141
  127POPC   GL2 1889   1.243   1.730   8.087 -0.0330 -0.0751  0.1667
  127POPC   C1A 1890   1.426   2.116   7.917  0.0731  0.2007  0.1226
  127POPC   D2A 1891   1.401   2.022   7.541 -0.0661 -0.0758  0.3756
  127POPC   C3A 1892   1.023   2.064   7.252  0.0949 -0.2680  0.0101
  127POPC   C4A 1893   0.707   1.816   7.236  0.0190 -0.0778  0.0839
  127POPC   C1B 1894   1.576   1.541   7.845 -0.0529  0.1790  0.2235
  127POPC   C2B 1895   1.889   1.843   7.813 -0.1809  0.2607 -0.1430
  127POPC   C3B 1896   1.897   2.132   7.504 -0.0097 -0.1988 -0.1555
  127POPC   C4B 1897   1.753   2.337   7.256  0.4138  0.0388  0.0238
  128POPC   NC3 1898   1.703   8.137   7.914  0.0221 -0.1644 -0.1687
  128POPC   PO4 1899   1.444   7.855   7.837  0.2270 -0.1142 -0.0346
  128POPC   GL1 1900   1.468   8.071   7.383  0.2311  0.0826  0.4788
  128POPC   GL2 1901   1.229   7.877   7.166 -0.0971  0.2979 -0.0719
  128POPC   C1A 1902   1.362   8.315   6.982 -0.0185  0.0435  0.0984
  128POPC   D2A 1903   1.486   8.186   6.556 -0.1633 -0.2380  0.1856
  128POPC   C3A 1904   1.304   8.413   6.167  0.3925  0.0154 -0.0507
  128POPC   C4A 1905   1.006   8.773   6.147  0.2032 -0.4326  0.0670
  128POPC   C1B 1906   0.850   7.689   6.812  0.0582 -0.0254  0.0828
  128POPC   C2B 1907   0.687   7.465   6.526  0.0206 -0.1545 -0.1160
  128POPC   C3B 1908   0.274   7.413   6.236  0.0651 -0.0441 -0.3821
  128POPC   C4B 1909  -0.014   7.790   6.323  0.1656  0.1413 -0.0287
  129POPC   NC3 1910   0.904   4.681   8.632 -0.3335  0.1347  0.1700
  129POPC   PO4 1911   0.594   4.409   8.627  0.1591 -0.0072  0.3252
  129POPC   GL1 1912   0.559   4.146   8.276 -0.1548  0.2283  0.0431
  129POPC   GL2 1913   0.445   4.312   8.040 -0.0756  0.0753 -0.0885
  129POPC   C1A 1914   0.696   3.754   8.046  0.1731 -0.1053 -0.1265
  129POPC   D2A 1915   0.667   3.319   7.866  0.2823  0.1665 -0.0886
  129POPC   C3A 1916   0.592   3.359   7.465  0.0069  0.1356  0.3877
  129POPC   C4A 1917   0.476   3.609   7.096 -0.0394  0.0848 -0.1829
  129POPC   C1B 1918   0.938   4.236   7.921 -0.2117  0.0715 -0.0812
  129POPC   C2B 1919   1.331   4.094   8.038  0.0819 -0.1161  0.0359
  129POPC   C3B 1920   1.615   3.800   8.180  0.2352  0.0010  0.0412
  129POPC   C4B 1921   1.904   3.536   8.323 -0.1707  0.2291 -0.2360
  130POPC   NC3 1922   8.681   4.789   7.715  0.0566  0.1568 -0.4649
  130POPC   PO4 1923   8.547   4.329   7.528  0.1999 -0.0880 -0.0208
  130POPC   GL1 1924   8.532   4.066   7.135  0.1156  0.1968 -0.1202
  130POPC   GL2 1925   8.544   3.760   7.104 -0.0998  0.0812 -0.2334
  130POPC   C1A 1926   8.531   4.091   6.723  0.1607 -0.1564  0.0492
  130POPC   D2A 1927   8.712   4.015   6.381  0.2556  0.0172  0.4464
  130POPC   C3A 1928   8.816   3.679   6.280  0.0879  0.0469  0.2192
  130POPC   C4A 1929   8.823   3.275   6.197  0.2852 -0.0297  0.0827
  130POPC   C1B 1930   8.371   3.608   6.698  0.0040 -0.0547 -0.1036
  130POPC   C2B 1931   8.272   3.777   6.307  0.0464 -0.2281 -0.1566
  130POPC   C3B 1932   8.001   3.746   5.918  0.2622  0.1090  0.4022
  130POPC   C4B 1933   7.578   3.755   5.769  0.2669  0.2480 -0.0026
  131POPC   NC3 1934   6.449   3.320   7.163  0.1475  0.1542 -0.0751
  131POPC   PO4 1935   6.781   3.684   7.244 -0.1115 -0.1723  0.0513
  131POPC   GL1 1936   6.354   3.810   7.033 -0.1716  0.2208 -0.0128
  131POPC   GL2 1937   6.520   3.739   6.710  0.0667  0.0692  0.1218
  131POPC   C1A 1938   6.062   3.980   6.788 -0.0227  0.0070 -0.1490
  131POPC   D2A 1939   5.675   4.194   6.730 -0.1565  0.0601  0.0741
  131POPC   C3A 1940   5.526   4.224   6.305  0.1543 -0.2812 -0.1549
  131POPC   C4A 1941   5.181   4.317   5.985 -0.1190 -0.2474  0.2696
  131POPC   C1B 1942   6.715   4.028   6.414  0.0410  0.1667  0.1559
  131POPC   C2B 1943   7.005   4.244   6.177  0.0262 -0.0421 -0.0759
  131POPC   C3B 1944   7.189   4.535   5.902  0.2845 -0.0410 -0.1595
  131POPC   C4B 1945   7.496   4.735   5.693 -0.1812 -0.1066  0.2988
  132POPC   NC3 1946   2.230   8.680   7.224 -0.1260  0.0563 -0.0218
  132POPC   PO4 1947   2.456   9.028   7.440  0.0795  0.1410 -0.0046
  132POPC   GL1 1948   2.550   9.334   7.123 -0.0271  0.0008 -0.0649
  132POPC   GL2 1949   2.699   9.154   6.850 -0.1958  0.0239  0.0891
  132POPC   C1A 1950   2.376   9.386   6.554 -0.0440 -0.1824  0.1133
  132POPC   D2A 1951   1.937   9.228   6.438  0.1089  0.0638  0.2139
  132POPC   C3A 1952   1.712   9.384   6.059 -0.1776  0.1857  0.4144
  132POPC   C4A 1953   1.709   9.682   5.664  0.1257 -0.0284 -0.1941
  132POPC   C1B 1954   2.993   9.497   6.639 -0.2769 -0.2306 -0.0962
  132POPC   C2B 1955   2.998   9.841   6.376 -0.2797 -0.2281  0.0377
  132POPC   C3B 1956   2.969  10.067   6.049 -0.1391 -0.3567 -0.3075
  132POPC   C4B 1957   2.643  10.182   5.742 -0.1538  0.0675 -0.0408
  133POPC   NC3 1958   2.265   0.924   8.336  0.1081 -0.2270  0.1956
  133POPC   PO4 1959   1.888   1.058   8.364  0.0960 -0.0640 -0.2013
  133POPC   GL1 1960   1.824   1.120   7.859 -0.0481 -0.2167 -0.5098
  133POPC   GL2 1961   1.658   0.886   7.725  0.2129  0.0586 -0.1560
  133POPC   C1A 1962   1.936   1.110   7.336 -0.0089  0.0086 -0.0012
  133POPC   D2A 1963   1.643   1.177   6.986 -0.0340  0.3339 -0.3859
  133POPC   C3A 1964   1.514   1.608   7.105  0.0912  0.1597  0.0544
  133POPC   C4A 1965   1.467   2.052   6.997 -0.2157  0.2388 -0.0698
  133POPC   C1B 1966   1.527   0.734   7.388  0.3111  0.2093  0.0549
  133POPC   C2B 1967   1.394   0.701   6.935 -0.0536  0.0181  0.1298
  133POPC   C3B 1968   1.408   0.924   6.549 -0.3986  0.0541  0.2195
  133POPC   C4B 1969   1.526   1.277   6.368 -0.2979  0.0667 -0.1335
  134POPC   NC3 1970   1.592   5.498   8.786  0.2406 -0.0799  0.0494
  134POPC   PO4 1971   1.826   5.383   8.670  0.1114  0.3578 -0.0526
  134POPC   GL1 1972   1.918   5.375   8.188  0.1503 -0.2303 -0.1434
  134POPC   GL2 1973   1.800   5.634   7.963  0.0322  0.2366  0.3258
  134POPC   C1A 1974   2.002   5.246   7.753 -0.0144  0.1190  0.2817
  134POPC   D2A 1975   2.147   4.930   7.470 -0.1261  0.2634 -0.2172
  134POPC   C3A 1976   2.191   4.496   7.566  0.2261  0.0215  0.2982
  134POPC   C4A 1977   2.147   4.114   7.706  0.1294 -0.1252 -0.0242
  134POPC   C1B 1978   1.670   5.659   7.473  0.1179 -0.1096  0.1153
  134POPC   C2B 1979   1.814   5.723   6.983  0.3510 -0.1048  0.3258
  134POPC   C3B 1980   1.747   5.266   6.828  0.1548 -0.2531  0.1969
  134POPC   C4B 1981   1.717   5.089   6.478 -0.2273  0.1144 -0.5621
  135POPC   NC3 1982   2.712   9.391   7.661 -0.1447  0.0892  0.2860
  135POPC   PO4 1983   3.050   9.598   7.443 -0.0529  0.0943 -0.0516
  135POPC   GL1 1984   2.907   9.717   7.120  0.0644  0.2308  0.0543
  135POPC   GL2 1985   2.658   9.857   7.326 -0.1874 -0.0355 -0.0402
  135POPC   C1A 1986   2.837  10.144   6.824  0.2757 -0.0353  0.0997
  135POPC   D2A 1987   2.955  10.400   6.431 -0.0547 -0.0219  0.3207
  135POPC   C3A 1988   3.212  10.707   6.457  0.2344 -0.3625  0.2597
  135POPC   C4A 1989   3.144  11.130   6.603 -0.0244  0.3081 -0.1696
  135POPC   C1B 1990   2.406   9.813   6.950 -0.2716 -0.2298 -0.1528
  135POPC   C2B 1991   2.386   9.934   6.570 -0.0652 -0.0853  0.3064
  135POPC   C3B 1992   2.442   9.899   6.100 -0.0335 -0.2696 -0.1513
  135POPC   C4B 1993   2.166   9.516   5.864 -0.3787 -0.1882 -0.0717
  136POPC   NC3 1994   9.663   6.784   8.190 -0.1689 -0.4078  0.2502
  136POPC   PO4 1995  10.101   6.664   7.975  0.2233  0.1531  0.1228
  136POPC   GL1 1996  10.162   6.414   7.649  0.0946  0.1482 -0.0671
  136POPC   GL2 1997  10.433   6.367   7.525 -0.2134  0.0372 -0.0497
  136POPC   C1A 1998  10.046   6.384   7.258  0.0446  0.1254 -0.0494
  136POPC   D2A 1999  10.036   6.322   6.853 -0.0822 -0.2919 -0.0189
  136POPC   C3A 2000   9.989   5.942   6.631  0.0723  0.0827 -0.0388
  136POPC   C4A 2001   9.889   5.846   6.191  0.1923  0.0267 -0.1387
  136POPC   C1B 2002  10.884   6.262   7.437  0.3343 -0.1038  0.2812
  136POPC   C2B 2003  11.055   5.846   7.306 -0.0322  0.2109  0.1369
  136POPC   C3B 2004  11.284   5.544   7.015  0.3385 -0.2042  0.2257
  136POPC   C4B 2005  11.317   5.399   6.484  0.0810  0.0709 -0.1122
  137POPC   NC3 2006   6.578   1.624   7.602 -0.3435  0.2946  0.0985
  137POPC   PO4 2007   6.683   1.939   7.396 -0.0779  0.1095  0.1804
  137POPC   GL1 2008   6.762   1.947   6.910  0.1267 -0.2020  0.1984
  137POPC   GL2 2009   6.602   2.016   6.587  0.2502  0.0870 -0.1061
  137POPC   C1A 2010   7.059   1.994   6.611 -0.0141 -0.1790 -0.0806
  137POPC   D2A 2011   7.129   2.312   6.330  0.3741 -0.2411  0.3115
  137POPC   C3A 2012   7.534   2.455   6.328  0.0705 -0.4381  0.0166
  137POPC   C4A 2013   7.736   2.512   6.661  0.1646 -0.0321 -0.1404
  137POPC   C1B 2014   6.799   1.844   6.221  0.0959 -0.1965 -0.1473
  137POPC   C2B 2015   6.871   1.670   5.813  0.0470  0.2052 -0.0170
  137POPC   C3B 2016   6.944   1.459   5.345 -0.2846 -0.2730  0.4236
  137POPC   C4B 2017   6.782   1.628   4.856 -0.2825  0.3059 -0.2085
  138POPC   NC3 2018   6.993   8.259   7.312  0.2540  0.2588 -0.0754
  138POPC   PO4 2019   7.157   8.618   7.482 -0.0500 -0.1749 -0.0324
  138POPC   GL1 2020   7.217   8.556   6.999 -0.0173  0.0285 -0.3110
  138POPC   GL2 2021   6.825   8.427   6.891 -0.2421  0.0410 -0.3563
  138POPC   C1A 2022   7.470   8.611   6.564 -0.2187  0.0587 -0.0334
  138POPC   D2A 2023   7.486   8.720   6.205 -0.2493  0.1355 -0.2313
  138POPC   C3A 2024   7.756   8.849   5.777 -0.0029  0.0846  0.0124
  138POPC   C4A 2025   7.757   8.872   5.348  0.1645 -0.1367  0.0607
  138POPC   C1B 2026   6.887   8.767   6.628  0.0104 -0.0405 -0.0566
  138POPC   C2B 2027   7.209   9.044   6.574  0.2213 -0.1642  0.0253
  138POPC   C3B 2028   7.624   9.109   6.479 -0.2211  0.1618 -0.0469
  138POPC   C4B 2029   7.790   9.504   6.656 -0.1026 -0.1343 -0.1145
  139POPC   NC3 2030   7.318   4.118   7.825  0.1634 -0.0987  0.0297
  139POPC   PO4 2031   7.087   4.427   7.493  0.0842  0.3038 -0.0291
  139POPC   GL1 2032   6.857   4.648   7.065  0.3105 -0.3994 -0.0159
  139POPC   GL2 2033   7.059   5.039   6.947 -0.0598 -0.0111  0.2832
  139POPC   C1A 2034   6.829   4.458   6.591 -0.0829 -0.1296  0.1112
  139POPC   D2A 2035   6.580   4.559   6.140  0.1240  0.2349  0.0491
  139POPC   C3A 2036   6.542   4.129   5.926 -0.3279  0.4428  0.1320
  139POPC   C4A 2037   6.237   3.793   5.762 -0.0782  0.3059 -0.0249
  139POPC   C1B 2038   6.770   5.254   6.647 -0.0316  0.0517  0.0129
  139POPC   C2B 2039   6.773   5.267   6.192 -0.3241 -0.1617 -0.1229
  139POPC   C3B 2040   6.723   5.483   5.846 -0.0317 -0.3691 -0.0500
  139POPC   C4B 2041   6.574   5.332   5.480 -0.1740  0.0310 -0.0661
  140POPC   NC3 2042   5.103   7.497   8.015  0.1623  0.1538  0.2981
  140POPC   PO4 2043   5.443   7.490   7.738  0.0585  0.0983  0.0610
  140POPC   GL1 2044   5.629   7.543   7.363  0.1936 -0.0497  0.0070
  140POPC   GL2 2045   5.432   7.661   7.253 -0.1282 -0.1532  0.3515
  140POPC   C1A 2046   5.971   7.481   7.051 -0.2219  0.0620 -0.0217
  140POPC   D2A 2047   6.325   7.683   6.694 -0.2347  0.2750 -0.1042
  140POPC   C3A 2048   6.100   7.936   6.457  0.0889 -0.2284  0.1881
  140POPC   C4A 2049   6.335   8.013   6.106 -0.0548 -0.0452  0.3667
  140POPC   C1B 2050   5.502   7.530   6.864 -0.0829  0.2677  0.0752
  140POPC   C2B 2051   5.313   7.209   6.484  0.0172  0.2203  0.2749
  140POPC   C3B 2052   5.603   7.039   6.172  0.2092 -0.1083 -0.3405
  140POPC   C4B 2053   5.833   6.638   6.079  0.3052  0.1968 -0.0032
  141POPC   NC3 2054   0.539   9.916   8.109  0.1485  0.2550  0.3504
  141POPC   PO4 2055   0.376   9.835   7.774  0.2207 -0.1271  0.2432
  141POPC   GL1 2056   0.176   9.938   7.438 -0.4858  0.0872  0.3152
  141POPC   GL2 2057  -0.123   9.710   7.331 -0.1331 -0.1950 -0.1514
  141POPC   C1A 2058   0.300  10.032   7.068 -0.1464  0.2700  0.1106
  141POPC   D2A 2059   0.545  10.213   6.798 -0.1107  0.3757 -0.0119
  141POPC   C3A 2060   0.447  10.429   6.425  0.2085  0.2302  0.2456
  141POPC   C4A 2061   0.280  10.498   5.985 -0.3464  0.0955 -0.1704
  141POPC   C1B 2062   0.046   9.611   6.960  0.1008 -0.1894  0.1145
  141POPC   C2B 2063   0.036   9.513   6.535 -0.1676  0.3675 -0.0191
  141POPC   C3B 2064   0.270   9.245   6.368  0.2780  0.2806  0.0183
  141POPC   C4B 2065   0.695   9.153   6.097  0.2190  0.1872 -0.0787
  142POPC   NC3 2066   1.436   9.743   7.809 -0.2176 -0.2384 -0.0664
  142POPC   PO4 2067   1.711   9.785   7.508 -0.2215  0.1418 -0.0355
  142POPC   GL1 2068   1.968   9.852   7.119  0.2334  0.3952 -0.1611
  142POPC   GL2 2069   1.997   9.541   7.003 -0.6018 -0.1542 -0.1545
  142POPC   C1A 2070   1.988  10.114   6.708 -0.1111 -0.0624 -0.0902
  142POPC   D2A 2071   2.113  10.346   6.227 -0.2436 -0.2004  0.1536
  142POPC   C3A 2072   2.518  10.533   6.115  0.1045 -0.1931  0.2933
  142POPC   C4A 2073   2.965  10.540   5.950  0.0512 -0.0167 -0.1344
  142POPC   C1B 2074   1.998   9.685   6.538 -0.0199  0.1257  0.1967
  142POPC   C2B 2075   1.893   9.951   6.106 -0.0414  0.3826 -0.1263
  142POPC   C3B 2076   2.158  10.115   5.773 -0.1956  0.1384  0.0393
  142POPC   C4B 2077   2.251  10.123   5.328  0.2043 -0.2722  0.0835
  143POPC   NC3 2078   4.504   5.855   8.126 -0.0703  0.0934 -0.1730
  143POPC   PO4 2079   4.679   5.823   7.625  0.1783  0.1011 -0.0106
  143POPC   GL1 2080   4.476   5.823   7.251 -0.0787 -0.2940  0.0816
  143POPC   GL2 2081   4.146   5.963   7.277 -0.1042  0.0207  0.1094
  143POPC   C1A 2082   4.292   6.023   6.790 -0.0116  0.1986 -0.0559
  143POPC   D2A 2083   4.329   5.966   6.341  0.2596  0.1178 -0.2504
  143POPC   C3A 2084   4.038   5.965   5.989 -0.1379  0.0815  0.0674
  143POPC   C4A 2085   3.816   6.290   5.755 -0.2841  0.1791  0.2406
  143POPC   C1B 2086   3.821   5.846   6.969  0.3456  0.1017  0.2683
  143POPC   C2B 2087   3.683   5.838   6.569 -0.0621 -0.3026  0.0802
  143POPC   C3B 2088   3.503   5.831   6.136 -0.3011  0.2624 -0.1080
  143POPC   C4B 2089   3.314   6.106   5.894  0.1724 -0.0915 -0.3914
  144POPC   NC3 2090   5.936   0.718   3.518  0.1712  0.1226  0.1439
  144POPC   PO4 2091   5.621   0.568   3.746  0.1105  0.1387 -0.1201
  144POPC   GL1 2092   6.000   0.651   4.126 -0.0448 -0.1820  0.1393
  144POPC   GL2 2093   6.201   0.357   4.318 -0.4553 -0.2293  0.0247
  144POPC   C1A 2094   6.080   1.013   4.547  0.1935 -0.0790 -0.1259
  144POPC   D2A 2095   6.478   1.233   4.670  0.3384  0.0802 -0.0179
  144POPC   C3A 2096   6.662   1.028   5.083 -0.1830 -0.1462  0.2991
  144POPC   C4A 2097   7.006   0.869   5.321  0.1437 -0.1660  0.1687
  144POPC   C1B 2098   5.999   0.594   4.700  0.0464 -0.2666  0.0428
  144POPC   C2B 2099   6.260   0.702   4.998  0.0695  0.0788 -0.2863
  144POPC   C3B 2100   6.626   0.540   5.195 -0.3122  0.0728 -0.1523
  144POPC   C4B 2101   7.063   0.448   4.984  0.3874  0.3229  0.0606
  145POPC   NC3 2102   2.188   1.212   3.605  0.0844  0.0251 -0.1355
  145POPC   PO4 2103   2.703   1.258   3.561 -0.2075  0.1775  0.2088
  145POPC   GL1 2104   2.834   1.244   4.057 -0.2638  0.0887 -0.1128
  145POPC   GL2 2105   3.203   1.175   4.199 -0.1841 -0.2487  0.3873
  145POPC   C1A 2106   2.760   0.856   4.416 -0.1697  0.0560  0.1262
  145POPC   D2A 2107   2.829   0.551   4.785 -0.0098  0.0081 -0.0476
  145POPC   C3A 2108   2.971   0.702   5.236  0.0327  0.0528  0.2512
  145POPC   C4A 2109   3.224   0.909   5.562 -0.0056 -0.0840  0.1113
  145POPC   C1B 2110   3.487   1.241   4.533  0.1089  0.0005 -0.2152
  145POPC   C2B 2111   3.895   1.011   4.535 -0.1768  0.1201 -0.3056
  145POPC   C3B 2112   4.108   0.768   4.799 -0.3016 -0.4060 -0.0195
  145POPC   C4B 2113   4.027   0.641   5.233  0.0845  0.3010  0.0985
  146POPC   NC3 2114   8.132   1.131   3.913  0.0221  0.2280  0.0844
  146POPC   PO4 2115   7.933   0.828   3.856  0.0458 -0.1775  0.1305
  146POPC   GL1 2116   7.777   1.012   4.227 -0.1670 -0.1421  0.0368
  146POPC   GL2 2117   8.000   1.083   4.541  0.1315  0.2404  0.0544
  146POPC   C1A 2118   7.439   1.149   4.488  0.0801 -0.1490  0.1207
  146POPC   D2A 2119   6.974   1.166   4.438 -0.2172 -0.3048  0.0055
  146POPC   C3A 2120   6.801   1.651   4.327  0.0080  0.0325 -0.0942
  146POPC   C4A 2121   6.786   1.847   3.989 -0.3356 -0.2286  0.1842
  146POPC   C1B 2122   8.014   0.693   4.769 -0.2283  0.2041 -0.1620
  146POPC   C2B 2123   7.923   0.263   5.045  0.0037  0.0149  0.2084
  146POPC   C3B 2124   8.023   0.175   5.518 -0.2147  0.0345 -0.0489
  146POPC   C4B 2125   7.756   0.397   5.838  0.1066 -0.0817 -0.1733
  147POPC   NC3 2126   4.284   0.169   3.542 -0.1316 -0.0842 -0.0280
  147POPC   PO4 2127   3.842   0.191   3.696 -0.3700  0.2167 -0.0613
  147POPC   GL1 2128   3.793   0.140   4.143 -0.0678  0.1163  0.0279
  147POPC   GL2 2129   3.563  -0.063   4.046 -0.0800 -0.3004  0.5360
  147POPC   C1A 2130   3.837   0.030   4.558  0.2644  0.0066 -0.1347
  147POPC   D2A 2131   3.942  -0.038   5.012  0.2279 -0.2055 -0.0683
  147POPC   C3A 2132   3.985   0.122   5.448 -0.0107  0.0630 -0.4035
  147POPC   C4A 2133   4.394   0.511   5.581  0.2609  0.1757 -0.1467
  147POPC   C1B 2134   3.389  -0.248   4.458 -0.3254 -0.1674 -0.1051
  147POPC   C2B 2135   3.469  -0.185   4.902  0.0930 -0.0708 -0.1251
  147POPC   C3B 2136   3.529  -0.084   5.316  0.2878 -0.0905 -0.2419
  147POPC   C4B 2137   3.499  -0.058   5.707  0.3008 -0.2433 -0.1448
  148POPC   NC3 2138   3.350   4.893   3.443 -0.1022  0.2256  0.0774
  148POPC   PO4 2139   3.775   4.906   3.388 -0.0251 -0.1955  0.1939
  148POPC   GL1 2140   3.712   4.879   3.877  0.1469 -0.0372  0.0006
  148POPC   GL2 2141   3.562   5.132   3.972 -0.1461  0.0920  0.3303
  148POPC   C1A 2142   3.861   4.826   4.237  0.2015  0.0614 -0.2319
  148POPC   D2A 2143   4.126   4.710   4.609 -0.0194  0.1883  0.0310
  148POPC   C3A 2144   4.403   5.088   4.778 -0.1780  0.2425  0.0600
  148POPC   C4A 2145   4.525   5.477   4.740 -0.3926 -0.1492 -0.0121
  148POPC   C1B 2146   3.516   5.246   4.403  0.1584 -0.0162 -0.0368
  148POPC   C2B 2147   3.312   5.283   4.836 -0.0327 -0.0499 -0.0425
  148POPC   C3B 2148   3.516   5.100   5.207  0.0605  0.0755  0.1646
  148POPC   C4B 2149   3.734   4.930   5.519 -0.1363 -0.3397 -0.0616
  149POPC   NC3 2150   4.289   2.833   3.312 -0.0729 -0.0877  0.0209
  149POPC   PO4 2151   4.308   2.389   3.579 -0.0718  0.2880  0.0792
  149POPC   GL1 2152   4.401   2.255   3.961 -0.1678  0.0952 -0.1046
  149POPC   GL2 2153   4.694   2.331   3.868 -0.0774 -0.0681  0.2637
  149POPC   C1A 2154   4.506   2.239   4.361 -0.1876 -0.3084  0.1353
  149POPC   D2A 2155   4.245   2.271   4.650  0.1207  0.0136  0.1099
  149POPC   C3A 2156   4.199   2.366   5.083 -0.1818 -0.0555 -0.1431
  149POPC   C4A 2157   4.318   2.503   5.581 -0.1868  0.0436 -0.0866
  149POPC   C1B 2158   4.968   2.383   4.222  0.2753  0.4839  0.2735
  149POPC   C2B 2159   4.846   2.520   4.665  0.0585 -0.2804  0.0670
  149POPC   C3B 2160   4.736   2.462   5.062  0.0903  0.1557 -0.1001
  149POPC   C4B 2161   4.818   2.374   5.494 -0.2201 -0.0463 -0.1320
  150POPC   NC3 2162   8.831   5.069   3.049  0.1815  0.0636 -0.0899
  150POPC   PO4 2163   8.736   5.284   3.511  0.3216 -0.1289 -0.0851
  150POPC   GL1 2164   8.726   5.362   3.886  0.1945 -0.0625  0.1969
  150POPC   GL2 2165   8.882   5.760   3.966 -0.0309 -0.3278  0.0490
  150POPC   C1A 2166   8.922   5.434   4.268 -0.1490 -0.0144 -0.0460
  150POPC   D2A 2167   9.063   5.344   4.549  0.2859  0.0669  0.1257
  150POPC   C3A 2168   9.204   5.220   4.921 -0.1702 -0.1757 -0.2617
  150POPC   C4A 2169   9.312   4.915   5.267  0.1274 -0.3357 -0.0261
  150POPC   C1B 2170   9.205   5.830   4.288  0.2606 -0.3434  0.2727
  150POPC   C2B 2171   9.572   6.090   4.451 -0.4056  0.2453  0.2923
  150POPC   C3B 2172   9.858   6.020   4.850 -0.1184  0.0006 -0.1548
  150POPC   C4B 2173   9.925   6.109   5.287  0.0824  0.0304  0.2033
  151POPC   NC3 2174   6.112   2.651   3.491 -0.1231  0.1947 -0.2035
  151POPC   PO4 2175   6.608   2.835   3.462 -0.3311 -0.0481  0.3018
  151POPC   GL1 2176   6.585   2.900   3.920 -0.0875 -0.4207 -0.1035
  151POPC   GL2 2177   6.363   2.741   3.905 -0.0838 -0.1978 -0.2279
  151POPC   C1A 2178   6.676   3.044   4.416  0.0602 -0.0497  0.1307
  151POPC   D2A 2179   6.642   2.980   4.842  0.0262 -0.1079  0.5105
  151POPC   C3A 2180   6.732   3.299   5.011 -0.0293 -0.1898  0.1484
  151POPC   C4A 2181   6.674   3.741   5.033 -0.1575  0.2650 -0.1356
  151POPC   C1B 2182   6.290   2.601   4.231  0.1188  0.2758  0.0105
  151POPC   C2B 2183   6.215   2.408   4.567  0.1128  0.0737 -0.0466
  151POPC   C3B 2184   6.254   2.454   5.094 -0.1586  0.5322  0.2811
  151POPC   C4B 2185   6.519   2.794   5.343  0.1225  0.4489 -0.1542
  152POPC   NC3 2186   5.169   0.418   3.815  0.1324  0.3330  0.3051
  152POPC   PO4 2187   4.731   0.308   3.768  0.1442  0.0063  0.0273
  152POPC   GL1 2188   4.720   0.306   4.212  0.0346 -0.1644  0.0879
  152POPC   GL2 2189   4.923   0.034   4.102  0.0107  0.3627 -0.0413
  152POPC   C1A 2190   4.839   0.238   4.685  0.0718 -0.0156 -0.3190
  152POPC   D2A 2191   4.971   0.039   5.082  0.2840  0.3328 -0.0527
  152POPC   C3A 2192   5.367  -0.118   4.887  0.2076 -0.0800  0.1972
  152POPC   C4A 2193   5.553   0.057   4.510  0.0015  0.1796 -0.0968
  152POPC   C1B 2194   4.999  -0.151   4.457  0.1650  0.2534 -0.1978
  152POPC   C2B 2195   4.917  -0.419   4.829 -0.0327 -0.1852  0.1738
  152POPC   C3B 2196   5.120  -0.539   5.084  0.4252 -0.4571  0.0253
  152POPC   C4B 2197   5.311  -0.604   5.432 -0.0868  0.0612 -0.1853
  153POPC   NC3 2198   5.273   6.744   4.148  0.0475  0.0950 -0.1186
  153POPC   PO4 2199   5.245   6.318   4.077  0.0055  0.0304  0.2211
  153POPC   GL1 2200   5.028   6.419   4.458 -0.0460 -0.0164  0.1187
  153POPC   GL2 2201   5.029   6.082   4.420 -0.0278  0.3547  0.5264
  153POPC   C1A 2202   5.327   6.687   4.769  0.2777  0.0532 -0.3105
  153POPC   D2A 2203   5.697   6.780   4.984 -0.0269 -0.3661 -0.1260
  153POPC   C3A 2204   5.834   6.420   5.352  0.2397 -0.0348  0.1466
  153POPC   C4A 2205   5.907   6.263   5.757  0.1002  0.1019 -0.0786
  153POPC   C1B 2206   4.610   6.038   4.721 -0.1402 -0.0542 -0.3005
  153POPC   C2B 2207   4.558   6.064   5.162  0.1405 -0.0545 -0.2263
  153POPC   C3B 2208   4.386   6.436   5.427 -0.1671 -0.0313  0.1879
  153POPC   C4B 2209   4.279   6.798   5.472 -0.0888 -0.3031  0.1704
  154POPC   NC3 2210   8.094   3.179   3.169  0.0133  0.0361 -0.0728
  154POPC   PO4 2211   7.966   2.943   3.574 -0.1625 -0.1576 -0.0295
  154POPC   GL1 2212   7.847   2.929   3.997  0.0078 -0.1984  0.1407
  154POPC   GL2 2213   7.715   3.242   4.037 -0.3341  0.2776 -0.0451
  154POPC   C1A 2214   8.040   2.971   4.341 -0.2353  0.0871  0.1753
  154POPC   D2A 2215   8.062   2.831   4.693  0.0631  0.2491  0.0005
  154POPC   C3A 2216   7.871   3.037   5.018 -0.4122  0.1575  0.1400
  154POPC   C4A 2217   7.882   2.870   5.386  0.0553  0.0052 -0.1311
  154POPC   C1B 2218   7.700   3.327   4.469 -0.0633 -0.1487  0.0437
  154POPC   C2B 2219   7.562   3.440   4.944 -0.0770  0.5091  0.2346
  154POPC   C3B 2220   7.329   3.521   5.314 -0.1707 -0.1545 -0.2065
  154POPC   C4B 2221   7.263   3.393   5.746 -0.0040  0.0953 -0.3846
  155POPC   NC3 2222   6.040   8.146   3.362 -0.2848  0.0457 -0.1810
  155POPC   PO4 2223   6.257   8.243   3.666  0.2992  0.0138 -0.1560
  155POPC   GL1 2224   6.103   8.278   4.088  0.2109  0.1444 -0.1213
  155POPC   GL2 2225   6.212   8.625   4.129 -0.1468  0.6646 -0.0830
  155POPC   C1A 2226   5.870   8.325   4.416 -0.3076 -0.1214 -0.1909
  155POPC   D2A 2227   5.749   8.166   4.851  0.3091  0.0132  0.1630
  155POPC   C3A 2228   5.445   8.313   5.064 -0.0269 -0.4622  0.2587
  155POPC   C4A 2229   5.236   8.417   5.467  0.2119 -0.1546 -0.2052
  155POPC   C1B 2230   6.181   8.893   4.476  0.2117 -0.1595  0.2573
  155POPC   C2B 2231   6.010   9.134   4.803 -0.1969 -0.3017 -0.1493
  155POPC   C3B 2232   6.083   9.397   5.187 -0.0005  0.0317 -0.0419
  155POPC   C4B 2233   5.826   9.724   5.256  0.1141 -0.0855  0.4614
  156POPC   NC3 2234   5.662   6.286   3.826 -0.0783  0.2229 -0.5150
  156POPC   PO4 2235   5.557   5.868   3.640 -0.2451  0.4207  0.0885
  156POPC   GL1 2236   5.555   5.899   4.131 -0.2479 -0.1109  0.2041
  156POPC   GL2 2237   5.849   6.116   4.247 -0.0184 -0.2837  0.0094
  156POPC   C1A 2238   5.422   5.628   4.378  0.1442 -0.1717  0.3123
  156POPC   D2A 2239   5.185   5.254   4.339 -0.2402  0.2115  0.1277
  156POPC   C3A 2240   5.239   4.841   4.484  0.3349  0.0980  0.2031
  156POPC   C4A 2241   5.238   4.635   4.854  0.0222  0.2163  0.1838
  156POPC   C1B 2242   6.063   6.078   4.620  0.2339  0.1598 -0.2291
  156POPC   C2B 2243   6.114   6.071   4.940  0.5530 -0.0751  0.0652
  156POPC   C3B 2244   5.975   5.943   5.322  0.1179 -0.0830 -0.0068
  156POPC   C4B 2245   6.213   5.815   5.566 -0.0811  0.1384  0.1276
  157POPC   NC3 2246   6.470   7.822   4.049 -0.4540 -0.2326  0.0298
  157POPC   PO4 2247   6.911   7.843   4.105 -0.1906  0.2969 -0.1139
  157POPC   GL1 2248   6.778   7.877   4.471 -0.3788 -0.0086 -0.2427
  157POPC   GL2 2249   6.684   8.145   4.462  0.2179  0.1110 -0.1341
  157POPC   C1A 2250   6.567   7.599   4.827  0.3780  0.0332  0.2649
  157POPC   D2A 2251   6.456   7.261   4.972 -0.0558 -0.0072 -0.0751
  157POPC   C3A 2252   6.385   7.291   5.415 -0.1608 -0.0212 -0.1714
  157POPC   C4A 2253   6.066   7.276   5.636  0.3962  0.1450  0.0113
  157POPC   C1B 2254   6.311   8.408   4.560 -0.2132 -0.0120  0.1786
  157POPC   C2B 2255   6.109   8.559   4.905  0.0255 -0.2698 -0.0909
  157POPC   C3B 2256   5.824   8.694   4.880  0.1026 -0.1885 -0.0838
  157POPC   C4B 2257   5.409   8.623   4.705 -0.1701 -0.1073  0.1364
  158POPC   NC3 2258   9.305   4.109   3.993 -0.1539 -0.0577 -0.1427
  158POPC   PO4 2259   9.640   4.282   4.268 -0.0465  0.1362 -0.0136
  158POPC   GL1 2260   9.862   4.394   4.700  0.1234  0.0304  0.0227
  158POPC   GL2 2261   9.959   4.092   4.800  0.0009  0.1078  0.2530
  158POPC   C1A 2262   9.999   4.813   4.958 -0.0533  0.1187 -0.2264
  158POPC   D2A 2263   9.732   5.172   5.102  0.1500  0.0805 -0.1636
  158POPC   C3A 2264   9.552   5.290   5.535 -0.1282  0.1995  0.0442
  158POPC   C4A 2265   9.712   5.447   5.850 -0.2691  0.1834 -0.3570
  158POPC   C1B 2266   9.634   3.984   5.058  0.0167  0.0880  0.1719
  158POPC   C2B 2267   9.284   3.932   5.315 -0.0138 -0.1332  0.1282
  158POPC   C3B 2268   9.155   3.973   5.767  0.3844  0.3178  0.1621
  158POPC   C4B 2269   9.241   3.926   6.140 -0.2561  0.0275 -0.0159
  159POPC   NC3 2270   6.531   3.363   3.571 -0.0819  0.1108  0.0364
  159POPC   PO4 2271   6.553   3.668   3.725  0.1173 -0.3633  0.0440
  159POPC   GL1 2272   6.244   3.612   3.921 -0.1613 -0.0393  0.2491
  159POPC   GL2 2273   6.291   3.282   4.081 -0.0705 -0.2079 -0.0195
  159POPC   C1A 2274   5.940   3.876   4.204 -0.0562  0.0777 -0.0353
  159POPC   D2A 2275   5.713   4.161   4.173  0.3575 -0.0992  0.0768
  159POPC   C3A 2276   5.312   4.334   4.303 -0.0621 -0.0843 -0.0396
  159POPC   C4A 2277   4.933   4.259   4.583  0.1969  0.2980  0.2763
  159POPC   C1B 2278   5.953   3.276   4.206  0.1106 -0.0474 -0.1026
  159POPC   C2B 2279   5.689   3.356   4.526 -0.1310  0.0802  0.0799
  159POPC   C3B 2280   5.787   3.785   4.676 -0.1353 -0.0561  0.2036
  159POPC   C4B 2281   5.748   4.316   4.694 -0.0941  0.2048  0.0793
  160POPC   NC3 2282   4.527   3.456   3.015 -0.0703  0.2047  0.0984
  160POPC   PO4 2283   4.363   3.307   3.339 -0.0596 -0.0101 -0.1688
  160POPC   GL1 2284   4.468   3.461   3.753 -0.2656  0.0873  0.0013
  160POPC   GL2 2285   4.610   3.735   3.912 -0.0283 -0.2387  0.2306
  160POPC   C1A 2286   4.711   3.158   4.015 -0.0514 -0.0565 -0.0648
  160POPC   D2A 2287   4.621   3.182   4.515 -0.0985 -0.2390  0.1063
  160POPC   C3A 2288   4.805   3.008   4.822 -0.0511 -0.2960  0.0540
  160POPC   C4A 2289   5.052   2.878   5.203 -0.2607 -0.1534 -0.2105
  160POPC   C1B 2290   4.642   3.810   4.367 -0.3098 -0.2489 -0.1168
  160POPC   C2B 2291   4.832   3.617   4.774 -0.0448 -0.0301  0.0531
  160POPC   C3B 2292   4.931   3.772   5.184  0.1147  0.2352 -0.0478
  160POPC   C4B 2293   4.985   4.092   5.458 -0.1428  0.3279 -0.0916
  161POPC   NC3 2294   9.845   4.347   3.428  0.1317  0.3565  0.0450
  161POPC   PO4 2295   9.634   4.512   3.770  0.1275 -0.0274  0.0077
  161POPC   GL1 2296   9.291   4.594   4.064 -0.2351  0.2706 -0.1427
  161POPC   GL2 2297   9.265   4.587   4.452  0.0034 -0.0217 -0.2062
  161POPC   C1A 2298   8.845   4.859   4.225  0.1121  0.0225  0.0885
  161POPC   D2A 2299   8.505   5.165   4.305  0.1047 -0.1556 -0.2188
  161POPC   C3A 2300   8.086   5.007   4.491 -0.2828 -0.1337  0.1453
  161POPC   C4A 2301   7.781   5.237   4.219  0.3523  0.1094  0.0262
  161POPC   C1B 2302   8.982   4.802   4.674 -0.2333 -0.0274  0.1921
  161POPC   C2B 2303   8.824   4.814   5.024 -0.3964 -0.2591  0.1082
  161POPC   C3B 2304   8.610   4.925   5.480  0.1217 -0.0928  0.2553
  161POPC   C4B 2305   8.293   5.196   5.602  0.0015 -0.0183 -0.1895
  162POPC   NC3 2306   5.210   2.705   3.051  0.1365  0.0442  0.0232
  162POPC   PO4 2307   5.351   2.946   3.459  0.2001  0.2972 -0.1419
  162POPC   GL1 2308   5.529   2.760   3.876  0.1972 -0.1361  0.0504
  162POPC   GL2 2309   5.816   2.822   4.015  0.0506 -0.1087 -0.2547
  162POPC   C1A 2310   5.458   2.626   4.337  0.2603  0.2010 -0.2296
  162POPC   D2A 2311   5.328   2.786   4.741 -0.2636 -0.1868  0.3512
  162POPC   C3A 2312   5.247   2.385   4.990  0.3420  0.2803 -0.1541
  162POPC   C4A 2313   5.327   2.038   5.308  0.0428  0.1876  0.0817
  162POPC   C1B 2314   5.908   2.821   4.474  0.0639 -0.1970 -0.2967
  162POPC   C2B 2315   5.868   2.875   4.851  0.1337 -0.0340 -0.1549
  162POPC   C3B 2316   6.007   2.942   5.302  0.0233  0.1899  0.3028
  162POPC   C4B 2317   5.890   3.349   5.534 -0.2982 -0.3597 -0.0558
  163POPC   NC3 2318   4.405   7.775   3.345 -0.1108 -0.3189 -0.0597
  163POPC   PO4 2319   4.229   7.534   3.723 -0.0354  0.0357 -0.0842
  163POPC   GL1 2320   4.067   7.752   4.072 -0.1448 -0.1473 -0.2324
  163POPC   GL2 2321   3.842   8.049   4.063  0.2681  0.0244 -0.1299
  163POPC   C1A 2322   3.826   7.802   4.585 -0.2440  0.0576 -0.1087
  163POPC   D2A 2323   3.541   7.766   4.914 -0.1695 -0.0193  0.0627
  163POPC   C3A 2324   3.645   7.379   5.244  0.4467  0.0391 -0.0164
  163POPC   C4A 2325   3.925   7.173   5.461 -0.1846  0.1913  0.3461
  163POPC   C1B 2326   3.634   8.251   4.502  0.0140  0.0478  0.3528
  163POPC   C2B 2327   3.368   8.240   4.886  0.3670  0.0989  0.0211
  163POPC   C3B 2328   3.158   7.950   5.167 -0.1919  0.0181 -0.2861
  163POPC   C4B 2329   3.159   7.558   5.258  0.0417 -0.1224 -0.3236
  164POPC   NC3 2330   3.610   6.336   3.297  0.1287 -0.4150  0.2046
  164POPC   PO4 2331   3.475   6.792   3.458 -0.0109 -0.1817 -0.0910
  164POPC   GL1 2332   3.437   7.052   3.830  0.0300  0.3102 -0.4085
  164POPC   GL2 2333   3.231   7.265   3.742 -0.0090 -0.2042  0.2257
  164POPC   C1A 2334   3.537   6.935   4.216 -0.3956  0.1214  0.3346
  164POPC   D2A 2335   3.587   6.592   4.448 -0.1600  0.1239  0.3392
  164POPC   C3A 2336   3.455   6.602   4.721  0.0252 -0.0214 -0.1306
  164POPC   C4A 2337   3.081   6.547   4.953  0.0136 -0.5024 -0.1935
  164POPC   C1B 2338   2.813   7.241   3.933  0.2829 -0.2762  0.2139
  164POPC   C2B 2339   2.397   7.043   4.089  0.0897  0.1680  0.0591
  164POPC   C3B 2340   2.192   6.665   4.363 -0.0826  0.0669 -0.1732
  164POPC   C4B 2341   1.857   6.471   4.565  0.1176 -0.0770  0.1956
  165POPC   NC3 2342   8.970   8.517   4.003  0.0494  0.3154 -0.0454
  165POPC   PO4 2343   9.056   8.118   4.019 -0.1245  0.1156  0.1344
  165POPC   GL1 2344   9.050   8.069   4.410  0.2712 -0.1960  0.0607
  165POPC   GL2 2345   8.702   8.177   4.382 -0.1072 -0.1059 -0.1138
  165POPC   C1A 2346   9.098   8.007   4.767  0.1053  0.2365  0.1158
  165POPC   D2A 2347   8.930   8.198   5.179 -0.0407  0.1260  0.1065
  165POPC   C3A 2348   8.572   8.082   5.332  0.1738  0.0482  0.1404
  165POPC   C4A 2349   8.396   7.698   5.566  0.0249  0.0755  0.3252
  165POPC   C1B 2350   8.598   8.247   4.760 -0.1421  0.2061 -0.3147
  165POPC   C2B 2351   8.487   8.540   5.080 -0.1939  0.2341 -0.2448
  165POPC   C3B 2352   8.622   8.536   5.519 -0.2083  0.2579  0.2236
  165POPC   C4B 2353   8.954   8.226   5.664  0.1459 -0.2452 -0.1580
  166POPC   NC3 2354   7.117   9.135   4.045  0.0241 -0.1197 -0.3381
  166POPC   PO4 2355   7.258   9.525   4.145 -0.1175 -0.2759 -0.3264
  166POPC   GL1 2356   7.159   9.703   4.435 -0.1344  0.0133 -0.1924
  166POPC   GL2 2357   7.311   9.998   4.459  0.0566  0.1329  0.0836
  166POPC   C1A 2358   6.881   9.786   4.935 -0.4301 -0.0088 -0.4122
  166POPC   D2A 2359   6.745  10.012   5.308 -0.3922 -0.0700  0.0575
  166POPC   C3A 2360   7.039   9.949   5.669 -0.1003  0.3853  0.1783
  166POPC   C4A 2361   7.411   9.945   5.918  0.3402  0.2159 -0.2901
  166POPC   C1B 2362   7.403  10.019   4.978 -0.1424 -0.1459  0.0909
  166POPC   C2B 2363   7.573   9.966   5.414 -0.1450 -0.3243 -0.1894
  166POPC   C3B 2364   7.535   9.569   5.630 -0.1555  0.2071  0.1683
  166POPC   C4B 2365   7.457   9.230   5.858 -0.0328  0.4117  0.1045
  167POPC   NC3 2366   5.902   4.944   3.713 -0.3558 -0.5276 -0.4864
  167POPC   PO4 2367   5.484   4.786   3.677  0.3680 -0.3351  0.2316
  167POPC   GL1 2368   5.501   4.987   4.063  0.2477 -0.2487  0.3415
  167POPC   GL2 2369   5.675   4.693   4.156  0.0739  0.2525  0.0196
  167POPC   C1A 2370   5.700   5.183   4.366  0.0273  0.3799  0.2041
  167POPC   D2A 2371   5.483   5.227   4.727 -0.3678 -0.0692 -0.1844
  167POPC   C3A 2372   5.396   5.014   5.142  0.0565 -0.1969 -0.1175
  167POPC   C4A 2373   5.335   5.215   5.562 -0.2264  0.1511  0.2928
  167POPC   C1B 2374   5.766   4.794   4.617  0.2571  0.0550 -0.2134
  167POPC   C2B 2375   5.797   4.742   5.037  0.1943  0.2021 -0.1926
  167POPC   C3B 2376   5.774   4.647   5.520 -0.1050  0.3520  0.1328
  167POPC   C4B 2377   5.640   4.372   5.814  0.0316 -0.0561 -0.1661
  168POPC   NC3 2378   9.289   1.285   4.062 -0.1458 -0.2638  0.0266
  168POPC   PO4 2379   9.178   1.682   4.238  0.3028 -0.2703  0.0976
  168POPC   GL1 2380   9.131   1.856   4.684  0.3709  0.0173  0.2680
  168POPC   GL2 2381   9.066   1.559   4.769 -0.0543 -0.1021 -0.3057
  168POPC   C1A 2382   9.029   2.081   5.035  0.0589  0.1065  0.1656
  168POPC   D2A 2383   8.949   2.015   5.325 -0.1212 -0.2548  0.0970
  168POPC   C3A 2384   8.735   2.313   5.586 -0.1456 -0.0665  0.3424
  168POPC   C4A 2385   8.353   2.161   5.804 -0.1136 -0.0694 -0.0790
  168POPC   C1B 2386   9.038   1.539   5.242  0.1527  0.1288 -0.1569
  168POPC   C2B 2387   9.050   1.534   5.635 -0.2433  0.1613 -0.1785
  168POPC   C3B 2388   9.162   1.739   6.090  0.0341  0.4673 -0.0111
  168POPC   C4B 2389   9.481   2.079   6.264 -0.2125 -0.0617  0.2411
  169POPC   NC3 2390   1.527   5.864   3.567 -0.3611  0.1962  0.0285
  169POPC   PO4 2391   1.388   6.112   3.958 -0.0358  0.1070 -0.3185
  169POPC   GL1 2392   1.423   6.259   4.320  0.1084 -0.1263  0.1369
  169POPC   GL2 2393   1.447   6.609   4.239 -0.1394 -0.0342 -0.2337
  169POPC   C1A 2394   1.448   6.261   4.778  0.1883  0.0928  0.0879
  169POPC   D2A 2395   1.739   6.400   5.104 -0.1645 -0.1658  0.0648
  169POPC   C3A 2396   1.584   6.347   5.452 -0.1620  0.1750  0.3546
  169POPC   C4A 2397   1.567   6.341   5.903  0.3712  0.4471  0.2110
  169POPC   C1B 2398   1.690   6.940   4.476  0.1688 -0.2072  0.0004
  169POPC   C2B 2399   1.730   6.880   4.873 -0.3887 -0.0171  0.0936
  169POPC   C3B 2400   2.046   6.829   5.214  0.0482 -0.0136  0.2280
  169POPC   C4B 2401   2.254   6.926   5.644  0.0568  0.0123 -0.0627
  170POPC   NC3 2402   0.663   2.670   4.131 -0.1457  0.2471 -0.0287
  170POPC   PO4 2403   0.291   2.902   4.264  0.2446 -0.1145 -0.4456
  170POPC   GL1 2404  -0.098   3.046   4.509  0.1146  0.0121 -0.0939
  170POPC   GL2 2405  -0.292   2.723   4.456 -0.1116 -0.2098 -0.2354
  170POPC   C1A 2406  -0.365   3.188   4.831  0.2974  0.0621  0.0650
  170POPC   D2A 2407  -0.629   3.577   4.905  0.0792  0.2467 -0.0991
  170POPC   C3A 2408  -0.774   3.407   5.396 -0.0239  0.3040 -0.1115
  170POPC   C4A 2409  -1.073   3.595   5.778  0.1337 -0.0826 -0.0466
  170POPC   C1B 2410  -0.232   2.700   4.890  0.1774  0.1659  0.0239
  170POPC   C2B 2411  -0.369   2.913   5.242 -0.2154  0.2041  0.0909
  170POPC   C3B 2412  -0.587   2.823   5.642  0.1789 -0.1461 -0.0009
  170POPC   C4B 2413  -0.869   3.047   5.786 -0.0893 -0.0654 -0.2451
  171POPC   NC3 2414   0.109   9.245   3.745 -0.0636 -0.2929 -0.0109
  171POPC   PO4 2415   0.380   9.164   4.115  0.2425  0.2102 -0.2577
  171POPC   GL1 2416   0.202   9.195   4.580  0.1072 -0.0187 -0.2608
  171POPC   GL2 2417   0.336   9.001   4.765  0.2539 -0.0215 -0.0716
  171POPC   C1A 2418  -0.113   9.310   4.952  0.3398 -0.3976 -0.1164
  171POPC   D2A 2419  -0.192   9.133   5.416  0.3113 -0.1924 -0.1560
  171POPC   C3A 2420  -0.099   9.273   5.927 -0.0373 -0.2023  0.1554
  171POPC   C4A 2421  -0.382   9.506   6.211  0.0603 -0.3487  0.1114
  171POPC   C1B 2422   0.335   9.340   5.062 -0.0438 -0.0071  0.1343
  171POPC   C2B 2423   0.126   9.538   5.453 -0.0043  0.2557 -0.0708
  171POPC   C3B 2424  -0.184   9.717   5.729  0.2462 -0.0867  0.5017
  171POPC   C4B 2425  -0.579   9.896   5.852 -0.0599 -0.2230 -0.0241
  172POPC   NC3 2426   1.194   7.116   3.179 -0.0921  0.2525 -0.0216
  172POPC   PO4 2427   1.428   7.071   3.645  0.3161 -0.0618  0.0669
  172POPC   GL1 2428   1.209   7.169   4.034 -0.1866 -0.3754  0.0132
  172POPC   GL2 2429   1.030   7.470   4.097  0.0768 -0.0282  0.1012
  172POPC   C1A 2430   1.230   7.123   4.456  0.0495 -0.2454  0.2696
  172POPC   D2A 2431   1.436   7.310   4.813  0.0124 -0.0445  0.3223
  172POPC   C3A 2432   1.360   7.169   5.144 -0.1085 -0.1765 -0.1154
  172POPC   C4A 2433   1.592   6.893   5.412  0.1631  0.1995 -0.2566
  172POPC   C1B 2434   1.488   7.542   4.297 -0.0975  0.1770  0.4347
  172POPC   C2B 2435   1.694   7.749   4.598  0.2335  0.0415 -0.2708
  172POPC   C3B 2436   1.727   7.645   5.048  0.2361 -0.0874  0.2789
  172POPC   C4B 2437   1.463   7.646   5.415  0.0355  0.0717  0.0500
  173POPC   NC3 2438   8.774   1.366   4.199 -0.1989  0.0044  0.0774
  173POPC   PO4 2439   8.563   0.970   4.114 -0.1096 -0.3111  0.1278
  173POPC   GL1 2440   8.586   0.883   4.567 -0.0924 -0.0262 -0.0571
  173POPC   GL2 2441   8.694   0.569   4.707 -0.0965 -0.2454 -0.0634
  173POPC   C1A 2442   8.401   0.877   5.020  0.0214 -0.1143 -0.0493
  173POPC   D2A 2443   8.576   0.893   5.442 -0.2118 -0.2837 -0.1244
  173POPC   C3A 2444   8.499   1.255   5.639 -0.2642 -0.2149  0.0655
  173POPC   C4A 2445   8.709   1.344   6.004  0.2142 -0.0845  0.3328
  173POPC   C1B 2446   8.863   0.590   5.195 -0.0805  0.1922  0.3842
  173POPC   C2B 2447   8.973   0.553   5.607  0.4240  0.1310 -0.0175
  173POPC   C3B 2448   9.219   0.440   6.008  0.1391  0.0336 -0.2426
  173POPC   C4B 2449   9.286   0.758   6.337 -0.0781  0.0799 -0.0000
  174POPC   NC3 2450   7.520   8.449   3.975  0.2823  0.0710 -0.0735
  174POPC   PO4 2451   7.267   8.173   3.869  0.2989 -0.1107 -0.2096
  174POPC   GL1 2452   7.165   8.347   4.303  0.3617  0.0659  0.2204
  174POPC   GL2 2453   7.130   8.697   4.309 -0.2579 -0.0841 -0.0512
  174POPC   C1A 2454   7.150   8.116   4.657  0.1469 -0.0667  0.4194
  174POPC   D2A 2455   7.053   8.275   5.106 -0.0501  0.1235  0.2468
  174POPC   C3A 2456   6.985   8.072   5.499  0.3394  0.0319 -0.1605
  174POPC   C4A 2457   6.863   7.639   5.665  0.0279 -0.3600 -0.3520
  174POPC   C1B 2458   6.876   8.519   4.649  0.2055  0.1164 -0.2205
  174POPC   C2B 2459   6.594   8.358   4.954 -0.1437  0.0851 -0.0526
  174POPC   C3B 2460   6.428   8.363   5.271 -0.3375  0.3940 -0.0068
  174POPC   C4B 2461   6.185   8.242   5.649 -0.1048  0.2458  0.3991
  175POPC   NC3 2462   1.102   8.427   3.875 -0.1929 -0.0990  0.0163
  175POPC   PO4 2463   1.528   8.532   3.660  0.1929 -0.0485 -0.1291
  175POPC   GL1 2464   1.569   8.293   4.079 -0.2663 -0.2324  0.1410
  175POPC   GL2 2465   1.841   8.279   4.207  0.0692  0.0624  0.0691
  175POPC   C1A 2466   1.370   8.188   4.462  0.0612  0.0140  0.0081
  175POPC   D2A 2467   1.333   7.998   4.873 -0.1069 -0.0392  0.1590
  175POPC   C3A 2468   1.275   8.069   5.221  0.3243  0.3737  0.1137
  175POPC   C4A 2469   1.624   8.098   5.571  0.2094  0.2935 -0.2713
  175POPC   C1B 2470   1.858   8.231   4.685  0.2181  0.1561 -0.1794
  175POPC   C2B 2471   1.993   8.157   5.102  0.0734 -0.0669  0.0996
  175POPC   C3B 2472   2.142   7.843   5.412  0.1264 -0.2241  0.1212
  175POPC   C4B 2473   2.262   7.481   5.670  0.0160 -0.3546  0.2002
  176POPC   NC3 2474   2.956   3.763   3.495  0.1997 -0.0143 -0.0726
  176POPC   PO4 2475   3.002   3.408   3.704 -0.2263  0.2947  0.0709
  176POPC   GL1 2476   3.342   3.348   4.003  0.3362 -0.2104 -0.0621
  176POPC   GL2 2477   3.506   3.585   3.986  0.0343 -0.1721  0.1352
  176POPC   C1A 2478   3.457   3.184   4.314  0.1358 -0.2475  0.0962
  176POPC   D2A 2479   3.464   3.073   4.717  0.1492  0.0683  0.1238
  176POPC   C3A 2480   3.560   3.107   5.127 -0.0415 -0.0873 -0.0518
  176POPC   C4A 2481   3.982   3.255   5.381  0.0862 -0.1003 -0.3064
  176POPC   C1B 2482   3.807   3.735   4.355 -0.1662  0.0224 -0.1557
  176POPC   C2B 2483   4.200   3.849   4.658  0.0216 -0.1871 -0.1054
  176POPC   C3B 2484   4.204   3.872   5.059  0.1122 -0.0851 -0.0573
  176POPC   C4B 2485   4.511   4.070   5.365  0.3164 -0.2076  0.0207
  177POPC   NC3 2486   1.295   1.241   3.688 -0.0437 -0.0806 -0.1733
  177POPC   PO4 2487   1.726   0.985   3.526 -0.1710  0.0859  0.1470
  177POPC   GL1 2488   1.735   0.959   3.939 -0.0228 -0.0060 -0.0867
  177POPC   GL2 2489   1.510   0.692   4.080 -0.2218  0.0345  0.0436
  177POPC   C1A 2490   1.882   0.916   4.329 -0.1377  0.1852  0.3575
  177POPC   D2A 2491   2.240   0.844   4.510  0.0004  0.3792  0.0515
  177POPC   C3A 2492   2.361   0.627   4.950 -0.0805  0.1157 -0.0677
  177POPC   C4A 2493   2.609   0.169   4.996 -0.0795 -0.1178  0.0067
  177POPC   C1B 2494   1.469   0.592   4.472 -0.1024  0.0667  0.1033
  177POPC   C2B 2495   1.400   0.518   4.828 -0.0190  0.0841  0.3360
  177POPC   C3B 2496   1.405   0.376   5.303 -0.0871 -0.0597 -0.3108
  177POPC   C4B 2497   1.606   0.599   5.633 -0.1658  0.0095 -0.2236
  178POPC   NC3 2498   3.762   1.178   3.742 -0.0357 -0.1109 -0.2035
  178POPC   PO4 2499   3.465   0.909   3.555 -0.0259  0.1296  0.1226
  178POPC   GL1 2500   3.511   0.818   3.959  0.0012  0.0372  0.2769
  178POPC   GL2 2501   3.828   0.769   4.055  0.1772  0.0154 -0.2575
  178POPC   C1A 2502   3.287   0.648   4.380 -0.1293 -0.2730 -0.0067
  178POPC   D2A 2503   3.397   0.301   4.529 -0.3612 -0.0330  0.1851
  178POPC   C3A 2504   3.143   0.173   4.965  0.0579  0.0818 -0.1972
  178POPC   C4A 2505   3.001  -0.197   5.349  0.1733 -0.0449 -0.3368
  178POPC   C1B 2506   3.835   0.504   4.443  0.1290  0.1076  0.0678
  178POPC   C2B 2507   3.682   0.335   4.953  0.1016  0.1338 -0.0145
  178POPC   C3B 2508   3.530   0.411   5.353  0.2057  0.0303 -0.0502
  178POPC   C4B 2509   3.115   0.322   5.547 -0.1136  0.0616  0.0975
  179POPC   NC3 2510   2.185   5.462   3.726 -0.1524  0.1844 -0.1715
  179POPC   PO4 2511   2.013   5.846   3.597 -0.1009  0.2612  0.1113
  179POPC   GL1 2512   1.741   5.742   4.029 -0.1478  0.1087  0.0087
  179POPC   GL2 2513   1.997   5.564   4.204  0.2027 -0.0834 -0.0705
  179POPC   C1A 2514   1.804   5.994   4.517 -0.2251  0.1226 -0.3341
  179POPC   D2A 2515   1.893   5.813   4.925 -0.0708 -0.1614 -0.1279
  179POPC   C3A 2516   2.034   6.037   5.303 -0.1143  0.2741  0.3443
  179POPC   C4A 2517   2.242   5.992   5.760  0.1820  0.0638  0.2486
  179POPC   C1B 2518   2.242   5.691   4.549 -0.1045  0.3444  0.0564
  179POPC   C2B 2519   2.418   5.727   5.024  0.0662  0.0560  0.0544
  179POPC   C3B 2520   2.617   5.638   5.412  0.0071  0.1059  0.0135
  179POPC   C4B 2521   2.785   5.412   5.755  0.1092  0.1197 -0.2612
  180POPC   NC3 2522   6.442   7.157   4.040 -0.0373 -0.0637  0.1018
  180POPC   PO4 2523   6.104   7.348   3.957 -0.2399  0.0062  0.2713
  180POPC   GL1 2524   5.971   7.477   4.239 -0.0259 -0.1050  0.0837
  180POPC   GL2 2525   5.850   7.804   4.170 -0.1123 -0.2700  0.0523
  180POPC   C1A 2526   6.102   7.446   4.610  0.1838 -0.3561 -0.2444
  180POPC   D2A 2527   5.965   7.428   4.961  0.0519  0.4125  0.2083
  180POPC   C3A 2528   5.992   7.674   5.333 -0.1098 -0.1172 -0.2175
  180POPC   C4A 2529   5.814   8.020   5.382  0.2027 -0.6195  0.2074
  180POPC   C1B 2530   6.150   7.924   4.560 -0.2773 -0.3792  0.0148
  180POPC   C2B 2531   6.200   7.964   4.985  0.0431  0.1445 -0.0571
  180POPC   C3B 2532   6.545   7.763   5.299 -0.1845 -0.1861 -0.1098
  180POPC   C4B 2533   6.390   7.730   5.672  0.0565  0.1133  0.1266
  181POPC   NC3 2534   4.314   6.077   3.823  0.2189 -0.5110 -0.0491
  181POPC   PO4 2535   3.991   6.169   3.516  0.0173 -0.1909 -0.1991
  181POPC   GL1 2536   3.798   6.430   3.778 -0.0915 -0.0740 -0.1753
  181POPC   GL2 2537   3.811   6.283   4.095 -0.0958  0.0738  0.0301
  181POPC   C1A 2538   3.366   6.344   4.104  0.0107  0.1525 -0.1471
  181POPC   D2A 2539   3.137   6.356   4.415  0.0008 -0.1033  0.0321
  181POPC   C3A 2540   3.239   6.134   4.687 -0.0404 -0.2055 -0.0165
  181POPC   C4A 2541   3.232   5.843   5.016 -0.0261  0.1261  0.0097
  181POPC   C1B 2542   3.666   5.987   4.510  0.2318  0.2502  0.4675
  181POPC   C2B 2543   3.666   5.625   4.881  0.0918 -0.0362  0.1396
  181POPC   C3B 2544   3.539   5.607   5.329  0.1301  0.2067  0.0538
  181POPC   C4B 2545   3.648   5.805   5.610  0.2775  0.2667 -0.1842
  182POPC   NC3 2546   6.182   9.199   3.766  0.1647 -0.1243  0.4801
  182POPC   PO4 2547   5.850   9.468   3.836  0.0714  0.0653  0.0061
  182POPC   GL1 2548   5.734   9.244   4.102 -0.0833 -0.0867  0.0596
  182POPC   GL2 2549   5.967   9.361   4.366  0.2631 -0.0174 -0.2160
  182POPC   C1A 2550   5.743   8.794   4.270 -0.1366 -0.0224 -0.1044
  182POPC   D2A 2551   5.418   8.440   4.179  0.0082 -0.1402 -0.0609
  182POPC   C3A 2552   5.375   8.088   4.532  0.0180  0.0063 -0.0871
  182POPC   C4A 2553   5.018   7.773   4.694  0.3441  0.3456  0.0828
  182POPC   C1B 2554   5.985   9.616   4.675 -0.1429 -0.2322  0.0827
  182POPC   C2B 2555   5.977   9.988   4.774 -0.0819  0.0055 -0.0758
  182POPC   C3B 2556   6.034  10.176   5.140  0.1324 -0.0570 -0.4017
  182POPC   C4B 2557   5.813  10.564   5.245  0.0236  0.2406 -0.0556
  183POPC   NC3 2558   7.587   7.800   3.747  0.3955  0.1182  0.2672
  183POPC   PO4 2559   8.084   7.845   3.810  0.1145  0.0961 -0.2460
  183POPC   GL1 2560   7.987   7.813   4.185  0.1650 -0.1059  0.1963
  183POPC   GL2 2561   7.682   8.027   4.241  0.1722 -0.4208  0.1939
  183POPC   C1A 2562   7.984   7.820   4.639  0.1215  0.3710 -0.0824
  183POPC   D2A 2563   7.793   7.608   5.003 -0.1528 -0.0519 -0.0328
  183POPC   C3A 2564   7.348   7.759   4.917 -0.0162 -0.2218  0.1351
  183POPC   C4A 2565   6.955   7.772   5.016 -0.1703  0.1575 -0.0914
  183POPC   C1B 2566   7.644   8.233   4.576 -0.1339 -0.0910 -0.3028
  183POPC   C2B 2567   7.572   8.191   5.036  0.0341  0.1958 -0.1151
  183POPC   C3B 2568   7.425   8.004   5.285 -0.2205 -0.2717 -0.0393
  183POPC   C4B 2569   7.426   7.607   5.388  0.1190  0.2483 -0.0527
  184POPC   NC3 2570   8.467   1.787   3.537 -0.0605  0.0966  0.3066
  184POPC   PO4 2571   8.392   1.502   3.774 -0.3735  0.0596  0.2310
  184POPC   GL1 2572   8.069   1.624   4.105  0.0125 -0.2245  0.3015
  184POPC   GL2 2573   8.296   1.385   4.328 -0.0624  0.1942 -0.1457
  184POPC   C1A 2574   7.823   1.509   4.466  0.4071 -0.1737 -0.3283
  184POPC   D2A 2575   7.792   1.398   4.879  0.2262  0.0520 -0.2634
  184POPC   C3A 2576   7.791   1.046   5.247  0.3286  0.0048  0.0482
  184POPC   C4A 2577   8.053   0.715   5.486  0.1051  0.0788  0.2433
  184POPC   C1B 2578   8.311   1.377   4.765  0.0218  0.3452 -0.1483
  184POPC   C2B 2579   8.161   1.344   5.298 -0.0648 -0.2542  0.0850
  184POPC   C3B 2580   8.043   1.188   5.717 -0.0802  0.1183  0.0779
  184POPC   C4B 2581   8.247   1.308   6.198 -0.1981  0.2033 -0.0802
  185POPC   NC3 2582   3.671   4.422   3.523 -0.0136 -0.1725 -0.1102
  185POPC   PO4 2583   3.321   4.540   3.719 -0.1862  0.0928  0.2571
  185POPC   GL1 2584   3.359   4.498   4.127  0.1499 -0.1884  0.1037
  185POPC   GL2 2585   3.215   4.195   4.210  0.1949 -0.2361  0.0101
  185POPC   C1A 2586   3.489   4.515   4.502  0.1692 -0.1752  0.3076
  185POPC   D2A 2587   3.650   4.741   4.801 -0.3635  0.2223  0.0493
  185POPC   C3A 2588   3.579   4.592   5.225 -0.0375 -0.0762 -0.1593
  185POPC   C4A 2589   3.773   4.392   5.701  0.0207  0.0934  0.0087
  185POPC   C1B 2590   3.401   4.030   4.449  0.1280  0.2334 -0.1712
  185POPC   C2B 2591   3.489   3.726   4.701  0.2367  0.0085  0.0137
  185POPC   C3B 2592   3.816   3.611   4.917  0.0621 -0.0444 -0.2274
  185POPC   C4B 2593   3.979   3.114   4.947 -0.0816 -0.0135  0.2451
  186POPC   NC3 2594   6.524   6.142   3.746 -0.2069  0.1059 -0.4031
  186POPC   PO4 2595   6.493   6.646   3.683  0.0325  0.2009 -0.1577
  186POPC   GL1 2596   6.634   6.625   4.178  0.2702  0.0641  0.1801
  186POPC   GL2 2597   6.781   6.792   4.369  0.0067 -0.0178 -0.2324
  186POPC   C1A 2598   6.354   6.547   4.478 -0.0352  0.0923 -0.3836
  186POPC   D2A 2599   6.153   6.534   4.913 -0.0095  0.0563  0.1618
  186POPC   C3A 2600   6.332   6.347   5.316 -0.1132 -0.3361 -0.1791
  186POPC   C4A 2601   6.424   6.293   5.677 -0.0639 -0.0043  0.0911
  186POPC   C1B 2602   6.878   6.527   4.712  0.1808  0.3748  0.1582
  186POPC   C2B 2603   6.611   6.212   4.850 -0.1713 -0.0424 -0.2034
  186POPC   C3B 2604   6.552   5.863   5.163  0.0260 -0.0866  0.3013
  186POPC   C4B 2605   6.296   5.570   5.107  0.1396 -0.1434  0.1455
  187POPC   NC3 2606   2.433   9.476   3.353  0.2028 -0.1143  0.0141
  187POPC   PO4 2607   2.329   9.102   3.422  0.2697 -0.0322 -0.3776
  187POPC   GL1 2608   2.090   8.942   3.760 -0.2990 -0.1947  0.0786
  187POPC   GL2 2609   2.057   8.690   3.845  0.1465  0.2217 -0.2285
  187POPC   C1A 2610   2.193   9.093   4.123 -0.4717  0.2120  0.2256
  187POPC   D2A 2611   2.278   9.324   4.433 -0.0670 -0.0050  0.4292
  187POPC   C3A 2612   1.895   9.167   4.588 -0.1224  0.4539 -0.1838
  187POPC   C4A 2613   1.575   9.077   4.866 -0.2806 -0.0615 -0.0445
  187POPC   C1B 2614   2.228   8.570   4.217  0.1514  0.3118 -0.0635
  187POPC   C2B 2615   2.301   8.836   4.665 -0.2406  0.2772  0.1545
  187POPC   C3B 2616   2.231   9.159   4.943  0.1504  0.1937  0.1007
  187POPC   C4B 2617   2.276   9.253   5.350  0.3635  0.1631 -0.0255
  188POPC   NC3 2618   3.423   0.402   3.662 -0.0355 -0.1631  0.3295
  188POPC   PO4 2619   3.283   0.007   3.322 -0.2060 -0.2088  0.1712
  188POPC   GL1 2620   3.160  -0.019   3.787  0.0033 -0.0595  0.1385
  188POPC   GL2 2621   2.950   0.314   3.768 -0.1655 -0.0873  0.0125
  188POPC   C1A 2622   3.110   0.087   4.199  0.0429  0.5184 -0.1165
  188POPC   D2A 2623   2.905   0.096   4.556  0.0442 -0.0595  0.2529
  188POPC   C3A 2624   2.985  -0.279   4.727 -0.1763 -0.0141  0.1738
  188POPC   C4A 2625   3.162  -0.517   4.976  0.0891  0.4140  0.3693
  188POPC   C1B 2626   2.813   0.538   4.046  0.3196  0.1313 -0.0654
  188POPC   C2B 2627   2.457   0.404   4.319 -0.1431 -0.0521  0.0558
  188POPC   C3B 2628   2.357   0.113   4.564  0.1911  0.1836 -0.1718
  188POPC   C4B 2629   1.964  -0.157   4.416  0.0374  0.1940 -0.2655
  189POPC   NC3 2630   0.666   3.675   5.042  0.1205 -0.0291 -0.4097
  189POPC   PO4 2631   0.349   3.769   5.073 -0.0463  0.0554  0.2082
  189POPC   GL1 2632   0.428   4.155   5.186  0.1038  0.1091 -0.1455
  189POPC   GL2 2633   0.530   4.392   5.466  0.0141  0.2400  0.0324
  189POPC   C1A 2634   0.011   4.370   5.282  0.2520  0.3532  0.0889
  189POPC   D2A 2635  -0.241   4.744   5.525  0.1198  0.3355  0.3131
  189POPC   C3A 2636  -0.239   4.937   5.954 -0.0464  0.0699 -0.0402
  189POPC   C4A 2637  -0.502   4.793   6.278 -0.0304 -0.3541 -0.0270
  189POPC   C1B 2638   0.652   4.443   5.899  0.1906 -0.0820 -0.1935
  189POPC   C2B 2639   0.753   4.730   6.357 -0.0655 -0.2842  0.0944
  189POPC   C3B 2640   0.849   5.162   6.622 -0.2460 -0.0118  0.1704
  189POPC   C4B 2641   0.820   5.483   7.092  0.3380  0.1893  0.0618
  190POPC   NC3 2642   3.899   7.076   3.578 -0.1632  0.0383  0.0809
  190POPC   PO4 2643   3.698   7.389   3.550 -0.0662  0.2434  0.0599
  190POPC   GL1 2644   3.529   7.619   3.886  0.1360  0.1800  0.2149
  190POPC   GL2 2645   3.618   7.512   4.134  0.0352  0.0596 -0.0818
  190POPC   C1A 2646   3.366   7.946   4.177 -0.0037 -0.2559  0.0061
  190POPC   D2A 2647   3.152   7.902   4.535  0.1798  0.3870  0.0529
  190POPC   C3A 2648   3.073   7.577   4.748  0.0426  0.0311 -0.0162
  190POPC   C4A 2649   3.249   7.248   4.884 -0.0453  0.3964  0.0129
  190POPC   C1B 2650   3.526   7.333   4.510  0.0337 -0.3583  0.0891
  190POPC   C2B 2651   3.714   7.109   4.812 -0.0101 -0.1483 -0.1212
  190POPC   C3B 2652   3.454   6.897   5.170 -0.0626  0.2089 -0.0079
  190POPC   C4B 2653   3.621   6.590   5.405  0.3436 -0.0442 -0.1821
  191POPC   NC3 2654   2.936   2.131   4.032  0.1734  0.0574  0.0771
  191POPC   PO4 2655   2.505   2.169   3.948 -0.2010  0.2995 -0.0596
  191POPC   GL1 2656   2.483   1.998   4.378 -0.1536 -0.0782 -0.2373
  191POPC   GL2 2657   2.827   1.895   4.468 -0.1047 -0.6842  0.0743
  191POPC   C1A 2658   2.491   1.771   4.820  0.0676  0.1867  0.0043
  191POPC   D2A 2659   2.458   1.427   5.162 -0.0302 -0.4873  0.2076
  191POPC   C3A 2660   2.256   0.989   5.307 -0.1030  0.2391 -0.0393
  191POPC   C4A 2661   2.528   0.620   5.486 -0.0001 -0.1752 -0.6056
  191POPC   C1B 2662   3.083   1.817   4.854 -0.6424  0.1312  0.0355
  191POPC   C2B 2663   3.432   1.694   4.945 -0.0788  0.2659  0.2701
  191POPC   C3B 2664   3.701   1.383   4.920  0.1506  0.0912  0.0989
  191POPC   C4B 2665   3.679   0.900   4.982 -0.0936  0.0872  0.0728
  192POPC   NC3 2666   3.178   2.969   3.550  0.2275  0.3879  0.2014
  192POPC   PO4 2667   3.535   2.974   3.677  0.0943 -0.1576  0.1603
  192POPC   GL1 2668   3.784   2.796   4.142 -0.0554  0.2231  0.1227
  192POPC   GL2 2669   4.041   2.540   4.115  0.0797 -0.2198 -0.0697
  192POPC   C1A 2670   3.702   2.668   4.576  0.1712 -0.1864 -0.1367
  192POPC   D2A 2671   3.732   2.554   5.066 -0.1523 -0.2000  0.6531
  192POPC   C3A 2672   3.974   2.743   5.336 -0.4322  0.2181  0.1567
  192POPC   C4A 2673   4.003   2.874   5.698 -0.4224 -0.0652 -0.1053
  192POPC   C1B 2674   4.188   2.811   4.656 -0.2159 -0.1797  0.0166
  192POPC   C2B 2675   4.430   2.829   5.141  0.4325 -0.1381 -0.0650
  192POPC   C3B 2676   4.535   3.026   5.499 -0.1542 -0.1117  0.2836
  192POPC   C4B 2677   4.730   2.812   5.702 -0.1551 -0.1083  0.1639
  193POPC   NC3 2678   7.965   6.244   3.540 -0.0327  0.1514 -0.0548
  193POPC   PO4 2679   7.489   6.286   3.576  0.2001 -0.0805  0.1309
  193POPC   GL1 2680   7.591   6.119   3.953 -0.0929 -0.1912  0.4238
  193POPC   GL2 2681   7.484   5.717   4.076  0.1274 -0.0727  0.1149
  193POPC   C1A 2682   7.482   6.143   4.341  0.1714  0.1347  0.0156
  193POPC   D2A 2683   7.851   6.021   4.526  0.0004 -0.2387  0.1676
  193POPC   C3A 2684   7.795   5.755   4.914  0.0679 -0.2731  0.0091
  193POPC   C4A 2685   7.390   5.541   5.067 -0.1942 -0.1472 -0.0193
  193POPC   C1B 2686   7.566   5.579   4.465  0.0079 -0.0855 -0.1197
  193POPC   C2B 2687   7.706   5.138   4.814  0.3494  0.1431  0.0359
  193POPC   C3B 2688   7.910   4.709   4.835 -0.2917 -0.0292 -0.0233
  193POPC   C4B 2689   8.128   4.422   4.587  0.0932  0.2835 -0.0787
  194POPC   NC3 2690   1.913   0.530   3.598 -0.1446 -0.1442 -0.1697
  194POPC   PO4 2691   2.328   0.384   3.302 -0.1929 -0.0293 -0.0903
  194POPC   GL1 2692   2.426   0.394   3.777 -0.0077  0.0477  0.3689
  194POPC   GL2 2693   2.069   0.203   3.950 -0.0433 -0.2183 -0.0236
  194POPC   C1A 2694   2.598   0.019   3.996  0.1116  0.0253  0.3165
  194POPC   D2A 2695   2.684  -0.259   4.332  0.2697 -0.0875 -0.3892
  194POPC   C3A 2696   2.493  -0.321   4.741  0.2272 -0.2221  0.1290
  194POPC   C4A 2697   2.162  -0.202   4.998 -0.3117 -0.0160 -0.3564
  194POPC   C1B 2698   1.927   0.402   4.324  0.3134  0.1760  0.0232
  194POPC   C2B 2699   1.896   0.358   4.738  0.2881 -0.1659 -0.3571
  194POPC   C3B 2700   1.797   0.149   5.094 -0.1405  0.2517 -0.0897
  194POPC   C4B 2701   1.458  -0.087   5.174 -0.5040 -0.1592  0.2688
  195POPC   NC3 2702   4.530   7.129   3.923 -0.2734  0.1848 -0.2954
  195POPC   PO4 2703   4.240   6.678   3.889 -0.0968  0.1487  0.0226
  195POPC   GL1 2704   4.068   6.902   4.195 -0.2409 -0.1669  0.2459
  195POPC   GL2 2705   4.037   7.251   4.123  0.0043  0.1384  0.4115
  195POPC   C1A 2706   4.061   6.787   4.598  0.2628 -0.0606  0.0388
  195POPC   D2A 2707   3.969   6.711   5.108  0.2722 -0.0571 -0.1095
  195POPC   C3A 2708   3.979   6.340   5.204 -0.2373  0.0156  0.1289
  195POPC   C4A 2709   4.132   6.018   5.513 -0.2886  0.1199  0.0724
  195POPC   C1B 2710   4.014   7.381   4.434 -0.1645  0.2359  0.0054
  195POPC   C2B 2711   4.023   7.483   4.932 -0.0714 -0.0600 -0.1446
  195POPC   C3B 2712   4.147   7.735   5.284 -0.1362  0.2263 -0.1560
  195POPC   C4B 2713   4.428   7.967   5.188  0.1188  0.0441  0.1150
  196POPC   NC3 2714   9.051   5.758   2.968 -0.1454  0.0196 -0.1001
  196POPC   PO4 2715   9.111   5.530   3.365  0.0022 -0.0721  0.2186
  196POPC   GL1 2716   9.231   5.386   3.812  0.0804  0.0245 -0.3560
  196POPC   GL2 2717   9.172   5.070   3.846  0.0468  0.0107  0.1017
  196POPC   C1A 2718   9.484   5.481   4.189  0.1620 -0.1284  0.1842
  196POPC   D2A 2719   9.546   5.410   4.577  0.1524  0.4331  0.1998
  196POPC   C3A 2720   9.485   5.691   4.795  0.1036 -0.2484 -0.4459
  196POPC   C4A 2721   9.546   5.688   5.134 -0.0890 -0.1769 -0.0576
  196POPC   C1B 2722   9.384   5.023   4.229 -0.1555  0.2623 -0.2236
  196POPC   C2B 2723   9.531   4.938   4.747  0.0531 -0.0079  0.0108
  196POPC   C3B 2724   9.444   4.551   4.976 -0.1664  0.0935 -0.0710
  196POPC   C4B 2725   9.321   4.397   5.398  0.0805 -0.1145 -0.1233
  197POPC   NC3 2726   0.024   2.030   4.263  0.0514  0.0044  0.0741
  197POPC   PO4 2727   0.249   2.379   4.438 -0.1394 -0.1015  0.2619
  197POPC   GL1 2728   0.105   2.302   4.786 -0.0118  0.0926 -0.0076
  197POPC   GL2 2729   0.372   2.015   4.917  0.1607 -0.0354  0.1974
  197POPC   C1A 2730  -0.093   2.242   5.134 -0.2168  0.0107 -0.0071
  197POPC   D2A 2731  -0.503   2.390   5.194 -0.0683 -0.0896  0.0073
  197POPC   C3A 2732  -0.860   2.548   5.324 -0.4534 -0.1074 -0.2372
  197POPC   C4A 2733  -1.018   2.921   5.219 -0.1429 -0.5551  0.0342
  197POPC   C1B 2734   0.573   1.632   5.199  0.1952  0.0924  0.2510
  197POPC   C2B 2735   0.525   1.308   5.527 -0.0491 -0.1832 -0.0554
  197POPC   C3B 2736   0.558   0.989   5.747  0.1048  0.0457 -0.0567
  197POPC   C4B 2737   0.819   0.760   5.845  0.1524  0.2491  0.1170
  198POPC   NC3 2738   1.025   6.421   4.055 -0.1193  0.0241  0.1544
  198POPC   PO4 2739   0.957   6.777   3.895  0.0203 -0.2598 -0.0320
  198POPC   GL1 2740   0.835   6.752   4.343  0.0269 -0.1373  0.0944
  198POPC   GL2 2741   0.626   6.565   4.458 -0.1521 -0.3488 -0.1112
  198POPC   C1A 2742   1.118   6.646   4.635 -0.0296 -0.0402  0.1278
  198POPC   D2A 2743   1.234   6.617   5.008  0.1584 -0.4998  0.0403
  198POPC   C3A 2744   1.162   6.687   5.400 -0.1289  0.1606 -0.0393
  198POPC   C4A 2745   1.058   6.402   5.725 -0.2752  0.2766 -0.2703
  198POPC   C1B 2746   0.753   6.489   4.909 -0.0673  0.2626  0.0924
  198POPC   C2B 2747   0.711   6.371   5.406  0.1453  0.1292  0.0618
  198POPC   C3B 2748   0.624   6.092   5.768 -0.0243  0.0520  0.1475
  198POPC   C4B 2749   1.069   6.012   6.104 -0.0720  0.0390  0.2596
  199POPC   NC3 2750   3.292   1.877   3.249  0.1836 -0.0030  0.2726
  199POPC   PO4 2751   3.431   2.007   3.678  0.1284 -0.0500  0.2076
  199POPC   GL1 2752   3.435   2.129   4.081  0.0796  0.0836 -0.2218
  199POPC   GL2 2753   3.533   2.340   4.175 -0.2021  0.2280  0.0974
  199POPC   C1A 2754   3.333   1.729   4.443  0.1274 -0.1309 -0.1792
  199POPC   D2A 2755   2.924   1.403   4.706 -0.0504  0.1248  0.0550
  199POPC   C3A 2756   3.199   1.118   5.004  0.0474 -0.1030  0.1480
  199POPC   C4A 2757   3.310   0.630   4.880 -0.0678 -0.0745 -0.2374
  199POPC   C1B 2758   3.688   2.107   4.641  0.0195 -0.3012  0.3254
  199POPC   C2B 2759   3.934   1.921   4.793  0.1047 -0.0869 -0.0668
  199POPC   C3B 2760   3.963   1.770   5.201 -0.1275  0.0033  0.1628
  199POPC   C4B 2761   4.173   1.909   5.462 -0.0634 -0.2382  0.0668
  200POPC   NC3 2762   5.138   7.452   3.911 -0.0389  0.1708 -0.0478
  200POPC   PO4 2763   4.852   7.481   4.141 -0.0205 -0.2193 -0.0563
  200POPC   GL1 2764   4.611   7.450   4.459 -0.1417  0.1507 -0.2181
  200POPC   GL2 2765   4.481   7.190   4.585  0.0995  0.1860 -0.2049
  200POPC   C1A 2766   4.328   7.808   4.644 -0.1835  0.3006  0.1782
  200POPC   D2A 2767   4.131   8.166   4.414  0.0967 -0.1992  0.2317
  200POPC   C3A 2768   4.429   8.431   4.246 -0.3248  0.1467  0.1447
  200POPC   C4A 2769   4.539   8.782   4.608  0.3978  0.1026  0.3154
  200POPC   C1B 2770   4.395   6.952   4.976  0.0518 -0.3337 -0.0130
  200POPC   C2B 2771   4.643   7.067   5.262 -0.3958 -0.1670  0.2108
  200POPC   C3B 2772   4.901   7.224   5.481  0.0559  0.2231 -0.4104
  200POPC   C4B 2773   5.257   7.394   5.400  0.0930  0.3215 -0.1434
  201POPC   NC3 2774   3.910   3.427   3.586  0.0297 -0.0395 -0.1129
  201POPC   PO4 2775   3.898   3.953   3.616  0.4169 -0.2313  0.0424
  201POPC   GL1 2776   4.070   3.796   3.918  0.1379 -0.0616 -0.0831
  201POPC   GL2 2777   4.217   4.024   4.100 -0.2419 -0.1070  0.1754
  201POPC   C1A 2778   4.266   3.480   4.276  0.3652  0.0259 -0.1730
  201POPC   D2A 2779   4.127   3.406   4.587  0.1894 -0.1876 -0.3366
  201POPC   C3A 2780   4.440   3.381   4.983 -0.0299 -0.2513  0.0279
  201POPC   C4A 2781   4.771   3.328   5.216  0.1198  0.1406  0.1908
  201POPC   C1B 2782   3.963   4.260   4.466  0.0532 -0.0796  0.2119
  201POPC   C2B 2783   3.815   4.165   4.829 -0.1435 -0.4205 -0.0289
  201POPC   C3B 2784   3.999   4.299   5.251 -0.0160  0.2041 -0.2058
  201POPC   C4B 2785   4.251   4.377   5.671 -0.0016 -0.1477  0.0158
  202POPC   NC3 2786   5.292   7.154   3.564 -0.3585  0.0018 -0.0313
  202POPC   PO4 2787   5.002   7.013   3.807  0.1296  0.1780  0.2586
  202POPC   GL1 2788   4.895   7.019   4.315  0.0883  0.2866 -0.1802
  202POPC   GL2 2789   5.133   7.124   4.483 -0.3739 -0.0989  0.2686
  202POPC   C1A 2790   4.870   6.875   4.799  0.5108 -0.0509 -0.2290
  202POPC   D2A 2791   5.146   6.908   5.243 -0.3330  0.2389  0.3152
  202POPC   C3A 2792   5.297   6.534   5.301 -0.1044 -0.0568 -0.2394
  202POPC   C4A 2793   5.169   6.228   4.976 -0.4807 -0.0162 -0.0757
  202POPC   C1B 2794   4.982   7.293   4.826  0.0651  0.1657 -0.1890
  202POPC   C2B 2795   4.840   7.606   5.131  0.3689 -0.3238  0.0201
  202POPC   C3B 2796   4.920   8.065   5.127 -0.4271 -0.1413 -0.0368
  202POPC   C4B 2797   4.765   8.321   5.322 -0.0356  0.0397  0.1651
  203POPC   NC3 2798   6.575   2.407   3.124  0.1280 -0.0476 -0.3623
  203POPC   PO4 2799   6.315   2.199   3.366 -0.0767  0.1230 -0.0527
  203POPC   GL1 2800   6.434   2.278   3.774  0.4749  0.1634 -0.3218
  203POPC   GL2 2801   6.745   2.327   4.034  0.1923  0.0499  0.1326
  203POPC   C1A 2802   6.312   2.162   4.119  0.1144 -0.0888  0.0178
  203POPC   D2A 2803   6.306   1.904   4.499 -0.2551  0.1140 -0.0257
  203POPC   C3A 2804   6.268   1.817   4.965 -0.0121 -0.0120 -0.1830
  203POPC   C4A 2805   6.051   2.055   5.258  0.2352  0.2976 -0.1854
  203POPC   C1B 2806   6.698   2.257   4.545 -0.1459  0.3641 -0.1213
  203POPC   C2B 2807   6.663   2.157   4.942 -0.0772  0.2768  0.2188
  203POPC   C3B 2808   6.585   2.213   5.400 -0.3538 -0.1072  0.2355
  203POPC   C4B 2809   6.714   2.161   5.820  0.0212 -0.1495 -0.0725
  204POPC   NC3 2810   1.982   2.748   4.417 -0.0507  0.3565  0.2313
  204POPC   PO4 2811   2.148   2.327   4.481 -0.1398  0.3868  0.1249
  204POPC   GL1 2812   2.413   2.296   4.876  0.0234  0.4814 -0.0292
  204POPC   GL2 2813   2.231   2.164   5.178 -0.3057  0.1037 -0.1442
  204POPC   C1A 2814   2.717   2.029   5.166  0.1435  0.0465  0.0314
  204POPC   D2A 2815   3.033   1.840   5.364 -0.1483 -0.2437 -0.0609
  204POPC   C3A 2816   3.516   2.048   5.320 -0.0450  0.1931 -0.3945
  204POPC   C4A 2817   3.837   2.287   5.453  0.1311 -0.2271  0.1533
  204POPC   C1B 2818   2.303   1.834   5.407  0.2918 -0.0079  0.3955
  204POPC   C2B 2819   2.657   1.589   5.596 -0.1918  0.0671  0.2170
  204POPC   C3B 2820   3.120   1.415   5.626 -0.1848 -0.0710  0.1733
  204POPC   C4B 2821   3.494   1.326   5.402 -0.0348  0.5184  0.3085
  205POPC   NC3 2822   7.792   9.692   4.100 -0.3761 -0.0484  0.5913
  205POPC   PO4 2823   7.966   9.385   4.377  0.2651 -0.0754  0.3013
  205POPC   GL1 2824   7.575   9.348   4.527  0.1016 -0.0300 -0.1320
  205POPC   GL2 2825   7.383   9.096   4.499  0.0131 -0.3329 -0.2866
  205POPC   C1A 2826   7.279   9.476   4.872  0.0275 -0.1310 -0.0281
  205POPC   D2A 2827   7.076   9.460   5.277  0.2599  0.1135 -0.0575
  205POPC   C3A 2828   6.688   9.551   5.552 -0.1914  0.0340  0.1854
  205POPC   C4A 2829   6.561   9.267   5.899  0.2209  0.1571 -0.0426
  205POPC   C1B 2830   7.536   9.053   4.927 -0.0313 -0.0711 -0.0209
  205POPC   C2B 2831   7.354   9.107   5.368  0.1668  0.2317 -0.2629
  205POPC   C3B 2832   7.145   8.838   5.775 -0.1627 -0.1442  0.1530
  205POPC   C4B 2833   7.044   9.050   6.119 -0.1833  0.1398  0.2386
  206POPC   NC3 2834   0.967   3.988   3.781  0.0690 -0.1646  0.1180
  206POPC   PO4 2835   1.236   4.394   3.725 -0.3066  0.4520  0.0434
  206POPC   GL1 2836   1.456   4.602   4.042  0.2967  0.1713 -0.1922
  206POPC   GL2 2837   1.475   4.890   3.955  0.1721  0.0795  0.0907
  206POPC   C1A 2838   1.721   4.587   4.429  0.2406  0.1460 -0.0040
  206POPC   D2A 2839   1.898   4.682   4.816  0.0692  0.1232 -0.2363
  206POPC   C3A 2840   1.722   4.861   5.139 -0.0395  0.0424 -0.0253
  206POPC   C4A 2841   1.405   4.793   5.508 -0.0155 -0.1644  0.1543
  206POPC   C1B 2842   1.648   5.121   4.403 -0.1833  0.0816 -0.1855
  206POPC   C2B 2843   1.810   5.277   4.806  0.1346 -0.1608  0.0032
  206POPC   C3B 2844   1.934   5.315   5.148 -0.1634  0.1626  0.1585
  206POPC   C4B 2845   2.065   5.594   5.423 -0.2091 -0.0895  0.2564
  207POPC   NC3 2846   3.289   7.247   3.250  0.2872 -0.0216  0.0424
  207POPC   PO4 2847   3.277   7.710   3.367  0.0881  0.2933 -0.3577
  207POPC   GL1 2848   3.066   7.721   3.806 -0.1576 -0.1398 -0.1501
  207POPC   GL2 2849   2.692   7.787   3.916  0.2311  0.0662  0.0519
  207POPC   C1A 2850   3.053   7.574   4.207 -0.1364  0.0677  0.1739
  207POPC   D2A 2851   3.115   7.123   4.404  0.0167  0.1572  0.2406
  207POPC   C3A 2852   2.840   6.872   4.566  0.4781  0.0970  0.1032
  207POPC   C4A 2853   2.668   6.392   4.633 -0.1091 -0.0271  0.1994
  207POPC   C1B 2854   2.577   7.581   4.329 -0.3624  0.0704  0.0985
  207POPC   C2B 2855   2.625   7.271   4.660  0.2515  0.2633  0.3863
  207POPC   C3B 2856   2.751   7.321   5.055  0.0635 -0.0527  0.1782
  207POPC   C4B 2857   2.584   7.238   5.413  0.2192 -0.0927 -0.4861
  208POPC   NC3 2858   7.644   1.915   3.331 -0.0679 -0.0297 -0.0614
  208POPC   PO4 2859   8.041   2.044   3.571  0.3773 -0.1029 -0.2501
  208POPC   GL1 2860   7.805   2.289   3.889  0.1598 -0.0380 -0.0614
  208POPC   GL2 2861   7.684   2.061   4.201 -0.2143 -0.1742 -0.1562
  208POPC   C1A 2862   8.002   2.493   4.261  0.3598  0.1258  0.0169
  208POPC   D2A 2863   8.178   2.348   4.547 -0.0752 -0.0747 -0.0485
  208POPC   C3A 2864   8.020   2.281   4.973 -0.3051  0.2426 -0.2340
  208POPC   C4A 2865   8.055   2.400   5.357  0.0723  0.0386 -0.0191
  208POPC   C1B 2866   7.588   2.135   4.602  0.0285  0.0141  0.3368
  208POPC   C2B 2867   7.584   2.483   4.897 -0.2356  0.0895  0.0454
  208POPC   C3B 2868   7.434   2.705   5.371  0.0950  0.0241  0.1588
  208POPC   C4B 2869   7.502   2.952   5.670 -0.0028  0.1113  0.0714
  209POPC   NC3 2870   2.182   3.736   4.151 -0.1577 -0.0576  0.1180
  209POPC   PO4 2871   2.592   3.784   4.377 -0.1388  0.1501  0.3718
  209POPC   GL1 2872   2.699   3.749   4.750 -0.2482 -0.1144  0.0278
  209POPC   GL2 2873   2.744   3.480   4.911 -0.2856  0.3716 -0.1721
  209POPC   C1A 2874   3.027   3.948   5.144  0.3492 -0.0759 -0.2042
  209POPC   D2A 2875   2.990   3.988   5.501 -0.0008  0.3051 -0.0281
  209POPC   C3A 2876   3.393   4.039   5.681  0.0648  0.0060 -0.1023
  209POPC   C4A 2877   3.734   3.946   6.028 -0.0813  0.1181 -0.1123
  209POPC   C1B 2878   3.202   3.415   4.986  0.0574  0.1588  0.3034
  209POPC   C2B 2879   3.396   3.569   5.277 -0.0509  0.0508 -0.4013
  209POPC   C3B 2880   3.760   3.756   5.409 -0.0358 -0.0032 -0.1031
  209POPC   C4B 2881   4.051   3.917   5.626  0.2822 -0.1182 -0.2106
  210POPC   NC3 2882   7.494   3.206   3.573 -0.2197  0.3741 -0.0832
  210POPC   PO4 2883   7.438   2.787   3.780  0.1997  0.2770  0.0045
  210POPC   GL1 2884   7.348   2.699   4.207  0.1080  0.2370 -0.1049
  210POPC   GL2 2885   7.014   2.695   4.262  0.0431 -0.1296 -0.2371
  210POPC   C1A 2886   7.532   2.878   4.541  0.0787  0.0859  0.1251
  210POPC   D2A 2887   7.338   2.989   4.913 -0.2186  0.3844  0.0536
  210POPC   C3A 2888   7.037   3.021   5.290  0.3150 -0.0301  0.0945
  210POPC   C4A 2889   6.784   3.109   5.620  0.1642 -0.2890 -0.3082
  210POPC   C1B 2890   7.051   2.602   4.721 -0.1578 -0.1649 -0.1067
  210POPC   C2B 2891   7.028   2.414   5.123  0.1494  0.2870  0.2111
  210POPC   C3B 2892   7.059   2.337   5.500  0.0982 -0.0710 -0.1199
  210POPC   C4B 2893   7.269   2.299   5.864  0.2131  0.0284 -0.0220
  211POPC   NC3 2894   8.645   0.395   4.266  0.1140  0.0590 -0.0016
  211POPC   PO4 2895   8.979   0.594   4.219 -0.1916 -0.1210 -0.1863
  211POPC   GL1 2896   9.051   0.975   4.525  0.1377 -0.0348  0.5322
  211POPC   GL2 2897   9.289   1.156   4.571 -0.1169  0.5095  0.1130
  211POPC   C1A 2898   8.890   1.049   4.923 -0.0414 -0.0184 -0.0864
  211POPC   D2A 2899   9.081   1.008   5.373  0.0141 -0.3517 -0.1455
  211POPC   C3A 2900   9.022   1.026   5.804 -0.0597 -0.1932 -0.1548
  211POPC   C4A 2901   8.762   0.668   6.024 -0.1293 -0.0689  0.3300
  211POPC   C1B 2902   9.374   1.174   4.983  0.0251 -0.0345 -0.0426
  211POPC   C2B 2903   9.576   1.268   5.285 -0.2421  0.0531  0.2067
  211POPC   C3B 2904   9.504   1.257   5.660  0.2370 -0.1600 -0.1327
  211POPC   C4B 2905   9.378   1.239   6.138  0.0353  0.0521  0.0413
  212POPC   NC3 2906   3.711   9.666   3.630 -0.2275  0.1521 -0.1096
  212POPC   PO4 2907   3.881   9.281   3.754 -0.0662  0.1374  0.1546
  212POPC   GL1 2908   3.514   9.327   4.055 -0.2819 -0.3212 -0.2786
  212POPC   GL2 2909   3.260   9.475   4.022 -0.0965 -0.2294 -0.0961
  212POPC   C1A 2910   3.572   9.235   4.578  0.2381 -0.0557 -0.1486
  212POPC   D2A 2911   3.593   9.059   4.907  0.1116 -0.1036  0.0246
  212POPC   C3A 2912   3.568   9.255   5.188  0.0203  0.2752 -0.1583
  212POPC   C4A 2913   3.644   9.394   5.634  0.0060 -0.1080 -0.0815
  212POPC   C1B 2914   3.098   9.249   4.366 -0.1441  0.2450  0.0621
  212POPC   C2B 2915   3.107   8.925   4.652 -0.3723 -0.0667  0.0013
  212POPC   C3B 2916   2.861   8.836   4.986  0.0536  0.1401 -0.5352
  212POPC   C4B 2917   2.446   8.805   5.191  0.0417  0.2068  0.3112
  213POPC   NC3 2918   8.437   9.817   4.413 -0.1225  0.0588 -0.1480
  213POPC   PO4 2919   8.749   9.530   4.283 -0.1265 -0.1134  0.5283
  213POPC   GL1 2920   8.881   9.632   4.670 -0.2032  0.1938  0.0174
  213POPC   GL2 2921   9.234   9.547   4.765 -0.1857 -0.0200 -0.0064
  213POPC   C1A 2922   8.770   9.510   5.107  0.2704  0.2165  0.0630
  213POPC   D2A 2923   8.553   9.624   5.339 -0.0285  0.2208 -0.1928
  213POPC   C3A 2924   8.317   9.885   5.165 -0.1950 -0.2325  0.0589
  213POPC   C4A 2925   8.383  10.351   5.198  0.0987  0.0874 -0.0201
  213POPC   C1B 2926   9.296   9.109   5.005  0.0528 -0.0593 -0.1221
  213POPC   C2B 2927   9.447   8.782   5.197  0.0201 -0.1609  0.1471
  213POPC   C3B 2928   9.712   8.614   5.501  0.0631 -0.1940 -0.2337
  213POPC   C4B 2929  10.071   8.574   5.728  0.0349  0.3038  0.0341
  214POPC   NC3 2930   1.003   0.525   3.107 -0.3865  0.2177 -0.2070
  214POPC   PO4 2931   0.696   0.650   3.551 -0.1927  0.1832 -0.3512
  214POPC   GL1 2932   0.530   0.753   3.943  0.1186 -0.1871  0.0670
  214POPC   GL2 2933   0.445   0.465   4.203 -0.1808 -0.1543  0.0686
  214POPC   C1A 2934   0.474   0.929   4.389 -0.1538  0.1455 -0.2069
  214POPC   D2A 2935   0.665   0.881   4.787  0.1185  0.1937 -0.2825
  214POPC   C3A 2936   0.541   0.992   5.112  0.0464 -0.2724 -0.1993
  214POPC   C4A 2937   0.195   1.282   5.115  0.1490  0.2886 -0.0721
  214POPC   C1B 2938   0.384   0.431   4.695  0.0791  0.0640 -0.2129
  214POPC   C2B 2939   0.464   0.516   5.123 -0.0084  0.1598 -0.1103
  214POPC   C3B 2940   0.554   0.473   5.548  0.2008  0.4640  0.0999
  214POPC   C4B 2941   0.659   0.268   5.937  0.3095  0.0789  0.1289
  215POPC   NC3 2942   5.877   7.295   3.503  0.2228 -0.1642 -0.0322
  215POPC   PO4 2943   5.595   7.509   3.834 -0.0230 -0.1252 -0.2016
  215POPC   GL1 2944   5.543   7.259   4.154  0.3349  0.1686 -0.4752
  215POPC   GL2 2945   5.307   7.546   4.361  0.2953  0.3189  0.0621
  215POPC   C1A 2946   5.663   7.159   4.619  0.1070 -0.1845  0.0607
  215POPC   D2A 2947   5.470   7.225   4.987  0.2845 -0.1702 -0.0824
  215POPC   C3A 2948   5.669   7.178   5.278  0.1230  0.3206  0.2675
  215POPC   C4A 2949   5.607   6.829   5.652  0.2601  0.1403 -0.2200
  215POPC   C1B 2950   5.631   7.658   4.630  0.3257 -0.3589 -0.0472
  215POPC   C2B 2951   5.512   7.778   5.059 -0.1991  0.1280  0.2441
  215POPC   C3B 2952   5.283   7.844   5.521 -0.0981 -0.1744 -0.0571
  215POPC   C4B 2953   4.926   7.949   5.690 -0.0660  0.3250 -0.0399
  216POPC   NC3 2954   7.625   9.140   4.095  0.2657  0.1997  0.1422
  216POPC   PO4 2955   8.014   8.879   4.161 -0.5500 -0.0600  0.0373
  216POPC   GL1 2956   7.624   8.673   4.367 -0.0315 -0.0539 -0.2403
  216POPC   GL2 2957   7.768   8.782   4.607  0.1984 -0.0726  0.2510
  216POPC   C1A 2958   7.339   8.614   4.768  0.1457 -0.0859  0.3714
  216POPC   D2A 2959   7.381   8.634   5.229 -0.2082  0.2307 -0.0750
  216POPC   C3A 2960   7.681   8.378   5.542 -0.0461 -0.1506 -0.0955
  216POPC   C4A 2961   7.738   8.161   5.909  0.0792  0.2773  0.0412
  216POPC   C1B 2962   7.804   8.581   4.975 -0.1108 -0.2216  0.0061
  216POPC   C2B 2963   8.111   8.609   5.414  0.0956  0.1219 -0.0485
  216POPC   C3B 2964   8.216   8.231   5.713  0.0284 -0.2991 -0.1422
  216POPC   C4B 2965   8.254   7.936   5.947  0.1946 -0.0177  0.1337
  217POPC   NC3 2966   0.176   5.276   3.503  0.3914  0.0787  0.0269
  217POPC   PO4 2967   0.235   4.866   3.681  0.0906 -0.3662 -0.0184
  217POPC   GL1 2968   0.247   5.032   4.091  0.2110  0.0666 -0.0013
  217POPC   GL2 2969   0.536   4.741   4.137 -0.2188 -0.0179 -0.1370
  217POPC   C1A 2970   0.224   5.111   4.531 -0.1680 -0.0193 -0.0211
  217POPC   D2A 2971   0.453   5.055   4.933 -0.2326  0.1657  0.0279
  217POPC   C3A 2972   0.903   4.928   4.998 -0.2113 -0.0870 -0.0726
  217POPC   C4A 2973   1.143   4.575   5.108  0.0798  0.0740 -0.0943
  217POPC   C1B 2974   0.343   4.609   4.641 -0.1343 -0.1579  0.1641
  217POPC   C2B 2975   0.553   4.565   4.983 -0.0172  0.2222  0.1139
  217POPC   C3B 2976   0.369   4.826   5.394  0.0071 -0.4245  0.2281
  217POPC   C4B 2977   0.125   5.083   5.629  0.0032 -0.0780  0.3009
  218POPC   NC3 2978   6.587   4.817   2.936 -0.1434  0.1170 -0.1081
  218POPC   PO4 2979   6.810   4.642   3.347  0.0314 -0.0726 -0.0364
  218POPC   GL1 2980   7.010   4.706   3.863  0.0622  0.0364 -0.2056
  218POPC   GL2 2981   6.752   4.978   4.078  0.0260 -0.4711  0.0132
  218POPC   C1A 2982   7.209   4.955   4.231 -0.3074  0.1820  0.0577
  218POPC   D2A 2983   7.218   5.156   4.672  0.1994 -0.2566 -0.1392
  218POPC   C3A 2984   7.143   5.144   5.131  0.1222  0.2212  0.2983
  218POPC   C4A 2985   7.348   5.247   5.569  0.1316  0.1082  0.2706
  218POPC   C1B 2986   6.728   4.852   4.542  0.2115 -0.3146  0.0764
  218POPC   C2B 2987   6.955   4.681   4.898 -0.1835  0.0590  0.1156
  218POPC   C3B 2988   7.228   4.533   5.155 -0.2062  0.2084  0.0624
  218POPC   C4B 2989   7.518   4.775   5.126 -0.0180 -0.0678  0.2399
  219POPC   NC3 2990   0.678   9.461   3.268  0.0038 -0.0156  0.1432
  219POPC   PO4 2991   0.970   9.603   3.544 -0.1682  0.1452 -0.0488
  219POPC   GL1 2992   0.957   9.728   3.890 -0.4083  0.1603  0.1191
  219POPC   GL2 2993   1.234   9.841   3.891 -0.0473  0.2300  0.1887
  219POPC   C1A 2994   0.967   9.932   4.347 -0.3562  0.1309  0.2281
  219POPC   D2A 2995   0.971  10.009   4.827 -0.1567  0.3463  0.1025
  219POPC   C3A 2996   0.987  10.323   5.077 -0.3119  0.0864  0.1008
  219POPC   C4A 2997   0.919  10.627   5.295 -0.0429  0.0688  0.3392
  219POPC   C1B 2998   1.502  10.111   4.188 -0.0310 -0.0467 -0.0553
  219POPC   C2B 2999   1.486   9.983   4.618  0.0991 -0.1064  0.3685
  219POPC   C3B 3000   1.738   9.578   4.826  0.0590  0.1278 -0.0519
  219POPC   C4B 3001   1.815   9.448   5.236  0.1473  0.0358 -0.0646
  220POPC   NC3 3002   6.747   0.159   3.668  0.1365  0.1044  0.1616
  220POPC   PO4 3003   6.431   0.340   3.800 -0.0676  0.0953  0.1149
  220POPC   GL1 3004   6.647   0.052   4.113  0.1546  0.0694 -0.2733
  220POPC   GL2 3005   6.774   0.316   4.328  0.0091 -0.0132 -0.1612
  220POPC   C1A 3006   6.414  -0.142   4.490 -0.0779 -0.2038  0.0728
  220POPC   D2A 3007   6.437  -0.548   4.719  0.1582  0.1323  0.1541
  220POPC   C3A 3008   6.647  -0.639   5.124 -0.0271 -0.2176 -0.2030
  220POPC   C4A 3009   6.817  -0.844   5.429 -0.0070 -0.3664 -0.2804
  220POPC   C1B 3010   7.013   0.603   4.447  0.0650 -0.0346  0.2080
  220POPC   C2B 3011   7.114   0.916   4.809 -0.2960  0.0292  0.3119
  220POPC   C3B 3012   7.327   1.192   5.168  0.0895 -0.2107  0.0059
  220POPC   C4B 3013   7.637   1.562   5.411 -0.4597  0.1146  0.1335
  221POPC   NC3 3014   3.828   9.843   3.192  0.0787 -0.0855 -0.1417
  221POPC   PO4 3015   4.184   9.650   3.447 -0.1208 -0.0068 -0.0584
  221POPC   GL1 3016   4.171   9.692   3.902  0.2476 -0.1124  0.1417
  221POPC   GL2 3017   3.946   9.587   4.151 -0.0810 -0.1208 -0.3364
  221POPC   C1A 3018   4.224   9.949   4.240  0.1974 -0.1230  0.0499
  221POPC   D2A 3019   4.300  10.181   4.663  0.0630  0.2132 -0.2263
  221POPC   C3A 3020   4.461  10.331   5.061  0.2003 -0.0394  0.2535
  221POPC   C4A 3021   4.830  10.463   5.285 -0.2043  0.0037  0.0736
  221POPC   C1B 3022   4.091   9.555   4.552 -0.3077 -0.0066 -0.0870
  221POPC   C2B 3023   3.960   9.393   4.854  0.2808  0.0969  0.0467
  221POPC   C3B 3024   4.122   9.367   5.236  0.3300  0.2723 -0.1496
  221POPC   C4B 3025   4.446   9.127   5.488 -0.0926 -0.1888 -0.0173
  222POPC   NC3 3026   3.723   5.381   3.572  0.0100  0.2641 -0.1895
  222POPC   PO4 3027   4.092   5.142   3.689  0.0423  0.0711 -0.0857
  222POPC   GL1 3028   4.045   5.287   3.985  0.0982  0.1666  0.0566
  222POPC   GL2 3029   3.902   5.570   4.035  0.0711 -0.1446  0.0962
  222POPC   C1A 3030   4.050   5.280   4.407  0.1103 -0.0141  0.0904
  222POPC   D2A 3031   3.869   5.174   4.784  0.0251 -0.2179  0.2574
  222POPC   C3A 3032   4.007   5.037   5.076  0.2403  0.0774 -0.4596
  222POPC   C4A 3033   4.196   4.719   5.311  0.0190 -0.0187 -0.1245
  222POPC   C1B 3034   3.521   5.716   4.073 -0.0091  0.1624  0.0721
  222POPC   C2B 3035   3.075   5.974   3.998  0.0729 -0.1335  0.2911
  222POPC   C3B 3036   2.847   6.381   3.996  0.1426 -0.0383  0.0070
  222POPC   C4B 3037   3.007   6.786   4.042  0.0315  0.0407  0.0319
  223POPC   NC3 3038   9.003   6.809   3.548 -0.1125 -0.0521 -0.1212
  223POPC   PO4 3039   8.613   6.917   3.456  0.0800 -0.0018 -0.0118
  223POPC   GL1 3040   8.601   6.850   3.943  0.0512  0.0472  0.3580
  223POPC   GL2 3041   8.309   7.088   4.160 -0.3933 -0.1886  0.2065
  223POPC   C1A 3042   8.750   6.535   4.192  0.2324  0.0803 -0.2278
  223POPC   D2A 3043   8.728   6.062   4.396 -0.1232  0.1085 -0.3081
  223POPC   C3A 3044   8.791   6.085   4.865  0.0035  0.0939  0.1314
  223POPC   C4A 3045   8.938   6.330   5.161  0.0185  0.2407  0.0827
  223POPC   C1B 3046   8.558   7.059   4.430 -0.2209  0.3362 -0.0169
  223POPC   C2B 3047   8.596   7.231   4.838  0.2721 -0.0806  0.1758
  223POPC   C3B 3048   8.744   6.946   5.158  0.4158 -0.1725  0.1224
  223POPC   C4B 3049   8.693   6.609   5.516  0.0422 -0.1519  0.0413
  224POPC   NC3 3050   7.356   6.781   3.652  0.3280  0.0145 -0.3259
  224POPC   PO4 3051   6.937   6.914   3.892  0.1598 -0.2522 -0.1417
  224POPC   GL1 3052   7.201   7.031   4.217  0.1062 -0.3539 -0.0889
  224POPC   GL2 3053   7.382   7.145   4.389  0.0789 -0.1037 -0.1379
  224POPC   C1A 3054   7.290   6.825   4.728 -0.1191 -0.2291  0.0534
  224POPC   D2A 3055   7.136   6.585   5.115  0.3585  0.0193  0.3348
  224POPC   C3A 3056   7.174   6.745   5.457  0.2997  0.0363 -0.0061
  224POPC   C4A 3057   7.080   7.186   5.549  0.0468 -0.2051 -0.1028
  224POPC   C1B 3058   7.396   7.248   4.945  0.2902  0.1330 -0.2829
  224POPC   C2B 3059   7.736   7.159   5.320 -0.1970  0.1328 -0.0135
  224POPC   C3B 3060   7.666   6.828   5.615 -0.0610  0.3214 -0.0135
  224POPC   C4B 3061   7.888   6.698   6.018  0.1904  0.0034  0.1144
  225POPC   NC3 3062   4.500   1.906   3.615 -0.1919  0.3454  0.0224
  225POPC   PO4 3063   4.796   1.589   3.562  0.2136  0.2154  0.0244
  225POPC   GL1 3064   4.656   1.583   4.008 -0.0252 -0.2414  0.1425
  225POPC   GL2 3065   4.912   1.375   4.151 -0.3436  0.0179  0.0053
  225POPC   C1A 3066   4.806   1.876   4.346  0.1143  0.1679  0.1955
  225POPC   D2A 3067   4.823   2.060   4.705  0.0185  0.2353 -0.1914
  225POPC   C3A 3068   5.001   1.748   5.053 -0.1541  0.0578 -0.0043
  225POPC   C4A 3069   5.305   1.492   5.197 -0.2588 -0.1687 -0.1098
  225POPC   C1B 3070   4.911   1.115   4.486 -0.0991  0.1502 -0.1245
  225POPC   C2B 3071   5.157   1.133   4.758  0.0981  0.0083 -0.3067
  225POPC   C3B 3072   5.433   1.004   5.035 -0.1675 -0.0555 -0.3994
  225POPC   C4B 3073   5.251   0.716   5.391 -0.4793 -0.0523  0.1772
  226POPC   NC3 3074   6.564   4.364   3.676  0.1709  0.3019  0.0704
  226POPC   PO4 3075   6.432   4.885   3.725 -0.2212 -0.0178  0.1466
  226POPC   GL1 3076   6.277   4.604   4.080 -0.1130 -0.2588  0.3539
  226POPC   GL2 3077   6.584   4.512   4.183  0.1355  0.0394  0.0211
  226POPC   C1A 3078   6.094   4.460   4.339  0.0043 -0.0797  0.1111
  226POPC   D2A 3079   6.246   4.073   4.577 -0.1939 -0.2478 -0.2292
  226POPC   C3A 3080   6.238   4.011   4.952 -0.0440  0.2143 -0.2311
  226POPC   C4A 3081   5.996   3.804   5.338  0.1529  0.0178 -0.1158
  226POPC   C1B 3082   6.409   4.542   4.667  0.1583  0.0271  0.1796
  226POPC   C2B 3083   6.285   4.790   5.023  0.3672 -0.0630  0.0228
  226POPC   C3B 3084   6.094   4.984   5.321  0.5175  0.2754  0.1976
  226POPC   C4B 3085   5.752   5.316   5.273  0.4069 -0.1605  0.1540
  227POPC   NC3 3086   9.245   8.183   3.583  0.1628  0.0995 -0.1378
  227POPC   PO4 3087   9.503   8.472   3.924  0.0295 -0.2276 -0.2033
  227POPC   GL1 3088   9.421   8.438   4.333  0.3688 -0.1944 -0.1217
  227POPC   GL2 3089   9.592   8.168   4.417  0.1500 -0.2825 -0.0767
  227POPC   C1A 3090   9.189   8.573   4.660 -0.1043  0.1571  0.1033
  227POPC   D2A 3091   8.940   8.673   5.034 -0.0062  0.0278 -0.2565
  227POPC   C3A 3092   8.663   8.975   4.902 -0.4604 -0.3044 -0.0082
  227POPC   C4A 3093   8.325   9.428   4.889 -0.1610  0.2264  0.1021
  227POPC   C1B 3094   9.524   8.302   4.884 -0.2194  0.2576  0.0905
  227POPC   C2B 3095   9.458   8.224   5.299 -0.0928  0.0609 -0.0589
  227POPC   C3B 3096   9.393   8.015   5.780 -0.0171  0.2037 -0.0855
  227POPC   C4B 3097   9.413   7.904   6.126 -0.0822 -0.2049 -0.0688
  228POPC   NC3 3098   8.561   3.964   3.677  0.0566  0.0181 -0.0680
  228POPC   PO4 3099   8.486   3.573   3.621 -0.2264 -0.1441 -0.3352
  228POPC   GL1 3100   8.261   3.671   3.964 -0.0861 -0.0133 -0.1453
  228POPC   GL2 3101   8.336   4.008   4.098  0.0715 -0.2841  0.0752
  228POPC   C1A 3102   8.286   3.464   4.345  0.1242 -0.1846  0.0362
  228POPC   D2A 3103   8.136   3.490   4.741 -0.3403  0.1783 -0.3785
  228POPC   C3A 3104   8.096   3.517   5.055 -0.1553 -0.2466 -0.0112
  228POPC   C4A 3105   7.868   3.379   5.462 -0.1181 -0.2948  0.0247
  228POPC   C1B 3106   8.427   3.927   4.482 -0.1019 -0.3413 -0.3175
  228POPC   C2B 3107   8.452   3.902   4.895  0.2578  0.1775  0.0067
  228POPC   C3B 3108   8.257   3.922   5.232  0.0040 -0.3166 -0.1346
  228POPC   C4B 3109   8.029   4.128   5.542 -0.2551 -0.2853 -0.0397
  229POPC   NC3 3110   7.290   1.425   3.402  0.1664  0.0043  0.3167
  229POPC   PO4 3111   7.161   1.821   3.433  0.2396 -0.0123 -0.0334
  229POPC   GL1 3112   7.392   1.875   3.822  0.0321  0.2561  0.1407
  229POPC   GL2 3113   7.230   2.150   3.912  0.3246  0.0521  0.1536
  229POPC   C1A 3114   7.284   1.728   4.258  0.2515  0.2262 -0.0435
  229POPC   D2A 3115   7.323   1.596   4.720 -0.0645  0.2898  0.0267
  229POPC   C3A 3116   7.563   1.889   5.017 -0.0078  0.2363  0.0991
  229POPC   C4A 3117   7.546   2.239   5.360 -0.1850  0.2643  0.0778
  229POPC   C1B 3118   7.184   2.255   4.309  0.1163 -0.3047  0.2726
  229POPC   C2B 3119   7.128   2.000   4.694 -0.2801 -0.1492  0.0740
  229POPC   C3B 3120   7.075   1.925   5.175  0.1013  0.3937  0.0837
  229POPC   C4B 3121   7.269   1.854   5.546 -0.1022 -0.2976  0.1612
  230POPC   NC3 3122   5.466   9.906   3.840 -0.1842 -0.0233  0.0416
  230POPC   PO4 3123   5.130   9.428   3.833 -0.1042 -0.3976  0.0663
  230POPC   GL1 3124   4.969   9.313   4.209  0.2467 -0.0995 -0.3114
  230POPC   GL2 3125   4.597   9.543   4.225  0.0215 -0.0550 -0.0937
  230POPC   C1A 3126   5.002   8.953   4.664 -0.0097  0.0300 -0.0545
  230POPC   D2A 3127   5.024   8.711   4.993  0.1133  0.0151 -0.0824
  230POPC   C3A 3128   5.324   8.853   5.273 -0.0125  0.2459 -0.2400
  230POPC   C4A 3129   5.826   9.014   5.451 -0.2029  0.1535  0.0609
  230POPC   C1B 3130   4.535   9.766   4.590  0.1725 -0.1474  0.0581
  230POPC   C2B 3131   4.413   9.799   5.013 -0.0235  0.0147  0.1832
  230POPC   C3B 3132   4.436   9.946   5.410  0.2094 -0.0675  0.1884
  230POPC   C4B 3133   4.567  10.036   5.834 -0.0958 -0.1635  0.0053
  231POPC   NC3 3134   9.914   1.427   3.691 -0.2278 -0.1101 -0.0194
  231POPC   PO4 3135   9.665   1.641   4.019  0.0737 -0.0683  0.2384
  231POPC   GL1 3136   9.730   1.571   4.401  0.1591 -0.0088 -0.1652
  231POPC   GL2 3137   9.574   1.690   4.557  0.1109  0.2980  0.1459
  231POPC   C1A 3138   9.927   1.730   4.875  0.0904 -0.2044  0.1450
  231POPC   D2A 3139  10.022   1.753   5.248  0.0490 -0.1488  0.0445
  231POPC   C3A 3140   9.964   1.490   5.576  0.2878  0.0959  0.2537
  231POPC   C4A 3141  10.029   1.067   5.706 -0.1699  0.1543 -0.0786
  231POPC   C1B 3142   9.464   1.761   5.052  0.2380  0.0703 -0.0196
  231POPC   C2B 3143   9.542   1.760   5.509  0.0424  0.0323 -0.1921
  231POPC   C3B 3144   9.270   2.031   5.748 -0.1533 -0.1928 -0.2411
  231POPC   C4B 3145   9.084   2.505   5.913 -0.1267  0.1478  0.1085
  232POPC   NC3 3146   0.352   6.877   3.980 -0.1832  0.1916  0.2884
  232POPC   PO4 3147   0.659   7.167   4.043  0.2443  0.0935  0.0583
  232POPC   GL1 3148   0.588   7.312   4.491  0.0468  0.1285  0.1954
  232POPC   GL2 3149   0.802   7.125   4.670  0.0472  0.0443 -0.1343
  232POPC   C1A 3150   0.450   7.444   4.910  0.2294  0.2050  0.0694
  232POPC   D2A 3151   0.426   7.349   5.334 -0.4262  0.1700 -0.3262
  232POPC   C3A 3152  -0.014   7.269   5.586 -0.0480 -0.2174 -0.2047
  232POPC   C4A 3153  -0.327   7.022   5.739 -0.3870  0.0378  0.1345
  232POPC   C1B 3154   0.901   7.014   5.062  0.3816 -0.0864  0.2013
  232POPC   C2B 3155   0.665   6.960   5.475  0.0007 -0.0506  0.0296
  232POPC   C3B 3156   0.319   6.954   5.738  0.1779 -0.0208  0.0819
  232POPC   C4B 3157   0.095   6.849   6.155 -0.2969 -0.1572  0.2014
  233POPC   NC3 3158   0.179   7.376   3.882 -0.3501 -0.3600 -0.1759
  233POPC   PO4 3159   0.149   7.810   3.926 -0.2943 -0.1684 -0.1366
  233POPC   GL1 3160   0.149   7.656   4.351 -0.1499 -0.2454  0.0503
  233POPC   GL2 3161   0.020   7.854   4.585  0.0112 -0.2192  0.2280
  233POPC   C1A 3162   0.087   7.279   4.539  0.0472 -0.2191  0.2242
  233POPC   D2A 3163   0.295   6.935   4.491  0.3483 -0.0702 -0.2338
  233POPC   C3A 3164   0.420   6.882   4.980 -0.1251  0.3873 -0.0505
  233POPC   C4A 3165   0.275   6.546   5.320  0.2438 -0.1962 -0.0294
  233POPC   C1B 3166  -0.036   7.946   5.025  0.0621  0.1070  0.1541
  233POPC   C2B 3167  -0.012   8.137   5.557 -0.0218 -0.0854  0.0455
  233POPC   C3B 3168   0.119   8.225   6.075  0.5001 -0.0641  0.1864
  233POPC   C4B 3169   0.447   8.406   6.378 -0.3102  0.1397 -0.1959
  234POPC   NC3 3170   3.476   8.232   3.604 -0.1139 -0.1021 -0.0451
  234POPC   PO4 3171   3.770   8.522   3.265 -0.1955  0.0395 -0.0865
  234POPC   GL1 3172   4.008   8.603   3.753  0.0887  0.1731 -0.0205
  234POPC   GL2 3173   4.250   8.809   3.850 -0.2033  0.0403 -0.0072
  234POPC   C1A 3174   3.885   8.750   4.158 -0.2169  0.0199  0.2552
  234POPC   D2A 3175   4.052   9.043   4.574 -0.0916  0.1616  0.3238
  234POPC   C3A 3176   4.225   8.892   4.996 -0.1145  0.0682 -0.3244
  234POPC   C4A 3177   4.488   8.699   5.179  0.0840 -0.0576  0.1137
  234POPC   C1B 3178   4.438   9.039   4.210  0.1770  0.1218 -0.2084
  234POPC   C2B 3179   4.465   9.259   4.698  0.1844  0.0071 -0.2753
  234POPC   C3B 3180   4.695   9.107   5.036 -0.0246 -0.3618  0.3446
  234POPC   C4B 3181   4.918   9.014   5.474 -0.0514 -0.0134 -0.0347
  235POPC   NC3 3182   8.638   6.604   3.059 -0.0868 -0.0663  0.0423
  235POPC   PO4 3183   8.465   6.425   3.459  0.0196 -0.2054 -0.0875
  235POPC   GL1 3184   8.270   6.458   3.876  0.4238 -0.3008  0.2617
  235POPC   GL2 3185   8.027   6.487   4.001  0.0271 -0.2559  0.0822
  235POPC   C1A 3186   8.294   6.609   4.394 -0.0717  0.1293  0.1764
  235POPC   D2A 3187   8.286   6.817   4.797  0.0243  0.3368 -0.0533
  235POPC   C3A 3188   8.171   6.803   5.132  0.0800  0.3261  0.0848
  235POPC   C4A 3189   8.165   6.597   5.433 -0.1111 -0.1680 -0.3508
  235POPC   C1B 3190   8.256   6.147   4.285  0.0411  0.0325 -0.0696
  235POPC   C2B 3191   8.352   6.014   4.687  0.2267  0.2627  0.0201
  235POPC   C3B 3192   8.435   5.786   5.091 -0.0893  0.0126  0.0736
  235POPC   C4B 3193   8.122   5.733   5.413  0.0033  0.3227 -0.0592
  236POPC   NC3 3194   9.201   4.665   3.582  0.0466  0.3856  0.1049
  236POPC   PO4 3195   8.898   4.393   3.690  0.1616  0.1963 -0.0845
  236POPC   GL1 3196   8.749   4.310   4.130 -0.1957  0.0856  0.1086
  236POPC   GL2 3197   8.941   4.148   4.340  0.1495 -0.2152  0.2541
  236POPC   C1A 3198   8.364   4.556   4.177  0.1989  0.1398 -0.0008
  236POPC   D2A 3199   8.023   4.562   4.104 -0.1990  0.0512 -0.1478
  236POPC   C3A 3200   7.721   4.752   4.372 -0.0260 -0.0872  0.0008
  236POPC   C4A 3201   7.362   4.685   4.595  0.0149  0.0602  0.1425
  236POPC   C1B 3202   8.665   4.316   4.631 -0.1991  0.0768  0.1602
  236POPC   C2B 3203   8.482   4.752   4.721  0.1412 -0.1687  0.0242
  236POPC   C3B 3204   8.276   4.930   5.111 -0.0104 -0.1456 -0.0196
  236POPC   C4B 3205   7.936   4.749   5.397 -0.0498  0.0028 -0.0034
  237POPC   NC3 3206   0.059   8.371   3.953  0.1388  0.0492  0.1095
  237POPC   PO4 3207   0.568   8.272   3.983 -0.1710 -0.2069 -0.2835
  237POPC   GL1 3208   0.906   8.379   4.360 -0.2894 -0.1571  0.3011
  237POPC   GL2 3209   1.142   8.621   4.396 -0.1543  0.0144  0.3046
  237POPC   C1A 3210   0.977   8.332   4.880 -0.1980 -0.1582 -0.1239
  237POPC   D2A 3211   0.987   8.525   5.314  0.0350 -0.0601 -0.1736
  237POPC   C3A 3212   1.082   8.452   5.720 -0.1871 -0.1698  0.2358
  237POPC   C4A 3213   0.770   8.291   5.941 -0.1931 -0.3261 -0.1075
  237POPC   C1B 3214   1.122   8.788   4.764  0.2312 -0.1702 -0.0159
  237POPC   C2B 3215   1.198   8.892   5.167 -0.1375  0.0428 -0.2642
  237POPC   C3B 3216   1.226   8.958   5.574  0.1269  0.3554 -0.0868
  237POPC   C4B 3217   1.588   9.153   5.686  0.1560  0.0024  0.2019
  238POPC   NC3 3218   9.273   5.954   3.595 -0.1164 -0.2168  0.0144
  238POPC   PO4 3219   9.437   6.417   3.629  0.1690  0.1187  0.1936
  238POPC   GL1 3220   9.554   6.462   4.029 -0.1177  0.2924 -0.1542
  238POPC   GL2 3221   9.252   6.420   4.123 -0.1190 -0.3014 -0.0442
  238POPC   C1A 3222   9.656   6.597   4.532 -0.2054 -0.2106 -0.0592
  238POPC   D2A 3223   9.812   6.944   4.826  0.0587 -0.1525  0.0663
  238POPC   C3A 3224   9.836   6.903   5.247 -0.1244 -0.0537 -0.0056
  238POPC   C4A 3225   9.733   6.561   5.543 -0.0439  0.0108 -0.1386
  238POPC   C1B 3226   9.177   6.401   4.530 -0.0342 -0.0662  0.0360
  238POPC   C2B 3227   9.277   6.142   4.903  0.0432  0.0180  0.0138
  238POPC   C3B 3228   9.460   6.162   5.385 -0.0588  0.0446 -0.0427
  238POPC   C4B 3229   9.609   6.105   5.851  0.0097  0.2717  0.0113
  239POPC   NC3 3230   7.914   4.713   3.662 -0.1612  0.5636 -0.0006
  239POPC   PO4 3231   7.719   4.383   3.536 -0.0523  0.0016  0.2616
  239POPC   GL1 3232   7.503   4.397   3.936 -0.5446  0.1921  0.0649
  239POPC   GL2 3233   7.519   4.215   3.973 -0.1351 -0.0259 -0.2989
  239POPC   C1A 3234   7.167   4.429   4.244  0.1089 -0.1985 -0.1430
  239POPC   D2A 3235   7.068   4.248   4.679 -0.0483 -0.2732 -0.4191
  239POPC   C3A 3236   6.733   4.275   4.997 -0.1216  0.0257 -0.0383
  239POPC   C4A 3237   6.503   4.159   5.422  0.1362 -0.1096 -0.0615
  239POPC   C1B 3238   7.687   4.257   4.374  0.0400 -0.1035  0.0403
  239POPC   C2B 3239   7.591   4.268   4.774 -0.0858 -0.2932 -0.0798
  239POPC   C3B 3240   7.815   4.329   5.085  0.1997  0.1310 -0.2822
  239POPC   C4B 3241   8.313   4.419   5.146 -0.0201  0.0462 -0.1161
  240POPC   NC3 3242   8.199   6.968   3.708 -0.1053  0.1151  0.2416
  240POPC   PO4 3243   7.831   6.792   3.609  0.0764 -0.0534  0.0163
  240POPC   GL1 3244   7.706   6.941   3.966  0.0626 -0.0337  0.0039
  240POPC   GL2 3245   7.505   6.632   4.196 -0.1690 -0.0173  0.1086
  240POPC   C1A 3246   7.840   6.996   4.357  0.2411 -0.1713 -0.0016
  240POPC   D2A 3247   7.791   7.038   4.837  0.0229 -0.1020  0.0869
  240POPC   C3A 3248   7.630   6.717   5.130  0.0533  0.3734 -0.0017
  240POPC   C4A 3249   7.550   6.235   5.011  0.0018  0.0550 -0.1676
  240POPC   C1B 3250   7.735   6.520   4.540  0.1457  0.2340 -0.1457
  240POPC   C2B 3251   8.016   6.404   4.798 -0.3550 -0.1888 -0.0462
  240POPC   C3B 3252   8.052   6.145   5.184  0.0312  0.0524 -0.0947
  240POPC   C4B 3253   8.122   6.155   5.728 -0.1797  0.1232 -0.1061
  241POPC   NC3 3254   5.636   3.910   3.441 -0.1737  0.3557 -0.0353
  241POPC   PO4 3255   5.971   3.551   3.505 -0.0311  0.0390  0.0146
  241POPC   GL1 3256   5.684   3.599   3.804  0.1745  0.2664 -0.2200
  241POPC   GL2 3257   5.595   3.279   3.769 -0.0684  0.2038 -0.1312
  241POPC   C1A 3258   5.488   3.734   4.256 -0.1479 -0.0321  0.1104
  241POPC   D2A 3259   5.296   3.770   4.733 -0.0034  0.1384 -0.0223
  241POPC   C3A 3260   5.188   4.141   4.988  0.0745  0.1449 -0.2219
  241POPC   C4A 3261   4.830   4.368   5.053 -0.0421 -0.2238 -0.1971
  241POPC   C1B 3262   5.339   3.105   4.092  0.1676 -0.1590  0.1606
  241POPC   C2B 3263   4.975   2.901   4.364 -0.1156 -0.0917  0.1994
  241POPC   C3B 3264   4.572   2.746   4.317  0.1390 -0.1766  0.4156
  241POPC   C4B 3265   4.257   2.985   4.103  0.3137 -0.4127  0.0156
  242POPC   NC3 3266   4.718   1.124   3.728  0.2278  0.1429  0.1792
  242POPC   PO4 3267   5.165   0.877   3.686  0.0775 -0.1526  0.0440
  242POPC   GL1 3268   5.250   0.916   4.128  0.0254 -0.2491  0.0193
  242POPC   GL2 3269   4.877   0.814   4.088  0.0949  0.0689  0.1613
  242POPC   C1A 3270   5.584   0.829   4.543 -0.5310 -0.2293  0.0759
  242POPC   D2A 3271   5.547   0.432   4.880 -0.2645 -0.1334  0.3036
  242POPC   C3A 3272   5.492   0.281   5.285  0.1504  0.2383  0.3035
  242POPC   C4A 3273   5.768   0.160   5.596 -0.0440 -0.0753 -0.1379
  242POPC   C1B 3274   5.099   0.607   4.476  0.0728  0.1893  0.3725
  242POPC   C2B 3275   5.086   0.691   4.852 -0.0717  0.0315  0.0022
  242POPC   C3B 3276   4.965   1.043   5.204  0.1897  0.3517  0.3045
  242POPC   C4B 3277   4.748   1.148   5.580  0.0192  0.2509 -0.0231
  243POPC   NC3 3278   2.305   6.203   3.313 -0.2250  0.2430 -0.0191
  243POPC   PO4 3279   2.184   6.666   3.416 -0.1003  0.2807 -0.1718
  243POPC   GL1 3280   2.356   6.412   3.787  0.1096 -0.0066 -0.2380
  243POPC   GL2 3281   2.484   6.100   3.794 -0.1648  0.1599  0.0152
  243POPC   C1A 3282   2.226   6.146   4.237 -0.0873 -0.0258  0.1737
  243POPC   D2A 3283   2.204   6.163   4.740  0.1558 -0.1157  0.0428
  243POPC   C3A 3284   2.287   6.503   4.975 -0.1392  0.3149  0.1124
  243POPC   C4A 3285   2.525   6.748   4.943 -0.1851 -0.1805 -0.0720
  243POPC   C1B 3286   2.604   5.832   4.268 -0.1450  0.2340  0.0089
  243POPC   C2B 3287   2.732   5.807   4.652  0.0428  0.2156  0.1160
  243POPC   C3B 3288   2.817   6.104   5.054 -0.0408  0.2682  0.1927
  243POPC   C4B 3289   2.740   6.090   5.631 -0.0942  0.2820  0.0128
  244POPC   NC3 3290   0.202   0.985   3.613 -0.1031  0.2053  0.3320
  244POPC   PO4 3291   0.495   1.333   3.758  0.1460  0.0623 -0.1901
  244POPC   GL1 3292   0.813   1.305   3.967  0.4641  0.0028  0.2125
  244POPC   GL2 3293   0.974   0.961   3.977 -0.1354 -0.1720  0.1165
  244POPC   C1A 3294   0.896   1.433   4.315  0.2138 -0.1796  0.0658
  244POPC   D2A 3295   0.792   1.366   4.732  0.1702 -0.0790 -0.1768
  244POPC   C3A 3296   0.391   1.294   4.657  0.0395 -0.1192  0.2958
  244POPC   C4A 3297  -0.044   1.199   4.656 -0.0802  0.0730 -0.4907
  244POPC   C1B 3298   1.013   0.913   4.384 -0.1003 -0.1340  0.2705
  244POPC   C2B 3299   1.293   1.030   4.785  0.0243 -0.1761  0.0542
  244POPC   C3B 3300   1.386   0.918   5.263  0.0989  0.1649  0.0161
  244POPC   C4B 3301   1.254   0.991   5.587 -0.1552  0.3451  0.0415
  245POPC   NC3 3302   8.407   8.179   3.972 -0.0148  0.0468 -0.1231
  245POPC   PO4 3303   8.048   8.350   3.952 -0.1697  0.1559  0.1321
  245POPC   GL1 3304   8.115   8.306   4.423  0.0324  0.1785 -0.1274
  245POPC   GL2 3305   8.221   8.607   4.563  0.3110  0.0164 -0.0238
  245POPC   C1A 3306   8.113   8.230   4.872 -0.0833 -0.0239 -0.1562
  245POPC   D2A 3307   7.984   8.091   5.297 -0.0088 -0.0178 -0.2017
  245POPC   C3A 3308   7.832   7.795   5.601  0.0699  0.2014  0.3082
  245POPC   C4A 3309   7.826   7.633   6.009  0.0787 -0.0073 -0.3377
  245POPC   C1B 3310   8.163   8.951   4.838  0.2531  0.0614 -0.1100
  245POPC   C2B 3311   8.210   9.055   5.254  0.1830  0.0863 -0.1443
  245POPC   C3B 3312   8.574   9.183   5.490  0.0939  0.1951 -0.0143
  245POPC   C4B 3313   8.974   9.089   5.427 -0.0705 -0.3073 -0.0706
  246POPC   NC3 3314   3.761   1.083   3.238 -0.0568 -0.0530  0.0327
  246POPC   PO4 3315   4.180   1.084   3.437 -0.1573 -0.0302 -0.3209
  246POPC   GL1 3316   4.227   0.996   3.890 -0.1597  0.2145  0.1755
  246POPC   GL2 3317   4.117   1.204   4.111 -0.0386 -0.0678  0.1209
  246POPC   C1A 3318   4.294   0.781   4.292  0.0081  0.0190  0.0810
  246POPC   D2A 3319   4.619   0.695   4.625  0.0170  0.0995  0.0095
  246POPC   C3A 3320   4.601   1.041   4.834  0.0147  0.0768 -0.0156
  246POPC   C4A 3321   4.435   0.901   5.275  0.2070  0.0744 -0.0081
  246POPC   C1B 3322   4.464   1.290   4.431 -0.0452  0.0708  0.0407
  246POPC   C2B 3323   4.764   1.521   4.705  0.1087  0.1555 -0.2908
  246POPC   C3B 3324   5.191   1.607   4.620  0.1025  0.1377  0.1826
  246POPC   C4B 3325   5.613   1.862   4.864 -0.1226 -0.1712 -0.1597
  247POPC   NC3 3326   1.085   7.643   3.650 -0.1689  0.1195  0.2776
  247POPC   PO4 3327   1.048   7.964   3.995 -0.1883  0.0026 -0.1693
  247POPC   GL1 3328   1.072   7.822   4.431 -0.0454  0.1121  0.1473
  247POPC   GL2 3329   0.759   7.970   4.642  0.2927  0.4350  0.1295
  247POPC   C1A 3330   0.984   7.575   4.771 -0.0464  0.0156 -0.0519
  247POPC   D2A 3331   0.931   7.613   5.251  0.0737  0.1862 -0.1416
  247POPC   C3A 3332   1.116   7.326   5.571 -0.1167 -0.2272 -0.0820
  247POPC   C4A 3333   1.557   7.318   5.760 -0.2881 -0.3898  0.2051
  247POPC   C1B 3334   0.561   7.977   5.016  0.1285  0.0992 -0.1071
  247POPC   C2B 3335   0.325   7.813   5.404 -0.3705  0.2681 -0.0098
  247POPC   C3B 3336   0.062   7.715   5.824 -0.0471  0.0226  0.2750
  247POPC   C4B 3337  -0.335   7.482   5.991  0.0360  0.1832  0.2818
  248POPC   NC3 3338   1.959   7.155   3.552  0.0488  0.2688 -0.0820
  248POPC   PO4 3339   1.930   7.535   3.657  0.4770 -0.2663  0.1790
  248POPC   GL1 3340   2.010   7.636   4.076  0.0791  0.2146  0.0119
  248POPC   GL2 3341   2.244   8.002   4.147 -0.3332 -0.2351 -0.1585
  248POPC   C1A 3342   2.037   7.335   4.440 -0.3173 -0.4048 -0.3409
  248POPC   D2A 3343   2.174   7.022   4.725  0.0440 -0.0820  0.1007
  248POPC   C3A 3344   2.177   7.279   5.048 -0.1694  0.0619 -0.0806
  248POPC   C4A 3345   1.910   7.265   5.390  0.2927  0.0171 -0.0994
  248POPC   C1B 3346   2.198   7.882   4.657 -0.0347  0.0045  0.1902
  248POPC   C2B 3347   2.475   7.711   5.031  0.0499  0.0680  0.4948
  248POPC   C3B 3348   2.625   7.794   5.385  0.1612 -0.1595  0.0973
  248POPC   C4B 3349   2.752   8.118   5.539  0.1883 -0.0720  0.1489
  249POPC   NC3 3350   2.635   8.662   3.343  0.1786 -0.2371 -0.0253
  249POPC   PO4 3351   2.600   8.427   3.692  0.2126 -0.1727 -0.2059
  249POPC   GL1 3352   2.648   8.366   4.073  0.0176  0.0758 -0.1520
  249POPC   GL2 3353   2.881   8.638   4.103 -0.1843  0.4657  0.2432
  249POPC   C1A 3354   2.758   8.086   4.378  0.0505  0.2617  0.0077
  249POPC   D2A 3355   2.748   8.021   4.792 -0.0287 -0.1313  0.3849
  249POPC   C3A 3356   2.876   8.334   5.096  0.1194 -0.2581 -0.0605
  249POPC   C4A 3357   2.912   8.601   5.412  0.2164 -0.3134  0.0079
  249POPC   C1B 3358   2.679   8.976   4.294  0.3316  0.1149  0.0873
  249POPC   C2B 3359   2.705   9.196   4.750 -0.1967  0.2344  0.2728
  249POPC   C3B 3360   2.726   9.256   5.172 -0.0659 -0.1174  0.3734
  249POPC   C4B 3361   2.709   9.222   5.601  0.0371 -0.0872  0.0582
  250POPC   NC3 3362   7.078   7.204   3.435 -0.1684  0.0519  0.0820
  250POPC   PO4 3363   7.283   7.335   3.849  0.0027 -0.0773  0.0575
  250POPC   GL1 3364   7.560   7.532   4.128  0.4251  0.0279 -0.3570
  250POPC   GL2 3365   7.295   7.711   4.328 -0.0649  0.1185  0.0641
  250POPC   C1A 3366   7.735   7.484   4.431  0.1284 -0.0050  0.0427
  250POPC   D2A 3367   8.145   7.309   4.551  0.1042  0.1226  0.1047
  250POPC   C3A 3368   8.174   7.298   5.024 -0.2946  0.2958  0.0938
  250POPC   C4A 3369   8.302   7.150   5.444 -0.1048 -0.3394 -0.1655
  250POPC   C1B 3370   7.078   7.470   4.634 -0.1143 -0.2023  0.0647
  250POPC   C2B 3371   6.872   7.066   4.745  0.1697 -0.1013 -0.2086
  250POPC   C3B 3372   6.600   6.811   5.009  0.1790 -0.1293  0.2246
  250POPC   C4B 3373   6.600   6.827   5.484 -0.0649  0.1459  0.1713
  251POPC   NC3 3374   8.447   7.773   3.480  0.0730 -0.3180  0.0434
  251POPC   PO4 3375   8.798   7.884   3.687 -0.1227 -0.4479 -0.1077
  251POPC   GL1 3376   8.661   7.773   4.149  0.0963  0.0563 -0.3168
  251POPC   GL2 3377   8.784   7.572   4.205  0.2590  0.0342  0.5193
  251POPC   C1A 3378   8.516   7.735   4.561  0.0102  0.3239  0.1196
  251POPC   D2A 3379   8.656   7.762   4.938  0.0224 -0.1843 -0.0930
  251POPC   C3A 3380   8.742   7.418   5.251 -0.1859 -0.0978 -0.0253
  251POPC   C4A 3381   8.728   7.237   5.600 -0.0402 -0.3027  0.2342
  251POPC   C1B 3382   9.066   7.393   4.621  0.1456  0.0136 -0.1699
  251POPC   C2B 3383   9.125   6.949   4.775 -0.1114  0.0486 -0.0702
  251POPC   C3B 3384   8.734   6.599   4.700  0.0163  0.0092  0.0463
  251POPC   C4B 3385   8.472   6.389   5.073  0.1895 -0.1590  0.0765
  252POPC   NC3 3386   2.435   4.569   3.172  0.4586  0.1811  0.2873
  252POPC   PO4 3387   2.755   4.631   3.477 -0.0838 -0.4841 -0.0615
  252POPC   GL1 3388   2.854   4.683   3.916  0.0934 -0.0314 -0.1456
  252POPC   GL2 3389   3.071   4.977   3.866 -0.1340  0.1469 -0.2566
  252POPC   C1A 3390   2.826   4.471   4.367 -0.0940 -0.0660 -0.0117
  252POPC   D2A 3391   3.007   4.354   4.648  0.0266  0.1320  0.4381
  252POPC   C3A 3392   3.283   4.323   4.908  0.0798  0.2650 -0.0194
  252POPC   C4A 3393   3.520   4.139   5.194  0.0332  0.1344  0.2093
  252POPC   C1B 3394   3.201   4.945   4.274  0.2199  0.0595 -0.0950
  252POPC   C2B 3395   3.156   4.822   4.693  0.1097  0.2388 -0.0375
  252POPC   C3B 3396   3.111   4.838   5.102  0.4043  0.2437  0.3395
  252POPC   C4B 3397   2.803   5.041   5.399 -0.0008 -0.3135 -0.0481
  253POPC   NC3 3398   7.398   5.764   3.539  0.2289 -0.0471 -0.0134
  253POPC   PO4 3399   7.079   5.979   3.701  0.1332  0.0565 -0.4684
  253POPC   GL1 3400   6.785   5.740   4.035  0.0761 -0.0891  0.1746
  253POPC   GL2 3401   6.917   5.441   4.032 -0.1022  0.1950 -0.0229
  253POPC   C1A 3402   6.450   5.407   4.177 -0.0587  0.0892  0.2903
  253POPC   D2A 3403   6.247   5.137   4.227 -0.0430  0.2086 -0.0097
  253POPC   C3A 3404   6.178   5.019   4.593 -0.4543 -0.1401 -0.2026
  253POPC   C4A 3405   6.009   5.255   4.841  0.3584  0.1916  0.2944
  253POPC   C1B 3406   6.986   5.622   4.474  0.1759 -0.3368  0.0889
  253POPC   C2B 3407   6.911   5.581   4.962 -0.2725 -0.0624  0.1724
  253POPC   C3B 3408   7.039   5.717   5.386 -0.2081  0.1734 -0.0526
  253POPC   C4B 3409   7.184   5.706   5.753  0.1787  0.1637 -0.1027
  254POPC   NC3 3410   4.696   4.019   3.123 -0.0927  0.2236 -0.0401
  254POPC   PO4 3411   5.196   3.829   3.216  0.1229 -0.2407 -0.0776
  254POPC   GL1 3412   5.212   3.767   3.619  0.1017 -0.1301 -0.1352
  254POPC   GL2 3413   5.146   3.407   3.775  0.2768  0.1632 -0.2478
  254POPC   C1A 3414   5.034   3.948   4.091  0.2130 -0.3071  0.0730
  254POPC   D2A 3415   4.614   4.252   4.190 -0.1215  0.0549 -0.0653
  254POPC   C3A 3416   4.417   4.245   4.541  0.0688 -0.0130 -0.2030
  254POPC   C4A 3417   4.359   4.325   4.885  0.0197 -0.1381 -0.1131
  254POPC   C1B 3418   5.041   3.447   4.221  0.0330 -0.1005 -0.2409
  254POPC   C2B 3419   5.216   3.301   4.564  0.0059 -0.0260  0.0247
  254POPC   C3B 3420   5.259   3.313   4.977 -0.1219 -0.2968 -0.3286
  254POPC   C4B 3421   5.531   3.048   5.291  0.0501  0.1894  0.1196
  255POPC   NC3 3422   4.464   5.423   3.370  0.1451 -0.0314  0.1684
  255POPC   PO4 3423   4.574   5.698   3.716  0.0348  0.1531 -0.0983
  255POPC   GL1 3424   4.477   5.616   4.178  0.0753  0.1500 -0.2649
  255POPC   GL2 3425   4.779   5.711   4.292 -0.0694 -0.0532  0.0192
  255POPC   C1A 3426   4.113   5.771   4.466  0.0047 -0.0150 -0.2521
  255POPC   D2A 3427   4.068   5.908   4.921  0.0561 -0.2705 -0.1840
  255POPC   C3A 3428   4.181   5.543   5.100  0.1410  0.0531 -0.0859
  255POPC   C4A 3429   3.990   5.382   5.455 -0.1456  0.0581  0.2140
  255POPC   C1B 3430   5.011   5.615   4.662 -0.1032  0.0952  0.3000
  255POPC   C2B 3431   5.308   5.631   4.961  0.2091 -0.0941 -0.1791
  255POPC   C3B 3432   5.470   5.886   5.288 -0.2679 -0.0710  0.0177
  255POPC   C4B 3433   5.439   6.112   5.816 -0.2637 -0.0914  0.0395
  256POPC   NC3 3434   9.212   0.604   3.512  0.1592 -0.0802  0.0235
  256POPC   PO4 3435   9.348   0.796   3.994  0.0051 -0.0325  0.0445
  256POPC   GL1 3436   9.540   0.757   4.367  0.2376 -0.2289 -0.0243
  256POPC   GL2 3437   9.402   0.506   4.445 -0.2147  0.0766  0.3063
  256POPC   C1A 3438   9.841   0.705   4.750 -0.0206  0.0452  0.0608
  256POPC   D2A 3439   9.984   0.823   5.119  0.2923  0.3304  0.4364
  256POPC   C3A 3440   9.951   0.490   5.404  0.0101 -0.0184  0.0167
  256POPC   C4A 3441   9.718   0.284   5.730 -0.2234  0.0808 -0.1809
  256POPC   C1B 3442   9.188   0.579   4.850  0.1119  0.0004 -0.0727
  256POPC   C2B 3443   9.469   0.745   5.228 -0.1008  0.4225  0.1156
  256POPC   C3B 3444   9.467   0.729   5.661  0.3312  0.4404 -0.0937
  256POPC   C4B 3445   9.740   0.774   6.019  0.0496  0.2057  0.1466
  257POPC   NC3 3446   6.383   8.746   3.677 -0.0161  0.0043  0.3852
  257POPC   PO4 3447   6.616   8.915   3.993  0.1420 -0.3349 -0.2533
  257POPC   GL1 3448   6.654   8.898   4.475 -0.0366  0.1882  0.0552
  257POPC   GL2 3449   6.893   9.209   4.579  0.1895  0.3044  0.0738
  257POPC   C1A 3450   6.474   8.851   4.893  0.0904 -0.2487  0.1277
  257POPC   D2A 3451   6.277   8.879   5.219  0.1840 -0.1789  0.0099
  257POPC   C3A 3452   6.313   8.745   5.679  0.2398 -0.3620  0.0102
  257POPC   C4A 3453   6.619   8.760   6.095  0.3064 -0.2804  0.2626
  257POPC   C1B 3454   7.064   9.023   4.913  0.2064 -0.2237  0.1918
  257POPC   C2B 3455   6.901   8.742   5.119  0.0273 -0.0135  0.1184
  257POPC   C3B 3456   6.811   8.524   5.562 -0.2349 -0.2594  0.0799
  257POPC   C4B 3457   6.657   8.282   5.835 -0.1603 -0.3191  0.0259
  258POPC   NC3 3458   5.897   5.495   3.738 -0.1191  0.0242 -0.3809
  258POPC   PO4 3459   6.150   5.871   3.895  0.1862 -0.0446  0.1023
  258POPC   GL1 3460   6.377   6.054   4.256  0.1218  0.0228  0.0948
  258POPC   GL2 3461   6.544   5.856   4.439 -0.2129  0.1210  0.0730
  258POPC   C1A 3462   6.913   6.122   4.338 -0.0825 -0.1811 -0.1621
  258POPC   D2A 3463   7.206   6.024   4.703  0.2623  0.1261  0.0467
  258POPC   C3A 3464   7.052   6.084   5.029 -0.1588  0.1873  0.2971
  258POPC   C4A 3465   6.851   6.242   5.418 -0.2735 -0.0188 -0.2319
  258POPC   C1B 3466   6.541   5.456   4.684 -0.1966 -0.0468  0.2196
  258POPC   C2B 3467   6.663   5.118   4.986 -0.3731 -0.1839 -0.0178
  258POPC   C3B 3468   6.742   4.834   5.340 -0.2658  0.2497 -0.0899
  258POPC   C4B 3469   6.885   4.433   5.487  0.1002 -0.1085  0.0305
  259POPC   NC3 3470   7.836   4.039   3.220  0.1449  0.0581 -0.1568
  259POPC   PO4 3471   7.452   3.931   3.449 -0.1089  0.0763  0.0977
  259POPC   GL1 3472   7.545   3.703   3.852  0.0860  0.1561  0.0097
  259POPC   GL2 3473   7.281   3.710   4.099 -0.1224 -0.0136  0.2698
  259POPC   C1A 3474   7.831   3.777   4.190 -0.1162 -0.3377 -0.0171
  259POPC   D2A 3475   7.950   3.937   4.587 -0.0605 -0.1723 -0.4436
  259POPC   C3A 3476   7.827   3.850   4.926  0.0054  0.1059  0.0199
  259POPC   C4A 3477   7.702   3.867   5.308 -0.0148  0.0628 -0.2296
  259POPC   C1B 3478   7.377   3.864   4.543 -0.0465  0.1781  0.0162
  259POPC   C2B 3479   7.348   3.865   4.894 -0.0350  0.1314  0.1934
  259POPC   C3B 3480   7.163   4.027   5.318 -0.1837  0.3409 -0.3586
  259POPC   C4B 3481   7.088   3.978   5.765  0.2765 -0.0160 -0.1470
  260POPC   NC3 3482   2.139   1.940   3.626  0.0629 -0.0676  0.0638
  260POPC   PO4 3483   1.754   1.503   3.658  0.0185 -0.1669  0.0888
  260POPC   GL1 3484   2.028   1.408   4.033 -0.0099  0.1808 -0.1254
  260POPC   GL2 3485   1.879   1.429   4.260 -0.1839  0.0372 -0.0536
  260POPC   C1A 3486   2.359   1.269   4.344  0.1025 -0.1399  0.1997
  260POPC   D2A 3487   2.320   1.260   4.719 -0.1025 -0.0598  0.0804
  260POPC   C3A 3488   2.647   1.007   4.940  0.1884 -0.2485  0.2228
  260POPC   C4A 3489   2.766   1.123   5.335 -0.1208 -0.0151  0.0308
  260POPC   C1B 3490   1.856   1.309   4.681 -0.1902 -0.1098 -0.2076
  260POPC   C2B 3491   1.878   0.938   4.939 -0.0939  0.2861 -0.4170
  260POPC   C3B 3492   1.950   0.634   5.256  0.0686  0.1519  0.1823
  260POPC   C4B 3493   2.109   0.664   5.730  0.1938 -0.1908  0.1190
  261POPC   NC3 3494   3.069   9.052   3.763  0.3766 -0.1985  0.1611
  261POPC   PO4 3495   3.115   8.679   3.646 -0.0421 -0.0956 -0.1522
  261POPC   GL1 3496   3.378   8.743   4.021 -0.2508 -0.0119 -0.1453
  261POPC   GL2 3497   3.468   8.480   4.066 -0.0474 -0.1458  0.5537
  261POPC   C1A 3498   3.530   8.737   4.453 -0.1409 -0.0736 -0.2527
  261POPC   D2A 3499   3.805   8.641   4.762  0.1069  0.0063 -0.0101
  261POPC   C3A 3500   3.784   8.688   5.238 -0.0609  0.0422 -0.2455
  261POPC   C4A 3501   3.960   8.862   5.515 -0.1248 -0.2562 -0.2353
  261POPC   C1B 3502   3.138   8.446   4.489 -0.0355  0.2608 -0.1199
  261POPC   C2B 3503   2.745   8.580   4.603  0.3292  0.3558  0.2406
  261POPC   C3B 3504   2.374   8.333   4.811  0.0328 -0.5085  0.0543
  261POPC   C4B 3505   1.970   8.627   4.934 -0.3193 -0.1599  0.0021
  262POPC   NC3 3506   9.831   0.433   4.104  0.2003 -0.0946  0.3077
  262POPC   PO4 3507  10.149   0.032   4.049 -0.2408 -0.1605 -0.0512
  262POPC   GL1 3508  10.373  -0.029   4.439 -0.1845 -0.1976 -0.0275
  262POPC   GL2 3509  10.527  -0.316   4.223 -0.2193 -0.0572  0.0144
  262POPC   C1A 3510  10.490  -0.141   4.865  0.0112  0.0665 -0.1982
  262POPC   D2A 3511  10.714  -0.272   5.175 -0.3768  0.1704 -0.1624
  262POPC   C3A 3512  10.737   0.002   5.391  0.1944 -0.0548  0.2812
  262POPC   C4A 3513  10.931   0.310   5.599  0.1780  0.1549 -0.3717
  262POPC   C1B 3514  10.677  -0.498   4.593 -0.0512  0.0201  0.1002
  262POPC   C2B 3515  10.765  -0.682   4.922  0.3059  0.2041 -0.1449
  262POPC   C3B 3516  10.588  -1.028   5.189  0.1364  0.3848 -0.0718
  262POPC   C4B 3517  10.633  -1.158   5.641  0.3367 -0.0202  0.3483
  263POPC   NC3 3518   1.850   9.394   3.569  0.1108  0.2702  0.2981
  263POPC   PO4 3519   1.640   9.002   3.579  0.0319  0.1085 -0.2799
  263POPC   GL1 3520   1.483   8.865   4.008  0.1375  0.0980 -0.2463
  263POPC   GL2 3521   1.773   8.832   4.182  0.2068 -0.1288  0.0653
  263POPC   C1A 3522   1.388   9.059   4.343 -0.3715  0.1486 -0.0586
  263POPC   D2A 3523   1.334   9.481   4.424 -0.3825 -0.2227  0.1686
  263POPC   C3A 3524   1.277   9.488   4.904 -0.0128 -0.0102  0.1340
  263POPC   C4A 3525   1.219   9.431   5.330 -0.1839 -0.0540  0.0658
  263POPC   C1B 3526   1.664   8.692   4.555 -0.0533  0.1002 -0.0384
  263POPC   C2B 3527   1.499   8.470   4.917 -0.2426 -0.2420 -0.0336
  263POPC   C3B 3528   1.565   8.553   5.298 -0.1977  0.0332  0.0420
  263POPC   C4B 3529   1.986   8.448   5.568 -0.2382  0.1892 -0.0709
  264POPC   NC3 3530   9.184   7.634   3.858  0.4123 -0.2053  0.1668
  264POPC   PO4 3531   9.623   7.431   3.885 -0.0457 -0.0723  0.0793
  264POPC   GL1 3532   9.549   7.489   4.252  0.3519  0.0170  0.3012
  264POPC   GL2 3533   9.271   7.667   4.339  0.0275  0.2606 -0.0949
  264POPC   C1A 3534   9.513   7.279   4.642 -0.0782 -0.0228 -0.0030
  264POPC   D2A 3535   9.874   7.400   5.011  0.1576  0.1150 -0.3169
  264POPC   C3A 3536   9.644   7.599   5.365  0.0915 -0.1662  0.2810
  264POPC   C4A 3537   9.292   7.436   5.599 -0.4939 -0.1885  0.2757
  264POPC   C1B 3538   9.481   7.746   4.674 -0.4059  0.0747 -0.1523
  264POPC   C2B 3539   9.275   7.588   5.012 -0.1863 -0.0076  0.2417
  264POPC   C3B 3540   9.122   7.746   5.261 -0.1219 -0.1212  0.1459
  264POPC   C4B 3541   8.894   7.745   5.613  0.0463 -0.0786  0.0576
  265POPC   NC3 3542   0.350   8.690   4.318  0.1326  0.0952  0.0574
  265POPC   PO4 3543   0.078   8.554   4.554 -0.0339 -0.2869  0.0172
  265POPC   GL1 3544   0.078   8.642   4.972 -0.2628  0.2667  0.1712
  265POPC   GL2 3545   0.204   8.313   5.094 -0.4736 -0.2713  0.0928
  265POPC   C1A 3546   0.202   8.885   5.319  0.1087 -0.1065  0.0655
  265POPC   D2A 3547   0.339   9.050   5.745 -0.0980 -0.0937  0.0973
  265POPC   C3A 3548   0.372   8.809   6.093 -0.0689  0.0921 -0.1969
  265POPC   C4A 3549   0.602   8.901   6.528 -0.1119  0.2541  0.0326
  265POPC   C1B 3550   0.496   8.344   5.415  0.1744 -0.0922  0.3227
  265POPC   C2B 3551   0.838   8.044   5.489 -0.2565  0.1662  0.0163
  265POPC   C3B 3552   1.040   7.766   5.787  0.1471  0.0133  0.4026
  265POPC   C4B 3553   1.374   7.813   6.013  0.3179  0.0046 -0.2513
  266POPC   NC3 3554   6.055   6.865   3.777  0.3139 -0.2262  0.2873
  266POPC   PO4 3555   5.640   6.890   3.849  0.1685 -0.1382  0.2273
  266POPC   GL1 3556   5.758   6.752   4.215  0.0701 -0.1557 -0.0092
  266POPC   GL2 3557   6.015   6.998   4.271 -0.0652  0.0190 -0.0122
  266POPC   C1A 3558   5.750   6.526   4.570  0.0745 -0.1403  0.0979
  266POPC   D2A 3559   5.632   6.200   4.885 -0.2265 -0.1552  0.0262
  266POPC   C3A 3560   5.752   5.726   4.853  0.1940 -0.0020  0.1207
  266POPC   C4A 3561   5.906   5.627   4.452 -0.1468 -0.0426  0.2088
  266POPC   C1B 3562   6.116   6.975   4.682 -0.2904  0.0726  0.2404
  266POPC   C2B 3563   6.153   6.905   5.233  0.1091 -0.0864  0.1844
  266POPC   C3B 3564   6.104   6.716   5.680  0.0134  0.1008  0.1782
  266POPC   C4B 3565   6.401   6.650   6.129  0.1272  0.0227  0.1173
  267POPC   NC3 3566   0.087   3.885   4.255 -0.0682 -0.1367  0.0923
  267POPC   PO4 3567  -0.289   3.556   4.193  0.0466 -0.1658  0.1199
  267POPC   GL1 3568  -0.646   3.736   4.323  0.4247 -0.2640 -0.1071
  267POPC   GL2 3569  -0.414   3.936   4.596 -0.0879 -0.3218  0.0138
  267POPC   C1A 3570  -1.074   3.662   4.529 -0.1455  0.1535  0.1011
  267POPC   D2A 3571  -1.179   3.532   4.989 -0.3897 -0.1868 -0.0519
  267POPC   C3A 3572  -1.165   3.902   5.353 -0.0225 -0.2166  0.0713
  267POPC   C4A 3573  -1.320   4.041   5.678  0.0945 -0.1191  0.2049
  267POPC   C1B 3574  -0.762   4.096   4.832 -0.0201  0.3960 -0.0096
  267POPC   C2B 3575  -1.066   4.290   5.042  0.1197  0.1241 -0.1427
  267POPC   C3B 3576  -1.197   4.434   5.429  0.0011  0.2345  0.0602
  267POPC   C4B 3577  -1.634   4.507   5.702 -0.1035 -0.0722  0.0871
  268POPC   NC3 3578   4.479   5.000   4.019 -0.0759 -0.0998  0.1806
  268POPC   PO4 3579   4.615   4.608   3.874 -0.0677 -0.2786 -0.2681
  268POPC   GL1 3580   4.767   4.788   4.344  0.3077  0.1357  0.2379
  268POPC   GL2 3581   4.735   5.138   4.412  0.1305 -0.0132  0.1504
  268POPC   C1A 3582   4.716   4.706   4.711 -0.1054 -0.0107  0.0705
  268POPC   D2A 3583   4.691   4.820   5.186 -0.1101  0.2806  0.4877
  268POPC   C3A 3584   4.464   5.181   5.386 -0.3988 -0.2553 -0.1321
  268POPC   C4A 3585   4.174   5.058   5.761  0.2545 -0.0955  0.1236
  268POPC   C1B 3586   4.925   5.156   4.748  0.1446  0.2905  0.1015
  268POPC   C2B 3587   4.942   5.316   5.180 -0.1311  0.0578 -0.1016
  268POPC   C3B 3588   4.770   5.678   5.350 -0.0420  0.2540 -0.1304
  268POPC   C4B 3589   4.462   5.638   5.639  0.1455  0.3480 -0.0612
  269POPC   NC3 3590   1.768   4.540   3.651  0.1543 -0.2100  0.1812
  269POPC   PO4 3591   2.029   4.795   3.408 -0.0723  0.2026  0.1551
  269POPC   GL1 3592   2.029   4.999   3.922 -0.1836 -0.0701 -0.2199
  269POPC   GL2 3593   1.976   4.738   4.078  0.0059  0.2398 -0.1627
  269POPC   C1A 3594   2.173   5.100   4.407 -0.4482 -0.0371  0.0655
  269POPC   D2A 3595   2.319   5.232   4.753 -0.2164  0.0636 -0.3643
  269POPC   C3A 3596   2.817   5.333   4.849  0.0930 -0.0623 -0.2500
  269POPC   C4A 3597   3.038   5.404   5.205 -0.0205 -0.1946 -0.1036
  269POPC   C1B 3598   2.355   4.729   4.147  0.0735  0.0648  0.3412
  269POPC   C2B 3599   2.742   5.059   4.370 -0.1294  0.1056 -0.0376
  269POPC   C3B 3600   3.021   5.388   4.410 -0.0272  0.0687 -0.2260
  269POPC   C4B 3601   3.259   5.688   4.489  0.1899 -0.2946  0.0791
  270POPC   NC3 3602   9.797   3.109   3.937 -0.2264  0.0608 -0.0215
  270POPC   PO4 3603   9.534   3.023   3.622  0.0827 -0.0592  0.2271
  270POPC   GL1 3604   9.303   3.121   4.083 -0.1669  0.0532 -0.1885
  270POPC   GL2 3605   9.139   3.325   4.023  0.1615 -0.3071  0.0930
  270POPC   C1A 3606   9.270   3.061   4.439 -0.1413 -0.1691 -0.2550
  270POPC   D2A 3607   9.054   2.947   4.718  0.1781 -0.1769  0.0045
  270POPC   C3A 3608   9.192   2.624   4.791 -0.1153  0.0554 -0.1800
  270POPC   C4A 3609   9.463   2.264   4.693  0.1520  0.1879  0.0036
  270POPC   C1B 3610   8.802   3.162   4.322 -0.1901 -0.4486 -0.1613
  270POPC   C2B 3611   8.525   3.189   4.684 -0.2304  0.1088 -0.3099
  270POPC   C3B 3612   8.437   3.188   5.143  0.1810 -0.0703  0.0671
  270POPC   C4B 3613   8.579   3.087   5.564 -0.1430 -0.1010  0.0876
  271POPC   NC3 3614   3.947   2.027   3.758 -0.0409  0.0500 -0.1023
  271POPC   PO4 3615   4.163   1.551   3.692 -0.1545 -0.1335  0.2603
  271POPC   GL1 3616   4.157   1.731   4.083  0.1816  0.6454  0.0682
  271POPC   GL2 3617   3.995   1.988   4.259  0.1854  0.0628  0.2463
  271POPC   C1A 3618   3.903   1.555   4.485 -0.0338  0.1497  0.2022
  271POPC   D2A 3619   4.216   1.311   4.864  0.2384  0.1669  0.0515
  271POPC   C3A 3620   4.016   1.160   5.287  0.0386  0.1812 -0.0025
  271POPC   C4A 3621   3.687   0.864   5.540 -0.0809  0.2428  0.1741
  271POPC   C1B 3622   4.391   1.780   4.557  0.2191 -0.1361  0.0782
  271POPC   C2B 3623   4.442   1.923   5.002 -0.2177  0.1243  0.0133
  271POPC   C3B 3624   4.682   1.905   5.389 -0.1411  0.0231 -0.1833
  271POPC   C4B 3625   4.962   1.565   5.529 -0.0097  0.0186 -0.1486
  272POPC   NC3 3626   4.502   8.610   3.400 -0.0906 -0.2082 -0.1087
  272POPC   PO4 3627   4.658   8.244   3.335  0.1267  0.1947 -0.2568
  272POPC   GL1 3628   4.839   8.343   3.686 -0.2949 -0.0302 -0.1374
  272POPC   GL2 3629   4.709   8.544   3.860  0.1363 -0.2591  0.0895
  272POPC   C1A 3630   4.952   8.218   4.208  0.1860 -0.2131 -0.1640
  272POPC   D2A 3631   4.950   8.339   4.675  0.1046  0.0468 -0.0213
  272POPC   C3A 3632   4.575   8.227   4.713 -0.0711  0.1376 -0.0425
  272POPC   C4A 3633   4.111   8.310   4.887  0.0889  0.1124  0.0798
  272POPC   C1B 3634   4.921   8.838   4.207 -0.1746  0.1469  0.1754
  272POPC   C2B 3635   5.309   9.029   4.283  0.0710 -0.1295 -0.2195
  272POPC   C3B 3636   5.542   9.141   4.635  0.1501  0.0588 -0.0474
  272POPC   C4B 3637   5.617   9.370   4.980 -0.2006  0.0638  0.2156
  273POPC   NC3 3638   8.364   2.074   3.948  0.1935  0.2820  0.0887
  273POPC   PO4 3639   8.807   1.970   4.126  0.1568  0.2364 -0.1552
  273POPC   GL1 3640   8.537   1.809   4.500  0.1161 -0.2110 -0.2458
  273POPC   GL2 3641   8.187   1.869   4.517  0.3618 -0.1412  0.1560
  273POPC   C1A 3642   8.574   1.728   4.929 -0.0774 -0.0755  0.0032
  273POPC   D2A 3643   8.543   1.670   5.399  0.0270  0.0747  0.2250
  273POPC   C3A 3644   8.185   1.666   5.725  0.1310 -0.1981 -0.0298
  273POPC   C4A 3645   7.866   1.569   5.934 -0.1843  0.0552 -0.0919
  273POPC   C1B 3646   8.092   1.771   4.982  0.0206  0.0964  0.1899
  273POPC   C2B 3647   7.984   1.940   5.386  0.0504  0.2101 -0.4623
  273POPC   C3B 3648   7.858   2.030   5.773 -0.1422  0.0027  0.0705
  273POPC   C4B 3649   7.689   2.484   5.791 -0.0915 -0.2946  0.5800
  274POPC   NC3 3650   1.068   5.146   3.128 -0.0205 -0.2933 -0.0486
  274POPC   PO4 3651   1.147   5.298   3.577  0.0979 -0.0944  0.3303
  274POPC   GL1 3652   1.281   5.390   4.044 -0.0756 -0.1713  0.2851
  274POPC   GL2 3653   1.063   5.679   3.944 -0.0266 -0.0241 -0.2501
  274POPC   C1A 3654   1.550   5.583   4.496  0.3581 -0.0259  0.1163
  274POPC   D2A 3655   1.402   5.791   4.888 -0.0531 -0.2692 -0.1407
  274POPC   C3A 3656   1.528   5.862   5.286 -0.1315  0.0512  0.0460
  274POPC   C4A 3657   1.702   5.792   5.705 -0.3056 -0.1414 -0.1005
  274POPC   C1B 3658   0.917   5.743   4.396 -0.2789 -0.2080  0.0565
  274POPC   C2B 3659   1.006   6.054   4.691  0.1440 -0.0073  0.2379
  274POPC   C3B 3660   1.149   6.136   5.177  0.1544 -0.0128  0.0303
  274POPC   C4B 3661   1.134   5.957   5.615  0.2241 -0.0932  0.1115
  275POPC   NC3 3662   9.896   6.656   3.608  0.0124 -0.1080  0.4341
  275POPC   PO4 3663  10.133   6.274   3.790  0.0152  0.2845 -0.2209
  275POPC   GL1 3664  10.034   6.335   4.264  0.1422 -0.0321  0.1401
  275POPC   GL2 3665  10.027   6.006   4.286 -0.0596  0.4853  0.0769
  275POPC   C1A 3666  10.142   6.448   4.726  0.2681  0.0374 -0.2464
  275POPC   D2A 3667   9.734   6.490   5.046 -0.1666  0.2318 -0.1148
  275POPC   C3A 3668   9.350   6.705   5.201  0.0158 -0.1031  0.0257
  275POPC   C4A 3669   9.361   7.085   5.204 -0.1896  0.4216  0.1126
  275POPC   C1B 3670   9.979   5.609   4.609 -0.0982  0.3148  0.0053
  275POPC   C2B 3671  10.112   5.566   5.002  0.0220  0.3822 -0.0835
  275POPC   C3B 3672  10.047   5.624   5.462 -0.1895 -0.0505  0.2464
  275POPC   C4B 3673  10.105   5.927   5.751  0.1265 -0.3134  0.1000
  276POPC   NC3 3674   9.222   9.553   4.237  0.3292 -0.1114 -0.1381
  276POPC   PO4 3675   9.558   9.927   4.189  0.1115 -0.0243  0.3666
  276POPC   GL1 3676   9.685   9.835   4.525 -0.2038 -0.1620 -0.0272
  276POPC   GL2 3677   9.917  10.108   4.607  0.1450  0.0413  0.0035
  276POPC   C1A 3678   9.954   9.774   4.972 -0.1614 -0.1823  0.1936
  276POPC   D2A 3679  10.150   9.990   5.283  0.0207  0.0251  0.3743
  276POPC   C3A 3680  10.207   9.955   5.746 -0.3820  0.1204 -0.3191
  276POPC   C4A 3681  10.313   9.593   5.985  0.0003  0.2763  0.1320
  276POPC   C1B 3682   9.679  10.234   5.007  0.0806 -0.0428 -0.2281
  276POPC   C2B 3683   9.295  10.167   5.277 -0.0842 -0.2204  0.1299
  276POPC   C3B 3684   9.034   9.823   5.418 -0.4293 -0.0767  0.0087
  276POPC   C4B 3685   8.850   9.575   5.698  0.1476  0.0947  0.1151
  277POPC   NC3 3686   8.265   5.443   3.587  0.0643 -0.3475 -0.1089
  277POPC   PO4 3687   7.872   5.741   3.711  0.0136 -0.2512  0.2163
  277POPC   GL1 3688   8.070   5.616   4.096  0.0194 -0.3833 -0.1662
  277POPC   GL2 3689   8.396   5.675   4.210 -0.2322  0.2375  0.0476
  277POPC   C1A 3690   8.040   5.513   4.544 -0.2751  0.2621 -0.0198
  277POPC   D2A 3691   8.301   5.354   4.908 -0.0304 -0.5209 -0.0684
  277POPC   C3A 3692   8.654   5.305   5.122  0.0275 -0.0115  0.1316
  277POPC   C4A 3693   8.950   5.341   5.491  0.0931  0.3058 -0.0992
  277POPC   C1B 3694   8.638   5.630   4.642 -0.2503 -0.1160 -0.1775
  277POPC   C2B 3695   8.991   5.701   5.020 -0.3589 -0.0557 -0.2263
  277POPC   C3B 3696   8.931   5.865   5.339 -0.0573 -0.1980 -0.1836
  277POPC   C4B 3697   8.622   6.100   5.469 -0.1188 -0.1054 -0.1066
  278POPC   NC3 3698   4.653   6.174   4.131  0.0190 -0.4442  0.2413
  278POPC   PO4 3699   4.835   6.597   4.003 -0.2297 -0.0851 -0.2346
  278POPC   GL1 3700   4.555   6.652   4.325 -0.2581  0.0522  0.1369
  278POPC   GL2 3701   4.277   6.397   4.359 -0.1433  0.0755 -0.3380
  278POPC   C1A 3702   4.500   6.523   4.802 -0.0468  0.2014  0.0838
  278POPC   D2A 3703   4.786   6.552   5.143 -0.0356 -0.0722 -0.1293
  278POPC   C3A 3704   4.836   6.695   5.618 -0.2823 -0.1885  0.1064
  278POPC   C4A 3705   5.102   6.874   5.918 -0.0319 -0.2282  0.2604
  278POPC   C1B 3706   4.015   6.297   4.692  0.2862 -0.3593 -0.0394
  278POPC   C2B 3707   3.582   6.221   4.997 -0.0076 -0.1212 -0.0603
  278POPC   C3B 3708   3.323   6.203   5.322  0.3708  0.0371 -0.0035
  278POPC   C4B 3709   3.136   5.772   5.572 -0.0145  0.0257  0.2685
  279POPC   NC3 3710   7.376   1.013   3.860  0.0320 -0.0790 -0.1639
  279POPC   PO4 3711   7.017   0.992   3.616  0.2847 -0.2033 -0.0646
  279POPC   GL1 3712   6.709   0.989   4.023  0.0071 -0.2478 -0.0255
  279POPC   GL2 3713   6.535   0.806   4.258  0.0551 -0.1555 -0.0619
  279POPC   C1A 3714   6.384   1.307   4.065  0.1049 -0.1311 -0.3384
  279POPC   D2A 3715   6.013   1.483   4.396 -0.3390  0.0741  0.3497
  279POPC   C3A 3716   5.789   1.789   4.409 -0.0028 -0.1649 -0.1944
  279POPC   C4A 3717   5.812   2.212   4.275 -0.2132 -0.1295 -0.1332
  279POPC   C1B 3718   6.610   0.729   4.614  0.1497  0.1502  0.0806
  279POPC   C2B 3719   6.553   0.260   4.778  0.0149 -0.1175  0.2997
  279POPC   C3B 3720   6.369  -0.156   5.056 -0.2062  0.1481  0.2727
  279POPC   C4B 3721   6.254  -0.102   5.528 -0.0523 -0.0028 -0.0826
  280POPC   NC3 3722   7.072   3.563   3.616 -0.0519 -0.3040 -0.2478
  280POPC   PO4 3723   7.000   3.131   3.533 -0.1065  0.1017 -0.0895
  280POPC   GL1 3724   6.963   3.246   4.015 -0.0444  0.2192 -0.0575
  280POPC   GL2 3725   6.758   3.511   4.210  0.0658 -0.1394  0.1488
  280POPC   C1A 3726   7.209   3.231   4.387 -0.1542  0.4100 -0.0495
  280POPC   D2A 3727   7.129   3.425   4.689 -0.0517  0.0816 -0.1415
  280POPC   C3A 3728   6.964   3.706   4.628 -0.0635  0.0361 -0.0656
  280POPC   C4A 3729   6.804   4.000   4.387 -0.2052 -0.1051  0.1366
  280POPC   C1B 3730   6.460   3.575   4.550  0.0036  0.1054  0.2333
  280POPC   C2B 3731   6.199   3.385   4.819 -0.1282 -0.2838  0.0796
  280POPC   C3B 3732   5.796   3.362   4.990  0.0055 -0.2126 -0.1069
  280POPC   C4B 3733   5.539   3.688   5.224 -0.6738  0.3035 -0.2162
  281POPC   NC3 3734   8.254   0.474   3.814  0.3587  0.0698  0.0345
  281POPC   PO4 3735   8.089   0.168   4.197 -0.1353 -0.0657  0.3959
  281POPC   GL1 3736   7.814   0.251   4.525 -0.0403 -0.1103  0.1211
  281POPC   GL2 3737   7.813  -0.086   4.635 -0.2861 -0.1878  0.5558
  281POPC   C1A 3738   7.494   0.524   4.585 -0.0127  0.1765  0.2281
  281POPC   D2A 3739   7.555   0.740   4.970 -0.0303  0.1711  0.1613
  281POPC   C3A 3740   7.609   0.577   5.310 -0.3502  0.2174 -0.1707
  281POPC   C4A 3741   7.201   0.430   5.492 -0.1195  0.1999  0.1532
  281POPC   C1B 3742   7.808  -0.225   5.035 -0.0408  0.4165 -0.1918
  281POPC   C2B 3743   8.087  -0.411   5.435  0.1911 -0.3749 -0.1126
  281POPC   C3B 3744   8.157  -0.667   5.805  0.1874 -0.1965 -0.1557
  281POPC   C4B 3745   8.484  -0.662   6.017 -0.1574 -0.2607 -0.3279
  282POPC   NC3 3746   9.219   0.313   3.904 -0.0206  0.0990 -0.1089
  282POPC   PO4 3747   8.976   0.006   4.092 -0.0188 -0.2060 -0.0776
  282POPC   GL1 3748   8.997   0.194   4.573 -0.1019  0.0672  0.0495
  282POPC   GL2 3749   9.276   0.124   4.758  0.1803  0.2080 -0.0890
  282POPC   C1A 3750   8.808   0.115   5.017  0.0993  0.5477 -0.0311
  282POPC   D2A 3751   8.671   0.183   5.515 -0.1341  0.4884 -0.0737
  282POPC   C3A 3752   8.823   0.089   5.878  0.0447 -0.3778 -0.0323
  282POPC   C4A 3753   9.032  -0.088   6.226 -0.1647 -0.0819 -0.2479
  282POPC   C1B 3754   9.513  -0.170   5.219 -0.3246 -0.2160 -0.0052
  282POPC   C2B 3755   9.349  -0.454   5.530 -0.0122  0.0416 -0.3211
  282POPC   C3B 3756   9.320  -0.847   5.751 -0.4437  0.0278  0.0197
  282POPC   C4B 3757   9.169  -1.235   5.699  0.0076 -0.3845 -0.1150
  283POPC   NC3 3758   6.031   1.783   3.697 -0.0259  0.1638  0.3742
  283POPC   PO4 3759   5.820   1.452   3.640  0.0167 -0.0223  0.1470
  283POPC   GL1 3760   5.481   1.582   3.875  0.4169  0.0456  0.0255
  283POPC   GL2 3761   5.334   1.355   3.901 -0.2343  0.2569  0.1902
  283POPC   C1A 3762   5.327   1.841   4.166  0.2767  0.0071 -0.4576
  283POPC   D2A 3763   5.388   2.148   4.490 -0.2109 -0.4929  0.0635
  283POPC   C3A 3764   5.715   2.379   4.789  0.0632  0.1787 -0.1295
  283POPC   C4A 3765   5.623   2.516   5.273 -0.2660  0.1634  0.1422
  283POPC   C1B 3766   5.471   1.349   4.341 -0.1195 -0.4817  0.0126
  283POPC   C2B 3767   5.704   1.320   4.701 -0.0760 -0.1938  0.2444
  283POPC   C3B 3768   5.952   1.108   5.005 -0.0004 -0.0274  0.0132
  283POPC   C4B 3769   6.243   1.188   5.350 -0.1418  0.3666  0.0632
  284POPC   NC3 3770   9.225   3.290   3.275 -0.1719 -0.0573 -0.2020
  284POPC   PO4 3771   9.045   3.096   3.589 -0.2528  0.0489 -0.1699
  284POPC   GL1 3772   8.894   2.858   3.944  0.1092  0.2824  0.0177
  284POPC   GL2 3773   8.677   2.661   3.912 -0.0148  0.1565  0.5193
  284POPC   C1A 3774   9.014   2.617   4.293 -0.0121 -0.0260 -0.1233
  284POPC   D2A 3775   8.873   2.265   4.555  0.0737  0.0727  0.0064
  284POPC   C3A 3776   8.536   2.229   4.910  0.0652 -0.0483 -0.1080
  284POPC   C4A 3777   8.436   2.166   5.297  0.2009 -0.0255 -0.1399
  284POPC   C1B 3778   8.506   2.592   4.346 -0.0727  0.2843  0.0920
  284POPC   C2B 3779   8.646   2.707   4.769  0.0582 -0.1641  0.0681
  284POPC   C3B 3780   8.487   2.681   5.264 -0.1075  0.2239 -0.0898
  284POPC   C4B 3781   8.206   2.676   5.705  0.2019 -0.1228  0.1789
  285POPC   NC3 3782   0.569   2.491   4.902 -0.0899 -0.2413 -0.1157
  285POPC   PO4 3783   0.951   2.489   4.855 -0.0666 -0.0050 -0.1268
  285POPC   GL1 3784   0.837   2.095   5.128 -0.1346 -0.1160  0.0088
  285POPC   GL2 3785   1.145   1.982   5.269  0.2747  0.0039 -0.0725
  285POPC   C1A 3786   0.379   2.158   5.365 -0.0863 -0.0540  0.2970
  285POPC   D2A 3787   0.006   2.071   5.608  0.2441 -0.0773 -0.3200
  285POPC   C3A 3788  -0.068   1.828   6.065  0.2461  0.0146 -0.0653
  285POPC   C4A 3789   0.111   1.813   6.341 -0.0319  0.2649  0.0828
  285POPC   C1B 3790   1.056   1.667   5.540  0.3630 -0.1248 -0.2401
  285POPC   C2B 3791   0.881   1.357   5.964 -0.3669 -0.1459 -0.2428
  285POPC   C3B 3792   1.047   1.256   6.391 -0.3823 -0.1326  0.2024
  285POPC   C4B 3793   1.166   1.256   6.859  0.0347 -0.1915 -0.0571
  286POPC   NC3 3794   9.779   6.120   3.470  0.1705 -0.0968 -0.4803
  286POPC   PO4 3795  10.147   5.824   3.604 -0.0296 -0.0319 -0.0238
  286POPC   GL1 3796  10.414   5.838   4.001  0.0619  0.1899  0.1963
  286POPC   GL2 3797  10.579   6.113   4.180 -0.0455 -0.1365  0.1929
  286POPC   C1A 3798  10.427   5.526   4.334 -0.0533 -0.2958 -0.3352
  286POPC   D2A 3799  10.487   5.559   4.708  0.0021  0.2990  0.2318
  286POPC   C3A 3800  10.823   5.468   4.922 -0.0693  0.4079  0.0464
  286POPC   C4A 3801  10.991   5.552   5.252 -0.0684  0.1967 -0.1261
  286POPC   C1B 3802  10.464   6.131   4.629  0.2101  0.4048  0.1486
  286POPC   C2B 3803  10.381   6.075   5.067 -0.1364  0.0113 -0.0637
  286POPC   C3B 3804  10.579   5.835   5.304 -0.1121 -0.0963  0.2875
  286POPC   C4B 3805  10.460   5.355   5.350 -0.3071 -0.3165  0.3397
  287W        W 3806   1.091   0.085   1.283 -0.2773 -0.1584  0.6125
  288W        W 3807   4.169   9.310   9.999 -0.2152  0.6726 -0.2620
  289W        W 3808   2.119   8.983   2.178 -0.1288 -0.3087  0.0273
  290W        W 3809   0.265   8.506  11.112 -0.2066  0.1954  0.2475
  291W        W 3810   0.307   7.513  11.817  0.0548  0.0188 -0.3704
  292W        W 3811   7.978   5.871   1.695 -0.1963 -0.2428  0.0608
  293W        W 3812   9.430   5.411   8.088 -0.2567  0.1822  0.1840
  294W        W 3813   2.290   5.883   1.819  0.3090 -0.0142  0.1657
  295W        W 3814   1.000   3.109   2.285 -0.2285 -0.2169  0.1057
  296W        W 3815   7.721   6.495   3.181 -0.3053 -0.0222  0.1299
  297W        W 3816   4.794   8.829   2.442 -0.3596 -0.0635 -0.2498
  298W        W 3817   9.794   9.403  11.451  0.0037  0.1441  0.0797
  299W        W 3818   6.349   4.736   9.452 -0.1564  0.2032 -0.1831
  300W        W 3819   0.620   3.194   1.226  0.2683  0.0267 -0.1215
  301W        W 3820   4.871   1.715  11.867  0.3926  0.1852  0.2634
  302W        W 3821   9.473   9.923   8.689  0.2798 -0.0548  0.2695
  303W        W 3822   8.465   7.450   8.023 -0.3556  0.1477  0.0396
  304W        W 3823   8.733   0.352   8.897 -0.1753  0.3184 -0.0488
  305W        W 3824   3.710   8.105  10.032  0.0619  0.2215  0.3628
  306W        W 3825   4.466   0.702   3.554 -0.0865 -0.1029 -0.0636
  307W        W 3826   8.351   9.344   9.927  0.1559 -0.2708  0.1129
  308W        W 3827   2.939   1.302   0.365  0.0119  0.1399  0.2548
  309W        W 3828   2.030   6.757  10.357 -0.1297  0.1336 -0.0205
  310W        W 3829   6.602   1.251   2.263  0.2690 -0.0429 -0.4548
  311W        W 3830   2.699   8.417  11.939  0.0103 -0.0681 -0.2434
  312W        W 3831   4.804   3.772   8.871 -0.1214  0.1684 -0.1398
  313W        W 3832   0.900   1.712   1.758 -0.4573 -0.0246  0.0893
  314W        W 3833   7.500   4.011   8.538  0.2003 -0.0322  0.0197
  315W        W 3834   4.556   7.265  10.503 -0.0769  0.0789  0.1342
  316W        W 3835   1.043   5.003   1.402 -0.1293 -0.3002  0.0640
  317W        W 3836   3.069   9.754   0.093  0.0345 -0.0444 -0.2641
  318W        W 3837   1.845   4.660  10.327  0.1874  0.2670  0.0470
  319W        W 3838   1.681   8.198  11.273  0.1294  0.1079  0.0357
  320W        W 3839   3.612   4.176   0.366 -0.2047 -0.4338  0.0074
  321W        W 3840   7.390   9.762   8.893 -0.0239  0.0669  0.3473
  322W        W 3841   1.412   7.987   2.724  0.2736 -0.0641  0.2215
  323W        W 3842   0.998   7.585  11.856  0.0207 -0.1627 -0.1939
  324W        W 3843   7.406   5.126   1.188 -0.0259  0.0446  0.1191
  325W        W 3844   8.251   8.690   9.045  0.1210  0.0222 -0.4071
  326W        W 3845   7.454   8.668   7.920  0.4670  0.2295 -0.1677
  327W        W 3846   3.210   7.294   1.826  0.2070  0.3165 -0.2472
  328W        W 3847   9.207   9.037  11.695 -0.1594 -0.0564  0.0922
  329W        W 3848   3.529   8.924   1.256  0.2237  0.1023  0.1811
  330W        W 3849   9.664   2.051   8.082 -0.3352 -0.3303 -0.4433
  331W        W 3850   6.465   9.386   9.421 -0.1189 -0.0491 -0.1092
  332W        W 3851   2.332   7.394   9.624 -0.1711  0.1561  0.0096
  333W        W 3852   0.287   5.676   9.488 -0.1119  0.0711  0.0954
  334W        W 3853   4.711   4.407  10.970  0.3680  0.0017 -0.2696
  335W        W 3854   9.256   7.306  10.374 -0.0821 -0.0318 -0.3712
  336W        W 3855   8.356   3.235   1.052 -0.3341  0.4171  0.1027
  337W        W 3856   9.613   7.994   0.537  0.0054  0.1722 -0.3028
  338W        W 3857   6.272   5.851   1.096 -0.0787  0.0269  0.0354
  339W        W 3858   1.166   0.006   9.609  0.0300 -0.1894  0.0745
  340W        W 3859   5.583   4.068   7.950 -0.1463  0.0120  0.2577
  341W        W 3860   5.127   7.621   3.459 -0.2077 -0.0452  0.1855
  342W        W 3861   0.845   9.887   8.696  0.2223 -0.0483  0.0959
  343W        W 3862   3.557   5.986   3.704  0.0997 -0.1321 -0.1327
  344W        W 3863   9.725   6.446  10.238 -0.0519  0.3071  0.1189
  345W        W 3864   4.664   1.366   9.385 -0.1250  0.2597  0.0528
  346W        W 3865   4.144   2.555  10.761  0.0428  0.0716 -0.2639
  347W        W 3866   9.409   9.154  11.172  0.3321  0.1548 -0.1369
  348W        W 3867   6.753   0.622   3.415  0.0347 -0.2371 -0.2263
  349W        W 3868   9.176   9.533   9.691  0.1274 -0.0177 -0.0245
  350W        W 3869   8.465   9.714   9.004  0.0882 -0.0944  0.1477
  351W        W 3870   2.888   6.865   1.410  0.2301 -0.2119 -0.0157
  352W        W 3871   8.744   2.060   8.640  0.0963 -0.1402 -0.0315
  353W        W 3872   4.089   9.008  11.276  0.2982  0.0595 -0.0251
  354W        W 3873   8.064   5.283  10.825  0.1630 -0.0745  0.2200
  355W        W 3874   5.382   2.849   2.309 -0.0290 -0.0798 -0.0985
  356W        W 3875   7.172   8.281  11.053 -0.3141  0.3008 -0.1727
  357W        W 3876   7.501   8.216   1.854  0.2088 -0.0684  0.2073
  358W        W 3877   0.942   6.760   0.421 -0.0134  0.0885 -0.3620
  359W        W 3878   6.261   5.831   7.442 -0.1793 -0.1921 -0.0249
  360W        W 3879   5.132   0.149   1.834  0.0257  0.0336  0.3015
  361W        W 3880   0.022   8.484  10.149  0.0712  0.1338  0.3534
  362W        W 3881   1.661   0.625  10.609  0.2872 -0.0434 -0.0273
  363W        W 3882   2.923   3.183  10.951 -0.1923  0.0507 -0.0127
  364W        W 3883   2.747   7.390   7.676  0.2548 -0.0022  0.0823
  365W        W 3884   5.013   1.419   2.371 -0.0957  0.1309 -0.3071
  366W        W 3885   7.822   6.472  10.269  0.0459  0.1190  0.4069
  367W        W 3886   1.888   8.987   2.733 -0.0085 -0.2620 -0.0766
  368W        W 3887   8.480   0.781   9.052  0.0841 -0.0702 -0.2268
  369W        W 3888   0.327   5.442   7.745  0.1429  0.2889 -0.1435
  370W        W 3889   2.548   3.793   0.165  0.0256 -0.0768  0.0355
  371W        W 3890   4.531   4.002  10.310  0.3636  0.0678 -0.1321
  372W        W 3891   2.826   2.668   3.304 -0.0288 -0.0466 -0.0151
  373W        W 3892   2.039   0.229  10.711 -0.1511 -0.4089 -0.0017
  374W        W 3893   3.938   8.974   0.840 -0.1826  0.0189 -0.3625
  375W        W 3894   4.974   5.774  11.694 -0.2409 -0.4965  0.2423
  376W        W 3895   0.068   0.619  11.685  0.2097  0.2209  0.1782
  377W        W 3896   4.077   5.014   1.897  0.0251  0.1207  0.0134
  378W        W 3897   4.500   7.587   2.186  0.0018 -0.1132  0.0045
  379W        W 3898   1.566   3.984   3.006  0.0313 -0.0980  0.1713
  380W        W 3899   4.547   9.554   1.903 -0.3096  0.1694 -0.0086
  381W        W 3900   3.731   0.134   8.079  0.0543  0.0373 -0.1797
  382W        W 3901   6.792   6.614  10.126  0.1738 -0.2292 -0.2127
  383W        W 3902   3.924   0.158   2.562  0.0291  0.1036  0.1520
  384W        W 3903   8.427   7.705  10.606  0.1571 -0.3848 -0.0855
  385W        W 3904   8.768   2.824   0.893  0.1621 -0.4067  0.1852
  386W        W 3905   5.854   7.171  11.983 -0.0218 -0.0171 -0.2752
  387W        W 3906   7.973   5.752   2.760  0.1912  0.1202 -0.0196
  388W        W 3907   2.777   1.630  11.317  0.0714  0.0804 -0.1670
  389W        W 3908   0.098   5.824   9.011 -0.0763  0.1019 -0.0605
  390W        W 3909   9.392   5.638   0.246  0.1461 -0.0684 -0.1131
  391W        W 3910   0.055   6.253   0.412 -0.0423 -0.2014  0.0509
  392W        W 3911   1.254   9.586   2.953 -0.5505  0.1010  0.0193
  393W        W 3912   7.644   8.463  11.259 -0.1042 -0.1293 -0.2651
  394W        W 3913   2.516   8.851  10.673  0.2158  0.0036 -0.0886
  395W        W 3914   0.631   3.296  10.618 -0.0010  0.0386 -0.1376
  396W        W 3915   5.207   2.331   3.460 -0.1834 -0.0539  0.0470
  397W        W 3916   9.466   2.107   4.164  0.0483  0.5479 -0.3251
  398W        W 3917   7.390   4.988  10.829  0.1088  0.2667  0.1119
  399W        W 3918   4.946   0.734  10.044 -0.0181 -0.2157 -0.3048
  400W        W 3919   3.765   8.341   7.711 -0.0282 -0.3067 -0.4676
  401W        W 3920   9.443   2.340   0.554 -0.3319  0.2529 -0.1142
  402W        W 3921   8.421   0.200  11.749 -0.2093  0.0930 -0.3432
  403W        W 3922   0.538   2.357   9.091 -0.2226 -0.1331 -0.0483
  404W        W 3923   6.768   5.858   0.905  0.3924 -0.2844 -0.0174
  405W        W 3924   2.482   0.251  11.907  0.0599 -0.1197  0.0552
  406W        W 3925   9.484   3.813  11.552 -0.0872  0.1079 -0.1609
  407W        W 3926   7.818   4.713   9.862  0.0129  0.2661  0.2340
  408W        W 3927   3.401   8.962  10.258  0.3851 -0.0386  0.1844
  409W        W 3928   3.445   0.158   2.805 -0.2449 -0.1909 -0.0693
  410W        W 3929   1.784   7.478   9.734  0.0951  0.2453 -0.3776
  411W        W 3930   7.420   2.397   8.270  0.2075 -0.1194  0.0385
  412W        W 3931   5.429   4.407   1.661 -0.2031 -0.3214  0.1050
  413W        W 3932   0.471   9.273   1.564 -0.0335 -0.2919  0.0757
  414W        W 3933   3.048   5.614   8.326 -0.0112 -0.1631 -0.2027
  415W        W 3934   7.924   0.611   8.339 -0.2747  0.1073 -0.1471
  416W        W 3935   3.698   0.562  10.119  0.0725 -0.3830  0.2265
  417W        W 3936   9.016   3.877  11.726 -0.3742  0.0149 -0.0706
  418W        W 3937   0.177   7.972  11.174  0.0199 -0.2303 -0.1802
  419W        W 3938   4.708   2.979   3.028 -0.2421  0.1362 -0.3654
  420W        W 3939   1.661   0.872  10.179 -0.2102 -0.2874  0.0797
  421W        W 3940   5.275   3.845   8.874 -0.0618 -0.0554  0.0911
  422W        W 3941   3.534   4.821   1.585  0.2237 -0.0358 -0.1729
  423W        W 3942   9.344   9.000   3.236 -0.1539 -0.1103  0.0082
  424W        W 3943   2.502   6.299   9.890 -0.1204 -0.1302  0.1913
  425W        W 3944   8.706   2.618   8.613  0.2254  0.0776 -0.0343
  426W        W 3945   8.015   7.253   2.555  0.1349  0.0219  0.0091
  427W        W 3946   9.163   0.724   9.777 -0.3632 -0.1854  0.0062
  428W        W 3947   5.836   7.336  10.962 -0.1210 -0.1866  0.0373
  429W        W 3948   5.293   0.961   1.185 -0.1606  0.2210 -0.0983
  430W        W 3949   7.643   6.761   9.496 -0.2227 -0.2221  0.0766
  431W        W 3950   7.391   1.348  11.079  0.0545 -0.0132 -0.3400
  432W        W 3951   9.858   5.470   1.084 -0.2499 -0.1470  0.2242
  433W        W 3952   4.337   6.132   0.607 -0.3746 -0.1750  0.0977
  434W        W 3953   7.111   6.663   9.483  0.2539 -0.1274  0.0774
  435W        W 3954   2.492   3.150   9.992  0.0255  0.2223  0.1233
  436W        W 3955   5.355   9.598   4.231 -0.3396  0.0642  0.0321
  437W        W 3956   9.469   6.596   9.263 -0.4694 -0.1110  0.0212
  438W        W 3957   5.528   4.809   9.848  0.1383 -0.2127 -0.1801
  439W        W 3958   6.458   9.853   8.541 -0.0188 -0.0576 -0.0888
  440W        W 3959   1.961   0.029  11.196  0.1368  0.1038 -0.0194
  441W        W 3960   6.210   4.393   1.976 -0.1852  0.0108 -0.2899
  442W        W 3961   1.645   1.019  10.952 -0.0445  0.1879 -0.0875
  443W        W 3962   1.190   9.052   7.153  0.0410 -0.1544 -0.0609
  444W        W 3963   3.761   4.264   8.731  0.1131 -0.1334  0.1477
  445W        W 3964   8.835   3.208   8.536 -0.2191  0.2347  0.0042
  446W        W 3965   6.675   3.649   1.166  0.0545  0.1686  0.2015
  447W        W 3966   5.156   6.555   1.506 -0.1577 -0.1137  0.3901
  448W        W 3967   4.384   6.692   2.157  0.2448  0.0386  0.1509
  449W        W 3968   5.421   0.120   0.686  0.0117  0.3704  0.0999
  450W        W 3969   5.090   7.881   1.567 -0.0831  0.2476  0.0856
  451W        W 3970   0.577   6.664   9.258 -0.0840  0.2098 -0.4187
  452W        W 3971   0.121   0.551   7.598 -0.0126  0.3261 -0.2328
  453W        W 3972   8.137   9.557   8.587 -0.0142 -0.0261 -0.0699
  454W        W 3973   7.053   8.612   1.420  0.0957  0.0568 -0.2150
  455W        W 3974   8.691   8.839   2.423  0.0178 -0.1998  0.2302
  456W        W 3975   1.364   2.549   0.556  0.2416 -0.1868  0.3552
  457W        W 3976   2.277   7.555   3.272 -0.0493 -0.1438 -0.1579
  458W        W 3977   1.831   8.542  11.642 -0.2687  0.1615  0.0891
  459W        W 3978   2.781   5.911   0.023  0.2484 -0.0730  0.3078
  460W        W 3979   9.009   3.909  10.380  0.0835  0.0370  0.2399
  461W        W 3980   2.708   1.780   9.313 -0.1201  0.4654 -0.1317
  462W        W 3981   6.683   4.725   0.652 -0.2823 -0.0485  0.0896
  463W        W 3982   9.075   9.225   0.816  0.1929 -0.0163  0.3024
  464W        W 3983   2.801   8.880   7.711 -0.0551  0.1579  0.1183
  465W        W 3984   3.993   0.037   1.198  0.1138  0.3258  0.2097
  466W        W 3985   3.600   2.687   2.815 -0.1677  0.1016  0.2641
  467W        W 3986   1.855   0.345   0.679  0.1643  0.1440 -0.1395
  468W        W 3987   6.368   2.100   2.733 -0.1824 -0.0651  0.0536
  469W        W 3988   4.897   5.399  11.389  0.1611  0.3643  0.1366
  470W        W 3989   5.696   8.719   0.421  0.1194  0.0887 -0.0913
  471W        W 3990   6.143   3.474  11.109 -0.1801 -0.0539  0.0214
  472W        W 3991   7.491   8.407   2.352  0.2927 -0.0186 -0.1124
  473W        W 3992   4.997   2.675   0.385  0.2879 -0.0185  0.0408
  474W        W 3993   7.267   3.923   3.012  0.4585  0.0102  0.0553
  475W        W 3994   3.971   9.622   8.089  0.4173 -0.1076  0.3626
  476W        W 3995   0.303   0.983  10.132  0.0901  0.0611  0.2122
  477W        W 3996   4.612   6.154  11.420 -0.0118 -0.1943  0.0564
  478W        W 3997   4.907   5.728  11.024 -0.0044  0.2020  0.0522
  479W        W 3998   2.881   9.100   0.626 -0.0691 -0.1314  0.3790
  480W        W 3999   4.874   4.519   1.900 -0.3791  0.0387  0.0966
  481W        W 4000   6.083   8.576  11.142 -0.0762 -0.1133  0.0704
  482W        W 4001   4.935   7.941   0.262  0.5754  0.3725 -0.0282
  483W        W 4002   0.898   1.259   0.352 -0.1976 -0.0873  0.1883
  484W        W 4003   9.726   3.989   3.796  0.1446 -0.0915  0.0042
  485W        W 4004   5.852   9.015  10.019  0.0572 -0.2444  0.1184
  486W        W 4005   7.590   5.808   2.362  0.0993 -0.2444 -0.4484
  487W        W 4006   5.605   1.477   0.320 -0.0501  0.1136  0.0099
  488W        W 4007   9.039   7.002   1.723 -0.0020 -0.0237 -0.1121
  489W        W 4008   2.818   6.751   2.753  0.3974  0.0984  0.1199
  490W        W 4009   9.183   8.959   8.979 -0.0293 -0.4221 -0.1734
  491W        W 4010   0.147   3.635  10.755  0.1392 -0.1493 -0.1175
  492W        W 4011   8.532   6.067   9.365  0.1296  0.0345 -0.3633
  493W        W 4012   3.025   0.903   3.696  0.1126  0.3780  0.0888
  494W        W 4013   6.380   4.108   7.892  0.0619  0.2265 -0.3268
  495W        W 4014   3.177   6.542   7.536 -0.2892  0.2561 -0.0401
  496W        W 4015   5.162   7.864   2.502  0.1763 -0.0505  0.0738
  497W        W 4016   8.129   0.926  11.393  0.2504 -0.2840  0.0936
  498W        W 4017   7.990   0.942   0.439 -0.1462  0.4207  0.2419
  499W        W 4018   3.923   4.693   8.517 -0.2153 -0.3369 -0.0175
  500W        W 4019   5.630   0.819  11.304 -0.0219 -0.0700  0.0265
  501W        W 4020   5.925   0.016   9.752 -0.2833  0.2661 -0.0327
  502W        W 4021   2.624   2.275  10.947  0.0314 -0.2858 -0.2016
  503W        W 4022   4.779   4.381  10.485 -0.3856  0.4871 -0.0452
  504W        W 4023   2.474   5.710  11.677  0.0619  0.2335 -0.0884
  505W        W 4024   1.516   4.769   9.455 -0.1881 -0.1715  0.0630
  506W        W 4025   2.910   8.839   2.229 -0.2552 -0.1402  0.2743
  507W        W 4026   6.981   4.181   7.004 -0.3066 -0.1947  0.2054
  508W        W 4027   8.855   0.795   0.445 -0.2031  0.1643 -0.1040
  509W        W 4028   9.501   5.396  11.384  0.1491  0.0040  0.0552
  510W        W 4029   1.430   3.358   0.890 -0.0741  0.2355 -0.1917
  511W        W 4030   3.077   1.179   8.696 -0.3152  0.2975 -0.0837
  512W        W 4031   1.984   1.007  11.431  0.1965 -0.1846  0.0755
  513W        W 4032   8.669   7.951   7.824  0.0943  0.2306  0.1118
  514W        W 4033   6.163   9.765   9.311 -0.1840  0.0786 -0.0817
  515W        W 4034   3.514   1.456   1.088  0.0213  0.0758 -0.0189
  516W        W 4035   2.627   6.500  10.614  0.1010 -0.0860  0.2565
  517W        W 4036   1.970   1.249   9.318  0.0909 -0.1238  0.4359
  518W        W 4037   9.244   9.560   0.421  0.1070 -0.0224 -0.0925
  519W        W 4038   1.522   0.224  10.979 -0.1590 -0.4145 -0.4961
  520W        W 4039   8.829   2.085  11.480  0.0113  0.0084 -0.1364
  521W        W 4040   9.356   1.758   3.006  0.0395  0.2718  0.0132
  522W        W 4041   5.664   8.993  11.231  0.2499  0.1535  0.2701
  523W        W 4042   0.145   6.515   2.343  0.1548 -0.1039 -0.1489
  524W        W 4043   8.236   3.708   3.215  0.3770  0.1046 -0.0405
  525W        W 4044   2.439   9.335   9.566  0.0677  0.1407  0.2347
  526W        W 4045   2.818   9.907   0.525 -0.0499 -0.0691  0.1258
  527W        W 4046   5.753   3.734  11.415  0.1721 -0.0150  0.5025
  528W        W 4047   0.643   4.454   3.692  0.1057  0.0342  0.0007
  529W        W 4048   8.602   6.112   3.095  0.1319  0.0360 -0.0394
  530W        W 4049   7.587   0.826   2.832  0.0445 -0.0661  0.1953
  531W        W 4050   8.708   2.114   2.373 -0.2302  0.1015 -0.1517
  532W        W 4051   3.722   8.674   0.433 -0.0737  0.1680 -0.0862
  533W        W 4052   4.870   8.470   9.075  0.1939  0.1274  0.0755
  534W        W 4053   0.737   1.517   2.571  0.1802 -0.0030 -0.0635
  535W        W 4054   1.074   4.906   0.075 -0.1369  0.3581  0.0938
  536W        W 4055   4.993   7.854  11.519 -0.2902  0.1070  0.0294
  537W        W 4056   4.044   1.643  11.867  0.2510 -0.3166  0.5923
  538W        W 4057   1.246   3.395   9.076  0.0873 -0.1147  0.1182
  539W        W 4058   6.296   0.665   3.138  0.1834 -0.2134  0.1370
  540W        W 4059   0.101   0.564  10.794  0.1642  0.1575 -0.0602
  541W        W 4060   3.602   3.901  10.549 -0.1688 -0.0042 -0.2585
  542W        W 4061   8.195   4.248   2.680 -0.0577  0.1490 -0.1432
  543W        W 4062   3.911   2.962   1.743  0.2920 -0.1096  0.2610
  544W        W 4063   6.014   4.114  10.432 -0.3669 -0.1286  0.1004
  545W        W 4064   8.726   3.949   8.930  0.5213 -0.1518 -0.1796
  546W        W 4065   3.642   0.139   1.673 -0.4266  0.1781  0.0943
  547W        W 4066   0.338   9.451  10.325  0.0626 -0.0811  0.2755
  548W        W 4067   3.137   3.660   2.447 -0.2244  0.0879 -0.0250
  549W        W 4068   7.586   9.681   3.521  0.0722 -0.0776 -0.0835
  550W        W 4069   1.081   6.970  11.933 -0.2372 -0.1036  0.0766
  551W        W 4070   0.133   8.143   3.134 -0.0441 -0.1627  0.1706
  552W        W 4071   6.601   1.777   8.488  0.1345 -0.0174 -0.0513
  553W        W 4072   0.022   9.717  10.976  0.0300 -0.4194 -0.0902
  554W        W 4073   9.590   2.816   1.424  0.1815  0.2308  0.2241
  555W        W 4074   2.408   9.911  11.433 -0.2283 -0.0875 -0.2292
  556W        W 4075   0.218   4.268  10.264 -0.1462 -0.2392 -0.0356
  557W        W 4076   3.582   6.888   8.685 -0.3587 -0.3781 -0.0616
  558W        W 4077   8.987   6.719   0.428  0.0942  0.0337  0.0022
  559W        W 4078   8.601   3.462   9.041 -0.2051 -0.1776  0.0779
  560W        W 4079   8.727   8.448   0.315 -0.1745  0.2152  0.3108
  561W        W 4080   2.147   5.763  11.309 -0.1528  0.1960  0.0168
  562W        W 4081   6.643   8.170   1.714 -0.0373  0.1645  0.2058
  563W        W 4082   3.825   6.827  10.720  0.0721 -0.1234  0.1557
  564W        W 4083   0.333   3.817   1.239  0.2194  0.0238 -0.2439
  565W        W 4084   3.843   3.962  11.066  0.2063 -0.0224  0.0027
  566W        W 4085   5.757   0.296  11.215  0.0256  0.0591 -0.1149
  567W        W 4086   4.116   0.895   2.955 -0.0703  0.1211  0.1739
  568W        W 4087   0.227   4.916   9.116 -0.3616 -0.2593  0.2648
  569W        W 4088   8.034   3.733   8.410 -0.3694 -0.3510  0.4405
  570W        W 4089   3.000   1.614   2.227 -0.1337  0.2165  0.1907
  571W        W 4090   7.804   0.343   3.549  0.0077 -0.0154 -0.3165
  572W        W 4091   8.878   5.093   0.023  0.1420  0.1107  0.2875
  573W        W 4092   6.464   7.171   4.509 -0.0966 -0.1282 -0.2068
  574W        W 4093   3.906   3.844   0.540  0.0139  0.0399 -0.0419
  575W        W 4094   8.297   1.459   0.499  0.1355  0.2192  0.1442
  576W        W 4095   4.961   1.937   9.150 -0.0089 -0.0733 -0.2492
  577W        W 4096   5.548   4.737  11.090 -0.4178  0.0264  0.3289
  578W        W 4097   8.048   3.826  11.504  0.0541  0.2049 -0.0600
  579W        W 4098   4.149   7.994   2.489  0.3098 -0.1440 -0.0863
  580W        W 4099   0.000   7.239   0.252  0.1488 -0.1190  0.2002
  581W        W 4100   2.388   1.397  10.408 -0.2965  0.0036  0.0022
  582W        W 4101   6.166   9.392   7.055 -0.3587  0.1774  0.1037
  583W        W 4102   8.674   0.795  11.085 -0.0833 -0.0244 -0.2430
  584W        W 4103   7.380   7.951   9.242 -0.0775 -0.0434  0.2324
  585W        W 4104   0.046   5.144  10.076 -0.4493 -0.0333 -0.1992
  586W        W 4105   4.263   6.318   9.019  0.0302  0.3310  0.1590
  587W        W 4106   2.355   6.519   0.725 -0.2393 -0.0336  0.0122
  588W        W 4107   5.220   6.621   3.619  0.2390 -0.3164  0.0842
  589W        W 4108   1.698   1.373  10.338  0.1290 -0.2421  0.1192
  590W        W 4109   9.297   6.589   1.722 -0.1987  0.0204  0.1756
  591W        W 4110   0.990   3.117   0.017  0.4487  0.0258  0.0614
  592W        W 4111   8.533   3.679   2.745  0.0805  0.2296 -0.2080
  593W        W 4112   9.042   5.679   8.792  0.0345 -0.3186  0.0014
  594W        W 4113   2.060   6.037   9.937 -0.0884  0.1169 -0.1417
  595W        W 4114   6.712   7.491   3.720  0.1840  0.1202  0.1798
  596W        W 4115   6.068   5.739   7.902 -0.1532  0.2128 -0.1954
  597W        W 4116   2.522   5.421   9.552 -0.0330  0.4398  0.0841
  598W        W 4117   2.046   3.168   9.838  0.0403  0.3175 -0.0719
  599W        W 4118   3.215   0.644   8.434 -0.4435 -0.3815  0.2239
  600W        W 4119   5.409   5.055  10.605 -0.1253 -0.0895  0.0623
  601W        W 4120   9.330   0.943  10.776 -0.1435  0.1743 -0.0013
  602W        W 4121   6.042   3.016  10.561 -0.2178 -0.0585 -0.1411
  603W        W 4122   2.403   2.511   3.029 -0.0871 -0.2184  0.2100
  604W        W 4123   7.655   2.934   8.499 -0.1133 -0.1068 -0.0221
  605W        W 4124   0.379   2.701   0.100  0.0482  0.1079  0.0551
  606W        W 4125   5.645   4.282  10.042 -0.1205 -0.0217  0.0972
  607W        W 4126   1.783   2.365   0.230  0.4105  0.1460 -0.1512
  608W        W 4127   2.377   7.112  11.255  0.0337  0.0634 -0.0528
  609W        W 4128   6.726   8.972   2.296 -0.0440  0.1606 -0.2634
  610W        W 4129   0.276   0.739   0.513 -0.0663 -0.0853  0.0049
  611W        W 4130   2.948   2.274  10.476  0.3426  0.0788  0.1093
  612W        W 4131   7.615   5.122   0.683  0.1791  0.2978  0.3335
  613W        W 4132   5.381   4.891   0.978 -0.1818 -0.1868  0.1415
  614W        W 4133   8.777   0.553   3.771  0.0618  0.2708  0.1118
  615W        W 4134   5.203   3.329   2.034 -0.0731  0.3381  0.0686
  616W        W 4135   8.233   2.855  11.624 -0.2342  0.2825 -0.1640
  617W        W 4136   9.566   7.983   3.017 -0.1017  0.1760  0.0097
  618W        W 4137   1.988   7.727   0.451  0.0476 -0.0267 -0.0490
  619W        W 4138   3.026   3.777   4.051  0.2906 -0.2033  0.0953
  620W        W 4139   3.759   6.107   2.862  0.0060  0.3452 -0.1460
  621W        W 4140   6.804   7.423   1.331  0.3793  0.0274  0.0682
  622W        W 4141   0.127   7.701   3.353 -0.1978 -0.2299  0.1425
  623W        W 4142   9.759   8.917  11.617  0.0448  0.1840  0.0588
  624W        W 4143   3.614   5.375  10.570 -0.2563 -0.0552 -0.0700
  625W        W 4144   2.248   0.731   9.322  0.2539 -0.3354  0.2870
  626W        W 4145   9.844   4.967   8.642 -0.0708  0.2581  0.1272
  627W        W 4146   7.693   1.715  11.052 -0.0961 -0.5317 -0.0115
  628W        W 4147   2.490   7.668   1.852  0.1507  0.1045 -0.2391
  629W        W 4148   8.834   7.793   0.458 -0.1764 -0.1372 -0.0379
  630W        W 4149   5.407   8.890   1.746  0.0943 -0.1001  0.1373
  631W        W 4150   3.200   6.915   0.682 -0.0337  0.3327  0.1135
  632W        W 4151   3.372   0.038   9.285 -0.2095  0.3675  0.2975
  633W        W 4152   4.666   8.960   9.927 -0.1620 -0.0365 -0.1651
  634W        W 4153   3.884   9.923   9.429 -0.1650  0.2461 -0.2113
  635W        W 4154   1.478   4.351  10.470  0.0271 -0.1447  0.1836
  636W        W 4155   1.784   9.323   4.067  0.0311 -0.1410  0.0172
  637W        W 4156   6.042   3.084   3.679 -0.2723  0.0344  0.2393
  638W        W 4157   8.272   5.914   7.271  0.1510 -0.0089 -0.2438
  639W        W 4158   3.685   5.260   7.833 -0.0496 -0.0842  0.2431
  640W        W 4159   1.072   1.753   2.270 -0.2007  0.1468 -0.0974
  641W        W 4160   8.251   4.636   8.695 -0.2330 -0.2347 -0.0315
  642W        W 4161   4.661   9.863   3.212 -0.2116  0.1300  0.1494
  643W        W 4162   3.501   3.552  11.232  0.0057 -0.0410  0.1790
  644W        W 4163   6.666   2.050   7.971  0.3087  0.0448 -0.1844
  645W        W 4164   7.064   8.475   1.899 -0.2435  0.3009 -0.3233
  646W        W 4165   4.421   1.291   1.674  0.1724  0.0812  0.0222
  647W        W 4166   1.210   9.822   9.119  0.0386 -0.0732 -0.0086
  648W        W 4167   2.056   9.861  11.778 -0.1324  0.0081 -0.3657
  649W        W 4168   6.075   1.649   1.809  0.2711 -0.0124 -0.1483
  650W        W 4169   1.478   2.500   2.087  0.1929 -0.1739  0.0243
  651W        W 4170   0.255   9.763   2.907  0.0430 -0.1036  0.0434
  652W        W 4171   6.771   2.949   1.702  0.1005 -0.0255  0.1934
  653W        W 4172   7.893   0.169  10.951 -0.0891 -0.2436 -0.0981
  654W        W 4173   7.702   0.655   1.634 -0.0594 -0.1168 -0.1447
  655W        W 4174   7.381   7.623   2.577 -0.0274  0.0443 -0.2021
  656W        W 4175   7.423   0.303   8.362  0.3851  0.0560 -0.1930
  657W        W 4176   6.469   8.580   8.260  0.1812 -0.0302 -0.3972
  658W        W 4177   3.524   4.694  10.079  0.1787 -0.1545  0.0073
  659W        W 4178   3.645   4.925   2.113  0.0950 -0.1121  0.4675
  660W        W 4179   5.675   7.762  10.178  0.0174  0.0405  0.1497
  661W        W 4180   9.331   4.344  11.560  0.2088 -0.1312 -0.1934
  662W        W 4181   9.039   8.295   9.807 -0.1172 -0.0672 -0.0455
  663W        W 4182   9.472   5.271   8.692 -0.0535  0.1083  0.0015
  664W        W 4183   9.188   3.233   2.306  0.2384 -0.2283  0.1721
  665W        W 4184   8.234   4.613   1.142 -0.0209 -0.0332  0.0315
  666W        W 4185   1.262   9.158   0.643  0.1634 -0.1038 -0.0073
  667W        W 4186   9.098   4.348   0.652  0.4470  0.1468 -0.2487
  668W        W 4187   4.692   1.595   1.382 -0.1033  0.1988  0.1749
  669W        W 4188   0.225   5.423  10.530 -0.1654 -0.0362 -0.2376
  670W        W 4189   2.751   8.380   8.091 -0.1258  0.0265  0.2556
  671W        W 4190   2.338   5.945   9.547  0.2102  0.2718 -0.0930
  672W        W 4191   5.146   2.453   2.129 -0.1599  0.1814  0.2159
  673W        W 4192   3.275   2.062   9.399 -0.0291  0.3239  0.1323
  674W        W 4193   0.562   3.534   9.160  0.0236  0.0511  0.3233
  675W        W 4194   3.447   1.962  10.359  0.2480 -0.2555  0.1644
  676W        W 4195   2.585   9.727   8.551  0.2295 -0.0271  0.1245
  677W        W 4196   1.094   4.671  11.343 -0.0967  0.0185 -0.2388
  678W        W 4197   4.073   5.701   3.565 -0.1770 -0.0130  0.0779
  679W        W 4198   3.836   9.331   1.241 -0.0482 -0.0144 -0.1662
  680W        W 4199   3.041   5.296   8.955  0.0779  0.2661  0.2463
  681W        W 4200   8.431   8.828  11.574  0.1261  0.1502 -0.2533
  682W        W 4201   4.258   4.678   9.440  0.1881  0.1742 -0.1664
  683W        W 4202   4.712   3.384   7.215 -0.1770 -0.2175 -0.0063
  684W        W 4203   1.136   8.122   0.162  0.1405  0.0101 -0.1531
  685W        W 4204   4.982   9.411  10.412  0.0890 -0.1067 -0.0277
  686W        W 4205   0.177   4.057   2.983 -0.0545  0.0970  0.2997
  687W        W 4206   5.619   8.356   3.307  0.1129  0.2858 -0.0122
  688W        W 4207   4.119   7.174   2.228 -0.0408  0.0480  0.1160
  689W        W 4208   4.253   2.203  10.358  0.2135 -0.0712  0.0163
  690W        W 4209   3.661   7.535  11.505 -0.0759 -0.1881  0.2333
  691W        W 4210   2.832   0.126   2.042 -0.0618 -0.1289  0.0054
  692W        W 4211   1.898   1.715   0.173  0.0743 -0.1768  0.1105
  693W        W 4212   3.627   4.623   2.571  0.0505  0.3771 -0.1335
  694W        W 4213   7.084   0.120   1.406 -0.1764 -0.2365  0.2473
  695W        W 4214   3.011   2.750  11.193 -0.1797 -0.1406 -0.3633
  696W        W 4215   5.462   0.669   0.775 -0.1372 -0.0042 -0.1974
  697W        W 4216   4.194   3.003   2.858 -0.0820 -0.0724 -0.0593
  698W        W 4217   4.938   8.556  11.615  0.0855 -0.1540  0.1981
  699W        W 4218   5.347   3.516  11.909  0.0850  0.2290 -0.0145
  700W        W 4219   6.622   7.944   9.870  0.4142 -0.0196 -0.2170
  701W        W 4220   2.082   1.763   2.410  0.1034 -0.1394 -0.0762
  702W        W 4221   6.002   2.030  10.142  0.3157 -0.1337  0.0186
  703W        W 4222   6.561   9.475   1.101  0.0631  0.2160 -0.3494
  704W        W 4223   6.360   2.558   0.584  0.4568  0.2615  0.0589
  705W        W 4224   6.488   0.003   2.001  0.0145 -0.1467  0.2052
  706W        W 4225   2.689   2.602   3.798  0.2976  0.0189  0.0045
  707W        W 4226   9.867   1.342  11.068 -0.0403 -0.1669  0.0704
  708W        W 4227   1.883   4.674   8.979 -0.0652  0.0800  0.1307
  709W        W 4228   5.397   4.428   9.037 -0.0292  0.1921 -0.0139
  710W        W 4229   6.404   3.642   7.560 -0.5019 -0.2338  0.1206
  711W        W 4230   8.889   6.670   2.021  0.0043 -0.4607 -0.0010
  712W        W 4231   4.039   2.548   2.627  0.0682 -0.0743  0.2531
  713W        W 4232   4.213   6.491   2.565  0.1292 -0.1509  0.0648
  714W        W 4233   3.267   7.607   7.554  0.1502  0.0441  0.1642
  715W        W 4234   0.036   1.249   8.530 -0.1585 -0.0057 -0.1056
  716W        W 4235   6.442   9.135   9.895 -0.2822  0.2810  0.2438
  717W        W 4236   1.687   9.721  10.849  0.1134 -0.1457  0.0474
  718W        W 4237   5.756   3.433   1.439 -0.1049 -0.3212  0.1492
  719W        W 4238   4.453   9.743   8.157  0.0825 -0.3385 -0.0330
  720W        W 4239   6.835   2.094   2.567  0.1283  0.1377 -0.0451
  721W        W 4240   4.007   4.648   9.964  0.1302 -0.2031  0.0883
  722W        W 4241   7.205   7.353  10.647  0.3952 -0.0251  0.1467
  723W        W 4242   5.690   8.342  10.041  0.1671 -0.0316  0.3288
  724W        W 4243   4.897   6.202   7.927  0.0261  0.2052  0.1512
  725W        W 4244   2.171   7.266   2.023  0.1594 -0.2131 -0.3033
  726W        W 4245   9.196   7.695   8.182 -0.0070  0.0309 -0.2123
  727W        W 4246   2.187   3.551   2.815 -0.0732  0.3103  0.1303
  728W        W 4247   2.670   3.640  11.693 -0.0045  0.1024 -0.2129
  729W        W 4248   4.200   0.453   3.934  0.2264  0.0084  0.0151
  730W        W 4249   8.031   9.211  10.310 -0.2187 -0.4610 -0.3187
  731W        W 4250   3.157   5.558   0.132 -0.1339  0.3206  0.0869
  732W        W 4251   3.422   6.193   0.861 -0.0531  0.1716 -0.2924
  733W        W 4252   5.938   6.230   0.966 -0.1432 -0.0891 -0.2106
  734W        W 4253   9.635   6.869  11.978 -0.1737  0.1116 -0.0421
  735W        W 4254   1.068   9.525   2.476  0.0716 -0.0220  0.0867
  736W        W 4255   1.674   5.612  10.590 -0.1541  0.0182 -0.0810
  737W        W 4256   8.943   1.262  10.985 -0.0988  0.1619 -0.1769
  738W        W 4257   3.915   4.122   2.554  0.2892  0.2792  0.2675
  739W        W 4258   4.009   3.134   9.889 -0.0033 -0.4281  0.2330
  740W        W 4259   7.701   7.412   2.195  0.0709  0.0856 -0.0689
  741W        W 4260   4.594   7.659   9.153  0.2096  0.2701 -0.0988
  742W        W 4261   6.739   9.626  11.643 -0.0508 -0.1242 -0.0845
  743W        W 4262   7.464   9.045   7.531 -0.2357  0.5685 -0.0918
  744W        W 4263   5.027   8.648   3.252 -0.1939 -0.0198 -0.0714
  745W        W 4264   9.367   8.582   8.334  0.1888  0.3434  0.2776
  746W        W 4265   3.410   2.200   2.840  0.0457  0.0049  0.1625
  747W        W 4266   9.551   7.511   7.653  0.1675  0.1690  0.1297
  748W        W 4267   5.389   6.053   0.650 -0.3067  0.0074  0.0870
  749W        W 4268   7.449   5.099   2.775  0.2861 -0.1059 -0.1465
  750W        W 4269   5.302   6.534  10.520 -0.3542  0.1015 -0.1193
  751W        W 4270   2.018   4.525   1.678 -0.0144 -0.0190 -0.1891
  752W        W 4271   3.967   6.160   8.175 -0.0078  0.1314  0.1569
  753W        W 4272   7.123   6.410   0.575  0.0056  0.1955  0.0955
  754W        W 4273   5.952   3.416   9.973  0.0671 -0.1252 -0.0712
  755W        W 4274   5.189   8.489   1.093  0.2820 -0.0328  0.0132
  756W        W 4275   6.047   1.108   3.163 -0.1985  0.0334  0.2585
  757W        W 4276   8.598   1.950   2.822  0.2366  0.0859 -0.1351
  758W        W 4277   0.964   8.705  10.369  0.2267  0.1385  0.0407
  759W        W 4278   9.177   0.821   1.394 -0.0681  0.3373  0.0847
  760W        W 4279   6.614   7.435   9.884  0.2833 -0.1412 -0.2484
  761W        W 4280   7.475   7.889  11.746 -0.2145  0.1534 -0.1230
  762W        W 4281   5.621   9.821   2.915  0.0602 -0.0556  0.1860
  763W        W 4282   4.943   6.293   3.168  0.3687  0.1165 -0.1500
  764W        W 4283   6.866   1.584  11.161 -0.5165 -0.1975  0.1206
  765W        W 4284   5.131   5.717   3.427 -0.1320 -0.0808 -0.1157
  766W        W 4285   1.160   8.925   9.288 -0.0369  0.0014  0.1075
  767W        W 4286   7.698   4.605   8.648  0.1738 -0.2076 -0.1352
  768W        W 4287   9.235   3.416  11.589 -0.0341  0.0527  0.1983
  769W        W 4288   3.103   6.372  11.489 -0.2102 -0.0497  0.4618
  770W        W 4289   7.405   8.790  11.794  0.0633  0.1792  0.3053
  771W        W 4290   6.055   4.555   9.841  0.1353 -0.0784 -0.0141
  772W        W 4291   0.392   6.439  10.390 -0.0736 -0.3691  0.0035
  773W        W 4292   2.749   5.995   3.329 -0.1524  0.0229 -0.0310
  774W        W 4293   3.647   1.847   0.101 -0.1309  0.3958 -0.1414
  775W        W 4294   5.244   4.886   3.078 -0.0244  0.2693 -0.2645
  776W        W 4295   3.241   5.938   3.216  0.3733  0.0302  0.0173
  777W        W 4296   6.734   3.976   2.891 -0.1289  0.2825 -0.3081
  778W        W 4297   9.767   3.996   8.966 -0.1445  0.0493 -0.2698
  779W        W 4298   8.260   7.331   3.352  0.1036  0.1388 -0.1763
  780W        W 4299   4.037   5.935   1.463  0.0611 -0.0051  0.1549
  781W        W 4300   4.106   7.329  10.760  0.1250 -0.0178  0.3005
  782W        W 4301   8.421   8.227   9.151  0.1774  0.5410 -0.2691
  783W        W 4302   3.994   9.142   0.040 -0.1744 -0.1768 -0.3854
  784W        W 4303   6.579   0.927   8.752  0.1999 -0.0988 -0.1250
  785W        W 4304   9.742   1.916   0.306  0.1637 -0.1851  0.0357
  786W        W 4305   1.957   9.834   1.690  0.2710  0.2758 -0.0539
  787W        W 4306   4.300   3.794   3.359 -0.2590  0.0355  0.0103
  788W        W 4307   7.792   1.826   2.180  0.0982 -0.2624 -0.0390
  789W        W 4308   2.955   7.581   9.543 -0.0779 -0.0150 -0.0047
  790W        W 4309   0.240   9.607   1.179 -0.1057 -0.2832  0.3127
  791W        W 4310   3.945   1.473  10.886 -0.1882  0.1440  0.1053
  792W        W 4311   2.918   5.668   2.890 -0.0469 -0.1382 -0.0666
  793W        W 4312   9.771   7.026   7.740 -0.0141  0.1803 -0.2445
  794W        W 4313   0.628   7.395   7.812 -0.0104  0.1160  0.2618
  795W        W 4314   4.830   0.403   9.246  0.0498 -0.1709  0.2594
  796W        W 4315   6.150   9.805  10.993  0.0879  0.0624 -0.1230
  797W        W 4316   4.673   0.726   1.156  0.2257 -0.0246 -0.1185
  798W        W 4317   7.387   2.926   0.991 -0.4058 -0.1877  0.1431
  799W        W 4318   8.635   1.921   0.552  0.0618  0.1291  0.0195
  800W        W 4319   5.948   1.937  10.720  0.1045  0.1543  0.0016
  801W        W 4320   9.156   4.150   2.284 -0.0720  0.1106  0.2355
  802W        W 4321   6.008   6.551  11.211  0.3154  0.1100 -0.2579
  803W        W 4322   3.829   2.135  10.076 -0.0116 -0.0700 -0.3675
  804W        W 4323   7.504   0.305   9.359 -0.1154 -0.0957 -0.0487
  805W        W 4324   2.005   2.632   9.727 -0.0745  0.1421  0.0933
  806W        W 4325   1.895   9.491   9.546  0.1461 -0.1564  0.0761
  807W        W 4326   4.045   6.519   9.984  0.1147 -0.3146  0.1142
  808W        W 4327   3.201   3.191   2.591  0.0549 -0.0442  0.0042
  809W        W 4328   6.693   8.649   8.850 -0.1786 -0.1346 -0.1922
  810W        W 4329   6.203   7.576  11.988 -0.4188  0.0293  0.2515
  811W        W 4330   5.238   5.365   2.824  0.1577  0.1428 -0.2738
  812W        W 4331   2.125   6.249  11.366 -0.2807  0.0135  0.3367
  813W        W 4332   5.300   1.517   3.418 -0.1186 -0.1665 -0.3291
  814W        W 4333   7.498   3.426   9.915 -0.2902  0.1782 -0.0676
  815W        W 4334   5.165   6.734   9.309  0.1716 -0.0769  0.0333
  816W        W 4335   1.094   2.912   4.014 -0.2875  0.3956  0.0229
  817W        W 4336   6.000   7.522   9.194 -0.1949  0.0204 -0.1926
  818W        W 4337   0.965   8.859   7.690 -0.3304  0.0072 -0.1740
  819W        W 4338   0.835   9.254   2.828 -0.1733 -0.0541 -0.0629
  820W        W 4339   1.014   4.951   9.465 -0.2465  0.3623  0.0019
  821W        W 4340   5.233   8.659   2.663 -0.0538 -0.0330  0.0752
  822W        W 4341   9.228   2.038   9.442 -0.2552 -0.0775  0.0654
  823W        W 4342   6.924   1.136   2.630 -0.1478 -0.3605  0.1689
  824W        W 4343   3.869   0.410   3.014 -0.1954  0.2675 -0.0186
  825W        W 4344   6.949   6.477   2.707 -0.1834  0.1472 -0.1225
  826W        W 4345   1.061   8.421   1.509  0.2097  0.3528  0.0523
  827W        W 4346   0.074   1.449  10.520  0.1593 -0.2502  0.5406
  828W        W 4347   6.500   8.923  11.048  0.2179  0.3736  0.0478
  829W        W 4348   4.841   4.418   0.746 -0.2759 -0.0847 -0.0542
  830W        W 4349   3.996   5.434  12.015  0.0425 -0.0643  0.0658
  831W        W 4350   1.958   9.387  11.133 -0.1156  0.0611 -0.0486
  832W        W 4351   3.786   0.787   8.317  0.1248 -0.0148  0.5424
  833W        W 4352   9.205   4.940   1.413 -0.1747  0.0268 -0.0434
  834W        W 4353   4.485   1.833   9.306  0.3017 -0.2573  0.0308
  835W        W 4354   2.013   8.803   7.728  0.0433  0.0624  0.0680
  836W        W 4355   0.519   8.020  11.603  0.0901 -0.1974 -0.1738
  837W        W 4356   1.812   4.244   9.605 -0.2298 -0.0864 -0.3411
  838W        W 4357   5.318   3.448   9.983 -0.0955  0.2058 -0.2182
  839W        W 4358   6.005   6.252  11.620 -0.0970 -0.0675  0.2479
  840W        W 4359   5.720   5.145   2.926 -0.0717  0.0621  0.0798
  841W        W 4360   7.674   9.342   8.569  0.1083  0.0672 -0.1683
  842W        W 4361   7.109   7.445  11.751 -0.2141 -0.0540 -0.1099
  843W        W 4362   7.564   7.106   8.855 -0.1611 -0.0034 -0.0191
  844W        W 4363   3.083   2.956   2.192  0.0791  0.1094  0.0122
  845W        W 4364   7.043   5.934  10.175 -0.1642 -0.0026  0.1111
  846W        W 4365   4.660   2.089   1.568 -0.0549 -0.1280  0.0828
  847W        W 4366   5.930   9.831   8.220  0.2845 -0.1263 -0.0804
  848W        W 4367   4.092   2.550   9.029 -0.2387  0.2271  0.0204
  849W        W 4368   0.055   4.129   1.850  0.0303  0.0867 -0.2701
  850W        W 4369   2.459   8.054   0.878  0.0864 -0.1087 -0.2352
  851W        W 4370   3.214   3.420   9.694  0.0141 -0.2078  0.4056
  852W        W 4371   6.212   7.158  10.735 -0.1993  0.2120 -0.0539
  853W        W 4372   3.322   6.848   2.712  0.2746 -0.0442  0.0264
  854W        W 4373   4.612   2.787  10.087 -0.1051  0.2166 -0.2742
  855W        W 4374   8.104   3.276   8.340 -0.1858  0.1664  0.2235
  856W        W 4375   6.871   8.947   8.413  0.0329 -0.2794  0.0732
  857W        W 4376   9.280   2.084   3.480  0.3831  0.0118  0.0865
  858W        W 4377   3.221   9.245   1.987 -0.0085  0.3107 -0.0486
  859W        W 4378   0.604   1.870   3.426 -0.1353 -0.1028 -0.1617
  860W        W 4379   2.187   9.397   9.127 -0.2518 -0.0540 -0.0938
  861W        W 4380   0.991   8.064  11.668  0.2183 -0.0116 -0.0988
  862W        W 4381   6.432   1.405   8.820  0.2832 -0.1027  0.0852
  863W        W 4382   9.442   8.057   9.376 -0.1518  0.0939 -0.0345
  864W        W 4383   5.067   0.665   1.510 -0.0220  0.1823  0.0483
  865W        W 4384   4.542   4.892   2.165  0.3023  0.0039  0.2427
  866W        W 4385   4.888   5.306   3.981  0.1096 -0.1738 -0.0753
  867W        W 4386   8.146   8.897  10.692 -0.0744 -0.0661 -0.3479
  868W        W 4387   9.521   1.408  10.681  0.0042  0.0560 -0.2400
  869W        W 4388   8.265   2.606   0.992  0.2011 -0.1496  0.1367
  870W        W 4389   5.901   0.107  11.960  0.0670 -0.1116  0.0224
  871W        W 4390   3.412   5.696   8.699  0.2464  0.1705  0.1471
  872W        W 4391   5.721   8.644   2.047  0.3014  0.0607  0.0268
  873W        W 4392   0.900   7.289   8.248 -0.0005  0.4479 -0.1561
  874W        W 4393   2.626   3.480   9.553 -0.0454  0.1480  0.0451
  875W        W 4394   7.354   5.292   3.295 -0.0581  0.2858 -0.0786
  876W        W 4395   8.227   8.477   0.497 -0.1996 -0.1421  0.0164
  877W        W 4396   1.962   8.192   1.250 -0.1988  0.1029  0.0187
  878W        W 4397   6.266   8.461   9.248 -0.2484  0.0048 -0.1486
  879W        W 4398   7.924   1.109  10.441 -0.2283 -0.2221  0.1695
  880W        W 4399   4.316   7.197   8.278  0.3351 -0.0244  0.1897
  881W        W 4400   1.657   6.256   8.590  0.0115 -0.3653  0.0862
  882W        W 4401   9.490   9.720  10.024  0.0964  0.3940 -0.2368
  883W        W 4402   0.376   8.533   2.214  0.0271  0.2486 -0.0674
  884W        W 4403   3.241   9.776   1.823 -0.0208  0.1588  0.0301
  885W        W 4404   1.334   9.031  11.921 -0.1112 -0.0875 -0.0640
  886W        W 4405   3.690   5.541  11.171 -0.1283  0.0110 -0.0201
  887W        W 4406   4.525   0.442   0.670  0.0684  0.2531  0.0452
  888W        W 4407   5.956   5.893   2.437  0.0004 -0.1952  0.0634
  889W        W 4408   2.652   7.205   9.318  0.0806  0.0582  0.1705
  890W        W 4409   8.215   0.792  10.130  0.2093  0.0867  0.0529
  891W        W 4410   3.711   3.989   1.480 -0.3331  0.1184  0.2602
  892W        W 4411   7.774   2.492   0.829 -0.1947  0.1558  0.0190
  893W        W 4412   2.371   1.644   2.044  0.3293 -0.3037 -0.1278
  894W        W 4413   8.913   9.903   0.195 -0.1389 -0.3679  0.1043
  895W        W 4414   6.201   1.076   9.889 -0.2067 -0.2057 -0.2077
  896W        W 4415   4.280   8.340   9.975  0.3050 -0.3147 -0.0011
  897W        W 4416   2.138   7.701   1.000  0.2455  0.0101  0.0443
  898W        W 4417   0.533   3.669   3.967 -0.2210  0.0840 -0.1266
  899W        W 4418   5.959   9.721   3.358  0.2567 -0.1565 -0.2089
  900W        W 4419   8.116   1.960  10.095  0.2681  0.3341  0.0081
  901W        W 4420   9.168   1.375  11.775 -0.2220  0.4870  0.0113
  902W        W 4421   9.918   7.575  10.828 -0.2336  0.0709  0.0105
  903W        W 4422   7.390   5.484  10.093 -0.1721 -0.1345 -0.1449
  904W        W 4423   8.157   7.792   9.436  0.2752  0.0568 -0.0739
  905W        W 4424   8.881   3.977   1.088 -0.0662 -0.2578  0.0531
  906W        W 4425   5.230   5.368   8.851  0.1377  0.3174 -0.0418
  907W        W 4426   5.049   4.161   9.173  0.0986  0.0152 -0.3744
  908W        W 4427   4.521   7.695  10.859  0.0745 -0.0766  0.0891
  909W        W 4428   8.002   3.632  10.101  0.4928  0.0777  0.2770
  910W        W 4429   3.698   2.777   1.322  0.4334  0.2757 -0.0060
  911W        W 4430   7.261   8.664   0.370 -0.3842 -0.2799 -0.1277
  912W        W 4431   8.436   6.224   7.821 -0.1112 -0.3033 -0.1710
  913W        W 4432   3.816   6.488  11.317 -0.3564 -0.0466  0.1001
  914W        W 4433   1.992   6.553   9.871  0.0322  0.0228 -0.2552
  915W        W 4434   1.404   6.739   8.784  0.0078  0.0135 -0.1126
  916W        W 4435   3.529   9.753  10.802 -0.0414 -0.0026 -0.0790
  917W        W 4436   1.270   9.441   1.067 -0.1309  0.3820 -0.0889
  918W        W 4437   3.028   5.397  11.225  0.0003  0.1507 -0.2953
  919W        W 4438   2.393   1.607   3.419 -0.0582 -0.1323 -0.0870
  920W        W 4439   7.769   3.760   2.323 -0.0588 -0.0600  0.0731
  921W        W 4440   1.085   7.662  10.870  0.5132 -0.0871 -0.2603
  922W        W 4441   5.997   4.258   9.109  0.1103 -0.0980  0.1177
  923W        W 4442   8.196   1.988   0.238  0.0222 -0.2596  0.0231
  924W        W 4443   8.310   6.855   8.556  0.1077  0.3167  0.1768
  925W        W 4444   5.756   5.788  10.014  0.0164 -0.3263 -0.1548
  926W        W 4445   3.783   2.903   0.846 -0.0733  0.0040 -0.0756
  927W        W 4446   2.525   8.970   2.449  0.1787 -0.1306 -0.2219
  928W        W 4447   0.442   2.229   3.983  0.1157 -0.0713 -0.2470
  929W        W 4448   4.178   8.690   3.033  0.3263 -0.0894  0.1749
  930W        W 4449   3.449   7.485   2.299 -0.2418 -0.2747 -0.1114
  931W        W 4450   6.173   8.487   1.912 -0.0470 -0.1950 -0.0482
  932W        W 4451   5.995   0.728   1.755  0.1045 -0.0707  0.0585
  933W        W 4452   7.104   2.883   0.381  0.2566  0.0254  0.0005
  934W        W 4453   9.562   0.755   9.085 -0.0205 -0.0286 -0.2794
  935W        W 4454   5.629   1.033   1.583  0.2757 -0.0276  0.1274
  936W        W 4455   0.241   7.761   8.944  0.1033  0.3400 -0.1637
  937W        W 4456   2.704   0.014   3.505 -0.1492  0.5210  0.1325
  938W        W 4457   4.713   7.184   7.986 -0.1080  0.2128  0.0855
  939W        W 4458   2.760   2.186   1.438 -0.2321 -0.4081  0.2169
  940W        W 4459   2.826   5.953   9.804  0.3405  0.1873  0.0165
  941W        W 4460   7.591   5.828  11.063  0.1420 -0.0501  0.2933
  942W        W 4461   7.520   2.075   0.853 -0.0663 -0.1396 -0.2953
  943W        W 4462   1.508   7.490   3.323  0.0465 -0.1253  0.0256
  944W        W 4463   6.161   7.754   1.239  0.2107 -0.0111  0.0061
  945W        W 4464   6.328   1.825   9.113  0.2939  0.0238  0.1035
  946W        W 4465   4.589   2.592  10.547  0.0263 -0.3153  0.4288
  947W        W 4466   0.377   2.891  10.358 -0.0893  0.1249 -0.1486
  948W        W 4467   1.949   7.019   9.651 -0.2380 -0.0472  0.0295
  949W        W 4468   0.462   6.496   9.719 -0.0441  0.0129  0.1212
  950W        W 4469   5.498   0.183   3.398  0.0976 -0.1099  0.0473
  951W        W 4470   7.290   9.107   1.324  0.0736  0.2898  0.1169
  952W        W 4471   9.278   2.655  10.542 -0.0026  0.3524 -0.2020
  953W        W 4472   7.246   4.512  11.087 -0.2033  0.1606 -0.1846
  954W        W 4473   5.512   9.109   3.610  0.0595 -0.3048 -0.3018
  955W        W 4474   2.794   9.157   3.332 -0.1764 -0.1467 -0.1150
  956W        W 4475   6.377   3.684   9.757  0.0338 -0.3537  0.0502
  957W        W 4476   9.803   6.554   1.939 -0.1404 -0.1517 -0.1043
  958W        W 4477   5.010   3.429   0.989  0.0238  0.2294 -0.4621
  959W        W 4478   3.008   8.055   1.154 -0.0002 -0.0598  0.0364
  960W        W 4479   3.476   4.858  10.615 -0.0384 -0.0044 -0.0401
  961W        W 4480   3.169   9.280   9.907  0.1704  0.2188  0.2619
  962W        W 4481   8.893   1.150   3.753  0.0780  0.1435  0.3932
  963W        W 4482   8.168   9.262  11.458 -0.3783  0.0887  0.2750
  964W        W 4483   2.293   5.063  10.129  0.1769  0.1799  0.0275
  965W        W 4484   2.436   1.928  10.488  0.2155 -0.0330  0.1731
  966W        W 4485   3.554   7.917  11.847  0.3799 -0.0990  0.0489
  967W        W 4486   4.307   3.939   2.286  0.0905  0.0421 -0.0290
  968W        W 4487   2.281   4.902  10.598 -0.1200  0.1325 -0.2481
  969W        W 4488   3.755   3.689   2.638 -0.0091  0.3179 -0.3661
  970W        W 4489   7.595   0.775   9.019  0.0240 -0.0275 -0.0817
  971W        W 4490   1.481   8.408  10.206 -0.2536  0.0159 -0.2798
  972W        W 4491   1.059   8.069   3.044  0.0225 -0.1954  0.0885
  973W        W 4492   0.187   2.393  11.785 -0.1576  0.1665  0.3275
  974W        W 4493   8.513   9.318   3.445  0.1929 -0.1319 -0.1353
  975W        W 4494   4.766   4.935   0.710  0.1324  0.0301 -0.2492
  976W        W 4495   8.678   6.591   9.182 -0.2011 -0.0399  0.1768
  977W        W 4496   2.290   0.838   3.894  0.0135  0.1777  0.2132
  978W        W 4497   9.285   3.544   0.885 -0.2947 -0.0092  0.4123
  979W        W 4498   6.910   3.968   3.896  0.0045 -0.0304  0.3164
  980W        W 4499   1.506   2.658   4.100 -0.0401  0.1030 -0.0716
  981W        W 4500   3.267   8.768   0.790 -0.2178 -0.0460  0.1345
  982W        W 4501   7.060   4.354   0.487 -0.2683 -0.1047  0.1505
  983W        W 4502   2.149   3.408   3.643  0.3605 -0.1390  0.3103
  984W        W 4503   5.418   2.477   8.660  0.2717 -0.2731 -0.2403
  985W        W 4504   3.274   0.950   9.258  0.4018 -0.0015 -0.0170
  986W        W 4505   0.102   6.834  10.612 -0.1347 -0.1320  0.0820
  987W        W 4506   1.405   7.098   8.118  0.1143  0.2995  0.6203
  988W        W 4507   2.083   3.713   8.746  0.1536 -0.0593  0.0760
  989W        W 4508   0.151   8.813   8.973  0.4663  0.1087 -0.0873
  990W        W 4509   4.782   4.381   9.986 -0.1345 -0.2393 -0.0207
  991W        W 4510   9.605   0.912  11.801  0.2443 -0.0571 -0.0443
  992W        W 4511   5.432   2.131   9.592  0.1469 -0.0264  0.0464
  993W        W 4512   2.117   9.389   0.219  0.1806 -0.5425 -0.2247
  994W        W 4513   2.891   8.879   2.835 -0.4906 -0.1582  0.1127
  995W        W 4514   0.258   5.431   0.538  0.0941 -0.0121  0.0544
  996W        W 4515   3.018   3.982   0.909  0.1460  0.1360  0.1696
  997W        W 4516   3.728   6.247   7.358 -0.2210 -0.2261  0.1100
  998W        W 4517   1.292   9.022   2.831 -0.0731 -0.2732 -0.1061
  999W        W 4518   7.031   5.055  11.732 -0.3506 -0.1113 -0.0632
 1000W        W 4519   7.932   0.113   9.575  0.1239  0.2640 -0.4034
 1001W        W 4520   5.744   5.376  10.306  0.0430 -0.1361 -0.2162
 1002W        W 4521   6.367   5.175  10.394 -0.3800  0.1577 -0.0625
 1003W        W 4522   6.597   6.777   8.823 -0.0074  0.0060  0.0917
 1004W        W 4523   1.878   9.412   7.827 -0.3005  0.1140 -0.2479
 1005W        W 4524   5.903   4.300   3.282  0.1515  0.1433 -0.4525
 1006W        W 4525   8.808   8.100  12.001 -0.0686 -0.2973 -0.0466
 1007W        W 4526   5.728   7.810   0.808 -0.0589  0.3344  0.0560
 1008W        W 4527   8.707   4.840  10.342 -0.0374  0.0944 -0.3016
 1009W        W 4528   1.856   9.816   9.096  0.1129  0.2078 -0.1537
 1010W        W 4529   4.164   2.221   8.550 -0.0126 -0.1791 -0.0119
 1011W        W 4530   1.514   1.235   2.351 -0.5379 -0.1708 -0.0982
 1012W        W 4531   2.019   0.070   9.845  0.0886  0.1322 -0.0400
 1013W        W 4532   2.470   0.569  10.246 -0.0808  0.0936  0.2918
 1014W        W 4533   4.385   9.713   2.452  0.1185  0.0761 -0.0431
 1015W        W 4534   8.336   0.371   0.260  0.1353  0.0477 -0.0178
 1016W        W 4535   6.388   2.251   7.140  0.0493  0.3458 -0.0844
 1017W        W 4536   0.543   9.048  10.765 -0.0879 -0.0835 -0.1022
 1018W        W 4537   0.425   5.950   2.742 -0.3164 -0.0528 -0.0251
 1019W        W 4538   9.344   5.327  11.904  0.0114 -0.1805 -0.0330
 1020W        W 4539   5.861   4.553   0.977  0.1166 -0.0270 -0.3450
 1021W        W 4540   3.313   8.258   0.835  0.1067  0.0161 -0.1540
 1022W        W 4541   0.767   7.126   2.742  0.0114  0.1373 -0.2567
 1023W        W 4542   6.113   1.627   8.509 -0.2928  0.2029 -0.1622
 1024W        W 4543   1.138   3.271   2.977  0.1963  0.0571 -0.1913
 1025W        W 4544   8.810   9.701  11.286  0.0020  0.4920  0.0318
 1026W        W 4545   3.780   3.083  11.585  0.1760  0.1462  0.0198
 1027W        W 4546   2.663   4.629  10.580  0.1536  0.0959  0.2912
 1028W        W 4547   3.931   5.531   0.586 -0.1194 -0.1033  0.0458
 1029W        W 4548   7.823   1.638   2.636 -0.0032 -0.0520 -0.0793
 1030W        W 4549   7.599   2.717  11.108 -0.1555  0.0050 -0.2989
 1031W        W 4550   1.927   4.128  10.862 -0.2915  0.0489 -0.1695
 1032W        W 4551   5.781   8.704  10.466  0.0491  0.1959 -0.0002
 1033W        W 4552   4.427   9.220   0.614 -0.5367  0.1601 -0.1284
 1034W        W 4553   1.381   1.634   4.050 -0.1312  0.0123 -0.1168
 1035W        W 4554   4.868   0.935   9.244 -0.0013  0.0359 -0.0423
 1036W        W 4555   8.346   9.908  10.746 -0.0419  0.1386  0.0372
 1037W        W 4556   8.422   2.435   2.824  0.0827  0.0192 -0.2759
 1038W        W 4557   0.901   3.631  10.421 -0.2603 -0.1287 -0.0754
 1039W        W 4558   8.316   9.139  11.971 -0.2541 -0.1366 -0.0315
 1040W        W 4559   0.154   8.985   2.429  0.1497  0.2594 -0.1614
 1041W        W 4560   3.868   3.528  10.796  0.2353  0.0090  0.2135
 1042W        W 4561   6.281   1.315   3.538 -0.0519  0.2770 -0.0379
 1043W        W 4562   6.217   5.829  11.700  0.1330 -0.1927 -0.0664
 1044W        W 4563   0.180   0.028   3.479 -0.0089 -0.0175 -0.0562
 1045W        W 4564   0.072   7.338   8.179  0.0447 -0.4287 -0.1743
 1046W        W 4565   2.809   2.446   1.968  0.0768  0.2952  0.1456
 1047W        W 4566   9.778   2.441   9.517 -0.0394 -0.2132  0.0924
 1048W        W 4567   0.476   2.436  10.476  0.2272  0.2567  0.0623
 1049W        W 4568   2.613   3.126   3.665  0.2724 -0.1026 -0.0324
 1050W        W 4569   1.382   8.018   3.477  0.1025  0.4119  0.0141
 1051W        W 4570   8.445   9.587  11.714  0.0235 -0.2300 -0.0958
 1052W        W 4571   7.425   8.262   0.044  0.3021 -0.0380  0.0045
 1053W        W 4572   1.434   2.927  10.601  0.1176 -0.0723  0.0232
 1054W        W 4573   8.444   0.469   8.107  0.0360 -0.2113  0.3084
 1055W        W 4574   4.244   3.176  10.664 -0.0438  0.1068 -0.1195
 1056W        W 4575   4.778   6.034   0.434 -0.0791 -0.0568 -0.1581
 1057W        W 4576   2.527   0.157   9.904  0.2863  0.1311  0.1746
 1058W        W 4577   9.228   7.971   7.656  0.0339  0.0657  0.0204
 1059W        W 4578   5.101   6.988  10.299  0.1777  0.2837  0.3446
 1060W        W 4579   2.559   9.212   8.644 -0.1590 -0.2704  0.2660
 1061W        W 4580   7.898   5.247   1.824 -0.0196 -0.1691 -0.1210
 1062W        W 4581   3.796   6.671   2.887  0.1419  0.1091 -0.0316
 1063W        W 4582   8.739   6.746   1.417 -0.0194 -0.0856  0.0597
 1064W        W 4583   0.992   1.495   9.394  0.1322 -0.1369  0.1386
 1065W        W 4584   2.874   7.987   1.620  0.3651  0.4456 -0.0771
 1066W        W 4585   1.416   4.911   3.458  0.1490  0.0585 -0.0212
 1067W        W 4586   4.194   5.782   0.954 -0.0474  0.1635  0.0511
 1068W        W 4587   7.438   6.935   3.170  0.0507  0.2595 -0.1031
 1069W        W 4588   7.095   3.661   1.520  0.3305 -0.0143  0.1308
 1070W        W 4589   2.678   4.377   9.603 -0.0186  0.0648 -0.0409
 1071W        W 4590   7.612   2.472   8.920 -0.1324  0.1574 -0.2325
 1072W        W 4591   3.984   9.436   8.926  0.1402 -0.1199  0.1598
 1073W        W 4592   7.617   3.540   8.588  0.3587  0.3428 -0.0850
 1074W        W 4593   5.649   3.173   1.872  0.1768 -0.1106  0.5061
 1075W        W 4594   2.889   7.942   7.344 -0.0919  0.1435  0.2315
 1076W        W 4595   3.153   0.348   0.359  0.0021 -0.0379 -0.0401
 1077W        W 4596   3.409   9.252   0.934 -0.0052 -0.0033 -0.0471
 1078W        W 4597   1.653   5.768   1.623 -0.1017 -0.0823 -0.0282
 1079W        W 4598   1.225   7.354   1.931  0.1820  0.1651  0.1590
 1080W        W 4599   7.306   9.921   2.659  0.1326 -0.0788 -0.1414
 1081W        W 4600   1.864   1.925   1.458  0.4081 -0.2097  0.2470
 1082W        W 4601   8.304   4.789   0.667  0.2669  0.1402  0.0755
 1083W        W 4602   8.607   4.386   0.850  0.0774  0.4088  0.1292
 1084W        W 4603   2.657   6.910   0.473  0.2209 -0.0319 -0.1999
 1085W        W 4604   4.825   1.499   8.917 -0.1401  0.0529 -0.1168
 1086W        W 4605   1.751   4.386   5.219 -0.0515  0.2800  0.1398
 1087W        W 4606   1.219   4.473  10.071 -0.3594 -0.0721  0.0200
 1088W        W 4607   0.709   3.720   0.904 -0.1268  0.0138  0.2214
 1089W        W 4608   7.261   2.489   0.739 -0.1067  0.0759  0.0182
 1090W        W 4609   0.428   1.194   0.353  0.1894  0.0590 -0.1582
 1091W        W 4610   4.819   8.448   9.921  0.1298 -0.3131  0.0473
 1092W        W 4611   1.531   7.509   7.320 -0.0088  0.2298 -0.0044
 1093W        W 4612   5.398   4.924   0.039  0.1137  0.0017  0.0610
 1094W        W 4613   8.257   8.655   0.017 -0.2187  0.1789  0.0325
 1095W        W 4614   2.445   4.854   9.618 -0.1127 -0.2143 -0.2232
 1096W        W 4615   1.675   8.598   1.436 -0.0566  0.0005  0.1113
 1097W        W 4616   0.671   8.089  11.091  0.3865 -0.2516  0.2925
 1098W        W 4617   9.545   7.383   9.960  0.2730 -0.2273 -0.1561
 1099W        W 4618   8.827   6.720   7.760 -0.0558 -0.0058 -0.0341
 1100W        W 4619   1.691   6.637   9.430 -0.0103 -0.0260 -0.0726
 1101W        W 4620   5.411   2.068   1.829 -0.0600 -0.2318  0.0936
 1102W        W 4621   4.687   3.664   1.342 -0.0173 -0.3445 -0.0841
 1103W        W 4622   1.918   1.584   8.989  0.1158 -0.1660 -0.2239
 1104W        W 4623   8.647   5.528   3.068 -0.0794 -0.1888  0.0970
 1105W        W 4624   3.181   6.023   1.912 -0.1990  0.2226 -0.1257
 1106W        W 4625   4.657   9.915  10.281 -0.1391 -0.1353  0.1188
 1107W        W 4626   6.395   2.955   2.064  0.0321 -0.1280 -0.2214
 1108W        W 4627   1.555   9.770   9.959  0.0387  0.1632 -0.0715
 1109W        W 4628   2.163   4.916   2.845  0.0456  0.2309  0.2403
 1110W        W 4629   0.025   8.589  11.980 -0.2409  0.3713  0.3326
 1111W        W 4630   0.194   7.794   0.416  0.0442 -0.2516 -0.0163
 1112W        W 4631   2.434   8.483   7.764  0.1557  0.0581 -0.0576
 1113W        W 4632   3.322   7.402   0.589 -0.0845 -0.1375 -0.1033
 1114W        W 4633   3.364   8.803   8.998 -0.1811  0.0203  0.1236
 1115W        W 4634   8.502   5.094   1.111  0.0146  0.0483  0.2216
 1116W        W 4635   2.027   6.756   2.858 -0.1444  0.0120  0.2087
 1117W        W 4636   8.449   0.464  10.719  0.1355  0.0513 -0.0360
 1118W        W 4637   5.141   7.371   2.093  0.2780  0.2762  0.1763
 1119W        W 4638   1.522   6.828   0.107  0.3366 -0.1456  0.0853
 1120W        W 4639   8.115   2.342   8.731 -0.1574  0.2818 -0.0172
 1121W        W 4640   9.467   2.472   8.288  0.2291 -0.0930 -0.2089
 1122W        W 4641   9.836   7.175   3.449 -0.0742 -0.2881 -0.0040
 1123W        W 4642   6.822   7.210   8.809 -0.0329  0.0586 -0.2787
 1124W        W 4643   6.748   9.192   9.009 -0.2815  0.0551  0.3267
 1125W        W 4644   3.940   6.017  10.255 -0.1150 -0.2192 -0.3107
 1126W        W 4645   2.446   9.863   3.045  0.1898  0.0484  0.1363
 1127W        W 4646   3.269   8.796   1.727  0.1010 -0.0309  0.0102
 1128W        W 4647   2.420   8.183   1.728  0.2519 -0.5068 -0.2167
 1129W        W 4648   6.437   8.617   7.769  0.0778 -0.2109 -0.0340
 1130W        W 4649   4.812   1.229  10.038 -0.2071 -0.2876 -0.0178
 1131W        W 4650   6.954   8.860   0.018 -0.1910  0.2140  0.0428
 1132W        W 4651   1.053   8.916  10.840  0.0760 -0.0471 -0.1493
 1133W        W 4652   2.221   2.805  10.182  0.1131  0.1754  0.3274
 1134W        W 4653   9.374   0.021  10.444 -0.1407  0.0085 -0.0560
 1135W        W 4654   7.224   3.667  10.336  0.1325 -0.5863  0.1190
 1136W        W 4655   7.053   0.085   9.746  0.1591  0.0464 -0.2512
 1137W        W 4656   9.424   1.301   1.363  0.0106  0.0324 -0.0049
 1138W        W 4657   7.617   9.326  11.601  0.1367 -0.2410 -0.1022
 1139W        W 4658   6.624   8.451   9.744 -0.1174  0.1483 -0.3087
 1140W        W 4659   5.431   4.587   2.319 -0.1148  0.0118 -0.2439
 1141W        W 4660   3.057   5.111   0.416 -0.0092  0.2382 -0.3431
 1142W        W 4661   1.320   3.898   9.244  0.0890  0.3879  0.0126
 1143W        W 4662   5.092   9.178   2.745 -0.1766  0.2006 -0.1326
 1144W        W 4663   2.167   2.121   9.690  0.0929  0.0837 -0.1688
 1145W        W 4664   2.327   9.117   7.907 -0.1350  0.1571 -0.1344
 1146W        W 4665   2.365   2.705   1.674  0.1488  0.0777  0.1035
 1147W        W 4666   5.999   5.448   1.182 -0.1267  0.2356  0.0080
 1148W        W 4667   5.545   3.973  10.623 -0.3087  0.1450 -0.2569
 1149W        W 4668   5.314   7.472  10.594  0.3788  0.0643 -0.3022
 1150W        W 4669   8.746   9.398   0.460 -0.0096 -0.0277  0.2806
 1151W        W 4670   1.030   8.880   8.756  0.0064  0.2609  0.0884
 1152W        W 4671   2.361   4.444  10.972 -0.2458  0.0194 -0.1905
 1153W        W 4672   1.402   7.638  11.392 -0.1470  0.2318 -0.0024
 1154W        W 4673   4.176   2.829  10.356  0.1103  0.0147  0.0109
 1155W        W 4674   3.493   4.795  11.560  0.2471  0.3125 -0.1549
 1156W        W 4675   3.745   4.834   9.601 -0.0617  0.1589 -0.0117
 1157W        W 4676   4.201   3.946   1.363  0.0739  0.0756  0.1309
 1158W        W 4677   4.778   3.639   3.411 -0.1028  0.2068 -0.0374
 1159W        W 4678   7.355   7.317  10.114 -0.1111 -0.0920  0.3025
 1160W        W 4679   4.587   9.372   9.074 -0.1995 -0.1930  0.1207
 1161W        W 4680   4.769   4.882  11.281 -0.3422  0.1488 -0.1392
 1162W        W 4681   1.549   6.324   9.854 -0.2209  0.3127 -0.0843
 1163W        W 4682   5.994   2.892  10.034  0.2724 -0.0117  0.2964
 1164W        W 4683   4.351   7.263   9.333  0.0422  0.0637 -0.4031
 1165W        W 4684   3.931   7.924   0.925  0.0239  0.3013 -0.1546
 1166W        W 4685   9.074   8.803   1.041 -0.0416 -0.3054 -0.0374
 1167W        W 4686   9.557   5.850   3.084 -0.2068  0.0012  0.1264
 1168W        W 4687   8.776   2.178   3.641 -0.2168 -0.0855  0.2290
 1169W        W 4688   8.962   1.749  10.708 -0.0905  0.0610 -0.1814
 1170W        W 4689   3.464   0.832   8.813 -0.0117  0.3782 -0.1956
 1171W        W 4690   0.690   5.734   2.308 -0.1151  0.1239 -0.4138
 1172W        W 4691   7.936   8.839   2.748  0.1104 -0.3806 -0.2439
 1173W        W 4692   0.923   9.257   1.331  0.0423  0.2559 -0.1487
 1174W        W 4693   6.812   6.220   1.313  0.4461  0.0835 -0.2729
 1175W        W 4694   7.067   6.799   1.869 -0.2095 -0.1006 -0.1439
 1176W        W 4695   6.125   8.170   9.749  0.1383  0.0791 -0.3255
 1177W        W 4696   5.975   2.117   8.880  0.1898  0.0564 -0.3338
 1178W        W 4697   2.232   8.745   1.690  0.1063  0.0564 -0.4272
 1179W        W 4698   8.321   5.217  10.403 -0.1078  0.0026  0.1279
 1180W        W 4699   9.483   8.944   4.541 -0.5818  0.3060 -0.0646
 1181W        W 4700   8.308   4.806   2.857 -0.0413 -0.5197  0.0029
 1182W        W 4701   6.127   8.776   9.622  0.1759 -0.1280 -0.0554
 1183W        W 4702   4.018   0.382   9.150 -0.3332  0.1454 -0.0523
 1184W        W 4703   0.463   2.733   3.284  0.5259 -0.1243  0.0145
 1185W        W 4704   2.275   0.085   8.915  0.0903 -0.1330 -0.0078
 1186W        W 4705   2.126   7.303  10.474  0.0404  0.0655 -0.1560
 1187W        W 4706   6.077   7.798   3.750  0.4280  0.1385  0.4819
 1188W        W 4707   8.674   3.025  11.843 -0.1612 -0.1320 -0.1073
 1189W        W 4708   1.134   8.470   3.356 -0.1464 -0.2028 -0.0270
 1190W        W 4709   1.430   3.463   9.543 -0.1484 -0.0988  0.2351
 1191W        W 4710   8.048   5.519   1.247  0.0804  0.0612 -0.0677
 1192W        W 4711   3.272   7.216   1.223 -0.2157  0.4333 -0.3991
 1193W        W 4712   2.136   3.489  11.997  0.0327 -0.0867 -0.2391
 1194W        W 4713   2.810   2.232  11.980 -0.0433  0.0482 -0.0300
 1195W        W 4714   6.567   5.835  10.296  0.1470  0.0336 -0.0725
 1196W        W 4715   0.958   7.176   3.627  0.1125  0.0085 -0.0605
 1197W        W 4716   8.921   1.231   2.207 -0.3440 -0.1908  0.2655
 1198W        W 4717   1.593   4.648   1.933  0.3012  0.1161 -0.1588
 1199W        W 4718   9.263   3.773   3.111  0.1638  0.2095 -0.0494
 1200W        W 4719   8.167   1.766   9.377  0.2204  0.1164  0.1025
 1201W        W 4720   5.833   0.680   9.072 -0.2179  0.0895 -0.0899
 1202W        W 4721   1.806   3.560   2.516 -0.2489  0.0243  0.1460
 1203W        W 4722   2.028   8.459   8.654 -0.1689 -0.1965 -0.0614
 1204W        W 4723   3.612   4.224   2.177  0.2753  0.1648  0.2747
 1205W        W 4724   4.123   9.606   0.886 -0.1645  0.0835  0.2817
 1206W        W 4725   8.664   5.222  10.057  0.1761  0.0179  0.1267
 1207W        W 4726   4.413   2.844  11.007  0.1265  0.1544 -0.0117
 1208W        W 4727   4.305   6.327   0.152 -0.0804 -0.1301  0.0255
 1209W        W 4728   1.062   0.253   2.677 -0.0007  0.0787 -0.2747
 1210W        W 4729   7.033   8.488   2.497  0.2746 -0.1613 -0.1631
 1211W        W 4730   2.998   4.050  11.537  0.1197  0.1735  0.2508
 1212W        W 4731   9.442   9.604   2.378  0.1446 -0.2296 -0.0119
 1213W        W 4732   6.246   8.175  11.808  0.0547  0.0103  0.1493
 1214W        W 4733   8.759   1.240   0.656  0.1109  0.0902 -0.1510
 1215W        W 4734   8.442   6.018   3.858  0.3851  0.2032  0.2158
 1216W        W 4735   9.911   1.412   0.055  0.1045  0.4048 -0.0756
 1217W        W 4736   7.493   4.642   0.442  0.1007  0.2243 -0.3055
 1218W        W 4737   7.759   6.170   8.083  0.0341 -0.0881 -0.5167
 1219W        W 4738   4.493   0.763   1.680 -0.1043 -0.1564 -0.0179
 1220W        W 4739   8.498   0.050   1.528  0.4804  0.0225  0.0917
 1221W        W 4740   9.488   0.557  10.450  0.0597 -0.2327 -0.0939
 1222W        W 4741   5.875   7.029   0.468  0.2190 -0.3530 -0.0776
 1223W        W 4742   7.964   7.715   3.347  0.1488 -0.0754  0.0666
 1224W        W 4743   2.635   8.287   0.403  0.1584  0.0073  0.0846
 1225W        W 4744   9.012   2.437   9.601  0.0699 -0.0971 -0.2960
 1226W        W 4745   3.866   8.451   8.147 -0.0053 -0.0110  0.1532
 1227W        W 4746   9.746   3.897  10.153 -0.0504 -0.1758 -0.1697
 1228W        W 4747   7.521   2.222  11.779 -0.0262 -0.1691 -0.0805
 1229W        W 4748   8.803   4.312  11.341  0.1108 -0.1665 -0.0424
 1230W        W 4749   1.358   8.594   0.600  0.0633  0.2441  0.2237
 1231W        W 4750   8.794   0.473   0.020  0.1206  0.1089 -0.0064
 1232W        W 4751   5.841   2.289   7.893  0.2115  0.3051 -0.1684
 1233W        W 4752   9.675   2.370  11.209 -0.1798  0.2177  0.0612
 1234W        W 4753   0.721   5.418  10.671  0.0887  0.1452  0.0124
 1235W        W 4754   8.777   9.538   3.774 -0.1034 -0.0320 -0.0542
 1236W        W 4755   0.338   0.553   3.216  0.0818 -0.2651  0.1329
 1237W        W 4756   2.124   4.114   1.478  0.0892 -0.1391  0.2735
 1238W        W 4757   4.011   5.650   8.301  0.0486  0.2753  0.0576
 1239W        W 4758   0.713   8.666   9.468 -0.0320 -0.2028 -0.2066
 1240W        W 4759   7.277   3.141   9.449  0.3322  0.0839 -0.0193
 1241W        W 4760   8.385   2.049   8.999  0.2438  0.2073  0.1669
 1242W        W 4761   1.759   4.623  10.791 -0.1719  0.2089  0.0216
 1243W        W 4762   2.403   7.768   8.620 -0.0542 -0.0949 -0.1696
 1244W        W 4763   3.362   4.690   0.554  0.0112 -0.1798 -0.0404
 1245W        W 4764   6.820   1.537   8.086 -0.0596 -0.0777  0.0940
 1246W        W 4765   3.534   7.968   0.506  0.0608  0.1596  0.0136
 1247W        W 4766   8.383   2.282  11.683  0.0135 -0.0482  0.0273
 1248W        W 4767   7.554   4.773  11.882  0.1817 -0.0015  0.2148
 1249W        W 4768   7.552   0.836  10.245 -0.2796  0.0838 -0.2101
 1250W        W 4769   7.733   1.228   8.919 -0.0906  0.2017 -0.2497
 1251W        W 4770   2.046   3.471   0.932  0.0839 -0.0166 -0.1541
 1252W        W 4771   8.933   8.957   8.539 -0.0451 -0.2201 -0.3819
 1253W        W 4772   7.471   9.671   1.496  0.0511 -0.1072  0.0349
 1254W        W 4773   3.791   3.763   9.309  0.2395  0.0250 -0.1803
 1255W        W 4774   4.395   9.318  10.941  0.2113 -0.1232  0.2223
 1256W        W 4775   0.309   3.693   8.279 -0.1093  0.2750 -0.0768
 1257W        W 4776   4.496   1.583   0.099  0.1163 -0.0386 -0.0116
 1258W        W 4777   6.688   1.511  11.775  0.1684 -0.0413 -0.2916
 1259W        W 4778   2.832   3.681   1.205  0.2601  0.4199 -0.0480
 1260W        W 4779   2.889   5.712   0.502  0.1373 -0.2153  0.3431
 1261W        W 4780   6.095   6.682   1.273  0.3382  0.0295  0.2956
 1262W        W 4781   2.192   7.010   9.152 -0.0324 -0.0173 -0.1130
 1263W        W 4782   1.835   8.677   0.421  0.0927 -0.1144 -0.0331
 1264W        W 4783   1.599   8.786  11.218 -0.4165  0.0788  0.1108
 1265W        W 4784   2.767   5.690  10.649  0.3451 -0.0569  0.0684
 1266W        W 4785   8.794   3.917   0.151 -0.0017  0.1744  0.0927
 1267W        W 4786   0.059   8.795   0.577 -0.0215  0.1963 -0.1672
 1268W        W 4787   5.958   1.200  11.270 -0.4253  0.0077  0.2787
 1269W        W 4788   0.031   9.541   4.259 -0.0796 -0.3824 -0.0886
 1270W        W 4789   4.845   4.240   8.708 -0.2633 -0.1282  0.0272
 1271W        W 4790   4.723   2.755  11.951 -0.0629 -0.1385 -0.1226
 1272W        W 4791   2.287   2.382   2.056  0.3033  0.2609 -0.3302
 1273W        W 4792   6.410   9.656   8.131 -0.0447  0.1042 -0.0697
 1274W        W 4793   7.661   1.605   9.306 -0.0472 -0.2766 -0.1223
 1275W        W 4794   6.900   6.717  11.176 -0.0374 -0.1508  0.0409
 1276W        W 4795   4.539   1.075   0.073 -0.0191  0.0840 -0.1388
 1277W        W 4796   9.504   6.549  11.594 -0.1336 -0.1371  0.0174
 1278W        W 4797   3.294   7.194   0.081  0.2693  0.0353  0.0980
 1279W        W 4798   6.312   7.317   2.181  0.2668 -0.0569  0.0746
 1280W        W 4799   9.706   5.298   0.552 -0.1360 -0.2342 -0.0366
 1281W        W 4800   9.776   0.995  10.516  0.0717 -0.2568  0.2205
 1282W        W 4801   7.229   5.169   9.326 -0.3701 -0.0222 -0.2104
 1283W        W 4802   2.784   8.040   8.618 -0.2680  0.4053 -0.0280
 1284W        W 4803   9.696   2.118   3.222 -0.0833 -0.0933  0.1148
 1285W        W 4804   0.839   9.370  11.231  0.1751  0.1730 -0.0716
 1286W        W 4805   1.013   4.211   8.425  0.0133  0.1672  0.0288
 1287W        W 4806   0.720   3.618  11.973  0.0915  0.0848  0.2490
 1288W        W 4807   8.452   1.530   8.923 -0.2037  0.5280 -0.1063
 1289W        W 4808   7.616   2.696  10.548  0.3411  0.1112  0.1455
 1290W        W 4809   6.939   9.007   0.529  0.1777 -0.1766 -0.1026
 1291W        W 4810   7.216   2.457  10.895  0.2724 -0.1751  0.3279
 1292W        W 4811   8.304   0.027   2.813 -0.0900 -0.1631 -0.2721
 1293W        W 4812   4.008   7.442   9.700  0.0940  0.1113 -0.2672
 1294W        W 4813   0.862   0.449   4.487  0.1774  0.1653 -0.1458
 1295W        W 4814   9.806   8.195   2.621  0.1099 -0.0905 -0.0783
 1296W        W 4815   1.657   7.459   0.704 -0.1737 -0.0251 -0.0094
 1297W        W 4816   2.963   5.888  11.555 -0.0675 -0.1800  0.1076
 1298W        W 4817   7.767   4.738  11.427  0.0926 -0.1310 -0.3184
 1299W        W 4818   0.758   7.038   8.652 -0.0700 -0.0214  0.0414
 1300W        W 4819   0.628   0.536   8.429  0.0601  0.2642  0.0065
 1301W        W 4820   9.646   8.388   9.774  0.2136  0.3376 -0.3635
 1302W        W 4821   7.945   8.764   3.595 -0.4854  0.0120 -0.0848
 1303W        W 4822   9.509   3.319   1.372 -0.0183 -0.0624 -0.0982
 1304W        W 4823   3.634   1.351   0.244  0.0224 -0.2074  0.1203
 1305W        W 4824   4.614   2.231   8.290 -0.0545  0.0321 -0.1507
 1306W        W 4825   0.714   2.230   0.600 -0.2675  0.0650  0.0482
 1307W        W 4826   3.462   2.564  11.257 -0.1151  0.2707  0.4711
 1308W        W 4827   0.017   5.546  11.059 -0.1392 -0.1102 -0.2664
 1309W        W 4828   6.674   6.570   0.635  0.0504 -0.1223 -0.2226
 1310W        W 4829   5.015   5.163   3.528 -0.1349  0.1370 -0.2137
 1311W        W 4830   5.538   7.718   0.084 -0.0814  0.0800 -0.1913
 1312W        W 4831   2.490   6.800   9.625 -0.0113 -0.2003  0.0168
 1313W        W 4832   0.060   8.040  10.263  0.3841 -0.1340 -0.0483
 1314W        W 4833   3.431   9.230  10.690  0.0157  0.0343  0.1882
 1315W        W 4834   4.910   2.341   2.925 -0.0068 -0.2534  0.2870
 1316W        W 4835   8.471   6.070  11.186 -0.3119 -0.0260 -0.1170
 1317W        W 4836   8.812   2.928   9.009 -0.1938 -0.0728  0.1309
 1318W        W 4837   2.417   4.190   4.122 -0.0997  0.0249 -0.1350
 1319W        W 4838   2.090   7.997  10.932  0.0951 -0.1184  0.2109
 1320W        W 4839   5.399   8.611   0.035  0.4044  0.3206 -0.1473
 1321W        W 4840   6.877   2.783   2.235 -0.1676  0.1132 -0.1643
 1322W        W 4841   5.938   8.919   1.638  0.3362 -0.0362 -0.0889
 1323W        W 4842   1.225   6.437   1.472  0.2315 -0.0841 -0.0163
 1324W        W 4843   3.118   2.521   9.483  0.0913 -0.1850 -0.0835
 1325W        W 4844   3.921   2.014   1.824 -0.0163  0.0939 -0.1858
 1326W        W 4845   2.153   3.504   9.425 -0.0450  0.1153 -0.1182
 1327W        W 4846   6.220   5.121   2.790  0.3719  0.0529 -0.0850
 1328W        W 4847   4.416   1.788   1.885 -0.1423 -0.2824 -0.2073
 1329W        W 4848   3.708   5.367   9.733  0.4990 -0.0446  0.0253
 1330W        W 4849   8.229   5.925   8.941  0.2776  0.0582 -0.0018
 1331W        W 4850   2.682   6.554   3.329 -0.0335 -0.2247  0.2947
 1332W        W 4851   5.173   5.879   8.182 -0.0174 -0.6128  0.3955
 1333W        W 4852   1.760   9.915  10.396 -0.1214  0.1121 -0.3449
 1334W        W 4853   1.416   4.226  11.104  0.1923  0.1305  0.3080
 1335W        W 4854   2.111   9.000   8.459 -0.0855 -0.0784  0.0961
 1336W        W 4855   0.221   2.844   4.788  0.1412 -0.0526  0.1564
 1337W        W 4856   1.401   9.724   2.218 -0.2198 -0.2179 -0.0372
 1338W        W 4857   9.357   9.381   1.909 -0.0387 -0.0445 -0.0486
 1339W        W 4858   7.779   8.226  10.817  0.0617 -0.1487  0.0227
 1340W        W 4859   7.522   2.154  11.272 -0.0929  0.0170 -0.0626
 1341W        W 4860   6.816   2.658  11.999 -0.0212 -0.1424 -0.2671
 1342W        W 4861   5.888   3.492  10.555 -0.1260 -0.0089 -0.2318
 1343W        W 4862   2.489   3.411   8.640 -0.1092  0.1963 -0.1109
 1344W        W 4863   5.706   6.721   2.842 -0.0392  0.3387  0.5464
 1345W        W 4864   1.071   1.895   9.930  0.0094 -0.1527  0.0346
 1346W        W 4865   4.240   0.237  10.216 -0.0712 -0.0025 -0.2669
 1347W        W 4866   6.532   1.904   0.868 -0.0113  0.0594 -0.1007
 1348W        W 4867   3.433   1.169   0.651 -0.0498 -0.0005 -0.0024
 1349W        W 4868   3.777   9.365   0.589  0.1800  0.1121  0.2663
 1350W        W 4869   4.471   3.938  11.945 -0.3464  0.1790 -0.0622
 1351W        W 4870   6.436   7.016   1.671 -0.3064  0.2135 -0.3299
 1352W        W 4871   4.715   6.131  11.904 -0.1248  0.0349  0.0480
 1353W        W 4872   7.075   2.181   0.028 -0.3150  0.0239 -0.1130
 1354W        W 4873   4.858   9.794   0.027  0.0691 -0.1700  0.1143
 1355W        W 4874   8.102   8.094   3.027 -0.1669 -0.4704 -0.0546
 1356W        W 4875   0.172   3.735   2.127 -0.1055  0.0615 -0.0548
 1357W        W 4876   4.166   7.828   9.424 -0.0080  0.1974 -0.0420
 1358W        W 4877   3.063   8.190  11.186  0.0543 -0.5553 -0.2813
 1359W        W 4878   2.421   7.578   9.073  0.1675  0.0000 -0.6683
 1360W        W 4879   3.306   3.608   2.940  0.0691 -0.0244 -0.1137
 1361W        W 4880   9.910   3.442  10.307  0.2224  0.2594 -0.2876
 1362W        W 4881   1.401   3.990   8.705 -0.2187 -0.0541 -0.0320
 1363W        W 4882   1.577   1.726   2.342  0.0277 -0.1550  0.1645
 1364W        W 4883   2.894   8.245   3.003  0.0041  0.2387  0.2275
 1365W        W 4884   7.795   9.364   7.613  0.3079 -0.0215  0.1289
 1366W        W 4885   3.089   8.513   1.316  0.1134  0.1234 -0.0295
 1367W        W 4886   1.638   6.401  11.714 -0.0490  0.0286  0.0227
 1368W        W 4887   2.712   8.500  10.967  0.2028 -0.1709 -0.2868
 1369W        W 4888   3.294   8.090   8.800  0.1382 -0.0183  0.2401
 1370W        W 4889   7.915   9.901  10.491  0.1975  0.0810  0.2299
 1371W        W 4890   6.781   6.013   1.802 -0.2060 -0.0437  0.3581
 1372W        W 4891   1.771   5.304   0.730 -0.3697 -0.1750 -0.0131
 1373W        W 4892   6.137   9.468  11.741 -0.0286 -0.0608  0.0398
 1374W        W 4893   4.030   0.489   9.691 -0.2235 -0.0132  0.1054
 1375W        W 4894   4.892   5.419   0.513  0.3289  0.0012  0.1743
 1376W        W 4895   4.296   5.750   2.985  0.0450  0.0830 -0.0565
 1377W        W 4896   3.130   1.509   1.517  0.0647  0.2326 -0.0671
 1378W        W 4897   6.130   3.392   2.333 -0.2261 -0.0105 -0.0835
 1379W        W 4898   5.595   1.376   1.050  0.0067  0.1020  0.1014
 1380W        W 4899   1.172   9.215   3.288  0.2661  0.1126 -0.0263
 1381W        W 4900   3.654   7.696  10.585  0.2543  0.2523 -0.2092
 1382W        W 4901   8.783   3.724   4.031 -0.0880  0.0587 -0.0159
 1383W        W 4902   2.487   3.172   0.542  0.0989  0.2976 -0.0530
 1384W        W 4903   8.445   8.022   0.642 -0.1500 -0.0709  0.1823
 1385W        W 4904   7.141   0.070   4.017 -0.0948  0.0773 -0.6024
 1386W        W 4905   6.330   2.365   9.187 -0.0539  0.0936 -0.0286
 1387W        W 4906   0.237   3.404   4.271  0.2169  0.1951 -0.0530
 1388W        W 4907   6.570   5.297   2.482 -0.2575 -0.2791  0.1052
 1389W        W 4908   7.385   6.601  11.292 -0.0709  0.1451 -0.0931
 1390W        W 4909   3.338   0.280   1.337 -0.4316 -0.2936 -0.2259
 1391W        W 4910   4.218   4.985  11.810  0.0716 -0.0860 -0.1403
 1392W        W 4911   9.586   7.546  11.286  0.0043  0.0188 -0.0550
 1393W        W 4912   3.616   8.910  11.090  0.2807 -0.3552  0.3656
 1394W        W 4913   1.303   1.921   2.984 -0.0419  0.1128  0.2280
 1395W        W 4914   3.920   2.830  11.133  0.1235  0.2943  0.1136
 1396W        W 4915   2.872   4.227  10.182 -0.0774 -0.0887  0.0356
 1397W        W 4916   1.639   2.952  11.493  0.0953  0.0774  0.0762
 1398W        W 4917   8.234   6.557   9.928 -0.2140  0.1309 -0.2352
 1399W        W 4918   8.056   2.544  10.910  0.2117 -0.0531  0.0570
 1400W        W 4919   2.477   3.046   3.065 -0.1400 -0.2787 -0.6162
 1401W        W 4920   1.054   5.358   2.204 -0.1340  0.1981 -0.1313
 1402W        W 4921   8.063   9.340   0.998 -0.1609  0.3012 -0.0266
 1403W        W 4922   8.956   1.648   9.535  0.2299  0.0189 -0.1647
 1404W        W 4923   5.850   4.663  11.987 -0.0108  0.1556 -0.1793
 1405W        W 4924   2.022   5.008   1.781 -0.0490  0.3416  0.1371
 1406W        W 4925   9.780   1.477   2.299 -0.1310 -0.1232 -0.2037
 1407W        W 4926   0.963   1.767   0.602  0.2374 -0.0378 -0.0404
 1408W        W 4927   5.636   4.210   0.621 -0.1156 -0.0083 -0.0045
 1409W        W 4928   8.012   4.373   0.681  0.1687 -0.2194  0.1561
 1410W        W 4929   8.027   5.407   0.394  0.0661  0.0194 -0.1374
 1411W        W 4930   0.997   0.232   1.751 -0.0579  0.1441  0.0368
 1412W        W 4931   4.248   4.445   7.822 -0.1420 -0.0105 -0.5116
 1413W        W 4932   9.250   0.957   2.466 -0.0536 -0.1111 -0.1879
 1414W        W 4933   7.498   6.713  10.845  0.3644 -0.0720 -0.2416
 1415W        W 4934   3.237   9.485   0.552 -0.1575  0.1045  0.1347
 1416W        W 4935   0.211   2.442  11.121  0.2841  0.2186  0.0705
 1417W        W 4936   3.559   5.555   9.255 -0.1499 -0.2757 -0.2795
 1418W        W 4937   9.586   6.459  11.038  0.1416  0.3567  0.0068
 1419W        W 4938   3.090   4.553  11.767  0.3266  0.0953  0.4719
 1420W        W 4939   9.717   1.254   3.226  0.0848  0.3525  0.0005
 1421W        W 4940   5.618   1.050  10.831 -0.5381  0.1816  0.0237
 1422W        W 4941   5.127   1.857   1.531  0.0191 -0.0475  0.2727
 1423W        W 4942   1.160   6.468   7.868 -0.1712  0.0988 -0.4344
 1424W        W 4943   9.390   4.583   1.070 -0.0996  0.1332 -0.2629
 1425W        W 4944   9.409   5.827   9.674  0.0363  0.0692  0.1486
 1426W        W 4945   3.624   9.705   0.950  0.3001 -0.0253  0.0366
 1427W        W 4946   5.544   0.252   2.340 -0.0185 -0.0846  0.2714
 1428W        W 4947   1.215   2.386  11.021  0.1893  0.2165 -0.1107
 1429W        W 4948   2.002   6.489   0.304 -0.0148  0.0812 -0.2637
 1430W        W 4949   7.838   8.336  11.781 -0.1765  0.1743  0.0752
 1431W        W 4950   0.037   8.290  11.589 -0.2378  0.2547  0.1712
 1432W        W 4951   4.975   8.120  10.665  0.0331  0.1657  0.1676
 1433W        W 4952   2.842   7.387   0.525 -0.1017  0.0083  0.3338
 1434W        W 4953   6.805   5.614  11.664  0.0407 -0.0571 -0.1975
 1435W        W 4954   0.936   3.350   1.819  0.3870 -0.1526  0.0304
 1436W        W 4955   0.194   5.984   1.749  0.0265 -0.0159 -0.1127
 1437W        W 4956   1.864   0.129   3.137 -0.0545  0.0417 -0.3968
 1438W        W 4957   9.368   2.600   3.970 -0.0752 -0.1997 -0.1306
 1439W        W 4958   4.593   1.044   3.173 -0.0426 -0.4821  0.0694
 1440W        W 4959   9.642   1.529  11.688  0.2124  0.0107 -0.4767
 1441W        W 4960   7.371   1.430   8.012 -0.2052 -0.3039  0.2801
 1442W        W 4961   8.386   0.725  11.847 -0.1612  0.2277  0.3759
 1443W        W 4962   0.379   4.122  10.802  0.1341 -0.7095  0.1683
 1444W        W 4963   4.800   7.431   0.334 -0.0030  0.2025  0.0625
 1445W        W 4964   2.446   6.945  10.805 -0.3477 -0.0877  0.0440
 1446W        W 4965   4.334   6.863  12.001  0.1325 -0.0195 -0.0870
 1447W        W 4966   0.545   0.916   2.014  0.0453  0.0817 -0.1139
 1448W        W 4967   2.077   0.839   3.157  0.2510  0.4345  0.2146
 1449W        W 4968   9.103   6.238   9.229  0.0610 -0.3600  0.1768
 1450W        W 4969   2.806   9.506   3.756 -0.0421  0.2468  0.2119
 1451W        W 4970   0.607   1.429   0.783 -0.0262 -0.2651  0.2450
 1452W        W 4971   6.605   8.420  10.988  0.1465 -0.1909 -0.2112
 1453W        W 4972   9.875   0.145   2.215 -0.1236 -0.0109  0.0973
 1454W        W 4973   7.076   2.226  10.490  0.6541  0.1302  0.0878
 1455W        W 4974   6.584   2.527   8.408 -0.0896 -0.3566  0.0065
 1456W        W 4975   5.344   6.553   1.035  0.1070  0.2630  0.2062
 1457W        W 4976   0.474   7.060   8.138  0.0155 -0.0623  0.1529
 1458W        W 4977   0.296   1.788   3.858 -0.0032  0.1928  0.1032
 1459W        W 4978   8.779   7.526   0.902 -0.0530  0.0639 -0.1794
 1460W        W 4979   0.076   6.560   9.357 -0.1567  0.1860  0.0570
 1461W        W 4980   5.805   3.583   8.136 -0.0252  0.3685  0.2027
 1462W        W 4981   6.192   6.196  10.742 -0.0895 -0.0011  0.0041
 1463W        W 4982   7.094   1.764  10.303  0.0100  0.0281  0.4306
 1464W        W 4983   7.368   1.276   8.594  0.0112 -0.4870 -0.2048
 1465W        W 4984   0.804   9.018   0.296  0.0413 -0.0121 -0.0643
 1466W        W 4985   2.543   9.088   9.114  0.1133 -0.2445 -0.2239
 1467W        W 4986   4.806   5.731   1.964 -0.1073 -0.0528  0.1145
 1468W        W 4987   1.492   6.552   3.718 -0.1201  0.0975 -0.2667
 1469W        W 4988   7.874   6.109   8.596  0.1855 -0.1316  0.0541
 1470W        W 4989   6.786   7.499   3.185 -0.1527 -0.2180  0.2787
 1471W        W 4990   5.550   1.063  11.726  0.0288 -0.2029 -0.1028
 1472W        W 4991   1.213   9.570   1.630 -0.1151 -0.0611  0.0066
 1473W        W 4992   3.185   1.672   3.983 -0.0867  0.1572 -0.2245
 1474W        W 4993   9.535   0.215   8.200  0.1014  0.0079  0.0305
 1475W        W 4994   6.197   1.633   3.178  0.3019 -0.1348  0.1893
 1476W        W 4995   0.657   6.488   8.613 -0.2646 -0.0922  0.1301
 1477W        W 4996   2.596   1.566  10.000 -0.1658  0.1550  0.0765
 1478W        W 4997   6.165   4.084   3.657 -0.1578 -0.0378  0.0650
 1479W        W 4998   5.105   9.773  10.138 -0.0705  0.2324  0.1163
 1480W        W 4999   1.033   2.389   2.811 -0.0310  0.2144  0.2106
 1481W        W 5000   8.224   6.108   9.804  0.0815 -0.0628  0.0896
 1482W        W 5001   7.855   5.311   7.971  0.0791 -0.1182  0.2220
 1483W        W 5002   8.360   3.494   0.254 -0.2043  0.0727 -0.2630
 1484W        W 5003   5.071   1.973   3.774  0.0180  0.0474 -0.3252
 1485W        W 5004   9.867   9.656   0.773 -0.1988 -0.3590 -0.2032
 1486W        W 5005   5.875   9.101   3.293 -0.0743 -0.3196  0.0997
 1487W        W 5006   4.053   8.711  11.677  0.1554 -0.1527  0.0980
 1488W        W 5007   7.631   4.259  11.643 -0.1419  0.1127 -0.3140
 1489W        W 5008   4.227   3.494   9.129 -0.0824  0.1981 -0.0355
 1490W        W 5009   2.244   1.747  11.437  0.1917 -0.0483  0.2182
 1491W        W 5010   7.382   6.256   9.418  0.3846  0.1029  0.1493
 1492W        W 5011   6.111   6.022   0.148  0.1292  0.0812  0.4159
 1493W        W 5012   9.080   2.917   9.733 -0.3086  0.1022 -0.2125
 1494W        W 5013   6.485   5.441   8.190 -0.1915 -0.1066 -0.2593
 1495W        W 5014   2.595   4.131  10.645 -0.1137 -0.4206  0.1316
 1496W        W 5015   3.498   9.368   8.173 -0.3273  0.1585  0.1781
 1497W        W 5016   1.255   4.063  11.711  0.0880 -0.0967 -0.4787
 1498W        W 5017   7.187   1.695   8.436 -0.0052 -0.0853  0.1223
 1499W        W 5018   4.437   1.410  11.580 -0.1680  0.1650  0.2001
 1500W        W 5019   5.352   6.124  11.758 -0.1662 -0.0304 -0.3557
 1501W        W 5020   4.183   2.407   1.608 -0.1968  0.3765 -0.1599
 1502W        W 5021   2.506   6.127   1.454 -0.0106  0.4628 -0.1943
 1503W        W 5022   5.748   5.329   8.954 -0.0388  0.2887  0.3196
 1504W        W 5023   7.862   9.841   9.061 -0.0542 -0.0225  0.1171
 1505W        W 5024   2.462   2.366   0.857  0.0247 -0.1765  0.0758
 1506W        W 5025   1.086   7.642   0.912  0.1127 -0.0115  0.0710
 1507W        W 5026   5.105   6.495   0.615 -0.2369  0.1124  0.0169
 1508W        W 5027   7.248   4.964   7.424 -0.2169 -0.0261  0.1230
 1509W        W 5028   2.837   1.524   1.139 -0.2029  0.2376 -0.0257
 1510W        W 5029   9.906   6.317  11.439  0.0173  0.0058  0.1764
 1511W        W 5030   9.889   6.980   0.973 -0.2661  0.1783 -0.0527
 1512W        W 5031   1.977   6.199   1.652 -0.1126 -0.1562  0.0987
 1513W        W 5032   6.724   0.238   0.231  0.1406 -0.1972  0.1632
 1514W        W 5033   4.356   8.559   8.781 -0.0775 -0.2396  0.3003
 1515W        W 5034   6.883   3.254  10.248 -0.0728 -0.2298  0.2370
 1516W        W 5035   9.740   7.703   0.083 -0.0923  0.0250 -0.2711
 1517W        W 5036   6.012   4.919  11.105  0.1644  0.0371 -0.0391
 1518W        W 5037   1.687   9.036   0.847  0.1889  0.0189 -0.0251
 1519W        W 5038   1.926   2.722   1.301 -0.2596 -0.0444 -0.2107
 1520W        W 5039   5.313   1.794  10.658 -0.2363  0.1664  0.1200
 1521W        W 5040   7.788   1.772   0.572 -0.1036 -0.1850 -0.0220
 1522W        W 5041   0.352   0.192   0.943  0.3950 -0.2121 -0.0468
 1523W        W 5042   2.367   5.312  10.938  0.2454 -0.1668  0.1234
 1524W        W 5043   9.846   8.949   3.108  0.3507 -0.0818 -0.2378
 1525W        W 5044   6.705   3.824   8.306  0.0293 -0.3164 -0.0394
 1526W        W 5045   7.209   5.428  10.975 -0.1414 -0.0260 -0.1266
 1527W        W 5046   6.704   4.500   2.132  0.0427 -0.0657  0.4460
 1528W        W 5047   2.960   0.649   8.913 -0.0910  0.0464 -0.1691
 1529W        W 5048   8.150   9.616   1.554  0.1536 -0.2548 -0.1003
 1530W        W 5049   0.698   5.511   3.501 -0.0643  0.2607 -0.0957
 1531W        W 5050   1.301   7.668   9.589  0.1520 -0.0767 -0.1175
 1532W        W 5051   1.859   4.531   2.730 -0.1719 -0.1987 -0.0981
 1533W        W 5052   5.224   8.097   3.415  0.0234 -0.2292  0.1484
 1534W        W 5053   9.478   9.626  10.918  0.2866 -0.0237  0.2130
 1535W        W 5054   6.892   2.096  11.062 -0.0611  0.0930  0.3325
 1536W        W 5055   2.784   0.709   1.781  0.2132  0.1119 -0.1459
 1537W        W 5056   1.946   0.374   9.200 -0.0209  0.2031  0.2325
 1538W        W 5057   6.376   6.675  10.829  0.0458 -0.1249  0.0509
 1539W        W 5058   0.127   8.998  10.328 -0.1188 -0.1150 -0.1609
 1540W        W 5059   6.332   6.085  11.299  0.1413  0.0174 -0.1819
 1541W        W 5060   7.460   8.755   1.722  0.1211 -0.0335 -0.0905
 1542W        W 5061   0.510   9.578  10.817 -0.3371 -0.2253  0.1702
 1543W        W 5062   7.865   3.980   8.934 -0.0405 -0.1319  0.0036
 1544W        W 5063   3.295   6.319   9.443 -0.0214 -0.3287  0.1975
 1545W        W 5064   9.560   4.132   2.972 -0.0909  0.0483 -0.0216
 1546W        W 5065   8.014   2.966  11.190 -0.1443 -0.3177 -0.1997
 1547W        W 5066   6.592   1.928  10.117  0.2916  0.1496  0.1954
 1548W        W 5067   3.735   6.539   2.355 -0.4700  0.0741 -0.0596
 1549W        W 5068   2.523   2.064   3.246 -0.2412  0.0979 -0.0256
 1550W        W 5069   7.957   2.174   2.914  0.0901  0.1518  0.0669
 1551W        W 5070   8.224   8.820   7.483 -0.1624 -0.0496  0.2364
 1552W        W 5071   3.797   8.550   9.120 -0.0683 -0.2342 -0.0323
 1553W        W 5072   0.632   7.785   0.108  0.1630  0.0819  0.0221
 1554W        W 5073   6.490   0.421  11.499  0.1217  0.2916 -0.1086
 1555W        W 5074   5.290   2.579  11.860 -0.2013 -0.5194  0.3455
 1556W        W 5075   7.293   3.278   0.614 -0.0063  0.1500 -0.0891
 1557W        W 5076   3.874   5.071  10.192  0.2410 -0.0217  0.0525
 1558W        W 5077   4.460   6.767   9.195  0.0139 -0.2084  0.4153
 1559W        W 5078   8.073   1.338   2.383 -0.1276 -0.0221 -0.1332
 1560W        W 5079   9.594   7.244   1.329  0.1571  0.3037 -0.1949
 1561W        W 5080   3.294   5.513  11.636  0.0724 -0.0416 -0.1705
 1562W        W 5081   8.245   7.921   9.975  0.1735 -0.1819  0.1296
 1563W        W 5082   9.062   8.669   0.591 -0.0367  0.0976 -0.1331
 1564W        W 5083   6.587   2.541  11.238  0.0446 -0.1706 -0.2539
 1565W        W 5084   4.329   5.842   1.940 -0.1441 -0.1936  0.0252
 1566W        W 5085   6.042   4.643   8.269  0.0364  0.2546 -0.3521
 1567W        W 5086   7.327   3.702   9.513 -0.2297  0.1312 -0.2582
 1568W        W 5087   9.364   3.638   2.580  0.1054 -0.4617  0.1459
 1569W        W 5088   8.872   2.047   1.375  0.0145 -0.0055  0.0717
 1570W        W 5089   6.003   7.939   0.186 -0.0505  0.0958 -0.1533
 1571W        W 5090   5.290   5.763   9.720 -0.3379 -0.1968  0.0968
 1572W        W 5091   9.779   7.375   2.463  0.0258 -0.0415 -0.2638
 1573W        W 5092   6.768   8.303   7.925 -0.2056  0.1767 -0.1833
 1574W        W 5093   7.596   0.055   0.682 -0.0438  0.0200 -0.1798
 1575W        W 5094   5.949   0.865   9.547  0.3187 -0.1906 -0.1454
 1576W        W 5095   5.133   3.847   1.192 -0.1800  0.2926 -0.4832
 1577W        W 5096   6.925   6.033   9.353  0.0555  0.1873  0.0009
 1578W        W 5097   7.107   9.777  10.361  0.2522 -0.0220 -0.1671
 1579W        W 5098   4.522   0.468   3.107 -0.0440 -0.0895  0.1686
 1580W        W 5099   7.746   2.096   9.644 -0.0100 -0.1611 -0.1909
 1581W        W 5100   7.700   2.818   8.017  0.0081 -0.3765 -0.0228
 1582W        W 5101   7.754   8.271   3.521 -0.0282  0.0534 -0.0437
 1583W        W 5102   9.576   1.500   0.521  0.2122  0.1371  0.3749
 1584W        W 5103   9.794   8.674   8.130 -0.5625  0.1119  0.1340
 1585W        W 5104   8.323   8.310   1.687  0.1965 -0.1991  0.2158
 1586W        W 5105   9.236   6.293   1.332  0.0613  0.4380 -0.2705
 1587W        W 5106   6.696   2.447  10.702  0.3934 -0.1933 -0.2207
 1588W        W 5107   4.136   1.600   8.658  0.1324  0.0366 -0.2734
 1589W        W 5108   0.575   1.063   8.685  0.1680 -0.0344 -0.0770
 1590W        W 5109   0.384   3.187   3.818  0.1809 -0.3575  0.0346
 1591W        W 5110   7.766   0.416   8.767 -0.0874  0.3046  0.2590
 1592W        W 5111   5.552   3.878   0.210 -0.0640 -0.0729  0.0323
 1593W        W 5112   7.512   7.347   7.644 -0.1648 -0.2489  0.1854
 1594W        W 5113   9.691   4.032  11.959  0.0369 -0.3872  0.2044
 1595W        W 5114   4.257   9.908   2.880 -0.0582 -0.1084 -0.0455
 1596W        W 5115   3.287   8.750   7.506  0.2667  0.1128  0.1558
 1597W        W 5116   3.824   1.923   8.302  0.1132  0.1016  0.2052
 1598W        W 5117   9.830   4.706   4.196  0.0384  0.0462 -0.0025
 1599W        W 5118   8.378   1.915  10.683 -0.1868 -0.0631  0.0250
 1600W        W 5119   1.696   3.153   1.353  0.0038 -0.0685 -0.3272
 1601W        W 5120   3.518   9.235   7.452  0.1588 -0.0044 -0.0952
 1602W        W 5121   1.286   1.940   3.628  0.1141  0.1984  0.0701
 1603W        W 5122   1.705   3.558   4.406 -0.0259 -0.1363  0.2669
 1604W        W 5123   5.295   1.638   8.837 -0.1995  0.0687 -0.0770
 1605W        W 5124   3.818   1.135  10.446  0.0383 -0.1135 -0.0626
 1606W        W 5125   7.601   1.431   4.017 -0.1378  0.3974 -0.1206
 1607W        W 5126   4.394   5.136  11.264 -0.1681  0.0604  0.2276
 1608W        W 5127   7.632   8.994   8.969  0.2297 -0.3412  0.0764
 1609W        W 5128   0.583   1.092   1.214 -0.0418 -0.0238 -0.1586
 1610W        W 5129   8.800   0.488   1.615  0.0101 -0.1978  0.0133
 1611W        W 5130   5.672   8.106   8.597  0.0096 -0.1766  0.1138
 1612W        W 5131   9.664   0.356   1.801 -0.3136  0.0086 -0.3380
 1613W        W 5132   8.244   9.100   3.796  0.1306 -0.3417  0.0073
 1614W        W 5133   0.712   7.302   0.188  0.2061 -0.1091 -0.1174
 1615W        W 5134   2.058   5.134   9.651 -0.0066  0.2122 -0.2327
 1616W        W 5135   9.608   4.530  11.964 -0.1895  0.2943 -0.1055
 1617W        W 5136   0.572   5.076   0.226 -0.1312 -0.0184  0.2103
 1618W        W 5137   3.674   9.136   9.841 -0.2913 -0.1285 -0.2847
 1619W        W 5138   9.158   6.482  10.061  0.1435 -0.1472  0.1035
 1620W        W 5139   1.866   4.078  10.131 -0.0854  0.1155  0.3107
 1621W        W 5140   0.974   9.221   4.077 -0.2352 -0.4327 -0.3987
 1622W        W 5141   7.716   8.702  10.830  0.1251 -0.1747  0.0292
 1623W        W 5142   8.217   7.481  10.208 -0.1137 -0.2025 -0.2480
 1624W        W 5143   7.356   6.046   1.408  0.0068 -0.0663 -0.1183
 1625W        W 5144   0.708   6.636  11.857  0.2929  0.1919  0.3368
 1626W        W 5145   3.305   8.658  11.390  0.0829  0.0702  0.3382
 1627W        W 5146   0.620   5.991  10.153 -0.1215  0.1881  0.1392
 1628W        W 5147   3.505   2.068  11.330  0.0186  0.1779 -0.3537
 1629W        W 5148   3.728   1.035   1.112 -0.1564 -0.0285 -0.3980
 1630W        W 5149   6.546   3.165  10.779 -0.0613  0.0189 -0.1057
 1631W        W 5150   4.744   3.202  11.717  0.2590  0.0122  0.2799
 1632W        W 5151   0.616   4.531   9.622 -0.0933 -0.1833 -0.0093
 1633W        W 5152   2.765   2.940   2.623 -0.0321 -0.3211 -0.2892
 1634W        W 5153   6.436   9.802  11.981 -0.0787  0.0439 -0.0885
 1635W        W 5154   5.941   6.929   8.051 -0.0299  0.0413 -0.0643
 1636W        W 5155   3.065   8.453   8.498 -0.2721 -0.0775 -0.0026
 1637W        W 5156   7.200   3.938   7.396 -0.1123  0.0480  0.1218
 1638W        W 5157   2.658   6.519  11.818  0.0750 -0.3464 -0.2841
 1639W        W 5158   5.616   1.326   9.623  0.1892  0.0484  0.0554
 1640W        W 5159   6.899   7.447  11.288  0.1492 -0.1243  0.2158
 1641W        W 5160   4.067   2.520   0.637 -0.1542 -0.4471 -0.2830
 1642W        W 5161   9.698   0.621   2.645  0.2034 -0.1112  0.0700
 1643W        W 5162   5.034   4.661   8.382  0.6502 -0.0881 -0.1043
 1644W        W 5163   8.651   8.954   9.091 -0.1201 -0.0257 -0.0678
 1645W        W 5164   4.454   6.105  10.136 -0.0073 -0.0189  0.0756
 1646W        W 5165   3.654   7.923   2.623 -0.1875  0.1408 -0.0292
 1647W        W 5166   7.495   4.151   0.487 -0.0374  0.0223 -0.1255
 1648W        W 5167   9.673   8.766   9.422 -0.1594  0.0829  0.0114
 1649W        W 5168   5.349   5.663  10.836 -0.0137 -0.0611 -0.2299
 1650W        W 5169   4.262   1.979  10.815  0.1420  0.2727 -0.0802
 1651W        W 5170   5.607   2.686  10.407  0.0774 -0.0626 -0.1933
 1652W        W 5171   7.098   4.256   8.281  0.0854  0.2162 -0.1625
 1653W        W 5172   6.679   2.369   0.900  0.1644 -0.0835  0.3161
 1654W        W 5173   2.646   0.561   2.304 -0.0483 -0.0679 -0.1966
 1655W        W 5174   1.874   1.167   1.388 -0.2714  0.0895  0.5281
 1656W        W 5175   4.434   6.385   8.023 -0.0258  0.0415  0.0335
 1657W        W 5176   9.005   2.291   0.888  0.0070  0.2131  0.0954
 1658W        W 5177   6.338   7.209   7.975 -0.2405 -0.0207 -0.0540
 1659W        W 5178   8.002   1.725   8.897 -0.0250  0.2586 -0.3195
 1660W        W 5179   9.593   5.910   1.179 -0.3361 -0.2010  0.0057
 1661W        W 5180   1.196   5.217  10.770  0.1309 -0.1413 -0.0926
 1662W        W 5181   4.094   1.466   3.147 -0.1424 -0.1539  0.1042
 1663W        W 5182   1.575   3.470   3.017  0.1281 -0.0696  0.0149
 1664W        W 5183   9.772   4.892   3.390 -0.0028 -0.0378  0.0928
 1665W        W 5184   3.729   3.170  10.315  0.2426  0.0193 -0.2592
 1666W        W 5185   2.847   1.626   3.182  0.0962  0.1166  0.3189
 1667W        W 5186   9.508   3.533   3.639  0.1226  0.2328  0.0221
 1668W        W 5187   5.466   4.530  11.648 -0.1251 -0.2396  0.0234
 1669W        W 5188   3.848   9.738  11.871 -0.1076 -0.2275  0.1207
 1670W        W 5189   6.078   3.326   9.420 -0.0664 -0.0011  0.1260
 1671W        W 5190   0.487   6.171   0.694 -0.0771 -0.1201 -0.2307
 1672W        W 5191   4.065   2.171   0.213 -0.3887  0.2615 -0.0302
 1673W        W 5192   1.613   9.519  11.916 -0.1316  0.1996  0.2422
 1674W        W 5193   5.446   3.616   2.824  0.4231 -0.0477  0.0645
 1675W        W 5194   5.631   4.038   2.957  0.2466  0.0078  0.0860
 1676W        W 5195   0.353   9.178   0.596 -0.3466 -0.0094  0.2172
 1677W        W 5196   1.501   9.208  11.505  0.2352 -0.1223 -0.3136
 1678W        W 5197   5.145   0.645   8.520  0.2282 -0.0452 -0.0908
 1679W        W 5198   1.470   8.432   1.935 -0.0687 -0.2886  0.4718
 1680W        W 5199   7.466   0.219   1.890 -0.4923 -0.0802 -0.0064
 1681W        W 5200   7.557   5.952   1.847 -0.3445  0.1385 -0.2473
 1682W        W 5201   2.749   3.939   2.579  0.2899 -0.0973 -0.2337
 1683W        W 5202   4.671   0.083  11.194 -0.0537 -0.4035 -0.0237
 1684W        W 5203   8.775   3.748   3.199  0.2629 -0.1733  0.2382
 1685W        W 5204   1.463   5.053   0.433 -0.1792 -0.2457  0.3063
 1686W        W 5205   2.040   9.000  11.382  0.0256 -0.0333 -0.0987
 1687W        W 5206   9.366   8.379   0.931 -0.1207 -0.2837 -0.0112
 1688W        W 5207   0.743   8.057   8.886  0.0832 -0.0534  0.3668
 1689W        W 5208   0.634   8.585   3.524 -0.1172  0.0776 -0.0009
 1690W        W 5209   9.066   4.891   9.962  0.4097  0.3460 -0.2219
 1691W        W 5210   4.725   3.321   1.663 -0.1023 -0.1854 -0.1207
 1692W        W 5211   9.843   2.747   0.559  0.1697 -0.0851  0.0347
 1693W        W 5212   2.537   0.810   3.436  0.1228 -0.2081 -0.0987
 1694W        W 5213   2.736   0.620   9.845  0.1188  0.0101 -0.1932
 1695W        W 5214   8.892   5.673  11.994 -0.2047  0.5049 -0.0440
 1696W        W 5215   9.788   0.792   8.369 -0.3034 -0.1522 -0.2091
 1697W        W 5216   6.904   5.164   0.831  0.2121 -0.2636 -0.1507
 1698W        W 5217   4.080   3.970  10.645 -0.1262  0.2361  0.0241
 1699W        W 5218   5.558   6.736  11.642  0.0368  0.1369  0.1437
 1700W        W 5219   8.388   8.069   2.578 -0.0382 -0.1826 -0.2769
 1701W        W 5220   9.861   5.799   0.232  0.1665  0.0500  0.1234
 1702W        W 5221   9.329   7.426  10.896 -0.0758  0.1244  0.0251
 1703W        W 5222   0.022   9.449   9.865 -0.0050  0.1938  0.3490
 1704W        W 5223   2.232   0.741  10.706  0.1893  0.2652  0.1514
 1705W        W 5224   1.560   9.863   0.878 -0.0163  0.0394 -0.0529
 1706W        W 5225   4.742   3.153  11.210 -0.0556  0.0696 -0.2532
 1707W        W 5226   5.045   8.741   9.578 -0.0675 -0.0855  0.0017
 1708W        W 5227   6.282   7.021  11.209 -0.0020 -0.1573 -0.1636
 1709W        W 5228   3.243   5.549   7.731 -0.0974 -0.0099 -0.0216
 1710W        W 5229   2.364   9.724   1.410 -0.2344 -0.1392 -0.5424
 1711W        W 5230   2.515   6.556   8.234 -0.0158 -0.0346 -0.0236
 1712W        W 5231   5.088   9.787   1.403 -0.1444 -0.1294  0.2103
 1713W        W 5232   5.921   3.783   7.700 -0.4245 -0.0296  0.0993
 1714W        W 5233   6.582   0.975   9.614  0.0026 -0.3381 -0.1065
 1715W        W 5234   5.233   9.454   1.020  0.2658  0.0020 -0.1346
 1716W        W 5235   1.593   8.457   2.655  0.1345 -0.3326 -0.1943
 1717W        W 5236   5.928   9.192   0.648  0.3189 -0.3687 -0.0582
 1718W        W 5237   5.094   6.521  11.702 -0.0199  0.0545 -0.0848
 1719W        W 5238   7.731   1.099   3.487 -0.1339  0.1723 -0.0785
 1720W        W 5239   5.488   6.138  10.834  0.2068 -0.0494 -0.1945
 1721W        W 5240   4.804   6.151   8.403 -0.0609  0.1306 -0.1440
 1722W        W 5241   4.823   0.151   9.861 -0.1898 -0.0982 -0.2941
 1723W        W 5242   0.082   3.235   1.865  0.1144 -0.1501  0.0495
 1724W        W 5243   9.566   3.357   8.011 -0.1859 -0.2729  0.0776
 1725W        W 5244   2.047   3.629  11.041 -0.3051 -0.0779  0.1542
 1726W        W 5245   6.168   4.196   0.757 -0.2216 -0.0147  0.1057
 1727W        W 5246   3.431   9.621   2.890 -0.1249 -0.3307 -0.0110
 1728W        W 5247   3.952   5.005  10.849 -0.4761 -0.3689 -0.1317
 1729W        W 5248   0.205   0.430   9.738  0.3830 -0.3572 -0.0311
 1730W        W 5249   6.463   1.330  11.272  0.1252 -0.1588 -0.0190
 1731W        W 5250   5.218   0.331  10.231 -0.0680  0.1658 -0.0171
 1732W        W 5251   1.417   1.262   1.164 -0.0727 -0.1652  0.0559
 1733W        W 5252   6.790   1.051   0.384  0.2280  0.3013 -0.1610
 1734W        W 5253   3.391   4.025   3.784 -0.3622  0.1325  0.3830
 1735W        W 5254   6.370   5.546  11.311 -0.0169  0.0616  0.1558
 1736W        W 5255   8.993   2.279   9.036 -0.0261 -0.2540  0.2646
 1737W        W 5256   7.574   4.348  10.168  0.2071 -0.1636 -0.0635
 1738W        W 5257   3.199   2.919   1.108 -0.1106  0.2316  0.0257
 1739W        W 5258   4.908   6.625   7.431  0.1724 -0.0925 -0.0394
 1740W        W 5259   8.561   7.503  11.103 -0.0472  0.1578 -0.1387
 1741W        W 5260   5.289   4.555   0.667  0.1349 -0.1198  0.0925
 1742W        W 5261   0.455   4.952   8.629 -0.0067  0.1318 -0.4542
 1743W        W 5262   9.462   7.652   8.582 -0.2202 -0.4556 -0.0012
 1744W        W 5263   6.466   5.664   2.872 -0.4050  0.0046  0.1962
 1745W        W 5264   7.338   2.956   2.339  0.0361 -0.2501  0.0747
 1746W        W 5265   4.700   0.708   8.223  0.0340 -0.3171  0.0526
 1747W        W 5266   4.624   3.112   2.560 -0.3013 -0.2516  0.0605
 1748W        W 5267   9.534   8.171   0.057 -0.1443  0.1217 -0.1068
 1749W        W 5268   8.750   0.595  11.525 -0.0314  0.0185 -0.0280
 1750W        W 5269   9.755   1.747   9.320  0.1560 -0.4221  0.1991
 1751W        W 5270   8.835   1.106  11.491 -0.3217 -0.4986 -0.5089
 1752W        W 5271   9.149   7.196   4.132  0.0368  0.2091 -0.1026
 1753W        W 5272   7.593   7.393   0.103  0.0307  0.4349  0.3284
 1754W        W 5273   8.897   0.891   0.961  0.0632 -0.0936  0.0425
 1755W        W 5274   1.024   4.914   9.953  0.0992 -0.1718  0.0562
 1756W        W 5275   2.305   3.631   9.894 -0.1496  0.3144 -0.1001
 1757W        W 5276   5.094   6.100  11.321  0.0327  0.0723  0.0096
 1758W        W 5277   1.521   5.571   2.360  0.3653 -0.1583  0.3546
 1759W        W 5278   5.752   7.402   1.268  0.1688  0.0698  0.0293
 1760W        W 5279   2.566   9.087   1.907 -0.0510 -0.1283 -0.3899
 1761W        W 5280   1.004   6.704   8.316  0.1251  0.0075  0.0403
 1762W        W 5281   3.186   2.606   3.896 -0.1991  0.1046 -0.0728
 1763W        W 5282   5.569   4.127   2.488 -0.0056  0.1948 -0.1381
 1764W        W 5283   0.050   7.091  10.055 -0.1440  0.4373 -0.2833
 1765W        W 5284   1.640   9.168   0.334  0.0587 -0.2326  0.0967
 1766W        W 5285   7.376   4.984   9.739 -0.1467  0.1688 -0.0813
 1767W        W 5286   2.197   8.642   0.936  0.2760  0.1704 -0.0394
 1768W        W 5287   7.261   7.067  11.175  0.0438 -0.1512  0.1891
 1769W        W 5288   1.130   8.943  11.339 -0.2667 -0.0344  0.1501
 1770W        W 5289   9.408   5.711   0.775 -0.2104  0.1642  0.0718
 1771W        W 5290   7.585   6.908   1.029  0.0207  0.0133  0.2661
 1772W        W 5291   3.726   2.718   9.470 -0.1143  0.0704  0.3808
 1773W        W 5292   4.591   4.754   2.652 -0.0547  0.1364  0.0068
 1774W        W 5293   5.136   4.736   9.380  0.2784  0.0594 -0.0521
 1775W        W 5294   2.433   6.466   2.832  0.0639  0.1541 -0.0777
 1776W        W 5295   9.806   3.645   1.051  0.0937  0.0620  0.2447
 1777W        W 5296   4.870   6.736  10.736 -0.0262  0.0795 -0.1578
 1778W        W 5297   0.743   8.932   4.488 -0.2099  0.0722  0.4770
 1779W        W 5298   7.782   9.253   1.550  0.2488  0.0385  0.2588
 1780W        W 5299   9.273   2.961   2.757 -0.2437 -0.0473  0.1316
 1781W        W 5300   6.739   2.099   9.271  0.2760 -0.1619 -0.0423
 1782W        W 5301   7.429   9.030   9.580 -0.0944 -0.0719 -0.1711
 1783W        W 5302   2.602   4.783   2.689 -0.0434  0.0315  0.2551
 1784W        W 5303   9.520   2.222  10.339  0.0338 -0.1419  0.4917
 1785W        W 5304   6.229   4.585  10.453 -0.0180 -0.0412 -0.1544
 1786W        W 5305   2.129   8.202   0.473 -0.1047  0.0187 -0.1410
 1787W        W 5306   8.352   1.953   1.429 -0.0367  0.2413  0.2059
 1788W        W 5307   6.853   1.030  10.555 -0.3993  0.1284 -0.0407
 1789W        W 5308   7.135   1.596  11.959  0.0239 -0.0155  0.0653
 1790W        W 5309   0.290   7.242   2.972 -0.1199  0.3154  0.0279
 1791W        W 5310   6.302   8.562  10.611 -0.2306 -0.1246  0.0154
 1792W        W 5311   5.000   8.752   8.073 -0.2260 -0.0268 -0.0544
 1793W        W 5312   7.218   6.099  11.346 -0.2364  0.0795  0.0571
 1794W        W 5313   0.528   2.020   8.692  0.2260  0.1288 -0.0717
 1795W        W 5314   4.872   4.004   9.727 -0.0400  0.1038  0.0432
 1796W        W 5315   4.189   8.271   9.180 -0.0662  0.1785 -0.0694
 1797W        W 5316   7.830   4.321  11.179  0.1247  0.0931  0.2216
 1798W        W 5317   9.679   9.233   2.216 -0.2687  0.0974 -0.1844
 1799W        W 5318   6.934   0.222  11.762 -0.1268  0.1394  0.5824
 1800W        W 5319   3.571   6.394  11.741 -0.2702 -0.0694 -0.0264
 1801W        W 5320   0.541   5.140   9.811  0.2641 -0.2728  0.1467
 1802W        W 5321   4.083   9.393   2.117 -0.1126 -0.0162  0.0260
 1803W        W 5322   2.572   8.013   2.597  0.1825 -0.2234  0.1481
 1804W        W 5323   2.698   7.248   2.015 -0.2405  0.0991  0.0652
 1805W        W 5324   3.567   0.685  10.724  0.1697  0.2456  0.0601
 1806W        W 5325   9.801   1.090   4.087 -0.3066  0.1262  0.0048
 1807W        W 5326   6.450   8.625  11.466  0.0207 -0.0073  0.1936
 1808W        W 5327   0.776   9.683   1.094 -0.1125 -0.0600  0.3549
 1809W        W 5328   8.420   4.325   9.098  0.1917 -0.3683 -0.0355
 1810W        W 5329   5.924   5.018   8.649  0.0026 -0.1426 -0.2462
 1811W        W 5330   9.100   0.361   7.950  0.0117  0.0393  0.1658
 1812W        W 5331   8.931   1.403   1.148 -0.1645  0.3185 -0.1735
 1813W        W 5332   4.559   4.523   3.132  0.1058 -0.1250  0.0797
 1814W        W 5333   9.434   0.870   3.026  0.3161  0.0869  0.1159
 1815W        W 5334   1.497   8.038   8.409 -0.0617 -0.3667  0.2029
 1816W        W 5335   9.602   6.680   7.400 -0.0637 -0.0337  0.0983
 1817W        W 5336   9.736   7.764   8.063  0.4919  0.0242  0.1966
 1818W        W 5337   1.932   2.682   3.031  0.3794 -0.1408 -0.0974
 1819W        W 5338   7.534   4.884   1.776 -0.2472 -0.0233 -0.1224
 1820W        W 5339   6.150   9.459   1.372  0.0064 -0.1500  0.2629
 1821W        W 5340   0.317   3.655   3.178 -0.3525  0.0357 -0.0143
 1822W        W 5341   0.854   7.974   1.773 -0.1810 -0.0160  0.0259
 1823W        W 5342   2.909   0.603   1.215 -0.0530 -0.0252  0.0228
 1824W        W 5343   5.836   0.382   3.087  0.3500 -0.2082 -0.3229
 1825W        W 5344   7.705   4.034   9.446 -0.2468 -0.1430 -0.3066
 1826W        W 5345   1.567   0.271   1.337  0.0024 -0.1560 -0.2039
 1827W        W 5346   6.592   3.450   8.771 -0.0375  0.0570 -0.0517
 1828W        W 5347   5.791   8.230  11.396 -0.0535  0.1729 -0.0787
 1829W        W 5348   6.359   6.514  11.949  0.0548  0.3400 -0.4626
 1830W        W 5349   4.284   2.945  11.519 -0.1294 -0.2335  0.2829
 1831W        W 5350   8.250   0.223   8.845 -0.1493 -0.1441 -0.3939
 1832W        W 5351   8.966   6.915  10.253  0.1684 -0.1853 -0.1205
 1833W        W 5352   6.568   1.784   3.594  0.0097 -0.2207  0.4172
 1834W        W 5353   6.947   7.394   7.214 -0.0350  0.0124 -0.0405
 1835W        W 5354   9.343   3.802   1.397 -0.0051 -0.0290  0.0740
 1836W        W 5355   3.190   4.412  10.550 -0.1774 -0.4674  0.4305
 1837W        W 5356   2.807   1.337   9.560  0.3018  0.0644  0.0492
 1838W        W 5357   2.172   1.760  10.914  0.0564 -0.1302  0.0260
 1839W        W 5358   7.372   2.399   1.193 -0.2398 -0.0995 -0.0087
 1840W        W 5359   7.107   9.549   7.203  0.0531 -0.1295  0.1662
 1841W        W 5360   6.420   3.463   0.326 -0.2795  0.1553 -0.2977
 1842W        W 5361   6.764   0.634   8.326 -0.3790  0.0216  0.3558
 1843W        W 5362   9.363   5.931   7.885  0.2002  0.0248 -0.2513
 1844W        W 5363   9.600   9.298   4.014 -0.1523  0.2515  0.3408
 1845W        W 5364   3.389   3.044   1.845  0.1216  0.0171  0.0366
 1846W        W 5365   1.841   9.403   8.674  0.1077  0.1334  0.1297
 1847W        W 5366   8.789   7.309   1.359  0.1019  0.1110 -0.2643
 1848W        W 5367   6.292   6.105   1.535 -0.2920  0.0353  0.0045
 1849W        W 5368   4.277   0.452   2.683 -0.2089  0.0054  0.1665
 1850W        W 5369   8.521   7.114   1.754 -0.1251 -0.3967 -0.1146
 1851W        W 5370   5.948   6.885   9.914  0.0344  0.0367  0.0558
 1852W        W 5371   1.751   3.016   2.694  0.0921 -0.0645  0.2715
 1853W        W 5372   6.242   9.112   7.515  0.2994 -0.4936 -0.5324
 1854W        W 5373   3.906   4.236   1.008 -0.0506 -0.0651  0.0226
 1855W        W 5374   6.215   5.996   8.369 -0.0863 -0.1031  0.2553
 1856W        W 5375   3.708   8.548   1.692 -0.1843  0.2087 -0.3753
 1857W        W 5376   5.540   8.535  11.003  0.3507 -0.2494 -0.1118
 1858W        W 5377   9.054   1.722   0.750 -0.0617  0.1610  0.1764
 1859W        W 5378   8.097   6.456   9.411 -0.5407 -0.0343  0.0507
 1860W        W 5379   0.406   6.356   1.950 -0.0427 -0.1817 -0.0114
 1861W        W 5380   9.720   9.477   8.524  0.1403  0.0477 -0.0337
 1862W        W 5381   5.977   3.055   1.107  0.0400  0.0293 -0.1302
 1863W        W 5382   5.640   1.681   1.503  0.0938  0.0058 -0.1882
 1864W        W 5383   0.409   5.804   0.227  0.0865  0.4463 -0.0193
 1865W        W 5384   1.402   1.143   8.242  0.0420  0.1831  0.2565
 1866W        W 5385   2.161   4.959   0.815  0.2009  0.0942  0.1132
 1867W        W 5386   0.544   4.009   2.656  0.0730  0.2650 -0.4576
 1868W        W 5387   1.704   2.160   3.711  0.2325  0.0925  0.4957
 1869W        W 5388   2.664   1.058   2.304  0.0050 -0.1618  0.3513
 1870W        W 5389   8.107   1.606  11.969  0.1882 -0.0748 -0.2922
 1871W        W 5390   1.912   2.620   8.728  0.2802  0.0444 -0.0149
 1872W        W 5391   7.093   4.115  10.138 -0.1924  0.0156 -0.1303
 1873W        W 5392   9.477   9.672   1.535  0.2397 -0.2122 -0.0140
 1874W        W 5393   1.484   6.950  11.039 -0.0926 -0.0765 -0.1766
 1875W        W 5394   2.695   5.850   2.042  0.0385 -0.1520 -0.2649
 1876W        W 5395   1.730   3.152   9.332 -0.1739 -0.3284  0.0610
 1877W        W 5396   1.657   1.834  10.002 -0.1208  0.0551  0.0779
 1878W        W 5397   1.104   5.896   0.272  0.1208 -0.1682  0.1364
 1879W        W 5398   9.848   6.060  11.060  0.0832  0.0099  0.0902
 1880W        W 5399   5.073   8.986  11.277  0.1007  0.0724  0.0424
 1881W        W 5400   7.579   2.893   0.501 -0.1139 -0.3106  0.2296
 1882W        W 5401   4.561   5.631  10.449  0.1977 -0.1045 -0.3805
 1883W        W 5402   4.396   2.216   2.118 -0.3214  0.2537 -0.1494
 1884W        W 5403   8.799   1.025  11.994  0.0228  0.0166  0.3078
 1885W        W 5404   9.463   1.290   1.916  0.0707 -0.1447 -0.0258
 1886W        W 5405   8.686   3.530  11.832  0.1396  0.0576 -0.1864
 1887W        W 5406   7.443   3.527   1.922 -0.0631 -0.1312 -0.2809
 1888W        W 5407   1.357   1.808   9.017  0.1368  0.4263  0.3381
 1889W        W 5408   9.034   1.678   3.703  0.0168 -0.3018  0.1657
 1890W        W 5409   6.714   9.422   8.538  0.1779  0.0190  0.1358
 1891W        W 5410   5.877   0.031   0.788 -0.1686  0.2370 -0.0378
 1892W        W 5411   2.841   2.823  10.200 -0.0297  0.3043 -0.0736
 1893W        W 5412   3.233   1.556  12.009 -0.0050  0.0738 -0.2870
 1894W        W 5413   4.314   0.914   0.759 -0.1008  0.1714 -0.0261
 1895W        W 5414   3.060   1.835   2.774 -0.0886  0.1292 -0.1278
 1896W        W 5415   1.060   2.938   1.315 -0.2194  0.1432  0.4382
 1897W        W 5416   4.920   9.056   1.735 -0.2824 -0.0161  0.0595
 1898W        W 5417   9.270   2.701   2.278  0.0256  0.2653  0.0348
 1899W        W 5418   2.153   5.673   0.028  0.0790  0.0525  0.0670
 1900W        W 5419   1.323   5.407  12.002 -0.0678  0.0388  0.0172
 1901W        W 5420   1.814   1.728   9.520  0.3424 -0.0247  0.0182
 1902W        W 5421   5.699   5.801   0.982 -0.2058  0.3834  0.2980
 1903W        W 5422   0.741   5.999   8.817  0.0731  0.0273 -0.3737
 1904W        W 5423   8.354   6.580   1.083  0.3812 -0.5336  0.0313
 1905W        W 5424   4.616   4.381   8.261  0.2517  0.1852  0.1495
 1906W        W 5425   1.450   7.116   9.571 -0.1439  0.1830  0.3818
 1907W        W 5426   5.016   2.720   3.788 -0.1839 -0.0962  0.1575
 1908W        W 5427   6.192   1.961   7.650 -0.0943 -0.2809  0.1341
 1909W        W 5428   6.505   4.406   9.107 -0.0065  0.1532 -0.3551
 1910W        W 5429   6.520   7.964   0.142  0.0709 -0.0147  0.2012
 1911W        W 5430   6.391   4.250  10.011  0.0429  0.3286 -0.1235
 1912W        W 5431   0.670   9.033   2.385 -0.1977 -0.0471 -0.3752
 1913W        W 5432   9.339   7.536  11.724 -0.1697 -0.1464  0.3183
 1914W        W 5433   5.001   5.986   2.400  0.0309  0.1169  0.0128
 1915W        W 5434   4.762   6.523   0.186 -0.0925  0.0645  0.0124
 1916W        W 5435   5.840   9.628  11.379 -0.2226  0.3647  0.3329
 1917W        W 5436   2.257   7.465  11.656 -0.1604  0.3302 -0.1447
 1918W        W 5437   9.294   8.772   9.801 -0.3358  0.1557  0.3026
 1919W        W 5438   0.221   0.017  10.537 -0.2530  0.0723 -0.0150
 1920W        W 5439   8.659   5.923   0.851 -0.1189  0.0232  0.1159
 1921W        W 5440   5.617   3.391   2.432  0.1268  0.2136  0.1932
 1922W        W 5441   4.608   6.788   8.249 -0.0282  0.0130  0.0303
 1923W        W 5442   0.436   8.601  11.660  0.0062  0.1250 -0.1852
 1924W        W 5443   2.946   5.213   1.383 -0.1498  0.0243  0.0021
 1925W        W 5444   4.400   8.110   2.126  0.0875 -0.2697 -0.2001
 1926W        W 5445   4.114   1.932   3.283 -0.0470 -0.2255  0.0785
 1927W        W 5446   4.716   9.186   0.034  0.2941 -0.1981  0.0035
 1928W        W 5447   3.413   4.337   7.874  0.0663 -0.1218 -0.2954
 1929W        W 5448   4.495   3.290  10.080  0.1817  0.0052  0.2944
 1930W        W 5449   6.015   1.126   8.732  0.1651  0.0411 -0.0578
 1931W        W 5450   9.543   6.077   0.517 -0.1977  0.0665  0.2526
 1932W        W 5451   1.876   9.818   2.225  0.0709  0.1605  0.1232
 1933W        W 5452   2.673   1.669   1.632  0.0328  0.0399 -0.0702
 1934W        W 5453   6.021   4.370   2.429  0.2253  0.1300 -0.2156
 1935W        W 5454   2.873   3.829   3.049  0.1574  0.0158 -0.2062
 1936W        W 5455   1.471   8.143   1.527  0.3899 -0.1532 -0.1266
 1937W        W 5456   3.169   7.748   8.394 -0.1771 -0.0916 -0.0250
 1938W        W 5457   6.639   4.667  11.659 -0.0714 -0.2234 -0.0135
 1939W        W 5458   1.541   3.373  11.090 -0.3785  0.0083  0.0078
 1940W        W 5459   6.542   9.432  11.188 -0.1534  0.1157 -0.5465
 1941W        W 5460   5.243   1.993  11.939 -0.4497 -0.0504 -0.1065
 1942W        W 5461   3.684   5.967   1.853  0.0452 -0.2289  0.1132
 1943W        W 5462   7.372   4.090   1.433 -0.1558  0.0099 -0.0969
 1944W        W 5463   1.318   0.653  11.926  0.0779 -0.0310  0.0652
 1945W        W 5464   7.703   3.219   1.349 -0.2437  0.1008 -0.2619
 1946W        W 5465   6.717   1.862  10.657  0.0231  0.3235 -0.1572
 1947W        W 5466   2.402   0.785  11.988 -0.4189  0.1122 -0.3482
 1948W        W 5467   7.598   0.924   1.156  0.2342  0.2235  0.0386
 1949W        W 5468   6.615   5.860   0.058 -0.0204  0.0280  0.2565
 1950W        W 5469   2.899   7.942   0.078  0.1126 -0.1609 -0.0564
 1951W        W 5470   1.170   0.403   9.186 -0.3011  0.1586 -0.2198
 1952W        W 5471   2.338   9.442   3.813  0.3454  0.1826  0.0158
 1953W        W 5472   0.430   5.618  11.722 -0.2951 -0.0569 -0.1602
 1954W        W 5473   4.038   2.953   3.694 -0.0659  0.1181 -0.2626
 1955W        W 5474   8.375   3.007   0.586  0.2664 -0.3340  0.2322
 1956W        W 5475   6.232   3.610  11.623  0.1657  0.2079  0.4057
 1957W        W 5476   8.453   2.896   1.802  0.2768 -0.2882 -0.3486
 1958W        W 5477   7.814   5.978   1.220  0.1064  0.0862  0.0771
 1959W        W 5478   7.965   4.460   9.114  0.2327  0.0962  0.2038
 1960W        W 5479   4.655   7.143   2.066  0.1992  0.0521 -0.1406
 1961W        W 5480   4.820   8.375   0.727  0.3835  0.1651  0.1918
 1962W        W 5481   7.087   7.942   8.176  0.0039  0.1620 -0.0143
 1963W        W 5482   2.459   1.689   3.948 -0.2091 -0.3802  0.2071
 1964W        W 5483   3.838   7.881   7.487  0.1567  0.0740 -0.1080
 1965W        W 5484   9.396   2.979   8.356  0.0615  0.0350 -0.1705
 1966W        W 5485   2.026   0.532   2.631 -0.4499  0.1193  0.3113
 1967W        W 5486   2.506   7.018  11.709 -0.2973  0.0588  0.1665
 1968W        W 5487   1.086   3.651   9.880 -0.0633  0.0054 -0.0595
 1969W        W 5488   4.197   0.577   0.344 -0.1701 -0.2759  0.1499
 1970W        W 5489   4.322   7.696   0.644  0.1149 -0.1971 -0.1218
 1971W        W 5490   1.010   0.232   3.493 -0.0500  0.0838 -0.2130
 1972W        W 5491   8.451   2.454  10.473 -0.0120  0.1814 -0.3228
 1973W        W 5492   6.294   4.065   8.755  0.0948  0.0439  0.4145
 1974W        W 5493   1.064   2.191   6.570  0.0892 -0.1519  0.0668
 1975W        W 5494   1.658   3.277   3.503  0.0622 -0.1529 -0.0785
 1976W        W 5495   4.873   1.115   1.434  0.2592  0.1637  0.0759
 1977W        W 5496   3.210   8.530   7.931 -0.1534  0.0295 -0.0839
 1978W        W 5497   5.178   8.306   1.931 -0.0150 -0.1386  0.0928
 1979W        W 5498   8.110   6.271  11.974 -0.1167  0.1924 -0.2950
 1980W        W 5499   6.944   5.140   2.199 -0.0405  0.0562  0.2514
 1981W        W 5500   9.154   6.777   9.632  0.1187  0.0452  0.0761
 1982W        W 5501   5.661   5.885   8.854 -0.0512  0.3247  0.2922
 1983W        W 5502   1.886   6.614   8.943 -0.2406  0.1750  0.1593
 1984W        W 5503   6.431   4.790   2.373  0.0020 -0.2399 -0.1462
 1985W        W 5504   4.144   4.128   9.367  0.1891 -0.0714  0.0719
 1986W        W 5505   7.753   4.792   7.205  0.0825 -0.2002 -0.1531
 1987W        W 5506   5.638   0.495  11.912 -0.2515 -0.4827  0.1683
 1988W        W 5507   9.112   3.183   9.329  0.0376  0.0663 -0.1983
 1989W        W 5508   3.129   4.491   9.874 -0.1322 -0.0401  0.1379
 1990W        W 5509   2.602   3.422   4.051 -0.0223  0.1446 -0.0793
 1991W        W 5510   9.518   0.425  11.673  0.2242  0.2287  0.1516
 1992W        W 5511   1.630   3.084   4.477 -0.0916 -0.1434  0.3106
 1993W        W 5512   9.803   8.260  10.691 -0.0496 -0.0615 -0.4221
 1994W        W 5513   7.362   9.784   3.117 -0.2320  0.1541  0.0312
 1995W        W 5514   0.975   3.565   9.433  0.1534 -0.1844 -0.1190
 1996W        W 5515   9.038   1.347  10.498  0.3840 -0.3631 -0.0265
 1997W        W 5516   8.983   4.010   2.792 -0.0387 -0.2158 -0.0065
 1998W        W 5517   7.736   6.206   9.067 -0.0400 -0.1583 -0.0936
 1999W        W 5518   0.783   6.208  11.238 -0.3397 -0.0646  0.0011
 2000W        W 5519   1.491   0.377  10.217  0.0601 -0.2104  0.0793
 2001W        W 5520   7.260   0.674   1.928 -0.0977 -0.0064 -0.0704
 2002W        W 5521   1.545   5.136   1.902  0.0062 -0.1803  0.1086
 2003W        W 5522   4.217   2.710   8.118  0.0704  0.0097 -0.0054
 2004W        W 5523   7.185   8.739  10.895 -0.2687 -0.3032 -0.1331
 2005W        W 5524   1.986   3.177   3.087  0.0829 -0.0415 -0.1428
 2006W        W 5525   3.648   8.396  11.599  0.1411 -0.2374  0.0991
 2007W        W 5526   0.556   0.565   7.835  0.1645  0.0174  0.3656
 2008W        W 5527   5.663   5.371   9.749 -0.1574 -0.0464 -0.0627
 2009W        W 5528   5.232   1.846  11.371 -0.2059 -0.1572 -0.0176
 2010W        W 5529   0.021   9.761   8.909  0.0888 -0.0576 -0.0097
 2011W        W 5530   2.591   8.827   8.218 -0.0480  0.1308 -0.0187
 2012W        W 5531   6.992   0.068   8.599 -0.1382  0.3173 -0.0099
 2013W        W 5532   8.910   3.693   9.394 -0.1851  0.3667  0.0022
 2014W        W 5533   8.167   0.169   1.135 -0.0141 -0.2753 -0.0587
 2015W        W 5534   7.693   4.308   2.303 -0.2938 -0.1815  0.0829
 2016W        W 5535   7.874   7.824   0.049 -0.1596  0.2277  0.3162
 2017W        W 5536   0.068   0.514   1.388 -0.1259  0.2891 -0.0414
 2018W        W 5537   0.969   7.738   8.066  0.3395  0.2885 -0.3485
 2019W        W 5538   2.424   4.529   0.778 -0.2238  0.0073 -0.2305
 2020W        W 5539   8.996   6.601  11.508  0.1152  0.0434 -0.2141
 2021W        W 5540   4.226   8.068   7.840  0.1945  0.3231  0.3634
 2022W        W 5541   1.807   6.374   2.161  0.0698 -0.0913 -0.2671
 2023W        W 5542   4.002   1.584   9.564  0.0182 -0.0246  0.1499
 2024W        W 5543   4.954   2.748  10.971  0.1818 -0.0550 -0.0361
 2025W        W 5544   3.361   5.644   2.685  0.3000  0.1218 -0.3154
 2026W        W 5545   9.054   7.137  11.803 -0.0306  0.0268  0.2623
 2027W        W 5546   8.303   3.338   1.518 -0.2630  0.0914 -0.0414
 2028W        W 5547   7.951   3.999   3.720 -0.1368  0.0760  0.0500
 2029W        W 5548   9.269   5.054   3.312  0.1264  0.1954  0.3844
 2030W        W 5549   1.938   4.921   0.354 -0.2191 -0.1079 -0.0557
 2031W        W 5550   3.350   4.173   8.475  0.0347  0.0735  0.1136
 2032W        W 5551   1.595   9.690   1.361  0.0788  0.1190  0.1916
 2033W        W 5552   4.732   3.339   8.120  0.1345 -0.1836 -0.0771
 2034W        W 5553   2.727   1.515  11.887  0.2448 -0.4618 -0.2066
 2035W        W 5554   3.366   1.367   2.483 -0.1753 -0.1658  0.1566
 2036W        W 5555   9.810   6.596   8.850  0.2165 -0.3119 -0.2533
 2037W        W 5556   6.558   6.068   9.763  0.2949  0.0749 -0.0382
 2038W        W 5557   7.428   3.752   9.055  0.0974 -0.2225  0.2670
 2039W        W 5558   6.645   3.985  11.506  0.2059 -0.0282 -0.2497
 2040W        W 5559   2.845   7.436   3.424 -0.0633 -0.1226 -0.0281
 2041W        W 5560   0.328   9.115  11.612  0.2699  0.2435 -0.0803
 2042W        W 5561   8.306   7.622   1.034 -0.1086  0.1077 -0.2376
 2043W        W 5562   2.886   9.868  10.765 -0.4618  0.1696  0.2803
 2044W        W 5563   6.923   4.841   2.595  0.2123  0.1560 -0.1956
 2045W        W 5564   8.970   7.316   9.924  0.0818 -0.1707 -0.1303
 2046W        W 5565   9.545   8.748  10.289  0.5000  0.2091  0.0612
 2047W        W 5566   0.003   9.030  11.160  0.1716 -0.0537 -0.0749
 2048W        W 5567   7.102   8.432  11.712 -0.3178  0.1490 -0.1733
 2049W        W 5568   2.709   7.716   2.999  0.0487 -0.1004  0.2601
 2050W        W 5569   6.597   7.551  10.684 -0.3769 -0.0125 -0.1700
 2051W        W 5570   8.540   5.760   9.773 -0.0149  0.3829 -0.0701
 2052W        W 5571   6.788   1.401   3.374 -0.0048 -0.0056 -0.0254
 2053W        W 5572   7.887   7.180   3.051  0.3500 -0.0417 -0.0695
 2054W        W 5573   5.716   3.068   9.683  0.0390 -0.0312  0.3403
 2055W        W 5574   4.455   0.148   0.218 -0.2376 -0.2243 -0.1033
 2056W        W 5575   0.897   0.941  10.879 -0.0002  0.1896 -0.1080
 2057W        W 5576   6.408   4.918   9.968  0.1568  0.0765 -0.2212
 2058W        W 5577   7.910   0.778   2.447 -0.1071  0.3843  0.2180
 2059W        W 5578   8.813   7.278   3.761 -0.0294 -0.1489  0.0321
 2060W        W 5579   0.409   8.589   0.993 -0.2475 -0.1844  0.0621
 2061W        W 5580   6.693   5.535   0.523 -0.0130 -0.1679 -0.0102
 2062W        W 5581   6.619   3.941   9.169  0.2235 -0.3976 -0.2360
 2063W        W 5582   4.329   5.143  10.451  0.1192  0.2491  0.1738
 2064W        W 5583   0.786   8.139   9.619 -0.0882 -0.2666  0.1892
 2065W        W 5584   5.760   1.032   3.889  0.1272 -0.3643  0.1288
 2066W        W 5585   0.320   9.337   2.050  0.2773  0.0302  0.2195
 2067W        W 5586   9.770   0.119   1.133  0.2200 -0.0201  0.2432
 2068W        W 5587   0.966   2.310   2.158 -0.4260 -0.2375 -0.1862
 2069W        W 5588   9.088   6.160  11.781  0.3844  0.0234  0.2214
 2070W        W 5589   3.352   2.288  10.789  0.0049 -0.3257  0.0838
 2071W        W 5590   2.276   8.407  10.707 -0.3226  0.0514 -0.2061
 2072W        W 5591   5.868   3.567   3.030 -0.4505  0.2783  0.3818
 2073W        W 5592   0.770   9.793   2.836  0.0175  0.2825 -0.1574
 2074W        W 5593   8.627   5.609   8.540  0.1514 -0.1349  0.0294
 2075W        W 5594   5.575   2.908   1.429  0.0013  0.1500 -0.2034
 2076W        W 5595   9.305   3.501   0.037 -0.0798  0.1210 -0.4076
 2077W        W 5596   7.163   7.343   0.963  0.0056 -0.0187 -0.2081
 2078W        W 5597   1.627   9.273   3.132  0.0629  0.0462 -0.3077
 2079W        W 5598   8.629   2.464   7.772  0.1231 -0.2052  0.2730
 2080W        W 5599   6.771   0.451   8.793 -0.1753  0.2025 -0.0881
 2081W        W 5600   6.585   8.346   2.225  0.0784 -0.1051 -0.1468
 2082W        W 5601   8.405   3.080   3.707 -0.0084  0.0747 -0.1135
 2083W        W 5602   1.210   3.550   4.232 -0.1965  0.0594  0.0184
 2084W        W 5603   4.795   6.699  11.252 -0.3816 -0.2477 -0.0631
 2085W        W 5604   1.679   3.822  11.269 -0.2731  0.0406 -0.1512
 2086W        W 5605   5.287   8.303   9.738  0.1949  0.3684  0.1487
 2087W        W 5606   6.479   4.899  10.806  0.1107 -0.1026  0.2551
 2088W        W 5607   6.730   4.431  10.766  0.0054  0.1883 -0.0337
 2089W        W 5608   2.425   1.300  11.151  0.0867 -0.1181  0.0146
 2090W        W 5609   6.923   9.263   9.522 -0.2327 -0.0914  0.1621
 2091W        W 5610   5.769   2.922   0.663 -0.0864 -0.0463 -0.0863
 2092W        W 5611   0.562   2.644   1.337  0.1168 -0.0347  0.1389
 2093W        W 5612   1.724   6.304   3.391 -0.0798  0.1483 -0.1977
 2094W        W 5613   5.479   9.573   3.443  0.1999 -0.1023 -0.0288
 2095W        W 5614   1.923   4.189   3.972 -0.1392 -0.2819 -0.1468
 2096W        W 5615   2.408   8.279   8.437  0.0862  0.2601 -0.1917
 2097W        W 5616   0.557   7.586   2.712  0.2740  0.0117  0.0752
 2098W        W 5617   9.445   8.228  10.251 -0.0908 -0.1943  0.1404
 2099W        W 5618   3.738   7.089   3.089 -0.2256 -0.0838  0.1045
 2100W        W 5619   9.816   6.956   2.231 -0.1069  0.1212  0.0267
 2101W        W 5620   2.513   0.992   0.448  0.1344  0.1607 -0.1124
 2102W        W 5621   3.747   7.420  11.969  0.0018  0.2741 -0.3474
 2103W        W 5622   8.038   4.305   7.843  0.1564 -0.0691 -0.1867
 2104W        W 5623   4.005   9.827  10.913 -0.1940  0.1271  0.1737
 2105W        W 5624   0.627   9.584  11.698 -0.0843  0.4247  0.1081
 2106W        W 5625   6.115   5.079   7.917  0.0134 -0.1238 -0.0742
 2107W        W 5626   6.072   8.615   1.264  0.3196  0.1421 -0.3906
 2108W        W 5627   2.916   7.302   2.931  0.1895 -0.2712 -0.0379
 2109W        W 5628   7.390   6.554   2.809 -0.0107  0.0787 -0.1446
 2110W        W 5629   8.804   0.602  10.106 -0.0081 -0.2580 -0.4951
 2111W        W 5630   5.787   9.271   9.064  0.0802 -0.3043  0.0279
 2112W        W 5631   4.501   7.694   8.018  0.0827 -0.1607  0.4016
 2113W        W 5632   4.845   8.871  10.381  0.2734  0.3528 -0.4277
 2114W        W 5633   0.262   8.054   0.873 -0.0139 -0.0575 -0.1195
 2115W        W 5634   5.480   8.254   2.416  0.2692 -0.3178  0.2641
 2116W        W 5635   4.426   3.751   1.793  0.0916  0.0470 -0.3403
 2117W        W 5636   1.616   5.946  10.206 -0.0175  0.0770 -0.0838
 2118W        W 5637   6.190   6.640   8.541 -0.0434  0.1318  0.1535
 2119W        W 5638   8.619   6.943   9.895  0.0458 -0.2504 -0.1940
 2120W        W 5639   7.861   5.741   8.237 -0.0451  0.2619  0.0883
 2121W        W 5640   1.409   5.605  10.999  0.2061 -0.2671 -0.4319
 2122W        W 5641   0.076   5.064   0.839 -0.0234 -0.3105 -0.2707
 2123W        W 5642   6.898   0.768  11.525  0.2071 -0.2753  0.0909
 2124W        W 5643   2.389   1.360   8.493 -0.1707 -0.0693  0.0705
 2125W        W 5644   1.599   2.319  10.659 -0.0845 -0.2373  0.0805
 2126W        W 5645   3.804   4.444  10.481 -0.2408 -0.2487 -0.0972
 2127W        W 5646   2.043   8.358   9.393  0.0470 -0.1130  0.1875
 2128W        W 5647   8.057   7.744   2.401 -0.0095 -0.2308 -0.1738
 2129W        W 5648   0.592   1.975   2.038 -0.3233  0.1449  0.2906
 2130W        W 5649   6.468   4.323   3.132 -0.1344  0.0741 -0.0969
 2131W        W 5650   4.452   9.171   2.552  0.5613 -0.0272 -0.1964
 2132W        W 5651   6.862   4.831  11.115  0.1722 -0.0266  0.1483
 2133W        W 5652   1.225   2.834   2.633 -0.0041  0.2568 -0.0219
 2134W        W 5653   2.964   3.789   8.963 -0.1374  0.1903 -0.0198
 2135W        W 5654   1.425   3.593   2.130 -0.0016 -0.0199 -0.0559
 2136W        W 5655   0.695   8.116   2.228 -0.1633  0.1475  0.3622
 2137W        W 5656   0.629   8.600   9.956 -0.1077  0.2764 -0.1127
 2138W        W 5657   1.228   4.788   2.814  0.2781 -0.1436 -0.1388
 2139W        W 5658   0.431   0.463   0.008  0.3231  0.2778 -0.3348
 2140W        W 5659   2.672   6.478   7.652 -0.0363 -0.0344 -0.0962
 2141W        W 5660   4.006   3.308  11.229  0.1562  0.1580 -0.0674
 2142W        W 5661   2.383   4.415   3.677  0.0767  0.1511 -0.1135
 2143W        W 5662   0.632   8.156   8.084 -0.0409 -0.0063  0.1136
 2144W        W 5663   4.136   6.691   1.412 -0.0959  0.2595 -0.1093
 2145W        W 5664   5.929   4.947  10.631  0.4202  0.3850 -0.2626
 2146W        W 5665   8.481   2.552   2.226  0.0419 -0.1673 -0.0366
 2147W        W 5666   4.558   8.532   8.124  0.1255  0.1892 -0.0665
 2148W        W 5667   0.991   6.237   0.573 -0.2339 -0.1667  0.0900
 2149W        W 5668   4.177   0.152   8.436  0.0500  0.2101  0.0247
 2150W        W 5669   9.895   4.214  11.512  0.1693  0.1633  0.3486
 2151W        W 5670   1.810   5.875  11.788  0.0119  0.0074  0.0928
 2152W        W 5671   6.150   1.428   9.368  0.1392 -0.1832  0.0992
 2153W        W 5672   1.642   9.499   8.241  0.3230  0.1884  0.0836
 2154W        W 5673   8.462   2.266  11.154  0.3488 -0.0178 -0.0891
 2155W        W 5674   0.371   1.876   9.254  0.0022 -0.1033  0.0719
 2156W        W 5675   1.602   0.139   9.436 -0.1681 -0.1674 -0.1091
 2157W        W 5676   6.272   8.098   7.895 -0.2237 -0.2153 -0.1328
 2158W        W 5677   7.799   9.762   1.150 -0.1357  0.1759 -0.0135
 2159W        W 5678   1.267   3.456   1.362 -0.2058 -0.1334 -0.2167
 2160W        W 5679   4.588   3.344   0.764 -0.3526 -0.1159 -0.3879
 2161W        W 5680   1.910   3.233   0.409  0.0051  0.2629 -0.2039
 2162W        W 5681   8.582   4.051   9.512  0.0601  0.1177  0.3155
 2163W        W 5682   4.508   1.101   8.858 -0.2028 -0.0002  0.1725
 2164W        W 5683   6.041   5.757   3.400  0.1162  0.0737  0.1343
 2165W        W 5684   6.473   4.789   0.119 -0.2589  0.2546  0.4135
 2166W        W 5685   7.431   6.667   1.442 -0.1319  0.0743 -0.0907
 2167W        W 5686   0.391   9.811   1.916 -0.1579 -0.0848  0.0150
 2168W        W 5687   2.114   8.827   9.429 -0.0395  0.1479 -0.1051
 2169W        W 5688   1.118   5.737   3.253 -0.0977 -0.0293 -0.0905
 2170W        W 5689   2.922   1.335   9.104 -0.0505  0.1839 -0.0216
 2171W        W 5690   8.038   7.273   8.717 -0.3361 -0.2465  0.0793
 2172W        W 5691   5.066   9.875   3.530  0.1710 -0.0185  0.0187
 2173W        W 5692   4.015   2.086  11.622  0.1644  0.1945 -0.1033
 2174W        W 5693   0.640   7.400   9.071 -0.0435  0.0832 -0.1082
 2175W        W 5694   6.885   5.597   9.027  0.1164  0.0851 -0.4128
 2176W        W 5695   1.545   4.337   9.191  0.2041  0.0854 -0.0626
 2177W        W 5696   5.229   1.420   1.366 -0.1866 -0.0421 -0.2043
 2178W        W 5697   9.007   5.242   8.552  0.1984  0.2700  0.5738
 2179W        W 5698   4.484   5.712  11.224 -0.0332 -0.0950 -0.1157
 2180W        W 5699   8.114   9.121   8.385  0.0151  0.0345  0.3127
 2181W        W 5700   6.235   9.611   0.756 -0.0306 -0.2931 -0.2592
 2182W        W 5701   8.257   8.403  10.796 -0.1222 -0.3061  0.2197
 2183W        W 5702   0.979   6.769  11.338 -0.2200  0.2962  0.1682
 2184W        W 5703   8.952   8.708  10.144  0.0423 -0.1043  0.0165
 2185W        W 5704   7.163   1.026   8.209 -0.0190 -0.0164 -0.2024
 2186W        W 5705   7.081   4.049   9.203 -0.1055  0.1133  0.0413
 2187W        W 5706   2.424   6.646   1.557 -0.2368 -0.1959  0.2039
 2188W        W 5707   8.810   6.781   2.547 -0.1806 -0.0855  0.4826
 2189W        W 5708   2.778   9.587   2.009 -0.0200  0.0951  0.0163
 2190W        W 5709   0.316   5.503   1.950 -0.0234 -0.2099  0.1563
 2191W        W 5710   0.810   9.162  10.209  0.1010 -0.3834 -0.0711
 2192W        W 5711   1.568   1.511  10.781  0.1291  0.0617 -0.3078
 2193W        W 5712   6.998   3.437   9.792  0.3919  0.2729 -0.0198
 2194W        W 5713   2.301   5.703   2.312  0.1351  0.0248  0.0522
 2195W        W 5714   2.949   3.345  10.138  0.2150  0.0118 -0.0433
 2196W        W 5715   4.290   8.811   9.172 -0.2003  0.2844 -0.1924
 2197W        W 5716   9.225   8.043  11.671 -0.0471 -0.2240 -0.1120
 2198W        W 5717   9.306   7.830   1.083 -0.1570 -0.1050 -0.0533
 2199W        W 5718   8.066   5.840  11.021  0.2051 -0.2061  0.1026
 2200W        W 5719   1.253   9.889   0.026  0.2400  0.3637 -0.3821
 2201W        W 5720   0.348   7.183   0.563 -0.2522 -0.1323 -0.3709
 2202W        W 5721   9.078   1.181   8.394  0.2134 -0.5600 -0.2448
 2203W        W 5722   7.398   1.299   2.784 -0.0370  0.0841 -0.2145
 2204W        W 5723   2.621   5.420   3.941 -0.1377 -0.1067 -0.1849
 2205W        W 5724   0.237   1.565   8.898 -0.0660  0.1385 -0.1437
 2206W        W 5725   0.233   2.361   2.183 -0.1264  0.0136 -0.0186
 2207W        W 5726   2.768   3.880   2.075 -0.0734 -0.0815  0.0560
 2208W        W 5727   4.436   6.503  10.619 -0.0938  0.0446 -0.0770
 2209W        W 5728   5.770   6.589   3.370  0.0461 -0.1570 -0.0090
 2210W        W 5729   6.334   0.997   9.153  0.3108 -0.3209  0.0257
 2211W        W 5730   9.166   4.300   1.368  0.2236 -0.1381 -0.0782
 2212W        W 5731   0.296   9.012   0.117  0.0891  0.1218 -0.0724
 2213W        W 5732   9.732   3.092   2.543 -0.2703 -0.0210 -0.0323
 2214W        W 5733   7.767   2.883   0.001  0.0175  0.1734  0.0256
 2215W        W 5734   7.950   5.160  11.839  0.1037  0.2072 -0.1742
 2216W        W 5735   9.728   8.062   1.120  0.1932 -0.0077 -0.0474
 2217W        W 5736   7.208   5.994   8.883  0.0343  0.1444  0.0608
 2218W        W 5737   6.281   2.407   0.147 -0.1294  0.0888  0.0632
 2219W        W 5738   1.260   5.470   1.445 -0.2006  0.1523  0.0758
 2220W        W 5739   0.134   4.923   0.307 -0.0672 -0.0602 -0.1770
 2221W        W 5740   6.275   7.538  11.158  0.0185  0.1821 -0.1308
 2222W        W 5741   0.497   2.133   9.973  0.1060  0.0741  0.0782
 2223W        W 5742   5.071   2.241   1.162  0.3412 -0.0161  0.0670
 2224W        W 5743   1.798   6.578   0.877 -0.2698 -0.0720  0.1671
 2225W        W 5744   3.487   5.622   1.455  0.0002 -0.0768 -0.0509
 2226W        W 5745   5.533   5.419   0.208 -0.2397  0.1366  0.0909
 2227W        W 5746   4.908   7.243  10.873  0.1299 -0.3120  0.0378
 2228W        W 5747   6.899   7.350  10.269 -0.0467 -0.0005 -0.0835
 2229W        W 5748   4.806   7.849   3.729  0.0299  0.0006  0.1211
 2230W        W 5749   1.010   2.379   1.645  0.0725 -0.1804  0.5818
 2231W        W 5750   0.916   3.921   4.299  0.2551  0.0795  0.0703
 2232W        W 5751   0.151   3.359   9.419  0.0513 -0.1478  0.3253
 2233W        W 5752   9.169   3.001   1.587  0.2272 -0.0104 -0.3500
 2234W        W 5753   6.129   3.892   2.170  0.2618 -0.1475 -0.1606
 2235W        W 5754   4.830   1.683   0.890 -0.1130  0.1943 -0.2906
 2236W        W 5755   5.749   4.757   3.250  0.1386 -0.1382 -0.1795
 2237W        W 5756   6.823   0.878   1.621 -0.0214 -0.0177 -0.2257
 2238W        W 5757   6.723   7.688   8.984 -0.1655 -0.2731 -0.1029
 2239W        W 5758   9.139   0.765  11.743 -0.0461 -0.0674  0.1413
 2240W        W 5759   2.735   0.739   8.412  0.0669 -0.2811 -0.1502
 2241W        W 5760   7.273   9.292   9.130  0.2409  0.0096 -0.1931
 2242W        W 5761   1.868   6.181   3.913 -0.0896 -0.4025  0.2202
 2243W        W 5762   1.208   3.114  11.558  0.1650 -0.1280  0.0319
 2244W        W 5763   6.701   7.962   0.677 -0.0546 -0.0164  0.1561
 2245W        W 5764   5.658   2.379   9.944  0.3885 -0.1957  0.1415
 2246W        W 5765   2.292   2.636  10.942 -0.3291 -0.2363 -0.0892
 2247W        W 5766   2.718   2.656   1.221  0.3763 -0.3532  0.1952
 2248W        W 5767   4.943   0.137   0.456 -0.0417  0.0373 -0.0149
 2249W        W 5768   9.013   1.214   8.953  0.1029 -0.0142  0.0514
 2250W        W 5769   0.042   9.646   2.434  0.0928  0.1985 -0.0133
 2251W        W 5770   3.673   7.738   9.495  0.2639 -0.1689  0.0631
 2252W        W 5771   8.668   3.172   2.459  0.2549 -0.2046 -0.0365
 2253W        W 5772   3.104   1.385  11.541  0.2023  0.0284 -0.0524
 2254W        W 5773   0.389   5.649   1.456  0.0446 -0.0542 -0.5066
 2255W        W 5774   4.716   0.471  10.355  0.0293 -0.0064 -0.0681
 2256W        W 5775   2.406   7.414   3.737  0.1978  0.2688 -0.0346
 2257W        W 5776   0.052   8.537   3.456 -0.0473  0.0691 -0.3894
 2258W        W 5777   5.290   4.239   3.781 -0.1910  0.2288 -0.1680
 2259W        W 5778   3.432   2.952   9.878 -0.4182 -0.0957 -0.1592
 2260W        W 5779   9.145   0.952  10.250  0.1951  0.1740  0.1402
 2261W        W 5780   1.140   7.517   2.369  0.3918 -0.0806 -0.0254
 2262W        W 5781   9.291   8.064  10.776  0.2635  0.2968  0.0097
 2263W        W 5782   9.471   5.813  11.810 -0.1590  0.2695 -0.0529
 2264W        W 5783   7.271   8.238   7.799  0.1740  0.0876  0.3403
 2265W        W 5784   2.964   1.089  11.905  0.0943  0.0105 -0.0461
 2266W        W 5785   9.118   8.321  11.203  0.1224 -0.0061 -0.0088
 2267W        W 5786   0.836   0.110  11.812  0.3580  0.3664  0.2695
 2268W        W 5787   9.626   0.829   2.117 -0.1330 -0.2143 -0.1275
 2269W        W 5788   8.151   3.406  10.778  0.1438  0.0371 -0.0477
 2270W        W 5789   7.647   2.222  10.782  0.0369 -0.5062 -0.1270
 2271W        W 5790   9.303   3.444   1.871 -0.1273 -0.3542 -0.1447
 2272W        W 5791   9.371   6.338   8.332 -0.5694  0.3762  0.1439
 2273W        W 5792   8.250   2.604   7.387 -0.2941 -0.2409  0.1555
 2274W        W 5793   8.102   6.711  11.601 -0.2443 -0.0162  0.5278
 2275W        W 5794   7.975   2.275   1.336  0.0972 -0.1041  0.0957
 2276W        W 5795   1.147   8.843   2.221  0.2283 -0.3427  0.0300
 2277W        W 5796   5.517   8.410   7.859 -0.0054  0.3876 -0.1337
 2278W        W 5797   5.698   9.598  11.909 -0.0636 -0.2568 -0.0634
 2279W        W 5798   3.442   3.789   0.671  0.1390 -0.0329  0.0174
 2280W        W 5799   6.307   1.206   0.980  0.1734 -0.0294 -0.2484
 2281W        W 5800   4.277   4.027   8.208 -0.0996  0.1448 -0.3506
 2282W        W 5801   9.227   0.332   8.987 -0.1294  0.1592 -0.2379
 2283W        W 5802   3.948   2.021   2.829  0.0115 -0.1148  0.2689
 2284W        W 5803   4.089   3.094   0.476  0.1729 -0.1088 -0.1295
 2285W        W 5804   3.914   4.568   0.614 -0.1226 -0.0996 -0.1709
 2286W        W 5805   6.709   3.879   0.304 -0.1856 -0.4518 -0.0988
 2287W        W 5806   1.912   5.732   2.643  0.2828 -0.0270 -0.5245
 2288W        W 5807   3.677   5.725   0.966 -0.0155 -0.0172  0.0519
 2289W        W 5808   0.916   1.241   2.213  0.2802  0.3635  0.0458
 2290W        W 5809   9.316   4.831   0.200  0.2997  0.2432  0.2055
 2291W        W 5810   8.221   5.702   0.778  0.1182  0.1652 -0.2122
 2292W        W 5811   4.627   4.074   7.843  0.1655 -0.0368 -0.0210
 2293W        W 5812   4.679   4.872  11.771  0.1455  0.3348 -0.1891
 2294W        W 5813   7.171   4.550  11.631 -0.0938  0.1341  0.2548
 2295W        W 5814   5.268   7.642   1.137  0.0117  0.1450  0.3687
 2296W        W 5815   3.819   0.709  11.410 -0.1532  0.0052  0.0287
 2297W        W 5816   8.238   0.912   9.479  0.2149  0.0785 -0.0335
 2298W        W 5817   1.528   0.574   3.202  0.2455  0.2057  0.3211
 2299W        W 5818   8.292   3.121   2.176 -0.1914 -0.0853  0.2901
 2300W        W 5819   1.837   7.967   9.720  0.0503  0.1788 -0.0406
 2301W        W 5820   2.853   3.782  10.927 -0.4212 -0.1730 -0.0811
 2302W        W 5821   2.478   9.000   0.096 -0.0623 -0.0847  0.0110
 2303W        W 5822   6.276   6.841   0.813 -0.0132  0.0317 -0.0488
 2304W        W 5823   5.034   5.795   3.901 -0.1199 -0.1064  0.2166
 2305W        W 5824   1.431   4.953  10.339 -0.2070 -0.0763  0.0583
 2306W        W 5825   8.017   4.326   8.396 -0.1961 -0.1354  0.0077
 2307W        W 5826   7.743   8.678   0.165  0.3563  0.0953  0.0383
 2308W        W 5827   9.040   2.871   3.137 -0.3935 -0.1406 -0.1051
 2309W        W 5828   6.575   6.217   8.146 -0.0239  0.0535 -0.0398
 2310W        W 5829   8.992   7.209  11.298 -0.2078 -0.1211 -0.0378
 2311W        W 5830   6.835   3.852   7.823 -0.0734  0.0179  0.1188
 2312W        W 5831   4.823   7.475   1.719  0.1816  0.3186  0.2748
 2313W        W 5832   5.277   5.099   0.516 -0.1849 -0.0157  0.0945
 2314W        W 5833   3.030   9.709   7.937 -0.0978  0.0272 -0.2860
 2315W        W 5834   6.430   4.694   7.904 -0.1074 -0.1549  0.1084
 2316W        W 5835   5.535   5.147   2.344  0.0599  0.0603 -0.2530
 2317W        W 5836   0.575   0.710   1.525 -0.0568  0.3644 -0.1496
 2318W        W 5837   0.155   0.707   1.849  0.1413  0.0677 -0.0001
 2319W        W 5838   2.060   5.247   3.226  0.0162  0.1232  0.1841
 2320W        W 5839   0.743   3.736   3.376  0.1103 -0.1879  0.1027
 2321W        W 5840   7.053   0.965   3.061 -0.3456 -0.0351 -0.0799
 2322W        W 5841   4.067   0.966   1.891  0.0736  0.0108 -0.0781
 2323W        W 5842   2.846   1.761   3.662 -0.3090 -0.1428  0.2978
 2324W        W 5843   8.506   7.379   8.514 -0.1078 -0.3900 -0.4046
 2325W        W 5844   2.060   8.540  11.150 -0.0431 -0.1644 -0.1922
 2326W        W 5845   0.264   3.839  11.280  0.0936 -0.2697  0.2871
 2327W        W 5846   9.042   5.288   9.051  0.0361  0.1546 -0.0757
 2328W        W 5847   5.384   3.910   1.619 -0.3017 -0.1172  0.1205
 2329W        W 5848   3.443   1.080  11.835  0.0059  0.1855  0.1544
 2330W        W 5849   1.272   1.962   9.522  0.0286 -0.1375  0.0145
 2331W        W 5850   4.129   1.044   9.527 -0.0870 -0.0286 -0.0283
 2332W        W 5851   2.720   1.046   1.419  0.1710  0.1476 -0.0026
 2333W        W 5852   0.316   7.985  10.679  0.1626 -0.1005 -0.1609
 2334W        W 5853   1.017   0.518  10.167  0.0211 -0.0942  0.1004
 2335W        W 5854   1.480   1.391   9.295 -0.0738 -0.0080 -0.2431
 2336W        W 5855   9.108   6.829   9.062  0.1847 -0.0620 -0.0051
 2337W        W 5856   5.947   9.348   7.927 -0.0638  0.5184  0.0822
 2338W        W 5857   5.800   8.785   9.168  0.0292 -0.0554 -0.0234
 2339W        W 5858   1.300   2.426   9.153  0.0297  0.0385 -0.0546
 2340W        W 5859   2.105   6.143   2.424 -0.0970 -0.0117  0.0107
 2341W        W 5860   0.913   7.219   0.744 -0.0750  0.3044  0.0493
 2342W        W 5861   4.189   0.923   1.343 -0.1284 -0.0263 -0.0818
 2343W        W 5862   1.598   0.211   8.850  0.0483  0.2440  0.0434
 2344W        W 5863   9.919   3.570   4.700 -0.0732  0.1776 -0.0665
 2345W        W 5864   9.634   0.593   7.875  0.2565 -0.0988 -0.1860
 2346W        W 5865   8.538   5.876   1.649 -0.1581 -0.2605  0.1100
 2347W        W 5866   8.147   2.158   0.702  0.0546 -0.0262  0.0993
 2348W        W 5867   1.685   7.337  10.227 -0.0703 -0.0983 -0.0009
 2349W        W 5868   1.053   0.957   1.114  0.1884 -0.0414  0.3418
 2350W        W 5869   9.189   4.764   9.284 -0.0284 -0.1202  0.0973
 2351W        W 5870   0.213   4.924   3.111  0.2442  0.1420  0.3380
 2352W        W 5871   5.767   6.706   0.069  0.0061  0.2622 -0.2565
 2353W        W 5872   4.145   0.319   1.650 -0.1171 -0.1511  0.2981
 2354W        W 5873   1.379   8.059  10.516  0.2953 -0.0763 -0.1238
 2355W        W 5874   9.883   4.590   2.225 -0.3272 -0.0061  0.1546
 2356W        W 5875   7.976   4.989   8.882 -0.1063  0.1745 -0.1261
 2357W        W 5876   5.255   1.209  11.348  0.1708  0.2150  0.2084
 2358W        W 5877   6.606   6.799   2.875 -0.0512 -0.0268 -0.0188
 2359W        W 5878   3.781   0.731  11.983 -0.1137  0.2001  0.3857
 2360W        W 5879   9.535   2.571   1.830 -0.0003  0.1352 -0.1229
 2361W        W 5880   7.069   6.810   2.350  0.1834 -0.1109  0.0866
 2362W        W 5881   9.474   4.425  11.113 -0.2364 -0.1860  0.0351
 2363W        W 5882   9.304   3.947   8.629 -0.0497  0.1278 -0.1628
 2364W        W 5883   3.860   3.196   0.052  0.0896  0.2358 -0.1958
 2365W        W 5884   3.477   6.015  11.419 -0.0018  0.0264  0.3029
 2366W        W 5885   0.221   3.761  11.751  0.0327 -0.2273 -0.0789
 2367W        W 5886   4.511   6.600   0.836  0.1546  0.2710 -0.1116
 2368W        W 5887   3.833   0.193  10.511  0.1980 -0.2424  0.3131
 2369W        W 5888   1.479   0.600   2.670  0.1683  0.2921 -0.1416
 2370W        W 5889   9.336   4.181  10.088 -0.0541  0.1953 -0.2254
 2371W        W 5890   7.773   4.028   0.021  0.1342  0.1419  0.6605
 2372W        W 5891   6.976   5.544   8.045  0.0475  0.1603 -0.0586
 2373W        W 5892   1.151   6.927   1.609 -0.1376  0.0461 -0.2123
 2374W        W 5893   9.006   0.260   1.987 -0.1020  0.0019  0.0040
 2375W        W 5894   8.257   9.526   4.033 -0.0271 -0.1717 -0.0373
 2376W        W 5895   4.627   8.976   3.024  0.2323 -0.3051 -0.2424
 2377W        W 5896   4.391   7.649   2.759  0.3280  0.1430 -0.0153
 2378W        W 5897   0.185   4.591   8.418 -0.2649  0.1806  0.0690
 2379W        W 5898   0.033   1.243   1.881 -0.1564  0.0315  0.1830
 2380W        W 5899   0.008   5.439   8.528 -0.0325 -0.0932  0.4024
 2381W        W 5900   0.162   0.933   0.055 -0.0254 -0.0902  0.1917
 2382W        W 5901   8.070   0.446   2.774 -0.0467  0.0217 -0.1061
 2383W        W 5902   1.316   5.894  11.823  0.3212  0.0051  0.0050
 2384W        W 5903   3.067   6.949   7.791  0.1805 -0.0132  0.2446
 2385W        W 5904   1.218   1.391   8.603  0.2653 -0.1374 -0.0349
 2386W        W 5905   2.919   4.572   0.741  0.1105 -0.1490 -0.1972
 2387W        W 5906   8.635   6.975   8.149 -0.0961 -0.0375 -0.2350
 2388W        W 5907   7.758   8.644   0.658 -0.0799  0.0629 -0.0817
 2389W        W 5908   0.683   4.606   1.507 -0.1697 -0.2178 -0.2783
 2390W        W 5909   6.887   0.608   9.758 -0.0569  0.2499  0.6515
 2391W        W 5910   9.509   1.345  10.176  0.0941 -0.0006  0.0472
 2392W        W 5911   8.741   9.521   2.691  0.1538  0.1170 -0.0434
 2393W        W 5912   7.438   8.219   1.157 -0.1120 -0.0132  0.2604
 2394W        W 5913   8.262   0.972  10.756 -0.1591  0.1060  0.3889
 2395W        W 5914   1.259   2.862  11.087 -0.2368  0.2530  0.0254
 2396W        W 5915   4.822   9.446  11.657 -0.0606  0.0582  0.0841
 2397W        W 5916   4.723   3.106  10.691  0.1727 -0.0722 -0.1709
 2398W        W 5917   5.845   8.173   1.182  0.1018 -0.2693  0.0546
 2399W        W 5918   2.997   1.256  11.035 -0.0233  0.1558  0.3853
 2400W        W 5919   9.813   8.814   4.169  0.1063  0.1270  0.1294
 2401W        W 5920   7.939   6.561   2.243 -0.1529  0.1443 -0.3013
 2402W        W 5921   6.856   4.329  11.256  0.2375 -0.0403 -0.0643
 2403W        W 5922   8.075   6.095  11.500 -0.0893  0.1239 -0.1938
 2404W        W 5923   8.100   1.317   8.523  0.3467  0.0318  0.2002
 2405W        W 5924   9.057   2.574   1.319  0.3430  0.3835 -0.0792
 2406W        W 5925   4.007   3.460   8.684  0.0883 -0.0524  0.0378
 2407W        W 5926   5.849   1.349  10.070 -0.0595 -0.0532  0.0034
 2408W        W 5927   5.607   5.098   8.119 -0.2107  0.2907 -0.1402
 2409W        W 5928   2.928   8.954   1.091  0.3578  0.0835 -0.0696
 2410W        W 5929   7.184   0.699   9.313  0.2365 -0.2694  0.3068
 2411W        W 5930   2.002   7.236   3.011  0.0400  0.2072  0.1614
 2412W        W 5931   4.253   8.211  10.919  0.2052 -0.2189 -0.1513
 2413W        W 5932   9.121   9.057   9.467  0.2579  0.1278  0.1293
 2414W        W 5933   0.886   8.484   0.892  0.3869  0.3803 -0.1134
 2415W        W 5934   1.920   0.537   8.157  0.3482 -0.1545  0.2433
 2416W        W 5935   7.915   5.057   1.361  0.0702 -0.3511 -0.0969
 2417W        W 5936   7.676   0.418   7.952  0.0473 -0.0835  0.0825
 2418W        W 5937   9.483   2.113   9.853 -0.0667  0.0980 -0.1824
 2419W        W 5938   6.319   0.034   7.791  0.0626 -0.0467 -0.2161
 2420W        W 5939   4.939   2.003   1.930  0.2436  0.0016  0.1147
 2421W        W 5940   6.668   8.841   9.467  0.3375  0.2329 -0.0720
 2422W        W 5941   3.020   7.121   2.419  0.2678  0.0212  0.0008
 2423W        W 5942   7.137   2.144   8.878 -0.2286  0.0638  0.4101
 2424W        W 5943   3.840   6.734   0.136  0.0175  0.2407 -0.3982
 2425W        W 5944   9.775   5.696   1.559  0.0302  0.0200 -0.4826
 2426W        W 5945   0.527   1.394  11.936  0.3858  0.0843 -0.0722
 2427W        W 5946   7.091   8.579   8.206  0.4453 -0.1099 -0.0616
 2428W        W 5947   9.632   5.526   3.537 -0.1166  0.1035 -0.1670
 2429W        W 5948   9.453   3.133  10.663 -0.0979  0.1041 -0.0314
 2430W        W 5949   6.836   9.578   3.838 -0.1184 -0.0481  0.0443
 2431W        W 5950   6.126   3.785   9.123  0.1478 -0.4002  0.3567
 2432W        W 5951   5.385   6.771   7.603  0.1312  0.2547  0.0173
 2433W        W 5952   3.687   7.306   0.920  0.0967  0.0135 -0.0941
 2434W        W 5953   0.857   1.261   8.194  0.0161 -0.0795  0.1744
 2435W        W 5954   5.466   4.428   7.692 -0.0825  0.1517  0.0487
 2436W        W 5955   9.271   0.333   1.542  0.0499 -0.0235 -0.0817
 2437W        W 5956   0.811   6.088   1.057 -0.1657  0.0332 -0.2107
 2438W        W 5957   4.298   8.786  10.800 -0.1184  0.1473 -0.1179
 2439W        W 5958   0.118   9.499  11.911  0.1835  0.0787  0.1904
 2440W        W 5959   6.930   4.892  10.630 -0.1972 -0.4041 -0.2285
 2441W        W 5960   0.820   5.480   0.013  0.1538 -0.0203 -0.0464
 2442W        W 5961   0.826   6.879   9.807 -0.0149  0.0734  0.4134
 2443W        W 5962   5.332   8.951   9.064  0.0192  0.0952  0.1429
 2444W        W 5963   7.821   9.724   1.963 -0.0077 -0.0908 -0.2258
 2445W        W 5964   6.614   3.422   1.582  0.2915 -0.1045 -0.3046
 2446W        W 5965   7.098   8.636   9.646  0.1088 -0.0270  0.0744
 2447W        W 5966   9.014   0.138  11.680 -0.1923  0.0130  0.4180
 2448W        W 5967   3.315   4.025  10.936  0.1643 -0.2275 -0.0156
 2449W        W 5968   9.741   6.264   7.996  0.1313 -0.3316  0.0279
 2450W        W 5969   9.615   3.637   2.158 -0.0593 -0.0025  0.0713
 2451W        W 5970   6.183   1.498  11.713  0.2532 -0.0584  0.1431
 2452W        W 5971   1.802   2.991   0.863  0.1452  0.1199 -0.0141
 2453W        W 5972   2.368   6.645   8.735  0.0796  0.0814 -0.0485
 2454W        W 5973   0.418   5.673   0.946 -0.1932 -0.3973 -0.2205
 2455W        W 5974   6.200   2.749   2.992 -0.0800 -0.0169  0.1172
 2456W        W 5975   2.990   7.900   7.893  0.5072 -0.0772 -0.1671
 2457W        W 5976   6.378   1.188   8.267  0.1299  0.3089  0.1828
 2458W        W 5977   2.433   8.128  10.333 -0.3022  0.1461 -0.0641
 2459W        W 5978   0.285   9.305   8.284 -0.1188 -0.3611  0.1761
 2460W        W 5979   4.199   7.446  10.214  0.0819  0.5482  0.1041
 2461W        W 5980   6.249   9.592   9.873 -0.2027 -0.0719 -0.4683
 2462W        W 5981   5.202   5.986   2.858  0.1296  0.0353  0.0158
 2463W        W 5982   3.883   5.606   2.733 -0.0360  0.1569 -0.1141
 2464W        W 5983   8.107   6.456   8.268 -0.1080  0.4136  0.0617
 2465W        W 5984   9.669   2.555   3.564  0.1282 -0.4346 -0.0560
 2466W        W 5985   0.746   1.937  10.859  0.2674  0.1349  0.3207
 2467W        W 5986   2.520   1.544   0.743  0.1822 -0.1963 -0.0171
 2468W        W 5987   6.048   5.242   3.305 -0.1025 -0.0527  0.0368
 2469W        W 5988   8.008   7.618   8.344  0.0807 -0.0479 -0.2070
 2470W        W 5989   3.669   2.388   8.534  0.3093  0.2493  0.0830
 2471W        W 5990   9.768   0.236  10.206  0.0147  0.2169 -0.0129
 2472W        W 5991   6.099   1.230   1.494  0.0550  0.4681  0.2754
 2473W        W 5992   8.789   8.931  11.953 -0.0271 -0.0507  0.1499
 2474W        W 5993   7.571   7.274   0.589  0.0803 -0.0911 -0.1408
 2475W        W 5994   3.816   4.363  11.433  0.1576 -0.3518 -0.1303
 2476W        W 5995   6.344   0.960  10.465 -0.0416  0.0355 -0.1347
 2477W        W 5996   1.054   3.878   1.826 -0.0139 -0.1909  0.1483
 2478W        W 5997   2.540   3.085  11.516 -0.2350  0.3674 -0.0665
 2479W        W 5998   7.227   9.457  11.238  0.2037 -0.2923  0.0267
 2480W        W 5999   6.937   8.353   1.027  0.0589  0.1180  0.0912
 2481W        W 6000   8.740   5.842   3.460  0.3398  0.0780 -0.0622
 2482W        W 6001   5.640   9.081   8.619 -0.1460  0.0635  0.0625
 2483W        W 6002   7.706   3.691   0.379 -0.0005  0.0254  0.0838
 2484W        W 6003   4.292   1.369   9.970 -0.0186 -0.2862 -0.0491
 2485W        W 6004   4.794   2.259   9.552 -0.2196 -0.1272 -0.3168
 2486W        W 6005   5.615   2.285   2.214  0.3158 -0.1566 -0.0223
 2487W        W 6006   2.968   6.533  11.055  0.4123  0.0073  0.3925
 2488W        W 6007   4.527   1.896  11.255  0.2533  0.2112 -0.0596
 2489W        W 6008   7.844   6.116  10.640 -0.1577 -0.2834  0.2443
 2490W        W 6009   6.321   1.604   8.023 -0.0200  0.0974  0.1349
 2491W        W 6010   6.509   1.824  11.454  0.0296 -0.2287 -0.1890
 2492W        W 6011   5.421   8.070   0.397 -0.0238  0.0179 -0.2651
 2493W        W 6012   6.825   4.326   7.887  0.1612  0.0025  0.2560
 2494W        W 6013   7.554   9.391  10.820  0.2559 -0.2031  0.2837
 2495W        W 6014   6.508   1.288   3.004  0.0398 -0.3199 -0.2437
 2496W        W 6015   2.909   5.490   1.817  0.0427 -0.1495  0.3091
 2497W        W 6016   3.103   3.772  11.981  0.0420  0.3433  0.1453
 2498W        W 6017   9.279   1.979   8.781  0.1314  0.3990 -0.3182
 2499W        W 6018   2.978   2.673  10.696 -0.5055  0.0752 -0.1929
 2500W        W 6019   0.173   6.379   8.406  0.0570  0.1319 -0.1493
 2501W        W 6020   1.104   6.683   3.442  0.1964 -0.3402  0.0007
 2502W        W 6021   1.326   6.134  10.868 -0.0723 -0.1313  0.2956
 2503W        W 6022   3.636   2.838   0.345 -0.0880  0.2948 -0.0584
 2504W        W 6023   4.969   4.839   9.898 -0.4927  0.1593 -0.2237
 2505W        W 6024   7.726   3.508   3.115  0.3856 -0.0332  0.0223
 2506W        W 6025   7.937   6.635   8.800  0.0734 -0.1048  0.2305
 2507W        W 6026   3.405   5.860   9.665  0.3120  0.0824 -0.1428
 2508W        W 6027   9.199   2.114   2.131  0.1209  0.1609 -0.3762
 2509W        W 6028   1.415   3.963   2.494 -0.1585  0.1500  0.2838
 2510W        W 6029   3.872   3.992   7.761  0.0342 -0.0729 -0.1334
 2511W        W 6030   8.252   6.146  10.287  0.0687 -0.1448 -0.1922
 2512W        W 6031   7.561   5.633   8.785  0.2798 -0.0958 -0.0860
 2513W        W 6032   6.122   2.537   2.508  0.3017  0.1539 -0.1849
 2514W        W 6033   2.895   9.281   2.422  0.1671  0.2986 -0.0603
 2515W        W 6034   5.918   0.172   3.683  0.2998  0.0050 -0.0591
 2516W        W 6035   8.658   7.215   0.068  0.1590 -0.5814  0.0054
 2517W        W 6036   0.928   4.416   4.088  0.2013  0.0025 -0.1917
 2518W        W 6037   1.202   5.524   9.594 -0.1246  0.0523 -0.0948
 2519W        W 6038   4.151   6.928  10.375 -0.1433  0.1639 -0.0679
 2520W        W 6039   4.460   0.877   7.812  0.1468  0.0872 -0.1256
 2521W        W 6040   6.885   5.900   2.986  0.0481  0.0888 -0.1632
 2522W        W 6041   1.699   9.073   9.225  0.0961  0.1233 -0.1303
 2523W        W 6042   1.259   7.268   1.181 -0.1196 -0.2208 -0.1122
 2524W        W 6043   6.461   6.385   1.028  0.3926  0.0119  0.0225
 2525W        W 6044   2.024   3.186   8.934 -0.2155  0.0155 -0.3643
 2526W        W 6045   5.483   2.082   8.963  0.0367  0.1075 -0.0133
 2527W        W 6046   1.605   7.073   7.493  0.0128 -0.1178  0.1022
 2528W        W 6047   8.356   7.846  11.690  0.2630 -0.0304 -0.1936
 2529W        W 6048   0.694   2.434   3.642  0.0821  0.2494 -0.0233
 2530W        W 6049   5.423   0.126   7.169 -0.0567  0.0009 -0.1446
 2531W        W 6050   2.636   6.757   2.148  0.3878 -0.2296  0.1941
 2532W        W 6051   4.947   5.282  12.001 -0.0599  0.0060  0.1361
 2533W        W 6052   6.595   2.587   9.575  0.0950 -0.1300  0.0164
 2534W        W 6053   0.514   3.547   0.467 -0.0064  0.2390  0.2017
 2535W        W 6054   8.532   9.194  10.479 -0.0646 -0.0327 -0.0266
 2536W        W 6055   0.712   8.773   1.353  0.0768 -0.2473 -0.1112
 2537W        W 6056   9.634   5.307  10.709 -0.0657  0.0458 -0.0348
 2538W        W 6057   3.387   2.476   1.907  0.3081  0.0051 -0.3197
 2539W        W 6058   4.216   2.003   9.799  0.1719  0.1841  0.0156
 2540W        W 6059   7.280   6.051   2.652  0.1369  0.1172 -0.2045
 2541W        W 6060   0.229   1.827  11.896  0.1417  0.4312 -0.3085
 2542W        W 6061   1.836   5.985   8.963  0.3220 -0.3276  0.2890
 2543W        W 6062   3.119   5.323  10.751 -0.1482  0.2532 -0.1270
 2544W        W 6063   8.699   2.909   1.376 -0.1727 -0.0327 -0.2535
 2545W        W 6064   2.794   6.363   1.862 -0.1559 -0.0598  0.0311
 2546W        W 6065   9.097   6.327   3.274  0.1181 -0.0547  0.2166
 2547W        W 6066   9.356   9.107   8.267 -0.0644 -0.1202 -0.1421
 2548W        W 6067   7.275   1.887  10.810  0.0081  0.0119  0.2266
 2549W        W 6068   1.656   5.973  11.309 -0.0309  0.0799  0.1889
 2550W        W 6069   1.517   4.247   1.026 -0.0263 -0.0025  0.0719
 2551W        W 6070   8.497   8.168  10.403  0.0714 -0.0729  0.0720
 2552W        W 6071   1.507   0.056   1.816  0.0083  0.2597 -0.1229
 2553W        W 6072   6.143   6.145  10.200  0.2639  0.2081 -0.1380
 2554W        W 6073   4.915   2.156  10.458 -0.1180  0.0124 -0.0346
 2555W        W 6074   6.412   1.272   0.105 -0.0796 -0.0112  0.4556
 2556W        W 6075   1.024   2.748   3.171  0.0238 -0.2581 -0.1434
 2557W        W 6076   1.189   2.726   8.634  0.0948  0.0926 -0.0503
 2558W        W 6077   7.794   6.249   2.627 -0.2429  0.0270  0.1188
 2559W        W 6078   0.187   8.164   1.409  0.0706  0.1364  0.1928
 2560W        W 6079   7.748   7.461   1.235 -0.1523  0.5192  0.0882
 2561W        W 6080   7.256   3.721   1.021 -0.1559 -0.4986 -0.1715
 2562W        W 6081   5.040   3.369   3.059 -0.0353  0.1148  0.2557
 2563W        W 6082   4.467   3.608   8.521  0.1349 -0.0205  0.5431
 2564W        W 6083   1.197   2.611   9.698 -0.3113  0.1945  0.1204
 2565W        W 6084   4.222   1.708   0.931 -0.3408 -0.1227  0.0107
 2566W        W 6085   0.095   6.075  10.170 -0.0858 -0.1171 -0.2088
 2567W        W 6086   7.045   0.206   9.210 -0.0065  0.2240 -0.1385
 2568W        W 6087   2.607   1.023  10.735 -0.1853 -0.4613  0.0302
 2569W        W 6088   8.813   8.479   2.693 -0.0852  0.3877 -0.0650
 2570W        W 6089   1.999   4.255   3.223 -0.4010 -0.3177  0.0951
 2571W        W 6090   6.037   4.389  10.910 -0.1490 -0.0019  0.2404
 2572W        W 6091   7.465   0.788   8.543  0.0090 -0.1897 -0.1978
 2573W        W 6092   3.127   8.776  11.829  0.0768  0.0344 -0.0319
 2574W        W 6093   7.944   9.622  10.926  0.0706  0.1377 -0.1449
 2575W        W 6094   2.285   3.638   1.314 -0.3953 -0.1139 -0.0354
 2576W        W 6095   5.080   4.919   2.622  0.0920 -0.1334 -0.0143
 2577W        W 6096   4.886   6.851   1.034 -0.0409  0.1717 -0.1022
 2578W        W 6097   0.655   0.368   0.562  0.0367  0.1825 -0.1802
 2579W        W 6098   7.560   6.720   0.491  0.2275 -0.1031  0.0070
 2580W        W 6099   6.356   5.736   2.171 -0.0899 -0.0599  0.3051
 2581W        W 6100   4.776   4.035   2.221 -0.0167 -0.4261  0.1435
 2582W        W 6101   7.655   2.359   2.102  0.5271  0.4077  0.2646
 2583W        W 6102   9.069   1.860   2.632 -0.1551 -0.0919  0.2664
 2584W        W 6103   8.733   6.410   0.736 -0.0047 -0.1230  0.0327
 2585W        W 6104   8.618   3.128  11.290  0.1992  0.2138 -0.0035
 2586W        W 6105   0.907   7.904   2.593  0.4390 -0.0362 -0.2442
 2587W        W 6106   0.845   5.166   2.632 -0.1829  0.5781  0.0241
 2588W        W 6107   7.860   9.289   3.486 -0.2027  0.3537 -0.1569
 2589W        W 6108   5.952   4.868   2.440  0.2132 -0.1062 -0.1723
 2590W        W 6109   3.052   4.809  10.242  0.0709  0.0039 -0.4319
 2591W        W 6110   0.295   4.430   2.532 -0.2824 -0.0575  0.2020
 2592W        W 6111   1.580   3.982   0.620  0.0484 -0.3884  0.0690
 2593W        W 6112   0.247   6.850   8.599 -0.0539 -0.0770  0.0218
 2594W        W 6113   2.156   8.975   9.913 -0.3720  0.2134  0.4011
 2595W        W 6114   4.796   7.759   0.745 -0.0758 -0.1283  0.0798
 2596W        W 6115   0.622   6.697   2.308 -0.0484 -0.0300  0.0718
 2597W        W 6116   8.875   6.323   2.696  0.0250 -0.0490 -0.0669
 2598W        W 6117   2.645   7.433  10.336 -0.0538  0.0676 -0.2503
 2599W        W 6118   8.659   7.312  10.370 -0.1386 -0.0719  0.0264
 2600W        W 6119   8.053   2.722   3.049  0.1410 -0.2700 -0.1847
 2601W        W 6120   8.452   3.587   9.672 -0.3404  0.1929 -0.3047
 2602W        W 6121   4.556   3.956  10.896 -0.2419  0.0703  0.0867
 2603W        W 6122   8.536   0.474   2.799 -0.3500  0.1288 -0.1465
 2604W        W 6123   8.438   0.584   8.607 -0.1417  0.3961 -0.1270
 2605W        W 6124   3.955   0.633   7.526  0.0515  0.0993  0.2502
 2606W        W 6125   8.912   0.837   2.829  0.1375 -0.1485  0.0587
 2607W        W 6126   0.375   0.010   0.035  0.0662 -0.2846  0.0401
 2608W        W 6127   2.712   7.983  10.958  0.0062 -0.1074  0.1000
 2609W        W 6128   5.219   8.554   0.554 -0.0183 -0.1393 -0.3225
 2610W        W 6129   8.684   7.981   8.317 -0.0220  0.0770 -0.0985
 2611W        W 6130   6.957   2.408   7.958  0.2338 -0.2277  0.1847
 2612W        W 6131   9.415   4.461   2.530 -0.0000  0.1166 -0.1921
 2613W        W 6132   8.680   5.244   8.005  0.2924 -0.0602 -0.0687
 2614W        W 6133   1.511   2.342   3.202  0.1534 -0.1750 -0.0626
 2615W        W 6134   0.392   4.969   1.211  0.0911  0.1080  0.1461
 2616W        W 6135   5.593   3.390   8.516  0.0922 -0.0078 -0.2313
 2617W        W 6136   9.761   5.603  10.111 -0.2289 -0.1445 -0.0400
 2618W        W 6137   7.648   1.442   0.145 -0.2217 -0.2352  0.1675
 2619W        W 6138   1.276   5.154   0.935  0.1102  0.1271 -0.0746
 2620W        W 6139   1.515   7.737   3.850  0.0248  0.0308 -0.0019
 2621W        W 6140   4.953   9.467   0.438  0.0776  0.2134 -0.2835
 2622W        W 6141   7.021   0.628   0.537 -0.1867  0.0191  0.2961
 2623W        W 6142   1.926   2.721  10.605 -0.0425  0.0912  0.0251
 2624W        W 6143   1.211   2.142   0.353 -0.2025 -0.0186 -0.0992
 2625W        W 6144   3.545   5.064  11.105 -0.3648  0.1093 -0.0392
 2626W        W 6145   2.152   8.597   8.185 -0.1980 -0.1176  0.2299
 2627W        W 6146   0.673   8.579   8.882  0.4238  0.2202 -0.2940
 2628W        W 6147   1.141   3.102   4.452  0.0341  0.1057  0.0941
 2629W        W 6148   1.658   2.019   0.544  0.1452  0.3962  0.0819
 2630W        W 6149   5.923   8.254  10.834 -0.0730 -0.0922 -0.1520
 2631W        W 6150   6.683   9.287   6.989  0.1643  0.0723 -0.2413
 2632W        W 6151   8.437   3.759   1.289 -0.5409 -0.1524 -0.1059
 2633W        W 6152   1.671   7.773   1.303 -0.0528 -0.0413 -0.1848
 2634W        W 6153   9.739   8.645   2.217  0.2642  0.1686 -0.1473
 2635W        W 6154   3.410   5.155  10.170 -0.1381  0.0341 -0.2679
 2636W        W 6155   5.317   1.474  11.923 -0.1094  0.0705  0.0894
 2637W        W 6156   2.838   1.270   1.883  0.0534  0.2616  0.2145
 2638W        W 6157   5.622   8.817   9.648 -0.0418 -0.1736 -0.1500
 2639W        W 6158   4.329   5.177   2.715 -0.2648 -0.1046 -0.1569
 2640W        W 6159   0.629   2.126   0.045  0.2875  0.3906 -0.1051
 2641W        W 6160   7.929   4.920   0.294  0.0810  0.3799  0.2403
 2642W        W 6161   9.012   8.842  11.129 -0.2118 -0.1221 -0.0278
 2643W        W 6162   7.812   4.982   3.162 -0.3332 -0.0601 -0.1595
 2644W        W 6163   5.343   7.025  10.787  0.0038  0.2239  0.3270
 2645W        W 6164   7.264   4.266   1.921 -0.0430 -0.1953  0.1188
 2646W        W 6165   9.095   4.832   2.746 -0.3530 -0.2251  0.4522
 2647W        W 6166   7.464   7.956   3.161  0.1330 -0.1371  0.0699
 2648W        W 6167   2.313   6.065   7.824 -0.1293  0.1107 -0.0706
 2649W        W 6168   2.692   1.058  10.110  0.1058 -0.2125  0.0217
 2650W        W 6169   1.767   2.174   2.247  0.0655 -0.1897 -0.0535
 2651W        W 6170   0.207   4.764   1.640 -0.2655  0.1102 -0.0093
 2652W        W 6171   7.049   2.636   3.242 -0.1795  0.2035 -0.3838
 2653W        W 6172   7.672   4.957   2.312  0.3808 -0.0765 -0.1487
 2654W        W 6173   8.584   1.790   7.689  0.0916  0.3310  0.2138
 2655W        W 6174   3.350   1.455   3.019  0.2141 -0.0292 -0.2122
 2656W        W 6175   6.514   5.228  11.849 -0.0028 -0.3885  0.0821
 2657W        W 6176   7.199   6.924  10.444 -0.0035  0.2245  0.2654
 2658W        W 6177   2.586   3.870   3.792  0.0589 -0.2229 -0.0304
 2659W        W 6178   7.588   1.461  10.625  0.0344 -0.2192  0.0979
 2660W        W 6179   1.734   3.674   3.876 -0.0038  0.0750  0.2457
 2661W        W 6180   6.656   2.227  11.796  0.1759  0.1562 -0.3262
 2662W        W 6181   8.193   3.276   2.697  0.1112 -0.4722  0.1278
 2663W        W 6182   3.486   9.290   8.759  0.6058  0.0883  0.0137
 2664W        W 6183   6.649   8.669   7.270  0.2338 -0.0065 -0.0682
 2665W        W 6184   2.622   1.025   8.826 -0.2630 -0.0235  0.0197
 2666W        W 6185   9.358   6.565   7.808 -0.1716 -0.1833 -0.0975
 2667W        W 6186   1.420   2.103  11.472 -0.1272 -0.0069 -0.3169
 2668W        W 6187   7.780   7.037   1.569  0.3249  0.1295  0.0044
 2669W        W 6188   3.380   0.183   8.747  0.0653 -0.3645  0.0569
 2670W        W 6189   6.473   8.975  11.850  0.5220 -0.3957 -0.0166
 2671W        W 6190   7.577   0.335   3.046  0.0230 -0.0750  0.4025
 2672W        W 6191   2.435   9.094   1.019 -0.4854 -0.0358 -0.1331
 2673W        W 6192   5.951   3.869  10.864 -0.1008  0.1972 -0.0371
 2674W        W 6193   6.632   5.802   8.563  0.2212 -0.0047 -0.3743
 2675W        W 6194   1.213   6.446   2.323 -0.0567  0.4836  0.2575
 2676W        W 6195   7.229   3.694   8.237  0.0026 -0.1132  0.3459
 2677W        W 6196   1.928   5.423   2.054 -0.1342  0.2959 -0.0062
 2678W        W 6197   4.542   0.310  11.775  0.0572 -0.0298 -0.0402
 2679W        W 6198   1.220   0.136  11.500  0.1669 -0.1134 -0.0127
 2680W        W 6199   0.712   5.279   3.916 -0.2032  0.0979  0.2474
 2681W        W 6200   4.515   4.867   9.074  0.6585 -0.1660 -0.1545
 2682W        W 6201   6.738   7.951   3.605 -0.1332 -0.1225  0.0011
 2683W        W 6202   7.432   0.238  11.858  0.2506  0.0640  0.1493
 2684W        W 6203   6.362   7.184   9.104  0.3269 -0.1147  0.0546
 2685W        W 6204   5.732   0.965   7.782  0.0776 -0.3402  0.1144
 2686W        W 6205   4.239   4.506   4.174 -0.0067 -0.0473  0.1245
 2687W        W 6206   5.725   3.958   8.675  0.1746  0.0565 -0.1259
 2688W        W 6207   5.011   4.225   1.561  0.1048 -0.0197  0.3121
 2689W        W 6208   5.523   0.511   2.727 -0.0857 -0.4001  0.0156
 2690W        W 6209   2.996   1.223  10.478 -0.0580 -0.0573  0.2215
 2691W        W 6210   0.368   6.303  10.977  0.3272 -0.0811 -0.0073
 2692W        W 6211   2.490   0.350   2.746 -0.3897 -0.0340 -0.3414
 2693W        W 6212   8.559   1.370  10.677  0.2075 -0.1157  0.2877
 2694W        W 6213   0.355   4.441   3.251 -0.0829  0.3515 -0.0590
 2695W        W 6214   9.623   1.843   1.985 -0.1807 -0.0946  0.2688
 2696W        W 6215   6.511   6.656  11.488  0.1368  0.2805  0.1906
 2697W        W 6216   2.254   2.851   2.689  0.1672 -0.1821  0.1587
 2698W        W 6217   6.234   1.652   1.292  0.0595  0.1293 -0.0929
 2699W        W 6218   5.858   8.671   3.780 -0.3242  0.2457 -0.2372
 2700W        W 6219   9.716   7.101  11.023  0.3932 -0.0425  0.0114
 2701W        W 6220   4.741   4.843  10.358  0.1640  0.0113  0.0373
 2702W        W 6221   7.038   6.587   1.078 -0.2781  0.0001 -0.2462
 2703W        W 6222   5.161   1.131   0.243 -0.2245  0.1385 -0.2652
 2704W        W 6223   0.309   1.600   1.173  0.0536 -0.0200 -0.1033
 2705W        W 6224   5.873   2.049   3.109  0.2629 -0.1432  0.1843
 2706W        W 6225   3.158   7.375  10.496  0.1683 -0.0871 -0.0961
 2707W        W 6226   3.728   4.994   2.905 -0.2934  0.0378  0.0436
 2708W        W 6227   7.542   9.686   0.016 -0.0738  0.2671 -0.0790
 2709W        W 6228   3.686   0.329   0.905  0.2645  0.0225  0.1819
 2710W        W 6229   9.797   4.986  11.171  0.3222  0.1204  0.2775
 2711W        W 6230   4.730   6.537   2.513 -0.1801 -0.0042  0.0585
 2712W        W 6231   9.221   7.804  10.045 -0.0194  0.3101  0.0266
 2713W        W 6232   8.973   5.654   9.448  0.1460 -0.2250  0.2463
 2714W        W 6233   8.923   9.331  10.924 -0.1715  0.1862  0.2712
 2715W        W 6234   4.907   9.276   9.490  0.2743 -0.1967  0.1078
 2716W        W 6235   9.451   6.087  11.415  0.2329  0.0682 -0.2870
 2717W        W 6236   7.977   3.458   3.565  0.1112 -0.2794  0.2476
 2718W        W 6237   6.012   0.251   2.127 -0.1256 -0.0526 -0.1552
 2719W        W 6238   8.581   8.506  11.206  0.5419  0.0299 -0.0568
 2720W        W 6239   0.151   9.106   9.355  0.0403  0.2686 -0.0102
 2721W        W 6240   4.771   2.432   7.801  0.2636 -0.2660 -0.0433
 2722W        W 6241   2.521   7.826   1.334 -0.0238  0.2229  0.2421
 2723W        W 6242   4.729   6.195   8.897 -0.0339  0.1525  0.2570
 2724W        W 6243   8.244   5.026   3.920  0.0227 -0.1183 -0.1623
 2725W        W 6244   0.620   3.131   9.432 -0.1517 -0.0154  0.1263
 2726W        W 6245   5.118   7.297   3.071 -0.3503  0.3134  0.2298
 2727W        W 6246   6.804   5.577   2.059 -0.0652  0.1434  0.2897
 2728W        W 6247   1.525   9.203   1.397  0.0519  0.0900 -0.1155
 2729W        W 6248   3.486   9.627   7.731 -0.0689 -0.0091 -0.1633
 2730W        W 6249   2.563   8.913   3.809 -0.0138 -0.0727  0.0956
 2731W        W 6250   0.828   5.705   0.627  0.0802  0.2284 -0.1145
 2732W        W 6251   3.712   7.123   0.450 -0.1475  0.0879 -0.0213
 2733W        W 6252   8.617   9.468   1.621  0.0800  0.0458  0.2091
 2734W        W 6253   2.494   3.514  10.756  0.2308 -0.2085  0.5159
 2735W        W 6254   3.876   4.359   8.174 -0.0424 -0.1106 -0.0375
 2736W        W 6255   1.255   3.431  10.690  0.1483 -0.2717 -0.1040
 2737W        W 6256   9.157   8.881   7.504 -0.5258 -0.3305  0.0678
 2738W        W 6257   3.643   7.573   3.082 -0.1824 -0.0290  0.0635
 2739W        W 6258   4.194   8.215  11.922  0.0554 -0.1195  0.0627
 2740W        W 6259   7.263   7.626   1.384  0.0975 -0.0868  0.1650
 2741W        W 6260   5.055   7.290   0.863 -0.2914 -0.0063  0.0580
 2742W        W 6261   7.690   2.540   9.412 -0.0746  0.0743  0.1673
 2743W        W 6262   7.084   7.522   9.765  0.0919 -0.1114 -0.0817
 2744W        W 6263   7.958   7.488   7.853  0.1623 -0.0292 -0.1563
 2745W        W 6264   1.548   2.300   1.238  0.4824  0.0790 -0.2046
 2746W        W 6265   0.140   6.014   1.278  0.0984 -0.0757  0.0182
 2747W        W 6266   8.527   0.377   0.760  0.4032  0.2034  0.1102
 2748W        W 6267   8.954   4.596   2.333 -0.0536  0.0018 -0.0379
 2749W        W 6268   5.790   5.219   1.860  0.1350  0.0835 -0.0727
 2750W        W 6269   2.368   7.374   7.979 -0.1222 -0.0045  0.3049
 2751W        W 6270   9.143   6.641  11.957 -0.1339  0.4979  0.1110
 2752W        W 6271   7.778   4.337   1.298 -0.3849  0.1766  0.1517
 2753W        W 6272   0.066   0.979   2.470  0.3662 -0.3234  0.2250
 2754W        W 6273   3.510   9.659   9.659 -0.4613 -0.1078  0.1460
 2755W        W 6274   1.607   6.189   1.238 -0.1098 -0.0693  0.2850
 2756W        W 6275   8.903   7.693   8.603  0.1422 -0.1077 -0.2175
 2757W        W 6276   7.689   9.288   2.413  0.0345  0.0343 -0.0214
 2758W        W 6277   3.492   7.998  11.364  0.1197 -0.1236 -0.1143
 2759W        W 6278   6.858   5.778  11.174 -0.0021 -0.0126 -0.0464
 2760W        W 6279   3.566   3.763   8.627 -0.3876  0.2292  0.0515
 2761W        W 6280   1.036   1.671   0.073 -0.4308  0.0214  0.2486
 2762W        W 6281   1.608   8.797   2.320  0.0462 -0.0931  0.0258
 2763W        W 6282   1.287   5.005  11.675 -0.3561 -0.0635 -0.0561
 2764W        W 6283   2.849   7.611   8.844 -0.0539 -0.2672  0.1484
 2765W        W 6284   9.094   6.615   7.330  0.0899  0.2011  0.0828
 2766W        W 6285   3.168   0.954   2.277  0.1686  0.1479 -0.3609
 2767W        W 6286   5.769   2.968   3.240  0.0340 -0.0844  0.1337
 2768W        W 6287   5.745   9.163   2.005  0.0814  0.0275  0.1639
 2769W        W 6288   7.322   5.671   9.267  0.2931 -0.3858 -0.0634
 2770W        W 6289   8.688   5.005   2.527 -0.3720  0.3259  0.0381
 2771W        W 6290   2.416   0.323   1.265  0.3839  0.1262  0.0170
 2772W        W 6291   5.590   6.721   8.951 -0.2164  0.0656  0.0090
 2773W        W 6292   5.125   6.371   2.147 -0.1440 -0.1057 -0.0305
 2774W        W 6293   5.464   0.332  10.738  0.0989 -0.1650 -0.1880
 2775W        W 6294   5.028   4.804  10.793  0.1894  0.0127  0.2670
 2776W        W 6295   0.033   8.601   2.831 -0.0989  0.1966  0.0648
 2777W        W 6296   6.008   8.402   7.655 -0.0876 -0.0601  0.0089
 2778W        W 6297   1.419   8.584   9.519 -0.0662  0.1024 -0.0808
 2779W        W 6298   3.022   6.448   0.668  0.0984 -0.3460 -0.4692
 2780W        W 6299   8.470   6.808  10.656 -0.3133 -0.2293  0.2208
 2781W        W 6300   3.598   8.157   1.264  0.3308 -0.0576 -0.0830
 2782W        W 6301   4.790   7.188   9.155  0.1397  0.2111  0.0222
 2783W        W 6302   7.571   9.361   0.982  0.0505  0.1938  0.0763
 2784W        W 6303   0.530   9.453   0.206 -0.3011  0.2299  0.0072
 2785W        W 6304   3.634   1.304   9.128 -0.3683  0.0842 -0.1729
 2786W        W 6305   7.698   2.074   8.598 -0.1633  0.0458  0.0774
 2787W        W 6306   5.045   0.870   7.771  0.2097 -0.0368  0.1409
 2788W        W 6307   8.919   0.904   3.311 -0.2720 -0.0678  0.1075
 2789W        W 6308   1.079   5.313  11.309  0.0694  0.1510 -0.0318
 2790W        W 6309   5.998   5.363   2.340 -0.2756  0.0597 -0.0550
 2791W        W 6310   3.443   5.327   3.154 -0.4637  0.3259  0.1280
 2792W        W 6311   1.650   3.773  10.680  0.0860 -0.4263 -0.1905
 2793W        W 6312   7.846   8.703   9.351  0.0279 -0.1342 -0.1768
 2794W        W 6313   6.954   7.025   9.859 -0.0775 -0.2023  0.0535
 2795W        W 6314   3.841   3.694   1.037  0.2440 -0.1049  0.2472
 2796W        W 6315   4.084   7.012   7.803  0.0556  0.4001  0.0181
 2797W        W 6316   5.263   6.728   3.034 -0.0837  0.1425 -0.2245
 2798W        W 6317   0.129   0.318   2.841 -0.2598 -0.1039  0.1644
 2799W        W 6318   0.704   8.590  10.857 -0.1329  0.3519 -0.3260
 2800W        W 6319   0.225   7.923   1.922  0.2045 -0.2053 -0.3214
 2801W        W 6320   5.943   2.026   1.348  0.1379  0.0655 -0.0047
 2802W        W 6321   6.324   7.452   3.391  0.0007 -0.1294 -0.3242
 2803W        W 6322   3.612   9.879   0.385  0.0953 -0.1077  0.2298
 2804W        W 6323   2.066   4.941  11.078  0.2443  0.1379  0.0519
 2805W        W 6324   0.879   9.148  11.706 -0.0937 -0.0726  0.1330
 2806W        W 6325   1.632   6.728   2.457 -0.0352  0.2633 -0.1071
 2807W        W 6326   0.367   5.909  11.276  0.0286  0.0628 -0.0719
 2808W        W 6327   5.199   6.990  11.269  0.4034 -0.0617 -0.1515
 2809W        W 6328   0.072   3.191   3.401 -0.0216  0.3718  0.0693
 2810W        W 6329   1.572   8.293   3.110  0.2082  0.1403  0.1707
 2811W        W 6330   5.551   8.917   7.984  0.0368 -0.1436  0.1673
 2812W        W 6331   6.514   6.316   3.204 -0.5842 -0.0193 -0.1324
 2813W        W 6332   6.745   3.347   8.100 -0.1860 -0.0279 -0.1117
 2814W        W 6333   0.387   1.528  10.118  0.1244 -0.0932  0.1360
 2815W        W 6334   3.269   9.809   8.386 -0.1572 -0.1523 -0.0958
 2816W        W 6335   0.841   5.438   1.147 -0.2260  0.2638  0.1612
 2817W        W 6336   4.613   8.959   7.784 -0.0689  0.1466  0.3156
 2818W        W 6337   3.867   3.138   9.186 -0.0834  0.1428  0.0685
 2819W        W 6338   8.999   0.721   8.754  0.0082 -0.0613 -0.2968
 2820W        W 6339   4.243   9.138   7.468 -0.0237  0.0795  0.0642
 2821W        W 6340   9.212   8.601   9.364 -0.2193  0.2373 -0.1597
 2822W        W 6341   9.512   5.601   9.062 -0.1948 -0.5391 -0.0108
 2823W        W 6342   6.890   0.464   7.425  0.0029  0.1022  0.0260
 2824W        W 6343   1.705   8.009   0.845 -0.0827  0.2760  0.1166
 2825W        W 6344   6.739   5.116   9.186  0.1856  0.0414  0.0811
 2826W        W 6345   5.312   1.083   8.239 -0.1252 -0.0291 -0.2214
 2827W        W 6346   8.572   5.584   9.071  0.2083  0.0971 -0.0325
 2828W        W 6347   3.604   7.635  10.100 -0.2452 -0.0435 -0.0734
 2829W        W 6348   6.972   4.723   0.106 -0.2261  0.2142 -0.0351
 2830W        W 6349   7.493   7.081   2.690 -0.0185  0.0456 -0.0798
 2831W        W 6350   5.926   1.757   0.847  0.1829  0.2821 -0.0558
 2832W        W 6351   9.194   9.222   3.649 -0.0440 -0.0139  0.1479
 2833W        W 6352   9.726   9.421   2.875 -0.0086  0.0802 -0.0785
 2834W        W 6353   9.219   8.601   0.109  0.1426 -0.0830 -0.0380
 2835W        W 6354   2.371   1.350   1.202  0.2182 -0.2641 -0.0416
 2836W        W 6355   8.583   8.399   9.937  0.1666  0.1649  0.0269
 2837W        W 6356   6.619   8.644   0.796 -0.0829  0.3452 -0.5041
 2838W        W 6357   6.221   3.751  10.218 -0.3318  0.0425 -0.0013
 2839W        W 6358   8.217   4.698   1.638  0.1207 -0.2738  0.3177
 2840W        W 6359   7.725   6.805   0.035  0.2236  0.2572  0.0848
 2841W        W 6360   3.761   6.436   1.594  0.2949 -0.0815 -0.1180
 2842W        W 6361   3.392   4.137  10.104  0.2063  0.1551 -0.1206
 2843W        W 6362   5.680   7.333   9.973  0.0329  0.0348  0.0724
 2844W        W 6363   8.294   3.633   2.279 -0.1956 -0.1302  0.1009
 2845W        W 6364   0.955   5.743   8.452 -0.4481  0.2727 -0.4187
 2846W        W 6365   9.416   7.206   8.042 -0.1905 -0.1732 -0.4016
 2847W        W 6366   5.233   7.642   0.542 -0.2074  0.4315 -0.2216
 2848W        W 6367   1.288   8.451   8.710 -0.0700 -0.0259 -0.3909
 2849W        W 6368   1.461   7.702   0.252  0.0597  0.2456 -0.2960
 2850W        W 6369   0.146   4.466   0.453  0.1626  0.2375 -0.1599
 2851W        W 6370   5.839   7.822  11.072  0.0149  0.2080 -0.0310
 2852W        W 6371   4.321   3.758   9.917 -0.1060  0.0355  0.2706
 2853W        W 6372   5.935   7.161   1.720 -0.0675  0.4910  0.1617
 2854W        W 6373   6.413   3.005   8.331  0.1164 -0.0307 -0.0393
 2855W        W 6374   2.211   9.050   6.894  0.2288 -0.1061 -0.2419
 2856W        W 6375   4.935   7.672   7.563  0.0584 -0.1529  0.0712
 2857W        W 6376   4.160   1.008   2.442  0.3315 -0.0106 -0.1412
 2858W        W 6377   8.868   6.343   3.783 -0.2696 -0.0339  0.0993
 2859W        W 6378   8.983   3.462   1.434 -0.0746  0.0247 -0.1208
 2860W        W 6379   3.605   5.740   0.266 -0.2124 -0.0965  0.1716
 2861W        W 6380   8.628   1.583  11.949 -0.3254 -0.0901  0.3775
 2862W        W 6381   5.698   9.387   1.603 -0.1660 -0.1780  0.2300
 2863W        W 6382   5.021   3.149  10.241 -0.2304  0.0858 -0.0315
 2864W        W 6383   9.421   4.059   0.942  0.1653 -0.1549 -0.3869
 2865W        W 6384   7.971   6.695   0.757  0.0299 -0.0048  0.0066
 2866W        W 6385   6.894   7.881   9.403  0.2060 -0.1349 -0.0134
 2867W        W 6386   6.523   4.420   2.652  0.0026  0.1044  0.1677
 2868W        W 6387   2.990   6.132  10.783 -0.0279 -0.0407 -0.0046
 2869W        W 6388   0.698   6.805   3.156 -0.3520  0.0179 -0.1818
 2870W        W 6389   9.881   1.297   9.882 -0.1048 -0.0167 -0.1929
 2871W        W 6390   4.992   4.657   3.442  0.2675 -0.3509 -0.4684
 2872W        W 6391   3.268   7.949   9.722 -0.1105 -0.0514  0.0445
 2873W        W 6392   0.340   9.065   9.855 -0.0618 -0.2704  0.3491
 2874W        W 6393   3.583   5.662  10.151  0.0907  0.0284 -0.0293
 2875W        W 6394   2.184   5.533   9.910  0.1699 -0.1271 -0.3349
 2876W        W 6395   1.403   7.062   2.756  0.0432 -0.0298 -0.1990
 2877W        W 6396   3.952   4.986   0.217  0.0343  0.2521  0.4821
 2878W        W 6397   8.964   3.343   2.867 -0.0292 -0.0511  0.2813
 2879W        W 6398   6.839   9.783   2.376  0.3072  0.1515  0.1633
 2880W        W 6399   2.618   4.782   1.093  0.1146 -0.1108 -0.4599
 2881W        W 6400   9.412   7.713   2.559 -0.0361 -0.2480 -0.1669
 2882W        W 6401   5.409   3.740   0.812 -0.0395  0.2569  0.2627
 2883W        W 6402   4.509   7.195   0.715 -0.2055 -0.1501 -0.2060
 2884W        W 6403   0.686   3.250   4.188 -0.0672  0.2549 -0.2591
 2885W        W 6404   1.653   7.207   2.154 -0.0720 -0.0549 -0.2485
 2886W        W 6405   4.161   9.911   2.074 -0.0223 -0.1886  0.1678
 2887W        W 6406   5.963   0.161  10.663  0.0984  0.0740  0.1168
 2888W        W 6407   5.640   4.847   1.381 -0.1294 -0.0631 -0.0247
 2889W        W 6408   2.454   0.442   0.363 -0.3076  0.2291  0.0021
 2890W        W 6409   6.540   8.787   0.313 -0.3601  0.1283  0.0923
 2891W        W 6410   3.283   0.281  10.633  0.2870  0.1388  0.1916
 2892W        W 6411   9.550   9.285   9.537  0.0244  0.2593 -0.1933
 2893W        W 6412   0.770   9.916  11.345 -0.2518 -0.0704  0.3497
 2894W        W 6413   3.804   7.007   2.537 -0.0064  0.3316 -0.4130
 2895W        W 6414   2.604   4.668  10.073 -0.1812  0.1148  0.0263
 2896W        W 6415   4.354   4.225   3.690 -0.2916  0.1224 -0.1474
 2897W        W 6416   7.152   0.587   7.949  0.2069  0.0732  0.3134
 2898W        W 6417   9.803   7.279  11.797 -0.1136 -0.0575  0.0885
 2899W        W 6418   8.266   0.500  11.232  0.1924  0.1218  0.0163
 2900W        W 6419   9.656   7.191   8.513 -0.1353  0.2576  0.0953
 2901W        W 6420   7.926   7.380   3.855  0.2408 -0.0531  0.1747
 2902W        W 6421   5.352   2.573   0.781 -0.3811  0.0655  0.1273
 2903W        W 6422   8.291   7.320  11.734  0.0831  0.0124  0.1201
 2904W        W 6423   8.044   4.430   0.172 -0.2990 -0.0976  0.0101
 2905W        W 6424   6.998   5.381   2.925  0.4008 -0.0311  0.0598
 2906W        W 6425   2.995   4.914  11.405 -0.0861  0.0878 -0.0851
 2907W        W 6426   8.632   8.682   0.840 -0.1398  0.3036 -0.1990
 2908W        W 6427   9.199   5.235   0.559  0.0633  0.0417  0.0484
 2909W        W 6428   5.596   2.623   1.850 -0.0163 -0.0635  0.1343
 2910W        W 6429   6.350   0.320   1.633  0.1111 -0.0430  0.1145
 2911W        W 6430   6.893   9.397   3.191  0.0146 -0.3507  0.0754
 2912W        W 6431   8.054   0.766   0.996  0.1504  0.2222  0.1544
 2913W        W 6432   0.788   1.859  10.323 -0.0113 -0.0138 -0.0088
 2914W        W 6433   3.927   9.197  10.395 -0.1808 -0.0367 -0.1844
 2915W        W 6434   5.545   7.325   0.799 -0.0349 -0.0822 -0.0047
 2916W        W 6435   1.110   2.611   4.411 -0.2169 -0.0211 -0.2409
 2917W        W 6436   5.888   2.131   1.834 -0.3933 -0.0165 -0.0451
 2918W        W 6437   1.273   8.036   0.617 -0.1057  0.3217  0.3523
 2919W        W 6438   0.092   5.107   9.553  0.3481 -0.1316 -0.0925
 2920W        W 6439   0.107   3.686   2.668  0.0146 -0.2164 -0.1761
 2921W        W 6440   5.276   0.302   1.268  0.1697  0.0954  0.2057
 2922W        W 6441   8.778   8.330   3.449 -0.1900  0.0590 -0.0647
 2923W        W 6442   4.867   7.916   2.973  0.1002  0.2825 -0.0315
 2924W        W 6443   5.412   0.661   3.224  0.1856  0.0081 -0.0350
 2925W        W 6444   4.442   8.095   8.359  0.5789 -0.2342 -0.2443
 2926W        W 6445   4.377   4.447  11.859 -0.1428  0.0191  0.1820
 2927W        W 6446   0.185   7.292  11.316 -0.1278 -0.2921  0.2307
 2928W        W 6447   6.369   2.708  10.355  0.1105  0.0053 -0.0690
 2929W        W 6448   3.678   2.624   8.123 -0.1585  0.0746 -0.3352
 2930W        W 6449   1.257   0.577   9.759  0.1367  0.4287 -0.2777
 2931W        W 6450   2.615   4.026   1.608 -0.1642  0.2656  0.2942
 2932W        W 6451   2.568   6.221   2.360 -0.0706 -0.1778 -0.0494
 2933W        W 6452   9.756   1.033   0.426  0.1845  0.1139 -0.0758
 2934W        W 6453   6.781   4.726   8.291 -0.0361  0.3091  0.2216
 2935W        W 6454   1.954   0.588   1.146 -0.0127 -0.0135  0.4623
 2936W        W 6455   1.531   2.995   8.860 -0.0791 -0.1277 -0.4111
 2937W        W 6456   9.301   9.724   3.733  0.0214  0.0575 -0.0716
 2938W        W 6457   0.589   1.476  10.638  0.0127 -0.0458  0.2230
 2939W        W 6458   8.569   0.011   2.405 -0.4383 -0.1618  0.1289
 2940W        W 6459   3.779   9.903   8.951  0.0512  0.1861  0.1533
 2941W        W 6460   1.181   1.033  10.038 -0.0087 -0.0861  0.1876
 2942W        W 6461   1.690   4.216   0.169  0.2451  0.2418 -0.1102
 2943W        W 6462   5.409   5.579   9.239  0.1870 -0.2816 -0.3063
 2944W        W 6463   8.949   4.841   0.959 -0.4441  0.2077 -0.1691
 2945W        W 6464   7.765   3.089   9.517  0.3936  0.1992 -0.3009
 2946W        W 6465   7.993   4.049  10.343 -0.2118 -0.2476  0.0122
 2947W        W 6466   5.839   1.807  11.964  0.0723  0.1194 -0.2486
 2948W        W 6467   4.792   1.590  10.611  0.0838 -0.0167 -0.1533
 2949W        W 6468   4.189   5.061   0.687  0.1544  0.2236 -0.2682
 2950W        W 6469   2.910   7.008  10.989 -0.4028  0.3019 -0.2177
 2951W        W 6470   0.958   7.818   9.270 -0.0601  0.3518  0.0330
 2952W        W 6471   3.429   1.279  10.795 -0.2797 -0.2245 -0.0180
 2953W        W 6472   8.381   3.608  11.159 -0.4072 -0.1971  0.1916
 2954W        W 6473   5.886   5.843  10.920 -0.0860 -0.0116 -0.1318
 2955W        W 6474   1.717   0.866   9.204  0.2640  0.0596 -0.4851
 2956W        W 6475   7.948   7.610   0.520 -0.3136 -0.1911  0.0072
 2957W        W 6476   9.546   7.609   3.424  0.0327  0.2189  0.3505
 2958W        W 6477   5.166   4.900  11.585 -0.0491  0.1354 -0.2618
 2959W        W 6478   0.164   8.020  11.968 -0.0502  0.1382  0.1929
 2960W        W 6479   0.669   4.981   3.406  0.0395 -0.0313 -0.0671
 2961W        W 6480   4.137   5.462  10.916  0.0122  0.4505  0.1541
 2962W        W 6481   8.332   3.261  10.340 -0.1329  0.0767  0.1519
 2963W        W 6482   2.922   2.847  11.784 -0.2155  0.3352  0.1331
 2964W        W 6483   5.909   4.927  10.151 -0.0106 -0.0138  0.1826
 2965W        W 6484   6.191   7.855   0.667  0.0982  0.3133  0.1482
 2966W        W 6485   4.727   0.669   8.826 -0.2214 -0.1974  0.0873
 2967W        W 6486   1.695   3.718   0.008 -0.3164 -0.3302 -0.0392
 2968W        W 6487   5.495   8.595  11.513 -0.0233  0.2668 -0.0117
 2969W        W 6488   1.156   4.588  10.850  0.4054  0.1181  0.0182
 2970W        W 6489   4.398   9.256   9.572  0.0225  0.2818  0.0294
 2971W        W 6490   9.671   6.152   9.274  0.0345  0.1739 -0.3370
 2972W        W 6491   0.354   8.181   4.417 -0.0890  0.2887 -0.0131
 2973W        W 6492   7.005   0.952   1.163  0.0356 -0.1849 -0.0952
 2974W        W 6493   0.201   4.724   9.893  0.1109  0.3539 -0.2559
 2975W        W 6494   6.398   3.534   2.720 -0.1099 -0.0487 -0.0746
 2976W        W 6495   4.351   2.504  11.791  0.1741 -0.2856  0.4526
 2977W        W 6496   6.824   1.396   0.919 -0.1858 -0.1254 -0.1356
 2978W        W 6497   3.360   4.200  11.906 -0.0864 -0.2064 -0.1287
 2979W        W 6498   1.161   3.918  10.802  0.3321  0.3426  0.0635
 2980W        W 6499   8.087   9.882   7.629 -0.0977 -0.1952 -0.2741
 2981W        W 6500   9.172   3.065   1.110  0.3196  0.1393  0.0800
 2982W        W 6501   6.209   7.261   7.422  0.0274 -0.0047 -0.2387
 2983W        W 6502   0.758   8.749   3.992  0.1063 -0.1254  0.1086
 2984W        W 6503   3.613   1.149   9.845  0.0070 -0.3408  0.0172
 2985W        W 6504   1.342   9.304   8.916  0.3242  0.2998 -0.2848
 2986W        W 6505   0.781   0.096   9.289 -0.0567 -0.1901  0.1012
 2987W        W 6506   1.675   6.907  10.018  0.0981  0.1837  0.0846
 2988W        W 6507   9.454   3.155   0.415 -0.1560  0.0079  0.2836
 2989W        W 6508   2.198   6.509   9.384  0.0647  0.3719  0.3841
 2990W        W 6509   2.474   4.498   1.507 -0.1174 -0.0569  0.0145
 2991W        W 6510   3.698   0.994   2.275 -0.0367  0.0824 -0.5537
 2992W        W 6511   8.312   0.454   9.801 -0.5018  0.3361 -0.1696
 2993W        W 6512   4.077   1.181   0.052 -0.0130 -0.4417  0.3315
 2994W        W 6513   9.761   0.095   7.757  0.1058  0.1508  0.2542
 2995W        W 6514   1.392   0.275   0.434  0.1728  0.1821  0.2056
 2996W        W 6515   5.634   9.173   0.233  0.2749 -0.3227  0.2630
 2997W        W 6516   3.694   7.862   8.545 -0.2418 -0.2682 -0.0824
 2998W        W 6517   3.471   3.595   8.172 -0.0686 -0.2054  0.0549
 2999W        W 6518   7.212   5.507   0.661  0.2596  0.1115 -0.1265
 3000W        W 6519   0.520   9.709   9.062  0.0111 -0.0450  0.1389
 3001W        W 6520   1.838   8.470   9.833 -0.0099 -0.1562  0.0525
 3002W        W 6521   8.269   3.646   0.817 -0.1635 -0.1872 -0.1239
 3003W        W 6522   5.852   1.831   8.087 -0.2017  0.1294 -0.1646
 3004W        W 6523   1.651   1.218   8.813  0.0497  0.0244  0.2077
 3005W        W 6524   5.816   0.905  10.379 -0.0423  0.2938 -0.1234
 3006W        W 6525   8.612   6.195   2.197  0.0503  0.1526 -0.1913
 3007W        W 6526   0.982   0.726   1.847  0.2226  0.1740  0.0128
 3008W        W 6527   6.722   4.423   9.652 -0.0252 -0.4366 -0.3681
 3009W        W 6528   3.530   9.805   7.246  0.1012  0.2032  0.0736
 3010W        W 6529   1.983   8.872  10.797  0.1043 -0.1251 -0.1252
 3011W        W 6530   1.980   6.807   2.024  0.0775 -0.1388  0.1097
 3012W        W 6531   4.935   6.964  11.767  0.0630  0.2327 -0.1883
 3013W        W 6532   6.449   1.485   0.574 -0.0647 -0.0940 -0.1157
 3014W        W 6533   8.688   7.091   9.442  0.2143  0.1139  0.1062
 3015W        W 6534   1.204   5.927  11.331 -0.2232 -0.1049  0.4901
 3016W        W 6535   1.078   0.405   3.989 -0.1881 -0.2981  0.4234
 3017W        W 6536   5.948   2.405  10.667 -0.3335 -0.1277 -0.2154
 3018W        W 6537   4.333   8.660   0.722  0.2038  0.0725  0.1257
 3019W        W 6538   8.449   9.147   4.434  0.1158  0.0908 -0.0185
 3020W        W 6539   2.157   6.156   8.482 -0.1003  0.1316 -0.0707
 3021W        W 6540   9.841   1.585   1.521  0.0091  0.2649 -0.0412
 3022W        W 6541   6.742   2.539   9.029 -0.0543  0.1288 -0.0235
 3023W        W 6542   0.589   6.182   1.519  0.1717  0.1327  0.2148
 3024W        W 6543   3.974   1.852   2.263 -0.0752 -0.2802 -0.4401
 3025W        W 6544   3.630   7.782   1.818  0.0375 -0.0660 -0.0582
 3026W        W 6545   9.153   9.526  10.407 -0.1462 -0.2439  0.4198
 3027W        W 6546   4.794   2.762   9.620  0.1510 -0.1973 -0.0642
 3028W        W 6547   3.539   4.528   3.068  0.1569 -0.1076 -0.1531
 3029W        W 6548   0.348   0.706   1.038 -0.0997 -0.1412 -0.2523
 3030W        W 6549   5.788   8.047   2.879  0.0459 -0.0417  0.1941
 3031W        W 6550   2.302   9.899   9.425  0.0734 -0.0932 -0.1599
 3032W        W 6551   9.609   3.052  10.056 -0.2136  0.1592 -0.0674
 3033W        W 6552   1.099   8.653   9.883 -0.1459 -0.5059 -0.0663
 3034W        W 6553   4.636   9.499   2.860  0.0949  0.2801  0.0437
 3035W        W 6554   3.528   8.966   3.481  0.0307  0.2345  0.1611
 3036W        W 6555   1.894   1.187   0.324  0.1381  0.0766  0.2332
 3037W        W 6556   5.412   0.656   2.026 -0.0494  0.1461  0.0715
 3038W        W 6557   5.924   2.231   3.742 -0.0555 -0.0019 -0.2086
 3039W        W 6558   0.187   9.909   9.971 -0.3517 -0.2641 -0.1856
 3040W        W 6559   6.022   0.679   2.727  0.1016 -0.0961  0.2336
 3041W        W 6560   2.675   5.173  10.452 -0.1014 -0.5496 -0.0630
 3042W        W 6561   6.748   8.979   1.222 -0.1734  0.0459 -0.0205
 3043W        W 6562   1.668   5.316   3.713  0.1980 -0.0246 -0.0288
 3044W        W 6563   7.584   5.597   1.426 -0.0429 -0.0394 -0.1493
 3045W        W 6564   3.633   8.773  11.921 -0.2036  0.1095  0.2329
 3046W        W 6565   5.661   6.479   0.551  0.2827 -0.3625 -0.4076
 3047W        W 6566   1.862   6.081  10.843  0.2559 -0.2016 -0.2185
 3048W        W 6567   6.728   7.023   1.018 -0.0367  0.0098 -0.0448
 3049W        W 6568   6.302   2.745   8.787  0.4036 -0.3918  0.0415
 3050W        W 6569   2.562   3.920   8.628  0.3271  0.0229 -0.1473
 3051W        W 6570   5.010   1.936   3.224 -0.0472 -0.0041  0.0116
 3052W        W 6571   9.476   6.583   0.374 -0.1119  0.1608 -0.0148
 3053W        W 6572   5.696   8.142   9.497  0.1785 -0.1063  0.2551
 3054W        W 6573   5.434   0.627   8.015  0.2317 -0.0589  0.2052
 3055W        W 6574   6.796   8.195   8.484 -0.1903  0.1146 -0.1351
 3056W        W 6575   7.346   5.105   0.206 -0.1902 -0.0196  0.2564
 3057W        W 6576   3.864   2.547  11.563  0.0521 -0.1529 -0.3238
 3058W        W 6577   1.472   6.936  10.504  0.1628 -0.0337 -0.2770
 3059W        W 6578   8.947   2.203  10.374  0.2432  0.1108 -0.4094
 3060W        W 6579   6.175   7.714   2.528  0.0538 -0.0840  0.0203
 3061W        W 6580   2.210   1.762   2.942  0.4322 -0.1413  0.1804
 3062W        W 6581   7.982   1.517  11.411 -0.2859  0.0884  0.2374
 3063W        W 6582   8.150   1.883   8.473  0.1844  0.0321 -0.1319
 3064W        W 6583   7.621   3.073   1.931  0.2497  0.1348  0.3929
 3065W        W 6584   6.029   8.948  10.797  0.0864 -0.0520 -0.0711
 3066W        W 6585   1.150   9.473   9.943  0.1275  0.0188 -0.2177
 3067W        W 6586   5.589   0.277   1.705 -0.3050 -0.0596  0.1637
 3068W        W 6587   6.665   6.472   1.724 -0.2273  0.1079 -0.2657
 3069W        W 6588   5.623   6.002   8.349 -0.1152 -0.2592 -0.1872
 3070W        W 6589   9.180   9.518  11.547 -0.1372 -0.2763  0.1036
 3071W        W 6590   9.268   3.007  12.009 -0.1007  0.1036  0.2264
 3072W        W 6591   5.811   4.439   8.649  0.1866 -0.1367 -0.3928
 3073W        W 6592   6.802   9.752   9.412 -0.2217 -0.4320  0.2385
 3074W        W 6593   2.081   4.867   1.315 -0.0479  0.1344 -0.1431
 3075W        W 6594   7.437   0.749  11.713  0.1876  0.1693 -0.2098
 3076W        W 6595   0.348   4.007   3.611  0.0439  0.0717 -0.1471
 3077W        W 6596   0.579   2.689   9.868 -0.2564  0.1776  0.0684
 3078W        W 6597   2.616   3.684  10.295  0.1760  0.0503  0.2689
 3079W        W 6598   9.517   2.397   1.105 -0.0836 -0.2238  0.2063
 3080W        W 6599   6.174   5.599   1.710  0.1193 -0.0810  0.0859
 3081W        W 6600   4.672   9.426   8.499 -0.3596 -0.1027  0.1110
 3082W        W 6601   1.068   5.721  10.481 -0.1209 -0.1704  0.0390
 3083W        W 6602   9.920   4.717  11.552  0.3177  0.0757  0.4996
 3084W        W 6603   7.929   5.247   2.767 -0.1179 -0.0391 -0.0361
 3085W        W 6604   6.670   7.330   0.025 -0.2239 -0.2521 -0.0090
 3086W        W 6605   7.195   0.476   2.751 -0.2697 -0.2163  0.2328
 3087W        W 6606   7.254   0.585   1.448  0.1251  0.1892  0.2072
 3088W        W 6607   0.657   7.728   8.507 -0.0472 -0.2356 -0.2772
 3089W        W 6608   0.046   7.928   9.422  0.1750  0.0551 -0.1937
 3090W        W 6609   7.332   0.926   0.251 -0.1571 -0.1132  0.0014
 3091W        W 6610   1.856   3.296  10.677 -0.1007 -0.1409 -0.1666
 3092W        W 6611   2.048   8.497   2.428  0.0680  0.0309  0.1588
 3093W        W 6612   9.657   2.966   3.120 -0.0774  0.1528  0.1297
 3094W        W 6613   4.617   1.228   8.260 -0.0550 -0.2984  0.0756
 3095W        W 6614   0.449   1.884   4.469 -0.1146 -0.0959 -0.1223
 3096W        W 6615   1.970   1.358   3.196  0.5239  0.0139  0.0860
 3097W        W 6616   8.499   8.880   9.848 -0.1632  0.0343  0.0720
 3098W        W 6617   2.906   6.893   0.031  0.0052  0.0616  0.1371
 3099W        W 6618   1.386   5.522   8.225 -0.0574 -0.2773  0.0929
 3100W        W 6619   2.219   3.328  10.352 -0.1113  0.1247 -0.1189
 3101W        W 6620   3.712   0.786   9.454 -0.1631 -0.1235 -0.1080
 3102W        W 6621   8.587   2.149   1.833 -0.0055  0.1811  0.1950
 3103W        W 6622   8.766   5.311   2.015 -0.1486  0.1892  0.0028
 3104W        W 6623   3.347   5.579   2.185 -0.2331  0.0929 -0.1858
 3105W        W 6624   8.813   9.763   9.414  0.3077 -0.1235  0.0091
 3106W        W 6625   7.438   5.454   1.993  0.0516 -0.2747 -0.1566
 3107W        W 6626   7.896   8.665   8.649  0.0820 -0.1098  0.0452
 3108W        W 6627   4.031   4.527   2.847  0.2386 -0.2680 -0.1667
 3109W        W 6628   4.477   4.304   9.039  0.0967  0.3059  0.3266
 3110W        W 6629   9.835   4.197   8.180 -0.2023  0.2662 -0.0143
 3111W        W 6630   5.165   0.976   2.421  0.0736 -0.1498 -0.2072
 3112W        W 6631   5.138   3.047   0.670  0.1716 -0.0408 -0.3166
 3113W        W 6632   7.430   4.470   3.104  0.1819 -0.0030 -0.4025
 3114W        W 6633   9.849   2.459   4.061  0.2169 -0.0654  0.1151
 3115W        W 6634   7.998   2.349  11.969  0.0719  0.0214  0.2196
 3116W        W 6635   7.927   2.160   9.196  0.0684 -0.1892 -0.0250
 3117W        W 6636   9.548   4.508   8.593 -0.1332 -0.1637  0.2626
 3118W        W 6637   7.100   5.505   0.094  0.3186 -0.2886 -0.2692
 3119W        W 6638   3.278   7.687   0.188  0.1117 -0.0520 -0.1781
 3120W        W 6639   7.088   0.562   0.051 -0.0230 -0.5037  0.1020
 3121W        W 6640   5.572   1.679   9.303 -0.1014 -0.0577 -0.0799
 3122W        W 6641   4.434   7.786   0.095 -0.0150  0.0815 -0.1855
 3123W        W 6642   0.193   3.101   2.855 -0.0885 -0.3251 -0.1303
 3124W        W 6643   6.678   1.887   3.057  0.2238  0.2148  0.3629
 3125W        W 6644   5.116   2.796   1.203  0.0297 -0.2726  0.0321
 3126W        W 6645   7.392   6.354   7.664  0.0495  0.0468  0.0642
 3127W        W 6646   0.284   3.076   9.017  0.1877 -0.2386 -0.1262
 3128W        W 6647   3.775   0.173   7.587  0.1702  0.1238  0.1020
 3129W        W 6648   5.441   1.746   2.856 -0.0039 -0.3521  0.1536
 3130W        W 6649   6.728   9.301   0.177 -0.1819  0.1717  0.2211
 3131W        W 6650   3.154   9.238   7.788  0.0585  0.1252  0.0413
 3132W        W 6651   1.183   5.853   9.978  0.2017 -0.1544 -0.1063
 3133W        W 6652   9.828   3.824   3.329 -0.0483 -0.0426 -0.0133
 3134W        W 6653   6.325   9.616   2.348 -0.0501  0.3098 -0.0516
 3135W        W 6654   4.059   4.571   8.980  0.0208 -0.1313  0.2615
 3136W        W 6655   4.497   8.850   1.571 -0.2270  0.1172 -0.2718
 3137W        W 6656   4.746   7.560   1.171 -0.0928 -0.0385 -0.0984
 3138W        W 6657   9.808   6.983   4.172  0.0755  0.1737 -0.0385
 3139W        W 6658   5.819   9.699   0.386  0.6526 -0.1169 -0.3782
 3140W        W 6659   7.164   5.531   2.443 -0.1257  0.0078  0.1256
 3141W        W 6660   1.346   2.006   1.974 -0.3774 -0.1927 -0.0043
 3142W        W 6661   7.797   2.588  10.049  0.2026 -0.0199 -0.0735
 3143W        W 6662   0.587   1.142   9.240  0.3624 -0.1899  0.1770
 3144W        W 6663   4.203   6.921   2.911  0.0310 -0.1167  0.1485
 3145W        W 6664   0.155   6.363   2.798  0.2944 -0.1662 -0.0151
 3146W        W 6665   2.572   4.207   0.396  0.0318 -0.2684  0.0989
 3147W        W 6666   5.967   7.125   8.674  0.0973  0.0708 -0.3161
 3148W        W 6667   2.469   8.715   8.697 -0.0276  0.0242  0.4624
 3149W        W 6668   5.220   7.472  10.122 -0.0199  0.2376  0.1241
 3150W        W 6669   8.179   0.946   1.984 -0.0134  0.0298  0.1824
 3151W        W 6670   8.803   8.604  10.692  0.1988 -0.0747  0.1442
 3152W        W 6671   5.289   5.422   1.787 -0.2302  0.1869  0.3143
 3153W        W 6672   9.220   1.961  11.836 -0.1251 -0.2453  0.2052
 3154W        W 6673   2.431   7.570   2.333 -0.0714  0.0502  0.1214
 3155W        W 6674   8.656   2.635  11.431 -0.4481  0.0288  0.0660
 3156W        W 6675   2.086   5.846   1.285 -0.0216 -0.0759  0.3952
 3157W        W 6676   6.956   4.431   2.928 -0.2773 -0.1746 -0.1921
 3158W        W 6677   8.968   1.639   8.624  0.0063  0.1637 -0.1735
 3159W        W 6678   1.186   9.684  11.116  0.2727 -0.0076  0.1033
 3160W        W 6679   2.729   7.972  11.600  0.0980  0.3986  0.2086
 3161W        W 6680   3.972   7.055  11.196  0.3382 -0.0918 -0.0526
 3162W        W 6681   1.028   5.305   0.399 -0.1988  0.0241 -0.0679
 3163W        W 6682   6.879   9.673   8.936 -0.0448 -0.1394 -0.4598
 3164W        W 6683   6.808   3.027   9.336  0.1447 -0.0025  0.0465
 3165W        W 6684   2.486   7.321   7.209 -0.6346  0.3887 -0.1357
 3166W        W 6685   5.868   2.092   9.352 -0.2457  0.0256  0.0127
 3167W        W 6686   7.358   8.308  10.576  0.1260  0.0666 -0.1288
 3168W        W 6687   8.601   9.300   2.218 -0.1304 -0.0958  0.0122
 3169W        W 6688   0.407   9.691   0.631 -0.5982 -0.2574  0.2936
 3170W        W 6689   1.235   3.944   1.391 -0.2118  0.1731  0.2257
 3171W        W 6690   7.240   4.822   0.824  0.2576 -0.2242  0.1661
 3172W        W 6691   2.927   8.125  10.066  0.0367 -0.1922  0.1404
 3173W        W 6692   6.113   8.530   8.736  0.1054  0.1317 -0.0024
 3174W        W 6693   7.507   1.443   2.314 -0.1807 -0.2458 -0.1312
 3175W        W 6694   2.152   9.417   2.600 -0.0355 -0.1124 -0.1220
 3176W        W 6695   8.809   9.332   8.224 -0.0025  0.0064 -0.1049
 3177W        W 6696   9.773   9.267   1.481 -0.1294 -0.0062  0.0041
 3178W        W 6697   3.432   1.438  10.321  0.2867  0.0105  0.1133
 3179W        W 6698   7.097   0.031   0.528 -0.4810 -0.1831 -0.1546
 3180W        W 6699   6.665   1.874   2.167  0.0749  0.1552  0.3066
 3181W        W 6700   6.250   8.102  11.174 -0.2414 -0.1065  0.0142
 3182W        W 6701   3.842   5.232   2.409 -0.1340  0.1634  0.3334
 3183W        W 6702   9.258   0.400   2.770 -0.0481 -0.0030  0.0351
 3184W        W 6703   2.791   1.978   0.966 -0.0201 -0.3286  0.1533
 3185W        W 6704   3.164   9.770   2.401  0.2156 -0.2392 -0.0993
 3186W        W 6705   0.080   9.303  10.720  0.3241 -0.0535  0.3598
 3187W        W 6706   2.952   0.873  11.390 -0.1504 -0.3325  0.0045
 3188W        W 6707   5.018   1.354   7.935  0.1257  0.1877 -0.0748
 3189W        W 6708   4.250   0.964  11.322 -0.3760 -0.2006 -0.0737
 3190W        W 6709   5.755   8.552   2.774 -0.0729 -0.1214 -0.1261
 3191W        W 6710   7.342   7.832   0.322 -0.0224 -0.0366 -0.0228
 3192W        W 6711   2.919   4.307  10.959 -0.0863 -0.0034  0.0782
 3193W        W 6712   5.948   3.959   9.809  0.0344 -0.2987  0.2177
 3194W        W 6713   0.217   6.275   8.910  0.0488 -0.1342 -0.0524
 3195W        W 6714   6.771   2.950   8.726  0.1299  0.2257 -0.2088
 3196W        W 6715   7.462   5.637   2.881 -0.1401 -0.0601  0.0612
 3197W        W 6716   6.398   7.258  11.625 -0.1358 -0.1954 -0.0918
 3198W        W 6717   2.786   6.974  10.447  0.1916  0.0559 -0.1187
 3199W        W 6718   7.840   1.076   9.920  0.0226 -0.4005 -0.3230
 3200W        W 6719   8.225   7.409   1.459  0.1300  0.0439 -0.1381
 3201W        W 6720   8.449   8.458   2.184 -0.1200 -0.0059  0.0663
 3202W        W 6721   8.003   7.978  10.435  0.1008  0.1275 -0.0509
 3203W        W 6722   5.808   4.425   3.769 -0.2255 -0.3018 -0.2402
 3204W        W 6723   6.031   8.624   3.219  0.1220  0.3329 -0.0824
 3205W        W 6724   8.008   5.669  10.494  0.1184 -0.1224 -0.0142
 3206W        W 6725   6.036   3.761   0.451  0.0644  0.1481  0.1035
 3207W        W 6726   8.466   4.742  10.793 -0.0816  0.2365 -0.0080
 3208W        W 6727   9.895   4.501   2.830  0.1923  0.2778 -0.2148
 3209W        W 6728   5.347   2.452   2.614 -0.1856  0.0920  0.2045
 3210W        W 6729   0.912   8.127  10.634  0.0464  0.1108 -0.1196
 3211W        W 6730   2.354   4.501   8.639 -0.0888  0.1035 -0.0255
 3212W        W 6731   8.844   7.852   1.281 -0.1098  0.0630  0.4728
 3213W        W 6732   4.830   9.400   8.017 -0.2275  0.0683 -0.0601
 3214W        W 6733   0.248   8.647   9.524  0.1827  0.0268  0.1670
 3215W        W 6734   6.079   9.213   2.423  0.2410 -0.1339  0.1413
 3216W        W 6735   3.366   8.545   2.170 -0.4891 -0.0764  0.2044
 3217W        W 6736   8.944   9.132   2.935 -0.0589  0.0084  0.0729
 3218W        W 6737   1.681   7.086   9.052  0.0185 -0.2690  0.0540
 3219W        W 6738   5.675   1.060   7.187 -0.0211  0.2340  0.1032
 3220W        W 6739   5.982   1.240   0.558 -0.2672  0.0759  0.2137
 3221W        W 6740   7.334   0.967  10.749  0.2266 -0.1101  0.1787
 3222W        W 6741   0.917   9.435   9.310 -0.0549 -0.1531 -0.1104
 3223W        W 6742   5.322   4.035  11.664  0.0257  0.3620 -0.1942
 3224W        W 6743   3.071   5.556  10.107 -0.0958  0.1167 -0.4361
 3225W        W 6744   7.519   6.376   0.989 -0.1177 -0.1195 -0.1569
 3226W        W 6745   2.547   2.584   9.844 -0.0904 -0.0523 -0.1885
 3227W        W 6746   4.078   5.878   0.252  0.3131  0.0176 -0.1332
 3228W        W 6747   4.466   7.639   8.613  0.3032  0.2992  0.0728
 3229W        W 6748   3.897   8.539  11.170 -0.0178 -0.0285  0.2089
 3230W        W 6749   0.754   0.523  11.124  0.0163  0.0438 -0.2097
 3231W        W 6750   6.576   5.949   9.019 -0.2809  0.0896  0.2430
 3232W        W 6751   3.744   7.051   9.873 -0.0103 -0.1947 -0.0188
 3233W        W 6752   5.012   7.726  10.988 -0.2430 -0.0498 -0.0106
 3234W        W 6753   9.544   1.875   2.529 -0.0271 -0.1730  0.0595
 3235W        W 6754   6.735   2.845   7.846 -0.1490  0.0156 -0.2748
 3236W        W 6755   6.921   7.656   1.750  0.0222 -0.1893  0.1878
 3237W        W 6756   5.632   2.494   3.306 -0.0814  0.2471 -0.2767
 3238W        W 6757   1.378   7.515   9.133 -0.1435  0.1588  0.3360
 3239W        W 6758   8.936   7.309   2.617 -0.0631 -0.0978  0.0776
 3240W        W 6759   6.814   3.891   9.641  0.1230  0.0535 -0.1204
 3241W        W 6760   8.851   1.341   2.806  0.4227 -0.2896  0.0248
 3242W        W 6761   9.910   8.409   1.834  0.0061 -0.0530  0.1678
 3243W        W 6762   9.573   7.519   9.489  0.4062  0.1620 -0.1899
 3244W        W 6763   4.340   6.118   8.583  0.0118 -0.1166  0.0953
 3245W        W 6764   3.845   6.035   9.191 -0.0241 -0.0236 -0.3331
 3246W        W 6765   2.051   2.205  10.810  0.1109  0.0699  0.0114
 3247W        W 6766   1.991   9.451   1.137  0.1110 -0.0010 -0.1891
 3248W        W 6767   0.283   8.793   3.812 -0.2813  0.0955  0.1158
 3249W        W 6768   7.747   3.971   0.865 -0.1560  0.1591 -0.1275
 3250W        W 6769   4.226   9.098   3.391  0.0103 -0.1456  0.0003
 3251W        W 6770   7.992   5.589   9.854 -0.1592 -0.1513 -0.3607
 3252W        W 6771   6.581   1.357  10.731  0.2244 -0.1331 -0.2222
 3253W        W 6772   8.438   2.343   8.212  0.0523 -0.1524  0.3129
 3254W        W 6773   5.764   3.225  11.460  0.2613 -0.0123  0.0597
 3255W        W 6774   6.238   9.076   1.071  0.1328 -0.1702 -0.0393
 3256W        W 6775   6.773   4.708   8.869 -0.0159 -0.1500  0.3498
 3257W        W 6776   2.389   3.963   9.495  0.2890  0.1230 -0.3175
 3258W        W 6777   3.556   7.440   8.322  0.0387  0.0103  0.1814
 3259W        W 6778   1.623   6.161   0.156 -0.2313  0.4175  0.1672
 3260W        W 6779   4.520   2.279   8.877 -0.0248  0.0403  0.1752
 3261W        W 6780   7.825   9.331   9.768 -0.0361 -0.3329 -0.0343
 3262W        W 6781   8.163   1.249   3.302  0.0741 -0.3290 -0.1766
 3263W        W 6782   4.717   6.344   9.338 -0.1352 -0.1978 -0.1331
 3264W        W 6783   5.224   9.801  10.703  0.1086  0.0496 -0.2123
 3265W        W 6784   2.936   1.208   2.782 -0.1476 -0.0469 -0.1385
 3266W        W 6785   8.644   3.903   0.630 -0.0523 -0.1817  0.3186
 3267W        W 6786   5.308   5.204  10.151 -0.0568  0.1755  0.1031
 3268W        W 6787   7.953   0.495  11.658  0.1909 -0.1283  0.5581
 3269W        W 6788   5.575   5.762   3.146  0.0743  0.1492 -0.1166
 3270W        W 6789   7.335   8.000   9.718  0.0289  0.1590  0.1504
 3271W        W 6790   8.735   6.225   1.241 -0.1328 -0.3457 -0.0440
 3272W        W 6791   3.841   1.563  10.048  0.2596 -0.1510  0.2366
 3273W        W 6792   8.472   1.333   1.983 -0.1442  0.0177  0.0212
 3274W        W 6793   2.096   9.636  10.614  0.0397 -0.1040  0.1195
 3275W        W 6794   8.559   2.924   2.952  0.1165 -0.1531  0.0319
 3276W        W 6795   9.130   3.943  11.177  0.1454  0.0653 -0.0983
 3277W        W 6796   2.130   2.774  11.448  0.0714  0.1183 -0.1166
 3278W        W 6797   0.855   9.647  10.393  0.0701  0.1573  0.0448
 3279W        W 6798   5.235   8.246   8.739  0.2069 -0.0016 -0.0128
 3280W        W 6799   3.289   0.071  11.149 -0.0951  0.5904  0.2223
 3281W        W 6800   3.366   0.570   3.105  0.3526  0.2194 -0.0656
 3282W        W 6801   7.548   2.803   3.272 -0.0992 -0.1269 -0.1236
 3283W        W 6802   6.369   4.568  11.245 -0.0199 -0.2082 -0.0413
 3284W        W 6803   6.175   5.323  10.842  0.0720 -0.2821 -0.1057
 3285W        W 6804   1.381   1.020   0.249 -0.2432  0.3612 -0.3040
 3286W        W 6805   7.235   8.081   2.738 -0.0938 -0.1489 -0.5369
 3287W        W 6806   4.456   4.691   0.409 -0.0742  0.0065 -0.2891
 3288W        W 6807   2.359   2.959  11.959 -0.2972  0.3219  0.0713
 3289W        W 6808   7.492   3.973  11.200  0.0207  0.0589 -0.1598
 3290W        W 6809   0.541   9.549   2.467  0.1879 -0.2763 -0.1427
 3291W        W 6810   9.370   8.422   1.802 -0.1428 -0.2005 -0.0228
 3292W        W 6811   0.785   8.542   2.494  0.0085 -0.1924 -0.2186
 3293W        W 6812   2.916   8.465   1.827  0.1132  0.1345  0.2923
 3294W        W 6813   0.609   8.314   0.070 -0.0335  0.2778 -0.0059
 3295W        W 6814   9.434   8.202   2.264  0.0289 -0.1536  0.1262
 3296W        W 6815   6.846   4.246  11.933  0.1715  0.2914 -0.1330
 3297W        W 6816   8.381   6.373   8.734 -0.1523 -0.2347 -0.1285
 3298W        W 6817   6.687   8.331   3.961 -0.2619  0.1674 -0.3359
 3299W        W 6818   5.229   4.387   9.749 -0.1222 -0.0734  0.0300
 3300W        W 6819   0.991   3.816   2.323  0.0090  0.1073  0.0176
 3301W        W 6820   0.868   1.489   3.051  0.2765 -0.0274 -0.1482
 3302W        W 6821   5.121   4.052   2.770 -0.2240  0.0109 -0.0918
 3303W        W 6822   2.608   3.009  10.603  0.1844  0.1576  0.1895
 3304W        W 6823   5.473   4.254   1.191 -0.2697  0.1659 -0.2830
 3305W        W 6824   2.142   5.454   1.579 -0.1007  0.0824  0.1600
 3306W        W 6825   3.111   4.168   0.331  0.1042  0.0961 -0.0107
 3307W        W 6826   7.234   7.453   9.304 -0.0588 -0.0355 -0.1177
 3308W        W 6827   0.380   6.818   2.681  0.1191 -0.2554 -0.1495
 3309W        W 6828   7.098   8.067   2.198 -0.0570  0.0377  0.0854
 3310W        W 6829   7.692   1.621   8.393 -0.3076 -0.0126 -0.1301
 3311W        W 6830   5.413   0.036   0.160  0.0658  0.2484  0.0797
 3312W        W 6831   1.150   8.748   8.253 -0.0578 -0.0624  0.1003
 3313W        W 6832   6.004   4.086   8.268  0.0782 -0.2934  0.3540
 3314W        W 6833   2.638   9.314   1.481 -0.0406  0.3894  0.3407
 3315W        W 6834   2.187   2.896   3.473 -0.2576 -0.1659 -0.0363
 3316W        W 6835   6.709   7.097  10.894  0.0275  0.1334  0.1078
 3317W        W 6836   1.220   8.309   2.372  0.3220 -0.0898 -0.0323
 3318W        W 6837   6.203   5.618   8.934 -0.0999  0.1884  0.2764
 3319W        W 6838   7.077   7.411   0.452  0.0777  0.0311 -0.5049
 3320W        W 6839   3.718   4.231   4.056  0.2497 -0.0807 -0.0023
 3321W        W 6840   3.271   4.441  11.309  0.1184  0.1264 -0.0958
 3322W        W 6841   3.652   0.234  11.474  0.0453 -0.1922 -0.0845
 3323W        W 6842   2.899   0.729  10.401 -0.3426  0.1228  0.3673
 3324W        W 6843   4.680   4.227   0.237 -0.2104 -0.2867 -0.0380
 3325W        W 6844   5.729   5.807   0.406  0.1091 -0.1529  0.1255
 3326W        W 6845   0.312   9.265   2.808 -0.4164 -0.1548 -0.0591
 3327W        W 6846   3.163   1.051   1.195  0.0528  0.2448  0.1022
 3328W        W 6847   9.486   4.727  10.645 -0.1302  0.0325 -0.0867
 3329W        W 6848   0.702   3.690  11.452 -0.1144 -0.0858  0.0968
 3330W        W 6849   8.130   1.294   9.217  0.2296  0.0346  0.1812
 3331W        W 6850   6.932   5.110   3.524 -0.2370  0.1050  0.0319
 3332W        W 6851   1.183   6.376   0.114 -0.1469  0.0143 -0.0731
 3333W        W 6852   9.020   3.368   0.475  0.1346 -0.3202 -0.0860
 3334W        W 6853   1.184   3.715  11.292  0.1806 -0.0860 -0.1913
 3335W        W 6854   0.063   0.235   8.582  0.0722 -0.0594 -0.0543
 3336W        W 6855   2.438   5.226  11.485 -0.1387 -0.2436  0.1120
 3337W        W 6856   9.068   1.420   9.952 -0.0316  0.0352 -0.1562
 3338W        W 6857   6.387   3.223  10.277 -0.0384  0.0202  0.3448
 3339W        W 6858   6.627   5.689   1.432  0.2466  0.0273 -0.0275
 3340W        W 6859   1.737   9.604   2.762  0.2031  0.3656  0.1381
 3341W        W 6860   9.851   2.711  10.302  0.1633  0.2373 -0.0708
 3342W        W 6861   5.412   7.447  11.205  0.1897 -0.1087  0.1112
 3343W        W 6862   2.416   0.281  11.041 -0.0851 -0.2158 -0.1965
 3344W        W 6863   9.749   0.049   9.657  0.0034 -0.2248  0.0085
 3345W        W 6864   3.435   4.247   0.862 -0.0432 -0.1719 -0.0930
 3346W        W 6865   8.959   9.863  10.069  0.0233  0.1432 -0.1730
 3347W        W 6866   0.093   0.008   1.578 -0.0991  0.0546  0.1213
 3348W        W 6867   2.183   3.843  10.513  0.0807 -0.0494 -0.1614
 3349W        W 6868   2.842   8.700  10.277 -0.1252 -0.0706 -0.0369
 3350W        W 6869   3.009   5.932   1.475  0.2032 -0.1273 -0.0811
 3351W        W 6870   6.558   9.341   1.617 -0.0727  0.1800 -0.0060
 3352W        W 6871   4.480   7.146   2.547 -0.0264 -0.0385 -0.3928
 3353W        W 6872   0.264   1.553  11.467  0.0168  0.4176  0.2739
 3354W        W 6873   9.025   8.833   8.006 -0.0208 -0.1332 -0.1615
 3355W        W 6874   3.222   0.399   1.840 -0.2847  0.0058  0.0588
 3356W        W 6875   8.590   5.594   1.236  0.2756 -0.2631 -0.0627
 3357W        W 6876   5.148   2.366  10.013 -0.1576 -0.4926 -0.2268
 3358W        W 6877   7.527   8.271   7.377 -0.1212 -0.1383 -0.0423
 3359W        W 6878   1.193   4.728   8.167 -0.1514 -0.1368 -0.1009
 3360W        W 6879   8.316   4.826   9.254 -0.0957 -0.1883  0.0235
 3361W        W 6880   9.921   2.331   0.791 -0.2889 -0.0096 -0.1726
 3362W        W 6881   2.995   8.986  11.227 -0.1103  0.1153 -0.0100
 3363W        W 6882   2.923   5.203   2.836 -0.0417 -0.0730 -0.1844
 3364W        W 6883   3.624   2.225   9.044 -0.0721 -0.2754 -0.1216
 3365W        W 6884   4.901   8.976   3.683  0.2359  0.0803  0.3178
 3366W        W 6885   0.813   8.493  11.357  0.0100  0.0297  0.0347
 3367W        W 6886   0.194   0.924   9.605  0.2570  0.3765 -0.0660
 3368W        W 6887   3.290   2.107   0.699  0.1199 -0.0653  0.0559
 3369W        W 6888   9.766   1.986   1.257 -0.1369 -0.0278 -0.0220
 3370W        W 6889   3.754   1.909   1.137  0.4363 -0.0442 -0.0983
 3371W        W 6890   5.747   7.175  10.467 -0.0527 -0.1456  0.1017
 3372W        W 6891   0.277   0.715  11.235  0.4401  0.1032  0.0643
 3373W        W 6892   5.301   4.288   8.527 -0.1479 -0.0261 -0.2731
 3374W        W 6893   5.022   3.983  11.167  0.0858  0.3389 -0.1903
 3375W        W 6894   3.314   6.012   8.277  0.0958 -0.2254 -0.1412
 3376W        W 6895   0.024   6.840  11.561 -0.1014 -0.2215 -0.1093
 3377W        W 6896   5.659   0.396   9.429  0.2462  0.3844 -0.0569
 3378W        W 6897   0.084   6.694  11.104  0.1701 -0.1619 -0.3273
 3379W        W 6898   8.697   5.130  11.027  0.3806 -0.2388 -0.2738
 3380W        W 6899   8.318   8.370   7.770 -0.0507 -0.0868 -0.0058
 3381W        W 6900   0.496   4.724   0.791 -0.3915  0.1750 -0.0552
 3382W        W 6901   2.378   7.681  10.634 -0.0107 -0.0123 -0.1969
 3383W        W 6902   2.347   8.180   8.999 -0.0330  0.1164  0.0287
 3384W        W 6903   3.730   5.779   3.231 -0.1206  0.0800 -0.2907
 3385W        W 6904   0.752   9.012   8.088  0.2645 -0.1126  0.0242
 3386W        W 6905   9.171   1.032   7.728 -0.0588  0.2983  0.1182
 3387W        W 6906   0.127   1.097  11.605  0.1611 -0.0550  0.2857
 3388W        W 6907   6.807   7.665   8.469 -0.1064 -0.0034  0.0759
 3389W        W 6908   4.133   7.790   1.868 -0.0368  0.0997  0.1625
 3390W        W 6909   4.520   2.514   0.393 -0.0220  0.1090 -0.1444
 3391W        W 6910   5.016   3.881   0.042 -0.0518  0.0012  0.1146
 3392W        W 6911   1.264   0.835   2.212 -0.2071 -0.0113  0.3290
 3393W        W 6912   3.257   3.080  11.467 -0.4249 -0.1602  0.0519
 3394W        W 6913   6.584   7.495   0.906  0.0082  0.0878  0.2300
 3395W        W 6914   6.530   7.705   7.999  0.1500  0.0908 -0.1412
 3396W        W 6915   8.920   9.381   9.076 -0.2092  0.0299  0.1903
 3397W        W 6916   2.419   9.800   7.916  0.1364  0.0588 -0.2946
 3398W        W 6917   7.924   0.522  10.562  0.2333 -0.0318  0.2864
 3399W        W 6918   6.996   9.603  10.849 -0.1967  0.2004 -0.0075
 3400W        W 6919   7.349   6.294  10.359  0.0215  0.1552  0.0326
 3401W        W 6920   4.949   8.331   2.344 -0.1059  0.0684 -0.0241
 3402W        W 6921   4.567   8.093   8.847  0.1383  0.1986 -0.2143
 3403W        W 6922   8.189   8.911   2.319  0.0571  0.0075 -0.2539
 3404W        W 6923   3.040   6.811   1.850  0.2760 -0.2355 -0.0439
 3405W        W 6924   9.697   2.108   8.584 -0.0267 -0.2144 -0.0079
 3406W        W 6925   7.389   6.421   2.322  0.2380  0.2457 -0.2553
 3407W        W 6926   2.243   6.645   2.396 -0.0370  0.2170 -0.4234
 3408W        W 6927   4.117   6.004   2.523 -0.4137  0.0771 -0.3063
 3409W        W 6928   0.860   1.913   3.922  0.2423 -0.1280  0.0448
 3410W        W 6929   1.801   3.554  10.084 -0.2276  0.1111  0.2308
 3411W        W 6930   4.242   0.750  11.769 -0.2839 -0.0579  0.1615
 3412W        W 6931   4.365   9.745   9.699  0.0848 -0.2393 -0.3701
 3413W        W 6932   3.184   6.566   3.144  0.1720 -0.1144  0.2932
 3414W        W 6933   6.105   1.113   2.518 -0.2891 -0.1090  0.3219
 3415W        W 6934   2.336   4.697   2.195 -0.2210 -0.1580  0.1664
 3416W        W 6935   6.180   8.142   1.530  0.0915 -0.1972 -0.4630
 3417W        W 6936   9.487   2.591   9.922 -0.0762 -0.1857  0.3096
 3418W        W 6937   4.399   4.177   0.700 -0.2084 -0.2343 -0.0963
 3419W        W 6938   3.720   1.242   8.646 -0.0573 -0.0458  0.1909
 3420W        W 6939   6.669   8.489  11.887 -0.1970 -0.0375 -0.1186
 3421W        W 6940   9.030   1.211   1.676 -0.0685 -0.2474 -0.0946
 3422W        W 6941   1.673   7.553   1.738  0.0302  0.0193 -0.0280
 3423W        W 6942   5.256   0.885  10.410  0.0046 -0.1183 -0.1218
 3424W        W 6943   7.532   8.865   8.351  0.0831 -0.1351  0.0259
 3425W        W 6944   3.079   7.631  11.208 -0.0552  0.0654  0.3402
 3426W        W 6945   8.534   6.325  11.618  0.1824 -0.1585  0.1408
 3427W        W 6946   5.193   8.913   2.199  0.2276 -0.2669 -0.0882
 3428W        W 6947   3.723   7.997   9.072  0.1114 -0.2126  0.1223
 3429W        W 6948   4.641   1.028   2.114  0.0581 -0.2309 -0.1110
 3430W        W 6949   6.107   5.691  10.373  0.0414 -0.0356 -0.1015
 3431W        W 6950   9.197   8.198   1.386 -0.1704  0.1897  0.0952
 3432W        W 6951   5.074   4.687   3.988  0.0018 -0.1261  0.5218
 3433W        W 6952   4.381   0.237   9.456 -0.0795  0.1053  0.1189
 3434W        W 6953   4.678   8.133  11.191  0.1164  0.3305 -0.1452
 3435W        W 6954   6.191   2.606   8.062  0.2087 -0.1092 -0.0929
 3436W        W 6955   6.042   7.419   0.871 -0.0752  0.1581  0.0584
 3437W        W 6956   0.074   6.134   9.645 -0.1616  0.1167 -0.0663
 3438W        W 6957   8.739   8.671   9.446 -0.2883  0.1043  0.0014
 3439W        W 6958   5.612   2.217  11.578  0.0014 -0.1098 -0.1101
 3440W        W 6959   8.044   3.763   2.773  0.0456  0.3755  0.2781
 3441W        W 6960   3.810   7.585   0.566  0.0180 -0.2410 -0.1308
 3442W        W 6961   2.985   2.398   9.939  0.0106  0.0437  0.1818
 3443W        W 6962   3.821   2.243  10.565  0.2509 -0.0015  0.3881
 3444W        W 6963   2.436   4.682   9.102  0.1309 -0.4455 -0.0316
 3445W        W 6964   8.977   4.295   3.233 -0.2363 -0.2750  0.0205
 3446W        W 6965   3.572   8.475   8.636 -0.1490 -0.2990  0.1022
 3447W        W 6966   2.294   5.291   1.155  0.0141  0.2643  0.0330
 3448W        W 6967   0.828   9.176   9.702 -0.1208  0.1269 -0.1891
 3449W        W 6968   4.307   5.366   2.164  0.0993 -0.0346 -0.0461
 3450W        W 6969   4.809   5.673   2.980  0.2829 -0.1556 -0.1907
 3451W        W 6970   1.532   5.477   3.240 -0.0301  0.2523 -0.0294
 3452W        W 6971   0.680   7.159  11.681 -0.0103  0.2820  0.1235
 3453W        W 6972   1.904   9.021  11.947 -0.0150  0.1214  0.1959
 3454W        W 6973   5.519   9.269  10.316  0.3054  0.0186 -0.2721
 3455W        W 6974   5.131   3.073   0.106 -0.1951 -0.1661 -0.0536
 3456W        W 6975   9.474   7.019  11.518  0.1650  0.0351  0.1022
 3457W        W 6976   4.222   5.111   8.669 -0.0295 -0.1260 -0.2099
 3458W        W 6977   1.760   2.623   3.615 -0.1183  0.1423 -0.2434
 3459W        W 6978   4.078   8.788   2.468 -0.0294  0.0769  0.3874
 3460W        W 6979   6.498   3.105   1.229 -0.0518 -0.1787  0.1148
 3461W        W 6980   6.202   0.508  10.410  0.2578 -0.0091  0.2774
 3462W        W 6981   1.167   3.791   0.839  0.1120 -0.0252 -0.2164
 3463W        W 6982   5.596   3.064  11.887 -0.1069  0.0856 -0.0164
 3464W        W 6983   0.628   3.504   2.835 -0.1005 -0.1435  0.2036
 3465W        W 6984   1.838   4.203   8.694  0.1932 -0.2310 -0.3494
 3466W        W 6985   8.220   2.266   9.605 -0.1012  0.0793 -0.2111
 3467W        W 6986   7.239   6.825   8.615 -0.0368 -0.1040 -0.1610
 3468W        W 6987   6.818   8.945   7.954  0.1898 -0.0799  0.0594
 3469W        W 6988   6.645   8.777  10.214  0.0829  0.3411 -0.2235
 3470W        W 6989   0.949   4.966  10.440  0.0400 -0.0333 -0.1243
 3471W        W 6990   3.305   7.717   9.157 -0.2590 -0.0695 -0.0696
 3472W        W 6991   2.625   5.979   0.879  0.3254 -0.0309  0.3530
 3473W        W 6992   4.949   3.942  10.612  0.0459  0.1645  0.1408
 3474W        W 6993   9.592   8.624   8.806  0.1224  0.1780 -0.0225
 3475W        W 6994   7.469   8.857   2.583 -0.2223 -0.2162  0.0150
 3476W        W 6995   4.302   4.602  11.273  0.0973  0.0192  0.0701
 3477W        W 6996   3.687   0.494   0.423  0.2873  0.2133  0.0984
 3478W        W 6997   2.699   6.087  10.323  0.2247 -0.1673 -0.0662
 3479W        W 6998   8.653   3.143   9.452  0.1542 -0.1371 -0.1660
 3480W        W 6999   5.923   7.338  11.456 -0.1655 -0.1797 -0.1334
 3481W        W 7000   4.064   7.703   8.913  0.1118  0.0141  0.4852
 3482W        W 7001   8.340   1.476   2.820 -0.0627  0.0302  0.0491
 3483W        W 7002   8.903   6.056   8.406  0.2462 -0.1150  0.2074
 3484W        W 7003   3.245   8.028   2.325  0.0724  0.2372 -0.1227
 3485W        W 7004   5.716   1.528  10.510  0.1212 -0.0201  0.1582
 3486W        W 7005   1.404   6.548   0.538 -0.2238  0.2670  0.2475
 3487W        W 7006   8.288   2.720  10.077 -0.0535  0.1976 -0.1279
 3488W        W 7007   5.539   0.843   9.920 -0.0112  0.0080 -0.0525
 3489W        W 7008   2.207   1.111   2.689 -0.1807  0.0787  0.2121
 3490W        W 7009   5.800   6.873   0.917  0.2868  0.4467 -0.0179
 3491W        W 7010   8.834   3.557  11.366  0.0806 -0.0402 -0.1858
 3492W        W 7011   9.155   3.882   0.477  0.2340 -0.1120 -0.2236
 3493W        W 7012   1.183   8.908   1.642 -0.1789  0.0641  0.4577
 3494W        W 7013   4.081   5.427  11.469  0.1310 -0.1253 -0.4966
 3495W        W 7014   0.785   7.618  11.325  0.0563 -0.1542 -0.2993
 3496W        W 7015   4.275   7.414   1.513 -0.4277  0.2863  0.0265
 3497W        W 7016   7.767   7.789   7.347 -0.0029  0.1884  0.0879
 3498W        W 7017   6.187   4.678   0.551  0.3467  0.1207 -0.0373
 3499W        W 7018   6.502   5.273   1.580 -0.1503  0.0912  0.2410
 3500W        W 7019   7.390   4.292   0.985 -0.1044  0.2078 -0.2214
 3501W        W 7020   6.656   0.598   9.256  0.4274 -0.2501  0.1341
 3502W        W 7021   8.940   2.439   0.329 -0.5610  0.2455  0.0818
 3503W        W 7022   4.247   2.817   9.432 -0.1174 -0.4635 -0.5706
 3504W        W 7023   3.081   5.960   2.401 -0.0662  0.1183 -0.0800
 3505W        W 7024   7.938   0.424   7.544  0.0058  0.0996  0.3230
 3506W        W 7025   7.319   2.934   1.505  0.0850 -0.1342  0.2460
 3507W        W 7026   7.163   7.759   8.818 -0.0507 -0.0709  0.0427
 3508W        W 7027   3.936   2.475   2.022 -0.2337 -0.0411  0.0593
 3509W        W 7028   9.256   7.728   0.121 -0.0332 -0.1767 -0.3846
 3510W        W 7029   1.760   2.003   2.754  0.2587 -0.1040 -0.2123
 3511W        W 7030   6.743   9.440   2.059  0.1962  0.0028  0.3667
 3512W        W 7031   7.774   6.921  11.181 -0.2013 -0.0574  0.0901
 3513W        W 7032   4.939   4.793   0.289  0.1189  0.0910  0.1238
 3514W        W 7033   7.616   9.804  11.239 -0.3859  0.1773  0.0310
 3515W        W 7034   3.308   0.092   0.727 -0.0492 -0.3093  0.1172
 3516W        W 7035   6.372   2.998   9.759  0.2618 -0.3064 -0.0011
 3517W        W 7036   7.783   0.654   9.622 -0.0265 -0.1102  0.4419
 3518W        W 7037   0.814   7.539   7.405 -0.0534 -0.0650  0.3637
 3519W        W 7038   9.316   5.381   1.870  0.2112  0.0719 -0.0102
 3520W        W 7039   9.580   4.167   0.455 -0.0058  0.3693 -0.1921
 3521W        W 7040   2.641   9.221  10.065  0.0131  0.2908  0.2038
 3522W        W 7041   2.151   0.421  11.526 -0.0773  0.1617 -0.0142
 3523W        W 7042   3.523   1.087  11.278  0.3854  0.0383  0.0251
 3524W        W 7043   7.041   9.762   0.085  0.0681 -0.1427  0.1934
 3525W        W 7044   8.209   0.553   1.612 -0.0938 -0.0937  0.0322
 3526W        W 7045   6.798   6.687   8.371  0.0030  0.0292  0.0265
 3527W        W 7046   8.767   8.685   4.526  0.2659 -0.1013 -0.2416
 3528W        W 7047   6.610   9.474  10.347 -0.1525 -0.1494  0.3304
 3529W        W 7048   1.935   6.136   0.724  0.2255 -0.0531  0.0268
 3530W        W 7049   3.589   1.744   1.555  0.0585  0.1317  0.2708
 3531W        W 7050   7.926   3.607   9.543 -0.0751  0.0927  0.1932
 3532W        W 7051   5.083   9.625   3.088  0.1578  0.0774  0.0442
 3533W        W 7052   1.414   9.427   9.464  0.2006  0.1159 -0.0029
 3534W        W 7053   9.857   8.375   9.213 -0.0440  0.5790 -0.0652
 3535W        W 7054   7.841   0.706  11.102  0.1790 -0.1643  0.3013
 3536W        W 7055   8.966   7.246   0.506 -0.4886 -0.3285  0.0502
 3537W        W 7056   7.189   2.658   9.208  0.2669 -0.0144 -0.1024
 3538W        W 7057   2.256   6.881   1.110 -0.0891 -0.1127  0.1840
 3539W        W 7058   7.499   9.084  10.091  0.3085  0.3358 -0.3535
 3540W        W 7059   7.277   0.364   8.831 -0.1547  0.3510  0.1369
 3541W        W 7060   5.517   5.078   9.323  0.2201 -0.0767 -0.3493
 3542W        W 7061   9.116   1.149   9.483 -0.0396  0.1118  0.1707
 3543W        W 7062   9.313   9.901   1.106 -0.2053  0.1297  0.2382
 3544W        W 7063   5.246   1.343   9.237  0.1475  0.3906  0.0095
 3545W        W 7064   4.481   2.013  11.799 -0.0432  0.2369 -0.2882
 3546W        W 7065   8.975   3.914   9.823  0.0159  0.0639 -0.2915
 3547W        W 7066   6.457   5.750  10.798  0.2105 -0.1418 -0.0694
 3548W        W 7067   4.759   9.387   1.414  0.0267  0.2052 -0.2368
 3549W        W 7068   7.187   9.313  11.869  0.1322 -0.1953 -0.2191
 3550W        W 7069   1.768   9.305  10.583  0.1124 -0.0935 -0.1093
 3551W        W 7070   8.215   6.933   9.546  0.1689  0.0960 -0.0960
 3552W        W 7071   6.672   4.797   7.516 -0.2037 -0.0799 -0.0330
 3553W        W 7072   9.266   9.409   8.712 -0.4421  0.0014  0.0269
 3554W        W 7073   6.962   6.504   3.506  0.0929  0.0270 -0.1322
 3555W        W 7074   0.706   8.128   0.518 -0.0062 -0.1812  0.1101
 3556W        W 7075   9.314   1.791  10.300  0.0165 -0.0818 -0.2393
 3557W        W 7076   3.451   6.094   1.386 -0.1803 -0.1138  0.0361
 3558W        W 7077   4.610   0.144   1.824  0.2001 -0.0821 -0.2779
 3559W        W 7078   7.172   7.818  10.144 -0.1514 -0.0026  0.1768
 3560W        W 7079   3.635   8.080   3.089  0.2610  0.1493 -0.1404
 3561W        W 7080   6.739   5.873   2.436 -0.1781  0.0063 -0.1039
 3562W        W 7081   4.362   3.298   9.562 -0.1369  0.2158  0.0188
 3563W        W 7082   7.750   7.273  10.427 -0.2092 -0.1816 -0.0126
 3564W        W 7083   3.112   2.045   1.738  0.0042  0.0261  0.2720
 3565W        W 7084   6.378   2.139  10.479  0.1756 -0.3547  0.2053
 3566W        W 7085   6.167   6.038   2.991  0.1680 -0.0490  0.1767
 3567W        W 7086   0.637   0.172  10.274  0.0845 -0.2496  0.1303
 3568W        W 7087   9.163   0.804   1.961  0.0002 -0.1069  0.2287
 3569W        W 7088   7.219   4.696   2.130 -0.0649 -0.2721  0.3689
 3570W        W 7089   5.278   8.794  10.106 -0.0577  0.0583  0.3534
 3571W        W 7090   5.718   2.685   2.868 -0.1614  0.0133 -0.0315
 3572W        W 7091   4.922   9.569  11.119 -0.0637  0.0848 -0.2163
 3573W        W 7092   8.878   3.881   1.774 -0.0976 -0.0928 -0.1625
 3574W        W 7093   4.206   8.650   7.797  0.3005  0.1806  0.0208
 3575W        W 7094   3.851   7.092   1.372  0.0256  0.0176  0.0661
 3576W        W 7095   8.009   8.494   8.201 -0.0245 -0.0369  0.0548
 3577W        W 7096   9.741   7.272  10.486  0.3386 -0.0690 -0.0462
 3578W        W 7097   7.841   6.825   9.924 -0.1773 -0.0257 -0.2394
 3579W        W 7098   1.975   3.709   3.231  0.0878  0.3400 -0.0759
 3580W        W 7099   1.996   1.619   0.649 -0.1095 -0.2676  0.2262
 3581W        W 7100   3.523   6.650   1.128  0.0058  0.2522 -0.0819
 3582W        W 7101   8.313   8.294   8.651  0.1730  0.0397 -0.0254
 3583W        W 7102   4.089   6.234   2.096 -0.1394  0.1965  0.0036
 3584W        W 7103   3.700   5.861  10.763 -0.0288 -0.0684  0.0864
 3585W        W 7104   2.313   5.634   8.310  0.1973 -0.2082  0.2004
 3586W        W 7105   0.158   4.342   3.983 -0.1333 -0.1645 -0.1923
 3587W        W 7106   4.636   6.112   2.818  0.2011 -0.1513  0.2043
 3588W        W 7107   2.665   3.208   1.115  0.3120  0.2183  0.1549
 3589W        W 7108   5.744   9.463   1.008 -0.0259  0.0049 -0.0028
 3590W        W 7109   7.832   7.764   2.813  0.4519  0.0699 -0.0281
 3591W        W 7110   9.199   7.534   3.029 -0.0400  0.1077 -0.0684
 3592W        W 7111   8.158   7.083   8.098  0.0438  0.0123 -0.0382
 3593W        W 7112   5.470   9.253   9.541 -0.0086 -0.0150  0.0235
 3594W        W 7113   7.192   4.675   7.965 -0.0073 -0.1401 -0.0691
 3595W        W 7114   3.110   6.370   3.570 -0.3255 -0.0366 -0.1460
 3596W        W 7115   8.735   9.052   3.959  0.1140 -0.1266  0.1569
 3597W        W 7116   3.972   7.304   8.599 -0.0783  0.0288  0.2451
 3598W        W 7117   0.980   2.215   3.339 -0.0601  0.1784  0.5657
 3599W        W 7118   4.509   6.027   3.316 -0.1415 -0.0439 -0.3568
 3600W        W 7119   8.653   6.431   8.301  0.2868  0.1526  0.1014
 3601W        W 7120   5.611   6.761   2.342 -0.1543  0.3440  0.2043
 3602W        W 7121   2.103   3.995  12.002  0.2267 -0.1102 -0.2606
 3603W        W 7122   3.084   1.892  11.620  0.3731  0.2802 -0.1068
 3604W        W 7123   3.368   5.499   0.631 -0.0418  0.0204 -0.0555
 3605W        W 7124   8.363   2.282   3.286  0.0236 -0.1227  0.0246
 3606W        W 7125   6.968   5.458   9.664  0.0754  0.1117  0.0798
 3607W        W 7126   4.853   7.820   8.357 -0.1120 -0.0560 -0.0858
 3608W        W 7127   4.980   9.804   8.375  0.0640 -0.0643  0.2191
 3609W        W 7128   8.000   7.760  10.951  0.0804  0.0047 -0.3154
 3610W        W 7129   7.433   1.042   1.604 -0.0877 -0.1881 -0.1265
 3611W        W 7130   9.076   5.746  11.431  0.1128  0.0225  0.2156
 3612W        W 7131   2.283   8.152   3.105 -0.0280 -0.1562 -0.1137
 3613W        W 7132   2.763   6.489   1.148 -0.0846  0.0810  0.1099
 3614W        W 7133   6.930   8.633  11.289  0.1617 -0.1122 -0.0355
 3615W        W 7134   8.391   5.377   1.701 -0.1914 -0.0563  0.2050
 3616W        W 7135   7.459   2.101   9.241  0.0166 -0.1038 -0.1789
 3617W        W 7136   9.152   1.355   3.220  0.2678 -0.0699  0.0399
 3618W        W 7137   9.086   6.808   8.197 -0.2279  0.1743 -0.0156
 3619W        W 7138   1.390   9.386   3.804 -0.1483  0.2685  0.0398
 3620W        W 7139   3.489   0.465   9.155 -0.2507  0.0120 -0.0461
 3621W        W 7140   9.308   5.970   1.729  0.1747 -0.0678 -0.3537
 3622W        W 7141   1.760   2.668   9.240  0.1102 -0.0066 -0.1530
 3623W        W 7142   9.377   3.623  10.278 -0.1151  0.1508  0.0444
 3624W        W 7143   1.984   8.498   2.972 -0.3079 -0.3745  0.0682
 3625W        W 7144   8.519   4.327   0.348  0.1036  0.0755  0.0002
 3626W        W 7145   2.786   7.939   9.213 -0.2607 -0.2477  0.0804
 3627W        W 7146   7.904   3.492  11.168  0.2864 -0.0019  0.1253
 3628W        W 7147   9.646   4.921   9.099 -0.0165 -0.0525 -0.0819
 3629W        W 7148   4.424   5.829   9.150  0.0025 -0.0723 -0.0765
 3630W        W 7149   0.332   5.547   9.977 -0.0914  0.0828 -0.1460
 3631W        W 7150   3.225   5.796  11.050  0.2034  0.2269  0.2727
 3632W        W 7151   5.602   5.596   7.928  0.1671  0.0603 -0.1246
 3633W        W 7152   7.723   9.570   7.200 -0.1084 -0.0376 -0.0057
 3634W        W 7153   8.237   9.918   0.663  0.0159 -0.0549 -0.1582
 3635W        W 7154   8.091   4.339   7.271 -0.3614 -0.2505  0.1781
 3636W        W 7155   8.236   7.015  10.250  0.0534  0.0093  0.2225
 3637W        W 7156   7.936   3.252   0.464  0.2153  0.0249 -0.2429
 3638W        W 7157   7.294   9.569   7.688  0.0423 -0.0498  0.1645
 3639W        W 7158   5.240   6.750   0.122  0.0497  0.1492  0.1167
 3640W        W 7159   4.741   5.033   3.056  0.0618 -0.1584 -0.2888
 3641W        W 7160   3.859   6.065   0.669  0.1290  0.1136 -0.0252
 3642W        W 7161   3.739   4.255   9.738 -0.0754  0.3296 -0.0712
 3643W        W 7162   2.360   1.985   0.078  0.0162 -0.0773 -0.3594
 3644W        W 7163   8.547   9.299   8.657 -0.1130 -0.0630 -0.0505
 3645W        W 7164   9.241   6.643   2.796 -0.4618 -0.2380  0.0748
 3646W        W 7165   4.832   0.005   2.229 -0.1489  0.2894 -0.1876
 3647W        W 7166   1.989   3.753   0.406  0.2685 -0.2401 -0.0342
 3648W        W 7167   8.140   2.592   7.868  0.2143 -0.0006  0.2799
 3649W        W 7168   5.519   2.330   1.401  0.3861 -0.0030 -0.0439
 3650W        W 7169   0.549   3.007   1.735  0.1746  0.0499  0.0538
 3651W        W 7170   5.047   1.691   0.302  0.3867  0.2309  0.0439
 3652W        W 7171   2.791   8.089   2.123 -0.2113  0.3369  0.4789
 3653W        W 7172   8.447   8.660   3.654  0.0349 -0.0239  0.4056
 3654W        W 7173   3.753   2.508   3.707 -0.1974 -0.0086 -0.0586
 3655W        W 7174   1.567   7.837  10.951  0.3302  0.1643  0.2866
 3656W        W 7175   4.692   2.510   1.906  0.0720 -0.0017  0.0511
 3657W        W 7176   9.876   8.999   8.539 -0.0416  0.1185 -0.1841
 3658W        W 7177   5.202   3.662   9.375  0.5035  0.0425 -0.1607
 3659W        W 7178   4.363   0.241  10.734  0.1424  0.0842  0.1452
 3660W        W 7179   2.067   2.762   0.477  0.0463 -0.1944  0.1215
 3661W        W 7180   0.305   6.242   3.342 -0.4517  0.1127  0.3833
 3662W        W 7181   5.081   2.421   1.603  0.2086  0.2686  0.1911
 3663W        W 7182   0.666   9.162   3.669  0.2867 -0.5563 -0.1180
 3664W        W 7183   6.306   9.299   3.263 -0.1598 -0.4140 -0.0325
 3665W        W 7184   8.176   2.757   2.508  0.1846  0.3455  0.0271
 3666W        W 7185   0.281   8.194   9.743  0.3880 -0.0482 -0.0028
 3667W        W 7186   5.297   9.494  11.515 -0.3794  0.0064 -0.0054
 3668W        W 7187   7.018   3.253   1.175  0.0207 -0.4255 -0.1396
 3669W        W 7188   9.733   2.063   3.739 -0.1103  0.3014  0.1801
 3670W        W 7189   0.195   1.425   9.406 -0.0623 -0.0549  0.2225
 3671W        W 7190   7.382   3.423   2.560 -0.3651 -0.1910  0.0123
 3672W        W 7191   7.906   4.841  10.969  0.0677 -0.2720 -0.0514
 3673W        W 7192   3.931   1.254  11.535  0.0018  0.2361 -0.1526
 3674W        W 7193   5.854   3.445   0.829  0.0339 -0.1423 -0.1776
 3675W        W 7194   4.100   7.481   7.758 -0.1419 -0.0213 -0.1462
 3676W        W 7195   5.936   1.208   2.007 -0.1558  0.1819 -0.3480
 3677W        W 7196   3.455   1.806   9.818  0.1395  0.1582  0.2004
 3678W        W 7197   3.635   0.243   2.152 -0.0250 -0.0450 -0.2124
 3679W        W 7198   5.357   2.849   9.002  0.0041  0.4522  0.0072
 3680W        W 7199   2.493   3.628   9.067 -0.1348  0.2683 -0.1643
 3681W        W 7200   5.200   1.659   9.667 -0.1735 -0.0466 -0.1139
 3682W        W 7201   0.218   0.477   3.675 -0.2162  0.1057  0.2570
 3683W        W 7202   1.097   0.880   7.920 -0.0655  0.2404  0.2356
 3684W        W 7203   7.116   8.079   1.556  0.1205  0.1530 -0.0094
 3685W        W 7204   7.533   3.630  11.552 -0.1965  0.0585 -0.1294
 3686W        W 7205   0.152   4.390  11.932  0.0226 -0.0470 -0.2735
 3687W        W 7206   5.174   1.098   1.878  0.0729 -0.0884 -0.0743
 3688W        W 7207   1.024   9.404  10.761 -0.3135 -0.1133  0.0131
 3689W        W 7208   7.149   3.783   0.545 -0.0707 -0.3301 -0.3151
 3690W        W 7209   5.984   8.438   8.255  0.0301 -0.0269 -0.2663
 3691W        W 7210   6.552   8.267  10.217 -0.0393  0.1700  0.1314
 3692W        W 7211   6.147   6.940   3.235 -0.3608  0.4071  0.0305
 3693W        W 7212   3.352   7.318   9.681 -0.0112  0.1049 -0.3177
 3694W        W 7213   2.012   5.415  11.625 -0.0658 -0.1167  0.0734
 3695W        W 7214   5.088   4.611   1.247 -0.2506  0.1604  0.1165
 3696W        W 7215   5.280   8.195   2.896  0.0558 -0.0587 -0.2031
 3697W        W 7216   7.700   3.565  10.452 -0.2873 -0.1445 -0.2387
 3698W        W 7217   6.284   7.244   1.294  0.0674  0.2827  0.2312
 3699W        W 7218   1.561   4.741   0.052  0.0103  0.1357 -0.1390
 3700W        W 7219   1.353   2.608   0.047 -0.1052  0.2856 -0.2107
 3701W        W 7220   9.550   6.246  12.013  0.0129 -0.1177 -0.3826
 3702W        W 7221   9.427   8.519  11.696  0.2596 -0.2959  0.0935
 3703W        W 7222   3.428   8.813   2.653 -0.0296  0.1883 -0.1890
 3704W        W 7223   0.457   4.667  10.598 -0.1350 -0.1791  0.0609
 3705W        W 7224   6.291   4.352  11.774  0.3365 -0.1734  0.0447
 3706W        W 7225   8.087   2.852   1.372 -0.2811  0.0489 -0.0992
 3707W        W 7226   3.544   1.646  11.641  0.3201  0.0654  0.0461
 3708W        W 7227   7.609   4.390   8.113 -0.0004  0.0615  0.1272
 3709W        W 7228   6.841   3.516   3.168  0.0525 -0.0345 -0.1466
 3710W        W 7229   7.893   0.156   1.597  0.0988 -0.2623 -0.2245
 3711W        W 7230   2.807   7.413  11.999 -0.2974 -0.3286 -0.1706
 3712W        W 7231   2.326   7.877   9.448  0.1524 -0.1772  0.1674
 3713W        W 7232   5.832   3.265   7.730 -0.0059  0.4918 -0.1964
 3714W        W 7233   4.595   5.243  10.081  0.1607 -0.1314  0.0567
 3715W        W 7234   5.324   3.806   8.289 -0.2391  0.1531  0.5208
 3716W        W 7235   6.892   5.943  10.683  0.0216 -0.0762 -0.0298
 3717W        W 7236   7.351   4.822   3.530  0.0022  0.3564 -0.0621
 3718W        W 7237   6.745   1.839   0.182  0.0618  0.1363  0.3608
 3719W        W 7238   4.990   0.477   3.368  0.1676 -0.1631  0.2906
 3720W        W 7239   4.493   9.044   2.093 -0.0800 -0.0311  0.1824
 3721W        W 7240   6.370   5.002   8.345 -0.0390  0.0423 -0.3079
 3722W        W 7241   1.665   0.650   0.263  0.1972 -0.0936  0.1456
 3723W        W 7242   3.087   2.384   1.050  0.1216 -0.1748 -0.3189
 3724W        W 7243   3.932   6.778   1.900  0.0876 -0.2424 -0.0739
 3725W        W 7244   2.277   9.515   2.103 -0.1230 -0.0450 -0.2073
 3726W        W 7245   5.831   6.228   7.345  0.0567  0.0031 -0.0683
 3727W        W 7246   6.495   0.835   2.646  0.2313 -0.0190  0.1307
 3728W        W 7247   8.211   8.040   8.102 -0.2551  0.0349 -0.1657
 3729W        W 7248   1.839   0.644   8.710  0.1712 -0.0075  0.1053
 3730W        W 7249   1.495   5.513  11.538  0.2038 -0.2591  0.3080
 3731W        W 7250   3.155   2.902   2.963  0.2411  0.0687 -0.2946
 3732W        W 7251   5.636   7.236   2.131  0.1782  0.2372  0.0585
 3733W        W 7252   2.318   3.107  10.984 -0.0765 -0.2099 -0.1293
 3734W        W 7253   5.481   3.213   1.055 -0.0631 -0.2299  0.0199
 3735W        W 7254   6.208   3.229   3.177  0.1660  0.0372 -0.0725
 3736W        W 7255   8.951   5.214   9.617  0.1012 -0.0062  0.2044
 3737W        W 7256   8.424   9.653   8.140 -0.0891 -0.1626  0.0420
 3738W        W 7257   0.945   5.645   2.742 -0.0089  0.1744  0.0939
 3739W        W 7258   6.838   9.915   3.020 -0.0426 -0.0491  0.3329
 3740W        W 7259   7.210   3.367   7.361  0.3322 -0.0501  0.1381
 3741W        W 7260   1.342   3.905  10.249 -0.1205  0.2187  0.3645
 3742W        W 7261   7.312   7.279   1.784  0.2223 -0.1325  0.0779
 3743W        W 7262   7.170   6.301   1.780 -0.1467  0.2348  0.0368
 3744W        W 7263   5.195   8.248  11.248 -0.0737 -0.1204 -0.0059
 3745W        W 7264   1.494   4.460   3.173 -0.3761 -0.0560 -0.0186
 3746W        W 7265   0.071   3.579   3.782  0.1503 -0.2003 -0.1362
 3747W        W 7266   4.550   4.192   1.694 -0.5945 -0.0818  0.2286
 3748W        W 7267   4.289   3.433  11.657 -0.1011  0.0050 -0.1861
 3749W        W 7268   1.769   9.327  10.100  0.3950 -0.0296  0.3026
 3750W        W 7269   5.233   1.330   2.842 -0.1022 -0.2587 -0.1981
 3751W        W 7270   8.160   5.083  11.341  0.1651 -0.2079 -0.1113
 3752W        W 7271   3.916   0.939  10.936  0.0090 -0.3481  0.0805
 3753W        W 7272   0.553   1.018   2.579 -0.1814  0.1895  0.2394
 3754W        W 7273   5.724   1.168   9.144  0.2533 -0.0406  0.1053
 3755W        W 7274   1.669   6.549  10.771  0.1252  0.2060  0.1901
 3756W        W 7275   3.899   0.664   3.489  0.0615 -0.1968 -0.0112
 3757W        W 7276   0.627   7.195  11.054 -0.0261  0.3215 -0.2328
 3758W        W 7277   8.574   6.229  10.698 -0.0180 -0.1958  0.0057
 3759W        W 7278   1.495   1.016   9.577  0.2250 -0.3047  0.1427
 3760W        W 7279   3.402   3.908   9.621 -0.0852 -0.3001 -0.1692
 3761W        W 7280   2.321   0.159   2.292 -0.1039  0.0509 -0.0693
 3762W        W 7281   3.580   3.130  10.911  0.1266 -0.0119  0.1677
 3763W        W 7282   8.643   6.565  10.203 -0.2698 -0.0604 -0.3115
 3764W        W 7283   4.144   6.002   7.724 -0.0559  0.0146 -0.2767
 3765W        W 7284   8.977   5.377   1.055  0.0413  0.2000 -0.0762
 3766W        W 7285   3.328   2.846   8.418  0.4002 -0.0297 -0.0515
 3767W        W 7286   5.562   0.296   8.931 -0.1477  0.0891 -0.1616
 3768W        W 7287   5.489   5.477   8.410 -0.4196 -0.0561 -0.0754
 3769W        W 7288   4.275   9.651   8.624 -0.1224 -0.1257  0.0473
 3770W        W 7289   7.841   3.171  10.144 -0.3252 -0.1276  0.1295
 3771W        W 7290   5.011   5.340   9.748  0.2883  0.1120  0.1323
 3772W        W 7291   5.967   7.687  10.602 -0.0336 -0.2341 -0.1698
 3773W        W 7292   0.505   5.418  11.238 -0.3103  0.1490  0.3615
 3774W        W 7293   4.042   1.635   0.353 -0.1248  0.1527  0.0803
 3775W        W 7294   8.977   8.196  10.287 -0.0731 -0.4237  0.3630
 3776W        W 7295   6.609   4.886   1.852 -0.0618 -0.0470 -0.1124
 3777W        W 7296   5.284   1.878   2.370  0.1838  0.3141 -0.0811
 3778W        W 7297   1.689   2.462  11.145  0.0704 -0.0509 -0.1639
 3779W        W 7298   3.358   8.224   1.716  0.2923 -0.0171  0.4286
 3780W        W 7299   5.888   4.525  11.403  0.0020  0.1509 -0.1205
 3781W        W 7300   1.342   9.615   0.472  0.1349 -0.0889 -0.2995
 3782W        W 7301   2.734   3.040   1.626 -0.0238 -0.2784  0.0752
 3783W        W 7302   8.386   3.093   8.765  0.0603 -0.2908 -0.4438
 3784W        W 7303   6.905   6.337   2.193  0.1249 -0.2274 -0.4255
 3785W        W 7304   2.904   8.790   0.236  0.0976 -0.1196 -0.1140
 3786W        W 7305   3.796   8.215  10.676 -0.4053 -0.1103  0.2271
 3787W        W 7306   3.406   0.197  11.996 -0.0486 -0.0140 -0.1683
 3788W        W 7307   0.551   0.384   1.948 -0.0864  0.0070 -0.1509
 3789W        W 7308   2.627   9.491  10.518 -0.1492 -0.3668  0.0366
 3790W        W 7309   3.658   5.205  11.745 -0.0347 -0.0773  0.0046
 3791W        W 7310   8.241   1.755   1.939  0.2229  0.0170 -0.2547
 3792W        W 7311   2.898   3.931   9.469 -0.1701 -0.2421 -0.0378
 3793W        W 7312   4.681   5.659   0.109 -0.0058  0.1016  0.1949
 3794W        W 7313   0.625   5.276   9.352  0.2029  0.0951 -0.0221
 3795W        W 7314   3.042   0.815  10.867 -0.1169 -0.0041 -0.0177
 3796W        W 7315   6.448   5.049  11.281  0.0488  0.1242  0.1537
 3797W        W 7316   4.101   7.358   3.178  0.0868  0.2487 -0.1521
 3798W        W 7317   3.554   1.814   2.620 -0.1387 -0.1477  0.1286
 3799W        W 7318   6.157   6.721  10.365  0.2344  0.1111 -0.2017
 3800W        W 7319   4.851   6.157   7.319  0.4109  0.3070 -0.4096
 3801W        W 7320   2.237   0.574   9.784  0.0510  0.2187  0.1759
 3802W        W 7321   0.981   2.067  11.293  0.1851 -0.0487  0.1011
 3803W        W 7322   9.198   0.191  11.189 -0.0434  0.4324  0.2040
 3804W        W 7323   0.370   3.018   8.360  0.0610 -0.1688  0.0986
 3805W        W 7324   1.025   8.320   9.187 -0.1693 -0.0308 -0.3280
 3806W        W 7325   6.027   6.826   2.100  0.1030  0.0950  0.4677
 3807W        W 7326   3.564   6.244   9.900  0.1766 -0.1649 -0.2824
 3808W        W 7327   6.853   2.317   0.429  0.0947 -0.2277 -0.2084
 3809W        W 7328   2.892   3.353   0.048  0.4841 -0.2268 -0.4131
 3810W        W 7329   1.256   6.340   0.968  0.0119 -0.0964 -0.1166
 3811W        W 7330   6.827   3.186   2.536 -0.1231 -0.3752 -0.5281
 3812W        W 7331   8.168   2.732   8.394 -0.0959  0.0911  0.1024
 3813W        W 7332   8.978   9.842   1.591  0.1630  0.0927 -0.0781
 3814W        W 7333   7.624   9.528  10.326 -0.3556 -0.1729  0.0368
 3815W        W 7334   7.590   3.322   8.078 -0.1644  0.0238  0.1282
 3816W        W 7335   0.143   2.816   1.037 -0.1166  0.0431  0.0065
 3817W        W 7336   1.802   0.350   2.210 -0.0861 -0.1748 -0.0409
 3818W        W 7337   1.322   1.706  10.318  0.2193  0.0742 -0.1942
 3819W        W 7338   2.212   2.461  11.847 -0.0770 -0.1997  0.0016
 3820W        W 7339   7.586   0.328  11.381 -0.0220  0.0004  0.0597
 3821W        W 7340   8.043   8.199  11.271 -0.0775  0.1909 -0.1179
 3822W        W 7341   4.989   3.790   1.812  0.1790 -0.0629  0.2334
 3823W        W 7342   3.545   3.282   0.524  0.2313 -0.0188  0.0735
 3824W        W 7343   0.343   2.320   9.555 -0.0116  0.0967  0.0589
 3825W        W 7344   7.826   2.427   3.392  0.2116  0.2845  0.2290
 3826W        W 7345   6.947   4.478   1.111  0.0820 -0.1451  0.0406
 3827W        W 7346   7.952   3.533  12.007 -0.2610  0.2453 -0.0234
 3828W        W 7347   3.854   9.596   2.576  0.0861 -0.0481 -0.2493
 3829W        W 7348   9.824   4.330   0.884 -0.0142  0.0260  0.0231
 3830W        W 7349   8.924   4.829   8.238 -0.1333  0.0376  0.0283
 3831W        W 7350   6.424   6.223   2.180  0.0185 -0.2132  0.1168
 3832W        W 7351   3.292   4.624   2.053 -0.1491 -0.1229  0.1296
 3833W        W 7352   9.310   1.546  11.119 -0.1081  0.5218 -0.1900
 3834W        W 7353   9.290   3.131   8.853 -0.2170  0.0859  0.4704
 3835W        W 7354   0.983   6.294   9.800  0.0234 -0.0800  0.2106
 3836W        W 7355   2.900   8.438   2.493  0.1068  0.0341 -0.2299
 3837W        W 7356   5.650   1.394   8.541 -0.0720 -0.2366 -0.2741
 3838W        W 7357   3.671   2.277   2.379  0.0787  0.1807  0.1278
 3839W        W 7358   7.738   0.608   0.117  0.0542  0.1607  0.1393
 3840W        W 7359   9.418   7.215   0.253 -0.1923 -0.2826 -0.2522
 3841W        W 7360   5.881   9.770   8.779  0.0297 -0.1923  0.0759
 3842W        W 7361   4.499   5.348   7.411 -0.0121  0.0907  0.2180
 3843W        W 7362   1.519   6.867  11.636 -0.0338  0.2146 -0.0035
 3844W        W 7363   5.842   3.549  11.946 -0.2578 -0.1955 -0.1372
 3845W        W 7364   2.456   3.531   3.279 -0.1687  0.0978 -0.0067
 3846W        W 7365   8.873   0.550   2.380 -0.2210 -0.0063 -0.1031
 3847W        W 7366   4.941   2.608   8.713 -0.2435  0.1918  0.1253
 3848W        W 7367   2.646   2.487   2.470 -0.4075  0.3555 -0.0832
 3849W        W 7368   4.655   1.736   2.333  0.2796 -0.0452  0.0703
 3850W        W 7369   0.037   2.305  10.036  0.2648  0.2494  0.1191
 3851W        W 7370   4.463   2.620   2.348  0.3018 -0.1659 -0.1152
 3852W        W 7371   1.613   8.871   8.586  0.0715  0.1203 -0.0897
 3853W        W 7372   6.480   6.300   2.685 -0.0096  0.1515  0.2936
 3854W        W 7373   5.534   2.217  10.481 -0.0853  0.1956 -0.0726
 3855W        W 7374   3.652   3.967   3.136  0.0739 -0.1383  0.2020
 3856W        W 7375   5.513   0.018  11.629  0.0136  0.0352 -0.0616
 3857W        W 7376   2.318   0.389   7.926 -0.0219 -0.2080  0.0134
 3858W        W 7377   0.865   6.267  10.694  0.0755 -0.0715 -0.1682
 3859W        W 7378   5.691   6.741   8.434 -0.2726 -0.0566 -0.3994
 3860W        W 7379   7.906   5.486   9.199 -0.2485 -0.0586  0.0118
 3861W        W 7380   0.025   8.752  10.762  0.2030  0.3462 -0.0039
 3862W        W 7381   1.611   8.989   9.769 -0.0294  0.1097  0.0086
 3863W        W 7382   6.967   2.161   8.387  0.0763  0.0818 -0.2084
 3864W        W 7383   6.084   6.113   8.936 -0.2253  0.1661 -0.2004
 3865W        W 7384   0.622   3.422   8.658  0.1211 -0.1172  0.2177
 3866W        W 7385   2.002   3.257  11.339  0.0496 -0.2178  0.0104
 3867W        W 7386   1.781   0.830   2.329 -0.2289  0.0405 -0.1861
 3868W        W 7387   2.937   0.718   7.943  0.0459 -0.0790 -0.5594
 3869W        W 7388   4.302   3.114   8.825 -0.3480  0.0746  0.2188
 3870W        W 7389   5.584   9.572   7.024  0.0795  0.0696 -0.0122
 3871W        W 7390   9.145   2.512  11.292 -0.1181 -0.0653 -0.3251
 3872W        W 7391   2.840   1.087   0.813  0.2524  0.1354  0.2354
 3873W        W 7392   9.082   7.721   9.566  0.0399 -0.0033  0.3495
 3874W        W 7393   8.658   7.751  10.174  0.1890 -0.0593  0.0358
 3875W        W 7394   2.942   5.276   3.442  0.2107 -0.1518 -0.0282
 3876W        W 7395   2.285   4.778  11.521 -0.0110  0.2044  0.0158
 3877W        W 7396   2.976   1.880   9.767 -0.1434 -0.3619  0.2101
 3878W        W 7397   8.345   6.363   1.657 -0.1965  0.0410  0.2178
 3879W        W 7398   1.510   2.915   3.180 -0.1622  0.2893 -0.1754
 3880W        W 7399   3.667   0.985   7.792 -0.0358  0.3010  0.1491
 3881W        W 7400   5.004   0.448   0.865 -0.1107 -0.2254  0.0512
 3882W        W 7401   4.233   7.888  10.471 -0.0027 -0.3386  0.1023
 3883W        W 7402   4.118   3.340   2.525  0.2225  0.2883 -0.1660
 3884W        W 7403   8.350   8.666  10.310 -0.1621 -0.3678  0.0948
 3885W        W 7404   1.971   7.862   8.822 -0.2019 -0.0425 -0.0227
 3886W        W 7405   1.937   2.046   0.967  0.1701 -0.0899  0.0615
 3887W        W 7406   9.776   6.235   1.576  0.1830 -0.0129  0.0730
 3888W        W 7407   5.474   0.152   9.864  0.0323 -0.2477  0.0811
 3889W        W 7408   4.543   5.487   9.544 -0.2269 -0.0018 -0.1251
 3890W        W 7409   2.328   5.420   2.793 -0.4198  0.1841 -0.0544
 3891W        W 7410   5.662   4.516  10.576  0.1535  0.2761 -0.3261
 3892W        W 7411   3.081   8.220   3.881 -0.0020 -0.2797  0.1300
 3893W        W 7412   5.341   1.126   0.693 -0.3191  0.2337 -0.0044
 3894W        W 7413   5.055   5.968  10.579 -0.0683  0.2095 -0.0608
 3895W        W 7414   7.681   2.642   2.490 -0.2401 -0.1369  0.0303
 3896W        W 7415   0.184   2.286   8.327 -0.3303 -0.0989  0.3246
 3897W        W 7416   4.851   0.205  10.746 -0.1008 -0.0762  0.1262
 3898W        W 7417   4.773   5.283   2.476  0.0433  0.0439 -0.0704
 3899W        W 7418   8.776   0.461   3.218  0.1858  0.0894  0.3099
 3900W        W 7419   5.191   2.940   1.757 -0.2149  0.4492  0.0053
 3901W        W 7420   5.193   0.841  10.975  0.0724 -0.0478  0.0509
 3902W        W 7421   2.636   3.520   1.702  0.1792 -0.0569 -0.1180
 3903W        W 7422   0.551   2.266   2.547 -0.2839  0.2341  0.4728
 3904W        W 7423   5.867   1.352   8.127 -0.2374  0.1853 -0.0208
 3905W        W 7424   2.005   7.075   2.494 -0.3207 -0.1102 -0.3009
 3906W        W 7425   3.519   5.196   0.253  0.1585 -0.0011  0.1438
 3907W        W 7426   4.272   8.811  10.288  0.0183  0.0305 -0.3036
 3908W        W 7427   0.380   3.245   0.111  0.0042 -0.0477  0.1780
 3909W        W 7428   4.488   0.517  11.321 -0.1981 -0.1688  0.0144
 3910W        W 7429   5.167   5.902   8.665 -0.0949  0.0947  0.2051
 3911W        W 7430   2.509   3.692   0.712 -0.1595 -0.1471  0.1680
 3912W        W 7431   9.654   1.198   9.407 -0.1488  0.2902 -0.1884
 3913W        W 7432   2.101   4.549   9.892  0.0288 -0.3891 -0.2016
 3914W        W 7433   0.869   5.111   8.894 -0.1704  0.2855 -0.1031
 3915W        W 7434   1.749   2.381  11.678 -0.0427  0.2658 -0.1908
 3916W        W 7435   2.440   5.889   2.810  0.2011  0.1777 -0.0028
 3917W        W 7436   9.024   6.560  10.641 -0.0254  0.1343  0.2204
 3918W        W 7437   8.986   2.451   1.809  0.1016 -0.3513 -0.0568
 3919W        W 7438   8.266   4.983   7.910 -0.0542  0.1036 -0.0247
 3920W        W 7439   4.198   8.409   1.205 -0.1604  0.4199 -0.0542
 3921W        W 7440   0.287   1.714  10.966 -0.0315 -0.0258  0.0841
 3922W        W 7441   4.449   3.722   0.460  0.2613 -0.1066 -0.1585
 3923W        W 7442   4.240   0.596   8.591 -0.1158 -0.0904  0.0188
 3924W        W 7443   5.179   5.569   2.233 -0.2979 -0.0978  0.1954
 3925W        W 7444   7.838   9.145  11.099 -0.2488 -0.0895  0.2294
 3926W        W 7445   6.087   3.656   8.573  0.1377 -0.3136 -0.2948
 3927W        W 7446   7.382   1.796   2.892 -0.1230 -0.0468 -0.0521
 3928W        W 7447   3.308   3.528  10.721 -0.0801  0.2677  0.1110
 3929W        W 7448   7.587   7.978  11.259 -0.0848  0.0626  0.2883
 3930W        W 7449   4.954   9.096   6.877 -0.0780 -0.1780  0.1453
 3931W        W 7450   4.924   9.890   0.932  0.1393 -0.1004 -0.0763
 3932W        W 7451   3.135   7.224   9.193  0.3431 -0.2071 -0.0138
 3933W        W 7452   1.144   6.316   8.580  0.0108  0.2130 -0.1621
 3934W        W 7453   9.774   7.535   0.685  0.2471  0.0017  0.2194
 3935W        W 7454   2.794   7.438   1.431 -0.2093  0.0086 -0.0973
 3936W        W 7455   5.197   4.108  10.244 -0.0917  0.2072 -0.0407
 3937W        W 7456   3.205   1.346   3.524 -0.0665 -0.1949  0.0386
 3938W        W 7457   6.201   3.526   1.269  0.2209 -0.0171  0.4056
 3939W        W 7458   8.609   3.255  10.801  0.1458  0.1298  0.2550
 3940W        W 7459   6.627   3.078  11.848 -0.2967  0.0554 -0.1175
 3941W        W 7460   5.024   6.900   2.301  0.0364  0.0515  0.3153
 3942W        W 7461   0.903   2.328   1.130  0.1844  0.0404 -0.0793
 3943W        W 7462   9.482   4.217   7.691 -0.1618  0.2146 -0.2913
 3944W        W 7463   5.404   4.876   1.873 -0.0360 -0.0496 -0.1990
 3945W        W 7464   7.778   6.325   9.794  0.0533 -0.1074  0.1570
 3946W        W 7465   4.480   0.936  10.243 -0.2698  0.1337  0.0895
 3947W        W 7466   8.338   3.792  10.501  0.2759  0.4051 -0.1413
 3948W        W 7467   6.900   9.497   8.003  0.2485 -0.2779  0.2363
 3949W        W 7468   4.428   3.586  11.212 -0.0582  0.0531  0.4600
 3950W        W 7469   5.671   4.861   7.716 -0.0440  0.1382  0.0490
 3951W        W 7470   0.981   3.511   0.391  0.2020  0.1488 -0.1364
 3952W        W 7471   8.846   8.158   1.743 -0.1603  0.1730 -0.2410
 3953W        W 7472   1.848   3.372   1.986 -0.3975  0.2224 -0.3456
 3954W        W 7473   7.839   7.129  11.692 -0.2028 -0.0726  0.0313
 3955W        W 7474   4.551   4.956   3.513 -0.0608 -0.2409  0.1711
 3956W        W 7475   9.776   0.542   0.184  0.0819  0.0729 -0.2723
 3957W        W 7476   7.998   4.198   9.864  0.0455 -0.2253  0.1944
 3958W        W 7477   6.529   6.317  10.401  0.1087 -0.3257 -0.4448
 3959W        W 7478   2.892   4.633   0.238 -0.0643  0.1533  0.3955
 3960W        W 7479   8.355   0.622   2.330 -0.2342  0.1708  0.1276
 3961W        W 7480   5.387   6.294   3.260  0.3997 -0.0869 -0.2246
 3962W        W 7481   7.756   9.514   0.510  0.2135  0.1050 -0.0997
 3963W        W 7482   6.596   1.469   1.784  0.0326 -0.0679  0.2032
 3964W        W 7483   6.339   5.258   2.051 -0.0659 -0.1618  0.2873
 3965W        W 7484   7.149   9.340   2.313  0.1516  0.2017 -0.1119
 3966W        W 7485   5.975   2.489   1.491  0.1189 -0.0816  0.2697
 3967W        W 7486   5.962   0.711  10.850 -0.2291 -0.1661  0.0527
 3968W        W 7487   5.531   2.669  10.911 -0.0428 -0.4346 -0.0198
 3969W        W 7488   2.921   8.971   9.493 -0.0763 -0.0317  0.1136
 3970W        W 7489   8.964   7.847   2.313  0.1847 -0.3087  0.0758
 3971W        W 7490   0.903   6.180   2.017 -0.0350  0.3067 -0.0296
 3972W        W 7491   2.176   8.591   3.425 -0.0715 -0.1874  0.3747
 3973W        W 7492   5.616   3.785  10.185  0.0044  0.5629  0.0117
 3974W        W 7493   2.470   5.354   1.954 -0.4296  0.1490  0.2889
 3975W        W 7494   3.606   5.998   2.391  0.2462 -0.1862  0.0097
 3976W        W 7495   8.438   4.085  11.023 -0.0018 -0.0363  0.2086
 3977W        W 7496   7.053   0.893   8.807 -0.1457  0.1591 -0.0304
 3978W        W 7497   1.441   1.575   1.514 -0.6352 -0.0068  0.0120
 3979W        W 7498   1.578   1.100   2.892  0.2863  0.0411  0.0114
 3980W        W 7499   8.376   5.722   2.134  0.1517 -0.3702 -0.0753
 3981W        W 7500   4.075   2.012   8.983 -0.0942  0.2676  0.0561
 3982W        W 7501   2.079   5.780   3.128 -0.1826  0.1277  0.1060
 3983W        W 7502   8.078   0.128   2.339 -0.1074  0.1243  0.1490
 3984W        W 7503   9.619   7.019   9.053  0.1608 -0.2763  0.1353
 3985W        W 7504   7.978   9.552   8.104 -0.1235  0.2360  0.1395
 3986W        W 7505   0.533   2.294   3.052 -0.3754 -0.1064  0.1786
 3987W        W 7506   2.905   7.630   2.421  0.1379 -0.0604 -0.3152
 3988W        W 7507   7.346   3.017  10.266 -0.2037 -0.3285 -0.4258
 3989W        W 7508   1.922   6.673   1.490  0.0622  0.0898  0.0562
 3990W        W 7509   8.053   4.549   3.199 -0.1570  0.1273  0.2041
 3991W        W 7510   9.764   4.746   8.052 -0.2207 -0.2240  0.1188
 3992W        W 7511   8.032   7.976   1.869  0.0103 -0.2134  0.1880
 3993W        W 7512   7.791   6.949   8.432  0.1627  0.0748 -0.2947
 3994W        W 7513   5.713   5.310  11.020 -0.1327  0.0835  0.0554
 3995W        W 7514   5.410   5.418   3.830 -0.3486 -0.0231 -0.1354
 3996W        W 7515   1.470   1.684   0.854  0.0413  0.3488 -0.0222
 3997W        W 7516   7.516   2.454   2.929  0.0265 -0.0099 -0.2096
 3998W        W 7517   5.770   9.631   2.415 -0.1919 -0.0106  0.1374
 3999W        W 7518   4.219   3.848   2.828 -0.2876 -0.3209  0.0166
 4000W        W 7519   1.282   8.498  11.490 -0.0002 -0.0944  0.0111
 4001W        W 7520   9.069   2.935  11.512  0.1559 -0.0078 -0.0646
 4002W        W 7521   4.911   1.738   2.770 -0.2441  0.0407 -0.1206
 4003W        W 7522   8.762   7.303   8.948  0.3400 -0.0901  0.0172
 4004W        W 7523   4.154   7.349  11.770 -0.2588  0.2601  0.0488
 4005W        W 7524   6.813   5.047   7.924  0.0380 -0.0942  0.2249
 4006W        W 7525   8.192   5.877   3.282  0.0401  0.0804 -0.0309
 4007W        W 7526   1.808   5.123  10.686 -0.0868  0.1192  0.2396
 4008W        W 7527   4.511   9.278   3.820  0.0057  0.0023  0.0731
 4009W        W 7528   7.003   3.522   9.136  0.0820 -0.0635  0.0454
 4010W        W 7529   2.601   5.384   0.174 -0.2507 -0.3538  0.1814
 4011W        W 7530   6.552   0.420   0.700 -0.0347 -0.1377  0.2342
 4012W        W 7531   2.862   2.960   9.677 -0.3092 -0.0322  0.1887
 4013W        W 7532   7.107   1.527   0.495  0.1352  0.0176 -0.2821
 4014W        W 7533   1.991   6.794   3.891 -0.2209  0.3056 -0.2034
 4015W        W 7534   5.813   4.122  11.809 -0.0718 -0.0938  0.2643
 4016W        W 7535   1.594   0.506  11.466  0.0983 -0.3068  0.4348
 4017W        W 7536   3.357   0.709   0.771  0.1160 -0.1375 -0.0348
 4018W        W 7537   2.100   0.010   2.683  0.0532 -0.0200  0.1044
 4019W        W 7538   5.450   7.208   0.255 -0.0127 -0.2870 -0.1161
 4020W        W 7539   7.305   1.260  10.222 -0.0395 -0.1013  0.1597
 4021W        W 7540   8.903   0.725   9.264 -0.2493  0.3080 -0.1918
 4022W        W 7541   9.784   5.535   9.586  0.2589  0.2201  0.0472
 4023W        W 7542   0.073   2.171   9.030 -0.2282 -0.0473 -0.0046
 4024W        W 7543   9.020   3.559   8.836  0.0289  0.0538 -0.1293
 4025W        W 7544   8.480   3.529   8.564  0.3638 -0.1292  0.0166
 4026W        W 7545   4.706   7.389   3.539  0.1834 -0.0769  0.0600
 4027W        W 7546   8.637   3.055   9.985  0.1723 -0.1669  0.0601
 4028W        W 7547   1.333   9.576  10.394 -0.3592  0.0937 -0.0341
 4029W        W 7548   5.191   2.491  11.367  0.0741  0.1377 -0.0820
 4030W        W 7549   0.589   0.531  10.639 -0.4295  0.1958  0.0347
 4031W        W 7550   8.084   5.176   0.857  0.1490  0.1028 -0.0714
 4032W        W 7551   6.980   1.080  11.907 -0.1906  0.1726 -0.3796
 4033W        W 7552   2.215   4.387  10.511  0.2469  0.2799 -0.0298
 4034W        W 7553   6.421   0.981   1.861 -0.3868  0.1257  0.0958
 4035W        W 7554   9.433   4.940   8.345  0.1401  0.1966 -0.1913
 4036W        W 7555   7.918   8.822  11.662  0.0205  0.1191  0.2615
 4037W        W 7556   5.364   5.332  11.774 -0.1735  0.1894  0.0506
 4038W        W 7557   1.033   5.972   1.530  0.1530 -0.3098 -0.1062
 4039W        W 7558   7.061   3.839   8.670  0.1577  0.0114 -0.2194
 4040W        W 7559   6.870   2.213   3.452  0.3455 -0.1675  0.0124
 4041W        W 7560   8.432   7.141   1.068  0.1630 -0.3537 -0.0318
 4042W        W 7561   1.137   6.373  11.656 -0.1861 -0.2079 -0.2920
 4043W        W 7562   8.398   7.927   1.461 -0.0146  0.1899 -0.2678
 4044W        W 7563   8.599   8.040   9.616 -0.3616  0.0630  0.0615
 4045W        W 7564   0.818   3.645   1.395  0.0828  0.0792  0.0426
 4046W        W 7565   3.777   8.537   0.964  0.0404 -0.0791  0.0858
 4047W        W 7566   0.834   2.784  11.325 -0.0255 -0.0752 -0.0661
 4048W        W 7567   9.487   1.030   8.704  0.2864  0.0512  0.0165
 4049W        W 7568   8.573   2.674   9.624 -0.2570 -0.0921  0.0080
 4050W        W 7569   4.389   6.972   1.690 -0.3265  0.1369  0.0074
 4051W        W 7570   0.703   3.690  10.924 -0.1553 -0.0801  0.0744
 4052W        W 7571   1.590   5.918   3.005  0.1058  0.2332 -0.0230
 4053W        W 7572   3.193   2.398   8.198  0.2209  0.0061 -0.0850
 4054W        W 7573   4.146   2.360   1.099  0.0604  0.2724 -0.1795
 4055W        W 7574   4.709   8.581   2.005  0.0026 -0.0592  0.1073
 4056W        W 7575   6.714   7.045   0.490  0.2117  0.1753  0.0035
 4057W        W 7576   7.221   8.867   2.171  0.1805 -0.3755  0.0731
 4058W        W 7577   3.475   4.009  11.433  0.0651 -0.1322  0.0446
 4059W        W 7578   5.401   6.167  10.066  0.0442  0.0971 -0.0508
 4060W        W 7579   4.482   1.412   0.589  0.2474 -0.1547  0.0314
 4061W        W 7580   4.030   7.766   8.214 -0.2021  0.1074 -0.1571
 4062W        W 7581   4.625   2.160   0.930  0.1771  0.0889 -0.0120
 4063W        W 7582   6.911   6.613  10.649  0.3788 -0.2118 -0.4748
 4064W        W 7583   5.668   7.706   2.464  0.1426  0.0808 -0.2098
 4065W        W 7584   9.748   1.835  11.254  0.1551 -0.1390 -0.0059
 4066W        W 7585   3.815   5.987   8.638 -0.2917 -0.2785  0.1393
 4067W        W 7586   5.810   2.553   9.078 -0.2422 -0.0390  0.1276
 4068W        W 7587   5.072   8.443  10.365 -0.2240  0.0881  0.4285
 4069W        W 7588   7.622   8.900   3.092 -0.1715 -0.2051  0.1073
 4070W        W 7589   4.865   6.367  10.339  0.1027  0.2096  0.0015
 4071W        W 7590   4.895   5.844   9.398 -0.0409 -0.3152  0.0920
 4072W        W 7591   7.952   0.446   2.019  0.2707  0.0531  0.0333
 4073W        W 7592   2.472   7.136   2.742 -0.0562 -0.5647 -0.3113
 4074W        W 7593   8.542   0.104   8.482 -0.3522 -0.0632  0.0934
 4075W        W 7594   5.945   9.576  10.259 -0.3064 -0.2415 -0.0066
 4076W        W 7595   4.448   4.795   9.944  0.1913  0.2049 -0.0443
 4077W        W 7596   3.622   3.385   1.561 -0.0771  0.1214  0.0297
 4078W        W 7597   0.809   1.092   3.474  0.1369 -0.0794 -0.0680
 4079W        W 7598   6.106   9.437   8.488 -0.0414  0.1785  0.0212
 4080W        W 7599   1.278   2.561  11.526 -0.2991 -0.1381 -0.1183
 4081W        W 7600   7.224   3.028   8.948  0.1848 -0.1860 -0.0123
 4082W        W 7601   0.708   1.874   1.009  0.0640 -0.3468 -0.0306
 4083W        W 7602   6.530   5.386   1.047 -0.0847  0.0126  0.1275
 4084W        W 7603   1.509   7.832  10.070 -0.3357 -0.2637 -0.0535
 4085W        W 7604   6.212   7.242   9.614 -0.4103  0.4268  0.1202
 4086W        W 7605   0.313   7.382   1.910  0.2235 -0.3312 -0.4549
 4087W        W 7606   5.476   8.814   3.080 -0.1239 -0.1096  0.3489
 4088W        W 7607   7.163   4.032  11.581 -0.1485  0.1369 -0.2032
 4089W        W 7608   2.518   2.488  10.454 -0.1322 -0.1995 -0.6038
 4090W        W 7609   8.665   4.433   2.807  0.3924  0.2464 -0.1351
 4091W        W 7610   0.703   8.075   1.184 -0.2144 -0.1555  0.3087
 4092W        W 7611   0.242   6.593   1.486 -0.3521 -0.1062  0.0066
 4093W        W 7612   7.400   4.656   1.343  0.3147 -0.0786 -0.2477
 4094W        W 7613   3.471   8.845   7.043  0.2732  0.2558  0.1401
 4095W        W 7614   5.425   9.534   0.589  0.0599 -0.0360  0.1044
 4096W        W 7615   1.822   6.106   9.455 -0.6137 -0.2677  0.1300
 4097W        W 7616   1.092   9.821   8.198  0.0669  0.0421  0.1012
 4098W        W 7617   8.032   9.789  10.028  0.1468  0.0225  0.2347
 4099W        W 7618   7.145   5.655   1.651 -0.2438  0.3191 -0.2596
 4100W        W 7619   3.467   4.882   8.289 -0.3964  0.1807  0.1104
 4101W        W 7620   0.692   0.957   0.701 -0.3340 -0.1810 -0.0470
 4102W        W 7621   2.298   0.404   8.451  0.0750  0.1522 -0.0119
 4103W        W 7622   1.403   4.529   0.533 -0.1050  0.2226 -0.1497
 4104W        W 7623   8.438   4.067  10.037  0.3292 -0.0378 -0.1630
 4105W        W 7624   6.869   4.925   9.655  0.0746  0.0645 -0.0851
 4106W        W 7625   3.060   9.203   9.014 -0.0089  0.1091  0.0714
 4107W        W 7626   4.653   0.238   8.468  0.1612  0.1913 -0.0784
 4108W        W 7627   1.749   4.102  11.661  0.1068  0.0708 -0.0445
 4109W        W 7628   7.295   4.916  11.336  0.1357 -0.2348  0.2505
 4110W        W 7629   2.986   4.756   3.081  0.1767 -0.2708  0.3059
 4111W        W 7630   4.874   5.613   8.425 -0.2001  0.1581 -0.2431
 4112W        W 7631   8.651   1.105  10.115  0.1678 -0.0772  0.1823
 4113W        W 7632   6.265   4.647   8.730  0.1941  0.0473 -0.0153
 4114W        W 7633   6.524   2.403   2.223 -0.0584  0.0379  0.1169
 4115W        W 7634   5.388   7.863   2.032 -0.4405 -0.0993 -0.1265
 4116W        W 7635   3.735   9.704   8.525 -0.1688  0.0554 -0.0045
 4117W        W 7636   5.622   5.030  11.470 -0.0388 -0.1328  0.1190
 4118W        W 7637   5.120   6.636   9.956 -0.0457  0.0785  0.1141
 4119W        W 7638   5.338   2.876   9.960 -0.1096  0.1148 -0.1787
 4120W        W 7639   9.562   9.135  10.625 -0.2485 -0.0536  0.0603
 4121W        W 7640   6.848   9.083  11.516 -0.0757 -0.0219 -0.1306
 4122W        W 7641   2.212   9.552   9.999  0.1169 -0.1735  0.0761
 4123W        W 7642   1.215   6.674   9.492 -0.0815 -0.0227  0.1463
 4124W        W 7643   3.682   5.080   0.711  0.1164 -0.2192 -0.0118
 4125W        W 7644   4.291   7.043   9.906 -0.1354 -0.2986  0.3600
 4126W        W 7645   1.214   3.566  11.859  0.0800  0.0876 -0.0224
 4127W        W 7646   9.454   1.617   9.700 -0.0881  0.0558 -0.0830
 4128W        W 7647   6.037   5.488   8.394 -0.3372 -0.1089  0.1781
 4129W        W 7648   9.125   9.098   0.257  0.3100 -0.0153  0.0386
 4130W        W 7649   8.751   0.893  10.613  0.0055 -0.0412 -0.2111
 4131W        W 7650   6.700   6.260   0.238  0.3143 -0.0314 -0.2722
 4132W        W 7651   0.839   0.041  10.807  0.0968 -0.0779 -0.4044
 4133W        W 7652   8.618   6.914  11.531  0.1102 -0.0204 -0.1568
 4134W        W 7653   7.108   6.053   8.014 -0.1854  0.0535  0.1264
 4135W        W 7654   2.524   8.701   9.740  0.0735 -0.0681  0.0576
 4136W        W 7655   1.695   3.714   1.213  0.2054 -0.1150  0.2918
 4137W        W 7656   9.769   0.721  10.065  0.1927 -0.0172  0.0239
 4138W        W 7657   1.480   7.337  11.806  0.0558 -0.1260  0.1066
 4139W        W 7658   2.604   5.058   0.596 -0.0853  0.3077 -0.0963
 4140W        W 7659   6.971   2.151   1.339 -0.4207  0.0920  0.0500
 4141W        W 7660   7.443   8.878   3.625  0.0567  0.3246 -0.4404
 4142W        W 7661   0.430   6.810  10.117 -0.1200  0.0913 -0.0309
 4143W        W 7662   7.637   9.204   0.137 -0.0039  0.1331  0.0172
 4144W        W 7663   3.604   2.754   8.948 -0.0474  0.0323 -0.0953
 4145W        W 7664   1.526   8.609   7.789 -0.1293  0.1077 -0.0442
 4146W        W 7665   8.051   6.073   2.181 -0.0822  0.0449 -0.1337
 4147W        W 7666   5.592   1.611  11.055  0.0525 -0.0544 -0.3811
 4148W        W 7667   6.852   7.357   4.222 -0.3052 -0.1821 -0.2462
 4149W        W 7668   3.969   9.156   7.869  0.0617 -0.2389  0.3179
 4150W        W 7669   1.692   8.531   0.921  0.0331  0.0205 -0.2157
 4151W        W 7670   6.880   4.130   1.523 -0.0856 -0.0954  0.2692
 4152W        W 7671   9.772   9.766   0.246  0.2790  0.0549  0.1886
 4153W        W 7672   3.273   5.790  10.515  0.1095  0.1847 -0.0787
 4154W        W 7673   2.296   6.147   9.003  0.3011  0.1789  0.3821
 4155W        W 7674   3.944   6.317  10.673  0.4606 -0.1886  0.2428
 4156W        W 7675   8.225   7.309  10.765  0.3937 -0.3338  0.1984
 4157W        W 7676   0.097   1.942   9.744 -0.0509  0.1421 -0.0961
 4158W        W 7677   2.846   8.560   0.815 -0.2648 -0.0262  0.2139
 4159W        W 7678   7.055   2.446  11.552  0.0707 -0.1414  0.1817
 4160W        W 7679   7.735   3.152  11.576 -0.0316 -0.0892  0.0158
 4161W        W 7680   6.720   3.621  11.905 -0.1745  0.0140  0.0211
 4162W        W 7681   1.312   7.952   8.881 -0.2093  0.2784 -0.3472
 4163W        W 7682   9.614   3.664   0.502  0.1556  0.2191  0.0274
 4164W        W 7683   1.002   3.438   3.783  0.2180  0.0814 -0.2373
 4165W        W 7684   5.286   6.047   9.123 -0.1491  0.2817  0.0441
 4166W        W 7685   7.716   7.712   9.984 -0.0003 -0.0554 -0.0512
 4167W        W 7686   7.772   1.560  10.182  0.0269 -0.0215  0.0581
 4168W        W 7687   8.747   6.674  11.072 -0.0684  0.3076 -0.1783
 4169W        W 7688   2.985   7.437   7.146 -0.2040  0.1522 -0.0950
 4170W        W 7689   3.446   6.401   1.962 -0.1995 -0.2154  0.1066
 4171W        W 7690   3.759   0.621   1.341  0.2260  0.1297  0.0862
 4172W        W 7691   2.823   5.141   9.944  0.0942  0.0257 -0.1208
 4173W        W 7692   8.977   8.121   9.298  0.2921 -0.3702 -0.1489
 4174W        W 7693   0.871   1.954   2.747  0.0189  0.0933 -0.1570
 4175W        W 7694   1.341   8.135   9.677 -0.1245 -0.0839 -0.0837
 4176W        W 7695   1.381   9.700   8.624 -0.3842 -0.6056 -0.0406
 4177W        W 7696   3.832   2.636  10.141 -0.3048 -0.1353  0.2363
 4178W        W 7697   4.066   0.644  10.548  0.0571 -0.3597  0.3601
 4179W        W 7698   6.093   7.804  11.522 -0.2736 -0.2349 -0.0045
 4180W        W 7699   5.546   7.824  11.545  0.3779 -0.0135 -0.1081
 4181W        W 7700   1.121   2.503  10.558  0.5159  0.1474  0.3450
 4182W        W 7701   8.261   8.166   0.134 -0.0395  0.0522 -0.1535
 4183W        W 7702   8.769   3.497   0.925 -0.2564 -0.0997 -0.1648
 4184W        W 7703   6.475   4.430   1.549  0.3211 -0.1210 -0.0106
 4185W        W 7704   0.369   8.105   8.530  0.0140  0.0527 -0.0505
 4186W        W 7705   0.449   1.801   2.912 -0.3076 -0.0690 -0.1462
 4187W        W 7706   4.128   5.483   9.960 -0.0747  0.0476  0.0546
 4188W        W 7707   2.474   5.033   3.674  0.1652 -0.0158  0.3418
 4189W        W 7708   7.654   1.910   0.102 -0.1785 -0.0799 -0.0000
 4190W        W 7709   5.374   6.906   0.654 -0.1969  0.1221  0.1784
 4191W        W 7710   1.034   8.204  10.097 -0.0123 -0.1117 -0.1745
 4192W        W 7711   3.322   5.126   2.551  0.0533  0.0114 -0.2155
 4193W        W 7712   1.070   7.120  10.806 -0.0123  0.1759 -0.0672
 4194W        W 7713   1.062   0.894   2.662 -0.3090  0.1099  0.1418
 4195W        W 7714   8.221   1.466   1.474  0.2503  0.3577  0.1885
 4196W        W 7715   5.166   9.174   8.270  0.1586 -0.2171 -0.3747
 4197W        W 7716   7.448   1.740  11.555 -0.3188 -0.1364  0.3989
 4198W        W 7717   5.838   4.736   9.050  0.1840  0.0929 -0.2877
 4199W        W 7718   2.015   1.975   4.125  0.1119  0.4102  0.1804
 4200W        W 7719   5.546   1.311   2.383 -0.4253  0.2443  0.2652
 4201W        W 7720   6.756   6.113  11.556  0.1335 -0.1353 -0.1289
 4202W        W 7721   5.884   5.666  11.351 -0.1394  0.2864  0.0562
 4203W        W 7722   6.202   8.651  10.065  0.2234  0.1495  0.2642
 4204W        W 7723   6.907   3.502  10.736  0.2121  0.1366 -0.1123
 4205W        W 7724   4.816   6.260  10.931 -0.0917  0.2858 -0.0361
 4206W        W 7725   8.275   0.206   4.725  0.2847 -0.0701  0.2571
 4207W        W 7726   7.824   7.923   1.336  0.2622  0.1398  0.0302
 4208W        W 7727   7.702   8.871   2.147  0.3127 -0.0400  0.0388
 4209W        W 7728   4.372   1.048  10.802  0.0167  0.3811 -0.1644
 4210W        W 7729   0.379   8.466  10.544 -0.1837  0.0302 -0.4340
 4211W        W 7730   4.690   2.322  10.966 -0.0007  0.3756 -0.0426
 4212W        W 7731   1.649   0.365   7.704 -0.0004 -0.0468 -0.2200
 4213W        W 7732   9.364   0.458   2.299 -0.2411  0.1051 -0.0025
 4214W        W 7733   2.135   1.023   8.880 -0.2637  0.0379 -0.0734
 4215W        W 7734   5.951   3.874   1.585 -0.0107 -0.2268  0.0887
 4216W        W 7735   7.025   6.312   9.847 -0.1088 -0.0230 -0.2250
 4217W        W 7736   4.257   4.036  11.325 -0.3528 -0.3052  0.0752
 4218W        W 7737   9.802   1.683   2.919 -0.1374 -0.3248  0.0709
 4219W        W 7738   4.406   7.041   3.427  0.2425  0.3005 -0.0227
 4220W        W 7739   3.595   1.209   1.559  0.2200  0.1027  0.1320
 4221W        W 7740   4.686   8.779   0.397 -0.2347  0.0822 -0.4339
 4222W        W 7741   3.012   3.806   9.987  0.0536 -0.2935  0.0714
 4223W        W 7742   9.398   2.198   1.503  0.2650 -0.0553 -0.1482
 4224W        W 7743   7.436   1.839   1.311  0.0736  0.0008 -0.0511
 4225W        W 7744   1.876   6.707  11.315  0.2810  0.0100  0.2642
 4226W        W 7745   2.529   7.148   8.810 -0.0403 -0.1918  0.0781
 4227W        W 7746   4.607   3.050   0.375 -0.0036 -0.1973  0.3251
 4228W        W 7747   3.611   2.284   1.478 -0.3908 -0.1564  0.1563
 4229W        W 7748   2.275   5.776  10.802 -0.1504 -0.0260 -0.1195
 4230W        W 7749   6.002   5.474   9.389 -0.0149 -0.3194 -0.1650
 4231W        W 7750   5.797   2.615   1.064  0.0846 -0.1268  0.0686
 4232W        W 7751   4.768   6.921   9.620 -0.2154  0.2579  0.1976
 4233W        W 7752   5.482   5.366   1.258  0.1658  0.0556 -0.0917
 4234W        W 7753   7.587   2.326   7.799  0.0784  0.5328 -0.0720
 4235W        W 7754   8.897   2.760   2.593  0.0942  0.4026  0.1630
 4236W        W 7755   1.411   2.697   1.541 -0.0535  0.0610 -0.1414
 4237W        W 7756   1.340   5.593   0.648 -0.2535 -0.2644  0.0807
 4238W        W 7757   8.122   2.320   1.820  0.0658  0.1881 -0.1329
 4239W        W 7758   8.799   4.725   9.605  0.2461  0.0830  0.0025
 4240W        W 7759   0.427   7.196  10.453  0.1522 -0.1070 -0.0955
 4241W        W 7760   5.621   1.497  11.542 -0.1694 -0.4836  0.0314
 4242W        W 7761   2.657   5.760  11.121 -0.4063 -0.0421  0.0752
 4243W        W 7762   6.015   8.637  11.663  0.3122  0.2035 -0.0130
 4244W        W 7763   8.085   8.668  11.184  0.1481 -0.1744 -0.0123
 4245W        W 7764   5.196   3.393   1.492 -0.0902  0.0306  0.3803
 4246W        W 7765   8.718   3.555  10.207  0.1209  0.1343  0.2011
 4247W        W 7766   7.098   6.511  11.656  0.1644  0.2252 -0.3894
 4248W        W 7767   8.487   9.689  10.345 -0.0546 -0.0459 -0.1957
 4249W        W 7768   9.293   8.858   2.078  0.2400 -0.3111 -0.0417
 4250W        W 7769   3.253   7.671   1.480  0.1695 -0.1664 -0.0150
 4251W        W 7770   6.093   7.473   8.323 -0.3162  0.2367  0.3603
 4252W        W 7771   5.689   6.198   2.848  0.4667  0.0857 -0.0074
 4253W        W 7772   9.175   1.981   0.324 -0.1209 -0.0066  0.1927
 4254W        W 7773   9.757   5.490   2.058 -0.1132 -0.3341 -0.2491
 4255W        W 7774   6.377   2.073   1.787  0.0055 -0.1929 -0.3062
 4256W        W 7775   9.651   7.203   7.180  0.2028 -0.1198 -0.1049
 4257W        W 7776   1.651   4.760   0.920 -0.2661  0.0202 -0.0544
 4258W        W 7777   6.336   7.303   2.800  0.1589 -0.1570 -0.0975
 4259W        W 7778   6.556   6.322   8.676  0.0760  0.1408 -0.1041
 4260W        W 7779   4.613   9.072  11.388  0.2015 -0.1134 -0.0936
 4261W        W 7780   4.541   8.647   9.535 -0.0577 -0.3201 -0.0609
 4262W        W 7781   2.454   0.766   1.017  0.1672 -0.0582 -0.1247
 4263W        W 7782   2.020   4.721   9.416 -0.1499 -0.0303  0.1163
 4264W        W 7783   7.308   3.147  11.282 -0.6932 -0.0945  0.2057
 4265W        W 7784   9.797   9.701   3.748 -0.0319 -0.0594 -0.1599
 4266W        W 7785   1.620   0.166  11.836 -0.0312  0.0048  0.1661
 4267W        W 7786   4.699   3.452   0.146 -0.1845  0.1434 -0.1474
 4268W        W 7787   2.291   7.434   0.149 -0.0247  0.1703  0.0147
 4269W        W 7788   6.996   1.574   2.380 -0.1352  0.1878 -0.4073
 4270W        W 7789   3.370   0.919  10.377  0.0186  0.2478  0.1930
 4271W        W 7790   6.384   6.506   9.881 -0.0608 -0.0027 -0.0151
 4272W        W 7791   1.195   6.033   9.420 -0.2091  0.2720 -0.3099
 4273W        W 7792   2.367   7.115   1.571 -0.1278  0.1524 -0.2361
 4274W        W 7793   4.210   3.355   1.499  0.1501  0.2624  0.0698
 4275W        W 7794   9.681   1.691   8.832  0.0710  0.0507  0.1209
 4276W        W 7795   1.048   2.256  11.837 -0.0781 -0.1172 -0.2359
 4277W        W 7796   0.613   6.511   3.653  0.1657 -0.1201  0.3557
 4278W        W 7797   4.486   9.231  10.441  0.1886 -0.0599 -0.1614
 4279W        W 7798   2.076   8.914   8.930  0.2447  0.2559  0.2818
 4280W        W 7799   5.640   7.786   3.439  0.2496 -0.0664 -0.0442
 4281W        W 7800   7.897   6.737   2.799 -0.0865 -0.0029 -0.2365
 4282W        W 7801   4.861   6.921   2.772 -0.1487  0.2557  0.0603
 4283W        W 7802   6.987   8.994   9.988 -0.3172 -0.1002  0.0341
 4284W        W 7803   4.225   1.861   1.444 -0.1319 -0.1235 -0.0930
 4285W        W 7804   1.303   1.088  10.554  0.1305  0.1518  0.1625
 4286W        W 7805   6.587   7.783  11.653  0.2222  0.4104 -0.1482
 4287W        W 7806   1.332   5.401  10.119  0.1769 -0.1303  0.1418
 4288W        W 7807   6.952   2.657   1.329  0.1393 -0.0883  0.0653
 4289W        W 7808   0.360   7.059   9.594 -0.2486  0.0822  0.2525
 4290W        W 7809   4.111   0.159  11.324 -0.1907 -0.3206  0.1005
 4291W        W 7810   9.754   3.767   8.451  0.0309  0.0686  0.0963
 4292W        W 7811   5.499   1.566   7.246 -0.0622  0.0335  0.3285
 4293W        W 7812   1.226   7.132   8.618  0.1136  0.2614  0.0959
 4294W        W 7813   9.235   1.702   1.667 -0.1453  0.6571 -0.3299
 4295W        W 7814   0.362   7.204   2.401 -0.0098  0.3508 -0.0975
 4296W        W 7815   7.157   0.132   7.120 -0.1661  0.2214 -0.0299
 4297W        W 7816   3.474   1.822   2.000 -0.0723  0.0723 -0.0514
 4298W        W 7817   0.341   3.248   2.418 -0.1180 -0.0276 -0.0450
 4299W        W 7818   5.609   9.321   2.836 -0.2179  0.1477  0.4250
 4300W        W 7819   8.488   2.590   0.097 -0.0280  0.0285  0.0958
 4301W        W 7820   2.511   8.530   2.157  0.5383 -0.0385 -0.2735
 4302W        W 7821   9.555   6.470   2.416  0.0331 -0.0796  0.2320
 4303W        W 7822   5.302   6.889   1.912  0.0646 -0.1354  0.0817
 4304W        W 7823   9.021   0.364   0.636  0.0639  0.0309  0.1787
 4305W        W 7824   7.930   9.747   3.135  0.2842  0.0806  0.1407
 4306W        W 7825   7.403   4.560   2.618 -0.1243 -0.3401  0.0745
 4307W        W 7826   1.270   7.268   0.346  0.2053  0.1215 -0.1384
 4308W        W 7827   5.828   8.352   0.058 -0.1466 -0.3917  0.1840
 4309W        W 7828   6.771   3.057   3.028 -0.3050 -0.0840 -0.0566
 4310W        W 7829   5.714   1.956   8.522 -0.3494 -0.0130  0.0070
 4311W        W 7830   7.847   1.260   7.765  0.1581  0.0096  0.2343
 4312W        W 7831   5.659   6.976  11.221 -0.2058 -0.1969  0.0983
 4313W        W 7832   6.430   3.866   1.735  0.1906  0.1036  0.0572
 4314W        W 7833   2.621   6.415   0.363 -0.2046 -0.1370  0.1085
 4315W        W 7834   0.194   4.535  11.136  0.3055  0.0049  0.1578
 4316W        W 7835   5.124   4.485  11.264 -0.0097 -0.0904  0.0848
 4317W        W 7836   1.740   1.722  11.608  0.1064  0.1043  0.1611
 4318W        W 7837   4.049   4.145  10.174  0.3244  0.0158  0.1196
 4319W        W 7838   0.726   3.980   0.348  0.0412 -0.2697  0.1354
 4320W        W 7839   4.172   1.375   9.081  0.0008  0.1482 -0.3049
 4321W        W 7840   2.920   0.173   9.063 -0.4665 -0.0742  0.1896
 4322W        W 7841   2.399   0.794  11.203  0.2435 -0.0218 -0.2586
 4323W        W 7842   8.708   2.057  12.005 -0.1548 -0.2437  0.0427
 4324W        W 7843   6.311   1.733  10.961 -0.1206  0.2464 -0.0900
 4325W        W 7844   3.870   6.344   1.078  0.2090  0.0054  0.1561
 4326W        W 7845   3.046   6.436   8.099 -0.0910 -0.0532  0.2176
 4327W        W 7846   8.949   5.704   0.532 -0.0428  0.2539  0.0582
 4328W        W 7847   8.948   9.466  11.979 -0.1586  0.0411  0.0163
 4329W        W 7848   5.612   5.878  10.485 -0.0530  0.0845 -0.1353
 4330W        W 7849   2.353   3.027   9.485 -0.0708 -0.2801 -0.1214
 4331W        W 7850   1.795   5.178   9.149 -0.0158 -0.1799  0.1629
 4332W        W 7851   6.451   7.075   8.432 -0.1693 -0.1871  0.0140
 4333W        W 7852   9.694   4.606  10.217 -0.2959  0.0486 -0.1701
 4334W        W 7853   8.167   3.239   9.239  0.2247  0.1007 -0.3988
 4335W        W 7854   6.925   5.564   3.450 -0.0144  0.1131  0.1322
 4336W        W 7855   1.514   6.736   1.243 -0.0096  0.0893  0.1491
 4337W        W 7856   4.658   1.732   9.777 -0.1395  0.2421 -0.1733
 4338W        W 7857   9.627   6.401   3.075  0.1023  0.0109 -0.2603
 4339W        W 7858   6.175   5.610   0.617  0.0060  0.0221 -0.3587
 4340W        W 7859   8.461   5.684  10.782  0.1287  0.1151  0.0236
 4341W        W 7860   4.245   9.265   1.665  0.2615 -0.2794  0.0170
 4342W        W 7861   8.964   4.297   9.340  0.0280  0.0159 -0.1532
 4343W        W 7862   8.338   4.587  11.267 -0.2818 -0.1008  0.3312
 4344W        W 7863   3.251   4.703   1.136 -0.0225 -0.1399  0.1275
 4345W        W 7864   1.130   0.053   0.754 -0.0671  0.2726  0.3828
 4346W        W 7865   9.098   0.049   2.453 -0.1274  0.2225  0.0802
 4347W        W 7866   6.169   9.571   1.870 -0.0412 -0.2423 -0.1020
 4348W        W 7867   9.243   8.919   4.073 -0.1536 -0.0150 -0.2264
 4349W        W 7868   0.259   4.391   1.313  0.0864 -0.0062  0.2067
 4350W        W 7869   9.288   0.445   0.123  0.0224 -0.1325 -0.4294
 4351W        W 7870   4.848   2.221  11.504  0.1020  0.2717 -0.1399
 4352W        W 7871   3.453   7.761   0.971 -0.0706  0.2107  0.1986
 4353W        W 7872   4.894   1.141   0.943  0.0692  0.1169 -0.2039
 4354W        W 7873   6.979   8.664   3.695 -0.0913  0.1977 -0.0744
 4355W        W 7874   3.081   6.526  10.333 -0.4452 -0.2789 -0.1327
 4356W        W 7875   9.877   2.674   9.089  0.2345  0.0371 -0.0675
 4357W        W 7876   2.775   6.246   8.889 -0.1157 -0.0976  0.0458
 4358W        W 7877   2.843   8.567   9.035  0.1290  0.1522  0.0428
 4359W        W 7878   6.778   7.336   9.389 -0.0146 -0.1126  0.4124
 4360W        W 7879   3.989   8.249   8.676  0.0682 -0.0094 -0.1770
 4361W        W 7880   1.274   1.509   2.715  0.0457  0.1621 -0.0815
 4362W        W 7881   9.691   7.790   2.057 -0.2328  0.0846 -0.0350
 4363W        W 7882   7.063   9.728   1.860  0.0098 -0.0139 -0.0019
 4364W        W 7883   3.471   6.241  10.452  0.0894 -0.0641 -0.3282
 4365W        W 7884   6.740   0.486   2.914  0.1814 -0.0632 -0.0290
 4366W        W 7885   5.111   6.635   8.366 -0.0215  0.0700  0.0476
 4367W        W 7886   9.657   5.936   3.933  0.2416  0.0886 -0.4049
 4368W        W 7887   7.229   5.589  11.435  0.0636 -0.2341 -0.3073
 4369W        W 7888   2.563   6.174  11.499  0.2696 -0.0115  0.0496
 4370W        W 7889   1.556   5.207   9.667  0.5015 -0.1764 -0.5260
 4371W        W 7890   1.918   7.013  10.764  0.2039 -0.1174 -0.2840
 4372W        W 7891   7.862   8.140   9.670 -0.3677 -0.0655  0.2967
 4373W        W 7892   4.554   4.191   2.652  0.1293 -0.1335 -0.2298
 4374W        W 7893   9.445   5.132   1.006 -0.1324  0.2601 -0.0427
 4375W        W 7894   5.067   1.112   3.248 -0.2486 -0.2958 -0.2748
 4376W        W 7895   8.363   7.026  11.113  0.1828 -0.0821 -0.0994
 4377W        W 7896   6.216   6.489   0.427  0.0033 -0.0288 -0.0352
 4378W        W 7897   6.473   2.159   8.763 -0.0940 -0.0547 -0.2388
 4379W        W 7898   4.000   1.789  10.428  0.0901 -0.1090  0.0491
 4380W        W 7899   8.940   9.764   8.701  0.2969  0.3168 -0.1516
 4381W        W 7900   5.187   5.094   8.393 -0.0545 -0.1985  0.2888
 4382W        W 7901   9.920   5.777  11.528 -0.0790 -0.1651 -0.3653
 4383W        W 7902   8.051   1.013   1.497 -0.1093  0.1505 -0.1047
 4384W        W 7903   5.898   1.748   9.735  0.2543 -0.1721  0.3257
 4385W        W 7904   3.634   4.472  10.961 -0.3180  0.2146  0.0640
 4386W        W 7905   8.075   9.307   2.058 -0.0585 -0.1499 -0.2604
 4387W        W 7906   0.815   7.147   2.073  0.0683  0.0648  0.1307
 4388W        W 7907   5.712   7.793   1.580 -0.0568 -0.1707  0.0926
 4389W        W 7908   1.968   8.951   1.235  0.1618  0.1438  0.2083
 4390W        W 7909   6.526   0.130   9.712 -0.0076  0.1579  0.1147
 4391W        W 7910   0.111   3.894   9.409  0.1892 -0.1349  0.0081
 4392W        W 7911   5.093   7.582  11.908  0.1933 -0.1300 -0.0523
 4393W        W 7912   2.834   2.244   0.515 -0.0518 -0.1147  0.1434
 4394W        W 7913   8.818   7.568  11.586 -0.1866 -0.1213  0.1422
 4395W        W 7914   5.655   3.389   9.101  0.4044  0.2383  0.1340
 4396W        W 7915   4.130   4.258   0.256 -0.1384  0.0873 -0.6765
 4397W        W 7916   5.603   2.573   8.209 -0.0518  0.0823 -0.0466
 4398W        W 7917   9.247   0.177   3.264  0.3456  0.0286 -0.0226
 4399W        W 7918   4.341   9.161   8.725  0.0192 -0.0608  0.0437
 4400W        W 7919   1.168   1.959   1.397 -0.0992  0.3035  0.2313
 4401W        W 7920   1.722   7.060   1.685 -0.1539 -0.0815  0.2191
 4402W        W 7921   6.787   1.206   9.079  0.2630 -0.1296  0.0229
 4403W        W 7922   9.573   1.241   2.663  0.0041 -0.0731 -0.1719
 4404W        W 7923   3.138   7.386   8.007 -0.2247  0.0932 -0.1230
 4405W        W 7924   7.450   7.338   7.121 -0.3205  0.0289 -0.0318
 4406W        W 7925   3.354   8.339   2.681 -0.0808  0.0210  0.0351
 4407W        W 7926   2.483   8.774   0.530 -0.2142  0.1778 -0.1021
 4408W        W 7927   9.801   7.553   1.617 -0.1267 -0.0464 -0.1547
 4409W        W 7928   5.853   1.587   7.613  0.0388 -0.0252 -0.0055
 4410W        W 7929   9.687   8.099   7.544 -0.2724 -0.1219  0.0748
 4411W        W 7930   5.807   0.892   8.290 -0.0291  0.1912 -0.0090
 4412W        W 7931   9.202   3.444  11.094 -0.1770  0.1196  0.0316
 4413W        W 7932   3.245   6.126   0.368 -0.0582  0.4038  0.0553
 4414W        W 7933   4.809   8.641   6.954 -0.1654  0.0801 -0.0776
 4415W        W 7934   9.859   3.480   0.060 -0.0597 -0.4043 -0.1224
 4416W        W 7935   5.001   4.506   2.923  0.0926  0.1428  0.1821
 4417W        W 7936   6.930   8.491   2.997 -0.1046 -0.0416  0.0919
 4418W        W 7937   5.185   2.231  10.921  0.0412  0.1846 -0.0308
 4419W        W 7938   8.540   9.018  11.077 -0.1418  0.1877 -0.1350
 4420W        W 7939   1.799   1.866  10.510  0.1591  0.1610  0.0018
 4421W        W 7940   2.223   8.531   0.098  0.1161  0.0374  0.0107
 4422W        W 7941   7.136   8.822   9.184 -0.0675  0.0356 -0.1027
 4423W        W 7942   6.305   8.072   8.402 -0.1283  0.1146 -0.2245
 4424W        W 7943   0.728   2.934   2.786  0.1728  0.0216  0.1712
 4425W        W 7944   7.671   6.019   3.173  0.1605 -0.0443 -0.0213
 4426W        W 7945   7.457   0.290  10.368  0.2505  0.3273  0.1988
 4427W        W 7946   8.524   5.104   8.900  0.0021  0.1008  0.1756
 4428W        W 7947   2.157   9.874   3.532  0.1885  0.1929 -0.1412
 4429W        W 7948   7.404   0.336   0.372  0.0081 -0.0694  0.0351
 4430W        W 7949   4.557   6.560  11.659 -0.2419 -0.0175 -0.1771
 4431W        W 7950   5.924   1.234   0.049 -0.0585  0.1160  0.1040
 4432W        W 7951   6.321   9.523   8.915 -0.2678  0.1291 -0.0553
 4433W        W 7952   6.927   5.246  11.329  0.0043 -0.0597  0.3396
 4434W        W 7953   9.466   0.501   8.625 -0.1141  0.1128 -0.1611
 4435W        W 7954   8.478   4.319   1.919  0.2301  0.0839 -0.0182
 4436W        W 7955   7.004   5.126   1.660  0.3314 -0.0110  0.0674
 4437W        W 7956   5.043   4.493  11.864  0.1477 -0.1850 -0.0510
 4438W        W 7957   5.736   9.616  10.745  0.2371  0.0414 -0.0197
 4439W        W 7958   7.380   3.495  10.967 -0.1143  0.0285 -0.0011
 4440W        W 7959   2.925   0.629   2.750 -0.1414 -0.3123 -0.0084
 4441W        W 7960   8.936   1.809   9.074 -0.0235 -0.0124 -0.1608
 4442W        W 7961   3.962   7.949  11.521 -0.0476 -0.0534  0.2076
 4443W        W 7962   0.312   3.397   0.938  0.1925  0.1284  0.3071
 4444W        W 7963   1.197   8.845   1.132  0.0998 -0.0398 -0.1796
 4445W        W 7964   3.548   3.261   1.089 -0.2857  0.4550 -0.1994
 4446W        W 7965   2.546   1.087  11.596  0.1770  0.0944  0.0962
 4447W        W 7966   5.180   3.013  11.601 -0.0393 -0.0997 -0.0169
 4448W        W 7967   8.188   3.090   0.041 -0.2294  0.0720  0.0896
 4449W        W 7968   8.524   2.450   0.591 -0.1769  0.2158  0.0982
 4450W        W 7969   2.791   6.878   8.500 -0.3809 -0.2418  0.1396
 4451W        W 7970   7.918   0.990  11.843  0.1852  0.1688 -0.2573
 4452W        W 7971   7.387   6.719  10.022 -0.1634  0.0954 -0.1388
 4453W        W 7972   3.295   6.823  11.758  0.1406 -0.0661  0.1673
 4454W        W 7973   5.677   1.091   2.802  0.4831  0.2262  0.0424
 4455W        W 7974   8.320   4.771  11.931 -0.1303  0.1778 -0.1558
 4456W        W 7975   2.392   4.040   2.989  0.0131 -0.1239  0.1265
 4457W        W 7976   9.278   2.760   0.724 -0.0265 -0.0581  0.1155
 4458W        W 7977   4.832   2.160   0.164 -0.0959  0.2424  0.1595
 4459W        W 7978   8.178   6.814   3.217  0.3514  0.3744  0.2890
 4460W        W 7979   7.421   0.404   9.865  0.2191 -0.1081  0.3693
 4461W        W 7980   5.361   9.462   2.162 -0.0222  0.6016 -0.4277
 4462W        W 7981   5.922   7.645   2.035  0.2437 -0.0776 -0.0288
 4463W        W 7982   7.279   9.109   7.939 -0.1312 -0.0351 -0.1066
 4464W        W 7983   0.648   7.622   2.161  0.3856  0.0159 -0.2177
 4465W        W 7984   6.738   0.932  10.093 -0.3704  0.3770  0.1164
 4466W        W 7985   0.130   1.560   0.525 -0.0284 -0.0276  0.0592
 4467W        W 7986   9.486   5.149   9.939 -0.1626 -0.0141  0.0226
 4468W        W 7987   8.438   7.956  11.090 -0.0673  0.0557 -0.0957
 4469W        W 7988   3.970   3.639   2.137 -0.3855  0.2399  0.0829
 4470W        W 7989   9.300   8.269   8.936  0.0767 -0.3314 -0.3158
 4471W        W 7990   1.668   5.733   1.002  0.1119  0.0694 -0.1790
 4472W        W 7991   5.518   0.448   4.208  0.1161  0.2187 -0.2854
 4473W        W 7992   2.800   7.183   9.833  0.1658  0.0401  0.2331
 4474W        W 7993   4.810   3.880   0.760  0.0051  0.1282 -0.5651
 4475W        W 7994   4.321   3.069  11.993  0.0840 -0.1844 -0.0995
 4476W        W 7995   3.177   0.408   2.318  0.0166  0.0864  0.1243
 4477W        W 7996   4.455   7.032  11.436  0.1488 -0.0294  0.1707
 4478W        W 7997   8.770   8.080  11.487  0.1995  0.1390  0.2132
 4479W        W 7998   7.351   3.602   7.765 -0.2030  0.0050 -0.0566
 4480W        W 7999   7.612   0.347   1.184 -0.0612 -0.0735  0.0219
 4481W        W 8000   0.712   8.504   8.379  0.2940  0.3657 -0.1598
 4482W        W 8001   6.428   9.914   2.720 -0.4841  0.0728  0.0194
 4483W        W 8002   6.314   8.229   0.966  0.1664  0.2701  0.0057
 4484W        W 8003   0.083   3.139  10.760 -0.1332  0.0117 -0.0897
 4485W        W 8004   2.799   7.612   0.944  0.3928  0.3633  0.0141
 4486W        W 8005   3.997   5.349   3.131 -0.0581 -0.0297 -0.2223
 4487W        W 8006   4.184   2.498   9.862 -0.1127  0.0678 -0.1372
 4488W        W 8007   4.486   1.785  10.231  0.2485 -0.0922  0.0395
 4489W        W 8008   5.638   5.778   7.497  0.1671 -0.4358 -0.3464
 4490W        W 8009   5.016   0.413   2.429  0.0018  0.2252 -0.4146
 4491W        W 8010   8.424   7.311   0.579 -0.0723 -0.0362 -0.0755
 4492W        W 8011   8.549   2.148   1.009 -0.0900 -0.0448  0.1324
 4493W        W 8012   3.168   7.636  11.709 -0.0879 -0.2901 -0.0404
 4494W        W 8013   6.235   1.578   2.252  0.2255  0.3403  0.0315
 4495W        W 8014   3.930   8.300   9.587  0.0486  0.1377 -0.0794
 4496W        W 8015   7.337   4.287   0.048  0.3381  0.1028 -0.1566
 4497W        W 8016   7.103   8.312  10.051 -0.0361  0.1154  0.1555
 4498W        W 8017   7.665   0.988   2.069  0.0426  0.2197 -0.1345
 4499W        W 8018   7.790   3.267   2.374  0.1329  0.0612 -0.2402
 4500W        W 8019   3.793   9.677  11.311 -0.1219 -0.0784 -0.2308
 4501W        W 8020   5.555   9.513   8.325  0.0694  0.2296 -0.0741
 4502W        W 8021   1.192   7.383   7.727  0.0090  0.0826 -0.1482
 4503W        W 8022   5.919   5.339   7.540  0.1112 -0.3655 -0.1962
 4504W        W 8023   7.761   8.647  10.304  0.1852  0.1448 -0.1441
 4505W        W 8024   9.670   1.859  10.698 -0.6539  0.1469  0.3172
 4506W        W 8025   6.145   0.601  11.963  0.1045  0.1435 -0.0388
 4507W        W 8026   3.217   5.518   3.779 -0.2793  0.0320  0.1265
 4508W        W 8027   2.932   9.692   1.440 -0.1840  0.1424 -0.0424
 4509W        W 8028   7.886   4.628   2.640 -0.0601  0.0188 -0.3046
 4510W        W 8029   2.162   6.476  10.773 -0.1344 -0.0139 -0.0961
 4511W        W 8030   3.270   9.455   3.443 -0.3512 -0.3162 -0.1852
 4512W        W 8031   8.782   8.435   7.648 -0.1558  0.0917 -0.2327
 4513W        W 8032   9.683   0.863   1.124  0.0283 -0.5030 -0.0674
 4514W        W 8033   7.077   7.518   7.891 -0.1806 -0.2147 -0.0004
 4515W        W 8034   1.407   0.611   8.191 -0.0813 -0.0872  0.0306
 4516W        W 8035   2.942   8.901   8.677 -0.2386 -0.1811 -0.2529
 4517W        W 8036   7.762   4.724   0.985  0.0242  0.0012  0.1232
 4518W        W 8037   9.879   2.220   1.751  0.1064 -0.0406  0.3828
 4519W        W 8038   3.459   2.339   9.842  0.3649 -0.0122 -0.0592
 4520W        W 8039   1.177   8.035  11.231 -0.0463 -0.1353  0.0990
 4521W        W 8040   9.068   6.204   0.281 -0.0431  0.0826 -0.1254
 4522W        W 8041   3.188   2.503   0.226  0.0169  0.0008 -0.2597
 4523W        W 8042   9.199   7.249   8.795 -0.0553 -0.0909 -0.1128
 4524W        W 8043   9.775   1.755  10.180 -0.2037  0.3643  0.1112
 4525W        W 8044   0.877   2.711   0.827 -0.3892 -0.1561 -0.0566
 4526W        W 8045   2.864   7.975   3.428  0.1436 -0.0231 -0.0744
 4527W        W 8046   2.101   7.652  10.112 -0.0723  0.1148 -0.0357
 4528W        W 8047   3.681   0.256  10.976 -0.0901 -0.2923  0.2949
 4529W        W 8048   7.041   7.110   2.921 -0.3030 -0.1912 -0.1628
 4530W        W 8049   2.300   1.615   9.569  0.1170  0.0141  0.1889
 4531W        W 8050   4.004   8.860   1.432  0.2298 -0.0025 -0.0170
 4532W        W 8051   8.641   4.356  11.850  0.1262  0.3305 -0.0381
 4533W        W 8052   1.370   2.753   0.998  0.1084 -0.1677  0.0150
 4534W        W 8053   7.316   5.183   7.836 -0.1252 -0.4951 -0.2790
 4535W        W 8054   0.471   9.183   1.093 -0.0714 -0.2621  0.0819
 4536W        W 8055   7.473   9.663   9.393  0.2840  0.1354  0.1537
 4537W        W 8056   8.625   1.589   2.443 -0.0506 -0.3162  0.0820
 4538W        W 8057   5.817   6.132   1.467 -0.0325 -0.2673 -0.3153
 4539W        W 8058   0.528   7.630   0.760 -0.0693 -0.0631  0.2317
 4540W        W 8059   2.169   1.579   1.553 -0.1130 -0.0353  0.0494
 4541W        W 8060   0.345   5.434   2.495  0.2456  0.3009 -0.2078
 4542W        W 8061   3.045   3.550  11.371 -0.0639  0.1888 -0.3558
 4543W        W 8062   4.168   9.411   2.946 -0.2844  0.1896 -0.1394
 4544W        W 8063   1.952   9.881   7.967  0.0183 -0.3171 -0.2608
 4545W        W 8064   7.236   8.644   8.696 -0.1761 -0.0836 -0.0481
 4546W        W 8065   4.840   2.596   0.857 -0.0522  0.0769 -0.0041
 4547W        W 8066   7.020   4.002  10.706 -0.0509 -0.0533 -0.1065
 4548W        W 8067   8.252   0.408   3.331 -0.1413 -0.1499  0.1750
 4549W        W 8068   0.390   1.367   3.201  0.1151  0.0424 -0.0949
 4550W        W 8069   6.709   4.922   1.286 -0.0750  0.1328  0.1519
 4551W        W 8070   9.425   9.890  11.900 -0.0889 -0.0304  0.2267
 4552W        W 8071   3.809   8.803  10.625  0.0697  0.0008 -0.1218
 4553W        W 8072   1.651   4.033   3.523  0.2622 -0.0902  0.0291
 4554W        W 8073   2.659   5.744   9.127 -0.2333  0.0609 -0.0097
 4555W        W 8074   0.422   1.411   2.164  0.0241  0.1495 -0.1270
 4556W        W 8075   3.000   3.469   4.414  0.0819 -0.0585 -0.1504
 4557W        W 8076   2.297   3.193   1.878 -0.2772 -0.1967  0.3224
 4558W        W 8077   7.812   7.719   9.022 -0.0990 -0.1197  0.0176
 4559W        W 8078   4.429   2.829   0.872  0.1406  0.2266 -0.2384
 4560W        W 8079   0.654   5.858   3.178 -0.0035 -0.0625  0.4212
 4561W        W 8080   5.287   7.180   8.545  0.1206  0.4823 -0.2028
 4562W        W 8081   8.982   4.404   1.808 -0.2809  0.0912  0.0891
 4563W        W 8082   3.198   9.685   8.905  0.0078 -0.3089 -0.0682
 4564W        W 8083   8.073   3.529   8.841 -0.1092  0.0561  0.1553
 4565W        W 8084   2.505   5.014   1.563 -0.0673 -0.0933 -0.1279
 4566W        W 8085   9.445   3.024  11.197  0.0099 -0.0248  0.2681
 4567W        W 8086   4.041   0.557   2.193  0.0744 -0.1564 -0.2189
 4568W        W 8087   8.435   5.060   0.318  0.0341 -0.2186  0.0082
 4569W        W 8088   6.299   2.681   1.066 -0.1287 -0.0859 -0.3989
 4570W        W 8089   4.800   5.718   0.866 -0.1335  0.2430  0.0783
 4571W        W 8090   2.319   1.441   0.276 -0.1693 -0.2266  0.2375
 4572W        W 8091   5.009   3.208   7.559 -0.1018  0.1430 -0.4384
 4573W        W 8092   8.525   3.957  11.517 -0.0480  0.2344 -0.2074
 4574W        W 8093   8.274   3.851   9.192 -0.1863  0.1492 -0.0276
 4575W        W 8094   6.308   0.683   2.201 -0.0451  0.1006 -0.3851
 4576W        W 8095   3.408   5.191   1.225  0.1242  0.1125  0.1610
 4577W        W 8096   1.420   1.467   3.200 -0.1301 -0.0094 -0.1933
 4578W        W 8097   1.334   5.910   8.782  0.3944  0.2544 -0.1360
 4579W        W 8098   4.551   1.954   0.490  0.1540 -0.0788 -0.0582
 4580W        W 8099   6.303   0.883   0.416  0.0378  0.1922  0.1094
 4581W        W 8100   1.498   2.611  10.164  0.1096  0.0796  0.1015
 4582W        W 8101   3.244   5.142   1.814  0.0170  0.1721  0.3614
 4583W        W 8102   0.739   6.610   1.330  0.4238 -0.1981  0.1057
 4584W        W 8103   4.498   4.849  10.831  0.0694 -0.2657  0.0815
 4585W        W 8104   8.764   8.133   8.791 -0.1891  0.0434 -0.0112
 4586W        W 8105   0.181   2.282   0.310  0.0421 -0.0771  0.1101
 4587W        W 8106   6.579   8.661   2.680  0.1359 -0.0882 -0.2835
 4588W        W 8107   1.173   6.624  10.796 -0.1270  0.2699 -0.0487
 4589W        W 8108   5.731   6.077   7.833 -0.1083  0.1685 -0.3521
 4590W        W 8109   7.055   3.533  11.577 -0.2953  0.1453 -0.0007
 4591W        W 8110   6.246   9.443   0.252  0.4698 -0.0362  0.4443
 4592W        W 8111   9.675   7.962   8.937 -0.0726 -0.0072  0.1024
 4593W        W 8112   9.828   6.005   8.580 -0.1421 -0.0728  0.0831
 4594W        W 8113   9.668   0.109   2.620  0.0802  0.0618 -0.1584
 4595W        W 8114   3.069   1.447   9.974  0.1047  0.0144 -0.1627
 4596W        W 8115   6.319   4.123   9.539 -0.0404 -0.3354  0.0676
 4597W        W 8116   1.821   0.004   0.265 -0.0533  0.1230 -0.2351
 4598W        W 8117   7.271   2.660   1.911 -0.2181 -0.1445 -0.1604
 4599W        W 8118   0.348   9.341  11.210 -0.0174 -0.5058  0.4208
 4600W        W 8119   8.011   7.361   9.714  0.2843 -0.2560 -0.1477
 4601W        W 8120   0.249   7.108   9.058  0.1794 -0.0520  0.1953
 4602W        W 8121   8.721   1.682  10.264  0.2357  0.1590 -0.0289
 4603W        W 8122   1.573   7.502   8.666  0.1405  0.0771  0.1056
 4604W        W 8123   3.196   4.236   3.308  0.4285  0.1509 -0.1569
 4605W        W 8124   3.417   6.679   9.778  0.1078 -0.2140 -0.0507
 4606W        W 8125   2.856   5.053   9.405  0.1561  0.2491  0.0848
 4607W        W 8126   1.337   3.340  10.121 -0.5188 -0.0593  0.0144
 4608W        W 8127   0.122   1.419   8.050  0.1279 -0.2318 -0.1585
 4609W        W 8128   0.458   5.926  10.653 -0.2620  0.1795 -0.3282
 4610W        W 8129   6.114   6.484   4.068 -0.2936  0.0654  0.0797
 4611W        W 8130   3.309   1.285   1.933  0.0986 -0.0428 -0.0972
 4612W        W 8131   5.150   5.425   8.001 -0.2071  0.0160  0.0023
 4613W        W 8132   5.959   7.566   3.030 -0.0880  0.0262 -0.0353
 4614W        W 8133   2.065   4.131   9.167  0.2270  0.4035  0.3478
 4615W        W 8134   2.975   6.851   9.497  0.2213 -0.3501 -0.2722
 4616W        W 8135   5.157   3.749   2.354  0.1430  0.0790  0.1057
 4617W        W 8136   7.023   9.075   1.743 -0.1795 -0.1800 -0.2236
 4618W        W 8137   0.884   4.308   0.679 -0.3136 -0.1214 -0.0154
 4619W        W 8138   2.230   3.729   1.840  0.4706  0.0246  0.3106
 4620W        W 8139   6.487   3.783   0.741 -0.2425 -0.0035  0.3059
 4621W        W 8140   8.449   0.887   0.700 -0.1714 -0.1264  0.3117
 4622W        W 8141   3.164   4.569   2.601  0.2879  0.1386 -0.1666
 4623W        W 8142   6.733   8.997  10.631 -0.2456 -0.0233 -0.0675
 4624W        W 8143   0.003   0.308  11.298 -0.0836 -0.2417 -0.0678
 4625W        W 8144   6.432   6.076   0.613  0.0283  0.2086  0.1494
 4626W        W 8145   7.844   8.419   1.470 -0.0630  0.0382  0.2073
 4627W        W 8146   6.256   6.800   2.544  0.3694 -0.4139 -0.0224
 4628W        W 8147   6.033   8.918   8.351  0.1899  0.0279  0.3090
 4629W        W 8148   2.276   3.147   1.402  0.0198  0.0485  0.0255
 4630W        W 8149   2.214   5.015  11.947 -0.2809  0.2065 -0.1813
 4631W        W 8150   5.983   2.582   9.576  0.4724 -0.1453 -0.2830
 4632W        W 8151   3.867   8.760   6.800 -0.1753  0.0753  0.2500
 4633W        W 8152   9.104   5.833   1.162 -0.0219  0.0604 -0.4407
 4634W        W 8153   0.485   3.301   4.706  0.4646  0.0264 -0.5228
 4635W        W 8154   2.579   4.659  11.881  0.0060 -0.0497  0.0514
 4636W        W 8155   8.927   8.515  11.643  0.3876  0.0674 -0.0152
 4637W        W 8156   6.497   4.135  10.492 -0.0860  0.1924 -0.0293
 4638W        W 8157   9.921   6.296  10.652 -0.0255  0.2787  0.2578
 4639W        W 8158   8.290   1.291   9.833  0.0444  0.3481  0.1647
 4640W        W 8159   1.503   8.003  11.720  0.0451 -0.4442  0.2483
 4641W        W 8160   7.214   4.212   9.663  0.3633  0.0022  0.0624
 4642W        W 8161   2.766   9.106  11.668 -0.0722  0.4002 -0.4716
 4643W        W 8162   1.131   4.410   9.425 -0.1148  0.0450 -0.1821
 4644W        W 8163   5.778   0.466   1.188 -0.1876 -0.0260 -0.1971
 4645W        W 8164   0.233   0.724   8.671  0.1399  0.2432 -0.0908
 4646W        W 8165   7.232   2.357   9.603  0.2260 -0.1496 -0.0831
 4647W        W 8166   5.542   1.065   3.358 -0.2953 -0.1615 -0.1273
 4648W        W 8167   3.837   7.609   1.355 -0.0882  0.0451 -0.2365
 4649W        W 8168   6.415   2.663  11.729  0.3164 -0.0124  0.4780
 4650W        W 8169   7.989   7.238   0.845 -0.3290 -0.3661 -0.2198
 4651W        W 8170   1.703   6.791   3.260  0.0881 -0.4419 -0.2136
 4652W        W 8171   9.042   2.614  10.078  0.4358  0.1569  0.1552
 4653W        W 8172   2.369   9.235  10.919  0.1682  0.1623  0.1525
 4654W        W 8173   1.375   0.998   1.583  0.2044  0.1255 -0.1661
 4655W        W 8174   9.015   8.232   8.016  0.1398  0.0315 -0.2066
 4656W        W 8175   4.037   4.105   1.827  0.2297 -0.0447 -0.1647
 4657W        W 8176   1.993   8.042   2.733  0.3312 -0.0681  0.0171
 4658W        W 8177   2.204   2.266  11.298 -0.4184 -0.1990 -0.2869
 4659W        W 8178   6.983   4.632   1.666  0.2911 -0.1000 -0.1310
 4660W        W 8179   9.632   7.081   1.771 -0.3375  0.0408  0.1220
 4661W        W 8180   7.018   1.405   3.917 -0.0142  0.3009  0.2881
 4662W        W 8181   4.120   4.849   2.472  0.1227  0.1327  0.1159
 4663W        W 8182   1.991   4.527  11.820  0.2075  0.2217 -0.0149
 4664W        W 8183   0.960   1.560   3.565  0.1443  0.0971  0.2749
 4665W        W 8184   1.934   2.957   3.914  0.1483  0.0182  0.1499
 4666W        W 8185   1.476   6.290   9.088  0.3356  0.0116 -0.3920
 4667W        W 8186   8.683   1.903   8.146  0.0229  0.0020  0.1524
 4668W        W 8187   0.658   4.590  10.157 -0.0559 -0.2495  0.0752
 4669W        W 8188   2.459   1.272   9.231 -0.2800  0.1444 -0.0833
 4670W        W 8189   0.595   4.083   1.672  0.3345  0.0071  0.3632
 4671W        W 8190   9.837   7.700   7.236 -0.1277  0.2922 -0.4692
 4672W        W 8191   8.470   8.665   4.111 -0.2071 -0.0427  0.2010
 4673W        W 8192   1.155   0.699   0.539  0.0408  0.0163 -0.0495
 4674W        W 8193   4.087   9.587   0.291 -0.0564  0.2138 -0.1307
 4675W        W 8194   4.327   2.335  11.343 -0.1644  0.1320 -0.2482
 4676W        W 8195   0.457   5.060  10.333 -0.1511  0.6848  0.2596
 4677W        W 8196   2.937   9.631   3.133 -0.0728  0.3025  0.1024
 4678W        W 8197   9.789   3.673   1.712 -0.3149 -0.0084  0.0615
 4679W        W 8198   2.036   5.585   9.354  0.1642 -0.0524 -0.0815
 4680W        W 8199   8.779   3.361   1.940 -0.0038  0.2023 -0.1211
 4681W        W 8200   3.092   8.955   8.198  0.2473 -0.3038  0.2081
 4682W        W 8201   9.649   2.331   2.261  0.0794 -0.1902 -0.2704
 4683W        W 8202   2.970   3.692   0.471 -0.2371  0.1007 -0.2281
 4684W        W 8203   6.496   4.318   0.331 -0.3112 -0.0781 -0.3230
 4685W        W 8204   3.754   6.527   9.228  0.1910 -0.1752  0.2489
 4686W        W 8205   6.602   1.633   2.653  0.0231 -0.3069 -0.0935
 4687W        W 8206   7.703   3.886   8.074 -0.1178 -0.3535  0.1960
 4688W        W 8207   0.643   7.067   1.572 -0.0756  0.0795  0.1669
 4689W        W 8208   7.628   7.222   3.497  0.1204  0.0199 -0.1128
 4690W        W 8209   2.621   4.886  10.986 -0.1888  0.1326 -0.0169
 4691W        W 8210   3.551   5.043   8.743 -0.2418  0.0984  0.0563
 4692W        W 8211   8.261   2.496   3.715  0.4488  0.0400 -0.4001
 4693W        W 8212   1.450   1.023  11.516 -0.0098 -0.3692  0.1155
 4694W        W 8213   1.786   5.897   2.150 -0.2009  0.2220  0.1454
 4695W        W 8214   1.678   2.281   9.792  0.1400  0.1354  0.1217
 4696W        W 8215   9.706   4.999  11.925 -0.0667  0.0783 -0.0469
 4697W        W 8216   6.502   9.411   4.207  0.0179  0.1640  0.1769
 4698W        W 8217   2.153   9.153   0.624  0.0506  0.0793  0.1007
 4699W        W 8218   0.866   7.320   9.459 -0.2275 -0.0872  0.0145
 4700W        W 8219   4.223   9.716  10.471  0.1773  0.3227  0.1920
 4701W        W 8220   0.528   5.311   3.049 -0.2143 -0.1536  0.2153
 4702W        W 8221   8.863   6.935   0.886  0.2812  0.2156  0.1312
 4703W        W 8222   9.119   1.484   0.287 -0.4931  0.0599 -0.1021
 4704W        W 8223   8.639   1.262   9.372  0.0641  0.0258  0.1031
 4705W        W 8224   7.501   3.259   0.105 -0.0988 -0.1032  0.0130
 4706W        W 8225   6.573   0.383   2.442 -0.1327  0.3119 -0.1568
 4707W        W 8226   9.596   4.895   2.861  0.0910 -0.2732  0.0180
 4708W        W 8227   9.774   4.302   9.861  0.2528  0.0572  0.0081
 4709W        W 8228   4.779   3.488   9.703  0.2946 -0.0406 -0.1541
 4710W        W 8229   4.037   5.599   9.387  0.0874  0.1457  0.0071
 4711W        W 8230   0.941   0.573  11.556  0.1606  0.0424 -0.0619
 4712W        W 8231   2.069   1.373  11.768  0.2616  0.0287  0.2032
 4713W        W 8232   8.471   9.005   1.870 -0.0330 -0.1886  0.3251
 4714W        W 8233   9.689   0.775  11.130  0.0081 -0.0214  0.1198
 4715W        W 8234   8.314   4.918   3.444  0.1089  0.0821  0.2390
 4716W        W 8235   6.086   6.612   9.055 -0.1751 -0.0857  0.1849
 4717W        W 8236   0.576   0.471   2.772  0.0445  0.4397 -0.0668
 4718W        W 8237   5.976   5.349  11.723  0.3027  0.0506 -0.0215
 4719W        W 8238   2.574   9.291   2.864 -0.1064  0.0093 -0.0513
 4720W        W 8239   4.706   9.489   9.938 -0.2555 -0.2826 -0.2358
 4721W        W 8240   5.208   0.475   9.632  0.0670 -0.0961 -0.2355
 4722W        W 8241   7.578   6.052   0.598 -0.0266  0.1265 -0.2351
 4723W        W 8242   9.014   9.154   4.543 -0.0278  0.1799  0.0272
 4724W        W 8243   4.763   3.722   2.693  0.1511 -0.0455  0.2542
 4725W        W 8244   2.571   2.072  10.022  0.1836 -0.0189  0.0033
 4726W        W 8245   2.366   7.695  11.237 -0.2728 -0.4894 -0.0559
 4727W        W 8246   1.687   1.980  11.085 -0.0352  0.1197  0.1505
 4728W        W 8247   1.489   6.973   0.782  0.3575  0.1016  0.0763
 4729W        W 8248   4.229   5.026   1.318  0.0038 -0.0099 -0.0036
 4730W        W 8249   0.099   1.783   3.375  0.1909 -0.2190  0.1271
 4731W        W 8250   8.725   5.068   1.567 -0.2461  0.1370 -0.3219
 4732W        W 8251   9.065   0.554  10.830  0.0287 -0.0168 -0.2207
 4733W        W 8252   4.368   9.067   1.136 -0.0551  0.1338 -0.0290
 4734W        W 8253   4.431   8.109   0.886 -0.0264  0.2597  0.0907
 4735W        W 8254   0.642   9.092   9.146  0.1763  0.0477 -0.1056
 4736W        W 8255   5.444   1.574   7.989  0.2248 -0.1757  0.0155
 4737W        W 8256   8.515   5.014   8.441 -0.0239 -0.2438 -0.1525
 4738W        W 8257   0.661   7.349   9.945 -0.3202  0.0121  0.2501
 4739W        W 8258   6.555   8.462   1.350  0.1232 -0.1188 -0.1408
 4740W        W 8259   0.825   9.412   0.605  0.3121 -0.4974 -0.0313
 4741W        W 8260   7.588   4.585   9.399  0.2208 -0.1412 -0.3336
 4742W        W 8261   3.965   6.957   9.011  0.2848 -0.3413  0.0382
 4743W        W 8262   3.637   2.708  10.690 -0.0323 -0.1213  0.0096
 4744W        W 8263   7.516   9.058   0.569 -0.3607 -0.1194  0.1630
 4745W        W 8264   5.769   6.367  10.358  0.2345  0.2962 -0.2088
 4746W        W 8265   0.251   1.426   4.202 -0.0148 -0.0363 -0.1963
 4747W        W 8266   2.277   8.169   9.844  0.1258  0.0436  0.0298
 4748W        W 8267   9.434   1.171   3.599 -0.3734  0.1222 -0.0466
 4749W        W 8268   7.428   2.819   9.778  0.1673  0.2396  0.1576
 4750W        W 8269   7.350   2.189   1.712 -0.1428 -0.0662 -0.2384
 4751W        W 8270   1.534   6.471   2.939 -0.1708  0.0570 -0.1175
 4752W        W 8271   7.886   8.226   9.129 -0.0927 -0.1400  0.1097
 4753W        W 8272   2.299   2.906   0.939  0.0921  0.2834  0.1578
 4754W        W 8273   6.758   7.693   2.194 -0.1511  0.2396 -0.1805
 4755W        W 8274   2.704   9.608  11.846  0.0412 -0.1529 -0.0386
 4756W        W 8275   1.923   1.846   1.906  0.0480 -0.3600  0.0160
 4757W        W 8276   5.605   8.793   7.506 -0.0516  0.3152 -0.1501
 4758W        W 8277   4.631   0.622  10.857 -0.0096 -0.1255  0.1259
 4759W        W 8278   4.177   5.130   9.572  0.2676 -0.1468  0.0339
 4760W        W 8279   3.006   6.382   9.848 -0.1623  0.0652  0.0994
 4761W        W 8280   4.588   6.232   2.108 -0.1917 -0.0516  0.2552
 4762W        W 8281   3.136   4.235   1.291  0.1854 -0.1500 -0.2589
 4763W        W 8282   7.671   1.391   1.398 -0.2584 -0.4013  0.1733
 4764W        W 8283   7.596   8.241   8.216 -0.0527  0.0044  0.1501
 4765W        W 8284   1.193   6.708  10.099 -0.0640 -0.0781  0.2833
 4766W        W 8285   3.136   1.571   0.753  0.2188 -0.1279 -0.2043
 4767W        W 8286   9.297   2.034  11.349  0.0270  0.1013 -0.3218
 4768W        W 8287   9.502   8.946   0.667 -0.3475 -0.1942  0.0817
 4769W        W 8288   3.687   6.618   0.627 -0.1118 -0.3256 -0.2032
 4770W        W 8289   6.210   0.201   1.124  0.1489  0.0080  0.2113
 4771W        W 8290   4.744   3.138   8.644  0.0207 -0.1654  0.1608
 4772W        W 8291   9.444   6.150  10.669 -0.0559 -0.1273 -0.2553
 4773W        W 8292   4.920   5.170   2.001  0.0406  0.1056 -0.1450
 4774W        W 8293   3.787   9.351   3.276 -0.1339 -0.0160  0.0391
 4775W        W 8294   6.383   5.473   3.709 -0.2310 -0.6440  0.1662
 4776W        W 8295   0.677   3.236   3.278  0.0674  0.0914  0.1351
 4777W        W 8296   0.772   4.118  11.850 -0.0322 -0.1528  0.0656
 4778W        W 8297   7.880   9.313   2.916  0.3869 -0.1710  0.0591
 4779W        W 8298   5.614   7.373   9.450  0.0767 -0.1735 -0.4420
 4780W        W 8299   8.489   0.639   1.199  0.5094  0.0461  0.1460
 4781W        W 8300   8.167   9.025   3.189  0.2956  0.0965 -0.0525
 4782W        W 8301   6.386   0.822   3.699 -0.2508 -0.1406  0.1358
 4783W        W 8302   3.388   9.301   2.480  0.2698  0.1336 -0.0483
 4784W        W 8303   6.056   0.608  11.438 -0.0432  0.0068  0.1688
 4785W        W 8304   9.537   0.148   0.678  0.2464  0.3369 -0.1310
 4786W        W 8305   1.836   2.776  11.988 -0.3102 -0.2540  0.0233
 4787W        W 8306   9.640   0.842   1.617  0.3234  0.2885  0.2802
 4788W        W 8307   7.286   1.962   8.016  0.0828 -0.1953 -0.1910
 4789W        W 8308   1.474   6.033   0.635  0.1812 -0.1747 -0.0296
 4790W        W 8309   1.128   7.548   2.954 -0.0280  0.0523 -0.4940
 4791W        W 8310   7.707   3.028   2.819 -0.3640  0.2354 -0.0769
 4792W        W 8311   0.096   8.315   0.431  0.3276  0.0758 -0.1663
 4793W        W 8312   5.621   9.565   9.894  0.2556 -0.1052 -0.4598
 4794W        W 8313   0.039   5.367   9.130 -0.0682 -0.3626 -0.1504
 4795W        W 8314   9.465   9.015   2.669 -0.1786  0.1865 -0.2417
 4796W        W 8315   4.562   2.162   3.188  0.2543  0.1080 -0.0275
 4797W        W 8316   4.910   7.934   2.026  0.3491 -0.0066  0.1580
 4798W        W 8317   9.063   0.283   8.463  0.2233  0.0228  0.1590
 4799W        W 8318   0.707   4.741   2.941 -0.5299 -0.0469  0.0640
 4800W        W 8319   6.386   3.001   2.563  0.0982 -0.1895  0.2709
 4801W        W 8320   4.015   2.899   2.263 -0.0393  0.2917  0.1149
 4802W        W 8321   0.309   4.879  11.864 -0.0408  0.0529  0.0386
 4803W        W 8322   5.425   2.292   3.905  0.3558 -0.3644  0.0866
 4804W        W 8323   6.426   5.127   0.535 -0.0801 -0.1453 -0.3209
 4805W        W 8324   4.107   0.496  11.010 -0.4315 -0.2128 -0.0302
 4806W        W 8325   9.649   8.478   1.428 -0.1543  0.1663  0.3279
 4807W        W 8326   9.615   0.231   3.621  0.0576 -0.2444  0.0910
 4808W        W 8327   5.746   0.371   0.345 -0.0367  0.2009 -0.1593
 4809W        W 8328   6.922   8.258   0.314 -0.1010 -0.3041 -0.0689
 4810W        W 8329   8.544   2.450   1.428 -0.3098  0.3402 -0.2473
 4811W        W 8330   0.097   5.372   0.065  0.3677  0.1261 -0.0702
 4812W        W 8331   3.400   1.000   2.879  0.1906  0.0574  0.3068
 4813W        W 8332   8.819   0.324   9.736 -0.0871  0.1700  0.1252
 4814W        W 8333   9.524   3.050   1.946  0.4217 -0.2576  0.1037
 4815W        W 8334   0.600   5.100   1.647  0.1980  0.0748 -0.3497
 4816W        W 8335   4.818   5.680   8.936 -0.2705  0.0284 -0.2123
 4817W        W 8336   5.432   7.231  11.689 -0.0301  0.1278 -0.1920
 4818W        W 8337   6.304   7.530   1.689 -0.0615 -0.1053 -0.2007
 4819W        W 8338   2.955   2.966   0.317 -0.3112 -0.1118 -0.2362
 4820W        W 8339   7.897   1.941  11.661  0.1487  0.2643  0.1685
 4821W        W 8340   3.950   9.789   9.965  0.1569 -0.3109  0.1205
 4822W        W 8341   1.238   3.010   0.460 -0.1145 -0.0734 -0.1229
 4823W        W 8342   9.057   9.015  10.541 -0.0133  0.0235  0.0088
 4824W        W 8343   7.494   7.509  11.466  0.3524 -0.0601  0.3331
 4825W        W 8344   3.598   7.356   8.935 -0.1874  0.1576 -0.0671
 4826W        W 8345   1.416   0.476   0.905 -0.0300  0.1112  0.0586
 4827W        W 8346   3.965   5.965   9.725 -0.3103  0.2532  0.5131
 4828W        W 8347   7.444   5.939   8.435 -0.3217 -0.3319  0.2135
 4829W        W 8348   6.956   1.827   1.776 -0.0766  0.1648  0.2057
 4830W        W 8349   1.305   2.142   0.851 -0.3814 -0.1233 -0.1822
 4831W        W 8350   7.486   1.686   8.874 -0.0047  0.0793  0.1356
 4832W        W 8351   8.677   6.554   0.002  0.3803 -0.0461 -0.2436
 4833W        W 8352   2.426   7.344   1.144  0.1043  0.1502 -0.0307
 4834W        W 8353   5.381   6.536  11.196  0.0218 -0.0067  0.1273
 4835W        W 8354   7.115   0.630  10.339  0.1319  0.4900 -0.3035
 4836W        W 8355   0.135   4.560   9.429  0.1218 -0.0010 -0.6271
 4837W        W 8356   3.195   6.659   9.106  0.2503  0.1220  0.0479
 4838W        W 8357   0.170   0.362   8.081  0.0858  0.1359  0.1577
 4839W        W 8358   9.159   4.344   8.897 -0.2048  0.0603  0.0713
 4840W        W 8359   7.661   7.651   9.518 -0.1693  0.4416  0.2563
 4841W        W 8360   8.410   1.778  11.526  0.2220  0.1123  0.1334
 4842W        W 8361   2.126   3.944   3.612  0.2009  0.0286 -0.0141
 4843W        W 8362   4.151   6.372   9.514 -0.1580  0.2994 -0.0501
 4844W        W 8363   1.058   6.812   1.009  0.0957 -0.2241 -0.0213
 4845W        W 8364   0.945   4.778   1.892  0.1871 -0.1426 -0.2136
 4846W        W 8365   8.537   1.089   2.523 -0.1092  0.0944 -0.2691
 4847W        W 8366   9.386   5.426   1.392  0.0257 -0.1332  0.1004
 4848W        W 8367   0.436   4.128   0.829 -0.1028 -0.0535 -0.4045
 4849W        W 8368   3.038   2.047  11.145 -0.0157 -0.2858 -0.3752
 4850W        W 8369   8.918   7.384   2.055 -0.2607  0.0787  0.2263
 4851W        W 8370   3.506   3.558  11.727  0.2952 -0.2006  0.0616
 4852W        W 8371   3.412   4.304   1.685  0.0183 -0.1507  0.2313
 4853W        W 8372   6.721   9.405   2.701  0.2048 -0.0097  0.4366
 4854W        W 8373   7.404   1.643   1.844  0.3272 -0.0154 -0.0561
 4855W        W 8374   7.051   9.280   0.928 -0.0838 -0.1290 -0.1039
 4856W        W 8375   0.384   8.219   2.618  0.0049 -0.0466  0.3457
 4857W        W 8376   4.314   4.590  10.408  0.1707 -0.1078  0.2908
 4858W        W 8377   0.021   5.506   3.946  0.0775  0.0371 -0.1542
 4859W        W 8378   6.121   3.114  11.780  0.1251 -0.1629 -0.3685
 4860W        W 8379   3.847   1.285   2.762 -0.0047  0.0443  0.4464
 4861W        W 8380   3.434   2.253  11.863 -0.0586 -0.1962  0.1368
 4862W        W 8381   8.572   2.982   7.639 -0.3114 -0.0440 -0.1283
 4863W        W 8382   2.076   3.981   0.844  0.0479  0.2008  0.2843
 4864W        W 8383   4.241   1.642   2.698 -0.1641 -0.0465  0.1820
 4865W        W 8384   0.811   8.991   0.820  0.2604  0.2867  0.0186
 4866W        W 8385   6.742   7.905  11.043  0.1718 -0.4447  0.0520
 4867W        W 8386   8.898   5.558   1.591 -0.2264  0.0442  0.0550
 4868W        W 8387   8.082   0.120   8.267 -0.3339 -0.4276 -0.0060
 4869W        W 8388   3.854   8.423   2.728  0.1061  0.0841  0.2276
 4870W        W 8389   5.569   9.826   1.279 -0.2125  0.5495 -0.0185
 4871W        W 8390   8.345   4.054   8.648  0.0148  0.3770 -0.0971
 4872W        W 8391   6.857   5.095   0.311  0.3251 -0.1153 -0.0966
 4873W        W 8392   8.339   3.934  11.948 -0.2113 -0.0977  0.0626
 4874W        W 8393   6.400   9.050   8.622 -0.2519  0.1549 -0.0682
 4875W        W 8394   8.303   4.405   3.653 -0.2591 -0.1286  0.0656
 4876W        W 8395   7.918   1.850  10.575 -0.2331  0.0861  0.1644
 4877W        W 8396   5.921   4.346   1.428 -0.1839 -0.1073 -0.1427
 4878W        W 8397   1.402   8.566   0.077 -0.0000 -0.2030  0.3538
 4879W        W 8398   4.660   4.975   9.542 -0.0747  0.0105 -0.0052
 4880W        W 8399   3.139   4.133   2.320  0.0216 -0.2131 -0.0968
 4881W        W 8400   8.908   4.805   0.474  0.0308 -0.0920  0.2958
 4882W        W 8401   1.101   2.906  10.170 -0.2387  0.2781 -0.0746
 4883W        W 8402   3.501   4.612   0.081  0.1153  0.0748 -0.1601
 4884W        W 8403   6.649   0.549  10.630 -0.0718 -0.0492 -0.0323
 4885W        W 8404   3.932   8.109   1.605  0.1629 -0.2106 -0.0881
 4886W        W 8405   4.367   7.209   8.853 -0.2223 -0.2338 -0.1484
 4887W        W 8406   9.073   9.205   2.373 -0.1536  0.3974 -0.0732
 4888W        W 8407   5.370   9.353  11.000  0.0421 -0.2007 -0.2768
 4889W        W 8408   4.887   6.178   1.704  0.4648  0.3335  0.2428
 4890W        W 8409   1.589   2.512   2.666 -0.1888  0.1448 -0.3199
 4891W        W 8410   8.490   2.767  10.880  0.2322 -0.0152 -0.2163
 4892W        W 8411   2.897   6.868  11.452  0.1370 -0.0594  0.1152
 4893W        W 8412   8.783   7.438   3.269 -0.3197  0.1087  0.2687
 4894W        W 8413   3.162   4.339   9.369 -0.1145 -0.3427 -0.0488
 4895W        W 8414   7.093   9.035   7.119  0.1374  0.1462  0.1390
 4896W        W 8415   5.092   1.682   7.565  0.0151 -0.0625  0.0759
 4897W        W 8416   7.463   6.618   9.021 -0.0174  0.1627 -0.3098
 4898W        W 8417   4.995   8.020   9.218 -0.0714 -0.0220  0.2389
 4899W        W 8418   9.250   7.773   1.868  0.3567  0.0697  0.1157
 4900W        W 8419   5.999   9.304   9.559 -0.2837  0.1468  0.1196
 4901W        W 8420   3.978   0.295  11.800 -0.3484  0.1221 -0.3527
 4902W        W 8421   5.118   8.751   8.585 -0.1813  0.2027  0.0264
 4903W        W 8422   4.538   6.549   9.839 -0.2187 -0.1591  0.0718
 4904W        W 8423   2.251   2.384   1.304  0.0049  0.0270 -0.3496
 4905W        W 8424   6.602   6.722   1.354 -0.1027  0.1012  0.0750
 4906W        W 8425   8.023   6.201   0.809 -0.0174 -0.2130  0.2882
 4907W        W 8426   4.157   8.215   3.314  0.1564  0.1016 -0.0633
 4908W        W 8427   3.345   1.439   9.504  0.2354 -0.1022  0.0401
 4909W        W 8428   1.836   0.890   1.830 -0.0581  0.2102  0.2891
 4910W        W 8429   5.964   4.110   7.202 -0.1028 -0.1880  0.0981
 4911W        W 8430   5.142   1.088   8.755 -0.0357  0.0096  0.1977
 4912W        W 8431   1.470   0.541   1.834  0.1557  0.2011 -0.0514
 4913W        W 8432   8.025   8.032   0.863 -0.2350  0.0789 -0.0258
 4914W        W 8433   0.614   8.909  11.232 -0.0977 -0.3949 -0.2259
 4915W        W 8434   3.493   6.852   1.615  0.1711 -0.2277  0.0703
 4916W        W 8435   7.943   6.426   7.520  0.2605 -0.1324 -0.0656
 4917W        W 8436   3.741   5.757  11.768  0.1723 -0.1369  0.1767
 4918W        W 8437   9.237   2.301   2.609 -0.0590 -0.4815  0.2279
 4919W        W 8438   0.461   7.093   3.521  0.2525  0.1985 -0.0597
 4920W        W 8439   6.147   3.429   1.788 -0.2207  0.1563 -0.1470
 4921W        W 8440   8.436   9.471  10.965 -0.0968 -0.1276 -0.0657
 4922W        W 8441   3.663   2.383   0.941 -0.0385  0.3861 -0.0533
 4923W        W 8442   4.257   1.411   2.154 -0.0688  0.1093 -0.0134
 4924W        W 8443   5.290   8.943  10.603 -0.1748 -0.0909 -0.0402
 4925W        W 8444   5.758   9.128  11.732  0.3249  0.0369  0.4874
 4926W        W 8445   0.961   1.027  11.870  0.2084 -0.0894 -0.1555
 4927W        W 8446   3.695   7.225  10.356  0.1055 -0.2988  0.2122
 4928W        W 8447   7.558   2.704  11.613 -0.2076  0.1560  0.0275
 4929W        W 8448   7.423   1.458   9.720 -0.1157  0.3153 -0.3164
 4930W        W 8449   3.633   8.693   9.606 -0.0368  0.1393  0.0537
 4931W        W 8450   2.583   0.373   9.398  0.0333 -0.2154 -0.0751
 4932W        W 8451   5.131   2.430   9.139  0.1161  0.1041  0.1532
 4933W        W 8452   4.876   3.718  10.131 -0.2379 -0.2339  0.0263
 4934W        W 8453   2.340   1.158   1.781  0.2520  0.2967 -0.0892
 4935W        W 8454   7.120   7.949  11.410 -0.0170  0.2870  0.0842
 4936W        W 8455   0.087   3.875   0.655 -0.1042  0.0935 -0.1133
 4937W        W 8456   8.285   6.909   9.069 -0.1184  0.0832  0.0882
 4938W        W 8457   9.815   4.090   2.439 -0.1357  0.3131  0.1429
 4939W        W 8458   8.059   2.321   2.358  0.1355  0.0814  0.0864
 4940W        W 8459   4.843   8.324   8.471  0.0565 -0.2380  0.2153
 4941W        W 8460   8.608   6.087   0.056  0.0046  0.0179  0.1282
 4942W        W 8461   3.442   6.196   8.914  0.2033  0.2153 -0.0240
 4943W        W 8462   9.264   1.591   2.242 -0.0926  0.0172 -0.2940
 4944W        W 8463   0.156   5.815   3.113  0.2340  0.3812  0.2159
 4945W        W 8464   7.517   5.409  11.798  0.0029  0.0267 -0.1475
 4946W        W 8465   1.779   1.846   3.249 -0.0314  0.3250  0.1292
 4947W        W 8466   4.673   7.963   2.539 -0.2991 -0.0467 -0.0554
 4948W        W 8467   0.698   2.428  10.942 -0.1002 -0.1221  0.0412
 4949W        W 8468   5.853   6.345   9.822 -0.0126 -0.0787  0.1815
 4950W        W 8469   1.789   1.386   1.876  0.1904  0.0231  0.1333
 4951W        W 8470   2.378   8.674  11.679 -0.1043 -0.3415  0.2536
 4952W        W 8471   0.697   9.675   9.845 -0.3717 -0.0330 -0.0388
 4953W        W 8472   5.003   8.611  10.843  0.0446 -0.2975 -0.0875
 4954W        W 8473   2.151   7.589   1.494  0.0145 -0.0286 -0.1003
 4955W        W 8474   7.236   5.917   0.971  0.1529 -0.0318 -0.0188
 4956W        W 8475   3.910   5.675   2.208 -0.2678  0.1807  0.2885
 4957W        W 8476   6.878   2.330   1.912  0.1793  0.0017 -0.3436
 4958W        W 8477   1.823   5.270   2.648 -0.1513  0.1404 -0.0432
 4959W        W 8478   4.968   5.268   9.263  0.4172  0.2047  0.3057
 4960W        W 8479   2.707   9.590   9.134  0.1203  0.2216  0.0263
 4961W        W 8480   0.626   2.379  11.515  0.1634  0.3209  0.2730
 4962W        W 8481   0.336   7.357   8.627  0.0575  0.0314 -0.0543
 4963W        W 8482   1.333   0.142   3.115 -0.0247 -0.2682 -0.0543
 4964W        W 8483   3.010   0.948   3.225 -0.2091  0.0834 -0.1645
 4965W        W 8484   6.905   5.130  10.122 -0.0972  0.1097  0.0881
 4966W        W 8485   6.595   2.951   0.337  0.1301 -0.0282  0.0254
 4967W        W 8486   8.859   2.372  10.856 -0.0847  0.1586 -0.0356
 4968W        W 8487   1.082   3.758   2.896  0.0500 -0.1840  0.0965
 4969W        W 8488   2.252   0.779   2.106 -0.0866 -0.0941 -0.0193
 4970W        W 8489   8.767   8.129  10.813 -0.0782  0.0947 -0.1185
 4971W        W 8490   4.184   7.415   1.016  0.1812 -0.0256  0.0790
 4972W        W 8491   2.372   0.222   0.798 -0.2747  0.0443 -0.0427
 4973W        W 8492   3.652   1.776   9.278 -0.0526  0.2793  0.1648
 4974W        W 8493   1.257   6.199  10.359 -0.1140  0.0562 -0.2952
 4975W        W 8494   7.833   7.252   9.263 -0.1011  0.1563 -0.1745
 4976W        W 8495   9.690   5.078   3.827  0.1085  0.2009 -0.0385
 4977W        W 8496   6.889   8.016  10.554  0.2680 -0.0353 -0.0204
 4978W        W 8497   5.376   6.981   8.071  0.2327 -0.3257 -0.1860
 4979W        W 8498   0.128   9.441   3.316 -0.0794 -0.1457 -0.3590
 4980W        W 8499   8.869   5.381  10.544 -0.1291 -0.1055 -0.2129
 4981W        W 8500   1.593   9.293   2.388 -0.0364 -0.2914 -0.1728
 4982W        W 8501   9.581   9.907  11.365  0.0316  0.0996 -0.3326
 4983W        W 8502   4.769   2.613   3.348 -0.2416  0.1040 -0.2739
 4984W        W 8503   6.286   0.048  10.163  0.0033 -0.1185  0.1383
 4985W        W 8504   1.544   0.107   2.668  0.1133 -0.2777 -0.5649
 4986W        W 8505   0.546   0.838  11.692  0.1356  0.2319 -0.1340
 4987W        W 8506   9.865   5.825  10.597  0.0993  0.0813 -0.0222
 4988W        W 8507   7.348   8.180   8.629 -0.1188 -0.0026  0.1704
 4989W        W 8508   3.409   8.150   8.238 -0.1924 -0.0460  0.1751
 4990W        W 8509   9.253   3.936   9.109 -0.2855  0.0905 -0.1586
 4991W        W 8510   0.723   6.287   2.500 -0.0736  0.1322 -0.2346
 4992W        W 8511   4.838   6.904   0.448 -0.0231 -0.3760  0.2140
 4993W        W 8512   5.443   6.435   8.025 -0.0443 -0.1067 -0.3511
 4994W        W 8513   4.421   7.019   1.183  0.3200 -0.0688  0.0544
 4995W        W 8514   5.979   2.458   8.496 -0.0926 -0.2613  0.0021
 4996W        W 8515   7.740   5.950  10.180  0.1517  0.0991 -0.2440
 4997W        W 8516   6.574   5.541   9.910 -0.0293 -0.1709 -0.2399
 4998W        W 8517   7.370   9.342   2.865  0.0691 -0.2083  0.2129
 4999W        W 8518   4.337   1.414  10.452 -0.0367  0.2411 -0.0568
 5000W        W 8519   1.801   4.978  11.657 -0.1296  0.3692 -0.2052
 5001W        W 8520   5.382   1.252   7.621  0.4439 -0.1982  0.2125
 5002W        W 8521   5.894   8.272   0.610 -0.1599  0.1207 -0.0481
 5003W        W 8522   6.120   5.784   9.735  0.0297  0.1913  0.4594
 5004W        W 8523   0.777   0.988  10.398 -0.1972  0.0663  0.0637
 5005W        W 8524   5.879   7.027   9.246  0.0444 -0.0778 -0.1869
 5006W        W 8525   4.039   6.698   3.314 -0.1173 -0.0913 -0.0132
 5007W        W 8526   7.295   3.902   2.330  0.0067  0.0998  0.1069
 5008W        W 8527   0.858   5.537   1.731  0.1794 -0.1039 -0.0508
 5009W        W 8528   1.924   1.280   9.834 -0.2837 -0.0107 -0.0905
 5010W        W 8529   5.775   2.130   2.638 -0.1108  0.2513 -0.2645
 5011W        W 8530   4.029   8.187   0.530  0.0415  0.0969 -0.2109
 5012W        W 8531   7.915   1.588   9.746 -0.0083 -0.0429 -0.2271
 5013W        W 8532   8.216   4.485   9.563  0.0973 -0.1805 -0.1748
 5014W        W 8533   7.561   0.733   0.637  0.3702  0.2577 -0.0359
 5015W        W 8534   9.637   2.620   2.658 -0.0769 -0.1051  0.1804
 5016W        W 8535   3.904   3.525   3.063 -0.0158  0.0787 -0.0853
 5017W        W 8536   3.988   5.924  11.215 -0.1506 -0.1970 -0.2708
 5018W        W 8537   8.112   9.165   8.907  0.0746 -0.1609 -0.1827
 5019W        W 8538   7.063   1.463  10.677  0.0351 -0.0245  0.0650
 5020W        W 8539   9.599   7.991   1.630  0.1581 -0.2674  0.1525
 5021W        W 8540   5.101   3.437   8.555 -0.0945  0.3776  0.0172
 5022W        W 8541   8.076   5.545  11.450 -0.4119 -0.0911  0.0272
 5023W        W 8542   3.956   9.683   1.630 -0.0627  0.2946 -0.0881
 5024W        W 8543   0.858   1.415  10.068  0.2131 -0.1348  0.2308
 5025W        W 8544   5.109   1.315  10.877 -0.3180 -0.0382  0.0847
 5026W        W 8545   5.231   8.030   0.852 -0.1323  0.3514 -0.2313
 5027W        W 8546   8.793   2.910   0.362  0.0367 -0.0237  0.2088
 5028W        W 8547   7.426   8.430   9.239  0.1696  0.2658 -0.0607
 5029W        W 8548   1.937   8.213  10.282  0.1473  0.0204 -0.0338
 5030W        W 8549   9.422   6.929   3.787  0.1077 -0.2436 -0.0200
 5031W        W 8550   1.512   3.546   0.440  0.1435  0.0885 -0.0185
 5032W        W 8551   0.835   2.740  11.802 -0.2630 -0.0551  0.0370
 5033W        W 8552   4.888   3.902   8.246  0.4209  0.0405  0.0857
 5034W        W 8553   7.869   8.076   8.570  0.1498  0.1661  0.1417
 5035W        W 8554   7.171   6.868   0.722  0.1998 -0.0448 -0.0174
 5036W        W 8555   8.763   0.237  10.430 -0.0465  0.0858  0.2075
 5037W        W 8556   8.828   9.256  10.099  0.0206 -0.2029  0.1238
 5038W        W 8557   2.807   0.224   1.564  0.1278 -0.0854 -0.1020
 5039W        W 8558   5.606   9.897  10.368  0.2480 -0.1275 -0.2584
 5040W        W 8559   7.847   1.866   1.583 -0.3142  0.1669 -0.0645
 5041W        W 8560   1.966   7.468   9.251 -0.1848  0.2562 -0.4683
 5042W        W 8561   8.285   7.792   8.713  0.5385  0.1642 -0.0937
 5043W        W 8562   7.245   4.694   8.528 -0.2618 -0.1325  0.0368
 5044W        W 8563   5.669   3.661   1.978 -0.1315  0.0347  0.2012
 5045W        W 8564   9.827   4.926   1.268 -0.2779 -0.2109  0.0397
 5046W        W 8565   9.035   4.347  10.883 -0.1128  0.0084 -0.0717
 5047W        W 8566   4.106   8.859   9.737 -0.0135 -0.4219  0.1333
 5048W        W 8567   8.262   7.536   1.961 -0.1224 -0.2010  0.1848
 5049W        W 8568   6.047   2.017   0.398 -0.1634  0.2004 -0.0214
 5050W        W 8569   2.206   5.414  10.471 -0.3453 -0.1370  0.0169
 5051W        W 8570   1.679   8.176   2.312 -0.2247 -0.0399 -0.0701
 5052W        W 8571   4.808   0.620   0.086  0.1558  0.1084 -0.0514
 5053W        W 8572   3.145   2.598   2.556  0.2708 -0.2972 -0.4323
 5054W        W 8573   5.334   3.161   8.100  0.0828 -0.1525 -0.0427
 5055W        W 8574   3.622   0.692   1.884 -0.1083 -0.0912  0.0691
 5056W        W 8575   4.998   7.665   8.877  0.0893 -0.0435  0.0081
 5057W        W 8576   5.649   6.242   0.155 -0.1447  0.0604 -0.0323
 5058W        W 8577   2.835   8.277   9.575  0.0398  0.2036 -0.1408
 5059W        W 8578   0.503   8.448   1.702  0.1322 -0.2429  0.0281
 5060W        W 8579   8.758   9.083   1.336 -0.2050 -0.3306 -0.0619
 5061W        W 8580   7.102   5.123   8.326 -0.0282 -0.1509 -0.1032
 5062W        W 8581   7.668   3.930   1.803 -0.0760 -0.2095 -0.0756
 5063W        W 8582   4.863   3.746  11.574 -0.3466  0.0316 -0.2796
 5064W        W 8583   4.419   5.617   0.546 -0.0502  0.0015 -0.1970
 5065W        W 8584   7.502   7.750   8.437  0.0582  0.2686 -0.1209
 5066W        W 8585   4.745   7.360  10.086 -0.3246  0.0470  0.2191
 5067W        W 8586   1.752   3.077  10.227  0.0592 -0.0851  0.3299
 5068W        W 8587   0.435   6.575  11.414 -0.1822  0.2161  0.0097
 5069W        W 8588   5.217   4.176   2.045 -0.0954  0.2723 -0.1840
 5070W        W 8589   7.500   7.791  10.545 -0.0200 -0.1597  0.2730
 5071W        W 8590   5.167   7.976  10.201 -0.1396  0.2674 -0.1043
 5072W        W 8591   4.580   7.921   4.187  0.0441 -0.0199 -0.2566
 5073W        W 8592   7.636   1.308   0.582  0.0840 -0.1528  0.1786
 5074W        W 8593   4.677   8.886   8.426 -0.3296 -0.0083  0.0585
 5075W        W 8594   5.465   1.887  10.023 -0.1636  0.0085  0.0270
 5076W        W 8595   6.325   9.689   3.807  0.0106 -0.2851  0.0657
 5077W        W 8596   8.051   8.409  10.036  0.0230 -0.1803  0.3861
 5078W        W 8597   4.205   8.684   0.228  0.4694 -0.1458  0.2088
 5079W        W 8598   2.919   1.766  10.265  0.2124 -0.5335 -0.1256
 5080W        W 8599   3.130   5.878   9.176  0.0272  0.1015  0.1303
 5081W        W 8600   6.632   0.718  12.011  0.0809 -0.1558 -0.1075
 5082W        W 8601   7.331   3.758  12.011 -0.1451  0.1125 -0.1204
 5083W        W 8602   9.064   6.314  11.081  0.0418 -0.0095 -0.1003
 5084W        W 8603   6.328   9.378  10.735  0.2326  0.0952 -0.2212
 5085W        W 8604   8.892   8.259   0.844  0.1995  0.1467 -0.0040
 5086W        W 8605   1.760   8.386  10.776  0.2155  0.1001 -0.1123
 5087W        W 8606   6.014   1.635   2.692  0.2482 -0.0302 -0.1520
 5088W        W 8607   7.185   2.480   2.487  0.2513 -0.0270  0.2475
 5089W        W 8608   7.537   7.752   0.852 -0.1839 -0.0891  0.0295
 5090W        W 8609   0.645   6.711  10.867  0.2380  0.0727 -0.0656
 5091W        W 8610   8.208   6.808   1.530  0.0603 -0.0852  0.0052
 5092W        W 8611   6.622   0.024  11.199  0.2461  0.1368 -0.0835
 5093W        W 8612   6.266   2.842   9.263 -0.0403 -0.2377 -0.0675
 5094W        W 8613   2.751   7.395  11.499  0.2772  0.3298 -0.2050
 5095W        W 8614   1.064   6.706   2.819 -0.1784  0.0346 -0.0960
 5096W        W 8615   4.961   8.506   1.562 -0.2633  0.1751  0.2515
 5097W        W 8616   1.860   2.397   1.687 -0.0331 -0.2338 -0.1840
 5098W        W 8617   6.306   3.616   8.090  0.2261 -0.2305  0.2303
 5099W        W 8618   7.511   4.070  10.681 -0.0796 -0.3955  0.1295
 5100W        W 8619   3.573   3.757   1.915 -0.0104 -0.3484 -0.0237
 5101W        W 8620   9.532   2.293   9.076  0.0485  0.0070  0.2276
 5102W        W 8621   6.627   6.437   9.427  0.1029 -0.3439 -0.0929
 5103W        W 8622   9.316   9.715   9.148  0.1102 -0.0606  0.0293
 5104W        W 8623   1.286   1.355   1.929  0.0369  0.3566  0.1496
 5105W        W 8624   7.982   6.659  10.651 -0.0495 -0.1083 -0.3204
 5106W        W 8625   7.709   9.854   8.473 -0.0717  0.3553  0.0257
 5107W        W 8626   0.963   7.656   0.430 -0.1253 -0.0875  0.1173
 5108W        W 8627   2.232   7.600   2.790 -0.3736 -0.3340 -0.0317
 5109W        W 8628   5.984   5.014   9.640  0.1237  0.0220  0.0550
 5110W        W 8629   8.281   7.404   9.107  0.1276 -0.1100 -0.0915
 5111W        W 8630   8.030   5.914   0.369 -0.1622 -0.5422  0.1934
 5112W        W 8631   1.854   1.405  11.194 -0.1089  0.0295 -0.2767
 5113W        W 8632   1.997   0.059   1.155  0.0751 -0.1187 -0.0026
 5114W        W 8633   9.004   5.644   8.163  0.3267 -0.0144  0.0135
 5115W        W 8634   9.362   2.410   0.020 -0.1667  0.2233  0.2309
 5116W        W 8635   2.653   2.014   2.208  0.0578  0.1927  0.0382
 5117W        W 8636   7.306   4.336   8.863  0.1290 -0.0888 -0.1051
 5118W        W 8637   5.874   2.655  11.779 -0.3528 -0.1035 -0.0000
 5119W        W 8638   4.445   9.574  11.339 -0.0779 -0.1484  0.0027
 5120W        W 8639   6.602   3.991   2.321 -0.0649 -0.1237 -0.1132
 5121W        W 8640   4.680   4.176   1.215  0.0915 -0.0092 -0.0173
 5122W        W 8641   9.534   1.648   3.472 -0.1763  0.1297  0.2600
 5123W        W 8642   7.070   5.181   8.820  0.1178  0.2614  0.0257
 5124W        W 8643   1.241   8.513   7.363 -0.1505  0.0654 -0.0158
 5125W        W 8644   3.830   3.771   9.841 -0.0722 -0.0469 -0.0878
 5126W        W 8645   0.639   3.564   2.162  0.1928 -0.2912  0.1650
 5127W        W 8646   8.506   7.977   2.076 -0.0272  0.2511  0.1148
 5128W        W 8647   8.658   1.816  11.065 -0.1336 -0.0631  0.1390
 5129W        W 8648   8.990   1.962   9.911 -0.0806 -0.0347  0.0489
 5130W        W 8649   5.386   9.834  11.163  0.1369 -0.1223  0.0878
 5131W        W 8650   1.722   8.144   0.169  0.1509 -0.0580 -0.0431
 5132W        W 8651   9.542   8.516   0.479  0.2708 -0.0623 -0.1364
 5133W        W 8652   1.699   8.511   8.274 -0.1393  0.2697  0.1680
 5134W        W 8653   7.663   2.561   1.614 -0.0416 -0.1740 -0.2105
 5135W        W 8654   0.218   3.938   0.191 -0.1718 -0.1363 -0.1419
 5136W        W 8655   2.096   3.246   4.296 -0.2699 -0.0023  0.2288
 5137W        W 8656   0.824   0.713   8.884  0.0094  0.0749  0.0179
 5138W        W 8657   8.895   3.642   2.328 -0.0696  0.0191 -0.0632
 5139W        W 8658   0.204   9.824  11.477  0.0206 -0.0794 -0.1782
 5140W        W 8659   9.087   8.546   3.090  0.0288 -0.3578  0.0869
 5141W        W 8660   8.792   8.655   1.856 -0.0460 -0.1498 -0.2109
 5142W        W 8661   7.610   7.359  10.964 -0.0002 -0.3051  0.0627
 5143W        W 8662   2.773   2.751   0.721  0.1245 -0.3588  0.0487
 5144W        W 8663   0.812   4.232   1.244 -0.3210  0.2074  0.3522
 5145W        W 8664   9.142   6.156   0.824  0.2606 -0.0582  0.0538
 5146W        W 8665   9.134   3.156  10.182 -0.3384  0.2962 -0.1280
 5147W        W 8666   1.115   8.897   3.668  0.0814  0.0747  0.0150
 5148W        W 8667   7.959   0.424   0.608  0.2606 -0.2126  0.0474
 5149W        W 8668   4.090   4.253   3.254 -0.0571  0.1614  0.0328
 5150W        W 8669   4.666   5.322  10.897 -0.2665  0.0808 -0.0544
 5151W        W 8670   2.954   9.665  11.355  0.1887 -0.1325  0.1206
 5152W        W 8671   6.507   5.316   8.741  0.0546  0.0638 -0.2717
 5153W        W 8672   2.696   1.562  10.766 -0.3350  0.2735  0.1310
 5154W        W 8673   5.071   4.177   7.502 -0.4793 -0.2043 -0.0000
 5155W        W 8674   2.956   2.347   2.955  0.0788  0.0871 -0.1109
 5156W        W 8675   0.017   5.940   0.802  0.0749 -0.1607 -0.0625
 5157W        W 8676   6.737   9.134   3.584 -0.0996  0.1800 -0.0730
 5158W        W 8677   5.620   6.737   1.506  0.2468 -0.1291  0.1670
 5159W        W 8678   5.285   1.627   0.703 -0.3730 -0.1026  0.2104
 5160W        W 8679   5.737   6.326   9.212 -0.1385 -0.1127 -0.0476
 5161W        W 8680   4.638   2.246  10.059  0.3270  0.0346  0.2488
 5162W        W 8681   0.229   3.190   9.936  0.1286  0.1928 -0.1823
 5163W        W 8682   3.393   6.773  11.157  0.0228 -0.3051 -0.0351
 5164W        W 8683   3.405   8.449  10.928 -0.0698  0.1041 -0.2604
 5165W        W 8684   0.985   4.846   3.817  0.0849 -0.0423  0.2524
 5166W        W 8685   3.634   9.150   1.684 -0.2608 -0.1012  0.0008
 5167W        W 8686   9.797   9.650  10.396  0.1994 -0.1301 -0.1378
 5168W        W 8687   1.941   9.202   7.388 -0.0329 -0.1696 -0.1979
 5169W        W 8688   7.189   2.879   8.280  0.1322  0.0296 -0.2129
 5170W        W 8689   6.126   6.669   9.515  0.0988  0.1456 -0.1309
 5171W        W 8690   6.579   3.497   9.383 -0.0214 -0.0440  0.2614
 5172W        W 8691   2.282   6.163  11.989 -0.0806  0.0975  0.1818
 5173W        W 8692   0.410   3.746  10.216 -0.1470 -0.0283 -0.1156
 5174W        W 8693   0.901   0.001   7.707 -0.0630 -0.0096 -0.0049
 5175W        W 8694   8.091   4.110   2.121 -0.1283  0.1522  0.3109
 5176W        W 8695   6.987   1.491   2.957  0.0381  0.1083  0.0042
 5177W        W 8696   4.939   4.794   8.884  0.0239  0.2423 -0.1594
 5178W        W 8697   0.061   3.237   1.355  0.0711  0.0279 -0.0032
 5179W        W 8698   4.361   9.260   8.155  0.1441 -0.0747  0.2799
 5180W        W 8699   7.608   3.883  10.000 -0.1361 -0.0746  0.2028
 5181W        W 8700   3.027   9.427   8.542  0.0463 -0.0390  0.0449
 5182W        W 8701   9.013   6.454   8.674  0.0762  0.0372 -0.5165
 5183W        W 8702   4.872   7.628  10.533  0.0415 -0.1942  0.3095
 5184W        W 8703   8.208   9.563   2.546  0.1712  0.2169 -0.1641
 5185W        W 8704   4.930   2.710   2.545  0.4288  0.1220 -0.0688
 5186W        W 8705   7.129   0.133  11.218  0.6259 -0.1219  0.1474
 5187W        W 8706   1.150   4.463   1.499  0.0547  0.0127  0.0362
 5188W        W 8707   9.898   6.788   0.548 -0.2915  0.2166  0.1041
 5189W        W 8708   7.792   6.288  11.138 -0.0041  0.1291 -0.0189
 5190W        W 8709   9.604   3.542   9.332 -0.0848  0.2311  0.1707
 5191W        W 8710   6.375   7.444   0.455  0.0610 -0.1397  0.0817
 5192W        W 8711   0.969   6.516   8.996  0.0681  0.1301 -0.0875
 5193W        W 8712   0.417   7.732   1.369 -0.1851  0.2841  0.0392
 5194W        W 8713   2.178   3.210   2.368 -0.1161  0.2850 -0.0307
 5195W        W 8714   2.498   1.553   2.591 -0.2617  0.1094  0.1066
 5196W        W 8715   0.468   5.443   8.853  0.1282  0.2147 -0.0775
 5197W        W 8716   7.102   1.804   9.337 -0.0492 -0.1107  0.0973
 5198W        W 8717   2.854   6.164   2.812 -0.2846  0.3383  0.0394
 5199W        W 8718   0.939   1.180   1.613  0.0749 -0.0498 -0.0575
 5200W        W 8719   9.695   2.091  11.699 -0.2352  0.0739  0.0956
 5201W        W 8720   1.662   3.750   1.703  0.2027  0.0456  0.3081
 5202W        W 8721   2.164   6.605  11.729  0.0751 -0.1148  0.1995
 5203W        W 8722   7.761   9.778   2.658  0.3805 -0.3489 -0.1310
 5204W        W 8723   7.337   2.315   3.451 -0.1248  0.1347  0.0094
 5205W        W 8724   7.251   9.605   8.313  0.0321  0.3353 -0.0967
 5206W        W 8725   3.839   1.397   1.934  0.1273  0.0656 -0.1337
 5207W        W 8726   1.863   4.485  11.281 -0.2403 -0.3019 -0.0555
 5208W        W 8727   7.045   1.215   9.529  0.1346 -0.2280  0.0860
 5209W        W 8728   7.989   8.874   9.894  0.2839 -0.2340 -0.0251
 5210W        W 8729   6.160   0.435   9.377 -0.4644 -0.0892 -0.1262
 5211W        W 8730   0.028   7.568   1.144 -0.2285  0.1392  0.2551
 5212W        W 8731   9.476   8.546   2.623 -0.0639 -0.1041 -0.1715
 5213W        W 8732   1.497   3.199   4.048 -0.0119 -0.0642  0.1499
 5214W        W 8733   7.152   5.955   2.148  0.0755 -0.1185  0.2220
 5215W        W 8734   0.555   8.131  10.153 -0.0317 -0.1732 -0.0640
 5216W        W 8735   3.079   0.525   9.470  0.0078 -0.0702 -0.0948
 5217W        W 8736   0.328   0.074   9.456 -0.0474  0.1367  0.3316
 5218W        W 8737   1.410   6.229   1.894 -0.4093 -0.2188  0.0119
 5219W        W 8738   9.923   3.632   9.797 -0.0463  0.0965  0.1035
 5220W        W 8739   1.206   3.069   3.531 -0.0255 -0.1721 -0.1402
 5221W        W 8740   5.049   0.216   8.788 -0.1201 -0.4446 -0.2106
 5222W        W 8741   8.387   6.524   2.576 -0.1706 -0.0169 -0.2670
 5223W        W 8742   9.016   7.916   7.165  0.4237  0.0160 -0.1526
 5224W        W 8743   7.823   5.212   3.704  0.0081  0.0866 -0.0818
 5225W        W 8744   0.624   8.387   3.032 -0.0103  0.1454 -0.0815
 5226W        W 8745   4.511   5.396  11.730  0.1516 -0.1802  0.2372
 5227W        W 8746   5.405   7.779   9.742 -0.1158  0.2411  0.1868
 5228W        W 8747   8.441   0.220   9.271 -0.0780  0.0514  0.1065
 5229W        W 8748   9.118   4.565  10.366 -0.1067 -0.0876 -0.1808
 5230W        W 8749   9.654   4.987   1.805 -0.3095  0.1660  0.1795
 5231W        W 8750   4.723   0.115   2.721 -0.1936 -0.2932  0.0033
 5232W        W 8751   1.783   4.062   4.463  0.2156 -0.0598 -0.0628
 5233W        W 8752   3.130   3.763   1.633 -0.1940 -0.1670 -0.1804
 5234W        W 8753   6.139   2.160  11.617  0.0163 -0.1589  0.1792
 5235W        W 8754   4.502   8.648  11.853  0.1289 -0.2004  0.2706
 5236W        W 8755   8.434   0.902   3.054 -0.0973  0.1216 -0.3557
 5237W        W 8756   6.765   3.281   7.568  0.0225 -0.2310 -0.0031
 5238W        W 8757   3.266   7.194  11.437 -0.2226  0.0082  0.0637
 5239W        W 8758   4.158   4.672   3.682 -0.0403  0.2537 -0.1089
 5240W        W 8759   1.510   2.981   2.204  0.0467 -0.0871  0.3569
 5241W        W 8760   4.342   8.331  11.455  0.1049 -0.0066  0.1012
 5242W        W 8761   7.215   9.154   8.673  0.0616  0.0346  0.0330
 5243W        W 8762   4.074   5.547  10.455 -0.0499 -0.1687 -0.0453
 5244W        W 8763   9.390   2.499   3.136 -0.1313  0.1803 -0.2558
 5245W        W 8764   0.111   6.506  11.999 -0.2519 -0.2806  0.3177
 5246W        W 8765   5.701   9.319   7.463 -0.0638 -0.2700  0.1812
 5247W        W 8766   1.780   5.295   0.093 -0.1863 -0.7826  0.3459
 5248W        W 8767   0.265   0.576   2.323  0.0472  0.0126  0.1417
 5249W        W 8768   9.802   3.445  11.201  0.1896  0.1275  0.0838
 5250W        W 8769   8.950   6.004  10.416 -0.0706  0.2477 -0.3068
 5251W        W 8770   0.825   5.414  10.085  0.1300  0.3379  0.1114
 5252W        W 8771   2.189   6.572   7.893  0.1316 -0.1368  0.3726
 5253W        W 8772   5.383   8.504   9.305  0.2433 -0.0684  0.1336
 5254W        W 8773   9.108   2.579   3.574  0.3084  0.3200 -0.3924
 5255W        W 8774   4.323   4.298   9.830  0.1211 -0.0493 -0.2200
 5256W        W 8775   5.126   2.570  10.556 -0.0937 -0.0627  0.2706
 5257W        W 8776   7.003   6.279   8.524  0.0191  0.2321  0.1307
 5258W        W 8777   5.993   8.839   7.833  0.1274  0.2327 -0.1293
 5259W        W 8778   6.059   2.995   7.414  0.0040 -0.0346 -0.0378
 5260W        W 8779   2.050   2.090   8.850  0.1702  0.2593 -0.0050
 5261W        W 8780   2.908   0.254  10.257 -0.0700 -0.1269 -0.0015
 5262W        W 8781   5.117   9.266   8.744 -0.1741  0.1052  0.2129
 5263W        W 8782   9.649   7.899   9.848 -0.0566  0.0199  0.1312
 5264W        W 8783   8.287   6.523  11.207  0.0470 -0.2405 -0.5403
 5265W        W 8784   3.934   3.733  11.495 -0.1855 -0.0011  0.1854
 5266W        W 8785   1.254   8.165   1.084 -0.3236 -0.2065  0.0634
 5267W        W 8786   1.978   2.728   2.319 -0.3673  0.0121  0.0893
 5268W        W 8787   6.679   8.757   1.734  0.1222 -0.1593 -0.2358
 5269W        W 8788   3.379   3.738   1.175  0.1971  0.0840  0.2708
 5270W        W 8789   4.783   8.464   2.825 -0.0150 -0.1234 -0.1848
 5271W        W 8790   6.294   8.009   2.065  0.5167  0.2120  0.0865
 5272W        W 8791   0.028   2.543   3.081 -0.2475 -0.0197 -0.1843
 5273W        W 8792   1.526   2.357   8.674  0.0703  0.1849  0.0820
 5274W        W 8793   8.342   5.991   8.239  0.1025  0.1158  0.1890
 5275W        W 8794   3.321   6.682   0.268 -0.2342  0.0183 -0.1129
 5276W        W 8795   1.143   0.604  10.660 -0.3085 -0.0954 -0.1802
 5277W        W 8796   7.926   1.810   1.090  0.0064 -0.5803  0.0404
 5278W        W 8797   7.266   8.279   0.675 -0.0885  0.2047  0.2765
 5279W        W 8798   2.025   7.546   8.265  0.2808  0.0978 -0.1767
 5280W        W 8799   3.930   4.855  11.384 -0.0306  0.2670 -0.0139
 5281W        W 8800   5.131   1.085   9.659  0.0231  0.0126 -0.1831
 5282W        W 8801   9.424   4.575   3.147  0.1269 -0.1306 -0.3429
 5283W        W 8802   8.853   0.036   2.935 -0.0506 -0.0401 -0.2977
 5284W        W 8803   2.478   7.076   3.207 -0.1976  0.1198  0.1705
 5285W        W 8804   3.199   1.974   0.243  0.0401  0.1504  0.1587
 5286W        W 8805   1.338   3.204   6.980 -0.0718 -0.0129  0.3048
 5287W        W 8806   6.781   3.348   0.686  0.0305 -0.0589 -0.3168
 5288W        W 8807   5.437   7.664   2.967 -0.2188  0.0183  0.0201
 5289W        W 8808   5.404   2.204   3.030 -0.1971  0.1853  0.5130
 5290W        W 8809   1.663   9.471   1.886 -0.1591  0.2400  0.0390
 5291W        W 8810   4.452   0.052   0.979 -0.0382 -0.3597  0.4213
 5292W        W 8811   5.092   3.150   9.554 -0.3449  0.2616 -0.3281
 5293W        W 8812   5.569   5.329   3.399  0.0438 -0.0533 -0.0601
 5294W        W 8813   9.433   5.203   9.452 -0.2147 -0.2631  0.0746
 5295W        W 8814   5.214   4.860   7.906 -0.2807 -0.0901  0.0490
 5296W        W 8815   2.376   0.050  10.378  0.1005 -0.0703 -0.1238
 5297W        W 8816   4.529   5.350   0.981  0.0702  0.0035 -0.3291
 5298W        W 8817   1.926   8.096   3.701 -0.0642 -0.3344  0.0857
 5299W        W 8818   7.085   7.864   0.994  0.3656  0.1262 -0.1921
 5300W        W 8819   2.398   4.196   2.077  0.0528 -0.1212 -0.0815
 5301W        W 8820   6.217   4.109   2.811  0.0292 -0.1452  0.0169
 5302W        W 8821   6.109   5.026   0.948  0.1993  0.1119  0.0783
 5303W        W 8822   2.879   9.329  10.942 -0.1612 -0.0445  0.1796
 5304W        W 8823   2.310   9.897   0.329 -0.3094 -0.3245 -0.0571
 5305W        W 8824   2.692   4.152   3.402  0.1568  0.0875  0.0836
 5306W        W 8825   8.116   4.333  11.658  0.0983  0.2426  0.1468
 5307W        W 8826   8.837   9.871   8.109 -0.3181 -0.1380 -0.1066
 5308W        W 8827   1.133   1.339   0.768 -0.2132 -0.2834  0.2804
 5309W        W 8828   9.846   7.789  11.624  0.0674 -0.0502  0.1025
 5310W        W 8829   6.361   3.787   3.298  0.0252  0.0773 -0.0912
 5311W        W 8830   5.496   3.340   0.376  0.0460  0.1700  0.0207
 5312W        W 8831   8.063   2.637   0.389  0.0025  0.0099  0.0001
 5313W        W 8832   0.454   0.116   2.437 -0.2223  0.1139 -0.2511
 5314W        W 8833   9.435   6.009  10.164  0.1583 -0.1867  0.1225
 5315W        W 8834   1.350   4.068   9.740  0.2101 -0.1035 -0.1074
 5316W        W 8835   9.088   4.377   0.174 -0.0807  0.1816 -0.0544
 5317W        W 8836   1.760   5.803   8.437 -0.0227 -0.3097 -0.0405
 5318W        W 8837   5.206   7.138   9.693  0.2390  0.1418 -0.0992
 5319W        W 8838   1.783   2.452   0.724  0.0202  0.1734 -0.3128
 5320W        W 8839   5.364   6.028   1.250 -0.0670 -0.0548  0.1227
 5321W        W 8840   2.483   5.525   3.332  0.0390 -0.2149 -0.1961
 5322W        W 8841   8.678   0.822   9.680 -0.5278 -0.1433 -0.2745
 5323W        W 8842   5.483   6.085   2.328 -0.0185  0.0859 -0.0448
 5324W        W 8843   6.747   9.639   9.884  0.1128 -0.0746  0.0093
 5325W        W 8844   1.103   1.473  10.681  0.3145  0.0447  0.1036
 5326W        W 8845   9.732   9.838   3.161  0.1479 -0.1142 -0.2547
 5327W        W 8846   3.297   6.908   8.255  0.0278  0.3177  0.2367
 5328W        W 8847   5.690   4.760   0.446  0.0520 -0.3393  0.1919
 5329W        W 8848   5.904   1.579   8.957 -0.0217 -0.0092 -0.2796
 5330W        W 8849   7.217   0.110   7.867  0.1011 -0.0547  0.0316
 5331W        W 8850   2.906   3.309   9.181  0.2550  0.2788  0.1705
 5332W        W 8851   4.300   6.343   1.700  0.1355  0.1106  0.1518
 5333W        W 8852   7.199   8.358   3.391 -0.2048  0.2700  0.0556
 5334W        W 8853   5.447   7.984  10.776 -0.0987 -0.2493 -0.0474
 5335W        W 8854   6.772   6.773   0.046  0.0753  0.4114  0.1156
 5336W        W 8855   0.149   2.721   1.723  0.1963  0.1298  0.0379
 5337W        W 8856   1.234   0.321   2.224  0.0722 -0.0486  0.2545
 5338W        W 8857   7.605   1.226  11.604 -0.1588 -0.3261  0.2491
 5339W        W 8858   9.491   6.333   9.743 -0.0090 -0.4050 -0.1674
 5340W        W 8859   8.400   9.139   2.763 -0.3712 -0.1408 -0.0612
 5341W        W 8860   3.318   1.607  11.153  0.0245  0.0939 -0.0577
 5342W        W 8861   1.974   0.422   1.669  0.1445 -0.1953 -0.1076
 5343W        W 8862   2.135   2.312  10.184  0.0526 -0.1148  0.1583
 5344W        W 8863   0.788   5.768   9.619  0.0500  0.0953 -0.1641
 5345W        W 8864   0.539   1.237   9.741 -0.4015  0.0421 -0.0478
 5346W        W 8865   2.371   4.232  11.636  0.1676 -0.0350  0.1318
 5347W        W 8866   4.732   9.419   0.953  0.2410 -0.2367  0.3021
 5348W        W 8867   0.514   9.657   3.721 -0.0708  0.2775  0.3262
 5349W        W 8868   0.696   3.991   9.477  0.1826 -0.0369  0.3118
 5350W        W 8869   6.853   4.054   0.947  0.1706 -0.0116  0.2206
 5351W        W 8870   0.802   7.525   1.663  0.0994  0.1146 -0.3011
 5352W        W 8871   0.490   2.936  10.955 -0.2401  0.1090  0.2954
 5353W        W 8872   7.625   2.339   0.363 -0.0713  0.1512  0.0599
 5354W        W 8873   6.972   5.509  10.414 -0.0235  0.0901 -0.1247
 5355W        W 8874   6.555   5.295   3.206  0.0907 -0.1146 -0.0736
 5356W        W 8875   5.450   4.792   8.689  0.3084 -0.1609  0.1118
 5357W        W 8876   1.026   3.116   9.684 -0.0244  0.3819 -0.1450
 5358W        W 8877   6.306   3.126   0.702  0.0150 -0.0709  0.1163
 5359W        W 8878   5.673   8.560   0.924  0.0938 -0.0493  0.3049
 5360W        W 8879   1.547   0.159   8.188 -0.0459  0.3212 -0.2166
 5361W        W 8880   7.819   5.169  10.144 -0.0670 -0.1619 -0.0930
 5362W        W 8881   9.011   4.765  11.274  0.2181  0.0816 -0.0697
 5363W        W 8882   1.942   4.360   2.187  0.1620 -0.0030  0.0050
 5364W        W 8883   7.899   8.312   2.606 -0.0462 -0.3283 -0.0383
 5365W        W 8884   8.903   2.887   2.024  0.0633  0.0498  0.0216
 5366W        W 8885   6.177   8.678   0.723  0.1246 -0.2301  0.0526
 5367W        W 8886   4.865   9.154  10.829  0.1275  0.0432  0.1803
 5368W        W 8887   4.758   4.207  11.533  0.3126 -0.0936  0.1213
 5369W        W 8888   5.398   7.375   8.987 -0.0053  0.2820 -0.1259
 5370W        W 8889   2.341   9.627   0.777 -0.1039 -0.0746  0.2220
 5371W        W 8890   3.926   9.566   7.501  0.0774 -0.3266 -0.2283
 5372W        W 8891   9.261   1.175   0.747  0.1048 -0.1030 -0.0827
 5373W        W 8892   5.259   7.936   3.944  0.1745  0.0215 -0.0997
 5374W        W 8893   8.221   9.619   9.425  0.1311 -0.4939  0.1014
 5375W        W 8894   0.914   5.096   7.909  0.0007  0.0864  0.2738
 5376W        W 8895   3.966   6.932   0.916  0.0671 -0.1244 -0.3425
 5377W        W 8896   2.145   2.147   0.522 -0.0926  0.3001  0.1961
 5378W        W 8897   8.889   7.127  10.766 -0.0235  0.2666 -0.1859
 5379W        W 8898   3.875   5.546   8.847  0.1448 -0.0082  0.0758
 5380W        W 8899   7.963   8.534   3.143  0.0342 -0.0354  0.1889
 5381W        W 8900   8.279   8.241   3.514 -0.0709  0.1205 -0.1141
 5382W        W 8901   9.208   7.300   0.991  0.3171 -0.1448  0.0198
 5383W        W 8902   8.081   0.889   8.774 -0.0800  0.0152  0.0712
 5384W        W 8903   6.083   2.560   1.980  0.1029 -0.5312  0.3653
 5385W        W 8904   8.146   1.507  10.898 -0.1237 -0.1542 -0.1701
 5386W        W 8905   7.000   0.555   3.905 -0.2606 -0.1787  0.5423
 5387W        W 8906   9.312   0.363  10.053  0.1608 -0.1536  0.3714
 5388W        W 8907   3.771   7.287   1.791  0.2635  0.1569 -0.3133
 5389W        W 8908   5.295   5.575   0.677 -0.1478 -0.2850 -0.2322
 5390W        W 8909   6.539   9.704   3.417 -0.2578 -0.0868 -0.1064
 5391W        W 8910   9.282   6.862  11.062 -0.1320  0.0489  0.0601
 5392W        W 8911   0.224   2.652   2.627  0.4830 -0.0225  0.2611
 5393W        W 8912   9.605   8.144  11.239 -0.0524  0.0018  0.0133
 5394W        W 8913   9.406   6.172   8.838 -0.3675 -0.1280  0.1874
 5395W        W 8914   2.608   2.582  11.473 -0.1017 -0.0515 -0.3774
 5396W        W 8915   1.417   3.214   1.759 -0.0010 -0.0145 -0.1107
 5397W        W 8916   2.299   9.335  11.754 -0.0926 -0.1793  0.0589
 5398W        W 8917   0.865   2.224   9.618  0.2357 -0.0819 -0.2358
 5399W        W 8918   5.575   6.757  10.181  0.1700  0.0021 -0.1008
 5400W        W 8919   0.392   0.145  11.056 -0.2032  0.0463 -0.1588
 5401W        W 8920   3.923   7.856   3.569  0.2940 -0.0739  0.0552
 5402W        W 8921   1.359   1.609  11.224 -0.0257 -0.0894  0.0935
 5403W        W 8922   4.010   1.429   1.368  0.0731 -0.0624 -0.2924
 5404W        W 8923   1.767   1.504   2.683 -0.3861 -0.0717 -0.4329
 5405W        W 8924   6.381   1.538   9.891  0.2165  0.1208 -0.3782
 5406W        W 8925   5.220   4.307  10.826 -0.1856 -0.0085  0.1665
 5407W        W 8926   5.347   1.339  10.101  0.2333  0.2723 -0.0491
 5408W        W 8927   3.313   5.023   9.697 -0.2895  0.1003  0.3468
 5409W        W 8928   9.397   2.769   9.183  0.3757  0.0170 -0.1136
 5410W        W 8929   4.519   2.801   3.780  0.1540  0.0619  0.0992
 5411W        W 8930   1.253   2.545   3.611  0.1143  0.0512  0.0211
 5412W        W 8931   8.679   4.636   1.392 -0.0533 -0.0086  0.3744
 5413W        W 8932   0.248   5.994   2.241 -0.0546  0.1271 -0.0674
 5414W        W 8933   6.476   3.976  10.979  0.0664 -0.4111 -0.0592
 5415W        W 8934   4.317   3.269   1.985  0.0883 -0.0094 -0.1767
 5416W        W 8935   7.209   6.213   3.192  0.1587  0.0255  0.0745
 5417W        W 8936   5.846   3.876   1.038  0.7569 -0.1771  0.0808
 5418W        W 8937   7.156   4.600   9.957 -0.1676  0.2536  0.0984
 5419W        W 8938   2.679   6.263   9.405  0.0046  0.2694  0.1105
 5420W        W 8939   9.570   5.016   2.294  0.2259 -0.0076  0.0493
 5421W        W 8940   0.112   1.132   1.381  0.1087 -0.0344  0.0898
 5422W        W 8941   3.594   8.866   7.858  0.1296  0.2385 -0.1702
 5423W        W 8942   7.950   0.070   0.216  0.1540  0.1533  0.3977
 5424W        W 8943   2.612   2.073  11.558 -0.0227 -0.2182  0.2220
 5425W        W 8944   3.178   8.233  11.751 -0.1114  0.0323 -0.3976
 5426W        W 8945   2.523   2.625   0.271  0.1516 -0.2830  0.2309
 5427W        W 8946   4.439   5.365   8.236  0.1991  0.0217 -0.2765
 5428W        W 8947   3.943   7.882   0.171  0.2911  0.0879  0.0926
 5429W        W 8948   2.381   5.930   0.390  0.4393  0.2413 -0.1643
 5430W        W 8949   8.458   4.572   8.134 -0.1028 -0.0403 -0.2450
 5431W        W 8950   8.512   1.181   1.089  0.2012  0.3334  0.2102
 5432W        W 8951   4.516   6.830   7.669  0.0673 -0.3179 -0.2116
 5433W        W 8952   5.547   3.553  10.937 -0.1093 -0.0661  0.1278
 5434W        W 8953   6.348   4.029   1.258  0.1432  0.1628 -0.0069
 5435W        W 8954   9.633   3.126   0.916 -0.2251  0.1263 -0.0201
 5436W        W 8955   5.231   3.634   7.838 -0.1177  0.0925 -0.1705
 5437W        W 8956   7.326   5.274   3.853 -0.0079 -0.3438 -0.2508
 5438W        W 8957   2.452   8.478   2.711  0.0494  0.1869 -0.0732
 5439W        W 8958   0.176   8.887   1.865  0.1398  0.2692  0.0757
 5440W        W 8959   6.882   6.991  11.625 -0.2342  0.0196  0.0767
 5441W        W 8960   2.140   0.961  10.171 -0.1379  0.2538 -0.1074
 5442W        W 8961   2.113   9.320   1.645  0.1114 -0.1853  0.0822
 5443W        W 8962   5.915   0.419   7.797  0.1644  0.1474  0.0311
 5444W        W 8963   9.789   9.654   1.953 -0.0313  0.1220  0.1679
 5445W        W 8964   1.830   8.800  10.235  0.0836  0.1660 -0.1150
 5446W        W 8965   3.198   0.828   1.619 -0.0403 -0.2219 -0.1285
 5447W        W 8966   8.686   0.287  11.099 -0.0247 -0.0068  0.1288
 5448W        W 8967   0.563   1.683   0.336  0.1203 -0.7068 -0.2624
 5449W        W 8968   4.554   1.674   3.117  0.3252 -0.0817 -0.0104
 5450W        W 8969   1.160   6.172   2.820 -0.4055  0.1426 -0.3554
 5451W        W 8970   2.608   9.726   2.542 -0.2002  0.0004  0.4007
 5452W        W 8971   9.205   5.317  10.982  0.1510  0.2824 -0.3047
 5453W        W 8972   3.144   8.368   0.239  0.3095  0.2806  0.2278
 5454W        W 8973   2.550   5.076   3.177  0.1992 -0.1013 -0.0300
 5455W        W 8974   0.713   3.229  11.641 -0.1838  0.0921 -0.0108
 5456W        W 8975   8.027   0.572   9.184  0.1102  0.1128  0.2176
 5457W        W 8976   7.986   1.265   1.026  0.0315 -0.1365  0.1292
 5458W        W 8977   9.353   5.709   2.380  0.1486 -0.1836 -0.0053
 5459W        W 8978   4.334   6.438  11.142 -0.1597  0.0563  0.0079
 5460W        W 8979   4.375   9.734   1.451 -0.0665  0.0373  0.2212
 5461W        W 8980   8.104   2.854  10.509 -0.0678 -0.2438  0.0573
 5462W        W 8981   0.900   5.175   8.375  0.4164  0.2073 -0.2736
 5463W        W 8982   2.001   7.065   7.949  0.0310  0.0456 -0.1553
 5464W        W 8983   5.735   7.601   8.728 -0.0571  0.2102  0.2304
 5465W        W 8984   7.607   5.446   9.600 -0.0428  0.0879  0.0652
 5466W        W 8985   1.210   4.271   2.802  0.0740  0.1016 -0.1388
 5467W        W 8986   3.689   2.179   3.298  0.1975 -0.0111  0.0853
 5468W        W 8987   4.605   4.767   8.570  0.1614  0.5444  0.3772
 5469W        W 8988   0.215   1.401   2.708 -0.1914 -0.0450 -0.1025
 5470W        W 8989   7.606   7.249   8.100  0.2061  0.2527 -0.1635
 5471W        W 8990   2.009   0.451   0.001 -0.1228 -0.2460 -0.1906
 5472W        W 8991   8.300   0.227  10.238  0.2818 -0.0103  0.0426
 5473W        W 8992   7.268   2.003   0.435  0.1028 -0.1784 -0.2190
 5474W        W 8993   6.166   4.051  11.362 -0.2003  0.1873  0.0014
 5475W        W 8994   8.755   3.782  10.788 -0.2489  0.0110 -0.0104
 5476W        W 8995   8.647   1.359   3.282 -0.1484 -0.1458 -0.0620
 5477W        W 8996   1.790   7.286   0.266 -0.1380  0.3061  0.1256
 5478W        W 8997   6.864   2.103   9.792  0.1955  0.0819  0.1478
 5479W        W 8998   2.903   0.325  11.165 -0.1461  0.1382  0.3300
 5480W        W 8999   0.097   7.713   2.829  0.0508 -0.1716  0.0127
 5481W        W 9000   9.490   5.745  10.989 -0.1277 -0.0768 -0.1642
 5482W        W 9001   9.157   0.824  11.227  0.0879  0.1150 -0.1165
 5483W        W 9002   2.570   9.393   0.393 -0.1576  0.0806 -0.0411
 5484W        W 9003   6.074   6.277   3.557  0.1298 -0.3314 -0.3434
 5485W        W 9004   8.363   6.370   0.359  0.1893  0.0669 -0.2065
 5486W        W 9005   4.376   9.712  11.830  0.0179 -0.1535  0.0538
 5487W        W 9006   7.906   0.729   3.174 -0.1743  0.1846 -0.0571
 5488W        W 9007   1.027   7.553  10.368  0.0424  0.0533 -0.1999
 5489W        W 9008   0.420   8.292   9.176 -0.0563 -0.0226 -0.1919
 5490W        W 9009   5.291   3.523  11.421  0.2033 -0.1542  0.1425
 5491W        W 9010   1.148   8.554   2.808  0.0400 -0.4375  0.1450
 5492W        W 9011   2.364   4.002  11.171 -0.3693 -0.0122 -0.0665
 5493W        W 9012   2.796   9.629   9.819  0.0554 -0.1134  0.0341
 5494W        W 9013   4.460   8.474   2.420  0.0159 -0.0306  0.0216
 5495W        W 9014   5.246   2.981   8.564 -0.0928 -0.1906  0.1974
 5496W        W 9015   5.522   4.572   2.798 -0.0965  0.1398 -0.4207
 5497W        W 9016   7.186   9.441   9.972  0.2222 -0.0693  0.0553
 5498W        W 9017   4.457   5.949   9.659  0.4489 -0.1528 -0.1813
 5499W        W 9018   0.745   7.319   3.184  0.0929 -0.0471  0.0044
 5500W        W 9019   0.824   4.590   2.460 -0.0953  0.3005 -0.1139
 5501W        W 9020   6.156   0.092  11.540  0.1330 -0.2171 -0.2596
 5502W        W 9021   2.136   3.708  11.523  0.0940  0.0995 -0.0067
 5503W        W 9022   3.552   9.492   9.189 -0.2011  0.1011 -0.0746
 5504W        W 9023   1.500   1.966  12.009 -0.2380  0.2251  0.4052
 5505W        W 9024   6.341   0.190   3.301 -0.0744 -0.1264 -0.0781
 5506W        W 9025   0.498   8.938   8.598  0.1462 -0.0173  0.0734
 5507W        W 9026   2.656   6.689  10.096 -0.0075  0.1421  0.0565
 5508W        W 9027   4.123   3.268   0.977 -0.0481 -0.0853 -0.0268
 5509W        W 9028   2.833   0.587   0.691  0.0685  0.0486  0.2585
 5510W        W 9029   0.839   8.830   3.166 -0.0527 -0.2143  0.0006
 5511W        W 9030   2.963   6.902   3.548  0.1722  0.1363  0.0073
 5512W        W 9031   3.872   3.301   4.102 -0.3728  0.2161  0.0238
 5513W        W 9032   0.744   4.177   3.078 -0.1407  0.0276  0.0398
 5514W        W 9033   9.201   7.497   1.473  0.0997  0.1353  0.1979
 5515W        W 9034   4.686   9.681  10.695  0.0026 -0.0482 -0.2630
 5516W        W 9035   3.800   2.835   3.249 -0.1110 -0.1489  0.1065
 5517W        W 9036   8.935   8.328   2.242  0.4124 -0.1474 -0.3668
 5518W        W 9037   7.256   2.993  10.783  0.0541  0.2003  0.1262
 5519W        W 9038   0.072   4.510   8.927  0.0242 -0.0873 -0.0172
 5520W        W 9039   8.472   1.380  11.243  0.1198  0.1469  0.1847
 5521W        W 9040   2.331   0.710   1.532 -0.2171 -0.2584 -0.5004
 5522W        W 9041   4.444   1.276   1.112  0.1981  0.2428  0.1333
 5523W        W 9042   6.415   7.823   3.051 -0.0703 -0.2474 -0.1296
 5524W        W 9043   3.159   6.486   8.601 -0.1382 -0.2504  0.3943
 5525W        W 9044   9.295   1.046   0.144 -0.3585  0.2042  0.0911
 5526W        W 9045   9.631   8.876   1.700  0.1060 -0.1638 -0.0190
 5527W        W 9046   7.196   2.852   2.801 -0.2473 -0.3618 -0.2766
 5528W        W 9047   6.682   2.546   2.685 -0.4136  0.0849  0.2655
 5529W        W 9048   4.188   6.806   0.458 -0.0312  0.0060  0.3889
 5530W        W 9049   6.952   3.814  11.154  0.1682  0.3070 -0.2616
 5531W        W 9050   9.235   7.666   0.651 -0.3583 -0.2182  0.4504
 5532W        W 9051   8.116   2.747   9.418  0.0035  0.1429 -0.2494
 5533W        W 9052   4.130   8.296   7.393 -0.0090  0.1099 -0.3009
 5534W        W 9053   3.671   4.443   9.313 -0.2657  0.0950  0.0674
 5535W        W 9054   4.829   1.445   1.911 -0.1933 -0.1701 -0.0368
 5536W        W 9055   7.398   0.760   3.368  0.0765  0.2516 -0.1964
 5537W        W 9056   4.178   8.680   1.946 -0.2380 -0.0007  0.3965
 5538W        W 9057   8.880   4.396   9.958  0.1814 -0.2155  0.2785
 5539W        W 9058   9.245   5.115  10.411  0.1597 -0.0567 -0.0761
 5540W        W 9059   5.717   5.891   9.473  0.1128 -0.2570  0.0697
 5541W        W 9060   4.725   0.251   1.353 -0.2846  0.1368 -0.2747
 5542W        W 9061   0.838   6.441  10.233 -0.0834 -0.0614 -0.2207
 5543W        W 9062   6.139   5.351   9.976 -0.1182  0.2995  0.0920
 5544W        W 9063   5.610   2.160   0.934 -0.0595  0.0125  0.0090
 5545W        W 9064   1.171   5.898   2.398 -0.0380 -0.0646  0.1153
 5546W        W 9065   4.525   7.639   9.729  0.3483 -0.3226  0.1712
 5547W        W 9066   7.231   9.774   1.010  0.2085  0.1095  0.2913
 5548W        W 9067   2.999   8.356  10.611  0.1493  0.3095 -0.2065
 5549W        W 9068   7.739   3.132  10.762  0.2729  0.0672 -0.0721
 5550W        W 9069   5.368   3.131  11.158 -0.1774 -0.0892 -0.3193
 5551W        W 9070   6.177   0.778   8.002 -0.0660  0.2038  0.1369
 5552W        W 9071   7.092   9.805   3.485 -0.2664  0.0291 -0.2035
 5553W        W 9072   4.371   4.424   2.240  0.3109 -0.3049 -0.1898
 5554W        W 9073   2.358   2.031   1.699  0.1430  0.1238 -0.1166
 5555W        W 9074   4.294   4.626   0.948 -0.3324  0.1959  0.0017
 5556W        W 9075   1.724   5.241   1.250 -0.1284  0.3637  0.3001
 5557W        W 9076   9.194   9.263   1.415 -0.1504  0.2525  0.0119
 5558W        W 9077   1.336   5.052   8.641 -0.3637  0.1262  0.1621
 5559W        W 9078   5.195   9.905   7.891  0.1727 -0.4424 -0.1411
 5560W        W 9079   2.284   3.770   2.369  0.1797 -0.0520  0.2082
 5561W        W 9080   2.257   8.622  10.265  0.1449 -0.3633  0.0291
 5562W        W 9081   7.025   4.288   2.453 -0.2550 -0.2182 -0.1391
 5563W        W 9082   7.741   6.403   1.792  0.1719  0.1959  0.5560
 5564W        W 9083   4.534   5.736   2.445 -0.1478 -0.1712 -0.0120
 5565W        W 9084   4.227   3.170   8.260 -0.3158  0.4534  0.1321
 5566W        W 9085   9.695   3.166   9.079 -0.0721  0.1855  0.1370
 5567W        W 9086   8.275   5.026   9.808  0.3299 -0.1325 -0.1293
 5568W        W 9087   8.909   0.095   3.604  0.0744  0.0079  0.3029
 5569W        W 9088   7.646   5.877  11.582  0.2074  0.0456  0.1858
 5570W        W 9089   6.207   6.163   9.412 -0.1689  0.0133 -0.2768
 5571W        W 9090   8.502   9.874   3.344 -0.1616  0.0362 -0.0368
 5572W        W 9091   3.855   9.335  10.962  0.1050  0.2348 -0.0383
 5573W        W 9092   5.505   4.375   0.165  0.1333  0.0331  0.0652
 5574W        W 9093   1.113   9.554  11.609  0.1343  0.0147  0.1690
 5575W        W 9094   8.595   1.026   1.548  0.0624 -0.0091 -0.1792
 5576W        W 9095   6.338   2.144   9.667 -0.0317  0.2731 -0.0020
 5577W        W 9096   8.672   3.261   3.295 -0.0497  0.3620 -0.0913
 5578W        W 9097   1.277   5.733   1.939  0.0769 -0.1633  0.1145
 5579W        W 9098   1.883   7.746  11.385 -0.1691  0.2152 -0.1222
 5580W        W 9099   8.073   9.856   3.591 -0.1068 -0.0637  0.0305
 5581W        W 9100   2.070   8.145  11.613  0.1353  0.0459 -0.0964
 5582W        W 9101   9.170   8.123   8.495 -0.0462 -0.4022  0.2557
 5583W        W 9102   6.438   4.053   4.079  0.0087 -0.2486  0.1554
 5584W        W 9103   3.105   2.662   1.542 -0.0759  0.3973  0.3925
 5585W        W 9104   3.131   6.465   1.530 -0.2035  0.2764 -0.2545
 5586W        W 9105   7.839   8.941   7.932  0.1924  0.1404 -0.1648
 5587W        W 9106   9.741   8.143   3.522  0.2389 -0.1631 -0.1361
 5588W        W 9107   0.531   2.754   2.188  0.1247 -0.2934  0.0938
 5589W        W 9108   0.937   8.583  11.844 -0.0540  0.1007  0.1617
 5590W        W 9109   2.038   1.779   4.605 -0.1317  0.0377 -0.1626
 5591W        W 9110   5.586   2.738  11.398 -0.0289 -0.1874 -0.1143
 5592W        W 9111   0.029   9.779   8.181 -0.2422  0.1664  0.0370
 5593W        W 9112   4.612   0.807   2.613  0.0245 -0.0419 -0.0383
 5594W        W 9113   5.179   9.276   9.923  0.3668  0.2644  0.0745
 5595W        W 9114   0.866   1.556  11.184 -0.1599  0.0484  0.0216
 5596W        W 9115   8.613   8.167   3.008  0.0614 -0.0153  0.0295
 5597W        W 9116   1.577   4.745   9.903 -0.2282  0.0804  0.0373
 5598W        W 9117   2.257   6.320  10.300 -0.0474  0.2620  0.0817
 5599W        W 9118   8.505   1.751   9.779 -0.1924 -0.0780 -0.0117
 5600W        W 9119   3.819   9.018   2.791 -0.1469 -0.0497 -0.1247
 5601W        W 9120   8.634   4.840  11.556  0.1575  0.0223  0.2280
 5602W        W 9121   4.128   1.109   8.474  0.1784 -0.1553  0.1284
 5603W        W 9122   3.393   2.491  10.319 -0.0254 -0.0922  0.0007
 5604W        W 9123   6.963   3.327   0.205  0.4591 -0.4835 -0.2440
 5605W        W 9124   6.769   3.730  10.124  0.2202 -0.0495  0.3392
 5606W        W 9125   9.640   3.152  11.647  0.1822  0.1645  0.0722
 5607W        W 9126   7.614   4.574  10.738  0.2899  0.2588 -0.1014
 5608W        W 9127   0.937   4.312   2.003  0.0926  0.1629  0.1007
 5609W        W 9128   2.911   3.321   3.238  0.1575  0.2228  0.0624
 5610W        W 9129   7.075   1.284  11.511 -0.1133 -0.2739  0.0406
 5611W        W 9130   6.560   6.726   2.137 -0.0904  0.1194 -0.0100
 5612W        W 9131   3.103   3.934  10.484 -0.2782  0.0229 -0.0684
 5613W        W 9132   7.194   1.992   2.227 -0.0336 -0.0588  0.0086
 5614W        W 9133   9.522   8.904   1.193 -0.0083  0.2871  0.2492
 5615W        W 9134   7.238   6.252  10.841 -0.1297  0.4022  0.1691
 5616W        W 9135   3.915   7.476   2.715  0.0082 -0.0937 -0.0239
 5617W        W 9136   0.998   8.085   8.460 -0.0040  0.1570  0.0688
 5618W        W 9137   8.660   4.817   3.763  0.0784  0.0288 -0.0478
 5619W        W 9138   8.937   9.809   0.716 -0.3444 -0.4579 -0.0729
 5620W        W 9139   1.971   7.016   0.645  0.2725  0.2350 -0.1267
 5621W        W 9140   5.377   5.647  11.318 -0.2089  0.2769  0.2483
 5622W        W 9141   6.079   1.284  10.809  0.0435 -0.2928  0.1979
 5623W        W 9142   8.506   7.603   2.411 -0.2210  0.2637 -0.0839
 5624W        W 9143   4.611   8.627  11.171 -0.1085  0.0014  0.0911
 5625W        W 9144   8.855   1.770   2.015  0.2148  0.0039 -0.0729
 5626W        W 9145   6.386   4.609   1.039  0.3608 -0.1981  0.0857
 5627W        W 9146   8.425   9.680   1.134  0.4038  0.0353 -0.1425
 5628W        W 9147   1.513   8.890  10.649 -0.0162  0.2516 -0.1091
 5629W        W 9148   6.646   0.883   0.818 -0.1906  0.0270  0.0725
 5630W        W 9149   2.118   2.325   2.669  0.2094 -0.1736  0.0876
 5631W        W 9150   7.478   9.897  10.758  0.1126  0.3080  0.0055
 5632W        W 9151   9.664   3.017   9.538  0.3368  0.3917 -0.0650
 5633W        W 9152   1.061   0.872   8.459 -0.2370 -0.1883  0.1636
 5634W        W 9153   2.504   8.885  11.212 -0.2798 -0.2030  0.0576
 5635W        W 9154   1.113   2.310   3.986  0.0579 -0.0293 -0.4841
 5636W        W 9155   9.612   7.952   3.959  0.1914 -0.0201  0.0120
 5637W        W 9156   8.661   1.399   8.251 -0.2322 -0.2306  0.3333
 5638W        W 9157   8.460   7.131   2.274 -0.3846  0.1778 -0.1447
 5639W        W 9158   3.983   9.485   9.528 -0.3073 -0.0105  0.3422
 5640W        W 9159   0.307   1.907  10.452 -0.1701 -0.0791  0.0191
 5641W        W 9160   4.416   8.184   2.910  0.0642 -0.2563 -0.1838
 5642W        W 9161   0.826   5.985  11.793 -0.1222 -0.2922 -0.2192
 5643W        W 9162   0.498   1.431   1.627 -0.0994 -0.0780  0.1507
 5644W        W 9163   4.482   2.910   1.673  0.0976  0.0322 -0.2951
 5645W        W 9164   9.600   8.903   0.077 -0.0082  0.2229 -0.2393
 5646W        W 9165   8.596   1.111   8.652 -0.1737  0.1757 -0.0305
 5647W        W 9166   8.138   6.320   3.022  0.0825 -0.2162  0.3222
 5648W        W 9167   1.228   1.943  10.757  0.1736  0.3065  0.0618
 5649W        W 9168   4.008   0.903   8.939  0.2270  0.2505 -0.0635
 5650W        W 9169   9.099   6.289   2.282 -0.0900 -0.0628  0.1782
 5651W        W 9170   3.192   7.260   8.602  0.4238 -0.1185  0.2651
 5652W        W 9171   1.757   7.210   4.066  0.0761  0.0445  0.1431
 5653W        W 9172   3.634   1.698   0.665 -0.0437  0.0853 -0.2188
 5654W        W 9173   6.845   2.966  11.297  0.0649  0.2191 -0.2102
 5655W        W 9174   7.668   3.294   9.034  0.3464 -0.2138  0.1477
 5656W        W 9175   3.633   9.520  10.201  0.0463  0.0079 -0.2044
 5657W        W 9176   0.467   8.822   2.850  0.2582 -0.0936  0.2635
 5658W        W 9177   4.492   8.268   0.329 -0.0524  0.0248  0.1922
 5659W        W 9178   6.121   9.571   2.857  0.2446 -0.1718 -0.0250
 5660W        W 9179   5.633   8.463   1.491 -0.3182 -0.1230 -0.5186
 5661W        W 9180   0.948   8.447   1.974 -0.2465 -0.0460  0.1790
 5662W        W 9181   9.743   5.317   3.135  0.2100 -0.2125  0.1115
 5663W        W 9182   8.821   8.510   1.375  0.1644 -0.2225 -0.2128
 5664W        W 9183   3.899   4.642  11.818 -0.1589 -0.0749  0.0325
 5665W        W 9184   8.668   4.659   3.276 -0.1399 -0.2404  0.1327
 5666W        W 9185   0.683   6.302   3.022 -0.1216 -0.1190  0.0424
 5667W        W 9186   4.660   6.542   1.385 -0.1738 -0.1767  0.3360
 5668W        W 9187   2.473   9.728  10.915 -0.1347  0.1453 -0.1055
 5669W        W 9188   6.412   3.619  10.644  0.0516 -0.1397 -0.1778
 5670W        W 9189   1.980   4.046   2.708  0.0403 -0.0399 -0.0302
 5671W        W 9190   4.902   6.922   8.727 -0.1107  0.0733  0.0312
 5672W        W 9191   3.273   6.962  10.639 -0.0532  0.0570 -0.2389
 5673W        W 9192   2.227   9.214  10.339  0.1060 -0.3114  0.0973
 5674W        W 9193   4.732   1.003  11.160  0.1925 -0.0927  0.1779
 5675W        W 9194   4.587   0.960   9.693 -0.0291  0.2681 -0.1797
 5676W        W 9195   6.427   8.149   8.900 -0.2328  0.0294 -0.2030
 5677W        W 9196   4.058   7.888   2.991  0.0815  0.4168 -0.1787
 5678W        W 9197   1.840   7.871   3.190 -0.3022  0.0514  0.5974
 5679W        W 9198   0.787   2.258   4.391 -0.2882  0.1799 -0.5137
 5680W        W 9199   2.082   0.752   0.526 -0.1855  0.0205  0.0302
 5681W        W 9200   1.273   9.214   8.420 -0.0668  0.3679  0.0358
 5682W        W 9201   9.888   4.428  10.668 -0.0960 -0.2794  0.4830
 5683W        W 9202   3.900   5.037   9.136 -0.0791 -0.1487 -0.0811
 5684W        W 9203   5.372   9.753   8.776  0.2097  0.2243  0.0010
 5685W        W 9204   4.277   5.793  11.776  0.0442  0.0887  0.2070
 5686W        W 9205   1.362   1.469   9.822 -0.2142 -0.3779 -0.3375
 5687W        W 9206   9.257   9.716   8.299 -0.1947  0.0026  0.1076
 5688W        W 9207   8.763   4.691   9.046  0.3984 -0.0734 -0.2796
 5689W        W 9208   1.864   7.727  11.947 -0.3216  0.1038  0.4270
 5690W        W 9209   2.576   7.829   8.150 -0.0957 -0.1443  0.1770
 5691W        W 9210   5.960   7.690   9.693  0.1396  0.2450  0.0261
 5692W        W 9211   2.152   2.529   4.017 -0.0968  0.0330  0.0910
 5693W        W 9212   3.122   4.794  10.939 -0.2061 -0.1769 -0.0050
 5694W        W 9213   8.245   3.366  11.606  0.2577 -0.3568 -0.3104
 5695W        W 9214   6.843   8.517  10.584  0.2375 -0.1211 -0.0242
 5696W        W 9215   1.754   3.686   9.168  0.0795  0.2060 -0.0352
 5697W        W 9216   6.424   5.241   9.548  0.2059  0.1118 -0.1550
 5698W        W 9217   9.473   9.382   1.039  0.0182  0.3967 -0.2140
 5699W        W 9218   3.854   0.922   0.483 -0.0314  0.1434 -0.0854
 5700W        W 9219   4.458   0.236   8.988 -0.1457 -0.0101  0.1490
 5701W        W 9220   5.360   8.638   3.703 -0.0807 -0.0935  0.0410
 5702W        W 9221   4.081   2.697   0.145  0.3466  0.0520 -0.3556
 5703W        W 9222   0.614   7.568   3.685  0.1569 -0.3114 -0.0569
 5704W        W 9223   9.706   0.220   9.155  0.2703  0.0328  0.1341
 5705W        W 9224   5.994   4.247   0.230 -0.3338 -0.0576 -0.1727
 5706W        W 9225   6.163   8.697   2.404 -0.0359 -0.3370 -0.1069
 5707W        W 9226   2.558   2.092   2.747 -0.2967 -0.0913  0.2684
 5708W        W 9227   5.577   8.958   2.487 -0.0499  0.2860 -0.1214
 5709W        W 9228   2.276   2.013   9.241  0.1345  0.0961 -0.0932
 5710W        W 9229   5.428   6.551   7.187  0.0448 -0.4340 -0.1857
 5711W        W 9230   7.090   2.558   8.664  0.1410 -0.1249 -0.1904
 5712W        W 9231   9.852   9.283   0.339 -0.0864 -0.1447  0.0509
 5713W        W 9232   8.477   0.312   1.966  0.2087 -0.0674  0.0185
 5714W        W 9233   9.400   6.771   8.654  0.1341  0.0629  0.1618
 5715W        W 9234   2.460   2.957   4.127  0.0486  0.1429  0.0491
 5716W        W 9235   1.309   5.178   9.154 -0.1606  0.1449 -0.2244
 5717W        W 9236   4.531   0.378   2.240  0.0474 -0.4314  0.0074
 5718W        W 9237   8.227   0.632   4.343 -0.0017 -0.2365 -0.0924
 5719W        W 9238   3.453   6.303  10.989  0.1532 -0.0907 -0.1107
 5720W        W 9239   3.544   7.296  10.941  0.1768  0.4448 -0.0583
 5721W        W 9240   1.404   1.577   0.376 -0.1817  0.2261  0.0353
 5722W        W 9241   4.036   2.065   0.677 -0.1961  0.4580  0.2899
 5723W        W 9242   1.980   8.073   8.362 -0.2810 -0.0736  0.2916
 5724W        W 9243   9.756   4.087   1.345  0.1064 -0.1489 -0.1059
 5725W        W 9244   6.457   6.962   9.948 -0.1795 -0.2000  0.2402
 5726W        W 9245   1.589   9.736  11.492  0.2428 -0.2356  0.0893
 5727W        W 9246   6.415   6.693   8.056 -0.0283  0.0600 -0.1482
 5728W        W 9247   7.246   7.719  10.972  0.1069 -0.0741 -0.2478
 5729W        W 9248   6.111   2.226   0.913 -0.4270 -0.1109 -0.0436
 5730W        W 9249   7.185   9.439   0.442  0.0633  0.2638 -0.0628
 5731W        W 9250   3.292   9.155   3.010  0.1084 -0.0341 -0.2251
 5732W        W 9251   3.628   9.674   2.131  0.1339  0.1159  0.2149
 5733W        W 9252   3.220   8.523   9.868  0.2615 -0.2131  0.2028
 5734W        W 9253   7.119   5.884   0.391 -0.3890 -0.0852 -0.0027
 5735W        W 9254   8.410   7.628   0.151  0.4453  0.1281 -0.0403
 5736W        W 9255   8.070   8.987   0.388  0.0449  0.1165  0.0415
 5737W        W 9256   8.814   7.805   2.787 -0.0500 -0.0168  0.3795
 5738W        W 9257   3.797   8.666  10.111  0.1494  0.2297 -0.0135
 5739W        W 9258   3.798   6.921  11.661  0.2414  0.0400 -0.1730
 5740W        W 9259   1.558   4.736   1.444 -0.3567  0.0273  0.1502
 5741W        W 9260   5.058   2.446   8.231  0.0422  0.0462  0.0643
 5742W        W 9261   8.481   5.645   0.340  0.2459 -0.0787  0.1678
 5743W        W 9262   7.601   8.165  10.166 -0.4043 -0.2390 -0.1922
 5744W        W 9263   2.700   0.465  10.706  0.0135  0.3317  0.1315
 5745W        W 9264   6.726   1.462  10.292 -0.1657 -0.1384 -0.2953
 5746W        W 9265   9.040   7.987   3.187  0.2077 -0.0355  0.1801
 5747W        W 9266   8.055   8.858   1.748  0.0808 -0.1663  0.0963
 5748W        W 9267   4.314   5.996  10.723 -0.1715  0.1119  0.0403
 5749W        W 9268   8.436   6.658   2.061 -0.3043  0.1748 -0.0241
 5750W        W 9269   9.469   1.131  11.390  0.1416  0.0613 -0.0867
 5751W        W 9270   2.751   1.762   0.363  0.1338 -0.2272 -0.2930
 5752W        W 9271   0.900   3.501   4.608 -0.2564  0.0591 -0.3453
 5753W        W 9272   2.327   6.404   1.950 -0.2053  0.2851 -0.0668
 5754W        W 9273   3.165   1.713  10.700  0.0531 -0.0469  0.3167
 5755W        W 9274   0.924   4.132  11.346 -0.0529 -0.1905 -0.0934
 5756W        W 9275   6.227   2.100   8.248  0.3123 -0.0826  0.0001
 5757W        W 9276   7.953   5.523   2.236  0.0227 -0.0243  0.3159
 5758W        W 9277   3.411   2.740  11.862 -0.3877 -0.1120  0.2351
 5759W        W 9278   3.010   9.251   0.121 -0.1742  0.0449  0.1452
 5760W        W 9279   3.891   7.882   6.952  0.1014 -0.4464  0.0800
 5761W        W 9280   8.285   6.947   7.140 -0.0156  0.2333 -0.2775
 5762W        W 9281   8.424   5.821  11.729  0.2827 -0.3890  0.1917
 5763W        W 9282   3.936   9.255   8.440  0.2485 -0.1747 -0.3312
 5764W        W 9283   5.283   8.098  11.834  0.0436 -0.2411 -0.1739
 5765W        W 9284   5.470   0.103   8.354  0.1950 -0.0429 -0.0716
 5766W        W 9285   6.284   2.735  10.900  0.3841  0.0526 -0.0020
 5767W        W 9286   3.236   2.116   8.615  0.3670  0.0605 -0.3023
 5768W        W 9287   5.062   0.776   2.854 -0.2419 -0.0986 -0.3257
 5769W        W 9288   0.273   1.938   0.744  0.0896  0.1972 -0.1670
 5770W        W 9289   7.969   3.529   1.876  0.0377  0.1258  0.0728
 5771W        W 9290   2.263   6.869   0.190  0.0285 -0.2467 -0.3032
 5772W        W 9291   1.132   0.586   1.395  0.0688 -0.0465 -0.1423
 5773W        W 9292   7.483   8.439   2.941  0.4672 -0.3329 -0.0571
 5774W        W 9293   7.558   2.106   2.536 -0.0814 -0.2590 -0.2578
 5775W        W 9294   0.001   2.927  11.236  0.0534 -0.2090 -0.1929
 5776W        W 9295   7.855   5.907   9.456 -0.0995  0.0379 -0.0594
 5777W        W 9296   7.789   1.093   8.226  0.0640  0.1236  0.3378
 5778W        W 9297   7.266   9.325   3.594 -0.0959 -0.0467  0.2972
 5779W        W 9298   9.321   0.550   1.021  0.0904  0.1140 -0.1993
 5780W        W 9299   7.449   5.445   8.262  0.2342  0.0465  0.1775
 5781W        W 9300   7.798   1.132  10.931  0.1052 -0.2295 -0.1240
 5782W        W 9301   4.612   8.174   9.460 -0.0758 -0.2624 -0.1370
 5783W        W 9302   1.764   4.876   8.461 -0.0517  0.0990 -0.0074
 5784W        W 9303   5.620   6.372   1.944  0.1038 -0.1528 -0.1402
 5785W        W 9304   1.597   6.170   2.556  0.1146  0.1750  0.1109
 5786W        W 9305   7.520   9.797   9.922  0.0444  0.0318 -0.0834
 5787W        W 9306   0.076   2.443   1.297  0.4680  0.2136 -0.4718
 5788W        W 9307   2.598   8.345   1.271  0.1712  0.0212 -0.1857
 5789W        W 9308   7.899   1.553   3.657  0.1352  0.0356 -0.2733
 5790W        W 9309   4.651   2.551   1.317 -0.0881  0.2063  0.1799
 5791W        W 9310   7.147   0.398   0.947  0.0627 -0.0666  0.0344
 5792W        W 9311   3.961   6.480   7.740 -0.0993 -0.1065 -0.0263
 5793W        W 9312   2.977   2.225   3.499  0.0447  0.0810 -0.1318
 5794W        W 9313   5.624   6.066  11.317  0.0655 -0.0340 -0.1052
 5795W        W 9314   9.390   9.906   2.018  0.3821 -0.0628 -0.0449
 5796W        W 9315   5.098   3.241   2.526 -0.3339  0.3346  0.0118
 5797W        W 9316   0.160   3.571   8.896 -0.0510  0.3229 -0.1455
 5798W        W 9317   7.935   2.997   0.888  0.0905  0.2050  0.0898
 5799W        W 9318   6.439   9.162   0.619 -0.0223  0.1880 -0.0528
 5800W        W 9319   6.555   3.494   2.104 -0.1179 -0.1265  0.4905
 5801W        W 9320   8.881   8.554   8.907 -0.0480 -0.1082  0.2794
 5802W        W 9321   9.563   8.465   3.175  0.0300 -0.1019  0.2077
 5803W        W 9322   5.894   2.957   2.214  0.0716  0.0847  0.0262
 5804W        W 9323   0.853   0.483   0.976 -0.3859  0.0159  0.1140
 5805W        W 9324   8.334   8.555   2.638  0.1141  0.0049  0.0642
 5806W        W 9325   4.400   6.697   8.656  0.0545  0.0955  0.0632
 5807W        W 9326   7.910   7.702  11.590 -0.1773  0.0980  0.1459
 5808W        W 9327   4.025   0.901  10.016  0.0692  0.0143 -0.1670
 5809W        W 9328   3.010   7.875   0.586  0.1982 -0.0092  0.0466
 5810W        W 9329   8.626   8.919   0.394  0.2285 -0.0526 -0.0634
 5811W        W 9330   7.989   2.078  11.135 -0.0021  0.1272  0.0256
 5812W        W 9331   9.011   2.930  10.972  0.2244  0.0105  0.3681
 5813W        W 9332   2.937   4.296   1.884  0.1853 -0.2205  0.2767
 5814W        W 9333   3.832   4.573   1.873 -0.0880  0.2898  0.1789
 5815W        W 9334   3.051   6.520   2.314  0.0435 -0.2110 -0.1114
 5816W        W 9335   2.829   7.859  10.506 -0.1585 -0.1916 -0.0758
 5817W        W 9336   7.769   7.549   1.702 -0.2108 -0.0168  0.1106
 5818W        W 9337   3.804   2.126   9.577 -0.3749 -0.1510 -0.3069
 5819W        W 9338   4.912   6.898   3.285 -0.0174  0.0544  0.2426
 5820W        W 9339   3.246   7.876  10.792 -0.3643  0.2907 -0.2985
 5821W        W 9340   8.459   9.897   9.801  0.1241 -0.0998 -0.0012
 5822W        W 9341   0.553   6.083   9.308 -0.1270  0.2970  0.0545
 5823W        W 9342   6.903   1.655   8.898 -0.1826  0.1371 -0.1284
 5824W        W 9343   6.612   7.021   3.303 -0.3178 -0.0754  0.0781
 5825W        W 9344   1.204   6.222   3.362  0.0975 -0.0054 -0.1584
 5826W        W 9345   1.825   2.888   1.858 -0.1271 -0.1763 -0.0262
 5827W        W 9346   8.231   1.442  10.319 -0.1150  0.1503  0.3052
 5828W        W 9347   7.677   5.626   0.879 -0.2564  0.0225  0.4187
 5829W        W 9348   9.064   5.312   2.442 -0.2725  0.0147  0.3927
 5830W        W 9349   8.330   1.133   0.124 -0.0449  0.2090 -0.2321
 5831W        W 9350   0.682   4.644   9.159 -0.0103  0.0434  0.0891
 5832W        W 9351   6.504   0.086   9.065 -0.0151  0.3349 -0.3241
 5833W        W 9352   5.796   0.751   2.269 -0.2948  0.0885 -0.0806
 5834W        W 9353   0.286   6.962  11.968 -0.1650  0.1434 -0.1611
 5835W        W 9354   5.662   3.613   9.615 -0.1722 -0.0456 -0.0614
 5836W        W 9355   4.692   4.406   9.473 -0.0630 -0.3322  0.4952
 5837W        W 9356   5.771   6.352   8.677  0.1643 -0.0239 -0.2605
 5838W        W 9357   6.826   0.400   1.790 -0.0394 -0.2653  0.1086
 5839W        W 9358   0.260   2.056  11.442 -0.0882 -0.1831 -0.0328
 5840W        W 9359   8.618   4.262  10.478  0.2429 -0.0803 -0.2720
 5841W        W 9360   2.332   4.390   2.593 -0.4038 -0.0346  0.0303
 5842W        W 9361   1.444   6.706   1.930 -0.2247 -0.0751 -0.3231
 5843W        W 9362   5.053   2.126   8.688 -0.1240 -0.0840 -0.0774
 5844W        W 9363   0.789   9.361   8.772 -0.1095 -0.2314  0.0905
 5845W        W 9364   8.929   2.519  11.840 -0.2523 -0.2709 -0.4632
 5846W        W 9365   2.507   3.508  11.253 -0.0391 -0.2510 -0.1602
 5847W        W 9366   4.000   2.236   8.015 -0.0165  0.0221  0.0636
 5848W        W 9367   5.011   2.104   0.643  0.1575  0.1341 -0.0274
 5849W        W 9368   1.639   7.548   2.756 -0.2957  0.2180 -0.2063
 5850W        W 9369   6.137   4.886  11.702 -0.3465  0.0007 -0.1168
 5851W        W 9370   6.723   5.332  10.899  0.2908  0.2501  0.1681
 5852W        W 9371   8.534   6.864   0.441 -0.0316  0.0104  0.1160
 5853W        W 9372   3.281   0.834   0.237  0.2765 -0.0709  0.0555
 5854W        W 9373   8.447   4.165   3.169  0.1596  0.1118 -0.2016
 5855W        W 9374   9.895   3.277   8.454 -0.0344 -0.2019  0.0921
 5856W        W 9375   4.826   1.056  10.573  0.0311 -0.4356 -0.0141
 5857W        W 9376   5.195   9.449   0.032 -0.1623  0.1650  0.1217
 5858W        W 9377   1.142   1.163   9.028  0.0014 -0.0816 -0.2091
 5859W        W 9378   0.392   9.739   8.553  0.1932 -0.0775 -0.0341
 5860W        W 9379   1.876   4.472   0.609  0.0463  0.2054 -0.0829
 5861W        W 9380   1.828   9.531   0.622  0.0411  0.0429 -0.1050
 5862W        W 9381   5.234   5.742  10.191  0.0256 -0.3327 -0.0337
 5863W        W 9382   5.102   8.991   0.318  0.0135 -0.1824 -0.1638
 5864W        W 9383   9.868   0.554   0.821 -0.2380  0.1040  0.1585
 5865W        W 9384   0.394   0.283   8.960  0.3525  0.1739 -0.2738
 5866W        W 9385   0.623   7.338   1.177  0.0258  0.2472 -0.2170
 5867W        W 9386   4.561   3.571  10.584 -0.3078 -0.0305  0.4519
 5868W        W 9387   3.600   3.304   2.229 -0.2074 -0.0918 -0.1193
 5869W        W 9388   4.111   0.131   0.620 -0.1898 -0.0921  0.0900
 5870W        W 9389   9.168   7.703   9.026 -0.3300  0.4851  0.0243
 5871W        W 9390   3.700   5.379   1.859 -0.0898  0.0399  0.0557
 5872W        W 9391   5.407   2.616   9.555  0.1160  0.0518  0.3591
 5873W        W 9392   8.848   6.932   8.634  0.2478 -0.1889  0.0610
 5874W        W 9393   6.239   1.627  10.371  0.2767 -0.2332 -0.1444
 5875W        W 9394   8.246   6.812   0.022 -0.1971 -0.1784 -0.2081
 5876W        W 9395   1.262   0.662  11.133 -0.0554  0.0029 -0.4351
 5877W        W 9396   9.204   7.257   3.457  0.1586 -0.2302 -0.0293
 5878W        W 9397   1.511   0.326   3.716  0.0184 -0.0582  0.3435
 5879W        W 9398   6.934   6.433   8.983 -0.0135  0.0412 -0.1002
 5880W        W 9399   8.899   9.549   1.145  0.1684  0.1983 -0.0260
 5881W        W 9400   1.181   0.999   3.159  0.0826  0.0671 -0.1628
 5882W        W 9401   2.309   6.993   8.387 -0.1422  0.0409  0.0313
 5883W        W 9402   5.261   0.129   9.278 -0.3810 -0.3454  0.2517
 5884W        W 9403   8.121   4.407  10.641  0.1212 -0.3207 -0.0996
 5885W        W 9404   3.108   0.965   9.753 -0.0160  0.0377 -0.0576
 5886W        W 9405   8.010   5.033   8.393  0.1179  0.1259  0.4320
 5887W        W 9406   0.349   4.100   9.791 -0.1708  0.0022  0.1807
 5888W        W 9407   2.826   7.071   0.952  0.0272  0.2775  0.0347
 5889W        W 9408   3.303   7.990  10.328 -0.1429  0.1595  0.2582
 5890W        W 9409   9.651   4.530   1.495  0.1027 -0.1417  0.2054
 5891W        W 9410   3.195   4.989  11.942  0.0849 -0.2723  0.1473
 5892W        W 9411   5.967   3.277   0.306 -0.1816 -0.0216  0.3278
 5893W        W 9412   8.160   3.194   9.761 -0.1132  0.1196 -0.0153
 5894W        W 9413   8.692   6.512   9.669 -0.0798 -0.0979  0.2007
 5895W        W 9414   0.788   1.554   8.913 -0.2653  0.1300  0.1628
 5896W        W 9415   7.222   6.967   0.210  0.0218 -0.0407  0.0629
 5897W        W 9416   4.903   7.005   1.499 -0.0382 -0.0254  0.0635
 5898W        W 9417   0.955   9.323   2.004 -0.0978 -0.2108  0.0408
 5899W        W 9418   1.960   7.993   1.774  0.2269  0.2099  0.1145
 5900W        W 9419   5.561   4.146  11.208  0.1640  0.2016 -0.0128
 5901W        W 9420   3.775   8.226   2.122  0.1822  0.0633  0.0155
 5902W        W 9421   1.532   0.933   0.801  0.1168  0.2224  0.0577
 5903W        W 9422   8.119   1.784   3.165  0.1141 -0.0735  0.2739
 5904W        W 9423   4.641   8.023  10.182 -0.0755 -0.0732 -0.3565
 5905W        W 9424   3.329   6.261   2.688  0.2816 -0.2093 -0.0269
 5906W        W 9425   6.373   9.169   8.123 -0.1410  0.2318 -0.0152
 5907W        W 9426   7.060   3.251   1.998  0.0654  0.4229 -0.0267
 5908W        W 9427   1.988   6.618   8.303 -0.1760 -0.4360 -0.4270
 5909W        W 9428   3.777   7.026   8.202  0.0280 -0.0585 -0.1289
 5910W        W 9429   3.454   3.558   3.485  0.1293 -0.0267  0.1177
 5911W        W 9430   5.102   0.297  11.862 -0.0617 -0.0215 -0.0366
 5912W        W 9431   5.258   1.835   8.362 -0.2221  0.0393  0.2595
 5913W        W 9432   7.373   1.877   9.867  0.0614 -0.2276  0.2539
 5914W        W 9433   6.904   1.021  11.061 -0.0465 -0.0748  0.3304
 5915W        W 9434   5.532   1.954   3.471 -0.1177  0.2262 -0.2327
 5916W        W 9435   1.152   7.210  11.352 -0.0077  0.0322 -0.0227
 5917W        W 9436   4.074   2.454   3.122 -0.1924  0.2360 -0.3190
 5918W        W 9437   1.216   5.807   1.057  0.2142 -0.0551 -0.3431
 5919W        W 9438   0.929   4.273   8.972  0.0033  0.0316  0.1056
 5920W        W 9439   3.470   0.085  10.025  0.0434 -0.1328 -0.1414
 5921W        W 9440   0.081   7.605   9.914 -0.0474 -0.0106  0.2837
 5922W        W 9441   1.674   4.947   3.021  0.0021 -0.1245  0.0824
 5923W        W 9442   7.565   2.061  10.333  0.1027  0.1014 -0.1895
 5924W        W 9443   1.993   9.901   8.499 -0.0141  0.1554 -0.1107
 5925W        W 9444   6.669   7.905   1.260 -0.1724 -0.1247 -0.3371
 5926W        W 9445   6.623   6.909   9.433 -0.1106  0.0260 -0.0743
 5927W        W 9446   1.826   5.739   0.399  0.0067  0.0809 -0.1750
 5928W        W 9447   2.301   5.136   2.386  0.1169  0.0568 -0.2344
 5929W        W 9448   6.668   8.035   2.676 -0.0595  0.0502 -0.0593
 5930W        W 9449   8.738   6.070   8.932  0.0720  0.0585  0.0308
 5931W        W 9450   5.673   9.699   9.387 -0.0176  0.0631  0.4295
 5932W        W 9451   6.372   8.054  10.688  0.1643 -0.2659  0.0538
 5933W        W 9452   4.634   7.365  11.850  0.0466  0.1696 -0.1678
 5934W        W 9453   4.562   8.534   7.477  0.0532  0.0852  0.1849
 5935W        W 9454   4.035   3.678   0.039 -0.1185 -0.1103 -0.0534
 5936W        W 9455   1.773   7.214   1.164 -0.3030  0.2151 -0.1154
 5937W        W 9456   4.542   9.718   0.554 -0.0121  0.0597 -0.2908
 5938W        W 9457   3.144   1.767   8.968  0.1496 -0.1614  0.1144
 5939W        W 9458   8.396   7.457   3.893 -0.1315 -0.1407  0.3998
 5940W        W 9459   4.441   5.182   0.199 -0.1843 -0.2482 -0.0704
 5941W        W 9460   6.340   0.976  11.643  0.0664 -0.1518 -0.3564
 5942W        W 9461   9.009   9.592   3.252  0.0677 -0.1205  0.1794
 5943W        W 9462   1.413   4.088   4.039 -0.2684  0.0072 -0.3552
 5944W        W 9463   9.740   4.052  11.058 -0.1408 -0.3966  0.1276
 5945W        W 9464   8.643   7.771   9.131 -0.1816 -0.2660  0.0071
 5946W        W 9465   7.015   7.957  11.886  0.1085 -0.1638 -0.2674
 5947W        W 9466   5.027   9.554   1.824 -0.3297 -0.0331 -0.0590
 5948W        W 9467   6.298   4.768   3.299  0.4107  0.2318  0.3164
 5949W        W 9468   2.291   8.849   2.996 -0.3528  0.4151  0.5665
 5950W        W 9469   4.447   6.981  10.867 -0.4954 -0.0940 -0.0398
 5951W        W 9470   9.358   8.546  10.757  0.0892  0.0292  0.0351
 5952W        W 9471   9.713   7.047   9.596 -0.2780  0.0831  0.1638
 5953W        W 9472   3.352   9.021   0.367 -0.0082  0.0056 -0.1740
 5954W        W 9473   2.649   3.416   2.246  0.2203 -0.1126  0.0733
 5955W        W 9474   4.106   0.516   8.000 -0.0674 -0.4280  0.1638
 5956W        W 9475   5.461   0.850   9.406 -0.2170  0.0488 -0.1250
 5957W        W 9476   0.229   2.751   3.812  0.1062  0.1172  0.1904
 5958W        W 9477   0.841   4.130   9.989 -0.1946  0.0894  0.0555
 5959W        W 9478   7.187   3.067  11.778 -0.1751 -0.3801 -0.1644
 5960W        W 9479   5.263   8.985  11.760 -0.2439 -0.0542  0.0224
 5961W        W 9480   8.280   6.055   1.208 -0.0436  0.0207  0.2655
 5962W        W 9481   9.378   4.162   3.475  0.4596 -0.0336  0.0706
 5963W        W 9482   9.755   6.839   2.814 -0.0689  0.0784 -0.0666
 5964W        W 9483   0.462   6.688   0.396 -0.0692  0.1230  0.0587
 5965W        W 9484   3.982   1.301   0.815  0.1104 -0.1810  0.0124
 5966W        W 9485   8.599   4.172   1.483  0.0723 -0.0695  0.2291
 5967W        W 9486   5.794   8.151   1.951  0.0693 -0.2260  0.1350
 5968W        W 9487   8.015   7.369  11.249  0.0171 -0.2998  0.2423
 5969W        W 9488   2.119   1.192   2.228  0.3751 -0.0020  0.2211
 5970W        W 9489   1.383   7.807   2.049 -0.1984 -0.2038 -0.0191
 5971W        W 9490   0.585   0.102   3.273  0.2262 -0.5228  0.0423
 5972W        W 9491   2.813   8.504  11.460 -0.3123 -0.1965  0.0827
 5973W        W 9492   3.315   2.667   0.672 -0.0902  0.0956 -0.0684
 5974W        W 9493   2.174   6.370   1.181  0.2482 -0.1658 -0.4597
 5975W        W 9494   7.875   6.525   1.271 -0.1818 -0.1459  0.0907
 5976W        W 9495   5.817   2.437   0.585  0.2484  0.2997  0.2113
 5977W        W 9496   9.441   5.694   8.479 -0.2047  0.1778  0.0198
 5978W        W 9497   6.066   3.184   8.912 -0.0465  0.1159 -0.0116
 5979W        W 9498   2.632   6.674   9.165  0.1192 -0.1158  0.1501
 5980W        W 9499   1.788   5.326  10.175 -0.1857 -0.1459 -0.2876
 5981W        W 9500   2.246   2.501   9.295 -0.2369 -0.2616 -0.2216
 5982W        W 9501   9.612   0.585   9.540 -0.1286 -0.0021  0.2010
 5983W        W 9502   5.367   7.032   2.641 -0.3059 -0.0579 -0.2393
 5984W        W 9503   3.213   7.853   2.895  0.1708  0.1261  0.1680
 5985W        W 9504   0.431   3.346  11.186 -0.3273  0.0468 -0.1313
 5986W        W 9505   2.417   8.263  11.293 -0.2108  0.0244  0.1167
 5987W        W 9506   6.140   8.971   2.869  0.3232 -0.1305  0.4644
 5988W        W 9507   4.325   2.298   9.370 -0.0382 -0.1212 -0.0925
 5989W        W 9508   3.192   6.005  10.110  0.0174 -0.0517 -0.2204
 5990W        W 9509   3.846   4.121  11.861  0.0399  0.1765 -0.1381
 5991W        W 9510   2.478   1.688   8.878  0.0827 -0.1949 -0.1579
 5992W        W 9511   1.262   0.713   3.589 -0.1463  0.2655  0.1759
 5993W        W 9512   6.023   8.221  10.349  0.3345 -0.2981 -0.1187
 5994W        W 9513   2.820   0.583   0.113 -0.1379  0.1677  0.0561
 5995W        W 9514   4.677   3.347   9.188 -0.1095 -0.3528  0.4754
 5996W        W 9515   2.369   1.100   9.708  0.1256 -0.1060  0.0837
 5997W        W 9516   2.572   9.389  11.333  0.1643  0.0666  0.2170
 5998W        W 9517   7.431   7.188   9.656 -0.3575  0.2269 -0.2237
 5999W        W 9518   6.182   2.456   9.997  0.0123  0.2575 -0.0099
 6000W        W 9519   5.671   2.200  11.056  0.0023 -0.2280 -0.0177
 6001W        W 9520   5.205   0.679  11.580 -0.0531 -0.1357  0.0515
 6002W        W 9521   1.291   9.071  10.205 -0.3286 -0.1629 -0.1879
 6003W        W 9522   8.186   5.060   2.347  0.0531 -0.3111  0.0997
 6004W        W 9523   3.044   0.081   9.663  0.0392 -0.0509 -0.0474
 6005W        W 9524   5.753   1.503   3.149 -0.0686  0.0765  0.1786
 6006W        W 9525   9.390   0.705   0.573  0.0560  0.0455 -0.0203
 6007W        W 9526   4.512   1.463  10.998  0.0917 -0.0585 -0.1588
 6008W        W 9527   4.548   5.895   1.408 -0.2014  0.0903 -0.0445
 6009W        W 9528   7.144   7.750   3.484  0.1977  0.1172 -0.1305
 6010W        W 9529   0.998   7.547   8.765 -0.0341 -0.1363  0.0812
 6011W        W 9530   9.108   3.769   3.675  0.1206 -0.3265 -0.0016
 6012W        W 9531   1.467   4.151   2.011 -0.0428  0.1770 -0.2664
 6013W        W 9532   5.921   9.917   4.132  0.2508  0.2403  0.0657
 6014W        W 9533   0.506   6.824   0.888  0.2996 -0.0106 -0.0460
 6015W        W 9534   9.812   2.923   0.077  0.0222  0.0405  0.0443
 6016W        W 9535   6.887   7.534   2.658 -0.1807 -0.1390  0.0825
 6017W        W 9536   5.659   8.996   1.247 -0.0905 -0.0614  0.0474
 6018W        W 9537   8.934   9.846  10.803  0.1098  0.0587  0.0116
 6019W        W 9538   7.444   5.873   9.738 -0.3092  0.1494 -0.2012
 6020W        W 9539   4.118   6.344  11.701  0.1133  0.1017 -0.0218
 6021W        W 9540   8.702   1.608   1.558  0.0413 -0.0512 -0.2617
 6022W        W 9541   2.690   7.424  10.892  0.0747 -0.0333  0.1122
 6023W        W 9542   6.210   4.881   1.435  0.4262 -0.1205 -0.0896
 6024W        W 9543   2.260   9.553   7.517  0.2879  0.0280  0.1577
 6025W        W 9544   7.632   0.355   2.401  0.0854 -0.1961 -0.0000
 6026W        W 9545   5.231   4.601  10.252  0.0942  0.0063 -0.1788
 6027W        W 9546   7.321   6.465   8.192  0.0942 -0.0978  0.0133
 6028W        W 9547   3.325   3.000   9.362  0.1307  0.5193 -0.0899
 6029W        W 9548   3.658   1.889  10.855  0.2629  0.1012  0.1798
 6030W        W 9549   3.567   3.751   0.183  0.0020  0.0290  0.0698
 6031W        W 9550   0.748   9.727   1.612 -0.0606  0.0262  0.1637
 6032W        W 9551   4.937   1.846  10.977 -0.3925  0.1077 -0.1128
 6033W        W 9552   0.356   8.076   3.572  0.0644  0.2482  0.2789
 6034W        W 9553   9.418   4.585   2.027 -0.2500  0.0943 -0.3410
 6035W        W 9554   3.019   5.517   9.581  0.1134  0.0146  0.3245
 6036W        W 9555   8.422   0.899   3.548 -0.0153  0.0619 -0.1398
 6037W        W 9556   5.913   4.741   1.873  0.0676 -0.3394 -0.1361
 6038W        W 9557   5.210   9.160   3.260  0.2636 -0.1758 -0.1299
 6039W        W 9558   7.551   8.499   9.746 -0.0193 -0.4223  0.1901
 6040W        W 9559   2.278   5.688   8.804  0.0865  0.0091  0.1218
 6041W        W 9560   8.541   5.225   7.464 -0.0154  0.0460 -0.0900
 6042W        W 9561   4.661   2.759   9.124 -0.4871 -0.2301  0.0754
 6043W        W 9562   2.519   2.875   2.191  0.0559 -0.1931  0.3237
 6044W        W 9563   0.562   2.443   1.784 -0.0434 -0.5384 -0.0983
 6045W        W 9564   2.679   9.381   8.143  0.2157  0.1091 -0.4821
 6046W        W 9565   7.139   6.010  11.864 -0.0968 -0.3047 -0.1659
 6047W        W 9566   8.603   8.754   3.053 -0.1381  0.0374 -0.0989
 6048W        W 9567   2.671   5.425   8.586  0.3553  0.0187 -0.1224
 6049W        W 9568   1.512   3.187   0.000 -0.1176  0.1105  0.0001
 6050W        W 9569   8.069   3.094   7.885 -0.0079 -0.2463  0.1736
 6051W        W 9570   2.694   2.442   4.309  0.1328  0.1694 -0.2002
 6052W        W 9571   3.448   3.530  10.089  0.2277 -0.0903 -0.1201
 6053W        W 9572   5.047   5.261   1.000 -0.2466  0.2489  0.1275
 6054W        W 9573   5.234   9.707   2.618 -0.0063  0.0360 -0.0571
 6055W        W 9574   9.013   3.017   7.952  0.2863 -0.1093  0.3565
 6056W        W 9575   5.924   3.771   2.598  0.0024 -0.0650 -0.1926
 6057W        W 9576   9.018   5.654  10.058 -0.0184  0.0141  0.1365
 6058W        W 9577   6.787   0.764   2.135 -0.3828 -0.0036  0.1916
 6059W        W 9578   0.984   0.891   9.465 -0.1789  0.3587  0.0857
 6060W        W 9579   5.664   9.785   1.940  0.0528  0.2123  0.3490
 6061W        W 9580   4.705   5.238   8.711 -0.3551 -0.0565 -0.0160
 6062W        W 9581   6.150   2.090   2.236  0.1982 -0.1533 -0.0080
 6063W        W 9582   4.984   1.712  10.142 -0.0363  0.0002  0.0257
 6064W        W 9583   9.536   3.562   8.843  0.0989 -0.0066 -0.1396
 6065W        W 9584   5.231   3.525  10.447  0.1272 -0.1617 -0.1669
 6066W        W 9585   9.774   7.464   8.963 -0.0490 -0.0430  0.1651
 6067W        W 9586   3.373   3.206   0.023  0.0746  0.2746 -0.0520
 6068W        W 9587   8.698   2.087   9.449  0.1796  0.1444  0.2180
 6069W        W 9588   2.943   0.114  11.670 -0.2995 -0.0246 -0.1149
 6070W        W 9589   1.469   7.391  10.695 -0.2402 -0.2375 -0.2289
 6071W        W 9590   7.042   0.236  10.734  0.1218  0.1446 -0.0190
 6072W        W 9591   2.701   2.650   9.162 -0.4060  0.0855  0.1267
 6073W        W 9592   7.818   6.366   0.356 -0.4486 -0.0382  0.1199
 6074W        W 9593   0.990   4.622   3.289 -0.1916 -0.1390 -0.0452
 6075W        W 9594   2.827   5.323  11.756  0.0924  0.4523  0.3844
 6076W        W 9595   0.578   0.232   1.420  0.3713 -0.2671  0.0913
 6077W        W 9596   9.535   7.756  10.421  0.2761  0.0568  0.0208
 6078W        W 9597   3.184   7.739   1.975 -0.0660  0.0201  0.0585
 6079W        W 9598   8.341   5.979   2.598 -0.0642  0.0075  0.2678
 6080W        W 9599   0.085   0.897   2.993  0.0896  0.3358  0.1061
 6081W        W 9600   6.559   5.672   9.428 -0.1393 -0.0510  0.0423
 6082W        W 9601   3.472   9.647   1.428  0.0258 -0.0995  0.0770
 6083W        W 9602   0.190   8.540   8.567  0.3821 -0.1566 -0.0984
 6084W        W 9603   3.358   9.780  11.662 -0.1107  0.1215 -0.0097
 6085W        W 9604   1.949   0.540  11.074  0.0361  0.4370  0.2882
 6086W        W 9605   5.554   6.750   9.645 -0.2407  0.2608  0.0607
 6087W        W 9606   8.559   8.152   7.320  0.0742  0.0354  0.0278
 6088W        W 9607   5.214   6.440   8.791  0.1384  0.1092 -0.0704
 6089W        W 9608   2.768   8.825   1.545 -0.1269 -0.2769 -0.0205
 6090W        W 9609   1.253   3.940   0.242  0.0952 -0.1196 -0.1446
 6091W        W 9610   9.712   0.442   3.121  0.1448 -0.0214 -0.0030
 6092W        W 9611   3.930   6.527   8.754 -0.1906 -0.0809  0.0739
 6093W        W 9612   5.214   5.189  11.045 -0.1048  0.2008 -0.0229
 6094W        W 9613   5.707   8.147   3.794 -0.0636 -0.0549  0.2239
 6095W        W 9614   2.173   5.051   8.654 -0.3627 -0.0523 -0.0046
 6096W        W 9615   7.406   4.912  10.317  0.0377 -0.0407 -0.0021
 6097W        W 9616   2.485   0.556   8.899 -0.2532 -0.2684 -0.0037
 6098W        W 9617   1.917   1.566   1.092  0.1335 -0.0646  0.3695
 6099W        W 9618   9.179   8.173   0.367  0.0210 -0.2252 -0.3032
 6100W        W 9619   0.409   2.672   0.584  0.2469  0.0412  0.1004
 6101W        W 9620   3.706   3.187   2.710  0.0689 -0.1044  0.1913
 6102W        W 9621   9.052   4.961   1.950 -0.0684  0.2147 -0.0292
 6103W        W 9622   1.231   8.295   8.064 -0.0780  0.0313 -0.0699
 6104W        W 9623   1.369   6.036   7.705 -0.3710  0.0057 -0.3902
 6105W        W 9624   7.036   7.019   1.389  0.1066  0.2775 -0.1520
 6106W        W 9625   6.418   0.919  11.033  0.4395 -0.1360  0.1293
 6107W        W 9626   7.688   5.251  11.244 -0.0573 -0.2543 -0.1373
 6108W        W 9627   2.373   8.030   0.034  0.1862 -0.2759  0.1350
 6109W        W 9628   0.485   0.366  11.523  0.1268  0.0160 -0.1873
 6110W        W 9629   8.929   5.841   2.037  0.1180 -0.1801  0.1719
 6111W        W 9630   1.726   9.803   3.849  0.0957  0.2820  0.1147
 6112W        W 9631   8.909   3.864   8.336  0.0097 -0.0586 -0.1427
 6113W        W 9632   8.956   5.220  11.511 -0.0925  0.0350  0.0953
 6114W        W 9633   7.534   0.415   4.022 -0.1688  0.0122  0.2433
 6115W        W 9634   5.141   0.259   2.955 -0.0047  0.0021  0.0258
 6116W        W 9635   1.693   8.764   7.296  0.1559  0.0804 -0.0222
 6117W        W 9636   1.986   6.272   2.952  0.0256  0.1433  0.0210
 6118W        W 9637   8.220   1.894   2.483 -0.0913  0.0585  0.0471
 6119W        W 9638   5.755   6.672  10.745  0.2135  0.1436  0.0222
 6120W        W 9639   6.662   7.128   2.480  0.0474 -0.3727 -0.1789
 6121W        W 9640   2.515   0.819   2.933 -0.0576  0.1375 -0.0164
 6122W        W 9641   0.194   1.117   0.820  0.1323 -0.2852  0.1882
 6123W        W 9642   4.916   4.499   2.379  0.2188  0.1887 -0.0072
 6124W        W 9643   5.707   0.855   0.311  0.2948  0.0712 -0.5025
 6125W        W 9644   0.474   3.805   4.571 -0.2252 -0.5529  0.0261
 6126W        W 9645   9.641   6.079   2.089  0.2469  0.1752  0.0923
 6127W        W 9646   0.182   6.735   3.158  0.0320 -0.0671 -0.2333
 6128W        W 9647   5.046   5.686   1.341 -0.3020 -0.2985  0.1806
 6129W        W 9648   4.931   1.215  11.790 -0.0580 -0.2246 -0.3364
 6130W        W 9649   4.167   4.388  10.879  0.1729  0.1370  0.1734
 6131W        W 9650   7.562   5.124   8.653 -0.1387 -0.0227  0.2874
 6132W        W 9651   7.673   2.319   7.272 -0.0822 -0.1184  0.0707
 6133W        W 9652   8.271   9.902  11.235 -0.0507  0.2120 -0.2312
 6134W        W 9653   1.226   7.202  10.023 -0.0041 -0.0498  0.2373
 6135W        W 9654   0.357   2.773  11.549 -0.0724 -0.0856 -0.0356
 6136W        W 9655   4.532   8.419  10.525  0.1358  0.0463  0.1661
 6137W        W 9656   6.881   2.863   9.825  0.0275  0.0339 -0.2390
 6138W        W 9657   0.510   3.592   9.720 -0.1671 -0.0085  0.2754
 6139W        W 9658   9.737   2.666  11.628  0.3705 -0.1306 -0.0165
 6140W        W 9659   7.747   8.896   1.171 -0.0115  0.2154 -0.4830
 6141W        W 9660   7.279   0.297   3.561 -0.1313  0.1985  0.1771
 6142W        W 9661   7.977   2.825   8.934  0.2264  0.2318  0.0092
 6143W        W 9662   8.271   9.421   0.555  0.0794  0.3283  0.2415
 6144W        W 9663   8.463   8.796   8.609 -0.1634  0.2321 -0.1623
 6145W        W 9664   9.545   9.458   3.400 -0.0835 -0.1094  0.0068
 6146W        W 9665   7.507   6.916   2.107  0.0528  0.0673 -0.0787
 6147W        W 9666   0.168   0.245   0.420  0.0970  0.3262  0.2303
 6148W        W 9667   5.368   7.080   1.222 -0.1469  0.5159  0.1349
 6149W        W 9668   7.922   8.420   2.103 -0.0575 -0.1323  0.0684
 6150W        W 9669   0.609   7.595  10.748  0.1549 -0.1426 -0.0235
 6151W        W 9670   5.743   1.743   2.227 -0.1263  0.0815  0.3268
 6152W        W 9671   7.082   3.333   8.513  0.0946  0.2922 -0.0221
 6153W        W 9672   6.961   3.657   2.587  0.0593 -0.2023  0.0279
 6154W        W 9673   3.161   9.230   1.414 -0.3844 -0.0713 -0.0360
 6155W        W 9674   0.060   7.740   8.483 -0.5258 -0.2838 -0.1099
 6156W        W 9675   5.166   5.755   0.143  0.1133 -0.1219 -0.1221
 6157W        W 9676   7.407   8.919  11.331  0.1561 -0.2707 -0.3320
 6158W        W 9677   6.158   9.071  11.389 -0.0851  0.1017  0.1524
 6159W        W 9678   4.811   8.131   1.197  0.2229  0.0036 -0.1740
 6160W        W 9679   5.546   2.012   0.419 -0.1568  0.1543  0.2271
 6161W        W 9680   0.737   1.835  11.676 -0.0067  0.5123 -0.2392
 6162W        W 9681   2.944   4.217   3.798  0.1963 -0.4319  0.0770
 6163W        W 9682   6.421   8.311   0.478 -0.2485 -0.3257 -0.1403
 6164W        W 9683   9.383   4.185  10.578  0.0828  0.0879  0.2532
 6165W        W 9684   8.379   9.760   0.170  0.0750 -0.1892  0.1534
 6166W        W 9685   0.815   4.930  10.986 -0.1961  0.0891  0.1210
 6167W        W 9686   0.307   6.886   1.919 -0.1192 -0.1961  0.1824
 6168W        W 9687   6.711   0.050   0.997  0.2788  0.0858  0.0001
 6169W        W 9688   6.711   2.392  10.174 -0.0679 -0.0261 -0.2465
 6170W        W 9689   2.021   1.276  10.677  0.0901  0.1208 -0.0994
 6171W        W 9690   1.471   4.529   8.630  0.0712  0.0616  0.0847
 6172W        W 9691   0.954   4.723   0.992  0.3913 -0.2820  0.0563
 6173W        W 9692   6.518   0.505   7.774 -0.1655  0.1051 -0.0801
 6174W        W 9693   5.818   0.417   8.530  0.1570  0.1260 -0.2067
 6175W        W 9694   7.102   6.444   4.029  0.2901 -0.1713  0.1861
 6176W        W 9695   3.407   9.112   9.457 -0.0768  0.0338  0.1659
 6177W        W 9696   5.318   6.299   9.549  0.2238 -0.2249  0.4322
 6178W        W 9697   6.234   5.482   0.141  0.1054  0.0341 -0.0680
 6179W        W 9698   5.903   7.194   2.571  0.3022 -0.0704 -0.0181
 6180W        W 9699   0.184   2.321   3.533 -0.1094 -0.0314  0.1111
 6181W        W 9700   3.429   4.053   9.011  0.0689 -0.0590 -0.0707
 6182W        W 9701   8.956   7.676  10.621  0.1409  0.0147 -0.0468
 6183W        W 9702   4.228   4.837   3.140 -0.1577 -0.5025  0.3657
 6184W        W 9703   9.160   4.842   8.750  0.0193 -0.1536 -0.4491
 6185W        W 9704   8.468   2.511   9.133 -0.0520 -0.0761 -0.0142
 6186W        W 9705   2.628   5.627   1.322  0.0318  0.2002  0.1241
 6187W        W 9706   0.218   3.251  11.621 -0.0071  0.0111 -0.4535
 6188W        W 9707   3.718   0.632   2.565 -0.0521 -0.1642 -0.0194
 6189W        W 9708   6.804   7.029   8.006  0.1583 -0.1910  0.0790
 6190W        W 9709   6.570   7.011  10.438 -0.2387  0.2283  0.0712
 6191W        W 9710   7.869   1.407   1.883 -0.1518 -0.1471  0.2143
 6192W        W 9711   2.787   4.214  11.933  0.0635 -0.0160  0.0531
 6193W        W 9712   9.579   4.653   0.589 -0.0652 -0.3247 -0.1433
 6194W        W 9713   2.346   7.109  10.056  0.2297 -0.1150  0.0740
 6195W        W 9714   3.603   7.757   7.922 -0.0042  0.1364 -0.2379
 6196W        W 9715   3.213   4.105   2.810  0.2290 -0.0468  0.2081
 6197W        W 9716   6.094   8.981   0.135 -0.0847 -0.0534 -0.0285
 6198W        W 9717   5.929   5.090   0.126 -0.2491  0.0784 -0.5100
 6199W        W 9718   0.861   8.107   3.520  0.2790  0.2745 -0.1444
 6200W        W 9719   5.506   4.055   9.340 -0.0818  0.0538  0.3234
 6201W        W 9720   4.337   8.170   3.787 -0.1618  0.0117 -0.0062
 6202W        W 9721   1.750   0.526   9.730 -0.1559 -0.0444 -0.0293
 6203W        W 9722   0.471   4.269  11.459  0.3447  0.1608 -0.0456
 6204W        W 9723   4.914   0.573   1.984  0.1376 -0.1998 -0.2752
 6205W        W 9724   8.259   8.483   9.552  0.2687  0.1669 -0.0562
 6206W        W 9725   7.924   3.704   1.397 -0.3044  0.4055 -0.2804
 6207W        W 9726   9.511   1.228   8.147 -0.2935 -0.1459  0.2206
 6208W        W 9727   8.956   1.588  11.411  0.2362 -0.2189 -0.2399
 6209W        W 9728   9.699   8.927   3.585 -0.1550 -0.0563 -0.4621
 6210W        W 9729   2.725   5.487   2.373  0.1796 -0.1224  0.1740
 6211W        W 9730   0.930   1.487   1.223  0.0297  0.1813  0.3235
 6212W        W 9731   7.325   0.917   2.395 -0.0320 -0.0069  0.0315
 6213W        W 9732   0.257   0.509  10.267 -0.4350  0.3573  0.0170
 6214W        W 9733   9.426   3.893   9.601 -0.1903  0.0146  0.1490
 6215W        W 9734   7.551   5.603   0.264  0.2350  0.1185 -0.1102
 6216W        W 9735   4.868   1.503  11.329 -0.1793 -0.1295 -0.0981
 6217W        W 9736   5.188   4.094   0.458 -0.2411 -0.0821 -0.0100
 6218W        W 9737   3.674   1.676   4.007 -0.0965  0.4813 -0.0248
 6219W        W 9738   8.514   0.054   3.927  0.1808  0.2683  0.3669
 6220W        W 9739   8.852   6.300   1.713  0.3512  0.1650 -0.0822
 6221W        W 9740   4.762   5.014   8.112  0.0409  0.1140 -0.0124
 6222W        W 9741   0.763   0.814   0.221  0.0398  0.0604 -0.1679
 6223W        W 9742   7.027   8.979   2.717 -0.1571  0.3943 -0.0009
 6224W        W 9743   9.528   9.375  11.914 -0.1113 -0.0632 -0.0238
 6225W        W 9744   6.189   1.238   7.764  0.0191 -0.1691 -0.1326
 6226W        W 9745   9.197   3.766   7.879  0.0734 -0.0666 -0.0521
 6227W        W 9746   3.140   9.624  10.297  0.1533  0.0995 -0.0182
 6228W        W 9747   0.056   1.103   8.990  0.1298 -0.3124  0.1749
 6229W        W 9748   8.768   8.504   8.394 -0.0998 -0.0744 -0.0545
 6230W        W 9749   1.970   7.480  10.916 -0.0719 -0.2465  0.0944
 6231W        W 9750   3.202   2.437   9.011  0.0620 -0.1298 -0.2045
 6232W        W 9751   1.147   7.752   1.377  0.2853 -0.2952 -0.3231
 6233W        W 9752   1.763   6.364  10.322  0.0709 -0.1819  0.2697
 6234W        W 9753   2.203   5.348   0.486  0.0360  0.0955  0.1081
 6235W        W 9754   2.341   1.844   1.168 -0.1259 -0.1179 -0.1558
 6236W        W 9755   5.018   3.476  10.934 -0.0346 -0.0690  0.0696
 6237W        W 9756   8.394   1.263  11.671 -0.0501 -0.1082 -0.0368
 6238W        W 9757   5.427   7.329   1.679 -0.1478  0.0915 -0.1997
 6239W        W 9758   0.578   0.579   9.380  0.0788 -0.0183  0.1468
 6240W        W 9759   9.716   2.701  10.843 -0.2458  0.2070  0.3448
 6241W        W 9760   7.112   6.991   9.099  0.0847 -0.0311 -0.0179
 6242W        W 9761   8.853   8.932   3.434 -0.0094 -0.2154 -0.0815
 6243W        W 9762   8.200   9.048   9.440  0.1389  0.1688 -0.0630
 6244W        W 9763   0.004   0.162  11.827  0.0901 -0.0057  0.2397
 6245W        W 9764   0.386   7.666  10.253  0.1417  0.4283 -0.2835
 6246W        W 9765   8.636   2.296   9.970 -0.0530 -0.2190 -0.1171
 6247W        W 9766   9.237   6.751   1.244  0.1325  0.0798  0.3565
 6248W        W 9767   0.435   2.294   1.004 -0.1126 -0.0268 -0.2236
 6249W        W 9768   9.008   4.826  10.747  0.2265 -0.2768 -0.1219
 6250W        W 9769   9.657   0.181  10.847  0.0061 -0.0465  0.2929
 6251W        W 9770   6.197   5.058   9.084  0.1466  0.1631 -0.2150
 6252W        W 9771   0.619   7.835   3.121  0.1281  0.2668  0.3499
 6253W        W 9772   4.535   6.927   7.072  0.0953  0.1172  0.1962
 6254W        W 9773   8.420   8.280   1.059 -0.0033 -0.0191 -0.2351
 6255W        W 9774   3.198   0.573  11.720 -0.0096 -0.2429  0.0177
 6256W        W 9775   1.478   9.701   3.394  0.1945 -0.0903 -0.2858
 6257W        W 9776   3.710   6.255   0.185 -0.1989  0.4703 -0.3069
 6258W        W 9777   6.875   8.334   9.229  0.2748  0.0373  0.0343
 6259W        W 9778   0.481   4.596   2.015  0.2276 -0.2983 -0.0479
 6260W        W 9779   0.519   8.614   0.488 -0.0377 -0.1024  0.2373
 6261W        W 9780   4.704   5.376   7.851  0.3016  0.0302  0.3771
 6262W        W 9781   0.126   7.436   9.417  0.0360  0.0029  0.0234
 6263W        W 9782   4.877   7.417   2.549 -0.0881  0.2617 -0.0134
 6264W        W 9783   3.888   5.371   1.205  0.0891  0.2209  0.2776
 6265W        W 9784   1.863   4.893   2.263  0.2102 -0.0543 -0.1457
 6266W        W 9785   0.177   7.148   1.409 -0.2603 -0.0614  0.0682
 6267W        W 9786   5.985   8.179   2.419 -0.3160 -0.2319 -0.1883
 6268W        W 9787   2.743   4.457   2.356  0.2205 -0.2223  0.2545
 6269W        W 9788   0.889   5.772  10.951  0.1744  0.1893 -0.0319
 6270W        W 9789   8.003   3.897  10.875  0.1827 -0.0074 -0.0143
 6271W        W 9790   1.375   7.541   8.242 -0.2235  0.0412  0.0365
 6272W        W 9791   5.700   5.747  11.874  0.0312  0.1012  0.0079
 6273W        W 9792   0.951   2.982  10.706 -0.0950  0.0102 -0.0083
 6274W        W 9793   8.410   3.794   1.810 -0.1299  0.1734  0.1714
 6275W        W 9794   6.751   0.099   8.067  0.2488  0.0128  0.1303
 6276W        W 9795   3.064   8.810  10.751  0.0721 -0.1636  0.0812
 6277W        W 9796   8.635   2.689   3.394  0.0366  0.1221  0.2039
 6278W        W 9797   4.728   9.393   3.373  0.0502  0.1232 -0.0001
 6279W        W 9798   1.738   2.178   9.268 -0.2086  0.0618 -0.0804
 6280W        W 9799   0.846   0.608   2.321  0.0979  0.0575  0.1637
 6281W        W 9800   3.082   6.377  11.975 -0.1753 -0.2741 -0.2349
 6282W        W 9801   2.920   0.098   2.764  0.3435 -0.2069 -0.1849
 6283W        W 9802   8.370   5.316   9.432 -0.0305  0.0285 -0.0877
 6284W        W 9803   0.613   5.077   2.167 -0.1831 -0.2496 -0.0667
 6285W        W 9804   5.851   3.043  11.011 -0.4168  0.2660  0.1038
 6286W        W 9805   0.449   4.242   4.327 -0.2138 -0.1511  0.1170
 6287W        W 9806   7.729   1.448   3.122  0.1359 -0.2122 -0.1494
 6288W        W 9807   8.705   9.307   9.557 -0.0451 -0.2085  0.1514
 6289W        W 9808   4.869   3.080   3.481  0.3272 -0.0082  0.2703
 6290W        W 9809   0.594   6.299   0.169 -0.0691  0.3417  0.0551
 6291W        W 9810   0.099   8.867   1.324  0.3064 -0.1726  0.0012
 6292W        W 9811   0.099   6.417   0.983  0.2009 -0.1012  0.1610
 6293W        W 9812   3.070   2.410  11.575  0.2440  0.3372 -0.2394
 6294W        W 9813   4.573   6.606   3.023 -0.1417 -0.1674  0.2740
 6295W        W 9814   9.769   8.217   8.533  0.2769 -0.2746 -0.2901
 6296W        W 9815   5.954   5.570   2.884 -0.3759 -0.0288 -0.1476
 6297W        W 9816   3.570   8.884   8.383  0.2789 -0.2111 -0.1322
 6298W        W 9817   3.567   6.740   7.845  0.1536 -0.1339 -0.1480
 6299W        W 9818   6.758   0.282  10.176  0.1942  0.4411 -0.1026
 6300W        W 9819   9.588   1.914   0.754 -0.2703  0.1692 -0.2258
 6301W        W 9820   2.945   3.050   4.110  0.1492  0.1259 -0.4073
 6302W        W 9821   5.672   4.556   9.486 -0.1334 -0.1401  0.2062
 6303W        W 9822   4.564   3.847   9.364  0.1135  0.3956  0.1580
 6304W        W 9823   3.561   0.371   9.656 -0.0348 -0.0606 -0.3321
 6305W        W 9824   1.091   9.408   0.094  0.0473  0.3714 -0.0497
 6306W        W 9825   3.234   0.538  10.042  0.0047 -0.0622  0.1182
 6307W        W 9826   4.532   6.486   3.509 -0.1477  0.2646 -0.0600
 6308W        W 9827   2.760   5.012   2.061 -0.0424  0.1366  0.3329
 6309W        W 9828   5.006   9.910  11.506 -0.2624  0.2400 -0.3516
 6310W        W 9829   2.764   7.354   8.368 -0.4547 -0.0646 -0.0166
 6311W        W 9830   7.151   4.439  10.524 -0.0616 -0.2731 -0.1912
 6312W        W 9831   9.493   6.895  10.081  0.1574 -0.4680  0.0228
 6313W        W 9832   4.181   6.328   3.023  0.0493  0.0085  0.0706
 6314W        W 9833   5.886   3.081   8.241  0.0215 -0.2640  0.1504
 6315W        W 9834   2.956   4.753   1.580  0.4522  0.0779 -0.1679
 6316W        W 9835   8.036   4.618   2.107  0.1789 -0.0509 -0.1802
 6317W        W 9836   9.241   2.607   8.749  0.2339  0.2707  0.0887
 6318W        W 9837   8.224   4.108   1.047 -0.1542  0.0445 -0.2016
 6319W        W 9838   3.202   9.342  11.679  0.1443  0.1401 -0.0959
 6320W        W 9839   9.671   9.216   9.009 -0.1987 -0.1387 -0.3838
 6321W        W 9840   8.604   9.165   0.902  0.1709  0.1212 -0.2205
 6322W        W 9841   5.608   3.184  10.303 -0.3962  0.1934 -0.2159
 6323W        W 9842   0.925   4.290  10.547  0.0050 -0.1199 -0.6471
 6324W        W 9843   5.983   4.413   7.752  0.3082 -0.0206 -0.0438
 6325W        W 9844   7.638   7.974   2.334  0.1062  0.1675 -0.1729
 6326W        W 9845   2.904   0.113   1.067 -0.3563 -0.1002 -0.4544
 6327W        W 9846   4.823   0.911   0.505 -0.0039 -0.0349 -0.1664
 6328W        W 9847   9.334   5.652  10.540  0.0759  0.5561  0.2303
 6329W        W 9848   9.288   4.411   9.669 -0.1454 -0.0516  0.0380
 6330W        W 9849   9.580   4.393   9.192  0.2448 -0.1758 -0.2746
 6331W        W 9850   1.284   4.920   2.323  0.1416  0.0300 -0.0675
 6332W        W 9851   7.778   3.473   0.871  0.1644  0.0621  0.3799
 6333W        W 9852   7.320   0.763  11.204  0.0290  0.1701 -0.0221
 6334W        W 9853   8.089   7.367   7.407  0.2064 -0.1449  0.0705
 6335W        W 9854   4.443   4.990   7.739 -0.1568 -0.0927  0.1104
 6336W        W 9855   0.923   7.759   9.943  0.1760 -0.2219 -0.1748
 6337W        W 9856   0.909   2.359  10.089 -0.1223  0.0259  0.0987
 6338W        W 9857   7.453   0.471  10.836  0.1643  0.2292  0.0598
 6339W        W 9858   7.852   0.442  10.089 -0.3062 -0.0396  0.2249
 6340W        W 9859   5.472   3.426   3.351 -0.0169 -0.1390  0.1162
 6341W        W 9860   8.784   0.150   1.153  0.2129 -0.0798 -0.0871
 6342W        W 9861   7.708   4.421   1.779 -0.2321  0.3206 -0.2348
 6343W        W 9862   1.208   4.718   9.016  0.0178 -0.1011  0.1064
 6344W        W 9863   7.858   5.067   9.470  0.0356 -0.1297 -0.0872
 6345W        W 9864   7.077   7.191   8.362 -0.0616 -0.5839  0.1267
 6346W        W 9865   7.127   1.415   1.424  0.0414 -0.2213  0.1282
 6347W        W 9866   2.066   2.205   3.141 -0.0797 -0.0587  0.1334
 6348W        W 9867   7.999   2.319  10.439  0.1636 -0.0864  0.0040
 6349W        W 9868   5.818   7.523   0.418  0.0957 -0.0570 -0.1044
 6350W        W 9869   6.298   1.914  12.001  0.1025  0.0013  0.2724
 6351W        W 9870   0.517   8.525   4.786 -0.0070 -0.0727  0.0802
 6352W        W 9871   3.387   8.289   9.361 -0.2990  0.0759 -0.2534
 6353W        W 9872   4.171   5.498   7.796  0.2249 -0.0719  0.1008
 6354W        W 9873   3.382   7.334   2.757 -0.0799  0.0535 -0.0997
 6355W        W 9874   8.366   5.340  11.947 -0.2766  0.0844 -0.2865
 6356W        W 9875   5.073   3.546   0.507  0.1212  0.5418  0.2703
 6357W        W 9876   0.809   0.302   9.737  0.4518 -0.1977 -0.0784
 6358W        W 9877   8.629   5.343   0.691 -0.2097 -0.1484 -0.3419
 6359W        W 9878   4.688   5.374   1.603  0.0348  0.1783  0.1937
 6360W        W 9879   9.860   5.901   2.647 -0.0719 -0.2933  0.1488
 6361W        W 9880   1.671   8.933   1.848  0.2473 -0.2243  0.2120
 6362W        W 9881   6.237   9.076  10.339  0.3403  0.1868 -0.0980
 6363W        W 9882   3.734   4.712   1.063 -0.0916 -0.2067  0.1735
 6364W        W 9883   9.590   8.674  11.216  0.2774  0.0258 -0.1247
 6365W        W 9884   6.033   2.817   0.219  0.2358 -0.0374  0.3216
 6366W        W 9885   4.673   1.292   2.718 -0.1190  0.0310 -0.0578
 6367W        W 9886   7.288   3.220   3.125 -0.0943 -0.1909  0.1891
 6368W        W 9887   5.243   0.654   8.995 -0.1281 -0.1375 -0.0377
 6369W        W 9888   2.679   5.425   0.896 -0.1750  0.1386 -0.3187
 6370W        W 9889   6.920   3.732   2.004  0.1506 -0.4229 -0.0194
 6371W        W 9890   2.619   6.911   7.911  0.3534 -0.1832 -0.3008
 6372W        W 9891   8.583   4.779   1.983 -0.1966  0.0390 -0.0870
 6373W        W 9892   1.847   3.877   2.133  0.1881  0.4584  0.1747
 6374W        W 9893   8.872   6.098   9.835 -0.1314 -0.3863  0.2157
 6375W        W 9894   3.515   6.931   2.140 -0.3071 -0.1133  0.6048
 6376W        W 9895   6.481   9.899  10.604 -0.0293  0.3719 -0.1610
 6377W        W 9896   6.727   4.586  10.236 -0.0618 -0.1997  0.2119
 6378W        W 9897   5.392   4.382   3.292 -0.1588 -0.1386 -0.2825
 6379W        W 9898   6.859   3.963   3.384  0.0832  0.0291 -0.2911
 6380W        W 9899   4.773   8.933   8.957  0.1479  0.0109 -0.3129
 6381W        W 9900   9.667   8.959   7.296  0.1719  0.1778  0.3553
 6382W        W 9901   9.354   2.194  10.863 -0.3032 -0.1034 -0.0215
 6383W        W 9902   3.149   2.142   2.253  0.0028  0.0489 -0.2375
 6384W        W 9903   4.365   5.653   8.679  0.2738 -0.0842 -0.0714
 6385W        W 9904   7.041   5.497   1.160  0.1701  0.0484 -0.2071
 6386W        W 9905   7.137   7.308   2.278 -0.0687  0.3916  0.3782
 6387W        W 9906   0.016   2.308  10.616  0.1731  0.1824  0.0573
 6388W        W 9907   2.150   9.474   8.278  0.0401  0.0123  0.1166
 6389W        W 9908   6.310   3.047  11.300  0.0593  0.2835 -0.2241
 6390W        W 9909   8.070   7.063   1.988 -0.3132  0.0228  0.0285
 6391W        W 9910   8.393   8.685   1.327  0.2622  0.0844  0.0430
 6392W        W 9911   8.811   5.808   2.547 -0.1697 -0.0662 -0.0439
 6393W        W 9912   6.727   6.268  11.025 -0.0504  0.0624  0.0659
 6394W        W 9913   6.965   9.142  11.020 -0.1188 -0.0049 -0.1477
 6395W        W 9914   8.501   5.740  10.242 -0.0605 -0.0462 -0.0422
 6396W        W 9915   7.358   1.485   0.951  0.2832  0.0527  0.0337
 6397W        W 9916   2.492   6.627  11.294  0.4352  0.1788  0.3341
 6398W        W 9917   9.706   6.643   1.315  0.1289  0.0293  0.2849
 6399W        W 9918   1.673   8.544   9.034 -0.3515 -0.0382  0.0486
 6400W        W 9919   9.448   6.829   3.283 -0.4959  0.0299  0.0548
 6401W        W 9920   7.043   2.205   2.967  0.2590  0.1644 -0.0805
 6402W        W 9921   6.666   7.384   7.621  0.1511 -0.1323 -0.3940
 6403W        W 9922   6.851   9.868   7.585  0.0387  0.0866  0.4436
 6404W        W 9923   9.374   7.109   2.676  0.0080  0.2184  0.3576
 6405W        W 9924   5.571   5.619   2.595 -0.1113 -0.3650 -0.2291
 6406W        W 9925   6.900   2.769  10.411  0.0625 -0.1760 -0.3765
 6407W        W 9926   5.288   8.132   8.253  0.0634 -0.1000 -0.2567
 6408W        W 9927   6.860   0.510  11.094  0.2590  0.0018  0.0763
 6409W        W 9928   7.028   1.206   1.930 -0.0917  0.0961 -0.1022
 6410W        W 9929   9.632   4.765   9.636  0.2162 -0.1188 -0.1989
 6411W        W 9930   9.159   7.272   9.320  0.0421 -0.0687  0.1098
 6412W        W 9931   4.715   2.704  11.437 -0.0432  0.0249  0.2075
 6413W        W 9932   4.839   4.154   3.678  0.0754  0.1046  0.3615
 6414W        W 9933   4.911   6.183   3.660 -0.0217 -0.0885  0.1261
 6415W        W 9934   5.278   7.968   7.794  0.0326 -0.4016 -0.1679
 6416W        W 9935   4.271   7.865   1.265 -0.2740  0.1027  0.1874
 6417W        W 9936   1.984   0.495  10.248  0.0948 -0.0868 -0.1094
 6418W        W 9937   5.727   3.156   7.019 -0.0871  0.0540  0.1278
 6419W        W 9938   7.713   6.388  11.676  0.3049 -0.1444 -0.2222
 6420W        W 9939   9.309   1.824   1.169 -0.0665  0.3462 -0.2424
 6421W        W 9940   1.796   7.774  10.494 -0.2302  0.1272  0.1293
 6422W        W 9941   2.174   1.186   0.795 -0.0635 -0.2496 -0.1704
 6423W        W 9942   0.240   9.306   8.896 -0.1473 -0.2557  0.3638
 6424W        W 9943   3.216   3.087  10.461 -0.2963 -0.2093  0.0034
 6425W        W 9944   0.743   9.477   8.229 -0.1217 -0.1699 -0.0068
 6426W        W 9945   1.829   5.318  11.190  0.0589 -0.0296  0.0327
 6427W        W 9946   0.001   4.908  10.578  0.2223 -0.3657  0.1246
 6428W        W 9947   1.942   7.095  11.853 -0.3707  0.0646  0.3919
 6429W        W 9948   4.500   2.578   2.854 -0.1124 -0.0094 -0.0468
 6430W        W 9949   4.930   9.295   2.272 -0.1418 -0.2180 -0.1668
 6431W        W 9950   9.487   3.719  10.787 -0.3194 -0.1330  0.0189
 6432W        W 9951   7.965   2.501  11.397  0.0034 -0.0903  0.1728
 6433W        W 9952   4.459   0.516   9.871 -0.0512  0.0530  0.0785
 6434W        W 9953   3.833   7.804  10.998 -0.1285  0.0877  0.4072
 6435W        W 9954   9.676   1.443   0.989  0.0671 -0.0937  0.1900
 6436W        W 9955   3.450   9.423   0.108  0.2660  0.0436 -0.0853
 6437W        W 9956   3.845   8.912   8.797 -0.0244 -0.1124  0.2476
 6438W        W 9957   9.022   7.000   3.078  0.0701 -0.0653  0.1575
 6439W        W 9958   6.619   1.197   1.341 -0.3499  0.1177 -0.2115
 6440W        W 9959   1.870   0.899  11.893 -0.1272  0.0804  0.0773
 6441W        W 9960   0.546   2.054   1.499 -0.1918 -0.1249  0.1940
 6442W        W 9961   6.899   7.993   3.112 -0.3042  0.0186 -0.1411
 6443W        W 9962   5.189   9.564   9.173  0.3130 -0.0086 -0.1199
 6444W        W 9963   9.740   8.946   9.852  0.0043  0.1010  0.1708
 6445W        W 9964   2.222   2.376   3.551  0.2721 -0.2026 -0.4346
 6446W        W 9965   8.991   2.105   7.811 -0.0178 -0.0958  0.1551
 6447W        W 9966   0.970   5.640   9.147  0.3110  0.0882 -0.0477
 6448W        W 9967   7.343   2.600   0.038 -0.3222  0.2453 -0.2816
 6449W        W 9968   9.545   5.347   7.167 -0.2031 -0.1520 -0.3191
 6450W        W 9969   3.271   8.616   3.153 -0.2138  0.0292 -0.1527
 6451W        W 9970   0.686   0.782   9.841  0.1181  0.1321  0.1010
 6452W        W 9971   2.771   4.321   2.915  0.1916  0.2605 -0.2384
 6453W        W 9972   0.656   4.504   0.233 -0.3284  0.1572 -0.1731
 6454W        W 9973   6.723   8.213  11.420 -0.0037 -0.4762 -0.1828
 6455W        W 9974   3.083   3.407   0.877 -0.1793  0.0430  0.3008
 6456W        W 9975   8.548   5.476  11.337  0.1338  0.0323  0.1937
 6457W        W 9976   1.326   3.657   3.467  0.1738  0.1180  0.3967
 6458W        W 9977   6.283   9.073   1.995  0.3416 -0.1308  0.0760
 6459W        W 9978   1.363   3.388   2.562  0.1123 -0.0590  0.1830
 6460W        W 9979   0.108   5.303  11.524  0.0303 -0.0415 -0.2537
 6461W        W 9980   6.057   2.562  11.304  0.1745  0.1519  0.0581
 6462W        W 9981   1.503   4.518   2.434  0.0622 -0.2149 -0.0152
 6463W        W 9982   9.838   5.782   8.123  0.0775 -0.0968  0.1193
 6464W        W 9983   7.996   9.517  11.976  0.3033  0.1524  0.2153
 6465W        W 9984   9.314   9.680   2.869 -0.2346  0.0176  0.0541
 6466W        W 9985   8.556   7.533   9.679  0.1419 -0.1978  0.3057
 6467W        W 9986   5.449   9.404   7.861 -0.1760  0.0956  0.0051
 6468W        W 9987   3.641   1.536   3.438  0.1330 -0.0504 -0.1894
 6469W        W 9988   7.450   4.856   9.059  0.0300 -0.0486  0.1378
 6470W        W 9989   7.363   7.702   1.988  0.3049  0.3391 -0.1297
 6471W        W 9990   4.211   0.482   1.049 -0.0328 -0.2883  0.0100
 6472W        W 9991   9.881   2.769   2.180  0.2114  0.3733 -0.2205
 6473W        W 9992   6.431   2.195   1.322  0.1056 -0.2757 -0.1266
 6474W        W 9993   4.169   5.460   1.620 -0.1086 -0.1180 -0.0601
 6475W        W 9994   7.163   9.296  10.476  0.0016  0.1338  0.0134
 6476W        W 9995   0.354   1.030  10.677  0.0582 -0.1361 -0.0233
 6477W        W 9996   6.370   7.837   9.380  0.3076 -0.1288  0.1441
 6478W        W 9997   2.965   9.449   1.013  0.0649  0.3662  0.2627
 6479W        W 9998   8.086   7.222   0.234  0.0318  0.1270  0.2103
 6480W        W 9999   2.052   4.445   1.124  0.0045 -0.1480  0.1887
 6481W        W10000   0.972   8.580   0.359 -0.1062  0.1260 -0.1408
 6482W        W10001   5.938   3.147   2.750  0.1106  0.0529  0.2453
 6483W        W10002   4.428   8.365   1.605 -0.0244 -0.3632  0.1402
 6484W        W10003   1.729   7.979   9.229  0.1161 -0.3207  0.1390
 6485W        W10004   0.373   8.668   8.092 -0.2580 -0.1877  0.1107
 6486W        W10005   0.905   9.851   2.177  0.1975  0.1074  0.1684
 6487W        W10006   0.299   2.768   9.436  0.3353  0.0708 -0.4845
 6488W        W10007   7.279   6.452   0.105 -0.1097  0.0229 -0.1046
 6489W        W10008   6.066   6.828  11.675 -0.1252 -0.0772 -0.0576
 6490W        W10009   4.354   3.719   0.919 -0.2191  0.0574 -0.3821
 6491W        W10010   3.668   8.339   0.082  0.1026 -0.1297 -0.0363
 6492W        W10011   7.864   5.488   3.274  0.1132  0.1213  0.0395
 6493W        W10012   5.747   4.223   1.970 -0.0124 -0.1872 -0.0309
 6494W        W10013   9.887   9.555   9.347 -0.2196  0.1028 -0.2151
 6495W        W10014   9.479   4.074   1.772 -0.0682  0.0868 -0.3244
 6496W        W10015   5.962   8.084   8.983 -0.0428  0.1357  0.0232
 6497W        W10016   2.076   3.053   8.431  0.0845  0.2778 -0.0316
 6498W        W10017   0.417   1.179  11.142 -0.3044 -0.1668 -0.1483
 6499W        W10018   0.749   4.649  11.718 -0.0378  0.1650  0.0626
 6500W        W10019   6.634   3.417  11.351  0.1437 -0.1164 -0.0521
 6501W        W10020   5.701   5.291   0.792 -0.1239 -0.0050 -0.1553
 6502W        W10021   9.833   8.510   0.941 -0.3107  0.0264  0.4084
 6503W        W10022   8.567   1.660   1.044  0.0452  0.0263  0.0188
 6504W        W10023   0.073   3.225   0.503  0.2192  0.0614 -0.0498
 6505W        W10024   7.058   4.610   9.267  0.2564 -0.0669  0.0357
 6506W        W10025   9.675   3.441   2.980 -0.1350  0.0408 -0.1575
 6507W        W10026   6.352   0.411  10.970  0.0389 -0.0576  0.1056
 6508W        W10027   3.929   2.249  11.089  0.2180 -0.0018 -0.0152
 6509W        W10028   6.046   0.600   0.769  0.2239  0.0552  0.1552
 6510W        W10029   8.897   2.326   3.082  0.1574  0.2147 -0.3378
 6511W        W10030   6.224   8.326   2.841 -0.3200  0.0277  0.1682
 6512W        W10031   8.446   4.075   8.123  0.1030  0.2887  0.0801
 6513W        W10032   6.444   4.315   8.312 -0.4721 -0.4333  0.0979
 6514W        W10033   7.586   5.352  10.520  0.1394  0.1277 -0.2047
 6515W        W10034   1.062   2.824   1.879 -0.3549  0.1490 -0.2883
 6516W        W10035   7.065   5.640   8.519  0.1165 -0.1146 -0.1209
 6517W        W10036   4.183   3.927   8.865 -0.1041  0.1656  0.0278
 6518W        W10037   8.262   5.444   8.218  0.0358  0.1196  0.0878
 6519W        W10038   4.844   2.184   2.444 -0.2500 -0.1605  0.0623
 6520W        W10039   1.359   5.277   2.749  0.0296  0.0313  0.1911
 6521W        W10040   0.692   3.072   0.453  0.0011  0.1433  0.2115
 6522W        W10041   9.296   3.487   8.406  0.0274 -0.3004 -0.2160
 6523W        W10042   3.525   6.986   9.364  0.0445  0.4152  0.0269
 6524W        W10043   1.360   0.785   8.813 -0.1582 -0.1999 -0.1794
 6525W        W10044   0.943   3.237   0.886  0.2501  0.1437 -0.1711
 6526W        W10045   7.173   1.038   0.737 -0.1508 -0.5106 -0.1475
 6527W        W10046   2.400   4.731   0.305 -0.1749 -0.0954  0.2330
 6528W        W10047   8.019   5.450   8.664  0.1056 -0.1382  0.0573
 6529W        W10048   4.088   6.650   8.236  0.2519  0.1284 -0.2564
 6530W        W10049   3.083   3.280   1.430 -0.0022 -0.0536  0.1983
 6531W        W10050   6.758   4.231   8.709 -0.2801  0.0407  0.1654
 6532W        W10051   9.425   7.344   2.178  0.1213 -0.0163  0.2559
 6533W        W10052   1.627   4.258   1.522  0.0998 -0.0550  0.1807
 6534W        W10053   5.405   3.106   2.857 -0.0526  0.1431 -0.0564
 6535W        W10054   0.732   5.192   0.756 -0.2239 -0.0945 -0.2765
 6536W        W10055   0.624   0.912   3.072  0.1979  0.2091 -0.0701
 6537W        W10056   0.848   6.951  10.318 -0.3733  0.1993 -0.4256
 6538W        W10057   7.321   2.473  10.094  0.1145  0.1173  0.2585
 6539W        W10058   4.000   6.845   9.507 -0.2898  0.2548  0.1722
 6540W        W10059   4.135   4.503   1.478  0.2480 -0.0750  0.2517
 6541W        W10060   2.764   0.867   9.321 -0.0447  0.0460 -0.1901
 6542W        W10061   0.523   7.722   9.551 -0.1973 -0.2299 -0.1429
 6543W        W10062   7.932   4.841  10.482  0.2992  0.0487 -0.0718
 6544W        W10063   4.052   3.587  10.302  0.1070  0.2740 -0.2308
 6545W        W10064   8.943   9.665   2.090 -0.1731  0.0416 -0.1616
 6546W        W10065   8.359   9.540   3.034  0.1803  0.3022  0.1433
 6547W        W10066   4.722   0.808  11.634 -0.0439 -0.4833 -0.1596
 6548W        W10067   1.703   9.009   8.103  0.1781  0.3036  0.4136
 6549W        W10068   4.492   7.771  11.535  0.0112 -0.2131 -0.0881
 6550W        W10069   1.474   4.533  11.615 -0.1785 -0.0486 -0.0606
 6551W        W10070   5.104   5.073   1.493  0.0306 -0.0214 -0.2945
 6552W        W10071   3.243   1.889   1.195 -0.2076 -0.0490  0.0042
 6553W        W10072   3.346   2.564   3.311  0.3630 -0.2367  0.2283
 6554W        W10073   1.801   7.251  11.392 -0.3374 -0.2072  0.0231
 6555W        W10074   8.705   9.229  11.517 -0.3404 -0.2048  0.0458
 6556W        W10075   9.122   7.792  11.219 -0.1929 -0.2498  0.0435
 6557W        W10076   0.063   5.278   1.569 -0.1309  0.1363 -0.0374
 6558W        W10077   5.165   3.288   9.010 -0.0579  0.2314 -0.1569
 6559W        W10078   9.459   3.418   9.785 -0.2704 -0.0322 -0.1442
 6560W        W10079   4.191   7.547  11.244  0.3003  0.3295 -0.2176
 6561W        W10080   4.725   3.075   1.231  0.3543 -0.3836  0.1018
 6562W        W10081   2.545   5.260   9.034 -0.0738  0.0152  0.0216
 6563W        W10082   0.716   2.911   4.610 -0.0529  0.0215  0.2182
 6564W        W10083   4.591   7.284   3.028  0.0629  0.1886 -0.4140
 6565W        W10084   4.423   2.080   2.690  0.0329  0.1057  0.2012
 6566W        W10085   4.794   8.164   7.831  0.0287  0.0923  0.1451
 6567W        W10086   0.893   1.031  11.372 -0.2148  0.0194  0.3549
 6568W        W10087   7.229   9.728  11.655  0.0622 -0.0061 -0.2606
 6569W        W10088   1.073   6.991   9.090  0.2460 -0.0325 -0.1479
 6570W        W10089   6.246   7.626   8.758 -0.0642  0.0598 -0.2413
 6571W        W10090   5.301   6.427   2.595  0.0108  0.1757 -0.2345
 6572W        W10091   9.286   6.898   2.194  0.1393 -0.3738 -0.1379
 6573W        W10092   1.951   8.337   7.460 -0.1416 -0.0556  0.0261
 6574W        W10093   9.351   1.531   9.184 -0.0345  0.1242  0.0493
 6575W        W10094   7.354   6.970  11.723  0.1223  0.1535  0.1097
 6576W        W10095   3.532   2.833   2.327  0.0641  0.3063 -0.1369
 6577W        W10096   4.969   7.362  11.450 -0.1045 -0.3023  0.2315
 6578W        W10097   6.748   9.572   0.601  0.0777  0.0766  0.0312
 6579W        W10098   6.284   3.867   0.031 -0.3093  0.2097 -0.4860
 6580W        W10099   2.593   5.628  10.153  0.1273  0.0540  0.3664
 6581W        W10100   6.988   1.915  11.582  0.0998  0.0130 -0.2812
 6582W        W10101   9.358   9.187  10.075  0.0002 -0.4238  0.1843
 6583W        W10102   7.932   2.319   8.242 -0.2632 -0.2363  0.0067
 6584W        W10103   3.483   3.196   3.176  0.1133 -0.2021 -0.2416
 6585W        W10104   4.778   6.666   1.876  0.0067  0.0897 -0.0333
 6586W        W10105   1.104   4.408   0.024 -0.0261  0.1926  0.1804
 6587W        W10106   8.968   5.833  10.938 -0.3776 -0.1871 -0.2072
 6588W        W10107   6.286   6.958   0.120 -0.0721 -0.0340  0.1076
 6589W        W10108   3.053   7.594  10.093  0.0782  0.3244  0.2965
 6590W        W10109   3.613   6.731  10.259  0.1833 -0.3359 -0.2930
 6591W        W10110   8.282   4.607  10.112  0.2373 -0.1555 -0.0586
 6592W        W10111   6.705   1.717   1.297  0.0946 -0.0191  0.1097
 6593W        W10112   0.970   3.282  11.141  0.2986  0.1756 -0.0704
 6594W        W10113   2.636   0.560  11.582  0.1557 -0.0335  0.0575
 6595W        W10114   8.307   5.214   3.100  0.2033 -0.3496  0.1480
 6596W        W10115   1.850   2.941  11.035 -0.0299  0.4867 -0.0408
 6597W        W10116   5.571   0.921   8.703  0.0789  0.4099  0.0244
 6598W        W10117   1.616   3.506   8.706 -0.4285  0.0052 -0.0149
 6599W        W10118   7.275   8.678  10.228 -0.2701 -0.1676  0.3083
 6600W        W10119   6.786   7.265   1.970  0.2502 -0.0606 -0.1979
 6601W        W10120   2.814   3.425   2.742 -0.0069 -0.5477  0.0041
 6602W        W10121   4.399   5.339   9.098 -0.0174  0.1774 -0.0195
 6603W        W10122   7.377   5.807  10.556 -0.2704 -0.0257  0.2631
 6604W        W10123   5.559   4.567   8.138  0.2599  0.1690  0.0440
 6605W        W10124   6.316   2.192  11.006 -0.3668  0.0725  0.0841
 6606W        W10125   3.883   7.655   2.243  0.0395  0.1765  0.1002
 6607W        W10126   4.182   2.854   1.286  0.0687 -0.0108 -0.1180
 6608W        W10127   2.088   5.849  10.375 -0.0218 -0.0202 -0.0741
 6609W        W10128   6.295   9.017   9.140  0.2846 -0.1972  0.0164
 6610W        W10129   8.104   4.126   1.630 -0.3206  0.1385 -0.1092
 6611W        W10130   6.897   6.556   7.862 -0.1440  0.0282  0.0535
 6612W        W10131   9.516   6.721  10.614 -0.1680  0.2654  0.0288
 6613W        W10132   8.726   7.663   1.715  0.0052 -0.5071  0.1829
 6614W        W10133   6.611   8.883   3.134 -0.2075  0.0208  0.2136
 6615W        W10134   2.405   4.200  10.045  0.0875  0.0132 -0.0754
 6616W        W10135   0.006   6.660   9.817 -0.2397  0.2973 -0.1332
 6617W        W10136   6.511   5.843   3.334  0.4328  0.2146 -0.1451
 6618W        W10137   0.689   4.451  11.044  0.0155 -0.0308 -0.0289
 6619W        W10138   5.032   5.399  10.522 -0.0352 -0.0404  0.2884
 6620W        W10139   7.754   8.163   0.398  0.3120  0.0909 -0.0173
 6621W        W10140   5.824   0.378  10.118  0.1135  0.1519 -0.0247
 6622W        W10141   8.366   7.665   2.930  0.1949  0.3913  0.2043
 6623W        W10142   0.839   9.805   0.298 -0.0489  0.0880 -0.0696
 6624W        W10143   3.354   8.176   7.562  0.0021 -0.0946 -0.0608
 6625W        W10144   0.694   8.864   1.934  0.2157 -0.0099  0.1194
 6626W        W10145   2.161   1.774  10.085  0.0985  0.0338 -0.1694
 6627W        W10146   6.307   0.569   9.879  0.2232  0.0486  0.0285
 6628W        W10147   8.593   4.030   2.387  0.2355 -0.0403  0.0017
 6629W        W10148   8.261   9.157   1.393 -0.3738  0.0296  0.1069
 6630W        W10149   0.095   0.609   9.210  0.1577  0.1791  0.0458
 6631W        W10150   0.363   3.531   1.621 -0.1228 -0.0370 -0.1673
 6632W        W10151   8.364   5.475   2.666 -0.1298 -0.1241 -0.0922
 6633W        W10152   6.857   2.889   0.907 -0.2716  0.2961  0.2879
 6634W        W10153   4.716   9.784   8.831 -0.2224  0.4505  0.2989
 6635W        W10154   0.304   6.067  11.861  0.0249  0.0426 -0.0151
 6636W        W10155   4.599   1.864   8.705 -0.1720  0.3850 -0.1286
 6637W        W10156   3.067   9.524   9.451  0.0139 -0.3314 -0.0363
 6638W        W10157   3.650   2.343   0.385 -0.3133  0.3414 -0.1732
 6639W        W10158   2.170   5.729   0.826 -0.1028 -0.0876  0.0351
 6640W        W10159   4.195   7.264   0.398  0.1625  0.0082  0.0814
 6641W        W10160   3.199   7.041  10.119 -0.0985 -0.1213  0.1533
 6642W        W10161   8.198   8.852   0.863  0.0989 -0.2796  0.0226
 6643W        W10162   0.473   9.458   9.452 -0.0929  0.0038  0.1774
 6644W        W10163   7.700   8.741   7.198 -0.1533 -0.0132  0.2341
 6645W        W10164   3.067   5.110   0.897 -0.0665  0.0017  0.1547
 6646W        W10165   2.645   6.072   8.370 -0.1674 -0.3024 -0.0349
 6647W        W10166   5.995   0.209   2.635 -0.1034 -0.2527  0.1947
 6648W        W10167   7.157   8.742   0.902  0.0832  0.2902  0.0971
 6649W        W10168   1.567   2.973   9.782 -0.3467 -0.1174  0.2265
 6650W        W10169   1.539   1.383  11.931  0.0008 -0.0690  0.2289
 6651W        W10170   2.483   4.147   1.087 -0.0248  0.1595 -0.1928
 6652W        W10171   7.129   0.321   2.275 -0.0706 -0.0544  0.0793
 6653W        W10172   3.338   5.972  11.931 -0.1902 -0.4271 -0.1787
 6654W        W10173   4.438   0.691   9.250 -0.0204 -0.0839  0.0384
 6655W        W10174   1.394   6.443  11.256 -0.1018 -0.0447 -0.4334
 6656W        W10175   2.380   0.141   1.789 -0.0985  0.0146 -0.1354
 6657W        W10176   0.290   4.952   2.646  0.0490 -0.1688  0.0671
 6658W        W10177   0.970   0.392   0.163  0.2669  0.2708 -0.1777
 6659W        W10178   8.335   9.734   1.979 -0.0426  0.1988 -0.0877
 6660W        W10179   1.189   4.080   3.321  0.2430 -0.1061  0.0672
 6661W        W10180   2.017   8.441   1.961  0.1749  0.1885  0.0333
 6662W        W10181   5.233   0.560   0.341 -0.0805 -0.0784 -0.0237
 6663W        W10182   4.587   7.915   1.635  0.1853 -0.0705 -0.0730
 6664W        W10183   5.087   8.964   1.246 -0.0882 -0.2293 -0.2849
 6665W        W10184   0.637   1.743   9.668  0.0350 -0.0830  0.1181
 6666W        W10185   6.168   6.517   1.764  0.0329 -0.2915 -0.0502
 6667W        W10186   7.117   4.923   3.064 -0.1027 -0.2088  0.2124
 6668W        W10187   3.873   9.053   9.245  0.1279 -0.0691 -0.0585
 6669W        W10188   6.215   0.336   8.781 -0.2612 -0.1442  0.0788
 6670W        W10189   5.313   5.926   1.842 -0.0865 -0.1406 -0.3466
 6671W        W10190   2.594   7.775   9.914 -0.2093  0.0747  0.3140
 6672W        W10191   3.998   1.778  11.267  0.0428 -0.2156 -0.1712
 6673W        W10192   5.699   5.643   1.594 -0.0127  0.2515 -0.1027
 6674W        W10193   8.942   3.431   9.771  0.0517 -0.0319 -0.2003
 6675W        W10194   1.195   8.446  10.979 -0.2461 -0.1304  0.2115
 6676W        W10195   3.143   5.760   1.008 -0.2225  0.0896  0.1502
 6677W        W10196   6.228   0.081   0.430 -0.1713  0.0045  0.1661
 6678W        W10197   8.748   4.733   7.230  0.1274  0.3684  0.1583
 6679W        W10198   0.074   2.736   9.847 -0.0756 -0.1700 -0.1633
 6680W        W10199   7.823   9.349   9.277 -0.3042  0.0869  0.1916
 6681W        W10200   3.681   3.357   9.571 -0.4119 -0.0703 -0.2998
 6682W        W10201   0.206   7.717   2.382  0.2954 -0.0773  0.0359
 6683W        W10202   3.332   0.570  11.238 -0.0199  0.0569  0.0460
 6684W        W10203   4.292   1.095   7.367 -0.0416 -0.1429 -0.4455
 6685W        W10204   5.333   3.925   9.797  0.0937  0.3360 -0.3135
 6686W        W10205   7.167   8.966   3.205 -0.1085  0.1657 -0.1754
 6687W        W10206   5.284   3.032  10.670  0.1646  0.0972  0.1638
 6688W        W10207   1.125   1.419  11.611  0.4178 -0.0923 -0.0973
 6689W        W10208   5.762   2.924   8.654 -0.0064  0.1842 -0.2689
 6690W        W10209   4.711   3.479   2.190 -0.3194  0.2426 -0.1971
 6691W        W10210   5.294   1.569   1.953  0.0822 -0.3277  0.1106
 6692W        W10211   0.317   5.065  10.972 -0.2329 -0.0307  0.1233
 6693W        W10212   9.718   7.339   3.028  0.2903  0.0334  0.4055
 6694W        W10213   6.599   8.408   3.357 -0.0247 -0.3895 -0.2502
 6695W        W10214   4.793   7.290   8.450  0.0611 -0.1323 -0.0401
 6696W        W10215   5.112   0.337  11.145 -0.3302  0.2872 -0.0417
 6697W        W10216   3.776   0.447   8.736 -0.1645 -0.0735  0.0689
 6698W        W10217   1.658   3.476  11.629  0.0084 -0.3275  0.0224
 6699W        W10218   6.347   0.298   8.209  0.0594 -0.1340  0.1608
 6700W        W10219   3.438   8.452  10.400  0.1588  0.1888 -0.3290
 6701W        W10220   2.461   1.259   3.108  0.1279 -0.0558 -0.0088
 6702W        W10221   8.651   0.829   2.021 -0.1173 -0.0808  0.2152
 6703W        W10222   0.812   2.711   9.340  0.1202  0.1346 -0.0396
 6704W        W10223   0.524   4.108   2.202 -0.1224 -0.4121  0.1361
 6705ION    NA+10224   9.746   5.362   2.615 -0.1676  0.4398  0.0994
 6706ION    NA+10225   6.980   2.678   3.741  0.2892 -0.1911  0.0739
 6707ION    NA+10226   6.263   0.744   1.218  0.0378 -0.3464 -0.0971
 6708ION    NA+10227   9.416   6.932   0.761  0.3536 -0.1838 -0.0424
 6709ION    NA+10228   7.663   1.121   9.423  0.0971  0.0006  0.2562
 6710ION    NA+10229   1.084   0.054  10.090 -0.2439  0.3143 -0.4233
 6711ION    NA+10230   0.821   5.982   3.632  0.2328  0.1272 -0.0589
 6712ION    NA+10231   1.599   8.772   3.160  0.0845 -0.3882  0.0114
 6713ION    NA+10232   2.539   6.207  10.964 -0.0331  0.1085 -0.0545
 6714ION    NA+10233   5.621   7.390   8.202 -0.2551  0.0674  0.1872
 6715ION    NA+10234   6.131   2.974   1.610 -0.0582  0.0075 -0.0968
 6716ION    NA+10235   2.687   4.491  11.371  0.1141  0.1853  0.1482
 6717ION    NA+10236   6.401   7.725  10.265 -0.1114 -0.0026  0.0725
 6718ION    NA+10237   7.180   2.139   7.563 -0.2445 -0.2436  0.3899
 6719ION    NA+10238   2.802   0.437   3.218 -0.0521 -0.0030 -0.0335
 6720ION    NA+10239   3.368   4.607   8.800  0.1230 -0.2345  0.2011
 6721ION    NA+10240   2.090   0.203   7.506  0.1256  0.3686 -0.3256
 6722ION    NA+10241   5.082   2.051   7.930  0.0692 -0.0603 -0.0088
 6723ION    NA+10242   8.385   8.338  11.651  0.3166  0.4265  0.1527
 6724ION    NA+10243   5.476   7.970   9.085  0.0454  0.5000  0.2343
 6725ION    NA+10244   9.054   4.665  11.771 -0.0301 -0.3180  0.1850
 6726ION    NA+10245   2.441   5.115   8.238 -0.0482 -0.1310 -0.0246
 6727ION    NA+10246   3.375   4.923   9.190  0.0593 -0.2436 -0.0970
 6728ION    NA+10247   7.166   4.353   3.551  0.1446 -0.2513 -0.2117
 6729ION    NA+10248   3.363   9.371  11.179 -0.3178  0.1280  0.2286
 6730ION    NA+10249   7.491   9.368   1.958  0.2339  0.0320  0.1446
 6731ION    NA+10250   7.276   1.287   9.119  0.1811  0.1963 -0.0419
 6732ION    NA+10251   4.289   9.753   9.171 -0.0674  0.0520 -0.1084
 6733ION    NA+10252   4.761   5.752   9.993  0.1902  0.1037  0.0164
 6734ION    NA+10253   4.832   2.971   2.080 -0.2946 -0.3529 -0.3474
 6735ION    NA+10254   4.372   6.225   1.106 -0.0590 -0.0017  0.1297
 6736ION    NA+10255   9.913   2.157   2.737  0.0261  0.0132 -0.2836
 6737ION    NA+10256   4.145   9.310  11.623  0.2176  0.1577 -0.1454
 6738ION    NA+10257   2.219   8.034   2.208  0.1469  0.3143 -0.1089
 6739ION    NA+10258   0.735   5.152  11.654 -0.0903 -0.2037  0.1989
 6740ION    NA+10259   1.700   5.698   9.762 -0.2726 -0.0656 -0.1135
 6741ION    NA+10260   4.936   8.440   0.162  0.3180  0.1005 -0.0842
 6742ION    NA+10261   0.612   0.216   3.810 -0.1361  0.0075  0.1432
 6743ION    NA+10262   4.614   9.736   3.771 -0.2400 -0.1208  0.0814
 6744ION    NA+10263   4.629   6.814  10.264 -0.1388  0.2019 -0.0163
 6745ION    NA+10264   1.520   9.262  11.050  0.0515 -0.0178  0.0030
 6746ION    NA+10265   5.956   6.380   8.188  0.0689  0.2593 -0.0303
 6747ION    NA+10266   0.785   6.638   1.807 -0.0920  0.1867 -0.0982
 6748ION    NA+10267   4.498   4.788   1.665 -0.0128 -0.3272 -0.1207
 6749ION    NA+10268   4.631   8.620   1.124 -0.1098  0.3096  0.2411
 6750ION    NA+10269   0.559   9.358   7.741  0.0321 -0.1666 -0.0457
 6751ION    NA+10270   6.925   1.589   9.847 -0.2456  0.1085 -0.0093
 6752ION    NA+10271   5.920   6.396   2.335  0.0746 -0.0850 -0.3790
 6753ION    NA+10272   5.674   5.653   2.112 -0.1903  0.2452 -0.2291
 6754ION    NA+10273   6.550   9.832   1.486 -0.0052  0.2705  0.1515
 6755ION    NA+10274   3.753   8.887   2.089 -0.1281  0.0564  0.0733
 6756ION    NA+10275   7.401   0.447   7.482 -0.2530  0.0932 -0.0112
 6757ION    NA+10276   7.972   5.626  11.965 -0.1019 -0.0854 -0.0747
 6758ION    NA+10277   5.475   8.567   8.316  0.0641 -0.1121  0.1213
 6759ION    NA+10278   0.415   4.188   9.070  0.0792  0.0956 -0.0715
 6760ION    NA+10279   8.767   2.892  10.459 -0.1242 -0.0119  0.0549
 6761ION    NA+10280   8.924   9.147   1.815  0.0090  0.1318  0.0408
 6762ION    NA+10281   0.204   1.796   1.886  0.0694  0.1067  0.3867
 6763ION    NA+10282   3.283   7.047   7.356  0.0561 -0.1722 -0.0433
 6764ION    NA+10283   0.905   2.583   0.331  0.0037 -0.0718 -0.2111
 6765ION    NA+10284   5.104   7.564   9.445  0.0296  0.1731  0.1351
 6766ION    NA+10285   5.995   1.819  11.303  0.1342  0.2651 -0.2338
 6767ION    NA+10286   0.583   7.748   4.177 -0.2836 -0.0017  0.1142
 6768ION    NA+10287   2.387   7.285   0.660  0.0942  0.1007  0.0779
 6769ION    NA+10288   2.899   1.717   8.552 -0.4598 -0.0951 -0.0770
 6770ION    NA+10289   5.188   9.748   9.660  0.2022 -0.0426 -0.0814
 6771ION    NA+10290   5.437   9.012   0.739  0.0262 -0.0314 -0.1379
 6772ION    NA+10291   1.315   2.137   2.475 -0.0684 -0.0940 -0.1892
 6773ION    NA+10292   2.408   7.953   3.569  0.2012 -0.1851  0.5106
 6774ION    NA+10293   2.032   7.369   8.768 -0.2583 -0.0115 -0.3912
 6775ION    NA+10294   4.125   7.880   9.950 -0.2114  0.1439  0.0999
 6776ION    CL-10295   7.672   4.126   2.777 -0.3244  0.2523  0.0759
 6777ION    CL-10296   9.182   8.785   1.530  0.1553  0.0096 -0.1660
 6778ION    CL-10297   5.801   7.930   8.125 -0.0702  0.0568 -0.1782
 6779ION    CL-10298   5.583   8.531   8.819 -0.4979 -0.1018 -0.4796
 6780ION    CL-10299   0.481   4.888  11.369  0.1655  0.2185  0.3522
 6781ION    CL-10300   0.721   3.266  10.124 -0.0553 -0.2924  0.1511
 6782ION    CL-10301   1.793   7.052   8.491 -0.1461  0.1501  0.3059
 6783ION    CL-10302   2.024   9.533   3.125 -0.3620 -0.2734 -0.0418
 6784ION    CL-10303   7.652   6.028   0.035 -0.1681 -0.0322 -0.2874
 6785ION    CL-10304   4.910   7.906   9.718 -0.1253  0.1422  0.0278
 6786ION    CL-10305   4.913   6.176   9.800  0.0465  0.1106 -0.1406
 6787ION    CL-10306   4.239   4.341   8.583 -0.0250 -0.0093  0.2953
 6788ION    CL-10307   1.221   7.003   2.301  0.0554  0.0022  0.0050
 6789ION    CL-10308   4.890   6.152   1.092  0.4184  0.0668 -0.0040
 6790ION    CL-10309   6.020   9.913   1.568  0.4705  0.0376 -0.1256
 6791ION    CL-10310   1.414   2.179  10.272  0.3558  0.2134  0.0794
 6792ION    CL-10311   1.542   5.663   9.225 -0.0827  0.3548  0.0073
 6793ION    CL-10312   6.028   4.635   2.877 -0.0976  0.0445  0.0928
 6794ION    CL-10313   7.378   9.780   2.205 -0.1150 -0.0542 -0.0778
 6795ION    CL-10314   7.037   1.868   0.886 -0.0769  0.1385  0.0746
 6796ION    CL-10315   9.500   6.458   0.875 -0.2277 -0.0487  0.1952
 6797ION    CL-10316   7.885   9.878  11.633 -0.0310  0.0022  0.0329
 6798ION    CL-10317   8.503   7.175   2.921 -0.2964 -0.0828 -0.2218
 6799ION    CL-10318   4.142   8.846   8.270  0.1881  0.2617 -0.1142
 6800ION    CL-10319   6.856   1.295   8.515  0.2252 -0.1008 -0.2422
 6801ION    CL-10320   4.944   9.000   0.791 -0.2137  0.0052 -0.1614
 6802ION    CL-10321   5.984   6.052   1.962 -0.0154  0.2846 -0.0361
 6803ION    CL-10322   1.874   7.641   2.257 -0.4054  0.1460 -0.0264
 6804ION    CL-10323   4.705   4.945   1.213 -0.0610  0.0529 -0.0741
 6805ION    CL-10324   8.026   1.098   2.827  0.0203  0.1151  0.0408
 6806ION    CL-10325   9.885   9.138   0.913 -0.0904  0.2194 -0.0093
 6807ION    CL-10326   5.829   0.936   1.085 -0.2289  0.0032 -0.1079
 6808ION    CL-10327   1.278   0.101  10.573 -0.1331  0.0405  0.2605
 6809ION    CL-10328   1.298   2.893   9.293 -0.0213  0.0035 -0.0861
 6810ION    CL-10329   6.152   7.293  10.193 -0.0106 -0.2000  0.2791
 6811ION    CL-10330   6.444   2.600   1.616 -0.0685  0.0898  0.0445
 6812ION    CL-10331   9.317   6.109   2.693 -0.0982 -0.3766  0.0151
 6813ION    CL-10332   0.363   9.007   3.268 -0.1766  0.2140 -0.1298
 6814ION    CL-10333   8.867   1.824   3.203 -0.2987  0.1506  0.0448
 6815ION    CL-10334   2.917   4.724   9.044 -0.0051  0.0706 -0.3678
 6816ION    CL-10335   6.959   9.524   1.406 -0.1693 -0.1118 -0.1252
 6817ION    CL-10336   0.139   5.049   2.086  0.2467 -0.2002  0.4313
 6818ION    CL-10337   9.317   5.359   2.865 -0.2886 -0.0613 -0.1873
 6819ION    CL-10338   0.745   2.902   3.690  0.0900  0.0554 -0.0427
 6820ION    CL-10339   6.651   1.598   9.407 -0.0895 -0.0867 -0.1470
 6821ION    CL-10340   9.040   3.398  10.595  0.3610  0.1049 -0.0083
 6822ION    CL-10341   9.692   0.756   3.567 -0.0929 -0.0445 -0.1413
 6823ION    CL-10342   9.420   4.904  11.496 -0.4484  0.0093  0.0961
 6824ION    CL-10343   9.209   8.653   3.602 -0.1021  0.2913 -0.4065
 6825ION    CL-10344   5.327   7.664   8.487 -0.0519 -0.1232  0.1189
 6826ION    CL-10345   2.531   7.756   0.439  0.1178 -0.0910 -0.0590
 6827ION    CL-10346   3.587   6.497   8.302 -0.1533  0.1279  0.2360
 6828ION    CL-10347   8.171   3.953   0.431  0.0290  0.0441 -0.0126
 6829ION    CL-10348   7.969   2.732   2.069 -0.3488 -0.4065  0.0995
 6830ION    CL-10349   7.434   7.436   3.092  0.0058 -0.0857 -0.2003
 6831ION    CL-10350   8.969   7.287   8.328  0.3933  0.1079 -0.2570
 6832ION    CL-10351   5.563   7.126   3.114 -0.1112  0.0306 -0.2131
 6833ION    CL-10352   4.711   8.128  11.865 -0.1925  0.3922 -0.1496
 6834ION    CL-10353   0.252   1.843   2.379 -0.3294 -0.0359 -0.1653
 6835ION    CL-10354   9.274   0.179   9.551 -0.0115  0.0525 -0.2168
 6836ION    CL-10355   6.703   0.485   1.275 -0.0646 -0.0893  0.1898
 6837ION    CL-10356   5.805   2.331   0.097  0.0054 -0.0723 -0.1033
 6838ION    CL-10357   3.706   9.122  11.536 -0.1074 -0.1038  0.3497
 6839ION    CL-10358   9.195   8.149   2.720  0.0404 -0.4694  0.0392
 6840ION    CL-10359   7.323   0.930   9.810  0.1049  0.1374 -0.4133
 6841ION    CL-10360   8.404   4.559   2.367 -0.2594  0.1570 -0.1018
 6842ION    CL-10361   7.572   4.904   8.207  0.1175 -0.2695  0.3448
 6843ION    CL-10362   4.810   9.807   9.343 -0.1538  0.1684 -0.0859
 6844ION    CL-10363   1.465   4.920  11.109  0.1715 -0.0627 -0.3352
 6845ION    CL-10364   0.084   8.172   8.121 -0.3745 -0.0076  0.4015
 6846ION    CL-10365   4.997   6.717   7.896  0.2176  0.0357 -0.0404
   9.92378   9.92378  12.01486
