Protein in INSANE! Membrane UpperLeaflet>POPC=1.0 LowerLeaflet>POPC=1.0
11530
    1AU     AUC    1   2.267   5.013   5.973 -0.0695  0.0683 -0.0400
    1AU     AUC    2   2.477   5.294   5.995 -0.0532 -0.0599  0.0599
    1AU     AUC    3   2.484   5.061   5.763  0.0936 -0.0099  0.0447
    1AU     AUC    4   2.012   4.961   6.206  0.0778  0.0474  0.0348
    1AU     AUC    5   2.083   4.739   5.934 -0.0654  0.0847 -0.1007
    1AU     AUC    6   2.294   4.789   6.157 -0.0037 -0.0900 -0.0069
    1AU     AUC    7   2.538   4.987   6.086 -0.0430 -0.0055  0.0669
    1AU     AUC    8   1.955   5.057   5.901 -0.0199  0.0549 -0.0305
    1AU     AUC    9   2.225   5.262   5.777  0.0040 -0.0266  0.0324
    1AU     AUC   10   2.206   4.912   5.658 -0.0330 -0.1094  0.1332
    1AU     AUC   11   2.430   4.736   5.841  0.0368  0.0669 -0.0464
    1AU     AUC   12   2.123   5.297   6.101 -0.0619 -0.0130  0.0167
    1AU     AUC   13   2.347   5.111   6.275  0.0184  0.0324 -0.0198
    1AU     AUC   14   2.687   5.581   6.035  0.0356 -0.0693 -0.0470
    1AU     AUC   15   2.755   5.382   5.756  0.0002 -0.0336  0.0446
    1AU     AUC   16   2.737   5.120   5.504 -0.1451  0.0200  0.0119
    1AU     AUC   17   1.760   4.862   6.402  0.0510  0.0425  0.0160
    1AU     AUC   18   1.790   4.648   6.137 -0.0904  0.1402  0.0439
    1AU     AUC   19   1.916   4.491   5.880  0.0513  0.0306 -0.0748
    1AU     AUC   20   2.353   4.530   6.403  0.1221 -0.0365  0.0297
    1AU     AUC   21   2.652   4.726   6.343  0.0586 -0.0501  0.0078
    1AU     AUC   22   2.893   4.907   6.187 -0.0887 -0.0572  0.0172
    1AU     AUC   23   1.637   5.129   5.792  0.0329 -0.0212 -0.0077
    1AU     AUC   24   1.867   5.365   5.705  0.0389  0.0980  0.0123
    1AU     AUC   25   2.156   5.543   5.587 -0.0735 -0.0669  0.0701
    1AU     AUC   26   2.133   4.854   5.345 -0.0525 -0.0083  0.0157
    1AU     AUC   27   2.373   4.622   5.483 -0.0066 -0.0303  0.0871
    1AU     AUC   28   2.583   4.490   5.738 -0.0059 -0.0245 -0.0853
    1AU     AUC   29   1.942   5.609   6.238 -0.1086  0.0306 -0.0368
    1AU     AUC   30   2.178   5.429   6.431 -0.0117 -0.0819 -0.0635
    1AU     AUC   31   2.417   5.247   6.591 -0.1028 -0.0334  0.0334
    1AU     AUC   32   2.424   4.992   5.380 -0.0184  0.1132  0.0719
    1AU     AUC   33   2.680   4.762   5.540  0.0265 -0.0681 -0.1246
    1AU     AUC   34   2.313   5.594   6.146 -0.1043  0.0448  0.0411
    1AU     AUC   35   2.554   5.448   6.342  0.0543 -0.0960  0.0119
    1AU     AUC   36   2.016   4.639   5.573  0.1456  0.0085 -0.1232
    1AU     AUC   37   2.242   4.438   5.830 -0.0399  0.0282 -0.0649
    1AU     AUC   38   1.829   5.225   6.329  0.0805  0.0076 -0.0170
    1AU     AUC   39   2.051   5.046   6.499 -0.0338  0.1023  0.0506
    1AU     AUC   40   2.797   5.275   6.071  0.0579  0.0272 -0.0158
    1AU     AUC   41   2.818   5.001   5.813  0.0387 -0.1128 -0.0772
    1AU     AUC   42   2.052   4.681   6.451 -0.0131 -0.0326  0.1010
    1AU     AUC   43   2.149   4.438   6.152  0.0803  0.0592 -0.0164
    1AU     AUC   44   2.418   5.559   5.792 -0.0050  0.0350  0.0696
    1AU     AUC   45   2.443   5.375   5.532 -0.0346 -0.0356  0.0156
    1AU     AUC   46   1.665   4.960   6.082  0.0274  0.0971  0.0083
    1AU     AUC   47   1.760   4.802   5.796  0.0523  0.1036  0.0091
    1AU     AUC   48   2.501   4.496   6.084 -0.0613  0.0013  0.0334
    1AU     AUC   49   2.705   4.685   5.984 -0.0226  0.0225  0.0743
    1AU     AUC   50   1.853   5.015   5.544  0.0285 -0.0865 -0.0061
    1AU     AUC   51   2.115   5.239   5.457  0.0698  0.0426  0.0372
    1AU     AUC   52   2.362   4.895   6.539  0.0258  0.0139  0.0880
    1AU     AUC   53   2.633   5.115   6.393 -0.0215 -0.0218 -0.0336
    1AU     AUC   54   1.743   5.340   6.032 -0.0607 -0.0255 -0.0700
    1AU     AUC   55   2.045   5.574   5.935  0.1089  0.0430 -0.0250
    1AU    AUSL   56   2.748   4.938   5.193  0.0299 -0.0681 -0.0167
    1AU    AUSL   57   2.286   5.114   5.049 -0.0342 -0.0511  0.0044
    1AU     AUL   58   2.646   5.088   4.909 -0.0049 -0.0470 -0.0258
    1AU       S   59   2.384   5.432   4.767 -0.0944 -0.0430  0.2742
    1AU     LIG   60   2.795   5.394   4.570 -0.2181  0.1399  0.0246
    1AU     LIG   61   3.279   5.640   4.499  0.1442  0.0062 -0.0853
    1AU       S   62   2.659   4.652   4.803  0.0555  0.0357  0.2566
    1AU     LIG   63   3.144   4.662   4.672 -0.1922  0.1984  0.0118
    1AU     LIG   64   3.509   4.801   4.369  0.2411 -0.0475  0.0306
    1AU    AUSL   65   2.369   4.702   5.177 -0.1053  0.0138 -0.0681
    1AU    AUSL   66   2.410   4.383   5.524 -0.0726 -0.1040  0.0347
    1AU     AUL   67   2.416   4.284   5.092 -0.0042  0.0079 -0.1224
    1AU       S   68   2.384   4.681   4.878 -0.0292 -0.0357 -0.2049
    1AU     LIG   69   2.202   4.317   4.585 -0.1193  0.1721 -0.0656
    1AU     LIG   70   1.976   4.146   4.245  0.3293 -0.2030 -0.0661
    1AU       S   71   1.893   4.048   5.001 -0.1728  0.2114  0.0889
    1AU     LIG   72   1.622   4.025   4.659 -0.1652 -0.0803  0.0622
    1AU     LIG   73   1.215   4.159   4.581  0.2315 -0.2815  0.3466
    1AU    AUSL   74   2.737   4.512   5.290 -0.0312  0.0478  0.0022
    1AU    AUSL   75   3.044   4.799   5.480  0.0170  0.0685 -0.0390
    1AU     AUL   76   3.036   4.783   5.163 -0.0764 -0.0173  0.0117
    1AU       S   77   2.842   4.334   5.139 -0.4670  0.0479  0.1350
    1AU     LIG   78   2.855   3.928   5.229 -0.0373 -0.0345 -0.1671
    1AU     LIG   79   2.882   3.872   5.672  0.0960 -0.0202  0.1314
    1AU       S   80   3.277   4.441   5.411 -0.0066 -0.1078  0.0847
    1AU     LIG   81   3.335   4.288   5.014 -0.0863 -0.2734  0.1213
    1AU     LIG   82   3.079   4.058   4.726 -0.1904  0.0368  0.0761
    1AU    AUSL   83   2.620   5.782   6.375 -0.0425 -0.0163 -0.0751
    1AU    AUSL   84   2.847   5.447   6.608  0.0328 -0.0277  0.0582
    1AU     AUL   85   2.809   5.821   6.678  0.0536 -0.0009 -0.0002
    1AU       S   86   2.366   6.062   6.676 -0.1003 -0.3695  0.1616
    1AU     LIG   87   2.796   6.315   6.513 -0.0586  0.0810  0.2774
    1AU     LIG   88   3.048   6.319   6.229 -0.1415  0.0115 -0.1310
    1AU       S   89   3.217   5.589   6.662  0.2857 -0.0571  0.1673
    1AU     LIG   90   3.173   5.993   6.943 -0.0714  0.2366 -0.5784
    1AU     LIG   91   2.833   6.335   6.985 -0.0649 -0.0853 -0.3479
    1AU    AUSL   92   2.179   5.731   6.417 -0.0361  0.0537  0.0250
    1AU    AUSL   93   2.439   5.725   5.993 -0.1177  0.0202  0.0891
    1AU     AUL   94   2.518   6.003   6.250 -0.0425 -0.0584  0.0691
    1AU       S   95   2.207   6.457   5.925  0.1859 -0.0234 -0.0002
    1AU     LIG   96   2.132   6.881   6.024 -0.0431  0.1586  0.1196
    1AU     LIG   97   2.395   7.246   6.062 -0.0513 -0.0272  0.2878
    1AU       S   98   2.081   6.000   6.503 -0.2057 -0.0097  0.2712
    1AU     LIG   99   1.669   6.042   6.554  0.1954 -0.3752  0.0829
    1AU     LIG  100   1.254   5.923   6.462  0.1928  0.0565 -0.0143
    1AU    AUSL  101   2.437   5.552   6.716  0.0576 -0.0695 -0.0685
    1AU    AUSL  102   1.823   5.592   6.584 -0.0327 -0.0031  0.0805
    1AU     AUL  103   2.127   5.696   6.839  0.0080  0.0585 -0.0921
    1AU       S  104   1.619   5.614   6.898 -0.2900 -0.2248 -0.1376
    1AU     LIG  105   1.533   5.992   7.186  0.0638  0.0359  0.0917
    1AU     LIG  106   1.643   6.249   7.614 -0.2427  0.3430  0.4825
    1AU       S  107   2.169   6.252   6.494  0.3317 -0.2493  0.3687
    1AU     LIG  108   2.438   6.585   6.309 -0.0724 -0.1713 -0.2557
    1AU     LIG  109   2.771   6.852   6.308 -0.3087  0.3048 -0.0297
    1AU    AUSL  110   2.011   4.251   5.650 -0.0199 -0.0880  0.0199
    1AU    AUSL  111   2.513   4.148   5.859  0.0521  0.0259  0.0302
    1AU     AUL  112   2.390   4.051   5.538  0.0439 -0.0165  0.0106
    1AU       S  113   2.055   3.961   5.264  0.3270 -0.0059  0.4843
    1AU     LIG  114   1.793   3.789   5.546 -0.1185  0.1976 -0.0224
    1AU     LIG  115   1.650   3.521   5.728 -0.1317  0.5075 -0.0928
    1AU       S  116   2.397   3.793   5.946  0.1627 -0.2425 -0.1562
    1AU     LIG  117   2.561   3.527   5.889  0.4634 -0.0833  0.4083
    1AU     LIG  118   2.878   3.292   5.772  0.1390 -0.1519 -0.0142
    1AU    AUSL  119   2.035   4.444   5.271 -0.0461 -0.0486  0.0816
    1AU    AUSL  120   1.795   4.603   5.607  0.0602  0.0473  0.0193
    1AU     AUL  121   1.728   4.250   5.443 -0.0721  0.0814 -0.0240
    1AU       S  122   1.430   4.472   5.178 -0.1630  0.1094 -0.6374
    1AU     LIG  123   1.442   4.005   5.163  0.1566 -0.0232 -0.1921
    1AU     LIG  124   1.372   3.583   5.300 -0.1625  0.0579 -0.3302
    1AU       S  125   1.952   4.296   5.037 -0.2426  0.0242  0.1204
    1AU     LIG  126   1.831   4.651   4.730 -0.2193 -0.0290  0.0526
    1AU     LIG  127   1.718   4.577   4.313 -0.2191 -0.1252 -0.1902
    1AU    AUSL  128   1.681   5.195   6.669 -0.0069  0.0070 -0.0015
    1AU    AUSL  129   1.699   5.382   6.244  0.0450  0.0069  0.1449
    1AU     AUL  130   1.473   5.505   6.500  0.0605  0.0226  0.0408
    1AU       S  131   1.424   5.224   6.921 -0.1802 -0.2909  0.4007
    1AU     LIG  132   1.104   5.021   7.000  0.3157  0.0544  0.1978
    1AU     LIG  133   0.944   4.598   7.082  0.1211 -0.1440  0.2049
    1AU       S  134   0.970   5.102   6.393 -0.1282  0.4044 -0.0445
    1AU     LIG  135   0.676   5.049   6.704 -0.0651 -0.2931  0.4173
    1AU     LIG  136   0.632   4.970   7.166 -0.0792 -0.0064 -0.1772
    1AU    AUSL  137   2.130   5.269   6.647 -0.0424 -0.0273 -0.0744
    1AU    AUSL  138   1.904   4.851   6.752  0.0374  0.0220  0.0339
    1AU     AUL  139   1.912   5.238   6.942 -0.0238  0.0461 -0.0138
    1AU       S  140   1.840   4.792   7.056 -0.1482 -0.0711 -0.1146
    1AU     LIG  141   1.456   4.701   7.202  0.1450 -0.2336  0.0165
    1AU     LIG  142   1.052   4.817   7.521 -0.1615 -0.1670 -0.1482
    1AU       S  143   1.399   5.431   7.072 -0.0526 -0.1973  0.4670
    1AU     LIG  144   1.113   5.774   7.270 -0.3302 -0.1366  0.1248
    1AU     LIG  145   1.077   6.208   7.200  0.0546 -0.0246 -0.1714
    1AU    AUSL  146   3.170   5.101   6.027 -0.0193  0.0447 -0.0029
    1AU    AUSL  147   2.948   5.555   6.196  0.0742 -0.0048 -0.0260
    1AU     AUL  148   3.282   5.312   6.248 -0.0005 -0.0936  0.0786
    1AU       S  149   3.151   5.724   6.289 -0.2484  0.0737  0.3762
    1AU     LIG  150   3.276   6.054   5.896 -0.1678 -0.0976 -0.3196
    1AU     LIG  151   3.448   6.399   5.671 -0.0308 -0.0084  0.6098
    1AU       S  152   3.382   5.226   5.457  0.1213  0.1001  0.0130
    1AU     LIG  153   3.884   5.403   5.545 -0.2200 -0.0674 -0.2002
    1AU     LIG  154   4.096   5.773   5.777 -0.1123 -0.0766 -0.0849
    1AU    AUSL  155   3.111   5.494   5.824  0.0718 -0.0389 -0.0359
    1AU    AUSL  156   2.871   5.524   5.438 -0.0697  0.0608 -0.0893
    1AU     AUL  157   3.194   5.717   5.528 -0.0359 -0.0245  0.0795
    1AU       S  158   3.409   5.330   5.699  0.1262 -0.5821  0.2096
    1AU     LIG  159   3.560   5.656   6.001 -0.2751 -0.0646 -0.0049
    1AU     LIG  160   3.874   6.041   6.067  0.0617  0.4332 -0.2529
    1AU       S  161   2.809   5.921   5.287  0.1179  0.0616 -0.1364
    1AU     LIG  162   2.847   6.333   4.950  0.0314  0.0460 -0.0503
    1AU     LIG  163   2.665   6.636   4.642 -0.0907  0.1914 -0.3264
    1AU    AUSL  164   2.911   5.153   5.659 -0.0301 -0.0267  0.0384
    1AU    AUSL  165   2.904   4.795   5.906 -0.1283  0.0405 -0.0194
    1AU     AUL  166   3.244   4.877   5.732  0.0477 -0.0057  0.0570
    1AU       S  167   3.325   4.263   5.605  0.1974  0.1789 -0.2069
    1AU     LIG  168   3.608   4.507   5.845  0.1429  0.1459  0.3152
    1AU     LIG  169   3.747   4.986   5.834 -0.1552  0.2008 -0.3833
    1AU       S  170   3.213   5.218   5.349  0.2403 -0.0084  0.1492
    1AU     LIG  171   3.190   5.177   4.888  0.0529 -0.2607 -0.0359
    1AU     LIG  172   3.170   5.106   4.444 -0.0559  0.1857 -0.1101
    1AU    AUSL  173   2.072   4.331   6.467  0.0380 -0.0347  0.0246
    1AU    AUSL  174   2.091   4.109   6.045 -0.0585 -0.0124  0.0599
    1AU     AUL  175   1.939   3.994   6.384  0.0245  0.0638  0.0013
    1AU       S  176   2.111   3.854   5.924 -0.1277  0.0169  0.1926
    1AU     LIG  177   2.008   3.374   6.100 -0.1949 -0.1934 -0.3507
    1AU     LIG  178   2.122   3.010   5.810 -0.1996  0.2948  0.0996
    1AU       S  179   2.224   4.080   6.766 -0.3330 -0.2886 -0.4427
    1AU     LIG  180   2.546   3.825   6.837 -0.2391 -0.1917 -0.2687
    1AU     LIG  181   2.983   3.766   6.739 -0.1688  0.0125 -0.2510
    1AU    AUSL  182   1.716   4.567   6.526 -0.0648  0.0435 -0.0496
    1AU    AUSL  183   2.236   4.556   6.786  0.0626  0.0143  0.0310
    1AU     AUL  184   1.880   4.411   6.791 -0.0202  0.0693  0.0268
    1AU       S  185   1.436   4.737   6.729  0.0519  0.0060 -0.0951
    1AU     LIG  186   1.019   4.583   6.578 -0.3714  0.0146 -0.2606
    1AU     LIG  187   0.675   4.695   6.307 -0.2145 -0.2841  0.2141
    1AU       S  188   2.236   4.496   7.148  0.0043 -0.3607  0.1091
    1AU     LIG  189   1.829   4.472   7.421  0.2605 -0.2510  0.0159
    1AU     LIG  190   1.405   4.366   7.510 -0.0420  0.2127 -0.6008
    1AU    AUSL  191   1.832   4.430   6.116  0.0067  0.0225 -0.0519
    1AU    AUSL  192   1.441   4.605   6.209  0.0962  0.0309 -0.1171
    1AU     AUL  193   1.552   4.313   6.358 -0.0036 -0.0272 -0.0942
    1AU       S  194   1.140   4.255   6.146  0.2511 -0.1494 -0.0321
    1AU     LIG  195   1.179   3.843   6.355  0.1918 -0.2230 -0.2586
    1AU     LIG  196   1.594   3.607   6.321 -0.1729  0.0234  0.0019
    1AU       S  197   1.643   4.018   5.988  0.2130  0.1160 -0.1029
    1AU     LIG  198   1.293   3.859   5.720  0.0284  0.3820 -0.2110
    1AU     LIG  199   0.903   4.142   5.524 -0.2659 -0.0055 -0.0322
    1AU    AUSL  200   2.484   5.672   5.529 -0.1317 -0.0343  0.0344
    1AU    AUSL  201   2.548   5.275   5.356  0.0349  0.1125 -0.0170
    1AU     AUL  202   2.708   5.468   5.145 -0.0302 -0.0029 -0.0379
    1AU       S  203   2.543   5.927   5.315 -0.0799  0.1841  0.0626
    1AU     LIG  204   2.483   6.394   5.313  0.2108 -0.1637 -0.3778
    1AU     LIG  205   2.187   6.779   5.433 -0.0094  0.0122 -0.3785
    1AU       S  206   2.432   5.684   4.726  0.1190 -0.0717  0.0357
    1AU     LIG  207   2.422   6.105   4.862  0.1012 -0.0164  0.1154
    1AU     LIG  208   2.177   6.543   4.936 -0.0737  0.0652  0.3979
    1AU    AUSL  209   2.809   5.798   5.803  0.0650  0.0180  0.0113
    1AU    AUSL  210   2.181   5.948   5.622 -0.1087  0.0251  0.0147
    1AU     AUL  211   2.537   5.983   5.758 -0.0169  0.0327  0.0319
    1AU       S  212   2.851   6.031   5.399 -0.1611  0.2154 -0.2112
    1AU     LIG  213   2.904   6.344   5.759 -0.3933  0.4720 -0.1446
    1AU     LIG  214   2.572   6.753   5.838  0.0510  0.0790  0.0993
    1AU       S  215   2.186   6.280   5.680 -0.3358 -0.2506 -0.3785
    1AU     LIG  216   1.975   6.380   5.427 -0.2329 -0.0590  0.0951
    1AU     LIG  217   1.706   6.586   5.211  0.1620 -0.4483  0.2835
    1AU    AUSL  218   1.493   4.882   5.859  0.0349 -0.0311 -0.0360
    1AU    AUSL  219   1.500   5.012   6.339  0.0472 -0.0242  0.0525
    1AU     AUL  220   1.222   4.796   6.111 -0.0495  0.0747 -0.0465
    1AU       S  221   1.220   5.128   6.468 -0.5103  0.4088 -0.0375
    1AU     LIG  222   1.051   5.439   6.716  0.0543 -0.1980  0.3324
    1AU     LIG  223   0.853   5.862   6.823 -0.2825  0.0223 -0.4756
    1AU       S  224   0.976   4.358   5.977  0.6465 -0.0850 -0.1704
    1AU     LIG  225   0.780   4.559   5.803 -0.0455  0.1567  0.0099
    1AU     LIG  226   0.456   4.753   5.575 -0.0579  0.0357  0.0430
    1AU    AUSL  227   1.491   4.429   5.834 -0.0154  0.0283 -0.0639
    1AU    AUSL  228   1.468   4.853   5.420  0.0352  0.0832  0.0484
    1AU     AUL  229   1.366   4.649   5.611 -0.0247  0.0043  0.0331
    1AU       S  230   1.276   4.730   5.131 -0.1964  0.0811  0.1677
    1AU     LIG  231   0.898   4.611   5.277 -0.4099 -0.1144 -0.2344
    1AU     LIG  232   0.547   4.783   5.077  0.0365  0.0340 -0.3435
    1AU       S  233   1.193   4.309   5.881 -0.1843  0.1982  0.1685
    1AU     LIG  234   0.851   3.874   5.991  0.0807  0.0722 -0.1178
    1AU     LIG  235   0.512   3.571   5.895  0.0292 -0.3145  0.0581
    1AU    AUSL  236   2.785   4.384   6.077  0.0286 -0.0309  0.0743
    1AU    AUSL  237   2.439   4.239   6.292 -0.0087 -0.0879  0.0030
    1AU     AUL  238   2.745   4.064   6.132 -0.0814 -0.0583 -0.0110
    1AU       S  239   2.401   3.852   6.346 -0.0782  0.2005  0.4013
    1AU     LIG  240   2.765   3.523   6.358 -0.0345 -0.2285  0.0257
    1AU     LIG  241   3.068   3.629   6.061 -0.2862 -0.0355  0.1711
    1AU       S  242   3.147   4.198   6.327 -0.2579 -0.3607 -0.2876
    1AU     LIG  243   3.301   4.047   6.017 -0.1352 -0.1060 -0.5709
    1AU     LIG  244   3.665   4.003   5.788 -0.0634 -0.0748  0.1355
    1AU    AUSL  245   2.761   4.432   6.484  0.0271 -0.0450  0.0162
    1AU    AUSL  246   2.944   4.858   6.612  0.0133 -0.0488  0.0836
    1AU     AUL  247   2.993   4.513   6.754 -0.0246  0.0226 -0.0227
    1AU       S  248   3.404   4.300   6.485  0.2160 -0.0241 -0.0992
    1AU     LIG  249   3.744   4.360   6.321 -0.0280  0.0843  0.0124
    1AU     LIG  250   4.002   4.283   5.980  0.2041 -0.0014  0.0322
    1AU       S  251   3.030   4.887   7.055  0.2720 -0.1217  0.3243
    1AU     LIG  252   3.423   4.732   6.823  0.1651  0.1114 -0.2258
    1AU     LIG  253   3.872   4.691   6.668  0.1768 -0.2120  0.1360
    1AU    AUSL  254   3.066   4.665   6.259  0.1202 -0.0496  0.0162
    1AU    AUSL  255   2.865   4.435   5.677 -0.0877  0.0101  0.0461
    1AU     AUL  256   3.126   4.495   5.935 -0.0825 -0.0080 -0.0876
    1AU       S  257   3.122   4.285   5.520  0.0486 -0.0245 -0.2012
    1AU     LIG  258   3.378   3.896   5.299 -0.0547  0.2164 -0.0860
    1AU     LIG  259   3.347   3.571   5.679  0.0935 -0.7260  0.0975
    1AU       S  260   3.274   4.525   6.383  0.1892 -0.1564  0.0527
    1AU     LIG  261   3.521   4.891   6.308  0.1002 -0.1796 -0.2083
    1AU     LIG  262   3.803   5.249   6.280 -0.1943 -0.1453 -0.1498
    1AU    AUSL  263   1.987   5.159   5.339  0.0618  0.0307 -0.1245
    1AU    AUSL  264   2.236   5.522   5.213 -0.0022  0.0378  0.0073
    1AU     AUL  265   1.988   5.264   4.971  0.0005  0.0929 -0.1091
    1AU       S  266   0.999   5.293   5.627  0.1253 -0.2876  0.3779
    1AU     LIG  267   0.685   5.638   5.549  0.1269 -0.0475 -0.0163
    1AU     LIG  268   0.243   5.756   5.438 -0.3022  0.1949 -0.1856
    1AU       S  269   2.271   5.655   5.038  0.2100 -0.3829 -0.0224
    1AU     LIG  270   2.010   5.981   5.157  0.2790 -0.1844 -0.2228
    1AU     LIG  271   1.712   6.176   4.901  0.2622 -0.0998  0.0415
    1AU    AUSL  272   1.613   5.221   5.548 -0.0189 -0.0257 -0.0824
    1AU    AUSL  273   1.830   4.791   5.202  0.0502 -0.0623 -0.0609
    1AU     AUL  274   1.597   5.075   5.168 -0.0280 -0.0132  0.1371
    1AU       S  275   1.215   5.231   5.530  0.1401 -0.0289  0.2742
    1AU     LIG  276   0.924   5.246   5.079 -0.1222 -0.1727  0.1956
    1AU     LIG  277   0.756   5.168   4.679 -0.4492  0.4753 -0.1131
    1AU       S  278   1.337   4.500   4.952 -0.1016 -0.1075 -0.2589
    1AU     LIG  279   1.013   4.217   5.022  0.1794 -0.0771 -0.1985
    1AU     LIG  280   1.014   3.784   4.996 -0.3163  0.1176 -0.1148
    1AU    AUSL  281   1.838   5.560   5.375  0.0727  0.0296  0.0263
    1AU    AUSL  282   1.526   5.582   5.760  0.0037  0.0049  0.0185
    1AU     AUL  283   1.504   5.530   5.358 -0.0204  0.0274  0.0474
    1AU       S  284   1.203   5.791   5.631 -0.2176 -0.3041 -0.1455
    1AU     LIG  285   1.049   5.720   5.212  0.0783  0.2025 -0.4014
    1AU     LIG  286   0.611   5.781   5.029  0.2424 -0.0029  0.0603
    1AU       S  287   1.059   5.025   5.665 -0.3542 -0.0629  0.2473
    1AU     LIG  288   0.739   5.092   5.936  0.2622 -0.0771 -0.2782
    1AU     LIG  289   0.340   5.035   6.185  0.1246 -0.2760  0.0725
    1AU    AUSL  290   2.616   5.108   6.716 -0.0673 -0.0439  0.0247
    1AU    AUSL  291   2.862   5.136   6.311  0.0341  0.0086 -0.0296
    1AU     AUL  292   3.041   5.154   6.661  0.0025  0.0725 -0.0121
    1AU       S  293   2.765   5.241   7.013  0.1779 -0.0759 -0.1354
    1AU     LIG  294   2.921   5.625   7.187 -0.2050  0.2218 -0.2702
    1AU     LIG  295   2.947   5.854   7.496  0.0020  0.3038 -0.0975
    1AU       S  296   3.278   5.911   6.459 -0.1405  0.1288 -0.0876
    1AU     LIG  297   3.682   5.786   6.439  0.2623  0.1814  0.1749
    1AU     LIG  298   3.972   5.943   6.632 -0.1053  0.3525 -0.0998
    1AU    AUSL  299   2.491   4.746   6.526 -0.0312  0.0234  0.0418
    1AU    AUSL  300   2.287   4.981   6.910  0.0203  0.0967  0.0665
    1AU     AUL  301   2.562   4.730   6.902 -0.0988  0.0942 -0.0640
    1AU       S  302   2.962   5.113   7.225 -0.2840 -0.2027 -0.0237
    1AU     LIG  303   3.381   5.230   7.031  0.0960  0.1755 -0.1333
    1AU     LIG  304   3.615   5.258   6.713 -0.0796 -0.0684 -0.1604
    1AU       S  305   2.153   4.797   7.228  0.3633  0.3103  0.1878
    1AU     LIG  306   2.509   4.986   7.402 -0.0994 -0.0364  0.2850
    1AU     LIG  307   2.830   5.303   7.687 -0.0110 -0.0057 -0.1221
    1AU    AUSL  308   1.722   5.787   6.116  0.0169  0.0375  0.0306
    1AU    AUSL  309   1.362   5.258   6.001 -0.0561  0.0122 -0.1205
    1AU     AUL  310   1.390   5.628   6.081  0.0348 -0.0150 -0.0018
    1AU       S  311   1.107   5.278   6.170 -0.1217 -0.2824  0.3038
    1AU     LIG  312   0.932   5.567   6.000  0.2932  0.0295 -0.1224
    1AU     LIG  313   0.569   5.692   6.012  0.3066 -0.2102 -0.2205
    1AU       S  314   1.294   6.005   5.757 -0.1097 -0.1043 -0.0462
    1AU     LIG  315   1.473   6.429   5.652  0.1313  0.3159 -0.2182
    1AU     LIG  316   1.652   6.766   5.690 -0.1317 -0.1008  0.0377
    1AU    AUSL  317   1.967   5.619   5.771 -0.0002  0.0137 -0.0171
    1AU    AUSL  318   2.100   5.956   6.052  0.0145 -0.0043 -0.0663
    1AU     AUL  319   1.844   5.968   5.782  0.0224  0.0352 -0.0791
    1AU       S  320   1.031   5.982   5.705 -0.2247  0.4210 -0.1075
    1AU     LIG  321   0.858   6.097   6.152  0.2113 -0.0189 -0.1059
    1AU     LIG  322   0.512   6.354   6.260 -0.1581  0.0337  0.0127
    1AU       S  323   2.181   6.223   6.007 -0.4591 -0.4549  0.0304
    1AU     LIG  324   1.763   6.355   6.165 -0.1675 -0.0402 -0.0773
    1AU     LIG  325   1.315   6.328   6.131 -0.1388  0.1329  0.5484
    2POPC   NC3  326   2.410   8.103   7.979  0.0067  0.1293 -0.0980
    2POPC   PO4  327   2.564   8.501   7.880 -0.0457  0.0371  0.1658
    2POPC   GL1  328   2.550   8.276   7.494 -0.1776 -0.0044  0.1434
    2POPC   GL2  329   2.753   8.465   7.287  0.3376 -0.0368 -0.3032
    2POPC   C1A  330   2.549   7.945   7.224  0.1041  0.0533  0.2007
    2POPC   D2A  331   2.241   7.634   7.025  0.0762 -0.2620  0.0104
    2POPC   C3A  332   2.181   7.510   6.544  0.4136  0.0351  0.0477
    2POPC   C4A  333   1.932   7.591   6.103 -0.0355 -0.0883  0.3544
    2POPC   C1B  334   2.941   8.600   6.935 -0.2969  0.0326  0.2033
    2POPC   C2B  335   2.985   8.818   6.624 -0.3393  0.0525  0.4203
    2POPC   C3B  336   2.838   8.836   6.302 -0.0206 -0.7393 -0.1410
    2POPC   C4B  337   2.427   8.543   6.188 -0.1392  0.1769 -0.1257
    3POPC   NC3  338   6.132   4.397   8.208 -0.0257 -0.0819 -0.0670
    3POPC   PO4  339   6.165   4.586   7.904 -0.2180  0.3612  0.2204
    3POPC   GL1  340   6.081   4.434   7.523 -0.2650 -0.1981  0.4566
    3POPC   GL2  341   6.377   4.466   7.307  0.1810  0.4447 -0.1518
    3POPC   C1A  342   5.998   4.397   7.027  0.1595 -0.1090 -0.1347
    3POPC   D2A  343   5.877   4.392   6.569 -0.0196  0.2242 -0.0769
    3POPC   C3A  344   5.377   4.453   6.515 -0.1413  0.1281  0.0094
    3POPC   C4A  345   5.043   4.453   6.179 -0.1297  0.0765 -0.0995
    3POPC   C1B  346   6.451   4.216   6.904  0.1155 -0.3092  0.1461
    3POPC   C2B  347   6.413   4.307   6.456 -0.2789  0.1531  0.3315
    3POPC   C3B  348   6.158   4.306   6.061  0.2018  0.2632  0.3214
    3POPC   C4B  349   6.335   4.372   5.686 -0.2276 -0.2286  0.2289
    4POPC   NC3  350   4.239   2.370   8.142 -0.0192 -0.0316  0.0849
    4POPC   PO4  351   3.833   2.615   7.967  0.2289  0.2884  0.0132
    4POPC   GL1  352   3.968   2.966   7.716  0.0536 -0.2116 -0.0075
    4POPC   GL2  353   3.686   3.115   7.637  0.0072  0.2396 -0.2477
    4POPC   C1A  354   4.035   3.051   7.289 -0.1909  0.0202  0.1023
    4POPC   D2A  355   3.836   2.957   6.820 -0.4477  0.1922  0.0239
    4POPC   C3A  356   3.439   2.925   6.627  0.2447 -0.0478 -0.1939
    4POPC   C4A  357   3.067   2.749   6.428 -0.0093  0.1295 -0.1864
    4POPC   C1B  358   3.515   2.988   7.235 -0.0032  0.2020 -0.0866
    4POPC   C2B  359   3.459   3.276   6.991  0.1359  0.3802  0.0453
    4POPC   C3B  360   3.399   3.442   6.594 -0.3705 -0.0651  0.1415
    4POPC   C4B  361   3.380   3.787   6.454 -0.1723 -0.1246  0.2586
    5POPC   NC3  362   1.649   6.679   8.965 -0.0902  0.2573 -0.0389
    5POPC   PO4  363   2.068   6.803   8.688 -0.1908  0.1476  0.1915
    5POPC   GL1  364   2.234   6.391   8.541 -0.3041 -0.0557 -0.0605
    5POPC   GL2  365   2.540   6.403   8.542 -0.2094 -0.2676  0.0347
    5POPC   C1A  366   2.082   6.133   8.175 -0.1020  0.0934 -0.1777
    5POPC   D2A  367   1.644   5.905   8.135 -0.0823  0.3125  0.4369
    5POPC   C3A  368   1.226   5.928   7.768  0.0222 -0.0319 -0.0345
    5POPC   C4A  369   0.957   5.581   7.799  0.0948 -0.1283 -0.2015
    5POPC   C1B  370   2.543   6.330   8.085  0.2547 -0.1250  0.0537
    5POPC   C2B  371   2.458   6.192   7.728 -0.0418 -0.0441 -0.0337
    5POPC   C3B  372   2.682   6.254   7.462 -0.2686  0.0087  0.0967
    5POPC   C4B  373   2.561   6.633   7.355 -0.1786  0.0328  0.0304
    6POPC   NC3  374   6.209   5.394   8.433 -0.0913 -0.0013  0.0666
    6POPC   PO4  375   6.314   5.155   8.054  0.2731  0.0352 -0.0820
    6POPC   GL1  376   6.436   5.374   7.658  0.2249 -0.2953 -0.0527
    6POPC   GL2  377   6.659   5.222   7.401  0.2800  0.1781  0.2036
    6POPC   C1A  378   6.175   5.731   7.468 -0.0785 -0.0295  0.1804
    6POPC   D2A  379   5.939   6.143   7.516  0.0591  0.2728 -0.1334
    6POPC   C3A  380   6.180   6.545   7.483 -0.0095 -0.1184  0.2230
    6POPC   C4A  381   6.421   6.842   7.390  0.2881  0.2086  0.0385
    6POPC   C1B  382   6.676   4.897   7.004  0.4617 -0.2570 -0.3069
    6POPC   C2B  383   6.394   4.779   6.672 -0.0392  0.1845 -0.0291
    6POPC   C3B  384   6.078   4.760   6.268 -0.1240 -0.3011 -0.5130
    6POPC   C4B  385   5.929   5.153   6.042 -0.1278 -0.1449 -0.3660
    7POPC   NC3  386   8.077   1.215   7.935  0.2396  0.0881 -0.0563
    7POPC   PO4  387   8.267   1.111   7.579  0.0950 -0.1022 -0.2077
    7POPC   GL1  388   8.142   1.198   7.166 -0.0982  0.1301 -0.0301
    7POPC   GL2  389   7.990   1.527   7.021  0.0948  0.2286 -0.0744
    7POPC   C1A  390   8.473   1.095   6.890  0.2406  0.2715 -0.0537
    7POPC   D2A  391   8.737   1.262   6.471 -0.2348 -0.2195 -0.0933
    7POPC   C3A  392   8.766   1.220   6.096  0.1013  0.1111 -0.1651
    7POPC   C4A  393   8.790   0.979   5.753  0.1445  0.0842 -0.0866
    7POPC   C1B  394   8.134   1.350   6.673 -0.1171  0.0666 -0.3049
    7POPC   C2B  395   8.260   1.152   6.217 -0.0454  0.0462  0.0766
    7POPC   C3B  396   8.201   0.872   5.797  0.1866 -0.0972  0.1322
    7POPC   C4B  397   7.889   0.711   5.612 -0.1718 -0.2596  0.2015
    8POPC   NC3  398   0.351  10.301   7.317 -0.1277  0.0235  0.0907
    8POPC   PO4  399   0.161   9.971   7.287 -0.0405 -0.3013  0.0784
    8POPC   GL1  400   0.094   9.840   6.964 -0.0667 -0.1088  0.1003
    8POPC   GL2  401   0.295   9.964   6.820 -0.1202 -0.0309  0.0219
    8POPC   C1A  402  -0.006   9.615   6.593  0.1933 -0.1152  0.1785
    8POPC   D2A  403  -0.027   9.824   6.143 -0.0340 -0.0183  0.2032
    8POPC   C3A  404   0.060  10.250   6.115  0.2171 -0.0132 -0.0112
    8POPC   C4A  405   0.224  10.244   5.686  0.1564  0.0656 -0.1628
    8POPC   C1B  406   0.442   9.956   6.387  0.1028  0.1118  0.0045
    8POPC   C2B  407   0.418   9.857   5.953  0.0589 -0.0536 -0.3809
    8POPC   C3B  408   0.456   9.842   5.525  0.1541 -0.0223  0.1121
    8POPC   C4B  409   0.265  10.158   5.210  0.3168 -0.1878 -0.1163
    9POPC   NC3  410   7.383   6.964   8.007  0.1996  0.1195 -0.0947
    9POPC   PO4  411   7.548   7.139   7.567 -0.2623  0.1795 -0.0733
    9POPC   GL1  412   7.351   7.429   7.396  0.0103  0.0102 -0.2332
    9POPC   GL2  413   7.042   7.410   7.412 -0.2342 -0.2110 -0.0155
    9POPC   C1A  414   7.144   7.673   7.049 -0.0885  0.0561 -0.1519
    9POPC   D2A  415   7.231   7.840   6.756  0.1409  0.1187 -0.2837
    9POPC   C3A  416   7.263   8.250   6.986 -0.0499 -0.3055  0.0900
    9POPC   C4A  417   7.175   8.643   6.947  0.0806 -0.2456  0.0156
    9POPC   C1B  418   7.054   7.115   7.050  0.0396 -0.0537  0.0993
    9POPC   C2B  419   7.142   6.909   6.717  0.1448 -0.2449 -0.2146
    9POPC   C3B  420   7.089   6.725   6.371 -0.2873 -0.0607  0.1418
    9POPC   C4B  421   7.336   6.777   5.940  0.2055  0.1489  0.2149
   10POPC   NC3  422   1.935   5.743   8.745  0.1942 -0.1506 -0.1415
   10POPC   PO4  423   2.380   6.035   8.898  0.1047  0.3399 -0.1534
   10POPC   GL1  424   2.353   5.863   8.460  0.2182  0.1457  0.0780
   10POPC   GL2  425   2.482   5.543   8.436 -0.2046  0.2524 -0.1363
   10POPC   C1A  426   2.128   5.640   8.117 -0.0150 -0.1618 -0.1298
   10POPC   D2A  427   1.956   5.372   7.898  0.0883 -0.2424  0.2027
   10POPC   C3A  428   2.022   5.265   7.434  0.2415 -0.0742  0.0129
   10POPC   C4A  429   2.367   5.389   7.142  0.2777 -0.0356 -0.1296
   10POPC   C1B  430   2.795   5.331   8.274 -0.0422 -0.4562 -0.0331
   10POPC   C2B  431   2.884   4.936   8.300  0.0241 -0.2380 -0.1260
   10POPC   C3B  432   2.888   4.581   8.174 -0.4164 -0.2189  0.3603
   10POPC   C4B  433   3.159   4.231   8.164  0.2202 -0.1952 -0.3364
   11POPC   NC3  434   4.208   9.387   7.608 -0.1202 -0.2933  0.1175
   11POPC   PO4  435   4.410   9.752   7.461 -0.4336 -0.3425 -0.1860
   11POPC   GL1  436   4.732   9.878   7.186  0.2793  0.1981  0.1364
   11POPC   GL2  437   4.843   9.547   7.069 -0.2046  0.2736  0.0867
   11POPC   C1A  438   4.879  10.167   6.866 -0.2393  0.1187 -0.0343
   11POPC   D2A  439   5.204  10.383   6.680 -0.0356  0.1693 -0.1461
   11POPC   C3A  440   5.198  10.547   6.230 -0.0910 -0.2057 -0.0930
   11POPC   C4A  441   5.546  10.754   5.960 -0.1307  0.0550  0.1300
   11POPC   C1B  442   4.851   9.569   6.525 -0.1648 -0.2145 -0.1646
   11POPC   C2B  443   4.593   9.359   6.130 -0.0681  0.1300  0.3373
   11POPC   C3B  444   4.757   9.571   5.717  0.0141  0.1485 -0.1428
   11POPC   C4B  445   5.109   9.561   5.518  0.1241 -0.1195  0.1422
   12POPC   NC3  446   2.448   7.037   8.461  0.1914 -0.1520  0.0170
   12POPC   PO4  447   1.977   7.321   8.263 -0.0700  0.0333  0.3845
   12POPC   GL1  448   2.266   7.191   7.960  0.5954 -0.1566  0.0984
   12POPC   GL2  449   2.445   7.574   7.803  0.1583  0.1980  0.2385
   12POPC   C1A  450   2.238   6.751   7.734 -0.0721  0.2285  0.1745
   12POPC   D2A  451   2.029   6.443   7.411 -0.1925 -0.0754 -0.0981
   12POPC   C3A  452   2.233   6.071   7.321  0.0809 -0.1197  0.1630
   12POPC   C4A  453   2.553   5.918   7.101 -0.4653 -0.1336 -0.0215
   12POPC   C1B  454   2.381   7.215   7.445 -0.3856 -0.0895 -0.5560
   12POPC   C2B  455   2.263   7.144   7.053 -0.1761  0.0839 -0.1909
   12POPC   C3B  456   2.159   6.975   6.533  0.1518  0.2342 -0.0559
   12POPC   C4B  457   1.915   6.717   6.456 -0.1385  0.0945  0.0314
   13POPC   NC3  458   2.093   9.226   8.102  0.0951 -0.0036 -0.1478
   13POPC   PO4  459   1.706   9.211   8.132 -0.0146  0.1114  0.1402
   13POPC   GL1  460   1.545   9.256   7.806 -0.1409  0.2497 -0.3535
   13POPC   GL2  461   1.646   8.989   7.560 -0.1157  0.2246  0.3575
   13POPC   C1A  462   1.492   9.387   7.329 -0.1900 -0.2369 -0.4693
   13POPC   D2A  463   1.457   9.659   7.017 -0.1403  0.1826 -0.1214
   13POPC   C3A  464   1.599   9.622   6.584  0.1082 -0.0646  0.0095
   13POPC   C4A  465   1.840   9.907   6.402 -0.0446  0.0847 -0.0630
   13POPC   C1B  466   1.804   9.055   7.133  0.2140  0.2227 -0.2265
   13POPC   C2B  467   2.005   8.877   6.822 -0.0227  0.1253  0.0172
   13POPC   C3B  468   2.005   8.746   6.368  0.1905 -0.0942 -0.0365
   13POPC   C4B  469   1.837   8.829   5.969 -0.1022  0.2300 -0.2198
   14POPC   NC3  470   0.755   4.358   8.408 -0.1781 -0.1845  0.0713
   14POPC   PO4  471   0.528   3.982   8.401  0.0223 -0.0401 -0.0605
   14POPC   GL1  472   0.711   4.075   7.991  0.0267 -0.0743  0.1900
   14POPC   GL2  473   0.377   4.140   7.826 -0.1201  0.4026 -0.5139
   14POPC   C1A  474   0.895   4.021   7.642  0.2149 -0.0117  0.4104
   14POPC   D2A  475   1.065   4.105   7.188 -0.0987  0.1210 -0.2047
   14POPC   C3A  476   1.195   3.757   6.977  0.2297 -0.0265  0.1737
   14POPC   C4A  477   1.157   3.424   7.223  0.0045 -0.0862  0.3066
   14POPC   C1B  478   0.175   3.968   7.469 -0.0774 -0.0967 -0.0370
   14POPC   C2B  479   0.160   4.004   7.008 -0.0033 -0.0007 -0.0873
   14POPC   C3B  480   0.018   4.123   6.639 -0.1495  0.1339  0.1945
   14POPC   C4B  481  -0.227   4.295   6.292  0.0643  0.0343 -0.1191
   15POPC   NC3  482   6.209   0.314   7.828  0.2053 -0.0894 -0.2222
   15POPC   PO4  483   6.347   0.602   7.536 -0.0520  0.1790  0.2896
   15POPC   GL1  484   6.500   0.644   7.166  0.0145  0.2543 -0.0362
   15POPC   GL2  485   6.425   0.306   7.012  0.0560 -0.1203  0.0967
   15POPC   C1A  486   6.919   0.540   6.900  0.0158 -0.2203  0.2010
   15POPC   D2A  487   7.175   0.583   6.557 -0.1057 -0.0853 -0.0865
   15POPC   C3A  488   7.619   0.494   6.430  0.0070 -0.3465 -0.3113
   15POPC   C4A  489   7.894   0.158   6.409  0.0445 -0.3678 -0.2955
   15POPC   C1B  490   6.829   0.075   6.834  0.0434  0.2220 -0.1041
   15POPC   C2B  491   6.884  -0.067   6.374  0.3047  0.1993 -0.1767
   15POPC   C3B  492   6.791  -0.596   6.306 -0.3133 -0.3652  0.0012
   15POPC   C4B  493   6.912  -1.012   6.503 -0.2093  0.0715  0.1799
   16POPC   NC3  494   0.527  10.504   7.825 -0.2140 -0.1445 -0.0936
   16POPC   PO4  495   0.843  10.363   7.527 -0.2554 -0.0107  0.0389
   16POPC   GL1  496   0.963  10.461   7.103  0.2286 -0.1258 -0.0774
   16POPC   GL2  497   0.739  10.192   6.990 -0.0399  0.0911  0.1655
   16POPC   C1A  498   0.967  10.503   6.636 -0.2237  0.1284 -0.0257
   16POPC   D2A  499   1.001  10.505   6.262  0.0684 -0.1828  0.1791
   16POPC   C3A  500   1.293  10.390   5.915  0.3358  0.0238 -0.3407
   16POPC   C4A  501   1.358  10.304   5.497  0.1688  0.2271  0.0849
   16POPC   C1B  502   0.870   9.810   6.928 -0.3962  0.0203 -0.1334
   16POPC   C2B  503   1.025   9.416   6.785  0.1040  0.0237  0.0749
   16POPC   C3B  504   1.132   9.254   6.368 -0.0764  0.1030  0.2345
   16POPC   C4B  505   1.358   8.815   6.229 -0.0593 -0.1081 -0.1556
   17POPC   NC3  506   9.193  10.545   8.162  0.2486 -0.3783 -0.0277
   17POPC   PO4  507   9.284  10.339   7.784  0.3382 -0.0640  0.3671
   17POPC   GL1  508   9.370  10.193   7.407  0.0745 -0.1270 -0.0782
   17POPC   GL2  509   9.104  10.116   7.333 -0.1411 -0.0675 -0.0692
   17POPC   C1A  510   9.369  10.209   6.963 -0.1055 -0.0525 -0.0008
   17POPC   D2A  511   9.512  10.019   6.522  0.2525  0.0769 -0.0297
   17POPC   C3A  512   9.802   9.808   6.197 -0.0892 -0.2069  0.2828
   17POPC   C4A  513   9.789   9.636   5.838 -0.2880  0.0520  0.0296
   17POPC   C1B  514   9.194   9.725   7.009 -0.0379 -0.3909 -0.1864
   17POPC   C2B  515   9.371   9.410   6.792 -0.2975 -0.1919 -0.1441
   17POPC   C3B  516   9.509   9.366   6.350 -0.0140 -0.0312 -0.2184
   17POPC   C4B  517   9.292   9.598   6.002  0.1990  0.1013 -0.1418
   18POPC   NC3  518  10.020   5.592   8.598 -0.0901  0.2904  0.2617
   18POPC   PO4  519   9.833   5.738   8.258 -0.1759  0.0820  0.0084
   18POPC   GL1  520   9.922   5.876   7.810  0.2059  0.3902  0.0872
   18POPC   GL2  521   9.863   6.177   7.631  0.1339  0.2913  0.1944
   18POPC   C1A  522  10.205   5.819   7.448  0.1512  0.1115  0.4189
   18POPC   D2A  523  10.482   5.923   7.026 -0.0326  0.1079 -0.0150
   18POPC   C3A  524  10.634   5.750   6.607 -0.1308  0.1111 -0.4036
   18POPC   C4A  525  10.824   5.554   6.304 -0.0024 -0.0278  0.1106
   18POPC   C1B  526   9.815   6.171   7.209 -0.0637  0.1687  0.2458
   18POPC   C2B  527   9.710   6.020   6.749 -0.2735 -0.1080 -0.1997
   18POPC   C3B  528   9.637   6.175   6.396 -0.3833 -0.1024  0.0849
   18POPC   C4B  529   9.328   6.199   6.044 -0.1992  0.1119  0.0060
   19POPC   NC3  530   9.380   4.569   8.097 -0.1048  0.0127 -0.1595
   19POPC   PO4  531   8.837   4.673   7.985 -0.3167 -0.2272  0.0708
   19POPC   GL1  532   9.096   4.805   7.657  0.2856  0.1722 -0.0284
   19POPC   GL2  533   9.300   5.140   7.674 -0.0467  0.1336 -0.2086
   19POPC   C1A  534   9.098   5.094   7.239  0.3040  0.1767 -0.1132
   19POPC   D2A  535   8.896   5.287   6.935 -0.0610  0.0375 -0.0351
   19POPC   C3A  536   9.135   5.331   6.538  0.1800  0.0330 -0.1635
   19POPC   C4A  537   9.216   5.780   6.318 -0.0917  0.0025 -0.2364
   19POPC   C1B  538   9.584   5.098   7.356 -0.3462 -0.0673  0.0514
   19POPC   C2B  539   9.892   5.184   7.039  0.3098  0.0489 -0.0019
   19POPC   C3B  540  10.181   5.128   6.629 -0.3475  0.0993 -0.0703
   19POPC   C4B  541  10.551   5.166   6.392  0.3454 -0.3740  0.0483
   20POPC   NC3  542   9.215   8.114   7.961 -0.2868  0.0216  0.1261
   20POPC   PO4  543   9.129   8.557   7.801  0.4356  0.1516  0.0518
   20POPC   GL1  544   9.051   8.740   7.416 -0.0973 -0.0905 -0.0294
   20POPC   GL2  545   9.052   9.113   7.253 -0.3598  0.2214 -0.2105
   20POPC   C1A  546   9.047   8.570   6.956  0.0411  0.1154  0.0791
   20POPC   D2A  547   9.052   8.111   6.831  0.2427  0.0365  0.0541
   20POPC   C3A  548   9.343   8.034   6.580  0.2823 -0.0557  0.0181
   20POPC   C4A  549   9.470   8.154   6.161 -0.2866  0.3132 -0.1612
   20POPC   C1B  550   9.555   8.957   7.145 -0.0649 -0.0423 -0.0591
   20POPC   C2B  551   9.749   9.074   6.657  0.0790  0.2645 -0.3265
   20POPC   C3B  552   9.970   9.054   6.317 -0.0116 -0.0760 -0.0769
   20POPC   C4B  553  10.377   8.988   6.263 -0.3832 -0.0834  0.0664
   21POPC   NC3  554   5.305   4.677   8.127  0.1215 -0.0446 -0.2279
   21POPC   PO4  555   5.372   5.094   8.015  0.2676  0.0438 -0.0582
   21POPC   GL1  556   5.464   5.300   7.583  0.1143 -0.0090  0.0663
   21POPC   GL2  557   5.196   5.134   7.323  0.1441 -0.4261 -0.2710
   21POPC   C1A  558   5.549   5.429   7.189  0.0472  0.3511  0.0011
   21POPC   D2A  559   5.765   5.421   6.727 -0.0240 -0.0195  0.1804
   21POPC   C3A  560   5.538   5.402   6.357  0.2708  0.1884 -0.2370
   21POPC   C4A  561   5.386   5.342   6.006 -0.3132  0.1559  0.0243
   21POPC   C1B  562   5.046   5.360   6.982 -0.2306 -0.4539  0.1768
   21POPC   C2B  563   4.764   5.250   6.664  0.1884 -0.1251 -0.1740
   21POPC   C3B  564   4.526   5.375   6.323 -0.1847 -0.1292  0.3171
   21POPC   C4B  565   4.134   5.629   6.234 -0.1862 -0.1106 -0.0944
   22POPC   NC3  566   8.640   6.637   8.439  0.3227 -0.1060 -0.1334
   22POPC   PO4  567   8.836   6.838   8.031 -0.1897  0.0735  0.1306
   22POPC   GL1  568   8.714   6.862   7.651  0.3281 -0.0898 -0.0527
   22POPC   GL2  569   8.862   7.182   7.485 -0.0419 -0.1485 -0.1058
   22POPC   C1A  570   8.613   6.669   7.290  0.2702  0.0320  0.2793
   22POPC   D2A  571   8.464   6.442   6.801  0.1578  0.1714 -0.0879
   22POPC   C3A  572   8.426   6.541   6.314 -0.0450  0.4202  0.3508
   22POPC   C4A  573   8.172   6.675   5.940 -0.1032  0.2151 -0.1045
   22POPC   C1B  574   8.801   7.165   7.089 -0.0028 -0.2835  0.1389
   22POPC   C2B  575   8.517   7.000   6.902 -0.1840  0.2185 -0.0775
   22POPC   C3B  576   8.475   7.016   6.541  0.4055  0.2842 -0.0721
   22POPC   C4B  577   8.777   6.968   6.185  0.2281  0.3264 -0.0663
   23POPC   NC3  578   4.891   5.187   8.036  0.0974 -0.1111  0.0193
   23POPC   PO4  579   4.860   4.715   7.989  0.0895 -0.0735  0.0412
   23POPC   GL1  580   4.953   4.683   7.543 -0.1624 -0.1370  0.0556
   23POPC   GL2  581   4.989   4.336   7.461  0.0618 -0.1001  0.1735
   23POPC   C1A  582   4.717   5.000   7.250  0.0854  0.1323 -0.2283
   23POPC   D2A  583   4.337   5.100   7.005  0.0363 -0.0675  0.0049
   23POPC   C3A  584   4.037   5.526   7.051  0.0668 -0.0240  0.0790
   23POPC   C4A  585   4.282   5.949   7.130  0.0499 -0.0593  0.2010
   23POPC   C1B  586   4.847   4.577   7.040 -0.1712 -0.2773 -0.1811
   23POPC   C2B  587   4.883   4.740   6.639 -0.1006 -0.2406  0.0162
   23POPC   C3B  588   4.582   4.881   6.411  0.1785 -0.3747 -0.0244
   23POPC   C4B  589   4.148   4.746   6.196  0.0994 -0.0552  0.0567
   24POPC   NC3  590   9.213   7.623   8.127  0.0379  0.0339 -0.3638
   24POPC   PO4  591   9.332   7.261   7.870  0.3066 -0.1896  0.0303
   24POPC   GL1  592   9.374   7.317   7.426 -0.3025  0.0599 -0.0931
   24POPC   GL2  593   9.582   7.123   7.323 -0.0168  0.2362  0.0679
   24POPC   C1A  594   9.334   7.429   7.060  0.1074 -0.1986  0.4615
   24POPC   D2A  595   9.178   7.527   6.700  0.3869 -0.1863  0.0126
   24POPC   C3A  596   9.071   7.088   6.562 -0.1902  0.0695 -0.2221
   24POPC   C4A  597   8.895   6.682   6.600 -0.0089  0.0470 -0.3435
   24POPC   C1B  598   9.379   6.895   7.012 -0.4017  0.0048 -0.0663
   24POPC   C2B  599   9.060   6.769   7.010 -0.0318 -0.2714 -0.0988
   24POPC   C3B  600   8.976   6.285   7.096 -0.1068  0.3433 -0.0725
   24POPC   C4B  601   8.633   6.173   7.218  0.0308  0.1501 -0.0411
   25POPC   NC3  602   1.496  10.115   8.058 -0.0701 -0.0874  0.0838
   25POPC   PO4  603   1.825  10.186   7.789  0.0688 -0.1403 -0.1531
   25POPC   GL1  604   1.859  10.017   7.303 -0.1667 -0.3539 -0.1895
   25POPC   GL2  605   2.139   9.761   7.115  0.0326 -0.0779 -0.2219
   25POPC   C1A  606   1.906  10.130   6.846  0.1103  0.0755  0.3388
   25POPC   D2A  607   1.929  10.416   6.432  0.2767  0.1450 -0.0883
   25POPC   C3A  608   1.902  10.376   6.061 -0.0398  0.1007  0.1252
   25POPC   C4A  609   1.690  10.099   5.915  0.0781 -0.1604  0.3346
   25POPC   C1B  610   2.053   9.404   6.747 -0.2098  0.1799 -0.3949
   25POPC   C2B  611   2.027   9.260   6.419  0.3045  0.2200 -0.2940
   25POPC   C3B  612   2.315   9.014   6.116 -0.1993  0.0130 -0.1752
   25POPC   C4B  613   2.619   9.147   5.704  0.3465 -0.2326  0.2668
   26POPC   NC3  614   7.678   6.509   8.627 -0.4428 -0.0753  0.2594
   26POPC   PO4  615   7.724   6.210   8.340 -0.0480  0.0102 -0.1951
   26POPC   GL1  616   7.967   6.262   7.873  0.0192  0.1512 -0.0769
   26POPC   GL2  617   7.767   6.140   7.487  0.1034  0.2500 -0.2025
   26POPC   C1A  618   8.314   6.449   7.572  0.4325  0.2524  0.1034
   26POPC   D2A  619   8.159   6.560   7.160 -0.0787 -0.0863  0.1855
   26POPC   C3A  620   7.931   6.290   6.905  0.3897 -0.0408 -0.0876
   26POPC   C4A  621   8.034   6.290   6.477  0.1933 -0.0408  0.0228
   26POPC   C1B  622   7.511   6.125   7.218 -0.1433  0.2277  0.1321
   26POPC   C2B  623   7.389   6.288   6.847  0.2280 -0.1504 -0.0237
   26POPC   C3B  624   7.522   6.660   6.543  0.2693 -0.1833  0.2024
   26POPC   C4B  625   7.579   7.027   6.574  0.1229 -0.1356  0.1729
   27POPC   NC3  626   7.352   5.046   7.738  0.2205  0.1386  0.2826
   27POPC   PO4  627   7.617   4.755   8.008 -0.0758 -0.2435 -0.1419
   27POPC   GL1  628   7.848   4.743   7.702  0.0484 -0.1104 -0.0951
   27POPC   GL2  629   7.636   4.708   7.403 -0.2388 -0.0454  0.0603
   27POPC   C1A  630   8.191   4.715   7.479  0.1226  0.0740 -0.0777
   27POPC   D2A  631   8.609   4.447   7.566 -0.2433 -0.3077  0.0669
   27POPC   C3A  632   8.771   4.660   7.288 -0.1726  0.1108  0.3293
   27POPC   C4A  633   9.003   4.749   6.840  0.0818 -0.2830 -0.1672
   27POPC   C1B  634   7.827   4.848   6.994 -0.0879 -0.1823 -0.1464
   27POPC   C2B  635   7.610   5.199   6.771  0.0068  0.2405 -0.0909
   27POPC   C3B  636   7.323   5.156   6.341 -0.1874 -0.5102 -0.0954
   27POPC   C4B  637   7.221   4.850   5.992  0.2638  0.1732 -0.0832
   28POPC   NC3  638   0.118   1.029   7.866 -0.1923  0.1862 -0.0697
   28POPC   PO4  639  -0.310   1.068   7.661 -0.1884 -0.2221  0.3829
   28POPC   GL1  640  -0.436   1.146   7.230  0.0403 -0.1069 -0.0088
   28POPC   GL2  641  -0.440   1.585   7.134 -0.0080  0.0947 -0.1049
   28POPC   C1A  642  -0.417   1.073   6.755  0.0889 -0.0789 -0.0072
   28POPC   D2A  643  -0.253   0.726   6.637  0.1569  0.0220  0.3768
   28POPC   C3A  644  -0.504   0.337   6.375  0.2653 -0.1591  0.0853
   28POPC   C4A  645  -0.625   0.107   6.054  0.0380 -0.1609  0.1041
   28POPC   C1B  646  -0.328   1.645   6.663 -0.0022 -0.1373  0.1589
   28POPC   C2B  647  -0.408   1.446   6.293  0.1399 -0.2451  0.1887
   28POPC   C3B  648  -0.452   1.285   5.906 -0.1642 -0.2735 -0.1043
   28POPC   C4B  649  -0.703   1.269   5.590 -0.1028 -0.1616  0.0854
   29POPC   NC3  650   5.920   5.042   7.704 -0.2979  0.0784 -0.1193
   29POPC   PO4  651   6.448   4.826   7.605  0.0390 -0.0404 -0.1236
   29POPC   GL1  652   6.182   4.913   7.201  0.1891  0.1941  0.1306
   29POPC   GL2  653   6.069   5.249   7.299  0.1850 -0.1466  0.1806
   29POPC   C1A  654   5.953   4.833   6.852  0.1320 -0.3281  0.2264
   29POPC   D2A  655   5.665   4.829   6.502 -0.3004 -0.1541 -0.1098
   29POPC   C3A  656   5.443   4.855   6.079  0.0552  0.1179 -0.0090
   29POPC   C4A  657   5.442   4.971   5.730  0.2745  0.1796 -0.2352
   29POPC   C1B  658   6.251   5.237   6.860 -0.0360  0.2688  0.1453
   29POPC   C2B  659   6.276   5.543   6.560 -0.1529 -0.4147  0.1493
   29POPC   C3B  660   5.956   5.651   6.243 -0.4196  0.0332 -0.0715
   29POPC   C4B  661   5.774   5.690   5.892 -0.0027  0.1971 -0.1323
   30POPC   NC3  662   2.067   8.840   8.429 -0.1700 -0.3094  0.0741
   30POPC   PO4  663   2.481   8.985   8.091 -0.0353  0.0140  0.0192
   30POPC   GL1  664   2.299   9.074   7.671 -0.1995 -0.1131  0.1144
   30POPC   GL2  665   2.274   8.785   7.443 -0.0656  0.1417 -0.1131
   30POPC   C1A  666   2.271   9.302   7.217 -0.3093  0.2763 -0.0052
   30POPC   D2A  667   2.620   9.426   6.940  0.0596 -0.0104 -0.0586
   30POPC   C3A  668   2.563   9.319   6.558 -0.3056  0.3121 -0.0535
   30POPC   C4A  669   2.794   9.277   6.135 -0.0789 -0.0282  0.1827
   30POPC   C1B  670   2.023   8.452   7.303 -0.1055 -0.2080 -0.1979
   30POPC   C2B  671   2.046   8.178   6.794  0.2594 -0.0297 -0.2360
   30POPC   C3B  672   2.043   8.070   6.368 -0.0401 -0.4222  0.1230
   30POPC   C4B  673   2.013   8.264   5.893  0.0176  0.0213  0.1860
   31POPC   NC3  674   2.581   1.044   7.411 -0.0990 -0.0633  0.3582
   31POPC   PO4  675   2.780   1.385   7.415  0.3736 -0.0302  0.1705
   31POPC   GL1  676   2.963   1.476   6.986 -0.2722  0.4872 -0.2522
   31POPC   GL2  677   3.128   1.740   7.049 -0.0728  0.1089  0.0790
   31POPC   C1A  678   2.936   1.621   6.559  0.1007  0.0430 -0.0995
   31POPC   D2A  679   2.548   1.792   6.332 -0.1417  0.3439  0.0129
   31POPC   C3A  680   2.452   2.001   5.887 -0.1941  0.0759  0.1080
   31POPC   C4A  681   2.619   2.395   5.651  0.1902  0.2426  0.0357
   31POPC   C1B  682   3.268   2.081   6.690 -0.1119 -0.0861  0.1601
   31POPC   C2B  683   3.313   2.353   6.325  0.0469 -0.2269  0.1466
   31POPC   C3B  684   3.066   2.271   5.937  0.1518  0.0371  0.2221
   31POPC   C4B  685   3.085   2.397   5.515 -0.0989  0.3222 -0.4362
   32POPC   NC3  686   5.934   1.250   7.709  0.0643  0.0683  0.1195
   32POPC   PO4  687   5.811   0.981   7.311 -0.2072 -0.0280  0.0147
   32POPC   GL1  688   5.729   1.106   7.024 -0.3226 -0.0363  0.1546
   32POPC   GL2  689   5.648   1.378   6.928  0.1815 -0.1010 -0.1095
   32POPC   C1A  690   5.658   0.828   6.623  0.1570  0.1130  0.0074
   32POPC   D2A  691   5.381   0.867   6.223 -0.0391  0.0058  0.0539
   32POPC   C3A  692   5.029   0.491   6.262  0.0317 -0.2385 -0.0252
   32POPC   C4A  693   4.896   0.288   6.541 -0.0393 -0.2383  0.1762
   32POPC   C1B  694   5.571   1.379   6.504  0.0084  0.2010  0.2196
   32POPC   C2B  695   5.666   1.414   6.049  0.5308 -0.2681 -0.1951
   32POPC   C3B  696   5.821   1.364   5.670 -0.0760 -0.0086  0.0435
   32POPC   C4B  697   5.962   1.144   5.342 -0.0210 -0.2301 -0.0734
   33POPC   NC3  698   5.075   9.069   7.777 -0.2582  0.0339  0.1460
   33POPC   PO4  699   4.862   8.792   7.732 -0.0464  0.3989 -0.0420
   33POPC   GL1  700   4.850   8.697   7.369 -0.2569 -0.0614 -0.1597
   33POPC   GL2  701   5.065   8.743   7.233 -0.2602 -0.1398  0.2152
   33POPC   C1A  702   4.726   8.390   7.018 -0.2107  0.0809 -0.2392
   33POPC   D2A  703   4.521   8.250   6.524  0.2549  0.0902  0.0042
   33POPC   C3A  704   4.204   8.343   6.438 -0.2532 -0.1216 -0.1235
   33POPC   C4A  705   3.770   8.429   6.504  0.2200  0.1831 -0.1195
   33POPC   C1B  706   5.055   8.649   6.794 -0.0158 -0.1335  0.0664
   33POPC   C2B  707   5.023   8.319   6.447  0.0684 -0.1409  0.1750
   33POPC   C3B  708   4.760   8.016   6.118  0.0560 -0.0641  0.1989
   33POPC   C4B  709   4.723   7.877   5.721  0.0139  0.1597  0.0381
   34POPC   NC3  710   1.658   3.511   8.759 -0.0529  0.2161  0.3779
   34POPC   PO4  711   1.964   3.300   8.381 -0.0084  0.2093  0.3010
   34POPC   GL1  712   1.899   3.435   7.982  0.0186  0.0115  0.1606
   34POPC   GL2  713   1.612   3.311   7.796  0.0464 -0.0531  0.1688
   34POPC   C1A  714   2.068   3.547   7.563  0.2637  0.4085 -0.4601
   34POPC   D2A  715   2.010   3.685   7.138  0.1754  0.2683  0.2543
   34POPC   C3A  716   2.014   3.592   6.722  0.0373 -0.0292 -0.0426
   34POPC   C4A  717   2.285   3.263   6.480 -0.1474  0.2529 -0.3323
   34POPC   C1B  718   1.647   3.364   7.331  0.0761  0.0671  0.1996
   34POPC   C2B  719   1.589   3.422   6.933  0.3749 -0.4884  0.1158
   34POPC   C3B  720   1.353   3.211   6.492  0.0137 -0.0072 -0.1335
   34POPC   C4B  721   1.109   3.410   6.098 -0.2941  0.2559 -0.3011
   35POPC   NC3  722   7.656   0.785   7.998  0.2044 -0.0421  0.3782
   35POPC   PO4  723   7.353   0.922   7.726 -0.1206 -0.1224  0.1014
   35POPC   GL1  724   7.291   1.129   7.327 -0.1901  0.1009  0.0059
   35POPC   GL2  725   7.579   1.302   7.177  0.1740  0.0330  0.2059
   35POPC   C1A  726   7.194   1.017   6.924 -0.0589  0.1239 -0.1978
   35POPC   D2A  727   7.279   1.078   6.475  0.1585 -0.2506 -0.0597
   35POPC   C3A  728   6.996   0.927   6.223 -0.1374  0.1299  0.0344
   35POPC   C4A  729   7.043   0.746   5.781 -0.1249 -0.0434  0.1114
   35POPC   C1B  730   7.605   1.350   6.754  0.0176  0.1267 -0.1553
   35POPC   C2B  731   7.804   1.639   6.457 -0.0959  0.0172  0.0686
   35POPC   C3B  732   7.818   1.990   6.162 -0.1152 -0.0397 -0.0562
   35POPC   C4B  733   8.029   2.482   6.251 -0.2064  0.2386 -0.3364
   36POPC   NC3  734   4.891   3.029   7.564  0.4026 -0.1489 -0.1603
   36POPC   PO4  735   4.968   2.666   7.537  0.1296  0.2804 -0.0877
   36POPC   GL1  736   4.909   2.351   7.159  0.0594  0.0404  0.2923
   36POPC   GL2  737   5.224   2.297   7.137  0.1553 -0.2697  0.0657
   36POPC   C1A  738   4.757   2.249   6.704 -0.0821  0.1388  0.0376
   36POPC   D2A  739   4.894   2.172   6.266  0.0242  0.0004 -0.0715
   36POPC   C3A  740   4.665   2.016   5.972  0.0606  0.1066 -0.0543
   36POPC   C4A  741   4.479   1.792   5.610  0.1850  0.2714  0.0002
   36POPC   C1B  742   5.223   2.365   6.651  0.0207  0.1500 -0.0271
   36POPC   C2B  743   5.296   2.450   6.208 -0.1763 -0.5563 -0.3497
   36POPC   C3B  744   5.267   2.677   5.916  0.0855  0.1850  0.3095
   36POPC   C4B  745   5.306   3.087   5.745 -0.0063  0.1785 -0.1694
   37POPC   NC3  746   6.576   7.595   8.086 -0.0500 -0.0476 -0.0775
   37POPC   PO4  747   6.187   7.477   7.990 -0.0103  0.1305 -0.0417
   37POPC   GL1  748   6.195   7.399   7.626  0.1574  0.0925 -0.3539
   37POPC   GL2  749   6.508   7.316   7.655 -0.1579  0.2408  0.0679
   37POPC   C1A  750   6.146   7.481   7.214  0.0375  0.1165  0.0320
   37POPC   D2A  751   6.152   7.331   6.854  0.4118 -0.0909  0.1294
   37POPC   C3A  752   6.409   7.416   6.502 -0.1228  0.0925 -0.1694
   37POPC   C4A  753   6.628   7.468   6.054 -0.3992  0.0439 -0.0407
   37POPC   C1B  754   6.574   7.284   7.304 -0.0943 -0.2076 -0.0251
   37POPC   C2B  755   6.526   7.077   6.938  0.3306 -0.1399  0.2565
   37POPC   C3B  756   6.608   6.911   6.441 -0.0372  0.1870  0.1602
   37POPC   C4B  757   6.691   6.960   6.042  0.2851  0.1147 -0.1881
   38POPC   NC3  758   2.447   4.573   9.237  0.0534 -0.1454  0.2086
   38POPC   PO4  759   2.280   4.755   8.938  0.0610 -0.3101  0.0247
   38POPC   GL1  760   2.503   4.614   8.463 -0.1525  0.1481  0.1383
   38POPC   GL2  761   2.371   4.697   8.211  0.1662 -0.2199  0.0857
   38POPC   C1A  762   2.548   4.268   8.011 -0.0874 -0.0035 -0.3521
   38POPC   D2A  763   2.883   4.191   7.706  0.0693  0.0928  0.2710
   38POPC   C3A  764   2.927   3.844   7.401 -0.1053  0.1642  0.1061
   38POPC   C4A  765   3.213   3.693   7.184  0.3023  0.0967  0.0112
   38POPC   C1B  766   2.668   4.851   7.841  0.1382 -0.0203  0.1733
   38POPC   C2B  767   3.054   4.785   7.701  0.1778  0.5173  0.0325
   38POPC   C3B  768   3.420   4.839   7.341  0.2522  0.0700 -0.3143
   38POPC   C4B  769   3.843   4.995   7.099  0.1684 -0.0085  0.2115
   39POPC   NC3  770   1.430   5.931   8.857 -0.0524  0.0120 -0.1884
   39POPC   PO4  771   1.429   6.098   8.540  0.3264 -0.2336  0.2275
   39POPC   GL1  772   1.169   6.270   8.098  0.2785 -0.0054 -0.3460
   39POPC   GL2  773   1.313   6.579   8.047 -0.1826  0.0708 -0.0450
   39POPC   C1A  774   1.001   6.460   7.610 -0.2457  0.2000 -0.0815
   39POPC   D2A  775   0.616   6.378   7.247 -0.1406 -0.1613 -0.1529
   39POPC   C3A  776   0.682   6.342   6.780 -0.2447 -0.0522 -0.1207
   39POPC   C4A  777   1.073   6.468   6.578 -0.1992 -0.1028  0.1756
   39POPC   C1B  778   1.697   6.658   7.931 -0.2423  0.1895 -0.3311
   39POPC   C2B  779   1.754   6.987   7.615 -0.1207 -0.0020 -0.1015
   39POPC   C3B  780   1.892   7.392   7.686 -0.1659 -0.1831 -0.1616
   39POPC   C4B  781   2.148   7.752   7.507  0.1323 -0.1675 -0.1080
   40POPC   NC3  782   7.676   5.257   8.053  0.0025  0.3167  0.0470
   40POPC   PO4  783   7.490   5.510   7.888  0.0527 -0.3296  0.1630
   40POPC   GL1  784   7.788   5.233   7.552 -0.0505 -0.1062  0.1409
   40POPC   GL2  785   7.809   5.667   7.456  0.0861 -0.0817  0.0767
   40POPC   C1A  786   8.144   5.171   7.268  0.1442 -0.0612  0.2506
   40POPC   D2A  787   8.493   4.916   6.927  0.2042 -0.0911 -0.0595
   40POPC   C3A  788   8.713   5.040   6.550  0.3920  0.0795 -0.0613
   40POPC   C4A  789   8.627   5.063   6.114 -0.1469 -0.0738  0.2528
   40POPC   C1B  790   7.720   5.562   7.054 -0.1717 -0.1227  0.2804
   40POPC   C2B  791   7.358   5.675   6.812 -0.3516 -0.2989 -0.0476
   40POPC   C3B  792   7.303   5.682   6.407 -0.1480 -0.0021 -0.3975
   40POPC   C4B  793   7.135   5.503   6.032 -0.0350 -0.1609 -0.0296
   41POPC   NC3  794   4.049   1.538   7.773  0.3096 -0.1233 -0.0947
   41POPC   PO4  795   4.370   1.444   7.508  0.2553 -0.1800 -0.0991
   41POPC   GL1  796   4.193   1.195   7.204 -0.3347  0.4608  0.0220
   41POPC   GL2  797   4.262   0.882   7.280  0.2226  0.3020  0.0843
   41POPC   C1A  798   3.991   1.092   6.883 -0.1610 -0.0018  0.1500
   41POPC   D2A  799   3.859   0.793   6.512 -0.1405 -0.1025  0.1315
   41POPC   C3A  800   3.557   0.794   6.329 -0.2470 -0.3321  0.1662
   41POPC   C4A  801   3.468   0.509   5.901 -0.3488 -0.2445 -0.1272
   41POPC   C1B  802   4.098   0.560   7.132 -0.0773 -0.0564 -0.0317
   41POPC   C2B  803   3.910   0.355   6.714  0.0424  0.0494 -0.0144
   41POPC   C3B  804   3.651   0.282   6.393 -0.1739 -0.2586  0.1594
   41POPC   C4B  805   3.707   0.087   5.970  0.1915  0.3499  0.2913
   42POPC   NC3  806   9.687   2.680   7.815 -0.2422 -0.0073 -0.2838
   42POPC   PO4  807   9.391   2.996   7.699  0.1292  0.2375  0.1846
   42POPC   GL1  808   9.109   3.243   7.339 -0.1146 -0.0153 -0.0448
   42POPC   GL2  809   8.870   3.359   7.366 -0.0156 -0.2070 -0.0944
   42POPC   C1A  810   9.075   3.232   6.901  0.3078 -0.0210  0.1988
   42POPC   D2A  811   8.939   3.456   6.512 -0.2296  0.0093 -0.0420
   42POPC   C3A  812   8.801   3.293   6.167 -0.0835 -0.0154  0.0539
   42POPC   C4A  813   8.682   3.011   5.819 -0.0778  0.3568  0.0734
   42POPC   C1B  814   8.780   3.932   7.284 -0.0097 -0.0224 -0.2923
   42POPC   C2B  815   8.711   4.286   6.968 -0.1067  0.0170 -0.0115
   42POPC   C3B  816   8.632   4.549   6.544 -0.0841 -0.1632 -0.3095
   42POPC   C4B  817   8.310   4.617   6.221  0.1454  0.0706 -0.1932
   43POPC   NC3  818   6.783   1.082   7.715 -0.1070 -0.1434  0.1881
   43POPC   PO4  819   6.341   1.093   7.535 -0.0973 -0.2153 -0.1436
   43POPC   GL1  820   6.270   1.139   7.081  0.0726 -0.2102  0.1286
   43POPC   GL2  821   6.369   1.369   6.983 -0.0017 -0.2161 -0.1838
   43POPC   C1A  822   6.076   1.167   6.643 -0.1496 -0.1115  0.1676
   43POPC   D2A  823   6.078   1.107   6.157 -0.2285 -0.1540 -0.0745
   43POPC   C3A  824   6.492   1.168   6.187 -0.1423  0.0536  0.1696
   43POPC   C4A  825   6.745   1.454   6.255 -0.2501  0.1553  0.2660
   43POPC   C1B  826   6.428   1.607   6.620 -0.2228 -0.0575 -0.1677
   43POPC   C2B  827   6.393   1.989   6.550 -0.0111  0.2492 -0.1320
   43POPC   C3B  828   6.402   2.297   6.225 -0.1688 -0.0356 -0.0062
   43POPC   C4B  829   6.115   2.535   6.034 -0.0478  0.3090 -0.1988
   44POPC   NC3  830   9.968   8.127   7.834  0.3519 -0.2364  0.3332
   44POPC   PO4  831  10.031   7.782   7.663  0.0037  0.0346 -0.2328
   44POPC   GL1  832  10.301   7.903   7.355  0.2138 -0.1466  0.2345
   44POPC   GL2  833  10.570   8.144   7.309 -0.3494  0.1526 -0.1234
   44POPC   C1A  834  10.297   8.023   6.839 -0.1086 -0.0412  0.1079
   44POPC   D2A  835  10.360   8.241   6.513  0.0079  0.0986  0.1110
   44POPC   C3A  836  10.147   8.566   6.318  0.0090 -0.2252 -0.0091
   44POPC   C4A  837  10.008   8.725   5.945 -0.0408  0.3622 -0.0699
   44POPC   C1B  838  10.738   8.212   6.981  0.1880  0.2372 -0.1607
   44POPC   C2B  839  10.852   8.096   6.638 -0.1512 -0.0900 -0.1041
   44POPC   C3B  840  10.956   7.776   6.323  0.1089 -0.0145  0.0991
   44POPC   C4B  841  10.825   7.684   5.939  0.4918  0.1608 -0.0177
   45POPC   NC3  842   4.358   8.757   8.045 -0.0768  0.1125  0.1855
   45POPC   PO4  843   4.261   8.881   7.610 -0.1274 -0.1674  0.0999
   45POPC   GL1  844   4.346   8.702   7.192  0.1606 -0.0734  0.3697
   45POPC   GL2  845   4.585   8.804   6.902  0.1398 -0.1500 -0.2053
   45POPC   C1A  846   4.094   8.367   6.902 -0.2272  0.0941 -0.1723
   45POPC   D2A  847   3.969   7.961   6.728  0.2481  0.0761  0.2107
   45POPC   C3A  848   3.854   7.859   6.516  0.2249 -0.2612 -0.0695
   45POPC   C4A  849   3.825   7.666   6.072 -0.0347 -0.0615  0.0950
   45POPC   C1B  850   4.108   8.883   6.722 -0.1296 -0.0105  0.2851
   45POPC   C2B  851   3.822   8.894   6.277 -0.1057  0.0551 -0.0129
   45POPC   C3B  852   3.633   9.118   5.896  0.0264  0.1344  0.0798
   45POPC   C4B  853   3.854   9.067   5.548 -0.1644  0.0009  0.1898
   46POPC   NC3  854   1.906   7.635   8.617  0.2308  0.1905  0.0854
   46POPC   PO4  855   1.574   7.881   8.236  0.1007  0.0961 -0.0347
   46POPC   GL1  856   1.427   7.562   7.948  0.1485 -0.1092  0.0600
   46POPC   GL2  857   1.343   7.767   7.671  0.0856  0.1789  0.0795
   46POPC   C1A  858   1.335   7.305   7.720 -0.0767 -0.0836 -0.1752
   46POPC   D2A  859   1.298   6.898   7.692  0.1849  0.2504  0.0845
   46POPC   C3A  860   1.526   6.682   7.356 -0.1967 -0.0055  0.2468
   46POPC   C4A  861   1.845   6.737   7.058 -0.1296 -0.3723 -0.0653
   46POPC   C1B  862   1.540   7.501   7.370 -0.1911  0.0853  0.2110
   46POPC   C2B  863   1.797   7.428   7.135 -0.0231  0.2796 -0.1108
   46POPC   C3B  864   1.703   7.301   6.742  0.1078  0.0419 -0.4708
   46POPC   C4B  865   1.700   7.208   6.307  0.1247 -0.1141  0.0576
   47POPC   NC3  866   8.965   0.949   7.637 -0.0699 -0.2066  0.0387
   47POPC   PO4  867   9.353   1.209   7.512 -0.2853 -0.4361 -0.2542
   47POPC   GL1  868   9.134   1.187   7.157  0.0222 -0.0493 -0.2982
   47POPC   GL2  869   9.067   0.862   7.119 -0.1714 -0.0378 -0.0637
   47POPC   C1A  870   9.141   1.317   6.736 -0.0470  0.1383  0.3978
   47POPC   D2A  871   9.254   1.222   6.318 -0.1185 -0.2875  0.1468
   47POPC   C3A  872   9.686   1.359   6.135 -0.0060  0.0990  0.1483
   47POPC   C4A  873   9.719   1.628   5.769 -0.2068 -0.3000  0.0642
   47POPC   C1B  874   8.833   0.844   6.800 -0.2910  0.2269  0.1031
   47POPC   C2B  875   8.605   0.779   6.451  0.1203 -0.0007  0.1056
   47POPC   C3B  876   8.483   0.550   6.079 -0.1490 -0.1029 -0.3155
   47POPC   C4B  877   8.321   0.400   5.655  0.4311  0.0620 -0.2917
   48POPC   NC3  878   5.394   3.596   8.420 -0.1783  0.4675 -0.3084
   48POPC   PO4  879   5.369   3.654   8.021  0.0497 -0.0791  0.0558
   48POPC   GL1  880   5.107   3.838   7.634 -0.2019  0.0478 -0.5717
   48POPC   GL2  881   4.845   3.864   7.456  0.1608  0.3160  0.0577
   48POPC   C1A  882   5.316   3.896   7.292  0.2952  0.1890  0.1002
   48POPC   D2A  883   5.260   3.829   6.900 -0.1171 -0.2018  0.1041
   48POPC   C3A  884   5.034   3.954   6.554  0.0806  0.0211 -0.1935
   48POPC   C4A  885   4.733   4.229   6.539  0.2570 -0.0053  0.0130
   48POPC   C1B  886   4.884   3.594   7.060 -0.1709 -0.1180 -0.1980
   48POPC   C2B  887   4.956   3.286   6.898 -0.1542 -0.1911  0.2297
   48POPC   C3B  888   5.196   2.964   6.608 -0.1112 -0.2676 -0.2730
   48POPC   C4B  889   5.292   3.079   6.221 -0.0773 -0.1204  0.0364
   49POPC   NC3  890   4.184  10.566   7.987 -0.4438 -0.1656  0.1779
   49POPC   PO4  891   3.948  10.537   7.625  0.0581 -0.0763  0.1285
   49POPC   GL1  892   4.037  10.611   7.152  0.2045  0.0004 -0.1652
   49POPC   GL2  893   3.782  10.779   7.149  0.0468  0.1295  0.2551
   49POPC   C1A  894   4.061  10.512   6.728  0.1823  0.1872 -0.0009
   49POPC   D2A  895   4.114  10.656   6.256 -0.4629  0.0926 -0.1747
   49POPC   C3A  896   3.985  11.094   6.051 -0.1394 -0.1698  0.1595
   49POPC   C4A  897   4.298  11.427   6.156  0.2849 -0.0859  0.0955
   49POPC   C1B  898   3.449  10.785   6.923 -0.0780 -0.1007 -0.1357
   49POPC   C2B  899   3.256  10.625   6.621 -0.0289 -0.1494  0.1435
   49POPC   C3B  900   3.056  10.817   6.135  0.0022  0.3065 -0.1928
   49POPC   C4B  901   2.796  10.957   5.758  0.0227 -0.0902 -0.2501
   50POPC   NC3  902  10.617   0.643   7.534  0.2582  0.0661 -0.2463
   50POPC   PO4  903  11.087   0.671   7.436 -0.2575 -0.2222 -0.2396
   50POPC   GL1  904  11.356   0.676   6.987 -0.1059  0.0806 -0.0995
   50POPC   GL2  905  11.435   0.336   6.981  0.0920  0.1012  0.0579
   50POPC   C1A  906  11.461   0.868   6.616  0.3172  0.0514 -0.3011
   50POPC   D2A  907  11.560   0.444   6.282  0.0658 -0.1154  0.0940
   50POPC   C3A  908  11.869   0.318   6.079  0.0501  0.0580 -0.0290
   50POPC   C4A  909  12.239   0.209   6.142  0.1657  0.1225 -0.0395
   50POPC   C1B  910  11.098   0.327   6.681  0.4010 -0.0029  0.2830
   50POPC   C2B  911  11.094   0.279   6.196  0.0998  0.2543  0.0476
   50POPC   C3B  912  10.904   0.112   5.865  0.1293 -0.1220  0.1067
   50POPC   C4B  913  10.552  -0.022   5.718 -0.0424  0.1947  0.1010
   51POPC   NC3  914   7.926   2.022   7.530 -0.0791 -0.1585 -0.1277
   51POPC   PO4  915   7.692   1.773   7.894  0.0911 -0.1865 -0.0413
   51POPC   GL1  916   7.442   1.711   7.506 -0.1875  0.1506  0.0840
   51POPC   GL2  917   7.544   1.901   7.220 -0.2574  0.1505 -0.0929
   51POPC   C1A  918   7.189   1.583   7.160  0.0543 -0.0777  0.0339
   51POPC   D2A  919   6.980   1.508   6.775 -0.0507  0.3260  0.2610
   51POPC   C3A  920   6.692   1.201   6.677  0.0748  0.1553  0.2249
   51POPC   C4A  921   6.595   0.782   6.572  0.0114  0.4406  0.0452
   51POPC   C1B  922   7.398   1.846   6.721 -0.0248  0.1949  0.1298
   51POPC   C2B  923   7.339   1.830   6.324  0.0816 -0.3864  0.0171
   51POPC   C3B  924   7.204   1.741   5.950 -0.1038 -0.0934 -0.2158
   51POPC   C4B  925   6.883   1.680   5.767  0.4662  0.1449  0.0121
   52POPC   NC3  926   3.218   3.145   8.813  0.0135 -0.0925 -0.0352
   52POPC   PO4  927   3.237   3.038   8.398 -0.2746 -0.1821 -0.0382
   52POPC   GL1  928   3.354   3.373   8.032 -0.1783  0.2734  0.0451
   52POPC   GL2  929   3.413   3.711   8.084 -0.0639 -0.1857 -0.4283
   52POPC   C1A  930   3.247   3.408   7.618 -0.0036  0.1173 -0.1737
   52POPC   D2A  931   2.980   3.269   7.252  0.1199 -0.1403  0.0459
   52POPC   C3A  932   3.116   2.844   6.994 -0.0017 -0.2575 -0.1135
   52POPC   C4A  933   3.097   2.419   6.944  0.2682 -0.1952 -0.0477
   52POPC   C1B  934   3.340   3.938   7.716 -0.1784 -0.2252 -0.2029
   52POPC   C2B  935   3.456   4.088   7.278 -0.2334  0.1490 -0.1461
   52POPC   C3B  936   3.643   4.045   6.897 -0.1942 -0.1253 -0.0609
   52POPC   C4B  937   3.856   3.932   6.548 -0.1352  0.4844 -0.0662
   53POPC   NC3  938   9.762   0.350   7.392  0.0524  0.3163 -0.0822
   53POPC   PO4  939  10.032   0.656   7.297 -0.2501  0.0102 -0.0696
   53POPC   GL1  940   9.901   0.477   6.868  0.0531 -0.2112  0.0839
   53POPC   GL2  941   9.880   0.678   6.661 -0.4827  0.0626 -0.1993
   53POPC   C1A  942   9.603   0.274   6.610  0.0752  0.2514 -0.2585
   53POPC   D2A  943   9.314   0.208   6.189 -0.0231 -0.0076  0.0412
   53POPC   C3A  944   9.368   0.094   5.873  0.0582  0.0453  0.0684
   53POPC   C4A  945   9.688  -0.046   5.608 -0.1155  0.4037 -0.0897
   53POPC   C1B  946   9.704   0.641   6.258 -0.0698  0.0799  0.1921
   53POPC   C2B  947   9.800   0.612   5.862 -0.0595 -0.0758  0.0699
   53POPC   C3B  948   9.931   0.433   5.569  0.2050  0.0789 -0.1602
   53POPC   C4B  949  10.017   0.228   5.169 -0.0095 -0.0454 -0.4699
   54POPC   NC3  950   7.550   7.991   8.472  0.1214  0.1566  0.1314
   54POPC   PO4  951   7.714   8.252   8.100 -0.2760  0.1729 -0.1911
   54POPC   GL1  952   7.739   8.294   7.607 -0.0951 -0.1965  0.2030
   54POPC   GL2  953   7.888   8.616   7.590  0.1677  0.0819  0.2035
   54POPC   C1A  954   8.032   8.211   7.287  0.1273  0.1588 -0.1756
   54POPC   D2A  955   8.311   7.830   6.988  0.2421  0.1563  0.2722
   54POPC   C3A  956   8.542   7.936   6.667 -0.2498  0.1367 -0.1770
   54POPC   C4A  957   8.841   7.992   6.382  0.0896 -0.0835  0.0925
   54POPC   C1B  958   7.648   8.508   7.109 -0.3230 -0.2861  0.0732
   54POPC   C2B  959   7.674   8.544   6.691 -0.1933 -0.2033 -0.2789
   54POPC   C3B  960   7.847   8.579   6.332 -0.0215  0.2142 -0.2847
   54POPC   C4B  961   7.964   8.678   5.883  0.2930  0.1039 -0.0350
   55POPC   NC3  962   1.513   8.727   8.081  0.0727  0.2252 -0.1965
   55POPC   PO4  963   1.814   8.432   8.381 -0.0867  0.0029  0.0758
   55POPC   GL1  964   1.729   8.235   7.997 -0.2435 -0.0998 -0.0452
   55POPC   GL2  965   1.674   8.427   7.732 -0.0129 -0.0407 -0.1099
   55POPC   C1A  966   1.700   8.000   7.536 -0.0803  0.1278 -0.0673
   55POPC   D2A  967   1.752   7.952   7.118  0.2186  0.0198 -0.1404
   55POPC   C3A  968   1.790   7.756   6.772  0.0703  0.1640  0.0098
   55POPC   C4A  969   1.538   7.679   6.429  0.0201 -0.1444 -0.1746
   55POPC   C1B  970   1.557   8.444   7.366  0.0265 -0.1248 -0.1972
   55POPC   C2B  971   1.624   8.554   7.020 -0.0649 -0.2148  0.3363
   55POPC   C3B  972   1.534   8.511   6.572  0.1222  0.3348  0.0619
   55POPC   C4B  973   1.632   8.366   6.197 -0.1826  0.2485 -0.0659
   56POPC   NC3  974   4.158   4.795   8.457 -0.1136  0.0858 -0.0045
   56POPC   PO4  975   4.182   5.285   8.384 -0.1883  0.0362 -0.1048
   56POPC   GL1  976   4.219   5.402   7.936  0.1673  0.0328  0.0382
   56POPC   GL2  977   4.392   5.753   7.794 -0.2816 -0.0164  0.2561
   56POPC   C1A  978   4.246   5.387   7.487  0.1202 -0.0424  0.1730
   56POPC   D2A  979   4.644   5.580   7.176  0.0305 -0.2413 -0.1216
   56POPC   C3A  980   4.439   5.603   6.755  0.6420 -0.2172  0.1934
   56POPC   C4A  981   4.146   5.259   6.616  0.2700  0.1498  0.1692
   56POPC   C1B  982   4.709   6.208   7.883 -0.3708  0.1323  0.1630
   56POPC   C2B  983   4.768   6.540   7.570  0.2763 -0.1929  0.2568
   56POPC   C3B  984   4.680   6.794   7.300  0.0013 -0.0704  0.0991
   56POPC   C4B  985   4.783   6.804   6.834  0.2871 -0.0162  0.0730
   57POPC   NC3  986  10.542   4.462   7.981  0.0839  0.1833  0.2031
   57POPC   PO4  987  10.325   4.814   7.986  0.1049  0.0895 -0.0620
   57POPC   GL1  988  10.556   4.811   7.627  0.1279 -0.0440 -0.1115
   57POPC   GL2  989  10.396   4.570   7.503 -0.0289 -0.4583  0.0260
   57POPC   C1A  990  10.848   4.712   7.331  0.0401  0.0266  0.1017
   57POPC   D2A  991  10.867   4.881   6.893 -0.0481 -0.0334 -0.1662
   57POPC   C3A  992  10.845   4.692   6.520  0.1476  0.2728 -0.0454
   57POPC   C4A  993  10.845   4.507   6.118 -0.0916  0.0310  0.0007
   57POPC   C1B  994  10.460   4.444   7.097  0.0885 -0.0858 -0.1159
   57POPC   C2B  995  10.388   4.593   6.759 -0.4312  0.0593  0.2257
   57POPC   C3B  996  10.251   4.743   6.315  0.2316  0.0200  0.0033
   57POPC   C4B  997   9.892   4.891   6.097  0.0918 -0.0456 -0.0344
   58POPC   NC3  998   7.140   2.667   8.463 -0.1164  0.3027 -0.0801
   58POPC   PO4  999   7.118   2.390   8.061  0.2530  0.3437  0.1723
   58POPC   GL1 1000   7.128   2.518   7.619 -0.0001  0.0799 -0.0094
   58POPC   GL2 1001   6.849   2.371   7.558 -0.2682  0.2546 -0.2021
   58POPC   C1A 1002   7.401   2.519   7.240  0.1890 -0.1639  0.0957
   58POPC   D2A 1003   7.663   2.358   7.007 -0.1711 -0.1657  0.1045
   58POPC   C3A 1004   8.101   2.450   6.862 -0.1342  0.0311  0.0510
   58POPC   C4A 1005   8.351   2.706   6.662 -0.1198 -0.1023  0.2032
   58POPC   C1B 1006   6.802   2.466   7.066  0.0559  0.2020  0.0041
   58POPC   C2B 1007   6.674   2.415   6.648  0.3514 -0.0591 -0.1459
   58POPC   C3B 1008   6.753   2.603   6.223  0.2686  0.1022 -0.2775
   58POPC   C4B 1009   6.498   2.530   5.751 -0.1945 -0.1066  0.0192
   59POPC   NC3 1010   8.804   1.617   7.587  0.0942  0.0357  0.0331
   59POPC   PO4 1011   8.355   1.655   7.440  0.1538  0.0295 -0.0110
   59POPC   GL1 1012   8.519   1.564   6.971  0.0844  0.0691 -0.2436
   59POPC   GL2 1013   8.831   1.759   7.066  0.0121  0.0390  0.0840
   59POPC   C1A 1014   8.617   1.706   6.557  0.3161  0.0954  0.1839
   59POPC   D2A 1015   8.519   1.610   6.235 -0.1139 -0.0537  0.2682
   59POPC   C3A 1016   8.122   1.632   6.072 -0.0204 -0.4684 -0.4021
   59POPC   C4A 1017   8.015   1.751   5.699 -0.0975 -0.1514 -0.1130
   59POPC   C1B 1018   8.996   1.939   6.672 -0.2173 -0.4549 -0.2134
   59POPC   C2B 1019   9.061   1.678   6.287 -0.2183  0.0185  0.2927
   59POPC   C3B 1020   9.273   1.532   5.884  0.0061 -0.0979  0.2421
   59POPC   C4B 1021   9.378   1.340   5.585  0.0710  0.3206 -0.0430
   60POPC   NC3 1022   7.898   4.315   7.958  0.0050  0.2737  0.0724
   60POPC   PO4 1023   7.408   4.337   7.831  0.0507 -0.3296  0.0465
   60POPC   GL1 1024   7.184   4.486   7.493 -0.1097  0.0378 -0.0770
   60POPC   GL2 1025   6.933   4.797   7.474 -0.1086  0.0947  0.0180
   60POPC   C1A 1026   7.263   4.816   7.157 -0.1561  0.0123  0.3775
   60POPC   D2A 1027   7.239   4.772   6.817 -0.2660  0.2455  0.1611
   60POPC   C3A 1028   7.569   4.737   6.556 -0.0658 -0.2148  0.2964
   60POPC   C4A 1029   7.706   4.801   6.206  0.2915 -0.0604 -0.0994
   60POPC   C1B 1030   6.862   4.440   7.108  0.1166  0.1673 -0.1506
   60POPC   C2B 1031   6.836   4.419   6.725  0.1139 -0.3071  0.1880
   60POPC   C3B 1032   6.873   4.203   6.310 -0.0055 -0.0568  0.0007
   60POPC   C4B 1033   6.842   4.271   5.952  0.1711 -0.0499  0.0542
   61POPC   NC3 1034   0.738   8.570   7.624 -0.3340 -0.3642 -0.0495
   61POPC   PO4 1035   0.734   8.195   7.990  0.0103 -0.1549 -0.1010
   61POPC   GL1 1036   0.822   7.940   7.593  0.0734  0.3977  0.1405
   61POPC   GL2 1037   0.987   8.151   7.429  0.0019  0.0598  0.3427
   61POPC   C1A 1038   1.025   7.646   7.362 -0.0620  0.0637  0.2189
   61POPC   D2A 1039   1.260   7.645   6.912 -0.2651  0.1190 -0.1917
   61POPC   C3A 1040   1.133   7.435   6.587  0.2632  0.1104  0.2036
   61POPC   C4A 1041   1.198   7.128   6.306  0.1906 -0.2141  0.0226
   61POPC   C1B 1042   1.277   8.228   7.027 -0.0873  0.2745 -0.0914
   61POPC   C2B 1043   1.306   8.075   6.613 -0.2491  0.2485  0.3617
   61POPC   C3B 1044   1.148   7.918   6.255 -0.1503  0.3418  0.4142
   61POPC   C4B 1045   1.293   7.511   5.991 -0.1601  0.3586 -0.0262
   62POPC   NC3 1046   5.433   1.969   7.610 -0.2052 -0.0862 -0.4203
   62POPC   PO4 1047   5.198   1.656   7.452 -0.2525 -0.0586 -0.0309
   62POPC   GL1 1048   5.294   1.782   7.032  0.1089 -0.0422  0.2672
   62POPC   GL2 1049   5.011   1.892   6.969  0.1124  0.1527  0.1178
   62POPC   C1A 1050   5.470   1.907   6.673  0.1895  0.3251  0.0181
   62POPC   D2A 1051   5.451   2.004   6.296  0.0290  0.1858  0.0242
   62POPC   C3A 1052   5.230   1.691   6.084 -0.1889  0.0541 -0.3800
   62POPC   C4A 1053   5.140   1.240   5.916  0.2098  0.1661 -0.0167
   62POPC   C1B 1054   4.988   1.743   6.536 -0.0289  0.0478 -0.3473
   62POPC   C2B 1055   4.799   1.573   6.215  0.1145  0.0752  0.2278
   62POPC   C3B 1056   4.660   1.416   5.832 -0.1642  0.0315 -0.0006
   62POPC   C4B 1057   4.528   1.036   5.719  0.1457  0.0243 -0.2045
   63POPC   NC3 1058   8.672   4.116   8.124  0.1972  0.0243 -0.2394
   63POPC   PO4 1059   8.344   3.946   7.837 -0.3712  0.1131 -0.3920
   63POPC   GL1 1060   8.119   4.219   7.542 -0.1512  0.2069  0.2869
   63POPC   GL2 1061   7.711   4.204   7.473 -0.2749 -0.0207  0.1840
   63POPC   C1A 1062   8.162   4.345   7.141  0.0779 -0.1264  0.3574
   63POPC   D2A 1063   8.344   4.147   6.698  0.2523  0.2948  0.0373
   63POPC   C3A 1064   8.111   4.111   6.362  0.1087 -0.1394  0.2511
   63POPC   C4A 1065   8.106   3.962   5.961  0.0778  0.1341 -0.1737
   63POPC   C1B 1066   7.753   3.932   7.156  0.3322 -0.2115  0.0155
   63POPC   C2B 1067   7.687   3.885   6.722  0.4051  0.1589 -0.2009
   63POPC   C3B 1068   7.598   3.868   6.256 -0.1037 -0.1013 -0.1936
   63POPC   C4B 1069   7.240   3.956   6.057  0.0616  0.1906  0.0865
   64POPC   NC3 1070   9.800   6.953   7.768  0.0896  0.1899  0.1203
   64POPC   PO4 1071   9.642   6.603   7.804  0.1490 -0.3526 -0.0019
   64POPC   GL1 1072   9.628   6.590   7.448 -0.0144 -0.0186 -0.1912
   64POPC   GL2 1073   9.426   6.457   7.266  0.0022  0.0742 -0.0074
   64POPC   C1A 1074   9.871   6.695   7.123 -0.2890  0.0951 -0.0223
   64POPC   D2A 1075   9.820   6.707   6.777 -0.1613  0.2891  0.1494
   64POPC   C3A 1076  10.049   6.470   6.439 -0.1311 -0.3068  0.1713
   64POPC   C4A 1077  10.140   6.550   5.962  0.3467 -0.3342  0.1994
   64POPC   C1B 1078   9.365   6.460   6.758 -0.1277  0.3135  0.0550
   64POPC   C2B 1079   9.338   6.659   6.391 -0.0475 -0.2914  0.1891
   64POPC   C3B 1080   9.036   6.559   6.026 -0.1129 -0.1460  0.0776
   64POPC   C4B 1081   8.839   6.192   5.849  0.1094 -0.4078 -0.4050
   65POPC   NC3 1082   9.909   5.375   7.909 -0.1974  0.0415  0.1670
   65POPC   PO4 1083   9.619   5.047   8.008 -0.0446 -0.1244 -0.0630
   65POPC   GL1 1084  10.039   4.963   7.597  0.0293 -0.0557 -0.0801
   65POPC   GL2 1085  10.125   5.273   7.452  0.0519 -0.0047 -0.3832
   65POPC   C1A 1086   9.944   4.730   7.324  0.2085 -0.0409  0.0537
   65POPC   D2A 1087   9.933   4.546   6.913 -0.0665  0.3063  0.4637
   65POPC   C3A 1088   9.557   4.635   6.591 -0.0625  0.0266  0.0209
   65POPC   C4A 1089   9.228   4.859   6.406  0.4331  0.1659 -0.1702
   65POPC   C1B 1090  10.470   5.427   7.543 -0.1640  0.1566  0.1619
   65POPC   C2B 1091  10.757   5.881   7.389 -0.2649 -0.1156 -0.1334
   65POPC   C3B 1092  10.947   6.019   6.976  0.1079 -0.2333 -0.3001
   65POPC   C4B 1093  11.076   5.956   6.531  0.0913  0.2526 -0.0273
   66POPC   NC3 1094   7.946   2.866   8.233  0.0182 -0.2785  0.1838
   66POPC   PO4 1095   7.746   2.864   7.818 -0.0350  0.0676  0.1442
   66POPC   GL1 1096   7.827   2.635   7.489  0.0764  0.0501 -0.1463
   66POPC   GL2 1097   8.111   2.495   7.431  0.0537 -0.0634 -0.1352
   66POPC   C1A 1098   7.816   2.866   7.096 -0.1003 -0.1731 -0.0066
   66POPC   D2A 1099   8.096   3.077   6.819 -0.2660  0.2362  0.1206
   66POPC   C3A 1100   7.966   2.993   6.456 -0.2545 -0.1108 -0.1920
   66POPC   C4A 1101   7.787   2.940   5.970  0.0525 -0.0830  0.3449
   66POPC   C1B 1102   8.346   2.750   7.192 -0.1486 -0.0494 -0.1389
   66POPC   C2B 1103   8.671   2.907   6.954 -0.0175 -0.0698  0.0380
   66POPC   C3B 1104   8.848   2.960   6.541  0.5672  0.3219 -0.1569
   66POPC   C4B 1105   8.960   2.828   6.173 -0.0694 -0.0499  0.3453
   67POPC   NC3 1106   4.023   6.771   8.610 -0.0824 -0.0091  0.0115
   67POPC   PO4 1107   3.646   6.678   8.805  0.0124  0.2982 -0.0550
   67POPC   GL1 1108   3.558   6.344   8.524 -0.1710 -0.1518  0.0978
   67POPC   GL2 1109   3.867   6.283   8.335 -0.0394 -0.1263  0.0176
   67POPC   C1A 1110   3.680   5.880   8.559  0.1876  0.0413 -0.3010
   67POPC   D2A 1111   3.764   5.514   8.272  0.3733 -0.0768 -0.1144
   67POPC   C3A 1112   3.681   5.511   7.873 -0.3472 -0.1396  0.0304
   67POPC   C4A 1113   3.749   5.448   7.409  0.4040  0.1581 -0.3598
   67POPC   C1B 1114   4.026   5.963   8.090  0.0721 -0.0206  0.1635
   67POPC   C2B 1115   3.982   5.860   7.603  0.0900 -0.0231 -0.0702
   67POPC   C3B 1116   3.468   5.932   7.485 -0.1616 -0.0079  0.0658
   67POPC   C4B 1117   3.201   6.255   7.350  0.2577  0.0055 -0.0489
   68POPC   NC3 1118   5.362   8.228   7.858  0.0985  0.0073  0.2221
   68POPC   PO4 1119   5.259   7.795   7.821 -0.1924  0.3900 -0.1769
   68POPC   GL1 1120   5.312   7.736   7.457 -0.1863 -0.0817  0.1984
   68POPC   GL2 1121   5.481   7.491   7.436  0.0856  0.0619  0.0485
   68POPC   C1A 1122   5.210   7.636   7.030  0.0927  0.0854  0.3446
   68POPC   D2A 1123   4.930   7.720   6.675 -0.1103  0.0874  0.2808
   68POPC   C3A 1124   4.801   7.505   6.314  0.0177 -0.0502 -0.2054
   68POPC   C4A 1125   4.803   7.433   5.907  0.3536 -0.2138  0.0134
   68POPC   C1B 1126   5.667   7.472   7.022 -0.1025  0.0806 -0.0260
   68POPC   C2B 1127   5.582   7.503   6.646 -0.3895  0.0377  0.0140
   68POPC   C3B 1128   5.676   7.729   6.246 -0.0107 -0.5082 -0.2545
   68POPC   C4B 1129   5.697   8.149   6.076 -0.0052 -0.4260  0.1555
   69POPC   NC3 1130   2.603   0.862   7.999  0.1308 -0.1462  0.0414
   69POPC   PO4 1131   2.277   0.870   7.745 -0.3057  0.2345  0.0655
   69POPC   GL1 1132   2.164   0.962   7.168  0.0231 -0.0738 -0.2374
   69POPC   GL2 1133   2.264   1.242   7.011 -0.2186 -0.1411 -0.4176
   69POPC   C1A 1134   2.215   0.859   6.709 -0.1189  0.5634 -0.0532
   69POPC   D2A 1135   2.181   0.978   6.237 -0.0700 -0.1898  0.0649
   69POPC   C3A 1136   2.352   1.421   6.041 -0.2111 -0.2763 -0.1802
   69POPC   C4A 1137   2.666   1.536   5.824  0.1111  0.2371  0.4035
   69POPC   C1B 1138   1.905   1.253   6.748  0.1734 -0.4555 -0.0964
   69POPC   C2B 1139   1.615   1.226   6.467  0.2002 -0.0093  0.2076
   69POPC   C3B 1140   1.406   1.487   6.221  0.2240 -0.3274  0.1480
   69POPC   C4B 1141   1.457   1.883   6.096  0.2147  0.0537  0.1448
   70POPC   NC3 1142   0.061   3.439   8.292 -0.1662  0.1515 -0.4434
   70POPC   PO4 1143  -0.246   3.227   7.934 -0.1340  0.0372 -0.0119
   70POPC   GL1 1144  -0.155   3.291   7.466 -0.0441 -0.0865  0.1939
   70POPC   GL2 1145  -0.454   3.366   7.384 -0.3162 -0.1564  0.0444
   70POPC   C1A 1146  -0.204   3.001   7.106 -0.0945  0.0722  0.1095
   70POPC   D2A 1147   0.007   3.069   6.802  0.2260 -0.0301  0.2421
   70POPC   C3A 1148   0.247   2.996   6.442  0.0020  0.2072  0.2225
   70POPC   C4A 1149   0.490   3.116   6.092 -0.0590 -0.1542 -0.2158
   70POPC   C1B 1150  -0.804   3.537   7.197  0.1617 -0.0614  0.1763
   70POPC   C2B 1151  -1.009   3.841   7.087  0.4033 -0.0362 -0.1303
   70POPC   C3B 1152  -0.998   4.146   6.749 -0.1336  0.1931  0.0042
   70POPC   C4B 1153  -0.723   4.190   6.411 -0.1977 -0.1784  0.3516
   71POPC   NC3 1154   4.522   0.949   7.780 -0.3293 -0.1453 -0.0004
   71POPC   PO4 1155   4.048   1.047   7.669  0.1442  0.0389 -0.1703
   71POPC   GL1 1156   3.783   0.963   7.355 -0.0565 -0.1085  0.0521
   71POPC   GL2 1157   3.646   0.685   7.237 -0.1020  0.0373 -0.0854
   71POPC   C1A 1158   3.515   1.228   7.020 -0.0576 -0.2937  0.1651
   71POPC   D2A 1159   3.631   1.562   6.775 -0.0391  0.0360  0.2328
   71POPC   C3A 1160   3.551   1.716   6.373 -0.1334 -0.3086  0.4048
   71POPC   C4A 1161   3.131   1.749   6.158  0.1752  0.1472 -0.0276
   71POPC   C1B 1162   3.514   0.727   6.826 -0.0024  0.0877  0.1893
   71POPC   C2B 1163   3.145   0.990   6.607 -0.4562 -0.0226 -0.5738
   71POPC   C3B 1164   2.731   1.118   6.343 -0.0731  0.1635 -0.0732
   71POPC   C4B 1165   2.396   1.270   6.554 -0.2568  0.1376  0.6118
   72POPC   NC3 1166   7.352   8.035   7.810  0.1072  0.1986 -0.0194
   72POPC   PO4 1167   6.886   7.754   7.755 -0.0919  0.0045 -0.0531
   72POPC   GL1 1168   6.834   7.873   7.408  0.1215  0.2508  0.0206
   72POPC   GL2 1169   6.450   7.844   7.351  0.2601  0.1507  0.0525
   72POPC   C1A 1170   6.711   8.100   6.985  0.0284 -0.1401  0.1093
   72POPC   D2A 1171   6.945   8.269   6.577 -0.0264  0.3388  0.0516
   72POPC   C3A 1172   7.319   8.268   6.464  0.1955 -0.0058 -0.4444
   72POPC   C4A 1173   7.666   8.076   6.312  0.0103 -0.1617  0.2643
   72POPC   C1B 1174   6.647   7.576   6.937  0.2109  0.2811 -0.5018
   72POPC   C2B 1175   6.890   7.408   6.626  0.1637  0.0649  0.1250
   72POPC   C3B 1176   7.127   7.185   6.299 -0.1827 -0.0679  0.1813
   72POPC   C4B 1177   7.174   7.283   5.911 -0.3560  0.0902 -0.0983
   73POPC   NC3 1178   9.554   7.870   7.728  0.0303 -0.0837 -0.0778
   73POPC   PO4 1179   9.575   8.410   7.793  0.2002  0.0009 -0.1911
   73POPC   GL1 1180   9.378   8.354   7.391 -0.4593 -0.1380 -0.0557
   73POPC   GL2 1181   9.246   8.018   7.286 -0.0624  0.1575 -0.0400
   73POPC   C1A 1182   9.507   8.466   7.080 -0.2255 -0.1217  0.0920
   73POPC   D2A 1183   9.456   8.634   6.656  0.2459  0.1522 -0.0406
   73POPC   C3A 1184   9.054   8.451   6.417 -0.2306  0.4840  0.3162
   73POPC   C4A 1185   8.653   8.423   6.174  0.0415 -0.0231  0.1322
   73POPC   C1B 1186   8.817   7.758   7.092  0.2840 -0.0876  0.1460
   73POPC   C2B 1187   8.693   7.437   6.715  0.2877 -0.3751  0.4002
   73POPC   C3B 1188   8.831   7.479   6.280  0.1817 -0.1552  0.2873
   73POPC   C4B 1189   9.231   7.643   6.088  0.3229  0.1422 -0.1035
   74POPC   NC3 1190   1.874   4.477   9.010 -0.1089 -0.1688 -0.0333
   74POPC   PO4 1191   1.883   4.175   8.771  0.2811  0.0838 -0.1435
   74POPC   GL1 1192   1.931   4.660   8.535 -0.0056  0.0123  0.0648
   74POPC   GL2 1193   1.863   4.577   8.177 -0.1777 -0.4930  0.0987
   74POPC   C1A 1194   1.989   5.195   8.389 -0.3555  0.0719 -0.1837
   74POPC   D2A 1195   1.631   5.434   8.258  0.2333 -0.1622  0.0979
   74POPC   C3A 1196   1.488   5.519   7.821  0.0373 -0.0333 -0.0063
   74POPC   C4A 1197   1.451   5.202   7.532 -0.2643  0.2406 -0.1068
   74POPC   C1B 1198   2.033   4.441   7.843 -0.1687 -0.0149 -0.0165
   74POPC   C2B 1199   2.384   4.434   7.624  0.0427 -0.1301  0.1150
   74POPC   C3B 1200   2.716   4.523   7.370  0.2327 -0.0877 -0.2354
   74POPC   C4B 1201   3.139   4.429   7.274  0.2291 -0.2495 -0.1781
   75POPC   NC3 1202   8.851   7.323   7.929 -0.0406  0.1304  0.1670
   75POPC   PO4 1203   8.782   7.776   7.967 -0.2189 -0.1636 -0.1019
   75POPC   GL1 1204   8.515   7.704   7.660  0.1186  0.0933  0.1840
   75POPC   GL2 1205   8.467   7.946   7.452 -0.0267  0.2478 -0.1258
   75POPC   C1A 1206   8.397   7.441   7.291 -0.0152  0.2614 -0.0192
   75POPC   D2A 1207   8.063   7.076   7.196  0.0269  0.0038 -0.1654
   75POPC   C3A 1208   8.055   6.938   6.782 -0.0701  0.3082 -0.2454
   75POPC   C4A 1209   8.017   6.802   6.385 -0.0008  0.1183  0.1127
   75POPC   C1B 1210   8.589   8.195   7.122  0.1099  0.2160 -0.2646
   75POPC   C2B 1211   8.607   8.465   6.690  0.0742 -0.1589  0.4840
   75POPC   C3B 1212   8.775   8.851   6.339  0.1356 -0.2467 -0.3147
   75POPC   C4B 1213   8.987   8.748   5.945 -0.0184  0.0573  0.1830
   76POPC   NC3 1214   0.426   5.314   8.573  0.0674  0.3655 -0.1151
   76POPC   PO4 1215   0.446   5.598   8.649  0.0080  0.0161  0.1409
   76POPC   GL1 1216   0.671   5.655   8.188  0.0022  0.0970 -0.2859
   76POPC   GL2 1217   0.685   5.989   8.096  0.0992 -0.1492 -0.0928
   76POPC   C1A 1218   0.387   5.519   7.760  0.2380  0.0103  0.0798
   76POPC   D2A 1219   0.306   5.327   7.312 -0.0617  0.2477  0.0956
   76POPC   C3A 1220   0.358   5.512   6.858 -0.0128 -0.0836 -0.0422
   76POPC   C4A 1221   0.674   5.545   6.459  0.1929  0.2079 -0.0380
   76POPC   C1B 1222   0.721   6.058   7.675 -0.0694 -0.4361  0.0091
   76POPC   C2B 1223   0.617   5.816   7.361 -0.1063 -0.0442  0.2281
   76POPC   C3B 1224   0.738   5.497   7.121  0.1007  0.1236 -0.1002
   76POPC   C4B 1225   1.008   5.309   7.405  0.0700  0.0211  0.0786
   77POPC   NC3 1226   7.017   6.240   7.931 -0.1191 -0.2458  0.1621
   77POPC   PO4 1227   7.099   5.765   8.045 -0.1195  0.0711  0.0430
   77POPC   GL1 1228   7.171   5.915   7.594 -0.1565 -0.0611 -0.1371
   77POPC   GL2 1229   7.035   6.184   7.432  0.1872  0.1701  0.2708
   77POPC   C1A 1230   7.260   5.675   7.280  0.1368 -0.1306  0.0622
   77POPC   D2A 1231   7.122   5.254   7.208  0.1223  0.0416  0.0653
   77POPC   C3A 1232   7.024   5.233   6.806 -0.2030 -0.3591 -0.1287
   77POPC   C4A 1233   6.826   5.153   6.454 -0.0604  0.0331  0.0846
   77POPC   C1B 1234   6.923   6.128   7.038  0.2483 -0.2441 -0.0814
   77POPC   C2B 1235   7.036   6.099   6.588 -0.0367 -0.3114  0.0006
   77POPC   C3B 1236   7.482   6.183   6.287  0.0655  0.2761 -0.0630
   77POPC   C4B 1237   7.767   6.383   6.049 -0.0409  0.1420  0.1489
   78POPC   NC3 1238   0.716   2.921   7.735  0.0156 -0.0013 -0.1872
   78POPC   PO4 1239   0.918   3.361   7.935 -0.2610  0.1268 -0.0613
   78POPC   GL1 1240   1.092   3.589   7.735  0.0547 -0.2833  0.2765
   78POPC   GL2 1241   1.371   3.809   7.868  0.2689  0.0176 -0.0441
   78POPC   C1A 1242   1.416   3.848   7.398 -0.0422  0.1240 -0.1407
   78POPC   D2A 1243   1.683   4.022   7.050  0.1218 -0.0017 -0.0756
   78POPC   C3A 1244   1.355   4.211   6.787 -0.2617  0.4533 -0.0526
   78POPC   C4A 1245   0.951   4.103   6.710 -0.0743 -0.0832 -0.0074
   78POPC   C1B 1246   1.798   4.018   7.751 -0.2197 -0.1514 -0.2950
   78POPC   C2B 1247   2.199   3.886   7.867  0.1250 -0.1230 -0.2264
   78POPC   C3B 1248   2.521   3.802   7.808 -0.0675  0.1169  0.0009
   78POPC   C4B 1249   2.941   3.753   8.023  0.2668 -0.1988  0.0587
   79POPC   NC3 1250  10.280   9.988   7.240  0.0630  0.0430  0.4547
   79POPC   PO4 1251  10.047  10.140   7.589 -0.0334 -0.2081 -0.1403
   79POPC   GL1 1252   9.900  10.332   7.197  0.2642  0.1770  0.0902
   79POPC   GL2 1253   9.968  10.643   7.107 -0.0605  0.4028  0.2213
   79POPC   C1A 1254   9.700  10.491   6.750  0.3700  0.1408  0.1854
   79POPC   D2A 1255   9.578  10.480   6.360  0.1622  0.1758  0.0481
   79POPC   C3A 1256   9.662  10.306   6.054 -0.1349  0.0594  0.1649
   79POPC   C4A 1257   9.355  10.085   5.793 -0.2182  0.2042  0.0899
   79POPC   C1B 1258  10.182  10.603   6.775 -0.0381  0.0184  0.1251
   79POPC   C2B 1259  10.117  10.456   6.432 -0.3000  0.1711  0.0505
   79POPC   C3B 1260  10.167  10.150   6.131  0.3327 -0.1171  0.1035
   79POPC   C4B 1261  10.389  10.087   5.709  0.0684 -0.2934  0.2178
   80POPC   NC3 1262   9.338   2.389   8.351  0.2069  0.3015  0.0290
   80POPC   PO4 1263   9.151   2.568   7.901 -0.1349  0.2938  0.0856
   80POPC   GL1 1264   9.311   2.499   7.476  0.1883 -0.1792 -0.5682
   80POPC   GL2 1265   9.037   2.500   7.389  0.0933  0.1209  0.2644
   80POPC   C1A 1266   9.481   2.702   7.146  0.1018  0.1088 -0.2342
   80POPC   D2A 1267   9.472   2.971   6.838 -0.1576  0.3806 -0.1222
   80POPC   C3A 1268   9.524   3.399   6.747 -0.3262 -0.2949 -0.0449
   80POPC   C4A 1269   9.696   3.642   6.542  0.1327  0.4413  0.0419
   80POPC   C1B 1270   9.048   2.599   6.894 -0.1911 -0.2873 -0.0980
   80POPC   C2B 1271   9.339   2.679   6.498  0.0117 -0.3587 -0.1077
   80POPC   C3B 1272   9.322   3.171   6.367 -0.1527  0.4227 -0.0203
   80POPC   C4B 1273   9.439   3.436   6.152 -0.0260 -0.2233  0.5045
   81POPC   NC3 1274   5.997  10.259   7.465 -0.2631  0.3771  0.0986
   81POPC   PO4 1275   6.202  10.709   7.353 -0.5208  0.1799 -0.0779
   81POPC   GL1 1276   5.985  10.625   7.004 -0.1039  0.3216 -0.0939
   81POPC   GL2 1277   5.714  10.494   7.012 -0.1245  0.1171  0.0949
   81POPC   C1A 1278   5.933  10.972   6.761 -0.1269  0.1287 -0.1557
   81POPC   D2A 1279   6.145  11.242   6.538  0.0287 -0.0277  0.0750
   81POPC   C3A 1280   6.333  11.299   6.139  0.0971 -0.0891  0.3525
   81POPC   C4A 1281   6.538  11.502   5.784  0.3177  0.1931  0.0172
   81POPC   C1B 1282   5.778  10.467   6.549  0.2505 -0.0471  0.1723
   81POPC   C2B 1283   5.806  10.352   6.093  0.0963  0.1678 -0.1837
   81POPC   C3B 1284   5.548  10.195   5.855  0.1505  0.0667  0.2747
   81POPC   C4B 1285   5.189   9.912   5.850  0.1973  0.1247  0.0695
   82POPC   NC3 1286   4.103   8.200   7.860 -0.5104 -0.0176  0.1154
   82POPC   PO4 1287   3.857   7.900   7.700 -0.0535  0.4765 -0.1954
   82POPC   GL1 1288   3.986   7.768   7.169 -0.0722  0.0866  0.0032
   82POPC   GL2 1289   3.698   8.006   7.125  0.0458 -0.0583 -0.2718
   82POPC   C1A 1290   4.103   7.465   6.829 -0.0254  0.0569  0.2356
   82POPC   D2A 1291   3.921   7.354   6.480  0.0999 -0.1461 -0.0172
   82POPC   C3A 1292   4.184   7.290   6.144 -0.1619  0.0322 -0.0625
   82POPC   C4A 1293   4.453   7.121   5.867 -0.2491 -0.1845 -0.1209
   82POPC   C1B 1294   3.605   7.541   6.815  0.1204 -0.1769 -0.1448
   82POPC   C2B 1295   3.512   7.138   6.709 -0.1682  0.4518  0.0173
   82POPC   C3B 1296   3.710   6.796   6.488 -0.0711 -0.1186 -0.0003
   82POPC   C4B 1297   3.577   6.472   6.279 -0.0509  0.0066  0.0657
   83POPC   NC3 1298   9.020   3.306   7.841 -0.1711  0.0978 -0.1793
   83POPC   PO4 1299   9.316   3.692   7.918 -0.0035  0.0924 -0.0823
   83POPC   GL1 1300   9.277   3.869   7.508  0.2453  0.1873  0.1700
   83POPC   GL2 1301   9.085   4.284   7.680 -0.2905  0.4620 -0.0345
   83POPC   C1A 1302   9.146   3.687   7.030 -0.3880 -0.1011  0.1945
   83POPC   D2A 1303   9.215   3.885   6.597  0.2543  0.1512  0.0090
   83POPC   C3A 1304   9.492   4.020   6.213  0.1320 -0.0625 -0.0356
   83POPC   C4A 1305   9.624   4.488   6.083  0.1875  0.0385  0.0609
   83POPC   C1B 1306   9.170   4.276   7.269 -0.0244 -0.1526  0.0707
   83POPC   C2B 1307   9.186   4.346   6.834 -0.0693  0.4463  0.1902
   83POPC   C3B 1308   9.162   4.351   6.404  0.2757 -0.0144 -0.2186
   83POPC   C4B 1309   9.125   4.182   5.977  0.1164 -0.1039  0.0894
   84POPC   NC3 1310   6.616   4.444   7.780 -0.0801  0.2119 -0.0631
   84POPC   PO4 1311   6.518   4.071   7.742  0.0299  0.2655  0.2963
   84POPC   GL1 1312   6.464   3.916   7.444  0.0440 -0.1466  0.1498
   84POPC   GL2 1313   6.060   3.922   7.255  0.3555 -0.1814  0.2417
   84POPC   C1A 1314   6.363   3.647   7.043 -0.0030 -0.0944  0.2066
   84POPC   D2A 1315   6.517   3.436   6.753  0.1429 -0.3904 -0.2845
   84POPC   C3A 1316   6.921   3.321   6.644 -0.1622  0.0909 -0.2337
   84POPC   C4A 1317   7.043   2.815   6.775 -0.0427  0.5280  0.0517
   84POPC   C1B 1318   5.716   4.008   6.996  0.1545  0.3056 -0.0752
   84POPC   C2B 1319   5.562   4.007   6.542 -0.0966 -0.1818 -0.7081
   84POPC   C3B 1320   5.882   3.941   6.133 -0.1180 -0.0134  0.0246
   84POPC   C4B 1321   6.286   3.838   5.837  0.1159  0.0197 -0.1009
   85POPC   NC3 1322   6.277   1.601   7.441 -0.1410 -0.2597 -0.4114
   85POPC   PO4 1323   6.730   1.585   7.567 -0.1519  0.0012 -0.0342
   85POPC   GL1 1324   6.689   1.700   7.112 -0.3384 -0.0704  0.2187
   85POPC   GL2 1325   6.539   2.007   7.143 -0.0515  0.2189 -0.1493
   85POPC   C1A 1326   6.938   1.987   6.822  0.0066 -0.0859 -0.0753
   85POPC   D2A 1327   7.209   2.293   6.656  0.3550  0.3220 -0.1391
   85POPC   C3A 1328   7.224   2.369   6.266  0.1156  0.0272 -0.1497
   85POPC   C4A 1329   7.559   2.471   5.991 -0.0007 -0.2777  0.2651
   85POPC   C1B 1330   6.246   2.302   6.910 -0.4122 -0.1500  0.0782
   85POPC   C2B 1331   6.142   2.553   6.552  0.0080  0.1074 -0.0600
   85POPC   C3B 1332   6.131   2.898   6.316 -0.1145  0.3642  0.1570
   85POPC   C4B 1333   6.175   3.339   6.343 -0.1896  0.0147  0.0608
   86POPC   NC3 1334   5.371   6.930   8.854 -0.2981  0.1037 -0.0128
   86POPC   PO4 1335   5.437   6.814   8.412  0.0885 -0.3384 -0.0361
   86POPC   GL1 1336   5.662   6.837   8.000  0.0854  0.2638 -0.0925
   86POPC   GL2 1337   5.911   6.959   7.818  0.2408  0.0115  0.0181
   86POPC   C1A 1338   5.619   6.641   7.544 -0.0030 -0.0983 -0.2222
   86POPC   D2A 1339   5.633   6.398   7.178  0.2254  0.2087 -0.3143
   86POPC   C3A 1340   6.078   6.324   7.060 -0.1728 -0.0808 -0.3163
   86POPC   C4A 1341   6.480   6.337   7.075 -0.5219 -0.0699 -0.3305
   86POPC   C1B 1342   5.941   7.028   7.422 -0.0802  0.2013  0.2436
   86POPC   C2B 1343   6.075   6.784   6.966 -0.2153 -0.0292  0.0913
   86POPC   C3B 1344   6.175   6.409   6.609 -0.0197 -0.2169 -0.1688
   86POPC   C4B 1345   6.353   6.024   6.436 -0.1841  0.0984  0.0426
   87POPC   NC3 1346   5.607   8.474   8.244 -0.3814 -0.1425 -0.2488
   87POPC   PO4 1347   5.357   8.745   8.005  0.1766  0.1878 -0.1744
   87POPC   GL1 1348   5.482   8.698   7.654 -0.0691 -0.0240 -0.1003
   87POPC   GL2 1349   5.842   8.751   7.669  0.0449  0.0213  0.1868
   87POPC   C1A 1350   5.518   8.934   7.201 -0.1795  0.2138 -0.2949
   87POPC   D2A 1351   5.509   8.933   6.749  0.4344 -0.1279 -0.0647
   87POPC   C3A 1352   5.657   9.027   6.401  0.2197 -0.3310  0.0597
   87POPC   C4A 1353   5.539   9.170   5.990 -0.2582  0.0910  0.3547
   87POPC   C1B 1354   6.019   8.693   7.217  0.0050 -0.0114  0.2092
   87POPC   C2B 1355   6.215   8.506   6.860 -0.0975  0.0575  0.3340
   87POPC   C3B 1356   6.449   8.265   6.588 -0.2647  0.3561  0.0035
   87POPC   C4B 1357   6.600   8.240   6.117  0.1053  0.2733  0.0921
   88POPC   NC3 1358   8.369   9.612   8.279  0.0223  0.1088 -0.3454
   88POPC   PO4 1359   8.250   9.506   7.803  0.2715 -0.0312 -0.1204
   88POPC   GL1 1360   8.323   9.094   7.533  0.2550 -0.0681  0.2231
   88POPC   GL2 1361   8.599   9.037   7.439  0.1649 -0.3370  0.1297
   88POPC   C1A 1362   8.270   8.775   7.164 -0.3482 -0.3105 -0.2277
   88POPC   D2A 1363   8.133   8.352   6.832  0.0747 -0.1684 -0.2883
   88POPC   C3A 1364   8.215   8.287   6.466  0.0821  0.0832 -0.2062
   88POPC   C4A 1365   8.220   8.290   6.010 -0.1913  0.3254 -0.0594
   88POPC   C1B 1366   8.679   8.894   6.934 -0.3136  0.1762  0.0624
   88POPC   C2B 1367   9.074   9.017   6.646  0.0099 -0.1675 -0.0713
   88POPC   C3B 1368   9.300   8.921   6.296 -0.3770 -0.0557  0.2374
   88POPC   C4B 1369   9.588   8.679   6.200  0.1903 -0.4451 -0.3123
   89POPC   NC3 1370   4.592   5.585   8.225  0.0510  0.0989 -0.0576
   89POPC   PO4 1371   4.952   5.810   8.383  0.2536 -0.1022  0.3815
   89POPC   GL1 1372   4.923   5.793   7.878 -0.1393 -0.2016  0.2096
   89POPC   GL2 1373   4.777   5.475   7.663 -0.5915  0.0111  0.0444
   89POPC   C1A 1374   4.668   5.967   7.450  0.0709 -0.1722 -0.0664
   89POPC   D2A 1375   4.623   6.261   7.032  0.1655 -0.1081 -0.0762
   89POPC   C3A 1376   4.427   6.125   6.698 -0.1633 -0.2279 -0.2132
   89POPC   C4A 1377   4.478   6.008   6.295  0.0940 -0.1431 -0.0061
   89POPC   C1B 1378   5.125   5.720   7.404  0.1572 -0.1243  0.0755
   89POPC   C2B 1379   5.049   5.957   7.123  0.0171 -0.2554 -0.2282
   89POPC   C3B 1380   4.959   6.342   6.715  0.1604  0.0097  0.1142
   89POPC   C4B 1381   4.666   6.483   6.327 -0.1713 -0.0146  0.0490
   90POPC   NC3 1382   5.658   2.381   8.193  0.3500  0.0530  0.1568
   90POPC   PO4 1383   5.918   2.248   7.779 -0.2235  0.2603  0.0136
   90POPC   GL1 1384   5.974   2.050   7.385 -0.1895  0.0918  0.1397
   90POPC   GL2 1385   5.695   1.984   7.197 -0.4775 -0.2388 -0.2924
   90POPC   C1A 1386   6.046   1.820   6.864 -0.2369 -0.2301  0.2413
   90POPC   D2A 1387   5.938   1.670   6.436  0.0962  0.2450  0.1795
   90POPC   C3A 1388   6.236   1.738   6.132 -0.0924  0.4420  0.3121
   90POPC   C4A 1389   6.451   1.929   5.861 -0.1981 -0.3367 -0.1627
   90POPC   C1B 1390   5.654   2.329   6.935 -0.3242 -0.1596  0.3019
   90POPC   C2B 1391   5.791   2.254   6.605  0.0860 -0.0423  0.1925
   90POPC   C3B 1392   5.900   2.174   6.257 -0.1090  0.2467 -0.3800
   90POPC   C4B 1393   5.693   2.399   5.878  0.0719 -0.1478  0.2405
   91POPC   NC3 1394   5.364   4.258   7.792  0.2178 -0.3037  0.0036
   91POPC   PO4 1395   5.659   4.589   7.845 -0.1720  0.2257  0.1134
   91POPC   GL1 1396   5.432   4.685   7.398 -0.3205  0.0450  0.0568
   91POPC   GL2 1397   5.637   4.894   7.199  0.0778 -0.1445 -0.1444
   91POPC   C1A 1398   5.511   4.460   7.037 -0.2575  0.1489  0.1209
   91POPC   D2A 1399   5.171   4.279   6.873 -0.0127  0.1073 -0.1947
   91POPC   C3A 1400   4.834   4.060   6.989 -0.1371 -0.0089  0.1934
   91POPC   C4A 1401   4.517   4.153   7.174  0.0241 -0.2249  0.1273
   91POPC   C1B 1402   5.266   4.882   6.881 -0.0019  0.0515  0.0160
   91POPC   C2B 1403   5.182   5.110   6.488 -0.0540  0.1570 -0.0491
   91POPC   C3B 1404   5.058   5.581   6.387 -0.1044 -0.2902  0.0185
   91POPC   C4B 1405   4.880   5.848   6.658  0.2965 -0.1039  0.1371
   92POPC   NC3 1406   1.904   2.889   8.144  0.0091  0.1521 -0.0327
   92POPC   PO4 1407   1.622   2.752   7.863  0.0272  0.0259  0.1237
   92POPC   GL1 1408   1.594   2.873   7.503 -0.2912 -0.4720 -0.0614
   92POPC   GL2 1409   1.467   2.571   7.418  0.0689 -0.1389  0.0533
   92POPC   C1A 1410   1.451   2.960   7.130  0.0061  0.0482  0.1341
   92POPC   D2A 1411   1.123   3.014   6.920 -0.1631 -0.1989  0.3155
   92POPC   C3A 1412   0.999   3.464   6.656 -0.1291 -0.0645  0.1906
   92POPC   C4A 1413   0.699   3.547   6.378 -0.1249 -0.0389 -0.2205
   92POPC   C1B 1414   1.263   2.497   7.060  0.4333  0.0797 -0.0675
   92POPC   C2B 1415   1.296   2.226   6.720  0.0301 -0.0059 -0.3058
   92POPC   C3B 1416   1.378   2.376   6.202 -0.2866  0.2755 -0.0089
   92POPC   C4B 1417   1.826   2.379   5.910  0.5482  0.0989  0.1858
   93POPC   NC3 1418   0.207   6.891   7.930  0.1029 -0.2535 -0.0544
   93POPC   PO4 1419  -0.129   7.048   7.805  0.0920  0.1994 -0.0537
   93POPC   GL1 1420  -0.004   6.941   7.378 -0.1175  0.0201  0.0161
   93POPC   GL2 1421  -0.271   6.762   7.137 -0.0143 -0.0406  0.0602
   93POPC   C1A 1422   0.169   7.068   6.885  0.0243  0.0269 -0.0103
   93POPC   D2A 1423   0.390   7.335   6.702  0.3289 -0.0845 -0.0973
   93POPC   C3A 1424   0.650   7.355   6.376  0.0793  0.0163 -0.4457
   93POPC   C4A 1425   0.599   7.356   5.984 -0.1589 -0.0973 -0.1593
   93POPC   C1B 1426  -0.236   6.836   6.595  0.0076  0.1971 -0.0575
   93POPC   C2B 1427   0.138   6.928   6.399  0.0273 -0.2102 -0.0983
   93POPC   C3B 1428   0.371   6.760   5.978  0.2450 -0.1968 -0.1810
   93POPC   C4B 1429   0.465   6.698   5.537  0.0817  0.0918 -0.2772
   94POPC   NC3 1430   0.944   8.631   8.136  0.1224  0.3191  0.0299
   94POPC   PO4 1431   0.700   9.092   7.946  0.0438 -0.1137 -0.1269
   94POPC   GL1 1432   0.689   9.145   7.433  0.2566 -0.3682  0.0776
   94POPC   GL2 1433   0.514   8.870   7.219 -0.0971  0.2846 -0.1023
   94POPC   C1A 1434   0.583   9.408   7.128 -0.2908 -0.2420 -0.0594
   94POPC   D2A 1435   0.398   9.492   6.847  0.0349 -0.0728 -0.1027
   94POPC   C3A 1436   0.578   9.458   6.520  0.1561  0.1207 -0.0950
   94POPC   C4A 1437   0.600   9.402   6.106  0.2652 -0.1698  0.1171
   94POPC   C1B 1438   0.720   9.002   6.892 -0.1490 -0.0280  0.4672
   94POPC   C2B 1439   0.759   8.940   6.461 -0.0400  0.1591  0.2732
   94POPC   C3B 1440   0.397   8.914   6.184 -0.2231 -0.2991  0.0753
   94POPC   C4B 1441   0.080   8.870   5.919 -0.0818 -0.3332  0.4129
   95POPC   NC3 1442  10.302   1.904   7.555  0.3733 -0.0483  0.2973
   95POPC   PO4 1443  10.541   2.005   7.907 -0.2403  0.1826  0.2486
   95POPC   GL1 1444  10.764   1.943   7.577  0.0878  0.2139 -0.1515
   95POPC   GL2 1445  10.714   1.774   7.210  0.2278  0.1935 -0.1730
   95POPC   C1A 1446  11.055   2.176   7.134  0.0560 -0.0722  0.3929
   95POPC   D2A 1447  11.391   2.196   6.711  0.1083  0.0489 -0.0203
   95POPC   C3A 1448  11.597   2.510   6.533 -0.1572 -0.1116  0.2055
   95POPC   C4A 1449  12.015   2.733   6.595  0.2569 -0.0251 -0.1793
   95POPC   C1B 1450  10.685   1.421   6.944  0.0680  0.3443 -0.0143
   95POPC   C2B 1451  10.876   1.408   6.560  0.2953 -0.3114  0.0829
   95POPC   C3B 1452  10.758   1.184   6.181 -0.2323  0.2993  0.4905
   95POPC   C4B 1453  10.624   0.989   5.821 -0.0967 -0.2461 -0.1576
   96POPC   NC3 1454   1.066   9.363   7.791  0.1113 -0.1684 -0.1504
   96POPC   PO4 1455   1.107   8.893   7.713  0.3311 -0.0866 -0.1587
   96POPC   GL1 1456   1.118   8.835   7.238  0.1928 -0.0432  0.3637
   96POPC   GL2 1457   0.932   8.561   7.134  0.0063  0.3544  0.1494
   96POPC   C1A 1458   1.296   8.966   6.835  0.1103 -0.0756  0.2299
   96POPC   D2A 1459   1.603   9.116   6.666  0.1585 -0.1119 -0.2042
   96POPC   C3A 1460   1.633   9.233   6.183  0.1343 -0.1760  0.1373
   96POPC   C4A 1461   1.435   9.052   5.760 -0.2736 -0.0515  0.1673
   96POPC   C1B 1462   1.023   8.567   6.682 -0.1140  0.0174  0.1713
   96POPC   C2B 1463   1.057   8.420   6.249  0.2153 -0.0949  0.3596
   96POPC   C3B 1464   1.246   8.521   5.877 -0.2680  0.0343  0.0684
   96POPC   C4B 1465   1.241   8.600   5.527 -0.1963 -0.1511  0.3646
   97POPC   NC3 1466   7.514   6.049   7.939 -0.0255  0.1640  0.0917
   97POPC   PO4 1467   7.438   6.524   7.769  0.3005 -0.0097 -0.0035
   97POPC   GL1 1468   7.386   6.690   7.363  0.0702 -0.0421  0.4531
   97POPC   GL2 1469   7.106   6.635   7.154 -0.3358 -0.1118 -0.1513
   97POPC   C1A 1470   7.670   6.794   7.082 -0.0228 -0.1809 -0.3005
   97POPC   D2A 1471   7.542   7.187   7.041 -0.1152  0.1497 -0.2334
   97POPC   C3A 1472   7.576   7.503   6.752 -0.0154  0.1076 -0.2093
   97POPC   C4A 1473   7.531   7.556   6.445  0.0555 -0.0251  0.1672
   97POPC   C1B 1474   6.775   6.645   6.817  0.2892  0.0354  0.1421
   97POPC   C2B 1475   6.692   6.386   6.407 -0.0361 -0.0242  0.0919
   97POPC   C3B 1476   6.280   6.358   6.085 -0.1036  0.0498  0.1432
   97POPC   C4B 1477   5.921   6.170   6.197  0.2514  0.1044  0.0571
   98POPC   NC3 1478   3.479   8.287   7.489 -0.0549 -0.0742  0.2910
   98POPC   PO4 1479   3.057   8.392   7.702  0.0253  0.1628 -0.2844
   98POPC   GL1 1480   3.061   8.108   7.305 -0.0489  0.0038 -0.4553
   98POPC   GL2 1481   3.241   7.863   7.117  0.0612  0.1556  0.0373
   98POPC   C1A 1482   2.977   8.144   6.864 -0.0602  0.0808 -0.5124
   98POPC   D2A 1483   2.828   8.348   6.395 -0.4323 -0.1243 -0.1107
   98POPC   C3A 1484   2.555   8.094   6.166  0.3921 -0.0919 -0.1496
   98POPC   C4A 1485   2.366   7.736   6.175 -0.0173 -0.0917 -0.0676
   98POPC   C1B 1486   2.997   7.644   6.721 -0.1804 -0.0255  0.0088
   98POPC   C2B 1487   3.088   7.200   6.413 -0.2407 -0.0252  0.1819
   98POPC   C3B 1488   3.457   7.039   6.156  0.2811 -0.0778  0.1147
   98POPC   C4B 1489   3.791   6.835   5.940 -0.3051  0.3436 -0.3339
   99POPC   NC3 1490   6.304   9.932   8.189  0.2843  0.0600  0.1806
   99POPC   PO4 1491   6.007   9.940   7.822  0.0977  0.0669  0.1079
   99POPC   GL1 1492   6.082   9.751   7.407 -0.0595  0.1651  0.0857
   99POPC   GL2 1493   6.369   9.621   7.406  0.0176  0.2756  0.0804
   99POPC   C1A 1494   6.094   9.797   6.924 -0.0481  0.2147 -0.2299
   99POPC   D2A 1495   6.057  10.054   6.460 -0.0620  0.4739  0.2362
   99POPC   C3A 1496   6.293  10.267   6.181 -0.1881  0.1612  0.0510
   99POPC   C4A 1497   6.396  10.591   5.952 -0.1449  0.1460 -0.0331
   99POPC   C1B 1498   6.443   9.391   6.975 -0.0609 -0.5602 -0.0615
   99POPC   C2B 1499   6.411   9.380   6.452 -0.0596  0.3855  0.1537
   99POPC   C3B 1500   6.584   9.049   6.193 -0.0083 -0.0651  0.1449
   99POPC   C4B 1501   6.940   8.875   5.943 -0.0171  0.1544 -0.0361
  100POPC   NC3 1502   1.605   0.118   7.495  0.0436 -0.0767 -0.2053
  100POPC   PO4 1503   1.911  -0.119   7.332  0.1356  0.1255 -0.0063
  100POPC   GL1 1504   1.471  -0.289   7.156 -0.1946 -0.0461 -0.2177
  100POPC   GL2 1505   1.404   0.058   6.988  0.0234 -0.4886 -0.2179
  100POPC   C1A 1506   1.271  -0.516   6.869  0.2162 -0.0655  0.0618
  100POPC   D2A 1507   0.895  -0.612   6.463  0.0172  0.1214 -0.1256
  100POPC   C3A 1508   0.930  -0.638   6.003 -0.0006  0.1239 -0.1747
  100POPC   C4A 1509   1.142  -0.745   5.605 -0.2120 -0.2039 -0.1463
  100POPC   C1B 1510   1.458  -0.123   6.555  0.0902 -0.1320  0.1481
  100POPC   C2B 1511   1.431  -0.448   6.331  0.0526 -0.1935 -0.0416
  100POPC   C3B 1512   1.422  -0.938   6.134 -0.1088  0.2090 -0.0537
  100POPC   C4B 1513   1.191  -1.150   5.895  0.4619  0.0343 -0.1056
  101POPC   NC3 1514   4.200   2.372   7.669  0.2948  0.0383  0.2289
  101POPC   PO4 1515   4.486   2.307   7.463  0.3794  0.0330  0.2052
  101POPC   GL1 1516   4.404   2.598   7.254 -0.0744 -0.0531  0.1513
  101POPC   GL2 1517   4.649   2.873   7.176  0.1892  0.0128 -0.1635
  101POPC   C1A 1518   4.302   2.754   6.802 -0.1193 -0.2697  0.0486
  101POPC   D2A 1519   4.121   2.794   6.439  0.0832  0.2859 -0.0107
  101POPC   C3A 1520   4.373   2.900   6.119  0.0288 -0.0744  0.1739
  101POPC   C4A 1521   4.853   2.998   6.027  0.0235  0.0350  0.1696
  101POPC   C1B 1522   4.769   2.704   6.865  0.1507  0.0758 -0.1292
  101POPC   C2B 1523   4.847   2.685   6.391  0.3941  0.2323  0.2710
  101POPC   C3B 1524   4.750   2.541   5.911  0.3531  0.2081 -0.2105
  101POPC   C4B 1525   4.820   2.689   5.519 -0.0184  0.1727 -0.0423
  102POPC   NC3 1526   0.524   7.183   8.167  0.1282  0.0475  0.2581
  102POPC   PO4 1527   0.403   7.360   7.679  0.0286  0.0309  0.0860
  102POPC   GL1 1528   0.318   7.421   7.262 -0.1853  0.0988 -0.2499
  102POPC   GL2 1529   0.604   7.356   7.128  0.0580 -0.0226  0.2973
  102POPC   C1A 1530   0.054   7.710   6.983  0.2170  0.2766 -0.1287
  102POPC   D2A 1531  -0.183   7.711   6.501  0.0001 -0.2892 -0.1335
  102POPC   C3A 1532  -0.104   7.425   6.192 -0.0697  0.0913 -0.0988
  102POPC   C4A 1533  -0.259   6.977   6.090 -0.1112 -0.0908 -0.4374
  102POPC   C1B 1534   0.926   7.104   6.869 -0.0679  0.0445 -0.3382
  102POPC   C2B 1535   1.042   6.695   7.019  0.0335  0.3169  0.0709
  102POPC   C3B 1536   1.477   6.433   6.961  0.1745  0.1321 -0.0745
  102POPC   C4B 1537   1.955   6.241   6.941 -0.1324  0.0285 -0.0221
  103POPC   NC3 1538   4.088   3.830   8.724  0.4202 -0.0762  0.0867
  103POPC   PO4 1539   3.853   3.817   8.308  0.1904 -0.1384  0.2586
  103POPC   GL1 1540   3.891   3.883   7.847 -0.0373  0.2712  0.1076
  103POPC   GL2 1541   3.710   3.624   7.647 -0.1572 -0.2839  0.0537
  103POPC   C1A 1542   4.058   4.079   7.394  0.0339  0.0433  0.0591
  103POPC   D2A 1543   4.117   4.242   6.879 -0.2520 -0.2173  0.2427
  103POPC   C3A 1544   4.242   4.299   6.510  0.0989  0.2341 -0.1549
  103POPC   C4A 1545   4.538   4.400   6.138 -0.0702  0.2734 -0.0438
  103POPC   C1B 1546   3.816   3.561   7.147 -0.0844 -0.0065 -0.0059
  103POPC   C2B 1547   4.016   3.412   6.789 -0.2469 -0.0559  0.1402
  103POPC   C3B 1548   3.872   3.255   6.356  0.0689  0.1239  0.1215
  103POPC   C4B 1549   3.434   3.169   6.162 -0.0766 -0.0717 -0.0261
  104POPC   NC3 1550   0.937   1.468   7.612  0.2833 -0.0893  0.0051
  104POPC   PO4 1551   0.483   1.382   7.713 -0.2333  0.1363  0.2623
  104POPC   GL1 1552   0.456   1.373   7.209 -0.1854  0.2197  0.4539
  104POPC   GL2 1553   0.506   1.112   7.013 -0.2660 -0.0893 -0.0071
  104POPC   C1A 1554   0.521   1.702   6.874 -0.0356  0.2472  0.2830
  104POPC   D2A 1555   0.603   1.761   6.459 -0.1670  0.1594  0.2141
  104POPC   C3A 1556   0.612   1.823   6.048 -0.0140  0.0316  0.0372
  104POPC   C4A 1557   0.494   1.854   5.705 -0.0770 -0.3578 -0.3376
  104POPC   C1B 1558   0.372   0.873   6.657  0.1500  0.0396  0.0691
  104POPC   C2B 1559   0.540   0.782   6.183  0.0137 -0.1624  0.2033
  104POPC   C3B 1560   0.291   0.591   5.860 -0.5800  0.1612 -0.0142
  104POPC   C4B 1561   0.325   0.386   5.452  0.1195 -0.0942  0.1744
  105POPC   NC3 1562   6.654   5.520   8.070  0.1630  0.6389  0.2724
  105POPC   PO4 1563   6.661   5.888   8.146  0.0895 -0.1555 -0.0056
  105POPC   GL1 1564   6.678   5.795   7.657 -0.0638  0.1628  0.1771
  105POPC   GL2 1565   6.605   5.953   7.358  0.0263  0.1541 -0.0264
  105POPC   C1A 1566   6.660   5.549   7.105  0.1445 -0.1196  0.0213
  105POPC   D2A 1567   6.849   5.686   6.681  0.0203  0.1489  0.1124
  105POPC   C3A 1568   6.638   5.593   6.213  0.3483  0.1133  0.2679
  105POPC   C4A 1569   6.791   5.151   5.937 -0.0518  0.0372 -0.0770
  105POPC   C1B 1570   6.259   5.830   7.015 -0.2839 -0.3483 -0.1151
  105POPC   C2B 1571   5.917   5.893   6.759  0.5108  0.0291  0.0811
  105POPC   C3B 1572   5.712   6.255   6.642  0.0973  0.0338 -0.1857
  105POPC   C4B 1573   5.616   6.665   6.417 -0.0229 -0.0295  0.0877
  106POPC   NC3 1574   9.167   6.299   7.680  0.2100 -0.0527 -0.2871
  106POPC   PO4 1575   8.962   5.917   7.858  0.1938 -0.2254  0.1261
  106POPC   GL1 1576   8.929   5.824   7.448 -0.0204  0.1689 -0.5975
  106POPC   GL2 1577   9.134   5.540   7.455  0.1348 -0.2302 -0.1741
  106POPC   C1A 1578   8.873   5.792   7.053 -0.0320  0.0718 -0.0147
  106POPC   D2A 1579   8.695   5.669   6.602  0.2457 -0.0298 -0.1665
  106POPC   C3A 1580   8.426   5.565   6.362  0.1133  0.2197  0.0353
  106POPC   C4A 1581   8.275   5.406   5.940  0.1127 -0.3440 -0.1687
  106POPC   C1B 1582   9.361   5.446   7.118 -0.3632 -0.2975 -0.0762
  106POPC   C2B 1583   9.565   5.512   6.747  0.1335  0.0815  0.2407
  106POPC   C3B 1584   9.879   5.639   6.473 -0.1807  0.0392 -0.1350
  106POPC   C4B 1585  10.105   5.367   6.151 -0.0518 -0.0195 -0.1486
  107POPC   NC3 1586   4.881   7.773   8.216 -0.0424  0.2468 -0.3170
  107POPC   PO4 1587   5.266   7.458   8.187 -0.1259  0.0869 -0.4682
  107POPC   GL1 1588   5.121   7.272   7.790  0.1548 -0.0596 -0.1489
  107POPC   GL2 1589   5.332   7.064   7.654  0.4345 -0.1753  0.1332
  107POPC   C1A 1590   5.015   7.261   7.293  0.0947  0.4192  0.0254
  107POPC   D2A 1591   5.204   7.123   6.876 -0.0633  0.1936 -0.2678
  107POPC   C3A 1592   5.223   7.271   6.436  0.0842 -0.2877 -0.0680
  107POPC   C4A 1593   5.163   7.088   5.994  0.1311  0.2154 -0.1367
  107POPC   C1B 1594   5.480   7.020   7.285  0.1473  0.2868  0.2653
  107POPC   C2B 1595   5.649   7.005   6.784 -0.2948 -0.0191 -0.3187
  107POPC   C3B 1596   6.017   6.985   6.511 -0.2976 -0.2293 -0.0963
  107POPC   C4B 1597   6.209   6.876   6.128 -0.0057  0.0702  0.0838
  108POPC   NC3 1598   8.672   1.846   8.138  0.2833 -0.1669 -0.0612
  108POPC   PO4 1599   8.948   2.075   7.817 -0.1120  0.1354  0.1369
  108POPC   GL1 1600   9.210   2.001   7.488  0.1513 -0.0604  0.2817
  108POPC   GL2 1601   9.225   1.656   7.352  0.0206  0.1656 -0.2467
  108POPC   C1A 1602   9.319   2.170   7.081  0.3453  0.1630  0.1427
  108POPC   D2A 1603   9.442   2.149   6.667 -0.3311  0.2057 -0.4063
  108POPC   C3A 1604   9.725   2.335   6.312  0.0681 -0.0263  0.2724
  108POPC   C4A 1605   9.532   2.713   5.999 -0.1665  0.2868  0.1428
  108POPC   C1B 1606   9.364   1.681   6.965  0.0252 -0.0967  0.0616
  108POPC   C2B 1607   9.501   1.638   6.608  0.0446  0.0809 -0.0343
  108POPC   C3B 1608   9.895   1.858   6.296  0.1830 -0.0784 -0.0466
  108POPC   C4B 1609  10.190   1.819   5.968  0.1599 -0.0552 -0.1890
  109POPC   NC3 1610   8.969   9.118   7.797  0.0115 -0.0992 -0.1705
  109POPC   PO4 1611   8.755   9.407   7.733  0.0286  0.2239 -0.0596
  109POPC   GL1 1612   8.858   9.559   7.359  0.0357 -0.1177 -0.0324
  109POPC   GL2 1613   8.581   9.543   7.248  0.1732 -0.0546 -0.1791
  109POPC   C1A 1614   8.863   9.392   6.864 -0.1115  0.1600 -0.2249
  109POPC   D2A 1615   8.965   9.407   6.387 -0.3863 -0.0190 -0.1047
  109POPC   C3A 1616   8.912   9.876   6.383 -0.1489  0.0265 -0.2117
  109POPC   C4A 1617   8.832  10.165   6.732  0.0915  0.1911 -0.0869
  109POPC   C1B 1618   8.258   9.269   7.047  0.0242 -0.1267 -0.2550
  109POPC   C2B 1619   8.035   9.333   6.653  0.2948 -0.2317  0.1046
  109POPC   C3B 1620   7.655   9.572   6.519  0.0410 -0.1777  0.2025
  109POPC   C4B 1621   7.391   9.647   6.836 -0.0355 -0.0102  0.0472
  110POPC   NC3 1622   2.383   2.061   7.868 -0.1670  0.0594  0.0087
  110POPC   PO4 1623   2.596   1.843   7.708  0.1493  0.1883 -0.1869
  110POPC   GL1 1624   2.522   1.975   7.282  0.0676 -0.1418  0.1038
  110POPC   GL2 1625   2.458   1.721   7.088  0.0113 -0.4781  0.0263
  110POPC   C1A 1626   2.576   2.425   7.046 -0.1998 -0.0451  0.2700
  110POPC   D2A 1627   2.660   2.678   6.636 -0.0642  0.0939  0.0369
  110POPC   C3A 1628   2.685   3.033   6.273  0.1359  0.0451  0.0720
  110POPC   C4A 1629   2.626   2.885   5.825  0.0254  0.1453 -0.2049
  110POPC   C1B 1630   2.749   2.006   6.849  0.2507 -0.1416 -0.1026
  110POPC   C2B 1631   2.838   2.186   6.441 -0.0746 -0.0484 -0.1337
  110POPC   C3B 1632   2.634   2.425   6.131  0.1857 -0.0754 -0.3253
  110POPC   C4B 1633   2.275   2.532   5.961  0.0637 -0.0822  0.4434
  111POPC   NC3 1634   3.957   9.915   7.296 -0.0555 -0.0969 -0.1255
  111POPC   PO4 1635   3.564   9.588   7.464  0.1454 -0.1735 -0.0576
  111POPC   GL1 1636   3.528   9.747   7.024  0.3435  0.1016  0.0053
  111POPC   GL2 1637   3.671   9.426   6.829 -0.0315 -0.0948  0.1174
  111POPC   C1A 1638   3.385   9.817   6.596  0.1458 -0.0037 -0.2090
  111POPC   D2A 1639   3.256  10.122   6.365  0.0710  0.4184  0.1963
  111POPC   C3A 1640   2.929  10.324   6.241  0.0556  0.1244  0.1490
  111POPC   C4A 1641   2.669  10.459   5.894 -0.1058 -0.0059  0.6159
  111POPC   C1B 1642   4.024   9.378   6.636 -0.0780 -0.1521  0.2757
  111POPC   C2B 1643   4.161   9.440   6.256  0.1076  0.1452  0.0798
  111POPC   C3B 1644   4.196   9.371   5.836  0.1976  0.0102 -0.1004
  111POPC   C4B 1645   3.825   9.536   5.695 -0.2070  0.2578  0.0422
  112POPC   NC3 1646   6.276   8.025   7.842  0.1293  0.0748 -0.2051
  112POPC   PO4 1647   5.903   8.278   7.896 -0.0753  0.1765 -0.0248
  112POPC   GL1 1648   5.720   8.319   7.454  0.0148  0.2104  0.0134
  112POPC   GL2 1649   5.416   8.240   7.386  0.1631 -0.1601  0.0946
  112POPC   C1A 1650   5.681   8.442   6.931 -0.0732  0.1069 -0.0968
  112POPC   D2A 1651   5.527   8.508   6.459  0.1429 -0.1818 -0.0707
  112POPC   C3A 1652   5.669   8.636   6.085 -0.1811  0.0329  0.0132
  112POPC   C4A 1653   5.894   8.827   5.990  0.0731 -0.1855  0.0926
  112POPC   C1B 1654   5.557   8.001   7.101  0.0880 -0.1219 -0.1825
  112POPC   C2B 1655   5.998   7.918   7.043 -0.0921  0.2437  0.0169
  112POPC   C3B 1656   6.291   7.817   6.789 -0.0465 -0.1408  0.1876
  112POPC   C4B 1657   6.673   7.845   6.542  0.0357  0.0151  0.3222
  113POPC   NC3 1658   2.480   2.560   8.099  0.1980  0.2933 -0.0058
  113POPC   PO4 1659   1.971   2.415   7.967 -0.4176  0.4570  0.0989
  113POPC   GL1 1660   1.920   2.454   7.519 -0.0772 -0.0833  0.1169
  113POPC   GL2 1661   1.984   2.187   7.492  0.0942  0.2595  0.1452
  113POPC   C1A 1662   2.196   2.708   7.310  0.3593  0.0262  0.0349
  113POPC   D2A 1663   2.581   2.929   7.232 -0.0597  0.2162 -0.1851
  113POPC   C3A 1664   2.678   3.122   6.848  0.1053  0.1023 -0.1769
  113POPC   C4A 1665   3.001   3.294   6.708  0.2527  0.0066  0.0482
  113POPC   C1B 1666   2.099   2.166   7.073 -0.1416 -0.3864  0.3577
  113POPC   C2B 1667   2.341   2.162   6.571  0.2325  0.1348 -0.0122
  113POPC   C3B 1668   2.059   2.040   6.233  0.0481 -0.0337  0.0721
  113POPC   C4B 1669   1.969   1.797   5.823 -0.2466 -0.0471  0.2883
  114POPC   NC3 1670   8.667   2.503   7.774  0.0278 -0.3188  0.2568
  114POPC   PO4 1671   8.370   2.137   7.763  0.0528  0.3321  0.0035
  114POPC   GL1 1672   8.533   2.131   7.356 -0.3797  0.1359  0.0516
  114POPC   GL2 1673   8.234   1.996   7.112 -0.2396  0.0560 -0.0273
  114POPC   C1A 1674   8.565   2.240   6.905 -0.1000  0.2176  0.0782
  114POPC   D2A 1675   8.817   2.434   6.527  0.2017  0.3487 -0.1335
  114POPC   C3A 1676   9.133   2.281   6.224  0.1855  0.2526 -0.0376
  114POPC   C4A 1677   9.404   1.993   6.022  0.0428 -0.1857  0.0804
  114POPC   C1B 1678   8.220   1.994   6.675 -0.0684  0.0201 -0.0047
  114POPC   C2B 1679   8.438   2.101   6.295  0.0690  0.0029  0.2615
  114POPC   C3B 1680   8.546   2.515   6.099  0.2736  0.0261 -0.1785
  114POPC   C4B 1681   8.833   2.437   5.789  0.2089  0.1043 -0.2316
  115POPC   NC3 1682   3.276   7.872   7.678 -0.2942 -0.3873 -0.3162
  115POPC   PO4 1683   3.053   7.579   7.933 -0.1180 -0.0850 -0.1195
  115POPC   GL1 1684   3.068   7.469   7.510 -0.2432  0.0736 -0.0259
  115POPC   GL2 1685   2.781   7.573   7.473 -0.1317  0.3628  0.4345
  115POPC   C1A 1686   3.222   7.343   7.046 -0.1303 -0.0681 -0.4256
  115POPC   D2A 1687   3.026   7.131   6.859  0.1829  0.3005  0.3620
  115POPC   C3A 1688   2.645   6.921   6.857 -0.3126  0.0634  0.3806
  115POPC   C4A 1689   2.369   6.542   6.902 -0.1872 -0.1509  0.0903
  115POPC   C1B 1690   2.685   7.436   7.087 -0.1987 -0.1000  0.3676
  115POPC   C2B 1691   2.640   7.319   6.573  0.0275 -0.3322  0.0626
  115POPC   C3B 1692   2.821   7.584   6.266 -0.0567  0.1289 -0.3881
  115POPC   C4B 1693   2.996   7.922   6.321 -0.0969  0.2116 -0.1765
  116POPC   NC3 1694   8.850  10.543   7.586  0.1039 -0.0746 -0.0590
  116POPC   PO4 1695   8.389  10.403   7.641 -0.0969 -0.2120 -0.0893
  116POPC   GL1 1696   8.541  10.294   7.214  0.1085  0.0507  0.0716
  116POPC   GL2 1697   8.656  10.021   7.155  0.0829  0.0637  0.1485
  116POPC   C1A 1698   8.328  10.220   6.724  0.0514  0.0750 -0.3141
  116POPC   D2A 1699   8.117  10.368   6.320 -0.0260 -0.0981 -0.0141
  116POPC   C3A 1700   8.501  10.682   6.028  0.0302  0.2414  0.0004
  116POPC   C4A 1701   8.848  10.935   5.898 -0.0242  0.0290  0.0557
  116POPC   C1B 1702   8.492   9.758   6.766  0.2046 -0.1292 -0.1633
  116POPC   C2B 1703   8.078   9.823   6.519  0.2875  0.2809  0.3769
  116POPC   C3B 1704   7.993   9.548   6.117  0.2114  0.0384  0.1434
  116POPC   C4B 1705   7.956   9.476   5.699  0.4179  0.1811  0.3163
  117POPC   NC3 1706   6.935  10.269   7.290  0.1406 -0.3794 -0.1983
  117POPC   PO4 1707   6.783   9.908   7.234 -0.3817  0.2788 -0.3767
  117POPC   GL1 1708   6.705   9.921   6.858  0.0007  0.2710 -0.2604
  117POPC   GL2 1709   7.049  10.229   6.780  0.2326 -0.0454 -0.0409
  117POPC   C1A 1710   6.569  10.250   6.642 -0.2820  0.0161 -0.0379
  117POPC   D2A 1711   6.312  10.608   6.591  0.0161 -0.2032  0.0460
  117POPC   C3A 1712   6.438  10.848   6.365 -0.3371 -0.1771 -0.0320
  117POPC   C4A 1713   6.775  11.066   6.214  0.0746 -0.1071  0.1232
  117POPC   C1B 1714   7.299   9.971   6.476  0.3926  0.2568 -0.0316
  117POPC   C2B 1715   7.297   9.668   6.146 -0.0656  0.1087 -0.1875
  117POPC   C3B 1716   7.103   9.247   6.254  0.1558  0.1084  0.2871
  117POPC   C4B 1717   6.828   9.144   6.696  0.2014 -0.1161  0.1041
  118POPC   NC3 1718  10.239   7.395   7.976  0.0387 -0.1755 -0.1238
  118POPC   PO4 1719   9.760   7.437   7.998  0.0163 -0.0852 -0.1791
  118POPC   GL1 1720  10.080   7.298   7.536 -0.1436 -0.2795 -0.1504
  118POPC   GL2 1721  10.062   7.123   7.339 -0.0004 -0.0027 -0.0681
  118POPC   C1A 1722  10.253   7.494   7.104 -0.0385 -0.0228  0.0864
  118POPC   D2A 1723  10.346   7.314   6.791  0.1426 -0.2784 -0.3251
  118POPC   C3A 1724  10.081   7.348   6.461  0.1002  0.0633 -0.1172
  118POPC   C4A 1725   9.912   6.944   6.333 -0.3042 -0.0603  0.3790
  118POPC   C1B 1726   9.871   7.224   6.913 -0.0282  0.2612 -0.3155
  118POPC   C2B 1727   9.543   7.160   6.545 -0.1431 -0.1159 -0.0145
  118POPC   C3B 1728   9.436   7.096   6.134 -0.0627  0.1392  0.1066
  118POPC   C4B 1729   9.114   7.040   5.816  0.0427  0.0074 -0.2524
  119POPC   NC3 1730   4.669   1.799   7.623 -0.2212  0.0054 -0.3036
  119POPC   PO4 1731   4.318   1.932   7.836 -0.0877 -0.0431  0.1309
  119POPC   GL1 1732   4.121   1.888   7.413 -0.1186  0.0136 -0.0035
  119POPC   GL2 1733   4.109   2.186   7.189  0.0626  0.1616 -0.1064
  119POPC   C1A 1734   4.133   1.756   7.008  0.0819  0.0771 -0.0078
  119POPC   D2A 1735   4.062   1.546   6.625 -0.0928  0.1539  0.3844
  119POPC   C3A 1736   3.876   1.308   6.415  0.1846  0.0025 -0.0285
  119POPC   C4A 1737   3.475   1.260   6.308 -0.1566 -0.3036 -0.1788
  119POPC   C1B 1738   4.199   2.299   6.810 -0.1452  0.0471 -0.0608
  119POPC   C2B 1739   4.389   2.360   6.418  0.1611  0.1451 -0.2533
  119POPC   C3B 1740   4.164   2.362   6.112 -0.1975  0.0856 -0.1654
  119POPC   C4B 1741   3.940   2.538   5.697  0.0958  0.0077 -0.0929
  120POPC   NC3 1742   1.554   1.749   8.023  0.2941 -0.1968  0.2556
  120POPC   PO4 1743   1.959   1.892   7.994 -0.0256  0.1062 -0.0823
  120POPC   GL1 1744   1.804   1.731   7.544  0.0601 -0.0808  0.0727
  120POPC   GL2 1745   1.578   1.887   7.439  0.0677  0.0457  0.1363
  120POPC   C1A 1746   1.954   1.646   7.117  0.3044 -0.0775  0.1950
  120POPC   D2A 1747   2.138   1.680   6.602  0.1961  0.0872  0.0039
  120POPC   C3A 1748   1.966   1.544   6.300  0.1869  0.2409 -0.3846
  120POPC   C4A 1749   1.856   1.322   6.001  0.2258  0.0519  0.2339
  120POPC   C1B 1750   1.618   2.202   7.106  0.1182  0.0529  0.1619
  120POPC   C2B 1751   1.782   2.576   6.975  0.1156  0.3888 -0.0046
  120POPC   C3B 1752   2.148   2.613   6.806  0.0113  0.2082 -0.2117
  120POPC   C4B 1753   2.209   2.768   6.432  0.1495  0.4301  0.0067
  121POPC   NC3 1754   0.748   6.376   8.426 -0.0257  0.4316  0.0267
  121POPC   PO4 1755   0.866   6.776   8.206  0.0577 -0.0528 -0.5311
  121POPC   GL1 1756   0.819   6.936   7.795 -0.0420  0.2652 -0.0651
  121POPC   GL2 1757   0.516   6.874   7.569 -0.2366  0.1717 -0.1025
  121POPC   C1A 1758   0.980   7.118   7.365 -0.1255 -0.2540  0.0741
  121POPC   D2A 1759   1.450   7.069   7.046  0.1723  0.2490 -0.3437
  121POPC   C3A 1760   1.411   6.863   6.643  0.2212 -0.0582 -0.1561
  121POPC   C4A 1761   1.484   6.784   6.180 -0.2760  0.1478  0.0701
  121POPC   C1B 1762   0.574   6.856   7.206 -0.0426  0.0600  0.0934
  121POPC   C2B 1763   0.574   6.826   6.705  0.3219  0.2918 -0.0071
  121POPC   C3B 1764   0.753   6.875   6.256 -0.1864  0.1969  0.2475
  121POPC   C4B 1765   0.930   6.642   6.086  0.0707 -0.1330 -0.0672
  122POPC   NC3 1766   7.247   2.934   7.964  0.2428 -0.3544 -0.6828
  122POPC   PO4 1767   7.596   3.187   8.181  0.0847 -0.1450  0.3601
  122POPC   GL1 1768   7.550   3.310   7.723  0.0122 -0.1168  0.1770
  122POPC   GL2 1769   7.812   3.287   7.454  0.1766  0.1855  0.0289
  122POPC   C1A 1770   7.443   3.067   7.297 -0.1058  0.2379  0.2712
  122POPC   D2A 1771   7.406   3.072   6.916  0.0848  0.1887  0.1967
  122POPC   C3A 1772   7.494   2.675   6.650 -0.0079  0.1349  0.0527
  122POPC   C4A 1773   7.673   2.266   6.551 -0.1820  0.2859  0.0213
  122POPC   C1B 1774   7.802   3.450   7.065  0.3001  0.3773 -0.2326
  122POPC   C2B 1775   7.674   3.378   6.622  0.0691  0.0952 -0.1322
  122POPC   C3B 1776   7.470   3.106   6.296 -0.0281 -0.0444 -0.0313
  122POPC   C4B 1777   7.021   3.071   6.232  0.3782 -0.1049 -0.2257
  123POPC   NC3 1778   4.625   6.813   8.141 -0.1050  0.0412 -0.0007
  123POPC   PO4 1779   4.309   6.530   8.318 -0.0021 -0.2382  0.0905
  123POPC   GL1 1780   4.228   6.408   7.974 -0.1495  0.1716 -0.3353
  123POPC   GL2 1781   4.264   6.780   7.837 -0.3939  0.1096 -0.0146
  123POPC   C1A 1782   4.315   6.295   7.550  0.0394 -0.0809 -0.1289
  123POPC   D2A 1783   4.163   6.535   7.145 -0.0912 -0.0327  0.0054
  123POPC   C3A 1784   3.997   6.448   6.843  0.1386 -0.1191 -0.1602
  123POPC   C4A 1785   4.067   6.380   6.375  0.0838 -0.0287  0.1471
  123POPC   C1B 1786   3.888   6.641   7.587 -0.3024 -0.2142  0.0861
  123POPC   C2B 1787   3.840   6.296   7.426  0.0017  0.2530  0.1075
  123POPC   C3B 1788   3.773   5.991   7.096 -0.3271 -0.1758  0.0376
  123POPC   C4B 1789   3.525   5.716   7.001 -0.2337 -0.2730  0.2517
  124POPC   NC3 1790   8.223   9.836   7.397  0.0798  0.1199 -0.3416
  124POPC   PO4 1791   7.820  10.169   7.416  0.0756  0.0889 -0.2837
  124POPC   GL1 1792   8.039  10.461   7.206 -0.0428  0.1311  0.0397
  124POPC   GL2 1793   7.903  10.394   6.923  0.1116  0.0624 -0.3077
  124POPC   C1A 1794   8.298  10.689   6.943  0.1702 -0.2843 -0.1844
  124POPC   D2A 1795   8.564  10.607   6.553  0.1049 -0.2883 -0.1927
  124POPC   C3A 1796   8.546  10.208   6.314 -0.0287  0.2937  0.5076
  124POPC   C4A 1797   8.341  10.069   5.989  0.0122 -0.0376  0.0034
  124POPC   C1B 1798   7.718  10.188   6.591  0.0315  0.0794  0.0650
  124POPC   C2B 1799   7.793  10.003   6.095  0.1658 -0.2697 -0.1460
  124POPC   C3B 1800   7.552  10.066   5.777  0.3391 -0.1137  0.2702
  124POPC   C4B 1801   7.537   9.743   5.491  0.2196  0.0197 -0.1712
  125POPC   NC3 1802   0.705   2.085   7.837 -0.4029  0.2030  0.2739
  125POPC   PO4 1803   0.552   2.464   7.994  0.3622  0.1888 -0.0204
  125POPC   GL1 1804   0.374   2.490   7.509 -0.1399 -0.1126 -0.1880
  125POPC   GL2 1805   0.065   2.866   7.542 -0.0562  0.1091 -0.1325
  125POPC   C1A 1806   0.215   2.596   7.103  0.1139 -0.0382 -0.1706
  125POPC   D2A 1807  -0.095   2.494   6.718  0.2522 -0.1431  0.1000
  125POPC   C3A 1808  -0.044   2.569   6.215 -0.0338  0.1066  0.0453
  125POPC   C4A 1809   0.035   2.795   5.833 -0.2263  0.1063 -0.1214
  125POPC   C1B 1810   0.308   3.062   7.225  0.0596  0.0283 -0.1636
  125POPC   C2B 1811   0.648   3.127   6.862 -0.2058 -0.0410  0.1975
  125POPC   C3B 1812   0.836   2.997   6.486 -0.4963  0.1130  0.0967
  125POPC   C4B 1813   1.085   2.834   6.136 -0.0499 -0.0048  0.0201
  126POPC   NC3 1814   4.708  10.070   7.662 -0.0322 -0.2870 -0.3803
  126POPC   PO4 1815   4.606  10.320   8.045 -0.2888  0.1468 -0.2062
  126POPC   GL1 1816   4.493  10.488   7.592  0.2338  0.2068  0.1894
  126POPC   GL2 1817   4.339  10.245   7.404 -0.0476  0.2237 -0.0618
  126POPC   C1A 1818   4.526  10.920   7.363 -0.0491  0.2466 -0.2224
  126POPC   D2A 1819   4.569  11.162   7.054 -0.1752  0.1732  0.0750
  126POPC   C3A 1820   4.902  11.229   6.967  0.1700 -0.0963 -0.3534
  126POPC   C4A 1821   5.168  11.384   6.693 -0.0053  0.0481  0.4800
  126POPC   C1B 1822   4.371  10.137   6.859 -0.2934  0.3056  0.2561
  126POPC   C2B 1823   4.382  10.244   6.449 -0.1455  0.2504 -0.1940
  126POPC   C3B 1824   4.650  10.513   6.322  0.1909  0.2116 -0.2121
  126POPC   C4B 1825   4.734  10.782   6.007  0.2626 -0.0109 -0.3320
  127POPC   NC3 1826   3.317   7.362   8.334 -0.2672  0.2234  0.0193
  127POPC   PO4 1827   3.507   7.693   8.065  0.1239 -0.1621  0.0587
  127POPC   GL1 1828   3.523   7.400   7.700  0.0307  0.0108  0.0141
  127POPC   GL2 1829   3.595   7.603   7.432  0.2760  0.1912  0.1688
  127POPC   C1A 1830   3.436   6.978   7.536  0.1118  0.2703 -0.1119
  127POPC   D2A 1831   3.361   6.673   7.625  0.3406 -0.2445  0.0427
  127POPC   C3A 1832   3.511   6.365   7.951 -0.3298  0.1665  0.0354
  127POPC   C4A 1833   3.451   5.991   8.181  0.2599 -0.0343  0.2499
  127POPC   C1B 1834   3.715   7.272   7.179  0.0107  0.1809 -0.1042
  127POPC   C2B 1835   3.705   6.856   7.153  0.3121  0.0911  0.0723
  127POPC   C3B 1836   3.544   6.460   7.018 -0.0093  0.0288  0.0756
  127POPC   C4B 1837   3.558   6.182   6.720  0.1902  0.0439 -0.0761
  128POPC   NC3 1838   3.944   7.822   8.197 -0.1538  0.0334  0.1149
  128POPC   PO4 1839   4.409   7.630   8.151 -0.1325 -0.0730 -0.0053
  128POPC   GL1 1840   4.233   7.469   7.807 -0.3015  0.1426 -0.0452
  128POPC   GL2 1841   4.004   7.207   7.689 -0.0233 -0.0956 -0.2215
  128POPC   C1A 1842   4.350   7.459   7.312 -0.3911  0.0164  0.0424
  128POPC   D2A 1843   4.688   7.368   6.939  0.0957 -0.0355  0.0912
  128POPC   C3A 1844   4.521   7.200   6.536 -0.1100 -0.2115  0.2276
  128POPC   C4A 1845   4.748   6.951   6.239  0.0043  0.3955 -0.2281
  128POPC   C1B 1846   4.163   6.992   7.353  0.0210  0.1007  0.1040
  128POPC   C2B 1847   4.095   6.968   6.903  0.0628 -0.1691  0.0830
  128POPC   C3B 1848   4.364   6.720   6.602 -0.0494 -0.1768  0.1007
  128POPC   C4B 1849   4.254   6.787   6.140 -0.0645 -0.0810  0.0887
  129POPC   NC3 1850   6.021   9.454   7.821  0.2084 -0.0670 -0.2865
  129POPC   PO4 1851   5.649   9.730   7.585 -0.2112  0.2167 -0.0509
  129POPC   GL1 1852   5.577   9.890   7.231 -0.1011  0.0733 -0.3875
  129POPC   GL2 1853   5.281  10.042   7.131 -0.0070  0.2203  0.1007
  129POPC   C1A 1854   5.681  10.030   6.782  0.0190 -0.0061  0.2721
  129POPC   D2A 1855   5.442  10.013   6.440 -0.1669 -0.2256 -0.1652
  129POPC   C3A 1856   5.016  10.052   6.365 -0.2590 -0.0834  0.2049
  129POPC   C4A 1857   4.664   9.874   6.124 -0.1148 -0.2853 -0.1283
  129POPC   C1B 1858   5.251   9.699   6.741  0.2905  0.2263  0.0071
  129POPC   C2B 1859   5.318   9.429   6.412 -0.0293  0.1640 -0.0052
  129POPC   C3B 1860   5.050   9.286   6.053  0.2555 -0.2208  0.1673
  129POPC   C4B 1861   4.754   9.037   5.851 -0.0956  0.0581 -0.0825
  130POPC   NC3 1862   7.300   4.004   8.177 -0.0341  0.1263  0.0154
  130POPC   PO4 1863   6.977   4.139   7.937  0.1409  0.2030 -0.2496
  130POPC   GL1 1864   7.103   3.916   7.548  0.0792 -0.0885 -0.1118
  130POPC   GL2 1865   7.422   3.861   7.697  0.0973 -0.0086  0.0276
  130POPC   C1A 1866   7.245   4.033   7.207 -0.2920  0.2441  0.2876
  130POPC   D2A 1867   7.509   4.384   6.938  0.1717  0.1509  0.0763
  130POPC   C3A 1868   7.797   4.361   6.711 -0.1512  0.0096  0.0305
  130POPC   C4A 1869   8.121   4.594   6.673  0.1422  0.1854  0.0334
  130POPC   C1B 1870   7.392   3.601   7.302 -0.2687 -0.1338  0.0858
  130POPC   C2B 1871   7.296   3.627   6.877  0.0168 -0.0049  0.0529
  130POPC   C3B 1872   7.268   4.141   6.628  0.3784 -0.0662  0.2187
  130POPC   C4B 1873   7.268   4.425   6.285 -0.1990 -0.0780 -0.1096
  131POPC   NC3 1874   0.494   3.650   8.033  0.2151 -0.2230  0.0726
  131POPC   PO4 1875   0.263   3.216   7.874  0.0855 -0.1292 -0.3580
  131POPC   GL1 1876   0.377   3.426   7.633 -0.1151  0.2108  0.0040
  131POPC   GL2 1877   0.692   3.399   7.507  0.1087 -0.0448  0.0934
  131POPC   C1A 1878   0.184   3.555   7.204 -0.1756  0.0146  0.0420
  131POPC   D2A 1879  -0.047   3.597   6.840 -0.1193 -0.3367  0.0205
  131POPC   C3A 1880   0.162   3.500   6.466  0.0859  0.0783 -0.1580
  131POPC   C4A 1881   0.053   3.346   6.065  0.3402  0.1931 -0.0126
  131POPC   C1B 1882   0.655   3.738   7.230 -0.0378 -0.0660  0.0195
  131POPC   C2B 1883   0.615   3.717   6.889 -0.1388  0.1361  0.3835
  131POPC   C3B 1884   0.447   3.892   6.595 -0.1710 -0.1190 -0.1811
  131POPC   C4B 1885   0.244   3.912   6.150 -0.1039 -0.0770 -0.0804
  132POPC   NC3 1886   9.146   9.784   7.711 -0.0476  0.1962 -0.1286
  132POPC   PO4 1887   9.324   9.430   7.615  0.0619  0.3036  0.3422
  132POPC   GL1 1888   9.645   9.446   7.431 -0.1538  0.1426  0.3396
  132POPC   GL2 1889   9.831   9.155   7.520 -0.2948  0.2772  0.0402
  132POPC   C1A 1890   9.797   9.385   7.062 -0.3115  0.1004 -0.0200
  132POPC   D2A 1891   9.886   9.610   6.651  0.1520  0.1894  0.1602
  132POPC   C3A 1892  10.108  10.026   6.652 -0.2403  0.1196 -0.1763
  132POPC   C4A 1893  10.551  10.227   6.621 -0.1516 -0.3019 -0.2539
  132POPC   C1B 1894  10.048   8.988   7.126 -0.3607  0.1835 -0.1055
  132POPC   C2B 1895  10.233   9.142   6.740  0.1480 -0.2441  0.3217
  132POPC   C3B 1896  10.191   9.496   6.269 -0.2091  0.3798  0.0814
  132POPC   C4B 1897  10.222   9.704   5.900 -0.0207  0.2229  0.1728
  133POPC   NC3 1898   5.420   2.978   7.654  0.0756  0.1494 -0.1714
  133POPC   PO4 1899   5.407   2.500   7.615 -0.2930  0.0114 -0.1657
  133POPC   GL1 1900   5.651   2.652   7.308  0.2545  0.1613  0.0902
  133POPC   GL2 1901   5.955   2.540   7.355 -0.2112  0.0332 -0.1526
  133POPC   C1A 1902   5.718   2.757   6.732 -0.1814  0.1947 -0.0397
  133POPC   D2A 1903   5.657   2.688   6.406 -0.3695 -0.0770  0.1489
  133POPC   C3A 1904   5.731   2.881   6.005  0.2463 -0.2763  0.0561
  133POPC   C4A 1905   5.752   3.089   5.571 -0.0736 -0.2166 -0.2626
  133POPC   C1B 1906   6.059   2.794   7.092 -0.0611 -0.0453  0.2945
  133POPC   C2B 1907   6.103   3.064   6.764 -0.0402 -0.3050 -0.0337
  133POPC   C3B 1908   5.715   3.202   6.466  0.1611 -0.0314  0.2010
  133POPC   C4B 1909   5.615   3.503   6.100  0.0034 -0.0456 -0.0421
  134POPC   NC3 1910   8.433   3.145   8.361 -0.1302  0.2157  0.1577
  134POPC   PO4 1911   8.520   3.267   7.929 -0.0940 -0.1343 -0.1197
  134POPC   GL1 1912   8.396   3.414   7.573 -0.2714 -0.3764 -0.1651
  134POPC   GL2 1913   8.409   3.254   7.242 -0.0370  0.0629  0.0892
  134POPC   C1A 1914   8.250   3.723   7.139  0.4218  0.1120 -0.3226
  134POPC   D2A 1915   8.150   3.545   6.642  0.0125 -0.1200  0.2992
  134POPC   C3A 1916   8.388   3.667   6.298 -0.0620 -0.0215  0.0093
  134POPC   C4A 1917   8.569   3.784   5.916  0.0686 -0.0324 -0.0819
  134POPC   C1B 1918   8.599   3.408   6.894  0.2772 -0.0462  0.1356
  134POPC   C2B 1919   8.730   3.844   6.776  0.0084  0.0102  0.2740
  134POPC   C3B 1920   8.804   4.010   6.378  0.4574 -0.1631  0.2114
  134POPC   C4B 1921   8.596   4.260   6.074 -0.1044  0.1326  0.1183
  135POPC   NC3 1922   0.600   0.131   7.359 -0.1746 -0.1339 -0.2762
  135POPC   PO4 1923   0.177   0.108   7.431 -0.0402  0.1443 -0.1398
  135POPC   GL1 1924   0.206   0.217   7.047  0.3031 -0.0285 -0.1113
  135POPC   GL2 1925   0.319  -0.105   6.880 -0.0705  0.2574  0.1143
  135POPC   C1A 1926  -0.004   0.237   6.611  0.0866 -0.1650 -0.0035
  135POPC   D2A 1927  -0.066   0.108   6.232  0.2165  0.0725 -0.2795
  135POPC   C3A 1928  -0.251   0.408   5.894 -0.0924 -0.0628  0.0540
  135POPC   C4A 1929  -0.199   0.357   5.410 -0.0642 -0.3561  0.0996
  135POPC   C1B 1930   0.346  -0.180   6.498 -0.3651 -0.0395 -0.0392
  135POPC   C2B 1931   0.568  -0.251   6.121 -0.1668  0.3948  0.0126
  135POPC   C3B 1932   0.819  -0.196   5.818 -0.1838  0.0274  0.0655
  135POPC   C4B 1933   0.614  -0.095   5.503  0.1276  0.0218 -0.3530
  136POPC   NC3 1934   3.518   9.163   7.197  0.3233 -0.2163 -0.0250
  136POPC   PO4 1935   3.764   8.734   7.311  0.1325 -0.2051  0.2568
  136POPC   GL1 1936   3.670   8.674   6.931  0.5381 -0.2486  0.1911
  136POPC   GL2 1937   3.443   8.892   6.786 -0.0978  0.0764 -0.2945
  136POPC   C1A 1938   3.420   8.375   6.793 -0.1063 -0.1195 -0.1233
  136POPC   D2A 1939   3.393   8.042   6.599  0.0458  0.3612  0.0975
  136POPC   C3A 1940   3.486   8.090   6.202 -0.2388 -0.2449  0.0212
  136POPC   C4A 1941   3.785   8.135   5.860  0.3138 -0.1240  0.1834
  136POPC   C1B 1942   3.277   8.524   6.329  0.1330 -0.0159  0.0343
  136POPC   C2B 1943   3.036   8.288   5.955 -0.0718 -0.2410  0.2327
  136POPC   C3B 1944   2.914   7.846   5.855 -0.1110 -0.1052 -0.1015
  136POPC   C4B 1945   2.687   7.577   5.785  0.3700  0.0689 -0.3155
  137POPC   NC3 1946   1.688   0.845   7.751  0.1517  0.1404  0.1295
  137POPC   PO4 1947   1.320   1.156   7.660 -0.3573  0.2720 -0.3361
  137POPC   GL1 1948   1.691   1.276   7.441  0.1431 -0.1379 -0.3091
  137POPC   GL2 1949   1.732   1.151   7.160  0.1408 -0.0731 -0.2986
  137POPC   C1A 1950   1.495   1.517   6.995 -0.2489 -0.0471  0.0344
  137POPC   D2A 1951   1.632   1.727   6.618 -0.0328  0.2143 -0.1591
  137POPC   C3A 1952   1.822   2.124   6.635  0.0792 -0.2097  0.1721
  137POPC   C4A 1953   1.788   2.545   6.403 -0.3492  0.1150 -0.0868
  137POPC   C1B 1954   1.615   0.855   6.867 -0.2951 -0.2796 -0.1767
  137POPC   C2B 1955   1.747   0.773   6.425 -0.3382 -0.1112  0.0582
  137POPC   C3B 1956   2.018   0.536   6.209 -0.0799  0.0509  0.0785
  137POPC   C4B 1957   2.221   0.128   5.907 -0.1343 -0.2389  0.1397
  138POPC   NC3 1958  10.156   9.454   8.364 -0.1567  0.0762  0.0704
  138POPC   PO4 1959  10.127   9.133   7.948 -0.3440 -0.3312  0.2503
  138POPC   GL1 1960  10.345   9.103   7.588 -0.2229 -0.2154 -0.2603
  138POPC   GL2 1961  10.446   8.798   7.411 -0.0986  0.1385 -0.0138
  138POPC   C1A 1962  10.698   9.147   7.211 -0.2161  0.0737  0.0911
  138POPC   D2A 1963  10.779   8.991   6.895 -0.1826 -0.2587  0.0856
  138POPC   C3A 1964  10.815   9.147   6.618  0.1679 -0.0143  0.3454
  138POPC   C4A 1965  10.680   9.352   6.162 -0.0871 -0.1096 -0.1011
  138POPC   C1B 1966  10.435   8.583   7.058 -0.2023 -0.2191 -0.0837
  138POPC   C2B 1967  10.565   8.658   6.629  0.0974  0.2136 -0.0471
  138POPC   C3B 1968  10.672   8.536   6.306 -0.1968  0.0832 -0.0031
  138POPC   C4B 1969  10.836   8.170   6.023 -0.2309  0.0786 -0.1072
  139POPC   NC3 1970   4.066   5.207   9.337 -0.1407 -0.1449  0.2157
  139POPC   PO4 1971   3.924   5.150   8.836  0.1153 -0.1211  0.1400
  139POPC   GL1 1972   3.706   5.010   8.356 -0.1669 -0.0269  0.2075
  139POPC   GL2 1973   3.839   5.057   8.098 -0.1544  0.0695 -0.3725
  139POPC   C1A 1974   3.424   4.767   8.150  0.4393 -0.2575 -0.1685
  139POPC   D2A 1975   3.407   4.520   7.820 -0.1342  0.2898 -0.0283
  139POPC   C3A 1976   3.725   4.550   7.569  0.0070 -0.3720  0.4306
  139POPC   C4A 1977   3.747   4.482   7.106  0.0755  0.1058 -0.1491
  139POPC   C1B 1978   3.799   5.044   7.743 -0.2036 -0.2599  0.1085
  139POPC   C2B 1979   4.098   4.901   7.525  0.1816 -0.0214 -0.2220
  139POPC   C3B 1980   4.273   4.630   7.188 -0.1400  0.2109  0.3342
  139POPC   C4B 1981   4.364   4.667   6.800 -0.0986  0.2830  0.0619
  140POPC   NC3 1982   5.806   6.456   8.379 -0.1695  0.1162 -0.0859
  140POPC   PO4 1983   5.771   6.116   8.048 -0.4777  0.2336  0.3526
  140POPC   GL1 1984   5.556   5.954   7.748  0.3978 -0.2579 -0.0533
  140POPC   GL2 1985   5.688   5.714   7.569  0.3813  0.1465 -0.3492
  140POPC   C1A 1986   5.208   6.191   7.513 -0.0398  0.2624  0.0544
  140POPC   D2A 1987   5.111   6.445   7.213 -0.2509  0.2369 -0.1710
  140POPC   C3A 1988   5.331   6.624   6.853  0.1123  0.0178  0.0209
  140POPC   C4A 1989   5.139   6.715   6.437  0.0418  0.1769 -0.1388
  140POPC   C1B 1990   5.501   5.920   7.244  0.0893  0.2472 -0.0268
  140POPC   C2B 1991   5.398   5.797   6.751  0.0614  0.2555  0.2103
  140POPC   C3B 1992   5.481   5.893   6.338 -0.1048 -0.1011  0.2153
  140POPC   C4B 1993   5.117   6.137   6.237  0.2488  0.0332 -0.1866
  141POPC   NC3 1994   0.785   1.030   7.393  0.0562 -0.0205 -0.0586
  141POPC   PO4 1995   1.145   0.702   7.449  0.0134  0.0986  0.0940
  141POPC   GL1 1996   1.210   0.991   7.115 -0.1054 -0.1793 -0.2478
  141POPC   GL2 1997   1.230   0.586   6.894 -0.1273  0.3365 -0.1049
  141POPC   C1A 1998   1.176   1.235   6.788  0.1331 -0.0317  0.1198
  141POPC   D2A 1999   1.007   1.262   6.428  0.1960 -0.0791  0.0677
  141POPC   C3A 2000   0.630   1.266   6.300 -0.2542 -0.1294  0.1462
  141POPC   C4A 2001   0.458   1.104   5.790  0.1309  0.1419 -0.0345
  141POPC   C1B 2002   1.279   0.827   6.507  0.1664  0.0240 -0.0680
  141POPC   C2B 2003   1.305   0.979   6.076  0.2789  0.0657 -0.2201
  141POPC   C3B 2004   1.006   0.789   5.733  0.0310 -0.2315  0.2412
  141POPC   C4B 2005   0.751   0.391   5.766 -0.1966  0.1212 -0.2390
  142POPC   NC3 2006   2.437   3.363   8.465 -0.2459 -0.0735 -0.3582
  142POPC   PO4 2007   2.274   2.883   8.437 -0.0692  0.1398 -0.4806
  142POPC   GL1 2008   2.349   3.094   8.058  0.1959 -0.2728 -0.0750
  142POPC   GL2 2009   2.114   2.949   7.733 -0.1584 -0.3132  0.0894
  142POPC   C1A 2010   2.473   3.308   7.650 -0.0213 -0.0018 -0.0050
  142POPC   D2A 2011   2.507   3.514   7.282  0.0079  0.0346 -0.0350
  142POPC   C3A 2012   2.370   3.992   7.324  0.1743  0.0561  0.0814
  142POPC   C4A 2013   2.726   4.212   7.051  0.2145  0.1056 -0.3328
  142POPC   C1B 2014   2.073   3.173   7.248  0.0184 -0.0737  0.2082
  142POPC   C2B 2015   1.903   3.068   6.892  0.1491 -0.3407 -0.0933
  142POPC   C3B 2016   1.786   3.043   6.459 -0.1260 -0.2570 -0.0145
  142POPC   C4B 2017   1.561   3.103   6.051  0.0054  0.1797  0.2761
  143POPC   NC3 2018   4.771   7.587   7.739 -0.0690  0.1187 -0.1682
  143POPC   PO4 2019   4.865   8.055   7.855  0.0292  0.2266 -0.1662
  143POPC   GL1 2020   4.942   8.041   7.452 -0.4291  0.1633 -0.0232
  143POPC   GL2 2021   4.747   7.902   7.196  0.0430 -0.2899 -0.4294
  143POPC   C1A 2022   5.128   8.158   6.943  0.0037  0.4529 -0.0606
  143POPC   D2A 2023   5.426   7.979   6.582 -0.3694  0.0416 -0.1207
  143POPC   C3A 2024   5.930   8.100   6.555 -0.0593  0.0352 -0.0204
  143POPC   C4A 2025   6.150   7.940   6.164  0.0224 -0.3182  0.1623
  143POPC   C1B 2026   4.430   7.898   6.913  0.3063 -0.3199  0.2748
  143POPC   C2B 2027   4.392   7.746   6.454 -0.2952 -0.2486 -0.2715
  143POPC   C3B 2028   4.240   7.986   6.050  0.1195  0.0585 -0.0978
  143POPC   C4B 2029   4.244   8.378   5.944  0.0529  0.0666  0.0125
  144POPC   NC3 2030   9.965   1.662   8.332  0.0093 -0.0373 -0.0966
  144POPC   PO4 2031   9.930   1.880   7.986 -0.0700  0.1402 -0.2287
  144POPC   GL1 2032   9.823   1.975   7.620  0.0838 -0.0673  0.1835
  144POPC   GL2 2033   9.671   1.858   7.324 -0.3119  0.0216 -0.0457
  144POPC   C1A 2034   9.825   2.315   7.376 -0.1621  0.0960 -0.1299
  144POPC   D2A 2035   9.789   2.450   6.906 -0.2085  0.1171 -0.0624
  144POPC   C3A 2036   9.902   2.714   6.622 -0.1982 -0.1408  0.4261
  144POPC   C4A 2037  10.225   2.923   6.531 -0.2121  0.0875 -0.1272
  144POPC   C1B 2038   9.881   1.871   6.939 -0.2976  0.1804  0.2208
  144POPC   C2B 2039  10.083   2.177   6.561 -0.0077 -0.1210  0.2332
  144POPC   C3B 2040  10.489   2.126   6.303 -0.1651  0.0245  0.1685
  144POPC   C4B 2041  10.727   1.754   6.163 -0.0386 -0.2555 -0.2835
  145POPC   NC3 2042   4.010   3.448   7.970 -0.0763  0.1344  0.2469
  145POPC   PO4 2043   4.461   3.366   7.854  0.2947  0.4499 -0.0064
  145POPC   GL1 2044   4.515   3.382   7.467  0.2203  0.2076  0.0775
  145POPC   GL2 2045   4.306   3.653   7.404  0.3648  0.0912  0.3168
  145POPC   C1A 2046   4.436   3.286   6.980 -0.0904 -0.1067  0.3774
  145POPC   D2A 2047   4.459   3.273   6.611  0.1172 -0.3094  0.1977
  145POPC   C3A 2048   4.190   3.622   6.268 -0.1290 -0.2019  0.0017
  145POPC   C4A 2049   3.807   3.583   6.006 -0.4248  0.0839 -0.0439
  145POPC   C1B 2050   4.340   3.752   6.959  0.0385 -0.0175  0.1935
  145POPC   C2B 2051   4.558   3.751   6.498 -0.0311  0.1539  0.0242
  145POPC   C3B 2052   4.663   3.866   6.125  0.1953  0.1625  0.0849
  145POPC   C4B 2053   4.936   4.107   5.860 -0.2255  0.0153 -0.0921
  146POPC   NC3 2054   1.576   2.240   7.784 -0.0064 -0.0662 -0.0844
  146POPC   PO4 2055   1.137   1.894   7.721  0.0013  0.0553 -0.2041
  146POPC   GL1 2056   1.136   2.140   7.479  0.3526  0.1006  0.2523
  146POPC   GL2 2057   0.816   2.308   7.385 -0.0511  0.0837  0.0307
  146POPC   C1A 2058   1.201   1.886   7.086  0.1247  0.0100 -0.4824
  146POPC   D2A 2059   1.061   1.735   6.660  0.0628  0.0616  0.3051
  146POPC   C3A 2060   1.008   1.934   6.263 -0.0126 -0.6417  0.0430
  146POPC   C4A 2061   0.899   2.289   6.065 -0.4493  0.1082 -0.1631
  146POPC   C1B 2062   0.745   2.619   7.014  0.1963 -0.0959 -0.3874
  146POPC   C2B 2063   0.488   2.596   6.669  0.2088  0.1394  0.1362
  146POPC   C3B 2064   0.501   2.610   6.153  0.0530 -0.2137  0.1354
  146POPC   C4B 2065   0.700   2.717   5.787  0.2467  0.2421  0.0350
  147POPC   NC3 2066   3.201  10.131   7.189 -0.2106 -0.2394  0.0963
  147POPC   PO4 2067   3.598  10.253   7.233 -0.1561 -0.1763 -0.2917
  147POPC   GL1 2068   3.758  10.118   6.911 -0.1480  0.1392  0.0989
  147POPC   GL2 2069   3.595  10.301   6.753  0.0592  0.1286  0.1186
  147POPC   C1A 2070   3.946   9.896   6.598  0.1438 -0.0550  0.0590
  147POPC   D2A 2071   3.761   9.758   6.189 -0.0577  0.2332  0.0976
  147POPC   C3A 2072   3.656   9.341   6.327  0.0435 -0.0773 -0.1046
  147POPC   C4A 2073   3.311   9.039   6.279 -0.0513  0.0471 -0.0932
  147POPC   C1B 2074   3.684  10.422   6.368  0.1604 -0.0276  0.0525
  147POPC   C2B 2075   3.942  10.279   6.045  0.0012  0.3345 -0.0598
  147POPC   C3B 2076   4.363  10.393   5.808 -0.3324 -0.1561 -0.1141
  147POPC   C4B 2077   4.844  10.305   5.922 -0.2323  0.2856 -0.0406
  148POPC   NC3 2078   6.844   8.860   7.824  0.2429 -0.2146 -0.2732
  148POPC   PO4 2079   6.447   9.155   7.810  0.0294  0.1240  0.1193
  148POPC   GL1 2080   6.390   9.050   7.373  0.0548 -0.0433 -0.1115
  148POPC   GL2 2081   6.081   9.176   7.247 -0.0449 -0.2108 -0.3640
  148POPC   C1A 2082   6.454   8.874   6.985  0.1613 -0.1662  0.2897
  148POPC   D2A 2083   6.670   8.677   6.727 -0.1361 -0.1472 -0.0981
  148POPC   C3A 2084   7.004   8.745   6.446 -0.3053 -0.2620  0.2224
  148POPC   C4A 2085   7.403   8.681   6.184  0.0701  0.3104 -0.2473
  148POPC   C1B 2086   6.038   9.112   6.781 -0.3895 -0.0624 -0.2330
  148POPC   C2B 2087   6.097   8.814   6.486 -0.2322  0.3193  0.1105
  148POPC   C3B 2088   6.174   8.444   6.249 -0.1963 -0.0274 -0.0510
  148POPC   C4B 2089   6.089   8.369   5.857  0.2909 -0.0729 -0.1302
  149POPC   NC3 2090  10.129   3.620   8.071 -0.1981  0.0792 -0.1658
  149POPC   PO4 2091  10.244   4.068   8.011  0.1415 -0.1294 -0.0846
  149POPC   GL1 2092  10.340   4.115   7.582  0.1730  0.3130  0.1057
  149POPC   GL2 2093  10.072   4.210   7.281 -0.1080 -0.0846  0.2166
  149POPC   C1A 2094  10.297   3.801   7.238 -0.3949  0.3871 -0.1483
  149POPC   D2A 2095  10.141   3.931   6.865  0.2137 -0.0573  0.0099
  149POPC   C3A 2096  10.279   3.829   6.484  0.3696  0.1711  0.3218
  149POPC   C4A 2097  10.386   3.854   6.055 -0.1415  0.1751 -0.4162
  149POPC   C1B 2098   9.663   4.285   7.242  0.0190 -0.0325 -0.3607
  149POPC   C2B 2099   9.437   4.662   7.084 -0.3499  0.2736 -0.1026
  149POPC   C3B 2100   9.435   5.048   6.864  0.1838 -0.0091 -0.1107
  149POPC   C4B 2101   9.656   5.111   6.452  0.0499 -0.2873 -0.3502
  150POPC   NC3 2102   9.033   5.458   8.000 -0.1201  0.1854  0.0105
  150POPC   PO4 2103   9.450   5.588   7.907 -0.1632 -0.1248 -0.2364
  150POPC   GL1 2104   9.644   5.614   7.497 -0.2040 -0.4851  0.0430
  150POPC   GL2 2105   9.433   5.921   7.522 -0.0751 -0.2024  0.0578
  150POPC   C1A 2106   9.825   5.660   7.157  0.1716  0.1992  0.2313
  150POPC   D2A 2107  10.142   5.602   6.892 -0.1354  0.0318 -0.1310
  150POPC   C3A 2108  10.512   5.358   6.993  0.1143 -0.3575  0.0890
  150POPC   C4A 2109  10.429   4.988   7.182 -0.1664 -0.0704 -0.0233
  150POPC   C1B 2110   9.351   5.984   7.133 -0.0388  0.0427 -0.1052
  150POPC   C2B 2111   9.219   5.938   6.753 -0.0503  0.1559  0.2242
  150POPC   C3B 2112   8.925   6.122   6.629 -0.0639 -0.0735  0.4274
  150POPC   C4B 2113   8.621   6.111   6.346  0.2052  0.2812  0.5127
  151POPC   NC3 2114   2.264  10.063   7.560 -0.2634  0.2122 -0.1337
  151POPC   PO4 2115   2.723  10.092   7.374  0.0126 -0.2826 -0.4140
  151POPC   GL1 2116   2.424  10.089   6.981 -0.0377  0.0861  0.1747
  151POPC   GL2 2117   2.380  10.430   6.869  0.0965  0.1649  0.0555
  151POPC   C1A 2118   2.272   9.852   6.619  0.3380  0.1088  0.0496
  151POPC   D2A 2119   2.357   9.672   6.277 -0.0790  0.1351  0.1092
  151POPC   C3A 2120   1.888   9.587   5.965  0.1319  0.0637  0.0830
  151POPC   C4A 2121   1.595   9.623   5.664 -0.1530  0.3400  0.2396
  151POPC   C1B 2122   2.434  10.355   6.432 -0.1155 -0.2502  0.1471
  151POPC   C2B 2123   2.414  10.088   6.016 -0.0370 -0.1575 -0.0154
  151POPC   C3B 2124   2.588   9.992   5.579 -0.0214 -0.1608 -0.1214
  151POPC   C4B 2125   2.594   9.616   5.212  0.2987  0.1093 -0.0765
  152POPC   NC3 2126   0.044   2.504   7.899 -0.0180 -0.0278  0.2582
  152POPC   PO4 2127  -0.402   2.724   7.994  0.0871  0.1041  0.3719
  152POPC   GL1 2128  -0.442   2.787   7.541  0.1171 -0.1705 -0.0963
  152POPC   GL2 2129  -0.689   2.824   7.424  0.2564 -0.2519 -0.2416
  152POPC   C1A 2130  -0.391   2.577   7.157  0.0743  0.2862  0.0195
  152POPC   D2A 2131  -0.263   2.084   6.984  0.0505 -0.1479  0.4929
  152POPC   C3A 2132   0.164   2.034   6.694  0.1169  0.0297 -0.3472
  152POPC   C4A 2133   0.340   2.210   6.287  0.0827  0.3509 -0.1228
  152POPC   C1B 2134  -0.750   3.090   7.020 -0.0153 -0.0470 -0.1310
  152POPC   C2B 2135  -0.466   3.360   6.719  0.1297  0.0262 -0.1637
  152POPC   C3B 2136  -0.431   3.387   6.304 -0.2131  0.0027 -0.3472
  152POPC   C4B 2137  -0.367   3.037   6.026 -0.1766 -0.0631  0.2089
  153POPC   NC3 2138   5.147   9.829   7.539  0.1102  0.1052 -0.0444
  153POPC   PO4 2139   4.861   9.507   7.648  0.0565 -0.0375  0.2477
  153POPC   GL1 2140   5.064   9.226   7.339  0.2340  0.1857 -0.1893
  153POPC   GL2 2141   5.357   9.429   7.235  0.0068 -0.2222 -0.1308
  153POPC   C1A 2142   5.144   9.184   6.943 -0.2628  0.0944 -0.0785
  153POPC   D2A 2143   4.982   9.117   6.623 -0.2577 -0.0114  0.0128
  153POPC   C3A 2144   4.701   8.912   6.388  0.2516  0.0074 -0.2179
  153POPC   C4A 2145   4.343   8.906   6.155 -0.0083 -0.0283  0.0015
  153POPC   C1B 2146   5.683   9.367   7.010 -0.0410 -0.5170 -0.0538
  153POPC   C2B 2147   5.819   9.596   6.579 -0.3182 -0.0051  0.0855
  153POPC   C3B 2148   5.684   9.663   6.164  0.1886 -0.2444  0.0357
  153POPC   C4B 2149   5.636   9.673   5.708  0.0201 -0.0832  0.0015
  154POPC   NC3 2150   0.304   8.153   7.781 -0.0469 -0.0100 -0.0974
  154POPC   PO4 2151   0.231   8.534   7.583 -0.1678  0.3311  0.1976
  154POPC   GL1 2152   0.439   8.293   7.334  0.1349 -0.2031  0.1897
  154POPC   GL2 2153   0.374   7.885   7.382 -0.2336 -0.0604  0.0721
  154POPC   C1A 2154   0.583   8.349   6.845 -0.0627 -0.1846 -0.3019
  154POPC   D2A 2155   0.527   8.499   6.395 -0.1272 -0.0014  0.0450
  154POPC   C3A 2156   0.503   8.501   5.971 -0.1005 -0.2675  0.3625
  154POPC   C4A 2157   0.800   8.362   5.647 -0.0919  0.0118  0.0485
  154POPC   C1B 2158   0.603   7.872   7.101 -0.0888 -0.2980  0.0179
  154POPC   C2B 2159   0.738   7.725   6.746  0.2959  0.0387  0.0896
  154POPC   C3B 2160   0.740   8.042   6.439 -0.2686  0.0651 -0.0840
  154POPC   C4B 2161   0.729   8.049   6.023 -0.0089  0.2342  0.2713
  155POPC   NC3 2162   9.829   0.997   7.551 -0.3018  0.1073 -0.1508
  155POPC   PO4 2163   9.387   0.677   7.450  0.1861  0.0848 -0.0188
  155POPC   GL1 2164   9.646   1.002   7.100 -0.2835 -0.5469 -0.4227
  155POPC   GL2 2165   9.696   1.367   7.049 -0.1494 -0.3427  0.1710
  155POPC   C1A 2166   9.464   0.927   6.684 -0.0971 -0.1719  0.1749
  155POPC   D2A 2167   9.172   0.737   6.479 -0.0453 -0.1200  0.1514
  155POPC   C3A 2168   9.104   0.702   6.051  0.3695  0.1781  0.0128
  155POPC   C4A 2169   9.347   0.760   5.736 -0.0903  0.0652  0.3362
  155POPC   C1B 2170   9.818   1.289   6.596  0.1269  0.0739 -0.4070
  155POPC   C2B 2171  10.038   1.012   6.297  0.2584 -0.0113 -0.1891
  155POPC   C3B 2172  10.253   0.818   6.174  0.0681  0.2139 -0.0636
  155POPC   C4B 2173  10.708   0.606   6.318 -0.0973  0.0528 -0.1314
  156POPC   NC3 2174   3.359   2.865   7.942  0.1110  0.0804  0.2243
  156POPC   PO4 2175   3.275   2.464   7.579 -0.2587  0.0474  0.2819
  156POPC   GL1 2176   3.450   2.244   7.223  0.2890 -0.5294  0.1839
  156POPC   GL2 2177   3.676   1.967   7.246  0.2776  0.0080  0.0532
  156POPC   C1A 2178   3.587   2.526   6.905 -0.0550 -0.0793 -0.0204
  156POPC   D2A 2179   3.810   2.436   6.502  0.0229 -0.1137 -0.0714
  156POPC   C3A 2180   3.582   2.717   6.207 -0.0808 -0.2326 -0.1802
  156POPC   C4A 2181   3.178   2.823   5.965 -0.1931 -0.0364  0.0450
  156POPC   C1B 2182   3.733   2.078   6.835 -0.0476  0.0796 -0.1420
  156POPC   C2B 2183   3.994   1.944   6.411 -0.1370 -0.3670  0.1005
  156POPC   C3B 2184   4.417   1.843   6.474 -0.3161  0.2411 -0.0825
  156POPC   C4B 2185   4.544   1.651   6.685 -0.0885 -0.0848 -0.0996
  157POPC   NC3 2186   2.701   6.401   9.065  0.0702 -0.1565 -0.5534
  157POPC   PO4 2187   2.749   6.809   8.789 -0.0846  0.2373  0.1529
  157POPC   GL1 2188   2.915   6.883   8.311  0.0350  0.3866 -0.1580
  157POPC   GL2 2189   2.605   6.774   8.090  0.0003  0.3229  0.0029
  157POPC   C1A 2190   3.069   6.616   8.064  0.1039 -0.0853 -0.3446
  157POPC   D2A 2191   2.944   6.432   7.840 -0.1800 -0.1518  0.1041
  157POPC   C3A 2192   3.076   6.132   7.891 -0.1908 -0.3185 -0.2036
  157POPC   C4A 2193   3.104   5.649   7.953  0.3441  0.0281 -0.4521
  157POPC   C1B 2194   2.738   6.932   7.715 -0.2022 -0.2262 -0.0054
  157POPC   C2B 2195   2.916   7.058   7.321 -0.0831 -0.2602 -0.1605
  157POPC   C3B 2196   3.172   6.769   7.157 -0.2385 -0.1793  0.2603
  157POPC   C4B 2197   3.175   6.693   6.696  0.0652  0.1687 -0.2908
  158POPC   NC3 2198   0.081   6.512   8.743 -0.0890  0.2892  0.1383
  158POPC   PO4 2199  -0.002   6.495   8.139 -0.3335  0.2583  0.0132
  158POPC   GL1 2200   0.002   6.476   7.688  0.0518 -0.4916  0.1090
  158POPC   GL2 2201   0.249   6.474   7.498 -0.5138 -0.0128 -0.1054
  158POPC   C1A 2202  -0.303   6.293   7.359  0.5838  0.0926 -0.0296
  158POPC   D2A 2203  -0.403   6.369   6.921  0.3619 -0.3240 -0.1474
  158POPC   C3A 2204  -0.437   6.049   6.580  0.1184  0.1623 -0.1421
  158POPC   C4A 2205  -0.483   5.915   6.173 -0.1025  0.2369  0.2174
  158POPC   C1B 2206   0.176   6.544   7.042 -0.1276 -0.0802  0.0246
  158POPC   C2B 2207   0.061   6.312   6.595 -0.0240  0.0732 -0.1100
  158POPC   C3B 2208   0.036   6.051   6.192 -0.4081  0.3147 -0.1131
  158POPC   C4B 2209   0.053   5.773   5.860 -0.1569 -0.1693  0.0228
  159POPC   NC3 2210   1.253   5.005   8.930 -0.0468  0.0433  0.0170
  159POPC   PO4 2211   0.993   4.734   8.670 -0.0465 -0.1638  0.0833
  159POPC   GL1 2212   1.049   4.742   8.227 -0.0400 -0.0314  0.4181
  159POPC   GL2 2213   0.847   4.646   8.009 -0.0893  0.1842 -0.2084
  159POPC   C1A 2214   1.402   4.661   7.954 -0.0439 -0.0475 -0.0819
  159POPC   D2A 2215   1.764   4.908   7.706  0.0631  0.2320 -0.1428
  159POPC   C3A 2216   2.135   4.907   7.841 -0.1783  0.2039 -0.0844
  159POPC   C4A 2217   2.375   5.167   8.082 -0.0337  0.1913 -0.1467
  159POPC   C1B 2218   0.585   4.540   7.623  0.0759  0.2017  0.1578
  159POPC   C2B 2219   0.529   4.333   7.151  0.0339 -0.4277 -0.0203
  159POPC   C3B 2220   0.562   4.411   6.717 -0.0600 -0.2417  0.2853
  159POPC   C4B 2221   0.624   4.215   6.312 -0.1917  0.1716  0.4388
  160POPC   NC3 2222   2.498   0.310   7.762  0.1384  0.0228 -0.3401
  160POPC   PO4 2223   2.452   0.460   7.323  0.1154 -0.1999 -0.0658
  160POPC   GL1 2224   2.713   0.441   6.967  0.0836  0.1771  0.3159
  160POPC   GL2 2225   2.930   0.525   7.072  0.3999 -0.2345 -0.1374
  160POPC   C1A 2226   2.615   0.600   6.585  0.1157 -0.2241 -0.0756
  160POPC   D2A 2227   2.601   0.612   6.152  0.0775 -0.0204 -0.3726
  160POPC   C3A 2228   2.739   0.914   5.875  0.1872 -0.2039  0.1073
  160POPC   C4A 2229   2.889   1.126   5.528 -0.1174 -0.0353 -0.5501
  160POPC   C1B 2230   3.131   0.474   6.566  0.0581  0.1492 -0.0779
  160POPC   C2B 2231   3.103   0.755   6.171 -0.0902 -0.4348  0.1250
  160POPC   C3B 2232   3.300   1.085   5.909 -0.1181  0.3139  0.1899
  160POPC   C4B 2233   3.179   1.455   5.783 -0.1717  0.0032 -0.1721
  161POPC   NC3 2234   4.936   1.090   8.057  0.2795  0.2802  0.2391
  161POPC   PO4 2235   4.925   0.617   7.749 -0.0509 -0.0730  0.0563
  161POPC   GL1 2236   5.002   0.847   7.478 -0.0313 -0.0967 -0.0630
  161POPC   GL2 2237   4.728   0.926   7.332  0.1792  0.0640  0.0710
  161POPC   C1A 2238   5.139   1.042   7.097 -0.1320 -0.1078  0.0448
  161POPC   D2A 2239   5.083   1.331   6.796 -0.0284 -0.0058 -0.0911
  161POPC   C3A 2240   5.088   1.219   6.438  0.0408 -0.0556 -0.0282
  161POPC   C4A 2241   4.786   0.997   6.181 -0.1866  0.3104 -0.0431
  161POPC   C1B 2242   4.550   1.144   6.881  0.1125  0.1080 -0.3514
  161POPC   C2B 2243   4.479   1.243   6.435  0.1680 -0.2490 -0.1646
  161POPC   C3B 2244   4.272   1.519   6.131  0.0965  0.0847  0.0189
  161POPC   C4B 2245   4.115   1.914   5.913  0.1290 -0.1034 -0.2861
  162POPC   NC3 2246   7.336   9.442   7.418  0.3731  0.2227  0.1677
  162POPC   PO4 2247   7.231   9.044   7.553 -0.0860 -0.1209 -0.0429
  162POPC   GL1 2248   7.549   8.972   7.280 -0.0287  0.0669 -0.1496
  162POPC   GL2 2249   7.365   9.135   7.004 -0.2467 -0.1459  0.0051
  162POPC   C1A 2250   7.856   8.972   6.946 -0.0284  0.1204  0.2301
  162POPC   D2A 2251   8.225   8.854   6.708 -0.1299  0.0663 -0.2633
  162POPC   C3A 2252   8.460   9.231   6.488  0.0748 -0.2048 -0.1002
  162POPC   C4A 2253   8.511   9.533   6.157  0.0340 -0.1641 -0.0987
  162POPC   C1B 2254   7.430   9.080   6.626 -0.1418  0.3746 -0.0134
  162POPC   C2B 2255   7.635   9.142   6.272  0.1852  0.3617 -0.0162
  162POPC   C3B 2256   7.470   9.302   5.859 -0.0470 -0.0330 -0.1726
  162POPC   C4B 2257   7.080   9.509   5.750 -0.2461  0.1524  0.2208
  163POPC   NC3 2258   2.399  10.602   7.366  0.0729 -0.2439 -0.1447
  163POPC   PO4 2259   2.718  10.714   7.347  0.0389  0.2303  0.1514
  163POPC   GL1 2260   2.845  10.500   6.981  0.0320 -0.1184 -0.1100
  163POPC   GL2 2261   2.844  10.220   6.793 -0.2842  0.2342  0.1080
  163POPC   C1A 2262   2.752  10.709   6.562  0.1507  0.2166  0.0081
  163POPC   D2A 2263   2.401  10.860   6.364 -0.0387 -0.1548  0.0627
  163POPC   C3A 2264   2.159  10.961   6.643 -0.3439 -0.1993  0.0977
  163POPC   C4A 2265   1.664  10.966   6.671  0.0314  0.3211  0.0303
  163POPC   C1B 2266   2.893   9.852   6.477 -0.0002  0.0151 -0.2215
  163POPC   C2B 2267   2.837   9.774   6.009 -0.0526  0.0247  0.1978
  163POPC   C3B 2268   2.966   9.588   5.680 -0.1109  0.0596 -0.1370
  163POPC   C4B 2269   2.994   9.804   5.353  0.0488  0.0284  0.0118
  164POPC   NC3 2270  10.080   8.713   7.746 -0.2116  0.5495 -0.0765
  164POPC   PO4 2271  10.422   8.374   7.760  0.0568  0.0133  0.1690
  164POPC   GL1 2272  10.148   8.372   7.372  0.2379  0.1357 -0.2695
  164POPC   GL2 2273   9.863   8.141   7.341 -0.1527 -0.0907  0.1064
  164POPC   C1A 2274   9.969   8.524   6.949 -0.0881  0.0223 -0.1056
  164POPC   D2A 2275   9.761   8.255   6.581  0.1035  0.2744 -0.2061
  164POPC   C3A 2276   9.961   7.932   6.305 -0.0774 -0.2332 -0.0066
  164POPC   C4A 2277  10.258   7.813   6.008 -0.0169 -0.2263 -0.1439
  164POPC   C1B 2278   9.782   8.061   7.000  0.2331 -0.0150 -0.2573
  164POPC   C2B 2279   9.840   7.702   6.722 -0.1824  0.0834 -0.1117
  164POPC   C3B 2280   9.581   7.648   6.408  0.0062  0.1219 -0.1553
  164POPC   C4B 2281   9.838   7.447   6.022 -0.1255 -0.3452  0.0395
  165POPC   NC3 2282   7.926   5.746   8.127  0.0257 -0.2166  0.3791
  165POPC   PO4 2283   8.283   5.945   8.171 -0.0952  0.1823  0.1160
  165POPC   GL1 2284   8.275   5.887   7.703 -0.1758  0.1467  0.0392
  165POPC   GL2 2285   8.323   5.566   7.507 -0.0801 -0.2447 -0.2208
  165POPC   C1A 2286   8.133   5.948   7.197 -0.2097 -0.2037  0.1721
  165POPC   D2A 2287   8.269   5.922   6.793 -0.0506 -0.4262  0.4279
  165POPC   C3A 2288   7.900   5.769   6.549  0.0876  0.1190 -0.1426
  165POPC   C4A 2289   7.771   5.364   6.287 -0.0385 -0.2810  0.0969
  165POPC   C1B 2290   8.404   5.529   7.061 -0.0390 -0.3651 -0.1463
  165POPC   C2B 2291   8.164   5.239   6.749 -0.1062 -0.0747 -0.1746
  165POPC   C3B 2292   8.167   5.118   6.323 -0.2852 -0.0494 -0.1796
  165POPC   C4B 2293   8.102   4.971   5.892  0.0161 -0.0037  0.0157
  166POPC   NC3 2294   6.160   3.587   7.682 -0.2818 -0.1550  0.2398
  166POPC   PO4 2295   5.825   3.236   7.759  0.0756  0.0413  0.1045
  166POPC   GL1 2296   5.680   3.206   7.307  0.0383 -0.1804 -0.0202
  166POPC   GL2 2297   5.922   3.434   7.103  0.0592  0.0236  0.0308
  166POPC   C1A 2298   5.477   3.381   6.926 -0.1655  0.2940  0.0291
  166POPC   D2A 2299   5.221   3.472   6.489 -0.4064  0.0930 -0.1194
  166POPC   C3A 2300   4.890   3.422   6.364 -0.0617 -0.0786  0.1164
  166POPC   C4A 2301   4.564   3.411   6.011  0.1588 -0.2414 -0.1528
  166POPC   C1B 2302   5.869   3.643   6.721 -0.4431  0.0084 -0.1361
  166POPC   C2B 2303   6.094   3.880   6.617  0.0561 -0.0828 -0.2048
  166POPC   C3B 2304   6.365   3.821   6.337 -0.1763 -0.0219 -0.2587
  166POPC   C4B 2305   6.619   3.476   6.217 -0.0262 -0.0048 -0.2735
  167POPC   NC3 2306   5.095   0.059   8.324  0.1254  0.2987 -0.0119
  167POPC   PO4 2307   5.270   0.183   7.776  0.0617 -0.2781 -0.2544
  167POPC   GL1 2308   5.034   0.322   7.348 -0.0096 -0.0808  0.1821
  167POPC   GL2 2309   5.354   0.215   7.266 -0.0377 -0.2182  0.0545
  167POPC   C1A 2310   4.857   0.064   7.052 -0.0349  0.1033 -0.3581
  167POPC   D2A 2311   4.455   0.131   6.816 -0.1570  0.0537  0.2133
  167POPC   C3A 2312   4.386   0.384   6.548  0.1064 -0.0688  0.1488
  167POPC   C4A 2313   4.698   0.729   6.554  0.1003  0.0360  0.1412
  167POPC   C1B 2314   5.294   0.195   6.819 -0.0376 -0.2176 -0.2478
  167POPC   C2B 2315   5.546   0.287   6.431  0.0052 -0.0969 -0.0322
  167POPC   C3B 2316   5.761   0.665   6.049  0.1419 -0.1374 -0.3703
  167POPC   C4B 2317   6.025   0.825   5.754 -0.0200 -0.0508  0.1404
  168POPC   NC3 2318   7.178   0.222   7.444  0.2895 -0.0915  0.0590
  168POPC   PO4 2319   7.545   0.532   7.582  0.0050  0.3903  0.0063
  168POPC   GL1 2320   7.498   0.626   7.164  0.0765 -0.1132  0.1413
  168POPC   GL2 2321   7.367   0.334   6.987  0.2020  0.1349  0.0956
  168POPC   C1A 2322   7.660   0.812   6.796  0.1454 -0.0789 -0.1845
  168POPC   D2A 2323   7.793   1.084   6.367 -0.0583 -0.1378 -0.0402
  168POPC   C3A 2324   7.425   1.290   6.048 -0.1216 -0.0537  0.1859
  168POPC   C4A 2325   7.084   1.236   5.849  0.1287  0.0944  0.4846
  168POPC   C1B 2326   7.484   0.029   6.693 -0.1923 -0.0685 -0.1218
  168POPC   C2B 2327   7.334   0.048   6.381 -0.0109  0.0419  0.0545
  168POPC   C3B 2328   7.400   0.382   5.992 -0.1053  0.2389 -0.2819
  168POPC   C4B 2329   7.412   0.526   5.520 -0.0012  0.1425  0.0083
  169POPC   NC3 2330   3.044   9.056   8.118  0.0445  0.2395 -0.1380
  169POPC   PO4 2331   3.227   9.269   7.648  0.2439  0.2467  0.0689
  169POPC   GL1 2332   2.891   9.267   7.335  0.0562  0.0010  0.0499
  169POPC   GL2 2333   3.058   9.132   7.056 -0.1633  0.1599  0.2162
  169POPC   C1A 2334   2.599   8.949   7.020 -0.0345  0.0324  0.0252
  169POPC   D2A 2335   2.442   8.775   6.624  0.1387 -0.0692 -0.1852
  169POPC   C3A 2336   2.499   8.294   6.742 -0.0111  0.2709 -0.2971
  169POPC   C4A 2337   2.536   7.868   6.692  0.0092  0.1186 -0.3617
  169POPC   C1B 2338   3.121   9.326   6.673 -0.1910  0.2036  0.0487
  169POPC   C2B 2339   3.232   9.572   6.231  0.0557  0.3902  0.0907
  169POPC   C3B 2340   3.369   9.779   5.854  0.1445  0.2134 -0.0236
  169POPC   C4B 2341   3.529  10.034   5.734  0.0380 -0.0595  0.0875
  170POPC   NC3 2342   6.361   2.640   7.654  0.0237  0.0063 -0.1200
  170POPC   PO4 2343   6.751   2.856   7.701 -0.1872 -0.1090 -0.2199
  170POPC   GL1 2344   6.813   2.888   7.321  0.1530 -0.1499  0.2148
  170POPC   GL2 2345   6.996   3.135   7.153  0.1507  0.1831 -0.3724
  170POPC   C1A 2346   6.508   2.915   6.983  0.0477  0.1533 -0.3966
  170POPC   D2A 2347   6.569   3.004   6.513 -0.1750 -0.0444  0.0761
  170POPC   C3A 2348   6.519   3.016   6.030  0.1812 -0.0270  0.2390
  170POPC   C4A 2349   6.179   3.275   5.834 -0.0018  0.0242  0.1519
  170POPC   C1B 2350   6.907   3.573   7.283  0.1044 -0.2344  0.2395
  170POPC   C2B 2351   6.836   3.930   6.997  0.4297 -0.0466 -0.0463
  170POPC   C3B 2352   6.834   3.819   6.631  0.2742  0.1274  0.2258
  170POPC   C4B 2353   7.175   3.630   6.390  0.1643 -0.0419 -0.1676
  171POPC   NC3 2354   3.081   6.102   9.476  0.1719 -0.1418  0.0199
  171POPC   PO4 2355   2.948   5.855   9.146  0.3040  0.1821  0.1779
  171POPC   GL1 2356   2.897   6.019   8.697 -0.0009  0.2009  0.1264
  171POPC   GL2 2357   3.250   6.013   8.684  0.1750 -0.1131  0.1672
  171POPC   C1A 2358   2.808   5.921   8.294  0.1897 -0.0568  0.2441
  171POPC   D2A 2359   2.563   5.620   7.947 -0.1221 -0.1516 -0.1072
  171POPC   C3A 2360   2.350   5.675   7.575 -0.4290 -0.5596  0.0050
  171POPC   C4A 2361   1.886   5.713   7.507  0.2212 -0.0979 -0.2280
  171POPC   C1B 2362   3.162   5.666   8.486  0.1209 -0.0561 -0.2832
  171POPC   C2B 2363   3.275   5.262   8.264 -0.2257  0.2189  0.0697
  171POPC   C3B 2364   3.334   5.170   7.831  0.3548 -0.0056  0.0004
  171POPC   C4B 2365   3.273   5.425   7.526  0.0493  0.0422 -0.1000
  172POPC   NC3 2366   8.021   0.216   7.586  0.1570  0.1163  0.2819
  172POPC   PO4 2367   8.094   0.650   7.753 -0.0492 -0.1865 -0.1036
  172POPC   GL1 2368   8.159   0.577   7.240  0.0049 -0.1321  0.0600
  172POPC   GL2 2369   8.498   0.719   7.242  0.0851  0.4970 -0.3260
  172POPC   C1A 2370   8.339   0.545   6.781  0.0826 -0.4030 -0.0315
  172POPC   D2A 2371   8.113   0.802   6.591 -0.0143  0.0805  0.1588
  172POPC   C3A 2372   7.999   0.668   6.175 -0.0421  0.1467 -0.1114
  172POPC   C4A 2373   7.892   0.387   5.960  0.1027 -0.2075  0.1277
  172POPC   C1B 2374   8.747   0.333   7.036  0.0337 -0.4216 -0.0900
  172POPC   C2B 2375   8.990   0.319   6.803  0.1947  0.0946  0.2281
  172POPC   C3B 2376   9.134   0.020   6.582 -0.0902 -0.0650  0.0488
  172POPC   C4B 2377   9.000  -0.224   6.251 -0.1461  0.2364  0.1545
  173POPC   NC3 2378   8.154   8.047   7.838  0.0364 -0.0330 -0.1050
  173POPC   PO4 2379   7.746   7.776   8.025 -0.1407  0.1815  0.0139
  173POPC   GL1 2380   7.715   7.790   7.608  0.0267 -0.1324  0.1536
  173POPC   GL2 2381   8.013   7.596   7.605 -0.1357 -0.0979  0.1303
  173POPC   C1A 2382   7.547   7.974   7.255 -0.3572  0.0047 -0.0270
  173POPC   D2A 2383   7.725   7.980   6.826  0.1379  0.0346  0.2725
  173POPC   C3A 2384   8.023   7.816   6.490  0.0437 -0.0863 -0.0135
  173POPC   C4A 2385   8.405   7.683   6.315  0.1065 -0.0174  0.1386
  173POPC   C1B 2386   7.832   7.577   7.178  0.0627  0.0012 -0.2445
  173POPC   C2B 2387   8.067   7.423   6.831  0.2704  0.0072  0.0298
  173POPC   C3B 2388   8.068   7.322   6.450 -0.0670 -0.4759 -0.0219
  173POPC   C4B 2389   8.369   7.228   6.112 -0.0688  0.0445  0.1982
  174POPC   NC3 2390   3.262  10.447   3.996  0.4185  0.2953  0.3069
  174POPC   PO4 2391   3.390  10.953   3.789 -0.4275 -0.0226 -0.1508
  174POPC   GL1 2392   3.187  11.054   4.211 -0.2346  0.1629  0.0430
  174POPC   GL2 2393   2.931  10.760   4.268 -0.0268  0.0487 -0.0543
  174POPC   C1A 2394   3.190  11.327   4.597 -0.1315  0.1334 -0.0128
  174POPC   D2A 2395   3.011  11.457   4.980  0.2536  0.2936 -0.3283
  174POPC   C3A 2396   2.686  11.091   5.200 -0.2630 -0.0958 -0.0460
  174POPC   C4A 2397   2.425  10.836   5.431 -0.1550  0.0935  0.0881
  174POPC   C1B 2398   3.065  10.872   4.737 -0.1711  0.0904  0.0310
  174POPC   C2B 2399   3.187  10.748   5.176  0.0756  0.3130  0.1136
  174POPC   C3B 2400   3.313  10.580   5.574 -0.0148  0.0080  0.0451
  174POPC   C4B 2401   3.347  10.405   5.965 -0.0429  0.1726  0.1516
  175POPC   NC3 2402   4.013   7.565   3.658  0.2461 -0.2515 -0.0226
  175POPC   PO4 2403   3.642   7.441   3.552  0.1328 -0.0026 -0.3563
  175POPC   GL1 2404   3.597   7.503   4.019 -0.1495  0.0781  0.1980
  175POPC   GL2 2405   3.636   7.849   4.197 -0.0518 -0.3134  0.0459
  175POPC   C1A 2406   3.878   7.369   4.375  0.3042  0.2698 -0.2572
  175POPC   D2A 2407   4.022   7.191   4.805  0.0266  0.0448 -0.1335
  175POPC   C3A 2408   4.197   6.763   4.622 -0.0815 -0.1448 -0.3155
  175POPC   C4A 2409   3.900   6.404   4.703  0.4799 -0.1150 -0.1932
  175POPC   C1B 2410   3.883   7.850   4.514 -0.0089  0.1224 -0.3448
  175POPC   C2B 2411   4.156   7.644   4.792  0.2875 -0.0558 -0.0391
  175POPC   C3B 2412   4.438   7.731   5.166 -0.0926  0.1592  0.1459
  175POPC   C4B 2413   4.578   7.351   5.419 -0.0610 -0.0248 -0.0316
  176POPC   NC3 2414   2.830   7.759   3.785  0.0624 -0.1790 -0.0447
  176POPC   PO4 2415   2.489   7.874   3.549 -0.1818 -0.0525  0.1705
  176POPC   GL1 2416   2.443   8.038   3.977 -0.1464  0.2383  0.0175
  176POPC   GL2 2417   2.525   7.888   4.237  0.1197 -0.1255  0.3102
  176POPC   C1A 2418   2.274   8.369   4.288  0.0616  0.1830 -0.2182
  176POPC   D2A 2419   2.598   8.515   4.699 -0.0467  0.3009 -0.2033
  176POPC   C3A 2420   2.606   8.366   5.228  0.2502  0.1134 -0.0432
  176POPC   C4A 2421   2.593   8.227   5.655  0.1304 -0.0934  0.4543
  176POPC   C1B 2422   2.225   7.912   4.517 -0.2118  0.0932 -0.0937
  176POPC   C2B 2423   2.109   8.178   4.830 -0.2064 -0.2250 -0.2651
  176POPC   C3B 2424   2.158   8.262   5.363 -0.1490  0.2229  0.1485
  176POPC   C4B 2425   2.191   8.664   5.643 -0.3427  0.0361 -0.1479
  177POPC   NC3 2426   7.930   0.305   3.941  0.1702 -0.2320 -0.0943
  177POPC   PO4 2427   7.511   0.357   3.856  0.2479 -0.0797  0.5301
  177POPC   GL1 2428   7.191   0.517   4.225  0.0395  0.0209  0.2522
  177POPC   GL2 2429   6.906   0.637   4.159  0.0188  0.2913  0.3861
  177POPC   C1A 2430   7.304   0.576   4.720  0.1485  0.0964 -0.1374
  177POPC   D2A 2431   7.402   0.334   5.048 -0.2084  0.2982  0.0510
  177POPC   C3A 2432   7.122   0.191   5.369  0.3855  0.2838  0.1119
  177POPC   C4A 2433   6.994   0.132   5.827  0.1716 -0.0260 -0.0807
  177POPC   C1B 2434   6.830   0.715   4.507 -0.0269  0.1074 -0.0818
  177POPC   C2B 2435   6.593   0.919   4.919  0.2192 -0.1256  0.2712
  177POPC   C3B 2436   6.200   1.107   4.864  0.0820 -0.0577  0.1460
  177POPC   C4B 2437   5.898   1.359   4.878  0.0553 -0.1430  0.2230
  178POPC   NC3 2438   3.937   6.695   3.951 -0.1215 -0.0572 -0.4182
  178POPC   PO4 2439   3.624   7.019   3.855  0.1114  0.0564 -0.2689
  178POPC   GL1 2440   3.567   6.972   4.267  0.0663  0.1725 -0.1064
  178POPC   GL2 2441   3.355   7.214   4.447 -0.0907 -0.3350  0.1425
  178POPC   C1A 2442   3.599   6.877   4.689 -0.0932  0.0265 -0.1342
  178POPC   D2A 2443   3.724   6.807   5.126  0.0114  0.1843  0.1784
  178POPC   C3A 2444   3.626   6.324   5.198 -0.0296  0.3549 -0.1447
  178POPC   C4A 2445   3.325   6.072   5.194  0.0702 -0.2315  0.0764
  178POPC   C1B 2446   3.513   7.400   4.767 -0.1654  0.0990 -0.4747
  178POPC   C2B 2447   3.703   7.286   5.191 -0.0764  0.2234 -0.0119
  178POPC   C3B 2448   3.525   6.954   5.553  0.0989  0.0108  0.0198
  178POPC   C4B 2449   3.163   6.752   5.848 -0.2808 -0.2360 -0.1573
  179POPC   NC3 2450   2.814   9.455   3.440  0.0941  0.2110  0.1697
  179POPC   PO4 2451   2.363   9.428   3.538 -0.3378 -0.0084  0.0946
  179POPC   GL1 2452   2.298   9.553   3.962 -0.1949 -0.1634 -0.2646
  179POPC   GL2 2453   2.354   9.896   4.136 -0.1729 -0.1600  0.2627
  179POPC   C1A 2454   2.344   9.378   4.440 -0.0170  0.2309  0.0518
  179POPC   D2A 2455   2.425   9.089   4.944 -0.1247 -0.0522  0.3274
  179POPC   C3A 2456   1.997   9.069   4.942  0.2340  0.2530  0.1436
  179POPC   C4A 2457   1.590   9.268   4.713  0.0221 -0.0852 -0.0411
  179POPC   C1B 2458   2.196  10.047   4.529  0.0651  0.1602 -0.2595
  179POPC   C2B 2459   1.871  10.158   4.959 -0.0988 -0.0981  0.1049
  179POPC   C3B 2460   1.809  10.136   5.367  0.1193  0.0335  0.1029
  179POPC   C4B 2461   2.132  10.276   5.486 -0.0099 -0.3969  0.1435
  180POPC   NC3 2462   5.085   8.949   4.027 -0.0013 -0.1829 -0.0558
  180POPC   PO4 2463   4.818   9.269   3.868  0.1870  0.3591 -0.1297
  180POPC   GL1 2464   4.677   9.336   4.184  0.1831  0.1798 -0.1264
  180POPC   GL2 2465   4.605   9.050   4.293 -0.0728  0.0754 -0.3453
  180POPC   C1A 2466   4.795   9.494   4.675  0.3977  0.2382  0.2261
  180POPC   D2A 2467   5.200   9.656   4.900  0.1345  0.0343 -0.0817
  180POPC   C3A 2468   5.246  10.138   4.881  0.2711 -0.0359 -0.0375
  180POPC   C4A 2469   5.162  10.584   4.911 -0.1149  0.0607  0.1706
  180POPC   C1B 2470   4.695   8.918   4.752 -0.1200  0.0091 -0.3227
  180POPC   C2B 2471   4.892   8.706   5.202  0.0997 -0.0767 -0.0693
  180POPC   C3B 2472   4.780   8.610   5.561 -0.1138 -0.3439 -0.2869
  180POPC   C4B 2473   4.726   8.493   5.951  0.2690 -0.1952 -0.0011
  181POPC   NC3 2474   4.032   6.526   3.376 -0.1183 -0.1936 -0.2775
  181POPC   PO4 2475   3.619   6.620   3.570 -0.1510  0.1048  0.2128
  181POPC   GL1 2476   3.429   6.589   3.893 -0.1609 -0.0898  0.0389
  181POPC   GL2 2477   3.165   6.425   3.794 -0.1204  0.1189 -0.1945
  181POPC   C1A 2478   3.487   6.446   4.386  0.0449  0.0940 -0.0877
  181POPC   D2A 2479   3.418   6.432   4.774  0.1819  0.2386 -0.0569
  181POPC   C3A 2480   3.229   6.608   5.144  0.0851 -0.0786 -0.2122
  181POPC   C4A 2481   2.928   6.643   5.377 -0.0618  0.0664  0.0849
  181POPC   C1B 2482   2.992   6.051   3.806  0.1941 -0.0107  0.0593
  181POPC   C2B 2483   3.049   5.626   4.063 -0.1538 -0.2334  0.3925
  181POPC   C3B 2484   3.385   5.358   4.039 -0.2908 -0.1337 -0.2846
  181POPC   C4B 2485   3.479   5.040   3.791  0.3312 -0.2061  0.2021
  182POPC   NC3 2486   8.981   7.356   4.016  0.1446  0.2583  0.3120
  182POPC   PO4 2487   9.202   6.942   4.021 -0.0405  0.2469 -0.2729
  182POPC   GL1 2488   9.066   7.009   4.420  0.2308  0.2390  0.0933
  182POPC   GL2 2489   8.949   6.753   4.597 -0.1543 -0.2698 -0.0066
  182POPC   C1A 2490   9.324   7.281   4.741  0.0754  0.0293 -0.1133
  182POPC   D2A 2491   9.709   7.563   4.590  0.0710 -0.0877 -0.1444
  182POPC   C3A 2492   9.658   7.889   4.941 -0.0624 -0.0147 -0.0136
  182POPC   C4A 2493   9.565   8.171   5.117 -0.1751  0.0417  0.0360
  182POPC   C1B 2494   9.130   6.945   5.057  0.5006  0.0421 -0.0466
  182POPC   C2B 2495   8.974   7.110   5.405  0.2277  0.2221  0.1278
  182POPC   C3B 2496   8.541   7.160   5.600  0.1196 -0.0108  0.1336
  182POPC   C4B 2497   8.142   7.092   5.653  0.1259 -0.2243  0.0216
  183POPC   NC3 2498   7.978   9.179   3.751 -0.1637 -0.0082  0.3504
  183POPC   PO4 2499   7.940   9.568   4.037  0.0396  0.2730 -0.0693
  183POPC   GL1 2500   7.916   9.831   4.387 -0.0426  0.0333  0.1308
  183POPC   GL2 2501   7.752  10.147   4.360 -0.0091 -0.1614 -0.0462
  183POPC   C1A 2502   8.092   9.901   4.703  0.0366 -0.2170  0.1704
  183POPC   D2A 2503   8.195   9.912   5.125  0.0136 -0.0411 -0.4342
  183POPC   C3A 2504   8.140   9.556   5.238 -0.1387 -0.4162  0.1349
  183POPC   C4A 2505   8.351   9.424   4.898 -0.2432 -0.0992  0.1234
  183POPC   C1B 2506   7.836  10.471   4.684  0.0793  0.0270 -0.1676
  183POPC   C2B 2507   7.924  10.832   4.902 -0.0444 -0.1152  0.1014
  183POPC   C3B 2508   8.266  10.961   5.148 -0.2010  0.1176 -0.1985
  183POPC   C4B 2509   8.257  11.410   5.266  0.1156 -0.2018  0.2326
  184POPC   NC3 2510   7.419   5.070   3.574 -0.3914  0.0959 -0.0146
  184POPC   PO4 2511   7.543   5.576   3.608  0.3091  0.2603  0.4715
  184POPC   GL1 2512   7.541   5.462   4.082 -0.1149 -0.2073 -0.3341
  184POPC   GL2 2513   7.489   5.091   4.114 -0.3289  0.0645 -0.2389
  184POPC   C1A 2514   7.274   5.348   4.495  0.0057 -0.1550 -0.2891
  184POPC   D2A 2515   7.102   5.565   4.871 -0.1158 -0.0389 -0.0546
  184POPC   C3A 2516   7.128   5.297   5.220 -0.0543  0.1031 -0.1539
  184POPC   C4A 2517   7.233   5.148   5.580 -0.3594 -0.0932 -0.0311
  184POPC   C1B 2518   7.767   5.057   4.512 -0.2579  0.1552  0.0040
  184POPC   C2B 2519   8.065   5.053   4.911  0.2833  0.3289  0.1492
  184POPC   C3B 2520   8.191   5.126   5.395 -0.0969  0.0711  0.0760
  184POPC   C4B 2521   8.502   5.182   5.580 -0.3343  0.4696 -0.5525
  185POPC   NC3 2522   4.264  10.486   3.931  0.1750  0.0374 -0.0656
  185POPC   PO4 2523   3.990  10.177   3.861  0.0364 -0.2259 -0.1519
  185POPC   GL1 2524   4.205   9.915   4.235 -0.0759 -0.2539  0.0814
  185POPC   GL2 2525   4.485  10.107   4.328  0.1916 -0.1196  0.1234
  185POPC   C1A 2526   4.306   9.750   4.565 -0.0980 -0.1017 -0.2419
  185POPC   D2A 2527   4.280   9.789   4.928 -0.2292 -0.1980  0.0895
  185POPC   C3A 2528   4.365  10.148   5.246  0.1110 -0.1210 -0.2038
  185POPC   C4A 2529   4.307  10.632   5.242 -0.1770  0.0744  0.0940
  185POPC   C1B 2530   4.279  10.347   4.708 -0.0408  0.2253 -0.0824
  185POPC   C2B 2531   3.889  10.491   4.763 -0.1404  0.2761  0.0337
  185POPC   C3B 2532   3.429  10.362   4.864  0.2670 -0.0101  0.1372
  185POPC   C4B 2533   3.408  10.116   5.297  0.1657  0.1001  0.0587
  186POPC   NC3 2534   0.532   5.347   3.538  0.0419 -0.1944  0.1815
  186POPC   PO4 2535   0.244   5.480   3.778  0.2660 -0.4506 -0.0540
  186POPC   GL1 2536   0.197   5.631   4.230  0.1016  0.2235  0.1825
  186POPC   GL2 2537  -0.033   5.805   4.340 -0.0900  0.2453  0.2844
  186POPC   C1A 2538   0.362   5.490   4.594 -0.0969 -0.2645  0.1277
  186POPC   D2A 2539   0.287   5.189   4.933 -0.2653  0.2169 -0.1618
  186POPC   C3A 2540   0.397   5.223   5.346 -0.2138  0.0081 -0.1619
  186POPC   C4A 2541   0.350   5.329   5.749 -0.4257  0.1222  0.0794
  186POPC   C1B 2542  -0.234   6.197   4.525 -0.1115  0.0981  0.2431
  186POPC   C2B 2543  -0.290   6.369   4.946 -0.2857  0.1826  0.0342
  186POPC   C3B 2544  -0.370   6.539   5.351  0.2266 -0.0481 -0.1639
  186POPC   C4B 2545  -0.774   6.562   5.511  0.2982 -0.0984 -0.0087
  187POPC   NC3 2546   6.140   6.447   3.218 -0.2027  0.0265  0.0796
  187POPC   PO4 2547   6.319   6.294   3.616 -0.0757  0.1536 -0.3587
  187POPC   GL1 2548   6.192   6.268   4.185  0.1320 -0.0230  0.2903
  187POPC   GL2 2549   6.394   5.972   4.335  0.1548 -0.0459 -0.2055
  187POPC   C1A 2550   6.268   6.412   4.653 -0.0392 -0.3995 -0.0109
  187POPC   D2A 2551   6.306   6.215   5.020  0.2302 -0.1568 -0.2564
  187POPC   C3A 2552   6.283   6.383   5.357 -0.0414  0.0159 -0.1529
  187POPC   C4A 2553   6.439   6.670   5.643 -0.0957  0.0269  0.0995
  187POPC   C1B 2554   6.046   5.957   4.656  0.1564  0.1398  0.0558
  187POPC   C2B 2555   5.706   5.772   4.896 -0.1873  0.3572  0.0598
  187POPC   C3B 2556   5.508   5.615   5.192 -0.2016  0.1399 -0.0252
  187POPC   C4B 2557   5.426   5.400   5.554 -0.1213  0.3235  0.0004
  188POPC   NC3 2558   5.552   0.831   4.219 -0.0263  0.0386  0.2761
  188POPC   PO4 2559   5.271   1.004   3.920 -0.0866 -0.1358  0.2120
  188POPC   GL1 2560   4.995   0.932   4.179 -0.1174 -0.0636  0.3457
  188POPC   GL2 2561   4.679   0.815   4.054  0.0680 -0.2678 -0.1804
  188POPC   C1A 2562   5.008   0.993   4.580 -0.2051  0.0376 -0.3896
  188POPC   D2A 2563   5.416   1.019   4.800  0.1779 -0.0503 -0.0280
  188POPC   C3A 2564   5.464   1.095   5.223  0.1135 -0.1177  0.0736
  188POPC   C4A 2565   5.340   1.341   5.470 -0.3737 -0.1466  0.0035
  188POPC   C1B 2566   4.683   0.550   4.381 -0.0187  0.2494 -0.2745
  188POPC   C2B 2567   4.586   0.624   4.808  0.5115 -0.1064 -0.0350
  188POPC   C3B 2568   4.726   0.915   5.139 -0.0101 -0.1635  0.0341
  188POPC   C4B 2569   5.016   0.958   5.539 -0.1366  0.2257  0.2058
  189POPC   NC3 2570   9.711   6.673   3.959 -0.0080  0.2876 -0.1244
  189POPC   PO4 2571   9.261   6.418   3.919 -0.0970 -0.2401  0.1973
  189POPC   GL1 2572   9.401   6.555   4.333 -0.2624  0.0907 -0.0304
  189POPC   GL2 2573   9.691   6.442   4.412 -0.4645 -0.0543  0.1296
  189POPC   C1A 2574   9.339   6.503   4.791 -0.1619  0.0103  0.1242
  189POPC   D2A 2575   9.406   6.295   5.205 -0.0095 -0.1154 -0.3196
  189POPC   C3A 2576   9.367   6.485   5.622  0.0168  0.0554  0.0832
  189POPC   C4A 2577   9.634   6.657   5.953  0.2562  0.1092  0.0241
  189POPC   C1B 2578   9.869   6.535   4.822 -0.1085 -0.1634  0.0429
  189POPC   C2B 2579   9.679   6.791   5.047  0.0426  0.2888 -0.0572
  189POPC   C3B 2580   9.487   7.042   5.444 -0.1737  0.0623 -0.0932
  189POPC   C4B 2581   9.324   7.417   5.665  0.1011 -0.2514  0.0711
  190POPC   NC3 2582   4.550   6.109   3.850 -0.1458  0.0005 -0.0158
  190POPC   PO4 2583   4.311   6.443   3.793 -0.0543  0.0486  0.1188
  190POPC   GL1 2584   4.472   6.499   4.128  0.0768 -0.1955 -0.0252
  190POPC   GL2 2585   4.314   6.350   4.345 -0.1170  0.0233 -0.0478
  190POPC   C1A 2586   4.672   6.697   4.488  0.0901 -0.0163  0.1220
  190POPC   D2A 2587   4.871   6.767   4.865  0.2507 -0.1886 -0.2240
  190POPC   C3A 2588   4.793   6.896   5.299  0.0078 -0.0566  0.3050
  190POPC   C4A 2589   4.852   6.790   5.772  0.5087 -0.2200 -0.0226
  190POPC   C1B 2590   4.424   6.368   4.781 -0.2534 -0.0553  0.2611
  190POPC   C2B 2591   4.560   6.488   5.141  0.1492  0.1605 -0.1114
  190POPC   C3B 2592   4.501   6.502   5.517  0.0620  0.0410  0.0032
  190POPC   C4B 2593   4.433   6.388   5.900 -0.1836  0.4664 -0.1029
  191POPC   NC3 2594   1.631   2.022   3.717 -0.2058  0.1578 -0.3309
  191POPC   PO4 2595   1.601   1.612   3.915 -0.2536 -0.1669  0.1606
  191POPC   GL1 2596   1.652   1.444   4.441 -0.2390 -0.2119 -0.0725
  191POPC   GL2 2597   1.355   1.561   4.607  0.3031  0.0909 -0.0810
  191POPC   C1A 2598   1.843   1.461   4.833 -0.0988 -0.1159 -0.0057
  191POPC   D2A 2599   1.605   1.384   5.160  0.4923  0.0373 -0.1958
  191POPC   C3A 2600   1.441   1.295   5.665  0.0708  0.1495  0.0978
  191POPC   C4A 2601   1.076   1.330   5.854  0.0180 -0.1364 -0.1261
  191POPC   C1B 2602   1.359   1.770   4.904  0.0693 -0.0595 -0.3094
  191POPC   C2B 2603   1.179   2.119   5.233  0.2166  0.2146 -0.4192
  191POPC   C3B 2604   1.272   2.342   5.539  0.1541  0.1291 -0.1037
  191POPC   C4B 2605   1.352   2.690   5.741  0.0235  0.0740  0.1766
  192POPC   NC3 2606   9.122   2.975   3.649  0.2591  0.1963  0.2913
  192POPC   PO4 2607   9.534   2.864   3.804  0.0180  0.0098 -0.3222
  192POPC   GL1 2608   9.355   2.793   4.136 -0.1034  0.1174  0.1351
  192POPC   GL2 2609   9.010   2.973   4.296  0.2778  0.2050  0.1254
  192POPC   C1A 2610   9.323   2.522   4.375 -0.0600 -0.0027 -0.1154
  192POPC   D2A 2611   9.127   2.429   4.760  0.0957  0.3340 -0.0797
  192POPC   C3A 2612   9.153   2.767   5.066 -0.1390 -0.0501  0.2387
  192POPC   C4A 2613   8.822   3.145   5.192  0.1601  0.0719 -0.1801
  192POPC   C1B 2614   8.747   3.066   4.618  0.1456 -0.1448 -0.0910
  192POPC   C2B 2615   8.398   3.078   4.942 -0.0176  0.0335  0.0287
  192POPC   C3B 2616   8.323   3.167   5.390  0.1551  0.2458  0.1072
  192POPC   C4B 2617   8.230   3.444   5.788  0.2166 -0.0436 -0.2410
  193POPC   NC3 2618   8.795   1.291   3.475  0.2262  0.1306 -0.2522
  193POPC   PO4 2619   9.266   1.422   3.539 -0.1067  0.2476 -0.0365
  193POPC   GL1 2620   9.289   1.516   3.893  0.0292  0.2055  0.0018
  193POPC   GL2 2621   9.474   1.431   4.134  0.1034  0.0810 -0.0712
  193POPC   C1A 2622   9.011   1.694   4.203 -0.0244 -0.0097  0.0089
  193POPC   D2A 2623   8.718   1.424   4.411  0.1212  0.2997  0.1037
  193POPC   C3A 2624   8.604   1.058   4.716 -0.2146  0.4115  0.1747
  193POPC   C4A 2625   8.692   0.783   4.989  0.1554 -0.1077 -0.1155
  193POPC   C1B 2626   9.169   1.191   4.416  0.2848 -0.0546 -0.2594
  193POPC   C2B 2627   9.191   0.957   4.711  0.0799  0.0185  0.0891
  193POPC   C3B 2628   9.556   0.782   4.930  0.0537 -0.1199  0.2349
  193POPC   C4B 2629   9.735   0.926   5.361  0.1164  0.1661 -0.1203
  194POPC   NC3 2630   6.294   9.819   4.276  0.4376 -0.0258  0.0665
  194POPC   PO4 2631   6.073  10.148   4.182  0.1099 -0.0184 -0.0331
  194POPC   GL1 2632   5.946  10.054   4.638 -0.2891 -0.3830 -0.0950
  194POPC   GL2 2633   6.203   9.908   4.873 -0.0145  0.0969  0.2820
  194POPC   C1A 2634   5.733   9.970   4.949 -0.1139 -0.1157 -0.1900
  194POPC   D2A 2635   5.490   9.798   5.293 -0.1386  0.0690  0.0427
  194POPC   C3A 2636   5.488   9.413   5.289 -0.0125  0.0971 -0.1673
  194POPC   C4A 2637   5.638   9.142   5.474  0.0171 -0.0126  0.2046
  194POPC   C1B 2638   6.426   9.758   5.249  0.0765 -0.0415 -0.2987
  194POPC   C2B 2639   6.387   9.640   5.576 -0.1278  0.1120 -0.1923
  194POPC   C3B 2640   6.071   9.394   5.691  0.0112  0.3221  0.1270
  194POPC   C4B 2641   6.039   9.237   6.146  0.1985 -0.0793  0.2307
  195POPC   NC3 2642   9.472   8.542   3.618  0.1319 -0.2374 -0.0009
  195POPC   PO4 2643   9.363   8.588   4.062  0.1225 -0.0863 -0.0352
  195POPC   GL1 2644   9.363   8.900   4.380  0.1393 -0.0204  0.2292
  195POPC   GL2 2645   9.150   8.900   4.475  0.2557  0.0084 -0.5116
  195POPC   C1A 2646   9.235   9.251   4.746  0.2245 -0.2894 -0.2200
  195POPC   D2A 2647   9.105   9.114   5.144 -0.1422 -0.0097 -0.0130
  195POPC   C3A 2648   9.262   9.110   5.559  0.0557  0.1987  0.1554
  195POPC   C4A 2649   9.609   9.036   5.807 -0.0076 -0.1719 -0.0461
  195POPC   C1B 2650   9.065   8.730   4.854 -0.2802  0.0719  0.1158
  195POPC   C2B 2651   9.197   8.631   5.241 -0.0963 -0.0501 -0.0860
  195POPC   C3B 2652   9.316   8.515   5.585 -0.0886  0.0696 -0.0793
  195POPC   C4B 2653   9.059   8.191   5.878  0.0425  0.1173 -0.4601
  196POPC   NC3 2654   2.330   1.360   3.718 -0.5238 -0.0074  0.0556
  196POPC   PO4 2655   2.118   1.725   3.654 -0.2833 -0.1278  0.0071
  196POPC   GL1 2656   2.108   1.811   4.069 -0.0619  0.3643  0.4471
  196POPC   GL2 2657   1.889   1.862   4.305 -0.0514 -0.0240 -0.1270
  196POPC   C1A 2658   2.182   1.512   4.526  0.2406  0.0033  0.1429
  196POPC   D2A 2659   2.337   1.268   4.946 -0.1319 -0.1715 -0.3158
  196POPC   C3A 2660   2.005   1.069   5.163 -0.2650 -0.1945  0.1560
  196POPC   C4A 2661   1.857   1.154   5.519 -0.1422  0.2122  0.1871
  196POPC   C1B 2662   1.815   1.926   4.686  0.0272  0.1251 -0.1455
  196POPC   C2B 2663   1.651   2.207   5.025 -0.0329  0.0032  0.0936
  196POPC   C3B 2664   1.750   2.556   5.355 -0.2901  0.1554 -0.3599
  196POPC   C4B 2665   1.761   2.974   5.487 -0.0170  0.1638 -0.0386
  197POPC   NC3 2666   3.618   0.074   4.225 -0.1994 -0.2269  0.1480
  197POPC   PO4 2667   3.965   0.253   3.926 -0.2563 -0.3071  0.1240
  197POPC   GL1 2668   4.138   0.156   4.306  0.1645 -0.0160  0.1046
  197POPC   GL2 2669   4.236   0.581   4.419  0.3906 -0.1553  0.0773
  197POPC   C1A 2670   4.226   0.235   4.807 -0.1749 -0.2673 -0.0123
  197POPC   D2A 2671   4.141   0.456   5.161  0.0256  0.0805  0.0739
  197POPC   C3A 2672   4.511   0.557   5.463 -0.0296  0.0162 -0.0629
  197POPC   C4A 2673   4.696   0.600   5.900  0.0808 -0.1158  0.0440
  197POPC   C1B 2674   3.937   0.674   4.704  0.0051  0.4160 -0.1028
  197POPC   C2B 2675   3.761   0.762   5.132 -0.2280  0.0199 -0.0631
  197POPC   C3B 2676   3.418   0.637   5.276  0.1109  0.5135 -0.3620
  197POPC   C4B 2677   3.143   0.672   5.563  0.0815 -0.1750  0.0663
  198POPC   NC3 2678   5.489   5.769   3.723 -0.3492  0.1303 -0.1070
  198POPC   PO4 2679   5.263   5.530   4.039 -0.1138 -0.2024 -0.0351
  198POPC   GL1 2680   5.313   5.612   4.427 -0.1680  0.0133 -0.3278
  198POPC   GL2 2681   5.463   5.378   4.645 -0.2138  0.0939  0.1192
  198POPC   C1A 2682   5.059   5.733   4.741 -0.1909  0.0457  0.0562
  198POPC   D2A 2683   5.049   5.540   5.198  0.1200 -0.4035 -0.1023
  198POPC   C3A 2684   5.021   5.774   5.480 -0.0276  0.1459  0.1408
  198POPC   C4A 2685   5.224   5.778   5.875  0.1266  0.2343 -0.2998
  198POPC   C1B 2686   5.576   5.019   4.866 -0.1055 -0.1895 -0.1952
  198POPC   C2B 2687   5.620   4.755   5.138  0.0549 -0.1384 -0.1318
  198POPC   C3B 2688   5.853   4.484   5.264 -0.4489  0.1728  0.0205
  198POPC   C4B 2689   5.926   4.169   5.570 -0.1271 -0.1772  0.2590
  199POPC   NC3 2690   4.579   5.511   3.924 -0.1861  0.1495 -0.1301
  199POPC   PO4 2691   4.389   5.348   3.559  0.1338 -0.0285  0.0985
  199POPC   GL1 2692   4.228   5.120   4.001 -0.1938  0.2290 -0.1003
  199POPC   GL2 2693   4.336   5.317   4.294 -0.2471  0.1182  0.0114
  199POPC   C1A 2694   3.937   5.041   4.226  0.1369 -0.0768 -0.0509
  199POPC   D2A 2695   3.936   4.870   4.626 -0.5809 -0.2177 -0.2297
  199POPC   C3A 2696   3.711   4.674   4.994 -0.2987 -0.2417  0.1703
  199POPC   C4A 2697   3.604   4.791   5.373  0.1431  0.0405  0.0321
  199POPC   C1B 2698   4.166   5.391   4.739 -0.0404 -0.2352 -0.0826
  199POPC   C2B 2699   4.180   5.517   5.147  0.0980 -0.2671  0.1392
  199POPC   C3B 2700   4.523   5.575   5.552 -0.0153 -0.1190  0.3596
  199POPC   C4B 2701   4.808   5.439   5.906  0.0519  0.1594 -0.0149
  200POPC   NC3 2702   6.239  10.542   3.921  0.3049 -0.0750 -0.1387
  200POPC   PO4 2703   5.762  10.719   3.911 -0.0630 -0.1206  0.1015
  200POPC   GL1 2704   5.847  10.585   4.330  0.2961 -0.0541 -0.0026
  200POPC   GL2 2705   6.061  10.691   4.418  0.2636  0.1940  0.0691
  200POPC   C1A 2706   5.681  10.482   4.858  0.1959 -0.0074  0.1201
  200POPC   D2A 2707   5.626  10.309   5.278  0.3259  0.0121  0.4625
  200POPC   C3A 2708   5.178  10.180   5.410 -0.3599  0.2313 -0.2893
  200POPC   C4A 2709   4.823  10.038   5.527 -0.0261 -0.1039 -0.1071
  200POPC   C1B 2710   6.143  10.723   4.853  0.1215 -0.1722  0.0838
  200POPC   C2B 2711   5.997  10.783   5.232  0.1795  0.2025  0.1756
  200POPC   C3B 2712   5.873  10.890   5.666  0.2590  0.2208 -0.3208
  200POPC   C4B 2713   5.962  10.846   6.161 -0.2635  0.0924 -0.0097
  201POPC   NC3 2714   2.540   9.937   3.635  0.2664  0.0469  0.0395
  201POPC   PO4 2715   2.922  10.160   3.775 -0.2388 -0.4696 -0.0559
  201POPC   GL1 2716   2.932  10.144   4.254  0.0109  0.0820  0.0642
  201POPC   GL2 2717   3.219  10.348   4.451 -0.0579 -0.3049 -0.1359
  201POPC   C1A 2718   2.674  10.354   4.569  0.1729 -0.3332  0.0319
  201POPC   D2A 2719   2.694  10.600   5.010  0.1359 -0.0146  0.3222
  201POPC   C3A 2720   2.831  10.404   5.383 -0.3017 -0.0073 -0.1644
  201POPC   C4A 2721   3.049  10.142   5.686  0.1754  0.0951 -0.2264
  201POPC   C1B 2722   3.244   9.940   4.536  0.0950  0.0013  0.2270
  201POPC   C2B 2723   3.247   9.754   4.946 -0.1435  0.0447 -0.0394
  201POPC   C3B 2724   3.481   9.635   5.305  0.1709  0.1473  0.2785
  201POPC   C4B 2725   3.405   9.356   5.523 -0.0357  0.1312 -0.0121
  202POPC   NC3 2726   5.652   9.745   4.262  0.2295 -0.1145 -0.0071
  202POPC   PO4 2727   5.538   9.472   4.561  0.1341 -0.1043 -0.1177
  202POPC   GL1 2728   5.834   9.439   4.786  0.2034  0.2197  0.0569
  202POPC   GL2 2729   6.050   9.534   4.571  0.2121  0.0259  0.1477
  202POPC   C1A 2730   5.954   9.566   5.166 -0.0645 -0.3006 -0.0574
  202POPC   D2A 2731   6.022   9.946   5.463  0.1250  0.1033 -0.1224
  202POPC   C3A 2732   6.021   9.968   5.892  0.0051  0.0285  0.1704
  202POPC   C4A 2733   6.210   9.688   6.123  0.1382 -0.2416  0.1848
  202POPC   C1B 2734   6.325   9.313   4.880 -0.1755  0.0158 -0.0972
  202POPC   C2B 2735   6.559   9.179   5.292  0.0698 -0.1219  0.0127
  202POPC   C3B 2736   6.619   9.235   5.730  0.1179 -0.2362 -0.0817
  202POPC   C4B 2737   6.715   9.572   6.036  0.0604 -0.1968 -0.1528
  203POPC   NC3 2738   8.886   5.514   4.003  0.0865  0.2736  0.0026
  203POPC   PO4 2739   8.534   5.322   4.100 -0.0592  0.3279 -0.1357
  203POPC   GL1 2740   8.718   5.271   4.560  0.2862 -0.2715  0.0386
  203POPC   GL2 2741   8.810   5.003   4.669  0.0253  0.3078 -0.3335
  203POPC   C1A 2742   9.061   5.350   4.954 -0.3307  0.1103 -0.2741
  203POPC   D2A 2743   8.960   5.456   5.447 -0.0436  0.2716  0.0992
  203POPC   C3A 2744   9.304   5.572   5.824  0.1040  0.1503 -0.0283
  203POPC   C4A 2745   9.664   5.748   6.073 -0.1534 -0.2000 -0.2066
  203POPC   C1B 2746   8.620   5.081   5.090  0.1138  0.1800  0.2104
  203POPC   C2B 2747   8.617   4.701   5.391  0.2937 -0.0955 -0.2155
  203POPC   C3B 2748   8.621   4.683   5.729  0.2367 -0.2225 -0.1710
  203POPC   C4B 2749   8.933   4.633   6.074  0.0162  0.1853 -0.0202
  204POPC   NC3 2750   3.163   3.786   3.235  0.1683  0.2908  0.0328
  204POPC   PO4 2751   2.941   3.756   3.572 -0.2312  0.2346 -0.0901
  204POPC   GL1 2752   2.846   3.702   3.979  0.0938 -0.1061 -0.1023
  204POPC   GL2 2753   2.512   3.689   4.029 -0.2017  0.1597 -0.0089
  204POPC   C1A 2754   2.812   3.801   4.402  0.0985 -0.5706 -0.0684
  204POPC   D2A 2755   2.498   3.952   4.671 -0.0067  0.0818 -0.1645
  204POPC   C3A 2756   2.376   3.741   4.928 -0.1110  0.0830 -0.2292
  204POPC   C4A 2757   2.553   3.581   5.306  0.0077  0.2107 -0.3746
  204POPC   C1B 2758   2.274   3.445   4.355 -0.1381  0.0082 -0.0788
  204POPC   C2B 2759   1.766   3.413   4.448  0.0359 -0.0329 -0.1441
  204POPC   C3B 2760   1.626   3.135   4.662 -0.1036 -0.0840 -0.3590
  204POPC   C4B 2761   1.472   3.107   5.081  0.0203  0.0160 -0.0616
  205POPC   NC3 2762   3.871   9.538   3.363 -0.0771 -0.0150 -0.0250
  205POPC   PO4 2763   4.206   9.332   3.597 -0.0852 -0.1628  0.0788
  205POPC   GL1 2764   4.111   9.259   4.098  0.1771  0.6220 -0.2947
  205POPC   GL2 2765   3.996   8.943   4.204 -0.0052 -0.0449  0.2958
  205POPC   C1A 2766   4.234   9.243   4.548 -0.0926  0.0813 -0.0854
  205POPC   D2A 2767   4.409   9.259   4.979 -0.0259 -0.0301  0.1504
  205POPC   C3A 2768   4.283   9.471   5.394  0.2517 -0.0856  0.2617
  205POPC   C4A 2769   4.327   9.871   5.710 -0.2798 -0.1060  0.0725
  205POPC   C1B 2770   4.185   8.752   4.622  0.0410 -0.1602  0.1039
  205POPC   C2B 2771   4.254   8.619   4.986  0.1197 -0.0188  0.1390
  205POPC   C3B 2772   4.404   8.777   5.300 -0.2140  0.0102 -0.0614
  205POPC   C4B 2773   4.305   8.907   5.659 -0.1536  0.0051 -0.0416
  206POPC   NC3 2774   8.321   4.376   4.286 -0.1343 -0.2485  0.1332
  206POPC   PO4 2775   8.720   4.551   4.279 -0.1893 -0.0565 -0.1294
  206POPC   GL1 2776   8.895   4.376   4.640 -0.0404  0.2049  0.4248
  206POPC   GL2 2777   8.844   4.039   4.814 -0.0377 -0.0720 -0.3086
  206POPC   C1A 2778   8.986   4.447   5.156  0.2522  0.0377 -0.0110
  206POPC   D2A 2779   9.001   4.444   5.569  0.1974  0.3258 -0.0340
  206POPC   C3A 2780   9.122   4.032   5.545  0.0206 -0.2286 -0.0284
  206POPC   C4A 2781   9.040   3.771   5.169  0.0009  0.3386 -0.0993
  206POPC   C1B 2782   8.636   4.120   5.336  0.3703 -0.1273 -0.1317
  206POPC   C2B 2783   8.443   4.234   5.630 -0.2444 -0.1685  0.0824
  206POPC   C3B 2784   8.107   4.422   5.632 -0.0179 -0.0666 -0.3112
  206POPC   C4B 2785   7.712   4.336   5.443 -0.0758  0.0077  0.0541
  207POPC   NC3 2786   5.861   0.935   3.814 -0.1998  0.1378  0.1794
  207POPC   PO4 2787   5.781   1.246   3.821 -0.0145 -0.1864 -0.0663
  207POPC   GL1 2788   6.027   1.290   4.180  0.0234  0.0761  0.2936
  207POPC   GL2 2789   6.063   1.042   4.272  0.2878  0.0163  0.2864
  207POPC   C1A 2790   6.275   1.444   4.414 -0.4316 -0.0446 -0.1645
  207POPC   D2A 2791   6.633   1.264   4.449 -0.3971 -0.2319 -0.1807
  207POPC   C3A 2792   6.848   1.410   4.915 -0.3163 -0.1195  0.0543
  207POPC   C4A 2793   7.135   1.439   5.269 -0.1505  0.0559  0.1682
  207POPC   C1B 2794   5.959   0.731   4.653  0.0030  0.0100 -0.0151
  207POPC   C2B 2795   5.830   0.670   5.092 -0.0634  0.1073  0.4338
  207POPC   C3B 2796   5.619   0.645   5.384  0.0860  0.3194  0.1488
  207POPC   C4B 2797   5.520   0.927   5.726 -0.1329 -0.0492  0.2597
  208POPC   NC3 2798   1.858   9.203   3.587  0.0595  0.1539 -0.2449
  208POPC   PO4 2799   1.504   9.401   3.819 -0.0280 -0.0553 -0.0096
  208POPC   GL1 2800   1.794   9.338   4.130 -0.2049 -0.3148  0.2565
  208POPC   GL2 2801   1.793   9.647   4.236  0.3994 -0.0611 -0.2513
  208POPC   C1A 2802   1.888   9.011   4.386 -0.1674 -0.3620 -0.0784
  208POPC   D2A 2803   2.001   8.646   4.675 -0.0312 -0.0456  0.0071
  208POPC   C3A 2804   2.176   8.640   5.068 -0.3502  0.0127 -0.2340
  208POPC   C4A 2805   2.497   8.818   5.343  0.3353  0.0715  0.2174
  208POPC   C1B 2806   1.932   9.611   4.689 -0.1350  0.1534 -0.0051
  208POPC   C2B 2807   2.147   9.733   5.068 -0.0956  0.1251  0.2728
  208POPC   C3B 2808   2.175   9.678   5.477 -0.2937  0.1044  0.1673
  208POPC   C4B 2809   2.394   9.607   5.786 -0.1132  0.3282 -0.1530
  209POPC   NC3 2810   4.588   4.043   3.799  0.1497 -0.1460 -0.1010
  209POPC   PO4 2811   4.894   4.134   4.018  0.3125  0.0801 -0.0818
  209POPC   GL1 2812   4.585   4.348   4.316  0.0625 -0.2151 -0.0860
  209POPC   GL2 2813   4.728   4.156   4.542 -0.0492 -0.2576  0.4146
  209POPC   C1A 2814   4.330   4.519   4.551  0.1279 -0.5000 -0.3332
  209POPC   D2A 2815   4.268   4.448   4.995  0.0538 -0.2235  0.0709
  209POPC   C3A 2816   4.308   4.598   5.253 -0.0940 -0.2169  0.1264
  209POPC   C4A 2817   4.183   4.732   5.694 -0.1020  0.2555 -0.1684
  209POPC   C1B 2818   4.624   3.842   4.496 -0.1823  0.0123  0.0494
  209POPC   C2B 2819   4.547   3.868   4.957 -0.1299  0.1393  0.1157
  209POPC   C3B 2820   4.261   3.974   5.276  0.2659  0.0822 -0.0419
  209POPC   C4B 2821   3.935   3.730   5.521 -0.2478  0.2630 -0.4328
  210POPC   NC3 2822  10.208   8.706   3.206 -0.0475 -0.0634 -0.1055
  210POPC   PO4 2823   9.893   8.808   3.615  0.1942 -0.2731 -0.0948
  210POPC   GL1 2824   9.805   8.946   4.054 -0.1967 -0.2067 -0.0606
  210POPC   GL2 2825   9.808   8.713   4.327  0.1214  0.1323  0.0095
  210POPC   C1A 2826   9.756   9.263   4.423  0.0239 -0.2379 -0.1275
  210POPC   D2A 2827   9.469   9.692   4.528 -0.1543 -0.0412  0.1768
  210POPC   C3A 2828   9.560  10.162   4.729  0.1061  0.1850 -0.1824
  210POPC   C4A 2829   9.493  10.599   4.517  0.2084 -0.0751 -0.0743
  210POPC   C1B 2830  10.084   8.814   4.672 -0.3459 -0.1420  0.1964
  210POPC   C2B 2831  10.061   9.096   5.092  0.0488 -0.0249 -0.1015
  210POPC   C3B 2832  10.264   9.044   5.499 -0.2261 -0.0245 -0.0167
  210POPC   C4B 2833  10.070   9.207   5.887 -0.3727  0.0537  0.2517
  211POPC   NC3 2834   7.588   6.409   4.088  0.0392  0.2291  0.0154
  211POPC   PO4 2835   7.197   6.352   3.927  0.1863  0.0619 -0.2879
  211POPC   GL1 2836   7.019   6.152   4.337  0.0823  0.2669  0.3477
  211POPC   GL2 2837   7.084   5.825   4.400  0.2453  0.2136  0.3793
  211POPC   C1A 2838   6.829   6.288   4.666 -0.1233 -0.3171 -0.1477
  211POPC   D2A 2839   7.046   6.719   4.835 -0.0461  0.2002  0.1457
  211POPC   C3A 2840   7.506   6.715   4.915  0.1114 -0.0698 -0.5156
  211POPC   C4A 2841   7.839   6.876   5.141  0.0460  0.0153 -0.3702
  211POPC   C1B 2842   7.245   6.018   4.770  0.2210 -0.0450  0.0177
  211POPC   C2B 2843   7.218   6.127   5.143  0.1122  0.1870  0.0664
  211POPC   C3B 2844   7.007   5.951   5.472 -0.0760 -0.0264  0.2042
  211POPC   C4B 2845   6.915   5.639   5.564  0.5400 -0.1095 -0.0982
  212POPC   NC3 2846   1.753   0.708   3.691  0.0599 -0.1431 -0.0351
  212POPC   PO4 2847   1.529   0.315   3.636  0.2002  0.3245  0.0650
  212POPC   GL1 2848   1.474   0.365   4.023 -0.0059 -0.3374 -0.0444
  212POPC   GL2 2849   1.641   0.036   4.256  0.2502  0.0443  0.1957
  212POPC   C1A 2850   1.460   0.714   4.340 -0.0117  0.0299  0.1415
  212POPC   D2A 2851   1.238   0.616   4.745 -0.1151  0.2157 -0.1468
  212POPC   C3A 2852   0.883   0.870   4.956 -0.2982 -0.2750 -0.3182
  212POPC   C4A 2853   0.392   1.038   4.922  0.0922  0.1699 -0.3096
  212POPC   C1B 2854   1.395   0.245   4.507  0.1708  0.0331 -0.1603
  212POPC   C2B 2855   1.046   0.042   4.833 -0.1934  0.0497  0.0185
  212POPC   C3B 2856   1.044  -0.118   5.209  0.0862  0.1889 -0.0663
  212POPC   C4B 2857   0.771  -0.503   5.308 -0.4273 -0.0591 -0.3088
  213POPC   NC3 2858   9.812   7.944   3.768  0.1349  0.0792  0.0236
  213POPC   PO4 2859   9.922   7.623   3.760  0.1021  0.1436 -0.1968
  213POPC   GL1 2860   9.792   7.784   4.188  0.1247 -0.4627 -0.0352
  213POPC   GL2 2861  10.095   7.781   4.302 -0.0989 -0.0028  0.0919
  213POPC   C1A 2862   9.754   8.167   4.487 -0.0748 -0.1103  0.1455
  213POPC   D2A 2863   9.577   8.571   4.762  0.2126  0.2149  0.1053
  213POPC   C3A 2864   9.646   8.954   4.874 -0.0442 -0.2844  0.0738
  213POPC   C4A 2865   9.735   9.426   4.890 -0.0372  0.1025 -0.3775
  213POPC   C1B 2866  10.191   7.746   4.735 -0.1915  0.1102 -0.3904
  213POPC   C2B 2867  10.040   7.739   5.186 -0.1161  0.1856 -0.1037
  213POPC   C3B 2868  10.025   8.078   5.481  0.2157 -0.1179  0.0575
  213POPC   C4B 2869   9.759   8.333   5.737  0.2088 -0.0839 -0.2210
  214POPC   NC3 2870   1.436  10.106   3.535 -0.1978  0.2191 -0.0608
  214POPC   PO4 2871   1.707  10.495   3.401  0.1711 -0.1124 -0.2991
  214POPC   GL1 2872   1.835  10.372   3.859  0.3674  0.3010  0.1125
  214POPC   GL2 2873   1.706  10.204   4.119  0.0715 -0.2931 -0.1126
  214POPC   C1A 2874   2.126  10.463   4.180 -0.2330 -0.0007 -0.1695
  214POPC   D2A 2875   2.012  10.658   4.574  0.2349 -0.2340  0.0707
  214POPC   C3A 2876   2.225  10.451   4.777 -0.3370 -0.2458 -0.1408
  214POPC   C4A 2877   2.428  10.120   5.089  0.0411 -0.0068  0.1661
  214POPC   C1B 2878   1.693  10.060   4.470 -0.0995  0.0340 -0.1741
  214POPC   C2B 2879   1.469   9.787   4.685 -0.1438  0.0231 -0.0037
  214POPC   C3B 2880   1.174   9.546   4.897  0.1990 -0.3743  0.0293
  214POPC   C4B 2881   1.251   9.405   5.406 -0.0116 -0.3428  0.4401
  215POPC   NC3 2882   1.226   2.489   3.278  0.0506  0.2692 -0.0851
  215POPC   PO4 2883   1.224   2.269   3.637  0.2458 -0.1654 -0.0278
  215POPC   GL1 2884   1.177   2.521   4.084 -0.1375  0.0786  0.0049
  215POPC   GL2 2885   0.921   2.553   4.204 -0.2127  0.2866 -0.1511
  215POPC   C1A 2886   1.499   2.889   4.250  0.3545  0.1920  0.0071
  215POPC   D2A 2887   1.956   2.935   4.325  0.0042  0.2515 -0.0096
  215POPC   C3A 2888   2.307   2.902   4.569  0.1339 -0.0871  0.1089
  215POPC   C4A 2889   2.458   2.752   4.855 -0.1954 -0.3361  0.1543
  215POPC   C1B 2890   0.705   2.449   4.691 -0.0018  0.0661 -0.0387
  215POPC   C2B 2891   0.772   2.418   5.176 -0.0449 -0.1732  0.3441
  215POPC   C3B 2892   0.711   2.273   5.561  0.0884  0.1909 -0.0674
  215POPC   C4B 2893   0.275   2.323   5.808  0.2629 -0.3553  0.0407
  216POPC   NC3 2894   1.174   1.617   4.151  0.1531 -0.0023 -0.0398
  216POPC   PO4 2895   1.302   2.042   4.059 -0.0727 -0.4248  0.3653
  216POPC   GL1 2896   1.443   2.189   4.362 -0.0095  0.1660 -0.3581
  216POPC   GL2 2897   1.680   2.501   4.496 -0.0159 -0.1718 -0.0963
  216POPC   C1A 2898   1.227   2.372   4.770  0.1087 -0.0692 -0.2607
  216POPC   D2A 2899   1.285   2.648   5.159 -0.1090 -0.0702 -0.1228
  216POPC   C3A 2900   1.006   2.801   5.399 -0.1372 -0.2034 -0.7245
  216POPC   C4A 2901   1.071   3.107   5.708 -0.3312  0.1199 -0.1210
  216POPC   C1B 2902   1.823   2.662   4.770  0.1601 -0.1456  0.0640
  216POPC   C2B 2903   2.024   2.975   5.035  0.0341  0.1647  0.3650
  216POPC   C3B 2904   2.157   3.313   4.810  0.1365 -0.2761  0.0293
  216POPC   C4B 2905   2.048   3.818   4.581 -0.2056  0.0220 -0.1930
  217POPC   NC3 2906   1.008   0.376   3.686  0.2874  0.3233 -0.0107
  217POPC   PO4 2907   0.483   0.361   3.736  0.0877 -0.1203  0.0052
  217POPC   GL1 2908   0.652   0.214   4.089  0.0045  0.3589  0.0987
  217POPC   GL2 2909   1.000   0.180   4.173 -0.1681  0.3618 -0.3125
  217POPC   C1A 2910   0.646   0.248   4.545 -0.0677 -0.0122 -0.0353
  217POPC   D2A 2911   0.561   0.490   4.972  0.2398 -0.2546  0.0812
  217POPC   C3A 2912   0.826   0.377   5.266 -0.0621 -0.0954 -0.3548
  217POPC   C4A 2913   1.191   0.184   5.575  0.0480  0.2266 -0.0767
  217POPC   C1B 2914   0.971   0.550   4.363  0.3729 -0.2935 -0.0460
  217POPC   C2B 2915   0.677   0.802   4.512  0.0129 -0.0575 -0.2099
  217POPC   C3B 2916   0.283   0.615   4.504 -0.0205  0.0768  0.4505
  217POPC   C4B 2917  -0.223   0.549   4.467 -0.0549  0.1844  0.0439
  218POPC   NC3 2918   9.590   4.681   3.835  0.0248 -0.1835  0.3848
  218POPC   PO4 2919   9.488   4.303   3.910 -0.3818  0.3091  0.2623
  218POPC   GL1 2920   9.359   4.211   4.387  0.0932  0.0670  0.3637
  218POPC   GL2 2921   9.611   4.170   4.478 -0.2852 -0.2976  0.3148
  218POPC   C1A 2922   9.308   4.215   4.885  0.0473 -0.0240  0.0001
  218POPC   D2A 2923   9.472   4.341   5.321  0.2350  0.1069 -0.1454
  218POPC   C3A 2924   9.771   4.266   5.669  0.3862  0.1202  0.0730
  218POPC   C4A 2925  10.023   4.223   5.921 -0.0850 -0.1811 -0.0900
  218POPC   C1B 2926   9.808   4.165   4.789  0.0886 -0.0295  0.1439
  218POPC   C2B 2927   9.877   4.138   5.195 -0.0469  0.0617  0.0503
  218POPC   C3B 2928  10.031   3.840   5.584  0.0219 -0.1360  0.1432
  218POPC   C4B 2929  10.220   3.499   5.795 -0.1937  0.5627 -0.0810
  219POPC   NC3 2930   8.429   6.648   3.476 -0.1635 -0.2979 -0.2281
  219POPC   PO4 2931   8.395   6.596   3.920 -0.1584 -0.1349  0.2637
  219POPC   GL1 2932   8.505   6.684   4.449 -0.1011 -0.1266  0.2965
  219POPC   GL2 2933   8.540   6.475   4.648 -0.1425 -0.1580  0.1943
  219POPC   C1A 2934   8.591   6.943   4.890  0.1363 -0.1543 -0.1271
  219POPC   D2A 2935   8.443   6.734   5.308 -0.1174 -0.0159  0.2440
  219POPC   C3A 2936   8.082   6.524   5.503 -0.4368  0.0984  0.0083
  219POPC   C4A 2937   7.716   6.647   5.637 -0.0378 -0.0593  0.1827
  219POPC   C1B 2938   8.771   6.467   4.970  0.0034  0.0781 -0.1884
  219POPC   C2B 2939   8.947   6.603   5.449  0.1127  0.1443  0.1690
  219POPC   C3B 2940   8.615   6.570   5.734 -0.0484 -0.1931 -0.2378
  219POPC   C4B 2941   8.294   6.193   5.897 -0.1952  0.0227 -0.0541
  220POPC   NC3 2942   7.435   9.826   4.151 -0.0327 -0.2352 -0.0836
  220POPC   PO4 2943   7.216   9.560   4.192  0.4106 -0.0260  0.0042
  220POPC   GL1 2944   7.097   9.648   4.547 -0.1681 -0.1798  0.1949
  220POPC   GL2 2945   7.170   9.910   4.538 -0.1002 -0.1947 -0.1451
  220POPC   C1A 2946   6.885   9.427   4.895 -0.1120 -0.2784  0.2726
  220POPC   D2A 2947   7.019   8.987   5.070  0.2096 -0.0311 -0.1190
  220POPC   C3A 2948   6.986   8.589   4.882 -0.0790  0.1746 -0.2918
  220POPC   C4A 2949   6.795   8.206   5.119 -0.0856 -0.0049  0.0164
  220POPC   C1B 2950   7.084   9.902   5.031 -0.1374  0.0125  0.0534
  220POPC   C2B 2951   6.853   9.834   5.421 -0.2323  0.1106 -0.1712
  220POPC   C3B 2952   6.895  10.064   5.835 -0.0407  0.1642 -0.1087
  220POPC   C4B 2953   7.208  10.257   6.040 -0.1531 -0.3538  0.0655
  221POPC   NC3 2954   6.511   7.052   3.681  0.2206  0.1844  0.6183
  221POPC   PO4 2955   6.916   7.041   4.017 -0.0653 -0.1799 -0.0392
  221POPC   GL1 2956   6.948   7.176   4.411 -0.2764 -0.1415  0.3339
  221POPC   GL2 2957   6.782   7.414   4.561  0.2464 -0.0077 -0.2647
  221POPC   C1A 2958   7.292   7.143   4.762 -0.0365 -0.0650  0.2422
  221POPC   D2A 2959   7.708   7.241   4.831  0.0151  0.0582 -0.0178
  221POPC   C3A 2960   7.873   7.652   4.885 -0.1087  0.2337 -0.1324
  221POPC   C4A 2961   8.120   7.931   5.100 -0.1037 -0.1142 -0.0191
  221POPC   C1B 2962   6.773   7.112   4.940  0.0929 -0.0321  0.0580
  221POPC   C2B 2963   6.991   7.144   5.313 -0.0164  0.1831 -0.1575
  221POPC   C3B 2964   6.879   6.818   5.595  0.3321  0.4144 -0.3107
  221POPC   C4B 2965   6.889   6.475   5.894  0.0076  0.1511  0.0723
  222POPC   NC3 2966   4.887   1.201   3.686  0.1741  0.0557  0.0343
  222POPC   PO4 2967   4.441   1.161   3.710  0.2385  0.2365  0.1026
  222POPC   GL1 2968   4.283   1.072   4.170  0.0722 -0.0235 -0.3687
  222POPC   GL2 2969   4.000   0.948   4.196  0.0550 -0.1177 -0.0342
  222POPC   C1A 2970   4.397   1.028   4.532  0.2321 -0.2833  0.0614
  222POPC   D2A 2971   4.628   1.302   4.844  0.1901  0.1641  0.2617
  222POPC   C3A 2972   4.986   1.334   5.076  0.1179  0.0527  0.0525
  222POPC   C4A 2973   5.348   1.498   4.947 -0.1358 -0.1014 -0.3808
  222POPC   C1B 2974   3.939   1.204   4.648 -0.2830 -0.2524  0.0462
  222POPC   C2B 2975   4.224   1.003   4.963  0.1072 -0.1180 -0.0603
  222POPC   C3B 2976   4.181   0.969   5.367  0.1182 -0.0343 -0.3450
  222POPC   C4B 2977   4.053   0.713   5.585 -0.1000 -0.0162 -0.0276
  223POPC   NC3 2978   0.594   7.417   3.803 -0.0757 -0.1741  0.1356
  223POPC   PO4 2979   0.845   7.063   3.941  0.1081  0.0414 -0.2053
  223POPC   GL1 2980   0.603   7.026   4.352  0.1304  0.0609 -0.0376
  223POPC   GL2 2981   0.277   6.838   4.402  0.2164  0.1643 -0.1791
  223POPC   C1A 2982   0.570   6.912   4.759  0.0783  0.2456  0.2393
  223POPC   D2A 2983   0.758   6.745   5.139  0.1483  0.0558  0.1117
  223POPC   C3A 2984   1.034   6.340   5.174 -0.0619  0.0379 -0.0271
  223POPC   C4A 2985   1.436   6.085   5.297 -0.1035  0.1880 -0.0778
  223POPC   C1B 2986   0.146   6.545   4.664 -0.0634  0.1588  0.0251
  223POPC   C2B 2987   0.163   6.593   5.102 -0.3102 -0.2339 -0.0994
  223POPC   C3B 2988   0.090   6.394   5.421 -0.1325 -0.1912  0.0123
  223POPC   C4B 2989  -0.116   6.235   5.745  0.1327  0.3898 -0.0686
  224POPC   NC3 2990   6.659   6.089   3.894 -0.0273 -0.1335  0.0487
  224POPC   PO4 2991   6.692   5.721   4.005 -0.1984  0.0021 -0.2695
  224POPC   GL1 2992   6.620   5.538   4.401 -0.3189 -0.2639 -0.2145
  224POPC   GL2 2993   6.806   5.153   4.440 -0.0807 -0.1941 -0.0491
  224POPC   C1A 2994   6.623   5.764   4.740 -0.0203 -0.3152  0.0056
  224POPC   D2A 2995   6.705   5.963   5.046  0.0377  0.2548 -0.4653
  224POPC   C3A 2996   6.495   5.955   5.375  0.0836  0.2302 -0.1480
  224POPC   C4A 2997   6.525   6.021   5.829 -0.0375  0.1040  0.1330
  224POPC   C1B 2998   6.867   4.977   4.949 -0.1914  0.2375 -0.1054
  224POPC   C2B 2999   6.764   4.961   5.314  0.0524 -0.4181 -0.2446
  224POPC   C3B 3000   6.778   4.690   5.746 -0.0034 -0.2242 -0.0009
  224POPC   C4B 3001   6.709   4.725   6.176 -0.1057  0.3210  0.3102
  225POPC   NC3 3002   8.709   0.111   3.523  0.2663 -0.0236  0.0173
  225POPC   PO4 3003   8.283   0.008   3.781  0.3073  0.0036 -0.0133
  225POPC   GL1 3004   8.552   0.076   4.198  0.3340  0.0908 -0.0692
  225POPC   GL2 3005   8.270   0.285   4.411 -0.1793  0.0941  0.3993
  225POPC   C1A 3006   8.876  -0.154   4.438 -0.3147 -0.1301  0.1733
  225POPC   D2A 3007   9.007  -0.000   4.764  0.0892  0.0506 -0.1365
  225POPC   C3A 3008   9.234  -0.024   5.035  0.1926 -0.2908  0.2054
  225POPC   C4A 3009   9.206   0.017   5.420  0.2001 -0.1936  0.0880
  225POPC   C1B 3010   8.461   0.074   4.755 -0.0794  0.3651  0.0243
  225POPC   C2B 3011   8.260  -0.159   5.087  0.0182 -0.0822 -0.3649
  225POPC   C3B 3012   8.482  -0.383   5.573  0.3036  0.1468  0.1279
  225POPC   C4B 3013   8.842  -0.227   5.795  0.4673  0.0338 -0.0384
  226POPC   NC3 3014   3.907   8.632   3.741  0.1952  0.0287 -0.1548
  226POPC   PO4 3015   3.922   8.132   3.824 -0.3121  0.0538 -0.3891
  226POPC   GL1 3016   3.951   8.325   4.209  0.1096  0.2099  0.0303
  226POPC   GL2 3017   4.259   8.451   4.198  0.1691  0.0270 -0.1232
  226POPC   C1A 3018   3.757   8.379   4.646 -0.1925 -0.1619  0.1169
  226POPC   D2A 3019   3.693   8.582   4.948 -0.4475  0.0591  0.0605
  226POPC   C3A 3020   3.865   8.963   5.041 -0.0019 -0.2120 -0.2224
  226POPC   C4A 3021   3.876   9.415   5.103  0.2867  0.2243  0.2621
  226POPC   C1B 3022   4.248   8.244   4.644  0.0261 -0.0864  0.3090
  226POPC   C2B 3023   4.031   8.104   4.948 -0.0339  0.0558 -0.0590
  226POPC   C3B 3024   3.788   7.802   5.129  0.0920  0.1327  0.0635
  226POPC   C4B 3025   3.389   7.691   5.159  0.0646  0.0781  0.0349
  227POPC   NC3 3026   2.550   6.875   2.895 -0.1341 -0.2396 -0.1552
  227POPC   PO4 3027   2.446   6.905   3.341  0.0270  0.0959 -0.0165
  227POPC   GL1 3028   2.279   6.852   3.727 -0.1742  0.0488  0.1171
  227POPC   GL2 3029   2.495   6.913   3.978  0.0782 -0.1051  0.1249
  227POPC   C1A 3030   2.149   6.463   3.934  0.0967 -0.1861 -0.3358
  227POPC   D2A 3031   1.918   6.189   4.002  0.2078 -0.0807 -0.1017
  227POPC   C3A 3032   1.639   6.144   4.342  0.3764 -0.0208  0.0932
  227POPC   C4A 3033   1.449   5.838   4.504  0.0913 -0.4647  0.1575
  227POPC   C1B 3034   2.336   6.790   4.336  0.1654 -0.1280  0.1828
  227POPC   C2B 3035   1.924   6.505   4.481  0.0891 -0.2636 -0.2051
  227POPC   C3B 3036   1.472   6.634   4.546  0.2118 -0.0008 -0.0944
  227POPC   C4B 3037   1.096   6.766   4.732 -0.0762  0.0562  0.2136
  228POPC   NC3 3038   4.546   2.966   3.650 -0.3304 -0.0070 -0.1124
  228POPC   PO4 3039   4.954   3.140   3.823 -0.0886  0.2948  0.0311
  228POPC   GL1 3040   4.916   3.184   4.291  0.3067 -0.0432 -0.1430
  228POPC   GL2 3041   5.190   2.964   4.572  0.1043 -0.2757  0.2986
  228POPC   C1A 3042   4.835   3.453   4.685  0.0288  0.0901 -0.0196
  228POPC   D2A 3043   4.769   3.446   5.069  0.0613  0.0048  0.0247
  228POPC   C3A 3044   4.393   3.443   5.265 -0.1282 -0.1873 -0.0114
  228POPC   C4A 3045   4.186   3.340   5.687 -0.0319 -0.0773  0.0615
  228POPC   C1B 3046   5.479   2.702   4.879 -0.3403  0.1756  0.4063
  228POPC   C2B 3047   5.857   2.603   4.943 -0.1014  0.0243 -0.0191
  228POPC   C3B 3048   5.878   2.272   5.291 -0.0688  0.1046 -0.1545
  228POPC   C4B 3049   6.164   2.195   5.583  0.3936  0.5361  0.2936
  229POPC   NC3 3050   7.071   1.728   3.862 -0.1172  0.0288 -0.2470
  229POPC   PO4 3051   7.444   2.084   3.782  0.3592  0.0598 -0.0425
  229POPC   GL1 3052   7.551   1.966   4.268 -0.0961 -0.0260  0.0659
  229POPC   GL2 3053   7.959   1.977   4.381  0.2488  0.1677 -0.4578
  229POPC   C1A 3054   7.615   2.170   4.717  0.0897  0.0879 -0.1581
  229POPC   D2A 3055   7.596   2.148   5.142  0.0814  0.0258  0.0989
  229POPC   C3A 3056   7.958   2.240   5.313 -0.1108  0.1407  0.1830
  229POPC   C4A 3057   8.174   2.246   5.798  0.1292  0.1106  0.0092
  229POPC   C1B 3058   7.832   1.736   4.737 -0.0484  0.0736 -0.1303
  229POPC   C2B 3059   8.052   1.752   5.198 -0.3961  0.0289 -0.0782
  229POPC   C3B 3060   8.410   1.719   5.430 -0.1042  0.1650 -0.2151
  229POPC   C4B 3061   8.493   1.873   5.811 -0.1106 -0.1683 -0.3718
  230POPC   NC3 3062   6.199   4.577   3.647  0.2751  0.2246 -0.1340
  230POPC   PO4 3063   6.187   4.908   3.922 -0.2122 -0.1187  0.0408
  230POPC   GL1 3064   6.269   5.006   4.396  0.0165 -0.5036  0.1000
  230POPC   GL2 3065   5.993   4.873   4.619 -0.0773  0.0610 -0.2031
  230POPC   C1A 3066   6.426   5.123   4.884 -0.0143  0.0181 -0.1733
  230POPC   D2A 3067   6.628   5.409   5.189 -0.2458 -0.3716 -0.0479
  230POPC   C3A 3068   6.368   5.389   5.488 -0.2759  0.1161 -0.0267
  230POPC   C4A 3069   6.248   5.618   5.842  0.1340 -0.2721  0.0738
  230POPC   C1B 3070   6.118   4.751   4.883  0.0770  0.2581  0.1799
  230POPC   C2B 3071   6.265   4.787   5.339  0.0943 -0.1429  0.2318
  230POPC   C3B 3072   6.306   4.908   5.823  0.1656  0.0857  0.2989
  230POPC   C4B 3073   6.386   5.144   6.250 -0.0118  0.0953 -0.0339
  231POPC   NC3 3074   7.398   6.849   3.944  0.1239  0.0719 -0.0078
  231POPC   PO4 3075   7.708   6.825   4.307  0.0561  0.2289 -0.3040
  231POPC   GL1 3076   8.039   6.697   4.565 -0.2304 -0.1020  0.0925
  231POPC   GL2 3077   8.145   6.988   4.696  0.4837 -0.3183  0.1703
  231POPC   C1A 3078   8.183   6.495   4.982  0.2468  0.3442  0.1748
  231POPC   D2A 3079   8.384   6.117   5.292  0.0722 -0.1193 -0.1614
  231POPC   C3A 3080   8.863   6.163   5.339 -0.0360  0.0672  0.2345
  231POPC   C4A 3081   9.204   5.984   5.579 -0.0425 -0.3027  0.3055
  231POPC   C1B 3082   8.162   7.232   5.160  0.2568 -0.0143  0.1203
  231POPC   C2B 3083   7.931   7.479   5.361 -0.0618 -0.1515  0.1546
  231POPC   C3B 3084   7.743   7.805   5.526  0.2590 -0.2423 -0.1190
  231POPC   C4B 3085   7.605   7.716   5.950 -0.3719 -0.1505 -0.0596
  232POPC   NC3 3086   0.154   0.251   3.384  0.3691  0.3550  0.1309
  232POPC   PO4 3087  -0.204   0.023   3.706  0.0136  0.2634  0.1022
  232POPC   GL1 3088  -0.112  -0.043   4.190 -0.1631  0.1822  0.0162
  232POPC   GL2 3089  -0.034  -0.352   4.358 -0.0878 -0.1522  0.0605
  232POPC   C1A 3090   0.071   0.133   4.646  0.3625 -0.1238 -0.1224
  232POPC   D2A 3091  -0.133   0.329   4.903  0.3114 -0.0752 -0.0913
  232POPC   C3A 3092   0.102   0.651   5.122 -0.0983  0.0931  0.0587
  232POPC   C4A 3093   0.070   0.970   5.343 -0.1726  0.2192 -0.0784
  232POPC   C1B 3094  -0.029  -0.376   4.734 -0.2857 -0.2495  0.0243
  232POPC   C2B 3095  -0.202  -0.608   5.023  0.3865 -0.1243 -0.1122
  232POPC   C3B 3096  -0.017  -0.816   5.374 -0.0044  0.0364  0.1758
  232POPC   C4B 3097  -0.006  -1.129   5.710 -0.0949  0.1432  0.0633
  233POPC   NC3 3098   4.210   4.801   3.618  0.3174 -0.0119 -0.1779
  233POPC   PO4 3099   4.558   4.571   3.893  0.2297  0.0396  0.0479
  233POPC   GL1 3100   4.592   4.847   4.285  0.1346 -0.3167  0.1082
  233POPC   GL2 3101   4.839   4.736   4.556  0.2329 -0.1386  0.0953
  233POPC   C1A 3102   4.424   4.950   4.747 -0.0875 -0.3198 -0.0819
  233POPC   D2A 3103   4.572   5.140   5.186 -0.1247 -0.1990  0.0633
  233POPC   C3A 3104   4.506   5.067   5.660  0.0109  0.2176 -0.0876
  233POPC   C4A 3105   4.295   5.233   5.955 -0.1358  0.1468 -0.2461
  233POPC   C1B 3106   4.737   4.590   4.947  0.0518  0.0318  0.1369
  233POPC   C2B 3107   4.825   4.708   5.421 -0.1887  0.0582 -0.0535
  233POPC   C3B 3108   5.094   4.617   5.668 -0.2602  0.3091  0.0647
  233POPC   C4B 3109   5.429   4.431   5.603 -0.0967 -0.1394  0.2331
  234POPC   NC3 3110   3.544   8.854   3.329 -0.1194  0.0007  0.0098
  234POPC   PO4 3111   3.366   8.877   3.738  0.3056 -0.1537  0.2338
  234POPC   GL1 3112   3.542   8.790   4.108 -0.4449 -0.0077  0.0655
  234POPC   GL2 3113   3.350   8.547   4.323  0.0297 -0.1426  0.0777
  234POPC   C1A 3114   3.538   8.913   4.611 -0.2631  0.1163 -0.0345
  234POPC   D2A 3115   3.366   8.970   4.994  0.1056  0.3643  0.1626
  234POPC   C3A 3116   3.424   8.835   5.390 -0.0207  0.2040  0.0110
  234POPC   C4A 3117   3.503   8.654   5.838 -0.3862  0.1476  0.1686
  234POPC   C1B 3118   3.155   8.451   4.687  0.0711 -0.1063 -0.0715
  234POPC   C2B 3119   3.074   8.501   5.064  0.1434  0.2075 -0.1779
  234POPC   C3B 3120   3.025   8.505   5.514 -0.1155 -0.3354 -0.1232
  234POPC   C4B 3121   2.747   8.654   5.777  0.0665  0.0460 -0.3870
  235POPC   NC3 3122   1.512   5.888   2.809 -0.1495 -0.1105  0.1216
  235POPC   PO4 3123   1.927   5.641   2.935  0.2241  0.2657  0.1000
  235POPC   GL1 3124   1.770   5.512   3.298  0.2603  0.1851 -0.1634
  235POPC   GL2 3125   1.536   5.716   3.290 -0.1411  0.3275 -0.0657
  235POPC   C1A 3126   1.593   5.417   3.688 -0.0961 -0.2314  0.1878
  235POPC   D2A 3127   1.155   5.373   3.843 -0.0536 -0.0237  0.0499
  235POPC   C3A 3128   1.276   5.378   4.354 -0.1646  0.1047 -0.1543
  235POPC   C4A 3129   1.330   4.993   4.666  0.0033  0.1117 -0.0042
  235POPC   C1B 3130   1.632   6.041   3.561  0.0259  0.1690  0.1757
  235POPC   C2B 3131   1.389   6.191   3.943  0.0785  0.0768 -0.1807
  235POPC   C3B 3132   1.150   6.250   4.324  0.1481  0.0939 -0.1819
  235POPC   C4B 3133   1.103   6.092   4.734  0.0218  0.0536 -0.2503
  236POPC   NC3 3134   9.126   4.356   3.618  0.2834  0.2389 -0.1006
  236POPC   PO4 3135   9.053   4.630   3.872  0.0755  0.0029 -0.1352
  236POPC   GL1 3136   9.385   4.746   4.264  0.0384 -0.0779  0.0653
  236POPC   GL2 3137   9.217   4.707   4.515  0.2322  0.1116 -0.0518
  236POPC   C1A 3138   9.756   4.685   4.627  0.0405  0.1620  0.2268
  236POPC   D2A 3139   9.822   4.604   5.086  0.3519  0.0844  0.0513
  236POPC   C3A 3140   9.726   4.816   5.434  0.3052 -0.1794 -0.0562
  236POPC   C4A 3141   9.377   4.762   5.816 -0.0725 -0.0554 -0.3422
  236POPC   C1B 3142   9.253   4.789   4.924 -0.0396  0.1639  0.1408
  236POPC   C2B 3143   9.074   4.929   5.363  0.1450  0.0455  0.4219
  236POPC   C3B 3144   8.943   5.039   5.673  0.1696  0.3430 -0.1999
  236POPC   C4B 3145   9.166   5.164   6.017  0.0811  0.2601 -0.3465
  237POPC   NC3 3146   6.621   5.173   4.010 -0.0171  0.0361  0.2540
  237POPC   PO4 3147   6.630   4.650   4.197 -0.3892 -0.2482  0.0880
  237POPC   GL1 3148   6.566   4.700   4.624 -0.3648 -0.1511 -0.0490
  237POPC   GL2 3149   6.442   4.319   4.748  0.2099  0.1320  0.1274
  237POPC   C1A 3150   6.614   4.570   5.078 -0.0280 -0.0928  0.0732
  237POPC   D2A 3151   6.816   4.323   5.392 -0.2493 -0.1232  0.1887
  237POPC   C3A 3152   7.272   4.402   5.689 -0.0738  0.0777 -0.0864
  237POPC   C4A 3153   7.676   4.221   5.956  0.1529  0.3010 -0.0599
  237POPC   C1B 3154   6.314   4.242   5.158  0.0039  0.1663  0.3009
  237POPC   C2B 3155   6.446   3.875   5.403 -0.0026 -0.0269  0.1118
  237POPC   C3B 3156   6.524   3.505   5.552 -0.2222 -0.0558  0.2359
  237POPC   C4B 3157   6.567   2.961   5.543 -0.1912 -0.0318  0.3513
  238POPC   NC3 3158   0.948   3.188   3.673  0.1333  0.0236  0.0240
  238POPC   PO4 3159   1.025   3.661   3.589  0.2762 -0.0431  0.2737
  238POPC   GL1 3160   0.958   3.810   3.949  0.0912  0.0893 -0.0119
  238POPC   GL2 3161   0.909   3.545   4.167  0.0363  0.1953 -0.1635
  238POPC   C1A 3162   0.913   4.140   4.154 -0.0008 -0.0536  0.0077
  238POPC   D2A 3163   0.591   4.445   4.184 -0.0302  0.0316 -0.1696
  238POPC   C3A 3164   0.255   4.367   4.449 -0.1800  0.1216  0.0837
  238POPC   C4A 3165   0.069   4.187   4.846 -0.2389  0.0750  0.2326
  238POPC   C1B 3166   1.153   3.686   4.409  0.1289 -0.1475 -0.0601
  238POPC   C2B 3167   1.413   3.598   4.801 -0.3081  0.1695  0.0730
  238POPC   C3B 3168   1.804   3.551   5.024  0.0328  0.3288 -0.2042
  238POPC   C4B 3169   2.044   3.335   5.380 -0.1076 -0.2127  0.0791
  239POPC   NC3 3170   8.415   9.421   3.935 -0.2416 -0.2063  0.0967
  239POPC   PO4 3171   8.454   8.958   3.776  0.0531 -0.3167 -0.4299
  239POPC   GL1 3172   8.452   8.857   4.276  0.1880 -0.0622  0.0079
  239POPC   GL2 3173   8.111   8.970   4.253 -0.0445  0.1334 -0.0079
  239POPC   C1A 3174   8.329   8.886   4.714  0.1685 -0.0201  0.0141
  239POPC   D2A 3175   8.075   8.965   5.071 -0.1657  0.0677 -0.2793
  239POPC   C3A 3176   8.226   9.158   5.473  0.1691  0.0962 -0.1575
  239POPC   C4A 3177   8.342   9.177   5.912 -0.1391  0.1239  0.1590
  239POPC   C1B 3178   8.057   8.633   4.407  0.0600 -0.2880  0.0666
  239POPC   C2B 3179   8.111   8.355   4.666 -0.2691 -0.1018 -0.0305
  239POPC   C3B 3180   7.966   8.436   5.052  0.1992  0.1460  0.0549
  239POPC   C4B 3181   7.728   8.473   5.372  0.0838  0.3649 -0.1765
  240POPC   NC3 3182   0.118   2.741   3.347  0.1766 -0.1909  0.1957
  240POPC   PO4 3183   0.553   2.917   3.506  0.2993  0.0182 -0.2086
  240POPC   GL1 3184   0.571   2.862   3.927  0.0102 -0.0888  0.0220
  240POPC   GL2 3185   0.523   3.118   4.186  0.1782  0.1175  0.1106
  240POPC   C1A 3186   0.431   2.515   4.252  0.0730  0.2446 -0.1369
  240POPC   D2A 3187   0.151   2.549   4.617  0.0325  0.5111  0.0463
  240POPC   C3A 3188   0.289   2.625   4.990  0.0523  0.4405 -0.4242
  240POPC   C4A 3189   0.269   2.643   5.428  0.1231 -0.3284  0.1740
  240POPC   C1B 3190   0.637   2.946   4.527 -0.3940  0.0367 -0.0168
  240POPC   C2B 3191   0.782   2.979   4.929  0.1530  0.0443  0.0914
  240POPC   C3B 3192   0.964   3.261   5.207  0.0803 -0.1386  0.2990
  240POPC   C4B 3193   0.919   3.588   5.566  0.3005 -0.1946  0.0648
  241POPC   NC3 3194   7.149   3.676   3.728 -0.0063 -0.1266  0.3982
  241POPC   PO4 3195   7.474   3.592   3.891  0.1602 -0.1760  0.0770
  241POPC   GL1 3196   7.485   3.248   4.242 -0.2676 -0.3349 -0.0369
  241POPC   GL2 3197   7.609   3.019   4.304 -0.1848  0.3771 -0.0387
  241POPC   C1A 3198   7.464   3.339   4.667  0.1044 -0.1461 -0.0579
  241POPC   D2A 3199   7.494   3.402   5.170 -0.4260  0.1997  0.2901
  241POPC   C3A 3200   7.888   3.491   5.317 -0.3280 -0.2712  0.1402
  241POPC   C4A 3201   8.117   3.917   5.487 -0.0558  0.2105  0.0565
  241POPC   C1B 3202   7.242   2.910   4.594  0.0158  0.0194  0.0614
  241POPC   C2B 3203   6.876   2.726   4.723 -0.0586 -0.1701 -0.1020
  241POPC   C3B 3204   6.413   2.699   4.722  0.0036 -0.0443 -0.0496
  241POPC   C4B 3205   6.158   2.960   4.815  0.1626  0.1126  0.1754
  242POPC   NC3 3206   6.124   1.889   3.446  0.0205 -0.0277  0.1755
  242POPC   PO4 3207   5.928   2.253   3.665  0.0803 -0.2392  0.2422
  242POPC   GL1 3208   5.780   2.226   4.063 -0.1449  0.3200  0.1082
  242POPC   GL2 3209   5.939   2.107   4.237 -0.6055  0.1183 -0.2067
  242POPC   C1A 3210   5.698   2.207   4.637  0.0271 -0.1685 -0.1799
  242POPC   D2A 3211   5.551   2.162   4.947 -0.0219 -0.0702 -0.1397
  242POPC   C3A 3212   5.349   1.875   5.209  0.1670 -0.1693  0.1169
  242POPC   C4A 3213   4.991   1.714   5.558  0.1092 -0.0818  0.2861
  242POPC   C1B 3214   5.908   1.776   4.567 -0.1238  0.3850  0.0270
  242POPC   C2B 3215   5.852   1.813   4.991 -0.2089  0.2090  0.0846
  242POPC   C3B 3216   5.930   1.766   5.397 -0.1237 -0.1481 -0.1661
  242POPC   C4B 3217   5.738   1.886   5.824 -0.1320  0.1403 -0.3659
  243POPC   NC3 3218   9.631   3.731   4.209  0.0475  0.1234 -0.1328
  243POPC   PO4 3219   9.992   3.987   4.093  0.0520 -0.1922  0.1967
  243POPC   GL1 3220  10.164   3.878   4.499  0.2970 -0.2388 -0.0935
  243POPC   GL2 3221   9.974   3.672   4.562  0.0139 -0.1293 -0.2082
  243POPC   C1A 3222  10.235   3.864   4.918  0.2126  0.2716  0.2481
  243POPC   D2A 3223  10.460   4.105   5.286  0.3099  0.0738  0.2157
  243POPC   C3A 3224  10.581   4.203   5.698 -0.0939  0.3242  0.1504
  243POPC   C4A 3225  11.053   4.185   5.842  0.0789 -0.1659  0.2561
  243POPC   C1B 3226   9.999   3.430   4.981 -0.0665 -0.2440  0.0842
  243POPC   C2B 3227   9.917   3.383   5.422 -0.0662  0.0633 -0.1025
  243POPC   C3B 3228   9.690   3.205   5.798  0.1591 -0.0282  0.1691
  243POPC   C4B 3229   9.840   3.012   6.197  0.0604 -0.3057  0.0754
  244POPC   NC3 3230   8.153   7.091   4.222  0.2380 -0.2760  0.3034
  244POPC   PO4 3231   8.633   7.032   4.108  0.1455 -0.1290  0.2719
  244POPC   GL1 3232   8.560   7.230   4.437  0.0907 -0.1857 -0.1652
  244POPC   GL2 3233   8.804   7.405   4.500 -0.0550 -0.1300  0.2558
  244POPC   C1A 3234   8.336   7.500   4.774 -0.0611  0.0059 -0.0923
  244POPC   D2A 3235   8.456   7.610   5.152  0.0410 -0.0856 -0.0659
  244POPC   C3A 3236   8.277   7.593   5.670 -0.0340 -0.2954  0.0643
  244POPC   C4A 3237   8.100   7.800   5.974  0.3545 -0.3113 -0.1988
  244POPC   C1B 3238   8.843   7.373   4.954 -0.2980 -0.1633 -0.0682
  244POPC   C2B 3239   8.907   7.623   5.338 -0.0631  0.1686  0.2207
  244POPC   C3B 3240   8.808   7.706   5.786 -0.1348 -0.2897  0.0388
  244POPC   C4B 3241   8.592   7.960   5.963 -0.2118 -0.1759  0.2562
  245POPC   NC3 3242   1.968   6.538   3.283 -0.0368 -0.2490 -0.2060
  245POPC   PO4 3243   1.775   6.868   3.620  0.1233 -0.0507  0.0375
  245POPC   GL1 3244   1.905   6.886   4.102  0.5422  0.0229 -0.3423
  245POPC   GL2 3245   1.956   7.105   4.138  0.1701  0.0727 -0.0288
  245POPC   C1A 3246   1.911   6.969   4.617 -0.4613  0.0351 -0.0559
  245POPC   D2A 3247   2.166   7.131   4.905  0.2453 -0.1837  0.2498
  245POPC   C3A 3248   2.189   7.369   5.187 -0.2962 -0.0418 -0.3292
  245POPC   C4A 3249   2.103   7.368   5.581 -0.2023  0.0867  0.3443
  245POPC   C1B 3250   1.902   7.394   4.372  0.0206  0.0472  0.3522
  245POPC   C2B 3251   1.917   7.617   4.806 -0.1271 -0.0053  0.3065
  245POPC   C3B 3252   1.877   7.842   5.151  0.0414 -0.3135 -0.1555
  245POPC   C4B 3253   1.766   7.768   5.596 -0.0940  0.0834  0.1373
  246POPC   NC3 3254  10.568   6.296   3.626 -0.0716  0.2074 -0.1085
  246POPC   PO4 3255  10.631   6.700   3.621 -0.1273  0.1378 -0.2155
  246POPC   GL1 3256  10.860   6.498   4.036  0.0517 -0.4873 -0.2383
  246POPC   GL2 3257  11.253   6.562   4.122  0.2204 -0.1362  0.0131
  246POPC   C1A 3258  10.938   6.153   4.401 -0.1345  0.0682  0.1125
  246POPC   D2A 3259  10.840   5.955   4.777 -0.5103 -0.0778 -0.0962
  246POPC   C3A 3260  10.807   6.061   5.052 -0.0220  0.2248 -0.0686
  246POPC   C4A 3261  10.357   6.027   5.279 -0.2977 -0.0692  0.1165
  246POPC   C1B 3262  11.332   6.409   4.465 -0.2581 -0.1087  0.0246
  246POPC   C2B 3263  11.151   6.355   4.875 -0.2955 -0.1032 -0.1249
  246POPC   C3B 3264  11.214   6.160   5.360 -0.0411  0.0396  0.1951
  246POPC   C4B 3265  11.082   6.219   5.807  0.2882 -0.2166  0.0643
  247POPC   NC3 3266   7.036   7.585   3.483  0.1157 -0.1487  0.4113
  247POPC   PO4 3267   6.772   7.606   3.894 -0.0815  0.2464 -0.0357
  247POPC   GL1 3268   6.455   7.398   4.179 -0.0462  0.0086 -0.2003
  247POPC   GL2 3269   6.455   7.117   4.220  0.2262  0.2203  0.3261
  247POPC   C1A 3270   6.297   7.432   4.583  0.2027  0.1342 -0.2312
  247POPC   D2A 3271   6.341   7.474   5.072  0.0759 -0.0579  0.0651
  247POPC   C3A 3272   5.960   7.489   5.380 -0.1294 -0.1522  0.2650
  247POPC   C4A 3273   6.152   7.434   5.868  0.0588  0.2084  0.1320
  247POPC   C1B 3274   6.630   6.761   4.525 -0.1665  0.1873 -0.0248
  247POPC   C2B 3275   6.566   6.628   4.954  0.0707 -0.1316  0.1491
  247POPC   C3B 3276   6.823   6.401   5.245 -0.1182 -0.2217 -0.3399
  247POPC   C4B 3277   7.276   6.528   5.394 -0.0846  0.3120  0.0165
  248POPC   NC3 3278   9.483   1.969   3.634  0.2211  0.0843 -0.1259
  248POPC   PO4 3279   9.757   1.817   3.902  0.2349 -0.0030 -0.2603
  248POPC   GL1 3280   9.883   2.012   4.334  0.1811  0.0912 -0.2051
  248POPC   GL2 3281   9.770   2.302   4.458 -0.4696  0.2072  0.0301
  248POPC   C1A 3282  10.191   2.026   4.597 -0.0312 -0.2330 -0.0190
  248POPC   D2A 3283  10.657   1.959   4.598 -0.2530 -0.1190 -0.0467
  248POPC   C3A 3284  11.004   2.140   4.881  0.1820 -0.1138  0.2874
  248POPC   C4A 3285  10.937   2.013   5.261  0.1315  0.0515  0.0438
  248POPC   C1B 3286   9.465   2.065   4.809 -0.0586 -0.1352  0.1953
  248POPC   C2B 3287   9.383   1.929   5.155 -0.2711 -0.0582 -0.0561
  248POPC   C3B 3288   9.350   1.917   5.546 -0.0653  0.0267 -0.0962
  248POPC   C4B 3289   9.002   1.953   5.769  0.0531 -0.0781  0.1228
  249POPC   NC3 3290   5.511   1.478   3.096  0.3471 -0.1191 -0.0336
  249POPC   PO4 3291   5.681   1.625   3.533  0.0885 -0.1242 -0.0608
  249POPC   GL1 3292   5.646   1.693   4.108 -0.2239  0.0015 -0.1523
  249POPC   GL2 3293   5.559   1.370   4.281 -0.1467 -0.0883  0.0993
  249POPC   C1A 3294   5.403   1.868   4.476  0.2796  0.0545 -0.1493
  249POPC   D2A 3295   5.128   2.036   4.810 -0.1670 -0.1256  0.3319
  249POPC   C3A 3296   5.167   2.380   5.135 -0.1070 -0.1653  0.0291
  249POPC   C4A 3297   5.495   2.737   5.380  0.0772  0.2425  0.0262
  249POPC   C1B 3298   5.105   1.410   4.425 -0.2963  0.0313  0.4428
  249POPC   C2B 3299   4.888   1.667   4.560 -0.0978 -0.6617  0.0168
  249POPC   C3B 3300   4.746   1.761   5.052  0.3790 -0.0559 -0.1532
  249POPC   C4B 3301   4.533   1.362   5.315 -0.2713 -0.0747 -0.0393
  250POPC   NC3 3302   4.038   2.378   3.782 -0.0700 -0.2725  0.0925
  250POPC   PO4 3303   3.557   2.358   3.775 -0.0383 -0.2861  0.0207
  250POPC   GL1 3304   3.703   2.455   4.133  0.3456  0.1435 -0.1134
  250POPC   GL2 3305   3.454   2.398   4.519 -0.1078  0.2117  0.1827
  250POPC   C1A 3306   3.909   2.679   4.531  0.3808  0.3762  0.1191
  250POPC   D2A 3307   4.013   2.660   5.025  0.1074 -0.3295  0.3460
  250POPC   C3A 3308   4.278   2.455   5.281  0.3158 -0.0892 -0.1498
  250POPC   C4A 3309   4.394   2.285   5.627 -0.2329 -0.1202  0.2336
  250POPC   C1B 3310   3.560   2.601   4.889 -0.2532 -0.2760 -0.1899
  250POPC   C2B 3311   3.570   2.623   5.314  0.2121  0.4053  0.0100
  250POPC   C3B 3312   3.488   2.475   5.760 -0.0088 -0.0285 -0.0257
  250POPC   C4B 3313   3.602   2.061   6.002 -0.0223  0.0969 -0.0112
  251POPC   NC3 3314   6.867   0.905   3.746 -0.2087 -0.0555 -0.0106
  251POPC   PO4 3315   6.947   1.284   3.987 -0.2857  0.0945 -0.2447
  251POPC   GL1 3316   7.144   1.125   4.389 -0.1421  0.0913  0.2399
  251POPC   GL2 3317   7.429   0.974   4.435 -0.1118 -0.0118 -0.0755
  251POPC   C1A 3318   7.260   1.085   4.888  0.0671  0.1373  0.2937
  251POPC   D2A 3319   7.253   0.932   5.254  0.1979 -0.0987  0.0093
  251POPC   C3A 3320   7.475   1.038   5.615  0.0757 -0.3419  0.1874
  251POPC   C4A 3321   7.583   0.844   5.920 -0.2665 -0.0145 -0.0448
  251POPC   C1B 3322   7.730   0.776   4.684 -0.0676 -0.2918 -0.0015
  251POPC   C2B 3323   7.786   0.655   5.066  0.1562  0.1862  0.4044
  251POPC   C3B 3324   7.825   0.246   5.431  0.0142 -0.0381  0.0939
  251POPC   C4B 3325   8.071  -0.099   5.601 -0.1826 -0.0766 -0.1003
  252POPC   NC3 3326   6.313   0.363   3.230 -0.1167  0.0211  0.2002
  252POPC   PO4 3327   6.486   0.288   3.668 -0.2355  0.1378  0.1342
  252POPC   GL1 3328   6.553   0.252   4.111  0.1906  0.3166 -0.2629
  252POPC   GL2 3329   6.828   0.142   4.251 -0.0672  0.2762 -0.0454
  252POPC   C1A 3330   6.421   0.427   4.593 -0.0371  0.3120  0.1084
  252POPC   D2A 3331   6.285   0.501   5.073  0.3454 -0.2960 -0.2239
  252POPC   C3A 3332   6.324   0.801   5.324  0.3600  0.2897 -0.1874
  252POPC   C4A 3333   6.725   1.129   5.331  0.1157  0.2906 -0.1849
  252POPC   C1B 3334   6.933   0.243   4.653  0.0060  0.0053  0.0223
  252POPC   C2B 3335   6.866   0.542   4.993 -0.0813  0.0686  0.1058
  252POPC   C3B 3336   6.779   0.563   5.414  0.1422 -0.1349 -0.2282
  252POPC   C4B 3337   6.406   0.389   5.653  0.0759  0.0483  0.0467
  253POPC   NC3 3338   3.580   6.116   3.525 -0.1367 -0.1597 -0.1670
  253POPC   PO4 3339   4.080   5.985   3.553  0.0530 -0.1419 -0.2546
  253POPC   GL1 3340   4.093   5.707   3.939  0.1071  0.1081  0.3155
  253POPC   GL2 3341   4.184   5.823   4.140  0.0528  0.2089  0.2078
  253POPC   C1A 3342   3.856   5.530   4.334 -0.0515  0.0599 -0.0684
  253POPC   D2A 3343   3.619   5.364   4.766  0.0624  0.1178  0.1744
  253POPC   C3A 3344   3.748   5.202   5.062 -0.2675 -0.0365  0.3313
  253POPC   C4A 3345   4.103   5.056   5.201  0.1048  0.0586  0.0304
  253POPC   C1B 3346   4.168   5.881   4.575  0.0207  0.2418  0.1319
  253POPC   C2B 3347   4.073   6.012   4.929 -0.0294 -0.1762 -0.1347
  253POPC   C3B 3348   4.072   6.102   5.372 -0.2306  0.1264  0.0320
  253POPC   C4B 3349   3.930   6.550   5.473 -0.0091 -0.1604 -0.6059
  254POPC   NC3 3350  10.492   0.938   3.872 -0.0720 -0.1314 -0.1008
  254POPC   PO4 3351  10.058   0.948   3.631 -0.1207  0.0289 -0.1579
  254POPC   GL1 3352  10.086   1.113   4.077 -0.1343 -0.1083 -0.1839
  254POPC   GL2 3353  10.071   1.495   4.123  0.2239  0.3028  0.1754
  254POPC   C1A 3354  10.097   1.012   4.581  0.0090  0.2130  0.1278
  254POPC   D2A 3355   9.927   1.207   4.947 -0.0504 -0.0358  0.1331
  254POPC   C3A 3356   9.442   1.361   5.067 -0.1375  0.0028  0.0115
  254POPC   C4A 3357   9.056   1.192   5.239 -0.1544  0.2158 -0.2158
  254POPC   C1B 3358  10.248   1.521   4.491 -0.1243 -0.0585 -0.0115
  254POPC   C2B 3359  10.452   1.567   4.825 -0.1537  0.1678  0.0998
  254POPC   C3B 3360  10.516   1.916   5.078  0.0032  0.1634  0.2970
  254POPC   C4B 3361  10.545   2.295   4.999 -0.3411 -0.1899  0.3834
  255POPC   NC3 3362   2.599   0.535   3.666 -0.0305 -0.2185  0.2173
  255POPC   PO4 3363   2.179   0.868   3.776  0.0726 -0.0238  0.2505
  255POPC   GL1 3364   2.238   0.814   4.235 -0.2694 -0.2186 -0.0898
  255POPC   GL2 3365   1.981   0.606   4.342  0.0769  0.1854 -0.1886
  255POPC   C1A 3366   2.081   0.989   4.616 -0.0095  0.0172 -0.2992
  255POPC   D2A 3367   1.627   1.002   4.726  0.1201  0.1210  0.1264
  255POPC   C3A 3368   1.514   0.939   5.175  0.1991 -0.0229  0.0640
  255POPC   C4A 3369   1.220   0.795   5.311  0.1228  0.0240  0.1434
  255POPC   C1B 3370   1.786   0.520   4.655 -0.1357 -0.1754 -0.2262
  255POPC   C2B 3371   1.829   0.592   5.061  0.2278 -0.1557 -0.1891
  255POPC   C3B 3372   1.766   0.492   5.434  0.2057  0.1460  0.2184
  255POPC   C4B 3373   1.633   0.650   5.866  0.0273  0.1278 -0.0176
  256POPC   NC3 3374   6.027   8.784   4.105  0.5327  0.0169 -0.2815
  256POPC   PO4 3375   5.541   8.830   4.045 -0.1111 -0.0718 -0.1226
  256POPC   GL1 3376   5.492   8.920   4.488 -0.1410  0.1642  0.1158
  256POPC   GL2 3377   5.169   9.092   4.595 -0.2057  0.3365 -0.0332
  256POPC   C1A 3378   5.605   8.991   4.969 -0.1162 -0.0257 -0.1131
  256POPC   D2A 3379   5.993   9.045   5.139 -0.2263 -0.2917 -0.1414
  256POPC   C3A 3380   6.231   8.918   5.637 -0.0180  0.0606  0.1307
  256POPC   C4A 3381   6.475   8.668   5.892 -0.0435  0.1308 -0.2128
  256POPC   C1B 3382   5.125   9.107   5.110  0.2133  0.0175 -0.2033
  256POPC   C2B 3383   5.154   9.026   5.567  0.0137 -0.1468  0.1951
  256POPC   C3B 3384   5.190   8.731   5.812  0.0413 -0.1601 -0.1989
  256POPC   C4B 3385   5.205   8.854   6.230  0.0130  0.0537  0.0078
  257POPC   NC3 3386   6.577   2.979   3.701  0.1176 -0.0783 -0.2442
  257POPC   PO4 3387   6.678   2.611   3.872  0.3299  0.1360  0.1958
  257POPC   GL1 3388   6.576   2.606   4.250  0.1936 -0.0498  0.1155
  257POPC   GL2 3389   6.472   2.197   4.310 -0.1294  0.0978 -0.0775
  257POPC   C1A 3390   6.697   2.268   4.703  0.1558 -0.1036  0.3603
  257POPC   D2A 3391   6.690   2.471   5.086 -0.1424  0.1811 -0.0951
  257POPC   C3A 3392   6.317   2.575   5.227 -0.0679  0.0807 -0.1870
  257POPC   C4A 3393   6.078   2.726   5.552 -0.0047  0.2400  0.1811
  257POPC   C1B 3394   6.460   1.837   4.637  0.0457  0.2096 -0.0230
  257POPC   C2B 3395   6.399   1.560   5.005 -0.1269 -0.0143 -0.0482
  257POPC   C3B 3396   6.539   1.633   5.432 -0.0707  0.1848  0.2272
  257POPC   C4B 3397   6.413   1.406   5.735 -0.1521  0.0694  0.3314
  258POPC   NC3 3398   2.943   1.270   3.794  0.1281  0.0588 -0.1204
  258POPC   PO4 3399   2.612   1.013   3.985  0.1261  0.1583 -0.1537
  258POPC   GL1 3400   2.742   1.035   4.327  0.1509  0.2180  0.0090
  258POPC   GL2 3401   3.095   1.208   4.440  0.2586  0.1469 -0.0436
  258POPC   C1A 3402   2.731   1.151   4.737 -0.3666  0.0833  0.0133
  258POPC   D2A 3403   2.960   1.338   4.973 -0.1278  0.0023 -0.0646
  258POPC   C3A 3404   2.735   1.563   5.282  0.0295  0.3497 -0.0432
  258POPC   C4A 3405   2.934   1.901   5.610 -0.1048  0.1125  0.0301
  258POPC   C1B 3406   3.329   1.565   4.610 -0.3810  0.1133  0.1471
  258POPC   C2B 3407   3.691   1.652   4.812  0.3051 -0.1855  0.1427
  258POPC   C3B 3408   3.810   1.551   5.221 -0.1538  0.0700  0.3422
  258POPC   C4B 3409   4.159   1.434   5.595 -0.0471 -0.1608 -0.3611
  259POPC   NC3 3410   8.532   6.125   4.153  0.1184  0.1474  0.1453
  259POPC   PO4 3411   8.398   5.866   3.832  0.0981 -0.2155 -0.0170
  259POPC   GL1 3412   8.271   5.712   4.200 -0.0341  0.1689  0.0029
  259POPC   GL2 3413   8.464   5.699   4.417 -0.0195 -0.1736 -0.1429
  259POPC   C1A 3414   7.930   5.662   4.461 -0.0228 -0.0380 -0.1859
  259POPC   D2A 3415   7.745   5.474   4.712  0.0226  0.0553 -0.0764
  259POPC   C3A 3416   7.560   5.717   5.121 -0.1210 -0.3063  0.0481
  259POPC   C4A 3417   7.437   5.666   5.622 -0.0058  0.1189 -0.0748
  259POPC   C1B 3418   8.237   5.492   4.777  0.1853  0.0340 -0.3041
  259POPC   C2B 3419   8.139   5.654   5.165 -0.3647 -0.2170  0.3612
  259POPC   C3B 3420   7.995   5.831   5.617  0.0276  0.0420 -0.0520
  259POPC   C4B 3421   8.032   5.846   6.046  0.1355  0.1331 -0.0126
  260POPC   NC3 3422   2.415   5.949   2.806  0.0327 -0.0472  0.1337
  260POPC   PO4 3423   2.572   6.196   3.165  0.2139 -0.3337 -0.1830
  260POPC   GL1 3424   2.580   6.221   3.574  0.0083 -0.0371 -0.3763
  260POPC   GL2 3425   2.585   6.489   3.648 -0.2708 -0.1607  0.5450
  260POPC   C1A 3426   2.477   6.084   3.967  0.0084  0.0329 -0.1424
  260POPC   D2A 3427   2.514   5.765   4.272 -0.2523 -0.0469  0.4000
  260POPC   C3A 3428   2.475   5.368   4.162 -0.1107  0.1365 -0.2684
  260POPC   C4A 3429   2.389   5.006   3.885 -0.0924 -0.3491  0.0025
  260POPC   C1B 3430   2.706   6.495   4.002  0.3701  0.1721 -0.3961
  260POPC   C2B 3431   3.032   6.662   4.316 -0.0411  0.2959 -0.1795
  260POPC   C3B 3432   3.079   6.890   4.731 -0.0947  0.1219  0.0306
  260POPC   C4B 3433   3.192   7.127   5.148 -0.3661  0.0160  0.0872
  261POPC   NC3 3434   2.294   2.676   3.452  0.0719  0.2597  0.1805
  261POPC   PO4 3435   2.111   2.758   3.845 -0.2443 -0.2849 -0.0143
  261POPC   GL1 3436   2.284   2.517   4.233  0.2806 -0.2192 -0.1680
  261POPC   GL2 3437   2.675   2.473   4.489 -0.2925 -0.1244  0.0898
  261POPC   C1A 3438   2.221   2.386   4.642  0.0311 -0.0908 -0.1490
  261POPC   D2A 3439   2.153   2.374   5.041  0.1198  0.0347 -0.1980
  261POPC   C3A 3440   2.318   2.633   5.406 -0.0623 -0.0938  0.0669
  261POPC   C4A 3441   2.425   3.084   5.396 -0.1370  0.1070  0.0153
  261POPC   C1B 3442   2.660   2.241   4.871  0.0456  0.2216 -0.0245
  261POPC   C2B 3443   2.523   2.004   5.276 -0.0909  0.1461  0.1657
  261POPC   C3B 3444   2.066   2.165   5.458 -0.0070  0.1840  0.2517
  261POPC   C4B 3445   1.579   1.895   5.438 -0.3900  0.0977  0.1495
  262POPC   NC3 3446   5.317   6.753   3.673 -0.0748  0.1880  0.0169
  262POPC   PO4 3447   5.710   7.024   3.740  0.2498 -0.4180  0.2147
  262POPC   GL1 3448   5.809   7.064   4.171  0.1103 -0.1151 -0.1877
  262POPC   GL2 3449   5.778   7.346   4.363 -0.0353 -0.2338  0.0437
  262POPC   C1A 3450   6.103   6.967   4.529 -0.2718 -0.0656  0.0355
  262POPC   D2A 3451   6.152   7.044   4.886  0.1801 -0.0665 -0.1471
  262POPC   C3A 3452   6.417   7.028   5.272 -0.1786  0.4481  0.0216
  262POPC   C4A 3453   6.612   7.289   5.601  0.0444  0.0536  0.0782
  262POPC   C1B 3454   5.843   7.525   4.765  0.0363  0.0231  0.1150
  262POPC   C2B 3455   5.860   7.832   5.060 -0.1608 -0.3855  0.0781
  262POPC   C3B 3456   5.950   8.195   5.287 -0.1417  0.1883  0.1149
  262POPC   C4B 3457   5.912   8.568   5.351  0.0347 -0.4388 -0.1715
  263POPC   NC3 3458  10.156   9.849   3.656 -0.1084 -0.2316  0.1586
  263POPC   PO4 3459   9.741   9.926   3.687  0.1656 -0.2690  0.2237
  263POPC   GL1 3460   9.865  10.017   4.080 -0.1773 -0.1573  0.0420
  263POPC   GL2 3461  10.115  10.226   4.045 -0.1242 -0.0189  0.0805
  263POPC   C1A 3462   9.883   9.874   4.524  0.0440  0.1443  0.1446
  263POPC   D2A 3463   9.987   9.920   4.848  0.0511  0.0461  0.1223
  263POPC   C3A 3464   9.897   9.984   5.162  0.0381  0.2258 -0.0123
  263POPC   C4A 3465   9.901  10.037   5.604 -0.0355  0.0556  0.0542
  263POPC   C1B 3466  10.111  10.328   4.486  0.0216 -0.1278  0.1973
  263POPC   C2B 3467   9.979  10.524   4.785 -0.1079  0.1432  0.0380
  263POPC   C3B 3468   9.702  10.454   5.085 -0.1178 -0.1745 -0.0410
  263POPC   C4B 3469   9.488  10.224   5.308  0.1956  0.3572  0.0429
  264POPC   NC3 3470   0.492   6.123   2.983 -0.1760 -0.0359  0.0007
  264POPC   PO4 3471   0.578   5.938   3.455  0.1232 -0.1179  0.0241
  264POPC   GL1 3472   0.717   5.782   3.827  0.1590  0.3446  0.2997
  264POPC   GL2 3473   0.682   6.008   4.130 -0.0222 -0.0147  0.0750
  264POPC   C1A 3474   0.760   5.461   4.163 -0.1375 -0.1693 -0.0081
  264POPC   D2A 3475   0.920   4.961   4.169 -0.3008 -0.5558 -0.1868
  264POPC   C3A 3476   0.944   4.706   4.493 -0.1883 -0.2657 -0.0787
  264POPC   C4A 3477   0.655   4.418   4.748 -0.0153  0.2061 -0.1555
  264POPC   C1B 3478   0.692   5.869   4.462 -0.0599  0.2430 -0.0022
  264POPC   C2B 3479   0.931   5.622   4.670 -0.0722  0.1131 -0.0955
  264POPC   C3B 3480   1.375   5.448   4.877 -0.0224 -0.0497 -0.0192
  264POPC   C4B 3481   1.776   5.655   4.854  0.0868 -0.0983 -0.0916
  265POPC   NC3 3482  10.591   9.670   3.897  0.0284  0.0998 -0.0729
  265POPC   PO4 3483  10.717   9.211   4.027  0.0515  0.2066 -0.1965
  265POPC   GL1 3484  10.615   8.928   4.403  0.0658 -0.3089 -0.0779
  265POPC   GL2 3485  10.834   8.586   4.406 -0.3493  0.0115  0.0605
  265POPC   C1A 3486  10.539   9.121   4.855  0.1442 -0.1189  0.2083
  265POPC   D2A 3487  10.640   9.332   5.183  0.1571 -0.0298 -0.0219
  265POPC   C3A 3488  11.003   9.269   5.490 -0.1214 -0.1322 -0.0651
  265POPC   C4A 3489  11.394   9.437   5.631  0.0041  0.1411  0.2546
  265POPC   C1B 3490  10.591   8.650   4.787 -0.0449  0.2398  0.2699
  265POPC   C2B 3491  10.476   8.712   5.206  0.2961  0.2226  0.1507
  265POPC   C3B 3492  10.296   8.551   5.526  0.1056  0.1215  0.1888
  265POPC   C4B 3493  10.334   8.353   5.903  0.0578 -0.0676 -0.0258
  266POPC   NC3 3494   0.351   1.286   3.786  0.1085 -0.2374  0.0653
  266POPC   PO4 3495   0.518   0.875   3.892 -0.0792  0.0477 -0.1336
  266POPC   GL1 3496   0.316   1.105   4.356 -0.1194  0.0802  0.1368
  266POPC   GL2 3497  -0.067   1.011   4.371 -0.2037 -0.1966  0.1402
  266POPC   C1A 3498   0.379   1.459   4.540  0.5891  0.1164  0.0113
  266POPC   D2A 3499   0.325   1.595   4.885 -0.0126 -0.0094  0.0961
  266POPC   C3A 3500   0.085   1.555   5.297  0.2111 -0.1519 -0.3406
  266POPC   C4A 3501   0.111   1.479   5.680 -0.1480  0.3382  0.0096
  266POPC   C1B 3502  -0.113   1.015   4.883  0.3711  0.0322 -0.0695
  266POPC   C2B 3503  -0.337   1.222   5.230  0.0685  0.0471 -0.0623
  266POPC   C3B 3504  -0.374   1.646   5.500 -0.2671 -0.0566 -0.0495
  266POPC   C4B 3505   0.007   1.938   5.672  0.0344  0.0220  0.4262
  267POPC   NC3 3506   3.653   0.763   3.803 -0.0431  0.0938  0.3530
  267POPC   PO4 3507   3.442   1.156   4.023  0.3107  0.4155  0.1932
  267POPC   GL1 3508   3.535   0.978   4.398 -0.1447  0.0808 -0.3545
  267POPC   GL2 3509   3.664   0.607   4.296  0.1272  0.2738 -0.1133
  267POPC   C1A 3510   3.457   1.114   4.838  0.0502 -0.1280  0.0552
  267POPC   D2A 3511   3.361   1.237   5.338 -0.0958  0.0784 -0.0328
  267POPC   C3A 3512   3.651   1.021   5.539  0.1796 -0.4971  0.1502
  267POPC   C4A 3513   3.815   1.005   5.960 -0.1896 -0.1582 -0.0252
  267POPC   C1B 3514   3.522   0.409   4.754 -0.2990 -0.0446  0.2171
  267POPC   C2B 3515   3.657   0.209   5.082 -0.1396  0.1586  0.0701
  267POPC   C3B 3516   3.834   0.243   5.511  0.1695 -0.2597 -0.0866
  267POPC   C4B 3517   4.247   0.241   5.669  0.0960  0.0791  0.3306
  268POPC   NC3 3518  10.556   5.073   3.695 -0.0058  0.1191 -0.0902
  268POPC   PO4 3519  10.601   4.610   3.784  0.2596 -0.0771  0.1386
  268POPC   GL1 3520  10.683   4.831   4.291 -0.3246  0.0884  0.0434
  268POPC   GL2 3521  10.673   5.099   4.221 -0.2382 -0.0336 -0.2130
  268POPC   C1A 3522  10.742   4.745   4.746 -0.0991 -0.1050  0.3703
  268POPC   D2A 3523  10.723   4.684   5.205 -0.2943  0.1739 -0.2459
  268POPC   C3A 3524  10.937   4.295   5.365 -0.1437 -0.1723  0.2508
  268POPC   C4A 3525  10.888   3.885   5.360 -0.0662 -0.0428 -0.0238
  268POPC   C1B 3526  10.512   5.290   4.554 -0.3716  0.0408  0.2138
  268POPC   C2B 3527  10.423   5.067   4.931  0.2553 -0.0023 -0.2261
  268POPC   C3B 3528  10.533   5.028   5.448  0.0174  0.1692 -0.1232
  268POPC   C4B 3529  10.554   5.133   5.890  0.0159 -0.0305  0.1679
  269POPC   NC3 3530   0.605   9.853   3.479  0.0716 -0.1119  0.0579
  269POPC   PO4 3531   0.397  10.037   3.863 -0.0726 -0.0102  0.1336
  269POPC   GL1 3532   0.605   9.918   4.255 -0.0064 -0.1744  0.0291
  269POPC   GL2 3533   0.750   9.639   4.297  0.1755 -0.1962 -0.1686
  269POPC   C1A 3534   0.855   9.978   4.650  0.0669  0.1346 -0.4157
  269POPC   D2A 3535   1.194  10.199   4.894  0.1835  0.1347 -0.0687
  269POPC   C3A 3536   1.421   9.906   5.133  0.0595 -0.0088 -0.2004
  269POPC   C4A 3537   1.670   9.522   5.130 -0.0995 -0.0795  0.1458
  269POPC   C1B 3538   0.725   9.419   4.678  0.2126 -0.2864  0.1813
  269POPC   C2B 3539   0.384   9.238   4.796 -0.3166  0.2691 -0.3554
  269POPC   C3B 3540   0.320   8.882   5.138  0.2296 -0.2845 -0.2345
  269POPC   C4B 3541   0.477   8.754   5.526 -0.0282  0.2745 -0.0196
  270POPC   NC3 3542   7.155   7.662   4.247  0.1327  0.3231  0.1255
  270POPC   PO4 3543   7.628   7.743   4.069  0.1087  0.1886 -0.0861
  270POPC   GL1 3544   7.542   7.922   4.454 -0.1158  0.0166  0.0874
  270POPC   GL2 3545   7.460   7.658   4.627 -0.1584 -0.1185 -0.3908
  270POPC   C1A 3546   7.656   8.109   4.713 -0.1704 -0.0065 -0.0175
  270POPC   D2A 3547   7.456   8.447   4.878  0.1539 -0.1300 -0.0268
  270POPC   C3A 3548   7.620   8.803   4.983  0.0923  0.0245 -0.1470
  270POPC   C4A 3549   7.665   9.118   5.348  0.2881 -0.4166 -0.0378
  270POPC   C1B 3550   7.290   7.541   5.081  0.1456  0.0065  0.2548
  270POPC   C2B 3551   7.490   7.248   5.314  0.0472  0.1497  0.2041
  270POPC   C3B 3552   7.631   7.124   5.657 -0.3896  0.0532  0.1173
  270POPC   C4B 3553   7.724   7.059   6.104  0.3290  0.1062  0.2094
  271POPC   NC3 3554   4.206   3.975   3.026  0.1876  0.3145  0.0053
  271POPC   PO4 3555   4.386   4.258   3.405 -0.1399  0.1482  0.1214
  271POPC   GL1 3556   4.112   4.242   3.875 -0.0394  0.0939  0.0699
  271POPC   GL2 3557   3.952   3.939   3.931 -0.0396 -0.2869  0.1394
  271POPC   C1A 3558   4.007   4.535   4.213  0.2395 -0.2219  0.1171
  271POPC   D2A 3559   3.810   4.361   4.537 -0.1570 -0.0477  0.1830
  271POPC   C3A 3560   3.558   3.968   4.506  0.0914  0.0748  0.1624
  271POPC   C4A 3561   3.462   3.793   4.140  0.2768 -0.0702  0.2831
  271POPC   C1B 3562   4.187   4.066   4.363 -0.1633  0.1150 -0.2754
  271POPC   C2B 3563   4.095   3.979   4.732 -0.2267 -0.2219 -0.0618
  271POPC   C3B 3564   3.807   4.070   5.046 -0.0278  0.0236 -0.1921
  271POPC   C4B 3565   3.925   4.374   5.416  0.1949 -0.0091  0.1616
  272POPC   NC3 3566   6.520   4.185   4.228 -0.1782 -0.1295 -0.3124
  272POPC   PO4 3567   6.878   3.880   4.090 -0.1789  0.3283 -0.1104
  272POPC   GL1 3568   6.858   3.904   4.621  0.1516 -0.2132  0.2711
  272POPC   GL2 3569   7.006   4.194   4.930 -0.1783  0.0588  0.2071
  272POPC   C1A 3570   6.462   3.842   4.922  0.1577  0.1457  0.0690
  272POPC   D2A 3571   6.008   3.789   5.118 -0.0541 -0.1840 -0.2563
  272POPC   C3A 3572   6.036   3.577   5.442  0.3273 -0.0854  0.0627
  272POPC   C4A 3573   6.180   3.149   5.262 -0.0563 -0.1164 -0.2879
  272POPC   C1B 3574   7.285   4.176   5.262 -0.0519 -0.0155 -0.1774
  272POPC   C2B 3575   7.523   3.899   5.568  0.3826  0.2019  0.0025
  272POPC   C3B 3576   7.773   3.642   5.774 -0.4318  0.3596  0.1609
  272POPC   C4B 3577   7.831   3.409   6.142  0.3377 -0.0221 -0.0143
  273POPC   NC3 3578   7.910   5.848   3.866  0.2023  0.0437  0.2879
  273POPC   PO4 3579   8.037   6.265   4.093 -0.0056  0.2367 -0.1066
  273POPC   GL1 3580   8.083   6.126   4.468  0.2019  0.2348  0.1099
  273POPC   GL2 3581   7.855   6.072   4.724  0.3137 -0.1773  0.1155
  273POPC   C1A 3582   8.399   6.014   4.806  0.0808  0.2037 -0.0474
  273POPC   D2A 3583   8.690   5.734   5.121  0.0549  0.0477  0.0721
  273POPC   C3A 3584   8.607   5.708   5.635  0.2302 -0.1835  0.0744
  273POPC   C4A 3585   8.864   5.558   5.997 -0.1455  0.0119 -0.0723
  273POPC   C1B 3586   7.744   6.318   5.056  0.0678  0.1623 -0.4174
  273POPC   C2B 3587   7.667   6.189   5.445 -0.1639 -0.1693 -0.2910
  273POPC   C3B 3588   7.301   6.188   5.808  0.2150  0.0958 -0.0074
  273POPC   C4B 3589   6.956   5.970   6.107 -0.0538 -0.0266 -0.0407
  274POPC   NC3 3590   8.586   8.433   4.098 -0.1098  0.1980  0.1594
  274POPC   PO4 3591   8.963   8.305   3.837  0.0173 -0.0936 -0.0613
  274POPC   GL1 3592   9.016   8.332   4.335 -0.0104 -0.2378 -0.2781
  274POPC   GL2 3593   8.711   8.573   4.555  0.0392  0.0425  0.0432
  274POPC   C1A 3594   9.091   8.262   4.795 -0.1869 -0.2986 -0.0426
  274POPC   D2A 3595   9.115   8.133   5.251  0.0841  0.0460  0.2782
  274POPC   C3A 3596   9.425   7.879   5.473 -0.4360 -0.1466  0.0393
  274POPC   C4A 3597   9.669   7.827   5.824  0.0326 -0.1818 -0.1682
  274POPC   C1B 3598   8.622   8.594   5.013  0.1325  0.0871 -0.0741
  274POPC   C2B 3599   8.378   8.609   5.342  0.2674 -0.1208  0.2062
  274POPC   C3B 3600   8.467   8.645   5.786  0.0751 -0.0145 -0.0114
  274POPC   C4B 3601   8.297   8.791   6.227 -0.2108  0.3095  0.1992
  275POPC   NC3 3602   8.308   3.492   4.083 -0.0709 -0.0585 -0.1190
  275POPC   PO4 3603   8.777   3.621   4.023 -0.0595  0.0379  0.2552
  275POPC   GL1 3604   9.080   3.617   4.424  0.2705  0.0770 -0.1951
  275POPC   GL2 3605   9.241   3.794   4.631 -0.3224  0.0378  0.2083
  275POPC   C1A 3606   9.105   3.349   4.843 -0.1155  0.0835 -0.0116
  275POPC   D2A 3607   9.524   3.163   5.020  0.0405 -0.0187 -0.1273
  275POPC   C3A 3608   9.274   3.333   5.373  0.1751  0.6807 -0.2165
  275POPC   C4A 3609   9.187   3.207   5.795 -0.2917  0.3537  0.6007
  275POPC   C1B 3610   9.520   3.613   5.012 -0.4775 -0.2906 -0.1406
  275POPC   C2B 3611   9.506   3.827   5.372 -0.1982 -0.0683 -0.0844
  275POPC   C3B 3612   9.565   3.762   5.772  0.0034 -0.0688  0.2647
  275POPC   C4B 3613   9.873   3.730   6.061 -0.0740 -0.1478 -0.0409
  276POPC   NC3 3614   5.039   8.188   4.151  0.2338  0.1197 -0.0061
  276POPC   PO4 3615   4.743   8.582   4.077 -0.1871 -0.0985 -0.3263
  276POPC   GL1 3616   4.746   8.446   4.423  0.0848 -0.0581  0.0529
  276POPC   GL2 3617   5.092   8.590   4.451 -0.1335 -0.0441  0.1622
  276POPC   C1A 3618   4.729   8.407   4.831  0.0559 -0.2444 -0.0364
  276POPC   D2A 3619   4.700   8.170   5.224 -0.1521  0.0465 -0.0298
  276POPC   C3A 3620   4.350   8.144   5.533  0.0069 -0.1142 -0.0705
  276POPC   C4A 3621   4.147   7.775   5.590 -0.1345  0.0228 -0.1694
  276POPC   C1B 3622   5.280   8.629   4.831  0.1070 -0.0842  0.3667
  276POPC   C2B 3623   5.459   8.685   5.304  0.1600 -0.1710 -0.1995
  276POPC   C3B 3624   5.541   8.377   5.630 -0.1790 -0.1637  0.0938
  276POPC   C4B 3625   5.178   8.236   5.970 -0.0715 -0.0072  0.1384
  277POPC   NC3 3626   5.558   7.486   3.873  0.1888 -0.1235  0.0299
  277POPC   PO4 3627   5.417   7.964   3.936  0.3971  0.1851 -0.1698
  277POPC   GL1 3628   5.395   7.731   4.267 -0.0204 -0.1250  0.0080
  277POPC   GL2 3629   5.647   7.867   4.452 -0.0619  0.1024 -0.3140
  277POPC   C1A 3630   5.365   7.643   4.735  0.4759  0.1320  0.0022
  277POPC   D2A 3631   5.419   7.621   5.159 -0.1643 -0.2834  0.1247
  277POPC   C3A 3632   5.612   7.880   5.493 -0.0324 -0.0200 -0.2034
  277POPC   C4A 3633   5.982   7.906   5.681  0.3360 -0.4704  0.0961
  277POPC   C1B 3634   6.093   7.938   4.599 -0.0939 -0.0376  0.1333
  277POPC   C2B 3635   6.313   8.161   4.906  0.0091  0.1546 -0.2206
  277POPC   C3B 3636   6.367   7.955   5.343 -0.2432  0.0817 -0.2143
  277POPC   C4B 3637   6.503   7.751   5.678  0.1811  0.0484  0.1655
  278POPC   NC3 3638   0.822   2.061   3.873  0.4382 -0.0928 -0.0086
  278POPC   PO4 3639   0.548   1.708   3.911 -0.1487  0.2634 -0.2600
  278POPC   GL1 3640   0.702   1.843   4.336 -0.3251  0.1063  0.0052
  278POPC   GL2 3641   0.924   2.082   4.390 -0.0375 -0.5771 -0.1507
  278POPC   C1A 3642   0.807   1.518   4.718  0.3268 -0.0343  0.1308
  278POPC   D2A 3643   1.114   1.347   5.031 -0.0322 -0.0826  0.0451
  278POPC   C3A 3644   1.163   1.588   5.360  0.1549 -0.1356 -0.1222
  278POPC   C4A 3645   1.085   1.875   5.760  0.0026  0.0937 -0.2279
  278POPC   C1B 3646   0.903   1.990   4.841  0.0047  0.1554  0.0356
  278POPC   C2B 3647   0.718   1.779   5.134  0.0938 -0.0166 -0.0757
  278POPC   C3B 3648   0.697   1.322   5.420  0.0488 -0.1944  0.1777
  278POPC   C4B 3649   0.648   0.829   5.412 -0.0800  0.0298  0.2381
  279POPC   NC3 3650   2.103   7.285   3.636 -0.3944 -0.1222 -0.0600
  279POPC   PO4 3651   2.412   7.392   3.874  0.4346  0.1145 -0.3380
  279POPC   GL1 3652   2.410   7.309   4.379 -0.2524  0.1652 -0.3709
  279POPC   GL2 3653   2.642   7.085   4.574 -0.2804 -0.1767  0.2835
  279POPC   C1A 3654   2.446   7.514   4.755 -0.1301  0.2184 -0.1486
  279POPC   D2A 3655   2.462   7.871   4.990  0.2217 -0.0418  0.0066
  279POPC   C3A 3656   2.472   7.803   5.371  0.0536  0.1950  0.0297
  279POPC   C4A 3657   2.258   7.857   5.709 -0.2846 -0.1710  0.0502
  279POPC   C1B 3658   2.629   6.917   5.059  0.1498  0.0402  0.0931
  279POPC   C2B 3659   2.675   7.136   5.506  0.0490  0.0478 -0.1174
  279POPC   C3B 3660   3.041   7.260   5.880  0.0061  0.0314 -0.1718
  279POPC   C4B 3661   3.313   7.538   6.109 -0.1794 -0.1200  0.0727
  280POPC   NC3 3662   7.625   1.146   3.418 -0.1281 -0.1622 -0.0581
  280POPC   PO4 3663   7.458   0.972   3.878 -0.1219 -0.1011 -0.1367
  280POPC   GL1 3664   7.475   1.366   4.089  0.0293  0.1636 -0.0215
  280POPC   GL2 3665   7.739   1.500   4.184 -0.0444 -0.1749  0.0205
  280POPC   C1A 3666   7.384   1.509   4.543 -0.0239 -0.2789 -0.2947
  280POPC   D2A 3667   7.311   1.760   4.914  0.2815 -0.0883 -0.1797
  280POPC   C3A 3668   7.609   1.656   5.219  0.0107  0.1146 -0.0135
  280POPC   C4A 3669   7.550   1.585   5.640 -0.0904 -0.1645 -0.2067
  280POPC   C1B 3670   7.825   1.284   4.547 -0.1839  0.0914  0.3114
  280POPC   C2B 3671   7.736   1.239   4.964 -0.4416 -0.0637  0.0150
  280POPC   C3B 3672   7.970   1.166   5.388 -0.2185 -0.2318 -0.0170
  280POPC   C4B 3673   7.879   1.226   5.842 -0.1198  0.0076 -0.1403
  281POPC   NC3 3674   2.689   2.341   3.990 -0.0026  0.1567 -0.0595
  281POPC   PO4 3675   2.535   2.060   4.177  0.0468  0.2137  0.1652
  281POPC   GL1 3676   2.531   1.852   4.602 -0.1987 -0.1135 -0.2963
  281POPC   GL2 3677   2.691   1.626   4.639  0.1094  0.1040  0.0954
  281POPC   C1A 3678   2.267   1.926   4.856  0.0671 -0.0284 -0.1872
  281POPC   D2A 3679   2.017   1.674   5.298  0.0417 -0.1331 -0.4217
  281POPC   C3A 3680   2.274   1.504   5.450 -0.0519  0.0607  0.1528
  281POPC   C4A 3681   2.389   1.167   5.481  0.0216 -0.0911  0.2104
  281POPC   C1B 3682   2.952   1.849   4.982 -0.0096  0.1012  0.0704
  281POPC   C2B 3683   3.265   1.748   5.288 -0.2306  0.0492  0.3598
  281POPC   C3B 3684   3.586   1.712   5.621  0.1791 -0.2668 -0.0504
  281POPC   C4B 3685   3.789   1.535   5.959  0.0227 -0.1078 -0.1193
  282POPC   NC3 3686   4.207   5.630   3.211 -0.0966  0.0097  0.1505
  282POPC   PO4 3687   3.704   5.621   3.388 -0.1849 -0.0406  0.1198
  282POPC   GL1 3688   3.639   5.755   3.810  0.2582  0.1430  0.2037
  282POPC   GL2 3689   3.842   6.150   3.949  0.1484  0.1129  0.4401
  282POPC   C1A 3690   3.343   6.026   4.155  0.0156 -0.1575  0.0707
  282POPC   D2A 3691   2.949   6.140   4.386  0.4330 -0.3517 -0.1578
  282POPC   C3A 3692   2.944   5.900   4.772 -0.2282  0.0416 -0.2810
  282POPC   C4A 3693   3.185   5.657   5.001  0.3043  0.0657 -0.0270
  282POPC   C1B 3694   3.821   6.055   4.308  0.0409  0.0265 -0.1122
  282POPC   C2B 3695   3.625   5.991   4.794 -0.0408 -0.0236 -0.3025
  282POPC   C3B 3696   3.742   5.769   5.188  0.0956  0.2660 -0.0914
  282POPC   C4B 3697   3.615   5.927   5.580 -0.1943  0.1423 -0.0046
  283POPC   NC3 3698   5.699   4.439   3.707  0.0650 -0.2209 -0.2388
  283POPC   PO4 3699   5.321   4.347   3.901  0.3503 -0.1859  0.3040
  283POPC   GL1 3700   5.208   4.313   4.374  0.1164 -0.0294  0.0069
  283POPC   GL2 3701   5.159   3.953   4.475 -0.0480 -0.0722 -0.0374
  283POPC   C1A 3702   5.285   4.434   4.821  0.1003 -0.1166 -0.0394
  283POPC   D2A 3703   5.151   4.441   5.175  0.1055 -0.2030  0.0700
  283POPC   C3A 3704   4.744   4.216   5.332  0.1690 -0.1635 -0.2907
  283POPC   C4A 3705   4.513   4.328   5.638  0.2858  0.0112  0.2526
  283POPC   C1B 3706   5.112   3.961   4.964 -0.0072 -0.0405 -0.0589
  283POPC   C2B 3707   5.103   3.812   5.375 -0.2582  0.2144  0.1452
  283POPC   C3B 3708   4.680   3.728   5.585  0.0027  0.1722  0.0017
  283POPC   C4B 3709   4.319   3.896   5.803 -0.2845 -0.0648 -0.1538
  284POPC   NC3 3710   4.895   6.611   3.281  0.2255 -0.1042  0.1415
  284POPC   PO4 3711   4.828   6.546   3.712 -0.3190 -0.2468  0.0117
  284POPC   GL1 3712   4.948   6.461   4.026  0.1094  0.1770  0.2570
  284POPC   GL2 3713   5.129   6.658   4.163  0.2853 -0.0760 -0.0266
  284POPC   C1A 3714   4.926   6.264   4.426  0.2362 -0.0538  0.0497
  284POPC   D2A 3715   4.905   6.225   4.850  0.0228 -0.1955 -0.3318
  284POPC   C3A 3716   4.989   6.270   5.410 -0.0571 -0.1840 -0.0602
  284POPC   C4A 3717   5.048   6.361   5.807 -0.3487  0.4596  0.3914
  284POPC   C1B 3718   5.303   6.617   4.565  0.1447  0.0746  0.0244
  284POPC   C2B 3719   5.366   6.680   5.089  0.0508  0.5083  0.0548
  284POPC   C3B 3720   5.530   6.470   5.317 -0.1462 -0.0531 -0.0618
  284POPC   C4B 3721   5.839   6.169   5.247  0.5820 -0.1120 -0.0282
  285POPC   NC3 3722   5.392   3.901   4.021  0.3082  0.1176  0.0214
  285POPC   PO4 3723   5.665   4.206   4.236 -0.2478 -0.0136 -0.0913
  285POPC   GL1 3724   5.974   3.945   4.477 -0.0146  0.1370 -0.0949
  285POPC   GL2 3725   5.740   3.763   4.520  0.0646  0.1198 -0.0370
  285POPC   C1A 3726   6.207   3.480   4.567  0.3822 -0.0266 -0.2341
  285POPC   D2A 3727   6.447   3.399   5.024 -0.0066 -0.1768  0.0462
  285POPC   C3A 3728   6.681   3.005   5.064 -0.1638 -0.2273  0.1090
  285POPC   C4A 3729   7.130   2.842   5.187 -0.1148  0.0860 -0.2082
  285POPC   C1B 3730   5.606   3.919   4.879 -0.0312 -0.5203 -0.3025
  285POPC   C2B 3731   5.532   4.040   5.245 -0.0490  0.0762 -0.0338
  285POPC   C3B 3732   5.537   4.012   5.758  0.0860  0.0656 -0.3752
  285POPC   C4B 3733   5.333   3.939   6.128 -0.2857 -0.0755  0.1508
  286POPC   NC3 3734   5.129   2.304   3.927 -0.0623  0.0764  0.3338
  286POPC   PO4 3735   4.589   2.438   3.793  0.2052  0.3146 -0.1366
  286POPC   GL1 3736   4.365   2.568   4.150 -0.0510 -0.2480  0.2386
  286POPC   GL2 3737   4.350   2.353   4.345  0.0244  0.0174 -0.5869
  286POPC   C1A 3738   4.428   2.952   4.373  0.2583  0.1206 -0.0834
  286POPC   D2A 3739   4.617   3.017   4.789  0.0119  0.3480  0.3785
  286POPC   C3A 3740   4.494   2.920   5.175  0.1898 -0.0036  0.0545
  286POPC   C4A 3741   4.326   2.806   5.626  0.0855 -0.0754  0.0177
  286POPC   C1B 3742   4.389   2.412   4.758  0.2002  0.3708 -0.0498
  286POPC   C2B 3743   4.668   2.279   5.048 -0.0192 -0.3115 -0.2013
  286POPC   C3B 3744   4.836   2.156   5.417  0.1220 -0.2293  0.0916
  286POPC   C4B 3745   5.146   2.143   5.723 -0.4815  0.2698 -0.3774
  287POPC   NC3 3746   0.369   6.964   3.900 -0.1158 -0.0932  0.2255
  287POPC   PO4 3747   0.233   7.317   4.159  0.2048  0.4424  0.1437
  287POPC   GL1 3748   0.340   7.454   4.440  0.0649  0.4250 -0.2346
  287POPC   GL2 3749   0.678   7.572   4.451  0.2160  0.4785  0.1921
  287POPC   C1A 3750   0.420   7.409   4.879 -0.1089  0.0135 -0.3464
  287POPC   D2A 3751   0.778   7.536   5.158 -0.1358 -0.2037  0.1102
  287POPC   C3A 3752   0.472   7.506   5.494  0.1148 -0.1110 -0.0927
  287POPC   C4A 3753   0.182   7.222   5.691 -0.0263  0.0634  0.0496
  287POPC   C1B 3754   0.501   7.931   4.503  0.0008  0.1350  0.0345
  287POPC   C2B 3755   0.294   8.191   4.711  0.5049 -0.0737 -0.4502
  287POPC   C3B 3756   0.261   8.402   5.195  0.1104 -0.1230  0.0309
  287POPC   C4B 3757   0.127   8.361   5.548  0.1823  0.1421 -0.1743
  288POPC   NC3 3758   1.062   9.627   3.826  0.0834  0.1341 -0.1258
  288POPC   PO4 3759   0.981  10.069   3.792 -0.2396  0.1643 -0.4781
  288POPC   GL1 3760   0.944  10.223   4.137  0.0340 -0.2319  0.2513
  288POPC   GL2 3761   0.748  10.386   4.309  0.0679  0.2381 -0.3703
  288POPC   C1A 3762   1.213  10.382   4.410 -0.0370  0.0859 -0.0666
  288POPC   D2A 3763   1.600  10.446   4.714  0.2400 -0.1929 -0.1732
  288POPC   C3A 3764   1.559  10.503   5.096  0.0616  0.1569 -0.3119
  288POPC   C4A 3765   1.393  10.912   5.120  0.0297  0.2993 -0.1656
  288POPC   C1B 3766   0.545  10.408   4.644 -0.1310 -0.2004 -0.0337
  288POPC   C2B 3767   0.433  10.645   5.068  0.0104 -0.1495  0.1211
  288POPC   C3B 3768  -0.076  10.560   5.164  0.2033  0.0589  0.5507
  288POPC   C4B 3769  -0.455  10.468   5.390  0.3046  0.0571  0.0846
  289POPC   NC3 3770   5.083   0.782   3.429  0.1244  0.2283  0.0418
  289POPC   PO4 3771   4.979   0.477   3.812  0.3637  0.1471  0.1288
  289POPC   GL1 3772   5.115   0.401   4.224 -0.1976 -0.0004  0.0016
  289POPC   GL2 3773   5.485   0.317   4.286  0.2687 -0.1080  0.2698
  289POPC   C1A 3774   5.138   0.450   4.624 -0.2840  0.1710 -0.1734
  289POPC   D2A 3775   5.129   0.684   5.058 -0.2129  0.2026  0.3059
  289POPC   C3A 3776   5.080   0.473   5.428 -0.0365 -0.2720  0.0391
  289POPC   C4A 3777   5.225   0.533   5.856  0.0144 -0.3239  0.2187
  289POPC   C1B 3778   5.578   0.304   4.648  0.0695  0.3995  0.1064
  289POPC   C2B 3779   5.514   0.278   5.066 -0.1928 -0.4465  0.0176
  289POPC   C3B 3780   5.340   0.085   5.478  0.2378  0.0109 -0.0556
  289POPC   C4B 3781   5.130  -0.026   5.757 -0.1665 -0.3222 -0.3251
  290POPC   NC3 3782   3.818   1.910   3.820  0.0549 -0.1724  0.0890
  290POPC   PO4 3783   3.998   2.018   4.202 -0.1389  0.0305  0.1457
  290POPC   GL1 3784   4.101   1.760   4.506 -0.0195 -0.1518  0.0916
  290POPC   GL2 3785   4.312   1.520   4.472  0.1824 -0.3455 -0.2350
  290POPC   C1A 3786   4.450   1.954   4.684  0.1044  0.1421  0.0143
  290POPC   D2A 3787   4.828   2.213   4.493  0.1707  0.3453 -0.0671
  290POPC   C3A 3788   4.896   2.514   4.651 -0.2703 -0.0214 -0.2365
  290POPC   C4A 3789   4.959   2.827   5.028 -0.2456  0.1106  0.3352
  290POPC   C1B 3790   4.245   1.557   4.973 -0.0009 -0.1792  0.0834
  290POPC   C2B 3791   4.262   1.874   5.209 -0.0359 -0.0058  0.0888
  290POPC   C3B 3792   4.029   2.048   5.439 -0.0303 -0.1106 -0.0530
  290POPC   C4B 3793   3.589   2.172   5.393  0.0729  0.0194 -0.0034
  291POPC   NC3 3794   4.258   3.770   3.480 -0.0935 -0.2171  0.0760
  291POPC   PO4 3795   4.051   3.456   3.722  0.3434  0.3395 -0.3362
  291POPC   GL1 3796   4.254   3.340   4.095  0.0126 -0.1361  0.1253
  291POPC   GL2 3797   4.387   3.711   4.060  0.3145 -0.1391 -0.3136
  291POPC   C1A 3798   4.359   3.408   4.506 -0.0706  0.2805 -0.0516
  291POPC   D2A 3799   4.253   3.368   4.810  0.0383 -0.1330 -0.0083
  291POPC   C3A 3800   3.928   3.525   4.946  0.0588  0.0806  0.1787
  291POPC   C4A 3801   3.570   3.361   5.257  0.0039  0.3091  0.0972
  291POPC   C1B 3802   3.930   3.654   4.372 -0.0166 -0.0095 -0.0268
  291POPC   C2B 3803   3.593   3.463   4.572  0.0416 -0.0361  0.2172
  291POPC   C3B 3804   3.288   3.631   4.873 -0.0279 -0.1003  0.5128
  291POPC   C4B 3805   3.056   3.459   5.273 -0.2843  0.0228 -0.0979
  292POPC   NC3 3806   5.027   4.683   4.084  0.3121  0.1279  0.2212
  292POPC   PO4 3807   5.420   4.989   3.978  0.1133 -0.1298 -0.2465
  292POPC   GL1 3808   5.103   5.157   4.381  0.0742  0.2055  0.0788
  292POPC   GL2 3809   4.858   5.373   4.316 -0.0654  0.1537 -0.0273
  292POPC   C1A 3810   4.976   5.238   4.808 -0.1336 -0.0160 -0.2732
  292POPC   D2A 3811   5.101   4.957   5.092 -0.2833  0.1599 -0.1312
  292POPC   C3A 3812   4.958   5.141   5.494 -0.4172 -0.1292 -0.2064
  292POPC   C4A 3813   4.953   4.967   6.005 -0.3163  0.1270  0.2417
  292POPC   C1B 3814   4.603   5.552   4.574 -0.2976 -0.0687 -0.1706
  292POPC   C2B 3815   4.549   5.909   4.907 -0.0086  0.0869  0.1268
  292POPC   C3B 3816   4.582   6.021   5.306  0.1692 -0.4006  0.0099
  292POPC   C4B 3817   4.664   5.953   5.812  0.2311 -0.5296  0.0010
  293POPC   NC3 3818   0.322   4.304   3.842  0.1640  0.2224  0.0055
  293POPC   PO4 3819  -0.138   4.098   3.693 -0.1213 -0.2680 -0.3435
  293POPC   GL1 3820  -0.073   3.875   4.152 -0.1534 -0.0570 -0.0673
  293POPC   GL2 3821   0.319   3.818   4.014  0.2055 -0.2620  0.0758
  293POPC   C1A 3822   0.070   3.817   4.505  0.0901  0.0071 -0.4611
  293POPC   D2A 3823   0.088   3.557   4.897 -0.1061  0.0029 -0.0727
  293POPC   C3A 3824  -0.189   3.518   5.180 -0.2375 -0.1594  0.0923
  293POPC   C4A 3825  -0.343   3.078   5.461  0.1758  0.2368  0.1607
  293POPC   C1B 3826   0.504   3.935   4.412 -0.1794 -0.0346  0.1498
  293POPC   C2B 3827   0.530   3.892   4.855  0.1499 -0.1756  0.0022
  293POPC   C3B 3828   0.564   3.544   5.193  0.3141  0.2978  0.0187
  293POPC   C4B 3829   0.555   3.126   5.535 -0.0641  0.2028  0.0185
  294POPC   NC3 3830   7.237   9.181   3.857  0.1803  0.2977  0.2205
  294POPC   PO4 3831   7.240   8.887   4.098  0.1395  0.0461  0.0875
  294POPC   GL1 3832   7.302   8.998   4.486 -0.5870  0.0722 -0.4423
  294POPC   GL2 3833   7.555   8.720   4.476 -0.1851 -0.1055  0.2985
  294POPC   C1A 3834   7.382   9.252   4.888  0.0338 -0.0659  0.2564
  294POPC   D2A 3835   7.277   9.427   5.217  0.1603 -0.2614 -0.1608
  294POPC   C3A 3836   7.176   9.059   5.536  0.1126 -0.3184 -0.0367
  294POPC   C4A 3837   6.819   8.756   5.463  0.1370  0.1588  0.0862
  294POPC   C1B 3838   7.817   9.025   4.654  0.1344  0.0242 -0.1413
  294POPC   C2B 3839   7.880   9.374   4.860  0.2297 -0.0946 -0.0770
  294POPC   C3B 3840   7.598   9.765   4.974 -0.2066  0.2783  0.1089
  294POPC   C4B 3841   7.471  10.155   4.823  0.3311 -0.1044 -0.2307
  295POPC   NC3 3842   8.054   2.898   3.695 -0.1321  0.0496  0.2703
  295POPC   PO4 3843   7.932   3.226   4.037 -0.0676 -0.0303  0.1762
  295POPC   GL1 3844   8.069   3.368   4.510 -0.1824  0.0043  0.1785
  295POPC   GL2 3845   8.034   3.117   4.537  0.0288 -0.1500  0.2122
  295POPC   C1A 3846   7.873   3.646   4.782 -0.1048 -0.0173  0.0211
  295POPC   D2A 3847   7.706   4.139   4.971 -0.0419  0.4176 -0.0360
  295POPC   C3A 3848   7.462   4.557   4.859  0.2014  0.1553 -0.0132
  295POPC   C4A 3849   7.227   4.701   5.229  0.1261  0.0199 -0.1093
  295POPC   C1B 3850   7.900   3.152   4.920  0.0815  0.1913  0.2882
  295POPC   C2B 3851   7.858   3.005   5.439 -0.2112  0.0934  0.1240
  295POPC   C3B 3852   7.422   3.325   5.616 -0.1598  0.0316  0.1317
  295POPC   C4B 3853   7.333   3.489   5.969 -0.0611  0.3786 -0.1220
  296POPC   NC3 3854   8.006   1.687   3.765 -0.1563  0.0740  0.0648
  296POPC   PO4 3855   8.297   1.951   3.635 -0.1637  0.0027  0.3692
  296POPC   GL1 3856   8.478   2.013   4.085  0.1685  0.2343 -0.2406
  296POPC   GL2 3857   8.426   1.795   4.298 -0.1225 -0.0009  0.1594
  296POPC   C1A 3858   8.434   2.209   4.562 -0.2015  0.1177 -0.0441
  296POPC   D2A 3859   8.339   2.119   4.973  0.0314  0.1807  0.0728
  296POPC   C3A 3860   8.577   2.217   5.374  0.1109  0.0475 -0.0273
  296POPC   C4A 3861   9.015   2.347   5.309 -0.1253  0.0146 -0.2506
  296POPC   C1B 3862   8.680   1.831   4.574  0.1269 -0.4039  0.0518
  296POPC   C2B 3863   8.875   1.995   4.943  0.3325  0.1274  0.0548
  296POPC   C3B 3864   8.925   1.786   5.307 -0.1023  0.1701 -0.0412
  296POPC   C4B 3865   8.851   1.511   5.628 -0.0786  0.2429 -0.3721
  297POPC   NC3 3866   0.116   8.719   3.953 -0.0440 -0.0342  0.1081
  297POPC   PO4 3867   0.078   8.246   3.875  0.0319  0.1326  0.0974
  297POPC   GL1 3868   0.099   8.091   4.222 -0.1397 -0.0559  0.0175
  297POPC   GL2 3869  -0.040   7.763   4.342  0.1551  0.0355 -0.0830
  297POPC   C1A 3870  -0.191   8.184   4.597  0.1127  0.2118  0.1528
  297POPC   D2A 3871  -0.543   8.262   4.860  0.0702  0.0416  0.1132
  297POPC   C3A 3872  -0.614   8.572   5.135  0.1271  0.3546  0.0665
  297POPC   C4A 3873  -0.897   8.806   5.390 -0.0760 -0.2463 -0.2010
  297POPC   C1B 3874   0.072   7.737   4.804 -0.0086 -0.1545 -0.1732
  297POPC   C2B 3875   0.305   7.876   5.115 -0.0463  0.2914 -0.1029
  297POPC   C3B 3876   0.514   7.992   5.489 -0.4651 -0.1377 -0.0772
  297POPC   C4B 3877   0.892   7.811   5.595 -0.0317 -0.0290 -0.0519
  298POPC   NC3 3878   6.803   8.696   4.278 -0.2948 -0.1411 -0.0066
  298POPC   PO4 3879   6.478   8.840   4.287  0.0729  0.3506 -0.2234
  298POPC   GL1 3880   6.496   8.639   4.666  0.2815  0.0761  0.0556
  298POPC   GL2 3881   6.407   8.813   4.904  0.3012  0.2754  0.2312
  298POPC   C1A 3882   5.984   8.552   4.865 -0.0753  0.2222  0.1635
  298POPC   D2A 3883   5.702   8.366   4.861  0.0775  0.1018 -0.1784
  298POPC   C3A 3884   5.474   8.251   5.116  0.1054  0.1419 -0.0294
  298POPC   C4A 3885   5.144   8.251   5.440 -0.1886  0.1166 -0.3665
  298POPC   C1B 3886   6.401   8.519   5.249 -0.2286 -0.3650 -0.1049
  298POPC   C2B 3887   6.546   8.326   5.569  0.1049 -0.1112  0.2420
  298POPC   C3B 3888   6.890   8.158   5.692  0.0844 -0.3178  0.1478
  298POPC   C4B 3889   7.223   8.362   5.866 -0.0206 -0.2142  0.2132
  299POPC   NC3 3890   4.889   9.700   3.669 -0.0329 -0.1501  0.1796
  299POPC   PO4 3891   5.040  10.191   3.659 -0.0589  0.2176  0.0037
  299POPC   GL1 3892   4.981  10.271   4.079 -0.1372  0.2620 -0.1401
  299POPC   GL2 3893   4.829  10.604   4.162 -0.2901 -0.0758 -0.3848
  299POPC   C1A 3894   4.892  10.300   4.606  0.3126 -0.1407 -0.2597
  299POPC   D2A 3895   4.672  10.076   4.893  0.0573  0.0840  0.0033
  299POPC   C3A 3896   4.729   9.637   5.187 -0.2480  0.1109 -0.1709
  299POPC   C4A 3897   4.739   9.257   5.338  0.3795  0.2230 -0.3419
  299POPC   C1B 3898   4.781  10.720   4.489 -0.3221 -0.1888  0.1059
  299POPC   C2B 3899   4.743  10.849   4.924  0.0425  0.2308  0.0747
  299POPC   C3B 3900   4.780  10.482   5.200  0.2256 -0.1217 -0.1868
  299POPC   C4B 3901   4.714  10.717   5.501 -0.2820 -0.0967 -0.0300
  300POPC   NC3 3902   8.586   4.366   3.817 -0.0746  0.0997 -0.2249
  300POPC   PO4 3903   8.413   3.993   3.985  0.0415  0.0190  0.1034
  300POPC   GL1 3904   8.549   3.877   4.369  0.0053 -0.1368  0.0361
  300POPC   GL2 3905   8.283   3.917   4.418 -0.0546  0.2796 -0.1215
  300POPC   C1A 3906   8.611   3.606   4.768 -0.0485 -0.1383 -0.0575
  300POPC   D2A 3907   8.582   3.577   5.287 -0.1074  0.0530  0.1374
  300POPC   C3A 3908   8.843   3.593   5.587  0.0999 -0.0528 -0.3966
  300POPC   C4A 3909   9.044   3.713   6.076 -0.1805  0.4202  0.3074
  300POPC   C1B 3910   8.310   3.979   4.956  0.0973 -0.3948 -0.1913
  300POPC   C2B 3911   8.256   4.422   5.171  0.1926 -0.6261 -0.0957
  300POPC   C3B 3912   7.933   4.751   5.326  0.4021 -0.1927  0.0703
  300POPC   C4B 3913   7.651   4.843   5.603  0.0880 -0.4022  0.1008
  301POPC   NC3 3914  10.263   3.173   3.975  0.2022  0.0149 -0.0262
  301POPC   PO4 3915   9.752   3.364   3.891 -0.1275  0.0147  0.0572
  301POPC   GL1 3916   9.839   3.190   4.304  0.1024  0.1998 -0.2725
  301POPC   GL2 3917   9.484   3.253   4.335  0.0865 -0.3584 -0.1817
  301POPC   C1A 3918   9.872   2.950   4.685 -0.2061 -0.1205 -0.2869
  301POPC   D2A 3919   9.920   2.891   5.193  0.2239 -0.2643 -0.1664
  301POPC   C3A 3920   9.998   2.723   5.678  0.0132  0.1071 -0.1335
  301POPC   C4A 3921  10.098   2.560   6.099 -0.0587 -0.1518 -0.2287
  301POPC   C1B 3922   9.332   2.962   4.634 -0.1229  0.2166 -0.0178
  301POPC   C2B 3923   9.610   2.627   4.893 -0.0176 -0.0124  0.2974
  301POPC   C3B 3924   9.598   2.408   5.278 -0.2881  0.2839 -0.4719
  301POPC   C4B 3925   9.370   2.396   5.635 -0.0196  0.1826  0.2347
  302POPC   NC3 3926   2.524   4.402   3.176 -0.0469  0.1898  0.0234
  302POPC   PO4 3927   2.153   4.133   3.307  0.0670 -0.0336 -0.1201
  302POPC   GL1 3928   2.134   3.967   3.789  0.0730 -0.0134 -0.2962
  302POPC   GL2 3929   2.049   3.665   3.969  0.1518  0.2463  0.3808
  302POPC   C1A 3930   2.436   4.180   4.196  0.1761  0.3987  0.1885
  302POPC   D2A 3931   2.784   4.371   4.444  0.4281  0.1234 -0.2127
  302POPC   C3A 3932   3.058   4.223   4.095 -0.2326  0.0170  0.2724
  302POPC   C4A 3933   3.468   4.390   4.052 -0.0975 -0.0598 -0.1204
  302POPC   C1B 3934   1.624   3.804   4.181  0.2051  0.0584  0.0790
  302POPC   C2B 3935   1.409   4.187   4.058 -0.1512  0.0311  0.1032
  302POPC   C3B 3936   1.251   4.606   4.019  0.0712  0.0403  0.1412
  302POPC   C4B 3937   1.470   5.003   4.092  0.0583  0.2916  0.3328
  303POPC   NC3 3938   0.301   8.081   3.459  0.1735  0.0649  0.2924
  303POPC   PO4 3939   0.607   7.963   3.623  0.1727  0.1026 -0.1822
  303POPC   GL1 3940   0.735   7.901   4.033  0.0034 -0.0600  0.3413
  303POPC   GL2 3941   0.656   8.224   4.140 -0.1992 -0.0047  0.0200
  303POPC   C1A 3942   1.048   7.909   4.373  0.2235 -0.0520 -0.3320
  303POPC   D2A 3943   1.010   7.927   4.816 -0.0216  0.1102  0.1326
  303POPC   C3A 3944   0.927   8.148   5.169 -0.0389  0.0036  0.0782
  303POPC   C4A 3945   0.830   8.630   5.165  0.0665  0.0021  0.1796
  303POPC   C1B 3946   0.749   8.364   4.544 -0.1614 -0.1052  0.0336
  303POPC   C2B 3947   1.197   8.468   4.783  0.4048  0.2704  0.0267
  303POPC   C3B 3948   1.640   8.498   5.070  0.1313  0.0759  0.1904
  303POPC   C4B 3949   1.734   8.542   5.459  0.0685  0.1691 -0.0301
  304POPC   NC3 3950   6.191   5.844   3.850 -0.0794 -0.1907 -0.0648
  304POPC   PO4 3951   5.853   6.075   3.800 -0.0229  0.1562  0.4023
  304POPC   GL1 3952   5.660   6.184   4.258 -0.1711 -0.2184  0.1161
  304POPC   GL2 3953   5.405   6.032   4.212 -0.2340 -0.1658  0.0701
  304POPC   C1A 3954   5.815   6.449   4.508  0.4429  0.5392 -0.0239
  304POPC   D2A 3955   5.862   6.537   4.937 -0.1823 -0.0543 -0.0384
  304POPC   C3A 3956   5.920   6.799   5.260 -0.0851 -0.0482  0.0332
  304POPC   C4A 3957   6.036   7.067   5.588 -0.0349  0.1002  0.0958
  304POPC   C1B 3958   5.435   6.074   4.638  0.1267  0.3272 -0.3315
  304POPC   C2B 3959   5.344   6.079   5.051  0.2353  0.1495 -0.1478
  304POPC   C3B 3960   5.443   6.002   5.491  0.0757 -0.1112  0.3666
  304POPC   C4B 3961   5.505   6.177   5.899 -0.0958 -0.2293  0.1304
  305POPC   NC3 3962   4.578   8.054   4.084  0.2824 -0.0496  0.1877
  305POPC   PO4 3963   4.871   7.665   4.238 -0.0382 -0.2487 -0.1442
  305POPC   GL1 3964   4.648   7.577   4.464  0.2588  0.5081  0.1320
  305POPC   GL2 3965   4.595   7.873   4.593  0.0349 -0.0075 -0.0234
  305POPC   C1A 3966   4.647   7.327   4.857  0.1741  0.0008  0.0870
  305POPC   D2A 3967   4.401   7.009   5.037  0.0260  0.1534  0.2702
  305POPC   C3A 3968   4.139   7.108   5.428 -0.2023 -0.2448  0.1086
  305POPC   C4A 3969   3.801   7.341   5.682 -0.1298  0.1828  0.3002
  305POPC   C1B 3970   4.880   7.769   4.911  0.3307 -0.1190 -0.0691
  305POPC   C2B 3971   4.946   7.759   5.314  0.0114  0.4746  0.1510
  305POPC   C3B 3972   5.185   7.700   5.707  0.0685 -0.4011 -0.0016
  305POPC   C4B 3973   5.250   7.669   6.105  0.0784 -0.0013  0.2702
  306POPC   NC3 3974   3.167   2.567   3.584 -0.0815  0.0448 -0.0143
  306POPC   PO4 3975   3.196   2.915   3.702  0.2632  0.0749 -0.1193
  306POPC   GL1 3976   3.546   2.947   4.098  0.1833 -0.1040  0.2607
  306POPC   GL2 3977   3.714   3.251   4.128 -0.2025 -0.0697 -0.1164
  306POPC   C1A 3978   3.389   2.981   4.520  0.2411 -0.1686  0.2442
  306POPC   D2A 3979   3.189   3.153   4.786  0.0482 -0.2700  0.0614
  306POPC   C3A 3980   3.263   2.964   5.141 -0.1990  0.2197  0.0567
  306POPC   C4A 3981   3.179   2.958   5.510  0.2980  0.2469 -0.0596
  306POPC   C1B 3982   3.919   3.117   4.463 -0.3664 -0.3048 -0.3541
  306POPC   C2B 3983   3.707   3.043   4.921 -0.0650  0.0009  0.0843
  306POPC   C3B 3984   3.983   3.057   5.306  0.0207  0.3141  0.3793
  306POPC   C4B 3985   3.707   3.114   5.667 -0.2478 -0.1126 -0.0877
  307POPC   NC3 3986   2.896   8.643   3.570 -0.0821 -0.0796 -0.2669
  307POPC   PO4 3987   2.917   8.258   3.740 -0.0625  0.0125  0.3723
  307POPC   GL1 3988   2.886   8.289   4.273 -0.4296  0.2534  0.5054
  307POPC   GL2 3989   2.903   8.752   4.197 -0.2626  0.1294 -0.2155
  307POPC   C1A 3990   2.838   8.036   4.610  0.1713  0.0389  0.1345
  307POPC   D2A 3991   2.972   7.939   5.013 -0.1000  0.2011 -0.0320
  307POPC   C3A 3992   3.028   7.999   5.402 -0.0601  0.0557 -0.2298
  307POPC   C4A 3993   3.399   8.186   5.567  0.2265  0.1771  0.0772
  307POPC   C1B 3994   2.786   9.190   4.330 -0.1232 -0.1388  0.1498
  307POPC   C2B 3995   2.777   9.635   4.427 -0.3246 -0.1714 -0.1966
  307POPC   C3B 3996   2.716   9.896   4.752 -0.0562  0.0775  0.0450
  307POPC   C4B 3997   2.943  10.144   4.879 -0.0673 -0.1038  0.1151
  308POPC   NC3 3998  10.384   7.529   3.952 -0.0585  0.1176 -0.0199
  308POPC   PO4 3999  10.099   7.297   4.115  0.1450  0.0925 -0.2018
  308POPC   GL1 4000  10.194   7.226   4.537  0.0141  0.0350  0.4982
  308POPC   GL2 4001  10.490   7.260   4.544 -0.4630 -0.0776  0.1371
  308POPC   C1A 4002  10.324   7.368   4.996  0.3715  0.0196 -0.2289
  308POPC   D2A 4003  10.649   7.451   5.185  0.0463  0.0910 -0.1445
  308POPC   C3A 4004  10.619   7.829   5.471 -0.0671 -0.2414 -0.1596
  308POPC   C4A 4005  10.455   8.133   5.140  0.0897 -0.3613 -0.0575
  308POPC   C1B 4006  10.729   7.071   4.873 -0.0902  0.1257  0.1564
  308POPC   C2B 4007  10.958   7.036   5.167  0.1646 -0.0476 -0.0658
  308POPC   C3B 4008  11.376   7.119   5.482  0.5006  0.0145  0.1242
  308POPC   C4B 4009  11.781   7.079   5.739  0.1994  0.0593  0.0593
  309POPC   NC3 4010   9.907   2.691   4.040  0.1150 -0.3358 -0.0746
  309POPC   PO4 4011  10.111   2.340   3.832  0.4750  0.1869 -0.0818
  309POPC   GL1 4012  10.244   2.404   4.242 -0.2328 -0.1191 -0.1353
  309POPC   GL2 4013  10.566   2.566   4.069  0.4052 -0.0056  0.1996
  309POPC   C1A 4014  10.128   2.525   4.729  0.1783 -0.2242 -0.0951
  309POPC   D2A 4015  10.043   2.420   5.090  0.1746 -0.2424  0.2023
  309POPC   C3A 4016  10.042   2.102   5.476  0.0581 -0.1023  0.0015
  309POPC   C4A 4017   9.819   2.205   5.815  0.1771  0.0537 -0.1290
  309POPC   C1B 4018  10.734   2.942   4.374  0.0673  0.1285  0.0530
  309POPC   C2B 4019  10.955   3.096   4.856 -0.2056  0.1413 -0.1701
  309POPC   C3B 4020  10.796   3.165   5.157  0.2725 -0.1692  0.0411
  309POPC   C4B 4021  10.711   3.272   5.538  0.1911 -0.1608 -0.0297
  310POPC   NC3 4022   9.723   9.449   3.781  0.1862 -0.2882 -0.0638
  310POPC   PO4 4023  10.170   9.363   3.813  0.2053 -0.3498  0.2130
  310POPC   GL1 4024  10.083   9.440   4.178  0.0880 -0.3395 -0.0482
  310POPC   GL2 4025  10.264   9.733   4.210 -0.1448  0.2090 -0.1238
  310POPC   C1A 4026  10.196   9.348   4.653 -0.0069 -0.2114  0.1081
  310POPC   D2A 4027  10.243   9.567   5.034  0.1838 -0.4128 -0.2041
  310POPC   C3A 4028  10.087   9.558   5.364 -0.0911  0.0420  0.2945
  310POPC   C4A 4029   9.733   9.312   5.395  0.1666  0.0045 -0.0389
  310POPC   C1B 4030  10.405   9.827   4.529  0.1277  0.3356  0.1976
  310POPC   C2B 4031  10.775   9.776   4.683 -0.0013  0.1636 -0.4881
  310POPC   C3B 4032  11.010   9.737   4.939  0.1084  0.1048 -0.0832
  310POPC   C4B 4033  11.401   9.653   5.222 -0.1986 -0.0341 -0.0141
  311POPC   NC3 4034  10.037   4.349   3.714 -0.0408 -0.1844  0.0357
  311POPC   PO4 4035  10.042   4.867   3.725  0.2008 -0.1531 -0.0403
  311POPC   GL1 4036  10.274   4.724   4.071 -0.1508  0.2772 -0.0826
  311POPC   GL2 4037  10.355   4.342   4.189 -0.1470 -0.3049 -0.1479
  311POPC   C1A 4038  10.239   4.865   4.458 -0.2306  0.0788 -0.0620
  311POPC   D2A 4039  10.003   5.185   4.628 -0.1882 -0.4050  0.1402
  311POPC   C3A 4040   9.713   5.129   4.999  0.1482  0.0046  0.0094
  311POPC   C4A 4041   9.431   5.227   5.411 -0.5141 -0.2299  0.1830
  311POPC   C1B 4042  10.297   4.383   4.640  0.2035  0.0793 -0.1449
  311POPC   C2B 4043  10.283   4.584   4.989  0.3227  0.0766  0.0291
  311POPC   C3B 4044  10.243   4.595   5.403 -0.2550  0.0179  0.0051
  311POPC   C4B 4045  10.345   4.657   5.805 -0.3857 -0.2829  0.0745
  312POPC   NC3 4046   7.202   2.265   3.398 -0.0888 -0.1896 -0.1042
  312POPC   PO4 4047   6.827   2.139   3.757 -0.0568 -0.2523  0.0513
  312POPC   GL1 4048   6.975   2.145   4.146 -0.2321 -0.1244 -0.0070
  312POPC   GL2 4049   7.032   2.477   4.352 -0.1743 -0.1218  0.0300
  312POPC   C1A 4050   6.996   1.863   4.521  0.0106  0.1994 -0.2027
  312POPC   D2A 4051   6.841   1.921   5.050 -0.0422 -0.0316 -0.1454
  312POPC   C3A 4052   7.202   1.889   5.423 -0.0460  0.1231 -0.1701
  312POPC   C4A 4053   7.619   2.078   5.662 -0.3177 -0.0975 -0.1978
  312POPC   C1B 4054   7.161   2.308   4.827 -0.0300  0.1084 -0.1700
  312POPC   C2B 4055   7.148   2.402   5.341  0.0799  0.2061 -0.0769
  312POPC   C3B 4056   6.949   2.164   5.858 -0.0548  0.4618 -0.0439
  312POPC   C4B 4057   6.823   1.959   6.267 -0.0392 -0.1831  0.1330
  313POPC   NC3 4058   2.810   3.262   3.667 -0.0812 -0.2559 -0.0949
  313POPC   PO4 4059   2.642   2.864   3.855 -0.4050  0.0286  0.1200
  313POPC   GL1 4060   2.932   3.076   4.104 -0.1534  0.1224 -0.2388
  313POPC   GL2 4061   2.834   2.955   4.437  0.1258  0.0548  0.2649
  313POPC   C1A 4062   3.091   3.436   4.332  0.2202  0.1061  0.1871
  313POPC   D2A 4063   2.787   3.452   4.815 -0.1305 -0.2257 -0.2181
  313POPC   C3A 4064   2.722   3.175   4.971  0.3469 -0.1031  0.1890
  313POPC   C4A 4065   2.788   2.761   5.226 -0.2290 -0.0452 -0.3980
  313POPC   C1B 4066   3.028   2.676   4.757  0.0288 -0.0409 -0.0824
  313POPC   C2B 4067   3.164   2.321   4.991  0.2721 -0.1505  0.0316
  313POPC   C3B 4068   3.459   2.068   4.896 -0.0060 -0.3230  0.1176
  313POPC   C4B 4069   3.831   2.146   4.831 -0.1077  0.0862 -0.0617
  314POPC   NC3 4070   4.927   7.183   4.121 -0.3252  0.1077  0.1347
  314POPC   PO4 4071   5.302   7.123   4.006 -0.5151 -0.2975 -0.1187
  314POPC   GL1 4072   5.281   7.117   4.441 -0.2162 -0.0103 -0.2229
  314POPC   GL2 4073   5.027   7.244   4.590 -0.0703  0.0155 -0.0320
  314POPC   C1A 4074   5.595   7.031   4.779 -0.1789 -0.1444 -0.0565
  314POPC   D2A 4075   5.578   7.169   5.219 -0.3102  0.0504 -0.0396
  314POPC   C3A 4076   5.440   6.892   5.558 -0.0189  0.0335 -0.3085
  314POPC   C4A 4077   5.459   6.665   5.883  0.1298  0.3357  0.1522
  314POPC   C1B 4078   5.093   7.270   4.997 -0.0543  0.1371 -0.3925
  314POPC   C2B 4079   5.136   7.302   5.427  0.1912 -0.0042  0.1267
  314POPC   C3B 4080   5.585   7.396   5.727  0.4082 -0.0217 -0.0552
  314POPC   C4B 4081   5.683   7.254   6.191  0.2526 -0.0649 -0.0355
  315POPC   NC3 4082   7.502   4.182   3.630 -0.0478 -0.0692  0.0311
  315POPC   PO4 4083   7.575   4.525   3.866  0.2257 -0.4469 -0.2250
  315POPC   GL1 4084   7.487   4.547   4.323  0.0428  0.2351  0.1927
  315POPC   GL2 4085   7.207   4.734   4.206 -0.1683 -0.0202  0.3186
  315POPC   C1A 4086   7.399   4.159   4.546 -0.4462  0.0408 -0.0081
  315POPC   D2A 4087   7.323   3.815   4.846  0.0114  0.3048 -0.3491
  315POPC   C3A 4088   6.943   3.826   5.286 -0.3668 -0.0229  0.0095
  315POPC   C4A 4089   6.952   3.827   5.654 -0.2559  0.0030 -0.0843
  315POPC   C1B 4090   7.230   4.889   4.668 -0.0007 -0.2908  0.3673
  315POPC   C2B 4091   7.484   5.069   4.975 -0.1406 -0.2833  0.1497
  315POPC   C3B 4092   7.666   5.281   5.313  0.0979  0.1708  0.0364
  315POPC   C4B 4093   7.687   5.286   5.716  0.0037 -0.0097 -0.0870
  316POPC   NC3 4094   8.775   2.296   3.813 -0.0194 -0.2306 -0.1633
  316POPC   PO4 4095   8.754   2.702   3.930 -0.1428  0.1015 -0.0245
  316POPC   GL1 4096   8.811   2.423   4.295  0.0452 -0.0084 -0.1388
  316POPC   GL2 4097   8.721   2.579   4.468 -0.0116  0.1595  0.0257
  316POPC   C1A 4098   9.022   2.091   4.403 -0.0653 -0.1618 -0.2682
  316POPC   D2A 4099   9.232   1.664   4.653  0.0747 -0.3416 -0.0981
  316POPC   C3A 4100   8.967   1.411   4.821 -0.3307  0.1112 -0.0893
  316POPC   C4A 4101   8.627   1.568   5.021  0.2671 -0.2138  0.0675
  316POPC   C1B 4102   8.677   2.574   4.927 -0.3357  0.2586 -0.1163
  316POPC   C2B 4103   8.652   2.711   5.420  0.3076  0.0053 -0.0270
  316POPC   C3B 4104   9.071   2.785   5.541 -0.1064  0.0936  0.1506
  316POPC   C4B 4105   9.496   2.843   5.476 -0.0254 -0.4344 -0.0894
  317POPC   NC3 4106   7.358  10.622   4.211  0.1438 -0.0268  0.0887
  317POPC   PO4 4107   7.162  10.277   4.079  0.2907  0.0971  0.0877
  317POPC   GL1 4108   7.079  10.408   4.575 -0.3340 -0.1276 -0.1459
  317POPC   GL2 4109   7.320  10.619   4.739 -0.1114  0.0130 -0.3479
  317POPC   C1A 4110   7.023  10.420   5.052  0.2474 -0.0139  0.1300
  317POPC   D2A 4111   7.242  10.308   5.469  0.1439  0.0477  0.1610
  317POPC   C3A 4112   7.453  10.609   5.703  0.0565  0.2578 -0.1635
  317POPC   C4A 4113   7.683  10.528   6.023 -0.3726  0.4031  0.0095
  317POPC   C1B 4114   7.590  10.508   5.131 -0.0260  0.1578  0.1079
  317POPC   C2B 4115   7.763  10.125   5.259 -0.0746  0.0245  0.2357
  317POPC   C3B 4116   8.029   9.965   5.570  0.1200  0.2232 -0.3252
  317POPC   C4B 4117   8.415   9.683   5.585  0.1307  0.0525  0.0058
  318POPC   NC3 4118   7.020   9.866   3.831  0.0136 -0.4906  0.0420
  318POPC   PO4 4119   6.634   9.690   3.925  0.0942  0.2010  0.0934
  318POPC   GL1 4120   6.738  10.048   4.256  0.4283  0.0086 -0.1978
  318POPC   GL2 4121   6.562  10.273   4.269  0.1138 -0.0841  0.0653
  318POPC   C1A 4122   6.721  10.116   4.761 -0.1386 -0.1241  0.0048
  318POPC   D2A 4123   6.566  10.206   5.079 -0.0074 -0.1786 -0.3269
  318POPC   C3A 4124   6.203  10.360   5.186 -0.0214 -0.1173  0.2782
  318POPC   C4A 4125   6.028  10.430   5.588 -0.0292 -0.0642  0.0049
  318POPC   C1B 4126   6.558  10.578   4.609 -0.2100 -0.1028 -0.0821
  318POPC   C2B 4127   6.626  10.701   5.082  0.2176  0.0899 -0.0159
  318POPC   C3B 4128   6.679  10.503   5.489  0.1763 -0.1486  0.1363
  318POPC   C4B 4129   6.461  10.115   5.707  0.0265 -0.3651  0.0672
  319POPC   NC3 4130   8.830   0.720   3.655 -0.1522  0.0313  0.3480
  319POPC   PO4 4131   8.490   0.912   3.645  0.0318 -0.2217 -0.3991
  319POPC   GL1 4132   8.414   1.012   4.105 -0.1421 -0.2156 -0.0539
  319POPC   GL2 4133   8.286   1.340   4.198 -0.0918 -0.0048  0.0691
  319POPC   C1A 4134   8.181   0.938   4.526 -0.0607 -0.2972 -0.1345
  319POPC   D2A 4135   8.220   0.637   4.774  0.0167 -0.1050  0.3807
  319POPC   C3A 4136   8.652   0.534   4.599 -0.2689  0.0981 -0.1866
  319POPC   C4A 4137   8.861   0.726   4.324 -0.0715  0.0156 -0.2628
  319POPC   C1B 4138   8.246   1.474   4.643  0.4805  0.0293 -0.1371
  319POPC   C2B 4139   8.254   1.211   4.994  0.0337 -0.1408  0.0927
  319POPC   C3B 4140   8.490   1.197   5.340  0.1337 -0.1401 -0.1856
  319POPC   C4B 4141   8.352   1.329   5.746 -0.0778  0.0840  0.1747
  320POPC   NC3 4142   2.019   8.076   3.664  0.1797 -0.2045 -0.2830
  320POPC   PO4 4143   1.554   8.277   3.556 -0.1093  0.2238 -0.1498
  320POPC   GL1 4144   1.735   8.305   4.048 -0.2709 -0.0188 -0.1123
  320POPC   GL2 4145   1.804   8.562   4.167 -0.2798 -0.0910 -0.2276
  320POPC   C1A 4146   1.731   7.955   4.372  0.0630 -0.1522  0.0212
  320POPC   D2A 4147   1.494   7.640   4.547  0.0683 -0.1322  0.0447
  320POPC   C3A 4148   1.428   7.564   4.987 -0.0761  0.0361  0.4126
  320POPC   C4A 4149   1.297   7.538   5.449  0.1450  0.0634 -0.1146
  320POPC   C1B 4150   1.639   8.350   4.598 -0.4460  0.1177 -0.1256
  320POPC   C2B 4151   1.524   8.030   4.851 -0.0712 -0.2737  0.0196
  320POPC   C3B 4152   1.398   8.043   5.358 -0.0326  0.0865  0.1173
  320POPC   C4B 4153   1.411   8.028   5.781  0.1742 -0.0851 -0.1712
  321POPC   NC3 4154   9.590   0.567   3.500  0.1207  0.0497 -0.0090
  321POPC   PO4 4155   9.396   0.206   3.687  0.1740 -0.0204  0.3878
  321POPC   GL1 4156   9.492   0.208   4.119  0.2926  0.2504  0.3387
  321POPC   GL2 4157   9.798   0.061   4.176  0.0209 -0.0407  0.1751
  321POPC   C1A 4158   9.181   0.390   4.424  0.2458  0.2355  0.0006
  321POPC   D2A 4159   9.127   0.512   4.819  0.0320  0.2373 -0.3472
  321POPC   C3A 4160   8.761   0.292   5.074 -0.1388  0.1938  0.3422
  321POPC   C4A 4161   8.691   0.096   5.461  0.0481 -0.1393  0.2679
  321POPC   C1B 4162   9.996   0.233   4.479 -0.0362 -0.2700 -0.0886
  321POPC   C2B 4163  10.069   0.564   4.783  0.1045 -0.0586 -0.0745
  321POPC   C3B 4164  10.173   0.741   5.094  0.3567  0.2100 -0.0520
  321POPC   C4B 4165  10.212   0.799   5.596 -0.0857 -0.1817 -0.3668
  322POPC   NC3 4166   8.919   4.966   4.166  0.2375  0.0877 -0.2215
  322POPC   PO4 4167   9.275   5.287   4.101  0.0118 -0.0830 -0.0119
  322POPC   GL1 4168   9.425   5.685   4.298  0.1875  0.2123  0.5335
  322POPC   GL2 4169   9.413   6.025   4.373  0.0980  0.0648 -0.0314
  322POPC   C1A 4170   9.585   5.587   4.727  0.4627 -0.1942 -0.0849
  322POPC   D2A 4171   9.945   5.564   5.072  0.2484 -0.2317  0.0691
  322POPC   C3A 4172  10.077   5.235   5.346 -0.0471  0.3404 -0.3462
  322POPC   C4A 4173  10.140   5.078   5.676 -0.0431 -0.1964 -0.0707
  322POPC   C1B 4174   9.236   5.936   4.788 -0.0147  0.1458 -0.1259
  322POPC   C2B 4175   9.483   5.812   5.185 -0.0122  0.0849 -0.0905
  322POPC   C3B 4176   9.695   5.625   5.550  0.1898 -0.1977 -0.2727
  322POPC   C4B 4177   9.686   5.262   5.854  0.0520 -0.6875  0.2714
  323POPC   NC3 4178   7.219   8.465   3.771  0.1364  0.4236  0.0182
  323POPC   PO4 4179   7.268   8.364   4.191 -0.2193  0.0130  0.1636
  323POPC   GL1 4180   7.125   8.115   4.444  0.0335  0.1437 -0.1982
  323POPC   GL2 4181   6.783   8.148   4.568  0.0330  0.1452  0.3090
  323POPC   C1A 4182   7.161   7.962   4.856  0.0249 -0.2671 -0.3013
  323POPC   D2A 4183   7.426   8.046   5.220 -0.2274  0.2469  0.2175
  323POPC   C3A 4184   7.241   8.513   5.351  0.1657  0.2760  0.3976
  323POPC   C4A 4185   7.470   8.743   5.710  0.0214 -0.2935 -0.0346
  323POPC   C1B 4186   6.662   7.812   4.890  0.1685  0.2948  0.0326
  323POPC   C2B 4187   6.800   7.691   5.264  0.1767  0.0230 -0.2279
  323POPC   C3B 4188   7.101   7.685   5.637 -0.0989  0.1028 -0.1076
  323POPC   C4B 4189   7.055   7.766   6.152  0.0856 -0.0724  0.2154
  324POPC   NC3 4190   8.080   7.792   3.834  0.0287  0.1880  0.1657
  324POPC   PO4 4191   8.224   7.834   4.223 -0.2169  0.0655 -0.1210
  324POPC   GL1 4192   8.455   7.972   4.628 -0.0965  0.0112  0.0078
  324POPC   GL2 4193   8.801   7.861   4.644 -0.0514 -0.0749  0.2971
  324POPC   C1A 4194   8.572   8.119   5.027  0.1262  0.0387  0.1777
  324POPC   D2A 4195   8.446   8.112   5.468  0.1702  0.4003  0.2199
  324POPC   C3A 4196   8.046   8.158   5.581 -0.1069 -0.3340  0.0104
  324POPC   C4A 4197   7.687   8.197   5.813 -0.0497 -0.2566  0.3330
  324POPC   C1B 4198   9.189   7.772   4.897  0.0351 -0.1047 -0.1592
  324POPC   C2B 4199   9.386   7.462   5.182 -0.4774 -0.2839 -0.0698
  324POPC   C3B 4200   9.755   7.496   5.526 -0.2078  0.1132  0.1784
  324POPC   C4B 4201  10.255   7.413   5.553 -0.3421 -0.4941 -0.0255
  325POPC   NC3 4202   3.236   4.921   2.852 -0.0066  0.1148 -0.1732
  325POPC   PO4 4203   3.037   4.825   3.218 -0.0236  0.0527  0.2469
  325POPC   GL1 4204   3.015   5.077   3.558  0.2382 -0.1371  0.0037
  325POPC   GL2 4205   3.067   5.449   3.629 -0.2712 -0.1141 -0.1987
  325POPC   C1A 4206   2.888   5.148   3.993 -0.2141  0.2813  0.1129
  325POPC   D2A 4207   2.687   4.918   4.343 -0.1505 -0.2124  0.0552
  325POPC   C3A 4208   2.266   5.013   4.531  0.0998  0.0465 -0.1840
  325POPC   C4A 4209   1.847   5.106   4.496 -0.0701 -0.4291 -0.0492
  325POPC   C1B 4210   2.623   5.628   3.718 -0.0875 -0.2875 -0.1637
  325POPC   C2B 4211   2.060   5.745   3.813 -0.1062  0.1595  0.0880
  325POPC   C3B 4212   1.618   5.690   4.055  0.1397 -0.1016 -0.2217
  325POPC   C4B 4213   1.160   5.802   4.061 -0.2813 -0.0471 -0.0787
  326POPC   NC3 4214   7.933  10.038   3.899  0.2549 -0.1120  0.2134
  326POPC   PO4 4215   8.270   9.927   3.896 -0.0033 -0.0690 -0.0716
  326POPC   GL1 4216   8.554  10.149   4.137  0.2292 -0.3187 -0.1810
  326POPC   GL2 4217   8.485   9.911   4.336  0.4146  0.1224 -0.2978
  326POPC   C1A 4218   9.062  10.007   4.407 -0.1115 -0.1017  0.3371
  326POPC   D2A 4219   9.103   9.969   4.896 -0.0320 -0.1003 -0.1705
  326POPC   C3A 4220   9.413   9.766   5.164  0.0834 -0.0141 -0.4419
  326POPC   C4A 4221   9.220   9.657   5.507 -0.1606 -0.2550 -0.0689
  326POPC   C1B 4222   8.556  10.135   4.679  0.1019  0.1923 -0.0862
  326POPC   C2B 4223   8.735  10.220   5.123 -0.4099 -0.0658 -0.2785
  326POPC   C3B 4224   9.043  10.089   5.394  0.4193  0.0155 -0.2793
  326POPC   C4B 4225   8.927   9.940   5.834  0.0061  0.4885 -0.3472
  327POPC   NC3 4226   8.912   8.805   3.884  0.0234 -0.0589  0.3386
  327POPC   PO4 4227   8.881   9.285   3.832  0.0963 -0.1022 -0.1728
  327POPC   GL1 4228   8.791   9.261   4.266 -0.0962  0.3387 -0.0680
  327POPC   GL2 4229   8.886   9.489   4.376  0.0224 -0.0024 -0.0601
  327POPC   C1A 4230   8.779   9.118   4.722  0.2224 -0.1888 -0.0082
  327POPC   D2A 4231   8.614   9.131   5.149  0.0617  0.0120  0.0551
  327POPC   C3A 4232   8.748   8.887   5.456 -0.2103 -0.0377 -0.0037
  327POPC   C4A 4233   8.819   8.417   5.484  0.1781 -0.2455 -0.1122
  327POPC   C1B 4234   8.741   9.670   4.738  0.0307  0.0843 -0.5794
  327POPC   C2B 4235   8.763   9.735   5.224  0.1878 -0.1683 -0.1285
  327POPC   C3B 4236   8.863   9.379   5.554  0.1931 -0.6060  0.1320
  327POPC   C4B 4237   8.834   9.215   5.914 -0.2715 -0.0696 -0.2308
  328POPC   NC3 4238   1.239   7.105   3.622  0.0940 -0.1425  0.2647
  328POPC   PO4 4239   1.561   7.317   3.661 -0.0615 -0.0271 -0.3098
  328POPC   GL1 4240   1.391   7.382   4.100 -0.0065 -0.1135 -0.0467
  328POPC   GL2 4241   1.113   7.368   4.270  0.4304  0.3191 -0.0668
  328POPC   C1A 4242   1.443   7.129   4.495 -0.1183  0.1941  0.0975
  328POPC   D2A 4243   1.574   6.982   4.941 -0.0614  0.0747 -0.1177
  328POPC   C3A 4244   1.707   7.205   5.320 -0.0467  0.1938 -0.1722
  328POPC   C4A 4245   1.686   7.293   5.711  0.1682  0.1064 -0.0661
  328POPC   C1B 4246   0.954   7.301   4.720  0.0484  0.2395  0.0727
  328POPC   C2B 4247   1.127   7.144   5.151  0.0093 -0.0783 -0.0578
  328POPC   C3B 4248   1.222   6.745   5.314  0.3107  0.2200 -0.2183
  328POPC   C4B 4249   0.987   6.512   5.594  0.1927 -0.2575  0.2458
  329POPC   NC3 4250   2.267  10.534   3.153  0.0613 -0.0016  0.1221
  329POPC   PO4 4251   2.383  10.712   3.634  0.1457  0.2704 -0.0584
  329POPC   GL1 4252   2.484  10.920   4.077 -0.1971  0.0180  0.0491
  329POPC   GL2 4253   2.673  11.156   4.194 -0.0052 -0.0409  0.1939
  329POPC   C1A 4254   2.456  10.868   4.599  0.2498 -0.0563 -0.0813
  329POPC   D2A 4255   2.262  10.982   4.946 -0.0649  0.0080  0.0324
  329POPC   C3A 4256   1.954  10.697   5.182  0.3176 -0.2175  0.1279
  329POPC   C4A 4257   1.728  10.627   5.641 -0.0271 -0.1247  0.2205
  329POPC   C1B 4258   2.569  11.329   4.680 -0.1953  0.0224  0.1283
  329POPC   C2B 4259   2.470  11.447   5.033 -0.1222  0.0136 -0.1358
  329POPC   C3B 4260   2.227  11.326   5.395  0.4685 -0.3353  0.0123
  329POPC   C4B 4261   2.285  11.310   5.763  0.1990 -0.1587 -0.3223
  330POPC   NC3 4262   3.243   7.105   3.510 -0.3468  0.2274  0.0957
  330POPC   PO4 4263   3.121   7.338   3.967 -0.1463  0.1389  0.3643
  330POPC   GL1 4264   2.916   7.484   4.349  0.1487  0.0733  0.2744
  330POPC   GL2 4265   3.077   7.814   4.244  0.1392  0.0423  0.0184
  330POPC   C1A 4266   3.039   7.460   4.775 -0.2133 -0.6821  0.0927
  330POPC   D2A 4267   2.778   7.374   5.129 -0.1996 -0.0760  0.3324
  330POPC   C3A 4268   3.046   7.488   5.472 -0.0274 -0.0657  0.2690
  330POPC   C4A 4269   3.454   7.654   5.611  0.0102  0.0809  0.1689
  330POPC   C1B 4270   3.319   7.950   4.666  0.0893 -0.1146 -0.3724
  330POPC   C2B 4271   3.470   8.139   5.019  0.1415  0.1843  0.0053
  330POPC   C3B 4272   3.804   8.258   5.338  0.0990  0.1426 -0.1369
  330POPC   C4B 4273   3.928   8.550   5.620 -0.1068  0.1139  0.1757
  331POPC   NC3 4274   0.543   3.466   3.763 -0.0827  0.1624 -0.1895
  331POPC   PO4 4275  -0.007   3.453   3.792  0.0908  0.3637 -0.0135
  331POPC   GL1 4276   0.079   3.393   4.177 -0.2909 -0.2679  0.0185
  331POPC   GL2 4277  -0.157   3.390   4.421  0.0331  0.0175  0.3380
  331POPC   C1A 4278   0.339   3.413   4.460 -0.1062 -0.0953 -0.0681
  331POPC   D2A 4279   0.738   3.481   4.624 -0.1084 -0.1035  0.2230
  331POPC   C3A 4280   1.113   3.258   4.601 -0.1233  0.0404  0.1497
  331POPC   C4A 4281   1.127   2.846   4.569  0.1655 -0.0528 -0.0059
  331POPC   C1B 4282  -0.221   3.146   4.767  0.1104 -0.0677  0.0058
  331POPC   C2B 4283  -0.180   2.795   5.030  0.0877  0.1117 -0.1006
  331POPC   C3B 4284  -0.233   2.532   5.428 -0.3323  0.4395 -0.4670
  331POPC   C4B 4285  -0.237   2.361   5.774  0.3139  0.0646  0.1800
  332POPC   NC3 4286   7.569   2.916   3.820  0.1474  0.1880  0.1437
  332POPC   PO4 4287   7.915   2.693   4.115 -0.4065 -0.2268 -0.2615
  332POPC   GL1 4288   7.842   2.624   4.510  0.1760 -0.1306 -0.1752
  332POPC   GL2 4289   8.032   2.511   4.710  0.2148 -0.0002  0.0892
  332POPC   C1A 4290   7.561   2.657   4.942 -0.1359  0.1380  0.0361
  332POPC   D2A 4291   7.612   2.609   5.260 -0.0126 -0.2422  0.1445
  332POPC   C3A 4292   7.438   2.819   5.625 -0.0794  0.0618  0.0539
  332POPC   C4A 4293   7.115   2.866   5.803 -0.3145  0.2087 -0.2899
  332POPC   C1B 4294   8.154   2.660   5.210  0.1240  0.3290 -0.0241
  332POPC   C2B 4295   8.192   2.722   5.669  0.0997  0.0536  0.0075
  332POPC   C3B 4296   8.273   2.958   6.117  0.0742  0.1438  0.1047
  332POPC   C4B 4297   8.425   3.184   6.485 -0.3979  0.1498  0.2387
  333POPC   NC3 4298   9.643   1.016   3.883 -0.2374 -0.1706 -0.0712
  333POPC   PO4 4299   9.782   0.605   3.961  0.2568 -0.0515 -0.3719
  333POPC   GL1 4300   9.658   0.578   4.371  0.1081 -0.0160  0.1003
  333POPC   GL2 4301   9.627   0.899   4.375  0.1454 -0.0178 -0.0682
  333POPC   C1A 4302   9.649   0.316   4.835  0.0011 -0.1033  0.0099
  333POPC   D2A 4303   9.517   0.367   5.229 -0.0752 -0.1196 -0.1395
  333POPC   C3A 4304   9.138   0.641   5.303  0.0693 -0.1728 -0.0484
  333POPC   C4A 4305   8.713   0.580   5.446 -0.3776  0.1744 -0.1152
  333POPC   C1B 4306   9.612   1.289   4.595  0.2688  0.1626 -0.3530
  333POPC   C2B 4307   9.846   1.678   4.700  0.2908 -0.0795  0.1170
  333POPC   C3B 4308   9.952   1.926   5.021 -0.1463  0.0735 -0.0219
  333POPC   C4B 4309   9.819   1.696   5.294 -0.2599 -0.1160 -0.0384
  334POPC   NC3 4310   2.250   5.318   3.160  0.0422 -0.1655 -0.1473
  334POPC   PO4 4311   2.310   4.865   3.181  0.1890  0.0511  0.0975
  334POPC   GL1 4312   1.973   5.054   3.485 -0.1772 -0.2621 -0.1300
  334POPC   GL2 4313   2.081   5.309   3.626 -0.2132 -0.1476  0.0707
  334POPC   C1A 4314   1.882   4.794   3.848  0.1730  0.0347 -0.1525
  334POPC   D2A 4315   2.245   4.631   4.161 -0.0401  0.0054  0.0387
  334POPC   C3A 4316   2.749   4.602   3.989  0.1417  0.0313 -0.1145
  334POPC   C4A 4317   3.120   4.731   4.115 -0.1302  0.0038 -0.1916
  334POPC   C1B 4318   1.980   5.316   4.077 -0.1493  0.2290 -0.1701
  334POPC   C2B 4319   2.005   5.595   4.402  0.3031 -0.1697  0.3414
  334POPC   C3B 4320   2.105   5.974   4.421  0.0636 -0.0858 -0.3084
  334POPC   C4B 4321   2.375   6.281   4.400 -0.1041 -0.0927 -0.0088
  335POPC   NC3 4322   1.029   8.614   3.657  0.0449 -0.2042 -0.0182
  335POPC   PO4 4323   1.151   8.461   4.114 -0.1547 -0.3338  0.2958
  335POPC   GL1 4324   1.024   8.784   4.334 -0.1086  0.2074 -0.1971
  335POPC   GL2 4325   1.339   8.822   4.493 -0.4941 -0.0916  0.1098
  335POPC   C1A 4326   0.845   8.852   4.751 -0.0761 -0.0288 -0.2436
  335POPC   D2A 4327   0.774   9.157   5.140 -0.1116  0.0951  0.0919
  335POPC   C3A 4328   0.937   9.000   5.476 -0.2220 -0.1250 -0.0439
  335POPC   C4A 4329   0.889   8.846   5.906  0.0678 -0.0853 -0.1172
  335POPC   C1B 4330   1.264   8.990   4.972 -0.2241  0.0419  0.0070
  335POPC   C2B 4331   1.558   9.013   5.255  0.1260  0.1116 -0.6173
  335POPC   C3B 4332   1.890   9.014   5.408 -0.0854  0.0866  0.0393
  335POPC   C4B 4333   2.091   9.208   5.726 -0.1033  0.1142 -0.1125
  336POPC   NC3 4334  10.204   7.049   3.701 -0.1213 -0.1018  0.1097
  336POPC   PO4 4335  10.157   6.646   3.809 -0.5813  0.2941  0.1422
  336POPC   GL1 4336  10.133   6.706   4.306 -0.2720 -0.2520 -0.1403
  336POPC   GL2 4337  10.315   6.758   4.530 -0.0689  0.0602  0.2117
  336POPC   C1A 4338   9.807   6.945   4.558  0.2361 -0.0825  0.1096
  336POPC   D2A 4339   9.820   7.218   4.925 -0.0341  0.0093 -0.0668
  336POPC   C3A 4340   9.990   7.076   5.304  0.3432 -0.3560  0.2197
  336POPC   C4A 4341   9.920   7.055   5.742  0.0770  0.0353 -0.0638
  336POPC   C1B 4342  10.219   6.890   4.880  0.0243  0.1046  0.0677
  336POPC   C2B 4343  10.480   7.006   5.362  0.0546  0.2914 -0.4219
  336POPC   C3B 4344  10.571   6.768   5.693  0.2113 -0.0200 -0.1476
  336POPC   C4B 4345  10.623   6.529   6.153 -0.1500  0.0816  0.0933
  337POPC   NC3 4346   5.323   3.064   3.522 -0.2037  0.0111  0.2049
  337POPC   PO4 4347   5.347   3.449   3.827  0.1151  0.1822  0.0590
  337POPC   GL1 4348   5.428   3.412   4.156 -0.2477  0.1453  0.2266
  337POPC   GL2 4349   5.777   3.329   4.292 -0.0219  0.1818  0.2545
  337POPC   C1A 4350   5.302   3.492   4.569 -0.2037  0.2673  0.2807
  337POPC   D2A 4351   5.305   3.234   4.961  0.1764 -0.0111  0.0918
  337POPC   C3A 4352   5.141   3.240   5.327  0.1024  0.1263  0.0393
  337POPC   C4A 4353   4.726   3.163   5.546 -0.0475  0.1441 -0.1891
  337POPC   C1B 4354   5.784   3.333   4.832 -0.0036 -0.3472 -0.3014
  337POPC   C2B 4355   5.671   3.437   5.195 -0.1181 -0.0156  0.0201
  337POPC   C3B 4356   5.458   3.545   5.647  0.1453 -0.0911  0.1684
  337POPC   C4B 4357   5.105   3.492   5.900  0.1850 -0.3347  0.0416
  338POPC   NC3 4358   5.826   5.163   4.246  0.0758  0.0353  0.0819
  338POPC   PO4 4359   6.204   5.436   4.173 -0.0272 -0.1820 -0.2497
  338POPC   GL1 4360   6.191   5.435   4.586 -0.0159 -0.0386 -0.3271
  338POPC   GL2 4361   5.963   5.349   4.725  0.2558  0.2197  0.2090
  338POPC   C1A 4362   6.220   5.620   5.052  0.1971  0.0030  0.0343
  338POPC   D2A 4363   5.998   5.694   5.428 -0.0119 -0.1357  0.1252
  338POPC   C3A 4364   6.079   6.048   5.642 -0.0225 -0.0969 -0.0759
  338POPC   C4A 4365   5.930   6.512   5.713 -0.0788 -0.0864  0.3602
  338POPC   C1B 4366   5.911   5.224   5.204  0.1793  0.0023  0.2777
  338POPC   C2B 4367   5.875   5.038   5.554  0.0042  0.1279 -0.0097
  338POPC   C3B 4368   5.820   4.665   5.829 -0.1158 -0.2321 -0.0639
  338POPC   C4B 4369   5.681   4.395   6.076 -0.3877 -0.2014  0.0460
  339POPC   NC3 4370   6.187   3.656   3.582 -0.0838  0.0456  0.1027
  339POPC   PO4 4371   6.204   3.279   3.765  0.1449 -0.1239 -0.0634
  339POPC   GL1 4372   6.220   3.073   4.161  0.0230 -0.1889  0.0782
  339POPC   GL2 4373   6.081   2.790   4.084  0.0967 -0.2406 -0.1127
  339POPC   C1A 4374   6.565   3.148   4.508 -0.0403  0.0728 -0.0899
  339POPC   D2A 4375   6.926   3.338   4.710 -0.2420  0.0937 -0.1601
  339POPC   C3A 4376   6.981   3.332   5.275 -0.2158  0.2099  0.0421
  339POPC   C4A 4377   6.929   3.382   5.745 -0.2280  0.1925 -0.0725
  339POPC   C1B 4378   6.078   2.488   4.467 -0.1037 -0.1159 -0.1263
  339POPC   C2B 4379   6.218   2.219   4.861 -0.2093 -0.1959  0.1117
  339POPC   C3B 4380   6.335   2.003   5.141 -0.2939 -0.2599  0.0719
  339POPC   C4B 4381   6.665   2.181   5.479  0.3142 -0.0710 -0.0940
  340POPC   NC3 4382   9.732   5.160   4.122  0.2694  0.0431 -0.1325
  340POPC   PO4 4383   9.871   5.612   3.939  0.0287  0.1357 -0.1057
  340POPC   GL1 4384   9.970   5.667   4.344 -0.1332  0.1580  0.1843
  340POPC   GL2 4385  10.020   5.904   4.316  0.3610  0.1483  0.0078
  340POPC   C1A 4386  10.287   5.727   4.718 -0.1219  0.2024 -0.0677
  340POPC   D2A 4387  10.618   5.557   4.978  0.1548 -0.1585 -0.2085
  340POPC   C3A 4388  10.466   5.536   5.379  0.0430  0.2558 -0.1382
  340POPC   C4A 4389  10.190   5.613   5.691 -0.0613 -0.1158  0.3168
  340POPC   C1B 4390   9.814   6.041   4.735  0.0275 -0.3984  0.1635
  340POPC   C2B 4391   9.866   6.129   5.173  0.0232 -0.4124 -0.0995
  340POPC   C3B 4392   9.969   6.079   5.586 -0.1436  0.1030  0.2101
  340POPC   C4B 4393   9.747   6.166   5.824 -0.2294  0.1865  0.0089
  341POPC   NC3 4394   3.712   9.577   3.832  0.0244  0.3115 -0.1943
  341POPC   PO4 4395   3.278   9.448   3.743 -0.0447  0.0729 -0.2686
  341POPC   GL1 4396   3.316   9.345   4.189  0.2572  0.5223 -0.1860
  341POPC   GL2 4397   3.666   9.308   4.317 -0.3211  0.1824  0.0593
  341POPC   C1A 4398   3.220   9.341   4.605 -0.3849  0.1074  0.2835
  341POPC   D2A 4399   2.916   9.327   4.960  0.2289 -0.0393  0.0784
  341POPC   C3A 4400   2.965   9.036   5.324  0.3580 -0.0374  0.2223
  341POPC   C4A 4401   3.129   8.953   5.807  0.0009 -0.0878 -0.4954
  341POPC   C1B 4402   3.691   9.730   4.548  0.1799  0.0503 -0.0176
  341POPC   C2B 4403   3.693   9.999   4.915 -0.1024  0.0327  0.2588
  341POPC   C3B 4404   3.878   9.971   5.257 -0.0028 -0.5043 -0.1108
  341POPC   C4B 4405   3.916  10.355   5.544 -0.0985 -0.3306 -0.1691
  342W        W 4406   7.477   9.615   8.374 -0.1492 -0.1188  0.2815
  343W        W 4407   1.503   8.739   1.030 -0.2200 -0.1816  0.3322
  344W        W 4408   8.295   2.712   1.265  0.1088 -0.1431 -0.0812
  345W        W 4409  10.538   5.689   8.758 -0.2820  0.0586  0.0459
  346W        W 4410  10.291   4.982   3.262 -0.0392 -0.0144  0.1468
  347W        W 4411   9.524   0.481   9.288 -0.5709 -0.1145  0.0296
  348W        W 4412   1.558   3.528   1.425 -0.1789  0.0551 -0.1173
  349W        W 4413   8.809   9.449   0.991  0.0461  0.0730  0.0171
  350W        W 4414   8.261   3.065  10.265  0.0725 -0.2751 -0.0684
  351W        W 4415   2.931  10.090  10.279 -0.1343  0.1920  0.3899
  352W        W 4416   9.353   9.360  10.221 -0.1919 -0.1164 -0.2730
  353W        W 4417  10.509   5.684   1.828 -0.3155  0.3679 -0.0122
  354W        W 4418   4.522   4.451   9.385 -0.0597 -0.1722 -0.1423
  355W        W 4419   4.414   9.767   2.435 -0.2581 -0.0676  0.0630
  356W        W 4420   7.955   2.432   8.528  0.0606 -0.1131  0.0278
  357W        W 4421   2.375   8.448   8.393  0.3566  0.0822  0.2505
  358W        W 4422   9.730   7.647   7.288  0.0115 -0.0615  0.2136
  359W        W 4423   7.909   5.076   1.549 -0.1239 -0.0624 -0.0875
  360W        W 4424   4.137   2.737   2.965  0.2670 -0.3101 -0.0987
  361W        W 4425   3.889   9.568   1.241 -0.0943 -0.0639 -0.0570
  362W        W 4426   0.450   0.154   9.162 -0.0314 -0.1596  0.0030
  363W        W 4427   2.306   3.271   3.846  0.2501  0.2560  0.0901
  364W        W 4428   9.534   2.394   9.779 -0.1020  0.0588  0.3412
  365W        W 4429   5.243   4.463  10.067 -0.0020  0.1043  0.0365
  366W        W 4430   4.485   5.509   1.945  0.2300  0.1237  0.1049
  367W        W 4431   7.478   9.240  10.460  0.0670  0.2487  0.0144
  368W        W 4432   9.496   1.996  11.285 -0.2402 -0.0551 -0.3074
  369W        W 4433   8.384   3.514   2.497  0.0746  0.0278  0.0631
  370W        W 4434   8.353   9.653  10.268  0.2461 -0.0409  0.0631
  371W        W 4435   7.394  10.165   7.717  0.0379 -0.0870  0.2347
  372W        W 4436   0.715   1.282  10.303 -0.1366  0.0894 -0.1744
  373W        W 4437   3.327   9.550   1.901  0.3137 -0.0905  0.0194
  374W        W 4438   6.087   2.277   3.075 -0.0995 -0.1423 -0.1060
  375W        W 4439   5.197   0.695   8.847 -0.1457 -0.0896  0.0514
  376W        W 4440   7.802   5.412   2.771  0.0054 -0.0604 -0.0491
  377W        W 4441   7.267   4.697   9.760 -0.1242 -0.1534 -0.4510
  378W        W 4442   2.219   8.459   9.331 -0.1768 -0.1908  0.2289
  379W        W 4443   9.005   2.875   2.368  0.2596  0.1758  0.0078
  380W        W 4444   9.972   3.566   0.570  0.0888  0.0233  0.1231
  381W        W 4445   5.608   2.674  10.582  0.1338  0.2588  0.1676
  382W        W 4446   6.375   0.754   3.893 -0.1482  0.1222 -0.1236
  383W        W 4447   0.511   5.327   1.915 -0.2670  0.4373 -0.1648
  384W        W 4448   4.182   6.145   8.793 -0.3527  0.1456  0.1761
  385W        W 4449   7.167   7.262   1.922 -0.0375  0.1042  0.1710
  386W        W 4450   0.593   9.152   9.664  0.1849 -0.1950 -0.0730
  387W        W 4451   4.097   5.973  10.967 -0.1738 -0.1803  0.1286
  388W        W 4452   4.871   7.148  10.692 -0.0682  0.2890 -0.1854
  389W        W 4453   9.692   9.984   0.173  0.0742  0.0548 -0.0100
  390W        W 4454   2.967   2.969   0.168 -0.0477 -0.3474 -0.2373
  391W        W 4455   1.702   3.142  11.611 -0.0109 -0.1152  0.1191
  392W        W 4456   4.876   7.214   1.574  0.0575  0.0345  0.1686
  393W        W 4457   5.543   3.263  11.025 -0.1190  0.0620 -0.0536
  394W        W 4458   5.723   8.907  11.332  0.1525  0.1131  0.0426
  395W        W 4459   3.127   7.788   8.554 -0.2607  0.1395 -0.0134
  396W        W 4460   5.849   1.195   1.785 -0.2224  0.1534 -0.2779
  397W        W 4461   9.503   1.732   9.927 -0.1648  0.3262  0.1880
  398W        W 4462   5.133   4.354   9.156 -0.0944  0.1564  0.2224
  399W        W 4463   5.908  10.090   0.951 -0.1238  0.1129  0.4329
  400W        W 4464   7.447   6.546   2.967  0.1229 -0.1921 -0.0143
  401W        W 4465   0.671   3.775   0.872 -0.0489  0.1282  0.2603
  402W        W 4466   5.705   6.803   1.832 -0.1265  0.1512 -0.1075
  403W        W 4467   4.940   6.367   8.240 -0.1455 -0.1444 -0.2511
  404W        W 4468   9.561   7.957   9.156 -0.0194 -0.1354 -0.2295
  405W        W 4469   7.559   8.128   9.000 -0.0848 -0.1563  0.0897
  406W        W 4470   8.093   9.626   3.558  0.0430  0.0386 -0.0927
  407W        W 4471   5.058   9.131  10.074 -0.1181 -0.3074 -0.0078
  408W        W 4472   9.197   0.720   8.881 -0.2767  0.1696  0.0183
  409W        W 4473   0.565   9.305  10.116 -0.0117 -0.0305  0.0792
  410W        W 4474   9.969   9.407   0.997  0.0283 -0.3020  0.2039
  411W        W 4475  10.252   3.901   2.268 -0.0990  0.1716 -0.2485
  412W        W 4476   7.765   3.147   2.521 -0.0916  0.2054 -0.0803
  413W        W 4477   6.400   2.413   1.322  0.0033 -0.0957  0.1684
  414W        W 4478   9.372   3.844   0.272 -0.0991 -0.0475  0.3220
  415W        W 4479   8.760   5.552   9.898 -0.2147  0.2496  0.2467
  416W        W 4480   4.540   7.439   3.882 -0.1926 -0.1890 -0.1880
  417W        W 4481   3.963   9.882  11.604  0.1985  0.0048 -0.0348
  418W        W 4482   3.378   9.983   8.957  0.4434  0.2887 -0.0330
  419W        W 4483   7.803   4.885   0.598 -0.0428  0.0541 -0.2908
  420W        W 4484   7.748   2.952   2.049  0.2842  0.1009 -0.0385
  421W        W 4485   0.779   7.586  10.224 -0.0526  0.0238 -0.0380
  422W        W 4486   4.281   7.530   0.865  0.2373  0.0906  0.0323
  423W        W 4487  10.342   3.397   2.465 -0.2273 -0.1524 -0.3349
  424W        W 4488   0.518   1.455   8.993 -0.0025  0.3727  0.1037
  425W        W 4489   2.471   0.652   0.286  0.2197  0.0740  0.0368
  426W        W 4490   6.788   3.431  10.502  0.1868  0.0277  0.0451
  427W        W 4491   2.210   1.144   3.229  0.1343 -0.0156  0.1310
  428W        W 4492   0.640   1.485   1.643  0.2252  0.1721 -0.1181
  429W        W 4493   4.773   7.268   8.147  0.1381 -0.0756 -0.2935
  430W        W 4494   9.892   3.359  11.225 -0.2838 -0.0692 -0.1588
  431W        W 4495   3.377   9.923   4.052  0.0506  0.0881  0.1609
  432W        W 4496   3.549   4.929   3.321  0.0255  0.0009 -0.2234
  433W        W 4497   6.587   9.303  10.828 -0.1027 -0.2851 -0.0361
  434W        W 4498   8.390   7.127   2.271 -0.4080 -0.0494 -0.0118
  435W        W 4499   4.740   0.656  11.604  0.0290 -0.1587  0.0552
  436W        W 4500   0.715   4.341   0.778 -0.1370 -0.1759 -0.0005
  437W        W 4501   1.109   7.270   0.661  0.1352 -0.2450 -0.0348
  438W        W 4502   6.489   6.225   9.149  0.0464  0.1329 -0.0709
  439W        W 4503   0.107   7.485   2.869 -0.2065  0.1392 -0.2550
  440W        W 4504   3.329   2.588   3.101  0.2523 -0.2816  0.0529
  441W        W 4505   5.675   1.939   3.154 -0.4225  0.0099 -0.0973
  442W        W 4506   5.105   7.757   9.316  0.0879  0.1993 -0.3444
  443W        W 4507   0.635   8.915   8.922 -0.1089 -0.3332 -0.3418
  444W        W 4508   1.975   9.518   7.524 -0.0950 -0.0870 -0.0945
  445W        W 4509   9.988   0.522   7.848 -0.4042  0.0342 -0.1681
  446W        W 4510   7.229   0.891   9.791 -0.1884  0.2443  0.1965
  447W        W 4511   3.323   8.443   9.163 -0.3083 -0.4223 -0.2375
  448W        W 4512   0.871   2.961   3.157 -0.3151  0.3541 -0.0027
  449W        W 4513   6.207  10.498   1.066  0.1452  0.1858  0.3094
  450W        W 4514   4.925   4.416   3.648  0.0997 -0.1676  0.0577
  451W        W 4515   7.620   6.945   2.715 -0.1248 -0.1202  0.5993
  452W        W 4516   2.180   3.639   1.781  0.0357 -0.0302 -0.0329
  453W        W 4517   8.434   0.202  10.252  0.3122 -0.0646 -0.1781
  454W        W 4518  10.445   2.338  11.350  0.0001  0.0979  0.0539
  455W        W 4519   8.396   2.888   9.184 -0.1362 -0.0435 -0.1206
  456W        W 4520   1.532   3.803   3.658 -0.1629 -0.1157 -0.2431
  457W        W 4521   5.343   9.485   7.956 -0.1260 -0.0855 -0.2534
  458W        W 4522   9.443   7.954   1.649  0.1967 -0.1515  0.0191
  459W        W 4523   8.481   0.383   9.353  0.0341 -0.0639  0.0606
  460W        W 4524   7.711   4.037   8.521  0.1750 -0.2666 -0.0052
  461W        W 4525   2.839   3.158   8.043 -0.2426  0.1064 -0.1872
  462W        W 4526   2.759   0.412  10.186 -0.1256 -0.0530 -0.0845
  463W        W 4527   2.211   4.750   9.919 -0.1336  0.2321  0.1299
  464W        W 4528   6.819   9.739   8.238 -0.4611  0.1852 -0.1507
  465W        W 4529   3.416   9.904  10.393 -0.1181  0.3273 -0.0454
  466W        W 4530   4.112   6.747   1.715  0.1158  0.0977 -0.2567
  467W        W 4531   6.942   0.946   8.655 -0.0141  0.1388  0.1072
  468W        W 4532   3.623   4.911   9.175 -0.0992 -0.0202  0.2142
  469W        W 4533   6.113   1.550  10.452 -0.0414 -0.0179  0.1102
  470W        W 4534   8.109   3.731   8.802  0.3441  0.0874  0.2236
  471W        W 4535   9.550   0.616   0.681 -0.2015  0.0964 -0.0163
  472W        W 4536   0.589   3.662   9.073  0.1382 -0.0265 -0.2050
  473W        W 4537   8.682   5.390  10.871  0.2705  0.1773  0.1520
  474W        W 4538   2.838   1.867   3.112  0.0117 -0.1282 -0.2201
  475W        W 4539   2.941   9.829   9.884  0.0609  0.3413  0.1363
  476W        W 4540   4.709   9.586   2.786 -0.2102 -0.1165  0.0690
  477W        W 4541   2.824   5.048   1.620  0.0386 -0.2458  0.1755
  478W        W 4542   9.814   4.338   2.920  0.0196  0.1103  0.2426
  479W        W 4543   9.717   4.065  10.275  0.0975  0.0256  0.0959
  480W        W 4544   8.686   1.154   1.022  0.1933  0.1069 -0.0487
  481W        W 4545   9.750   5.244   8.809 -0.0314 -0.0257 -0.3647
  482W        W 4546   0.172   7.770   8.447  0.1877 -0.1349  0.0910
  483W        W 4547   0.130   8.563   3.435 -0.1204 -0.0936 -0.4446
  484W        W 4548   8.404   4.440   1.045 -0.2887 -0.0654  0.3972
  485W        W 4549   6.809   7.796   9.549  0.1122 -0.3466  0.0133
  486W        W 4550   6.465   6.741   9.119  0.2598  0.2117  0.0406
  487W        W 4551   2.660   7.588  10.777 -0.0445  0.0055  0.6394
  488W        W 4552   5.224   1.927   2.878 -0.0273 -0.2618  0.2041
  489W        W 4553   2.519   2.760   0.512  0.0312  0.0505 -0.0624
  490W        W 4554   1.722  10.345   9.604  0.5599  0.1256 -0.2063
  491W        W 4555   4.478   6.531   8.893  0.0535 -0.1214  0.1189
  492W        W 4556   1.475   5.404   2.842 -0.2214 -0.0689 -0.0130
  493W        W 4557   4.600   7.631   1.666 -0.1451  0.1465  0.1166
  494W        W 4558   8.101   3.051   9.713  0.0610 -0.1328  0.0122
  495W        W 4559   1.471   4.564  10.961  0.0898 -0.0174 -0.1458
  496W        W 4560   8.214   7.705   2.200  0.2049 -0.0378  0.1413
  497W        W 4561   9.112   2.120   3.214  0.2434  0.0307 -0.0549
  498W        W 4562  10.222   1.888  11.184  0.0616 -0.1536  0.1989
  499W        W 4563  10.420  10.218   2.079 -0.0519 -0.3197 -0.1517
  500W        W 4564   6.202   9.274   8.835  0.1701 -0.0376  0.1289
  501W        W 4565   9.044  10.170   2.707 -0.2002  0.2914 -0.3257
  502W        W 4566   4.547   4.129   0.025  0.0613  0.0889 -0.0092
  503W        W 4567   9.071   8.666  10.565  0.0296  0.1171  0.1694
  504W        W 4568   0.222   2.747   9.661  0.2166 -0.3874 -0.0539
  505W        W 4569   3.995   2.588   0.662 -0.1340  0.0203 -0.0860
  506W        W 4570   6.929   0.431  11.424 -0.2345 -0.1059 -0.0106
  507W        W 4571   6.280   0.174  10.304  0.0404  0.1530  0.0034
  508W        W 4572   9.163   3.458  11.294  0.5181 -0.4220  0.4406
  509W        W 4573   6.146   3.825   3.029 -0.2337 -0.4440 -0.1822
  510W        W 4574   6.623  10.249   2.993 -0.2076  0.4110  0.1655
  511W        W 4575   9.709   9.446   7.954 -0.0894  0.0416 -0.0488
  512W        W 4576   1.392   7.016  10.614  0.0070  0.3960 -0.2645
  513W        W 4577   4.256   1.067   2.843  0.2111  0.1647 -0.0927
  514W        W 4578   9.842   8.337   0.273 -0.1449 -0.2079  0.0659
  515W        W 4579   1.729   6.442   0.455 -0.0624  0.1828  0.1818
  516W        W 4580   9.874   0.988   1.678  0.1346  0.0874  0.2122
  517W        W 4581   0.204   7.742   3.839  0.2885  0.0198  0.3883
  518W        W 4582   6.576   8.922   9.154  0.1178 -0.3730 -0.1916
  519W        W 4583   5.695   8.839   9.556  0.1024  0.3831 -0.0544
  520W        W 4584   2.860   8.329   0.483  0.0520 -0.0359 -0.0287
  521W        W 4585   7.532   8.713   7.917  0.2545 -0.1029  0.0073
  522W        W 4586   8.086   1.469   2.813 -0.0331  0.2421  0.2199
  523W        W 4587   6.741   4.437   0.887  0.1816  0.0375 -0.1370
  524W        W 4588   2.055   0.485   0.058  0.1372 -0.3341 -0.0900
  525W        W 4589   4.954   3.188   1.953  0.2895 -0.0151  0.1918
  526W        W 4590   0.349   0.441   7.839  0.2795 -0.0419  0.1689
  527W        W 4591   1.326   2.863  11.225  0.1142  0.1669 -0.1802
  528W        W 4592   6.517   4.177   1.344 -0.0311  0.1350  0.2092
  529W        W 4593   3.096   2.081   3.884 -0.0398 -0.1397  0.1183
  530W        W 4594   7.489   9.281   1.296  0.2262  0.1743 -0.1283
  531W        W 4595   5.407   4.560   3.026 -0.1488 -0.1341  0.0018
  532W        W 4596   7.039   2.546   2.435  0.0104  0.2643 -0.5357
  533W        W 4597   4.635   6.686  10.366 -0.0464  0.2180 -0.0329
  534W        W 4598  10.418   9.104   0.713 -0.2461 -0.1201  0.0786
  535W        W 4599   3.225   8.745  11.617 -0.0395  0.0436  0.0175
  536W        W 4600   0.588   6.037   8.770  0.4363  0.4027 -0.0415
  537W        W 4601   2.905   8.094   1.468  0.0993  0.1522 -0.4997
  538W        W 4602   2.403   3.597   9.380 -0.1517 -0.1889  0.1981
  539W        W 4603   1.588   8.022   8.747 -0.0743  0.0823  0.2027
  540W        W 4604   8.508   8.532   7.513  0.0916  0.4632  0.1129
  541W        W 4605   7.257   6.078   2.339  0.2154 -0.0189  0.0180
  542W        W 4606   5.839   0.380   1.227 -0.2676  0.1685  0.2189
  543W        W 4607   1.645   8.750   9.208  0.0296 -0.1883 -0.1553
  544W        W 4608   1.816   1.206   1.475  0.1960 -0.0856  0.2622
  545W        W 4609   4.522   0.056  10.661 -0.0504  0.3117 -0.0710
  546W        W 4610   1.976   0.160  10.940  0.2105 -0.1470  0.6492
  547W        W 4611   8.839   0.164   1.620  0.1180  0.0091 -0.3054
  548W        W 4612   7.405   2.817  10.608 -0.1890 -0.2174 -0.1200
  549W        W 4613   7.194   3.742   1.878  0.3424 -0.0988 -0.2108
  550W        W 4614   9.862   5.621   0.515 -0.1228 -0.1477  0.4411
  551W        W 4615   1.847   8.089  10.884  0.1449  0.1115 -0.0770
  552W        W 4616   3.197  10.364   3.373  0.3133 -0.1692  0.1187
  553W        W 4617   4.089   3.947  10.463 -0.0019  0.0750 -0.2545
  554W        W 4618   8.339   3.548   1.492 -0.1510 -0.3453  0.0017
  555W        W 4619   7.799   6.703   8.090  0.0919 -0.0345 -0.0239
  556W        W 4620   4.120   3.897   2.056 -0.0750  0.0927 -0.3141
  557W        W 4621  10.162   0.941   9.941 -0.3189 -0.0763  0.2308
  558W        W 4622   9.215   7.262   3.597 -0.4231  0.3365  0.0032
  559W        W 4623   9.482   8.444   8.964 -0.0288  0.2802  0.3473
  560W        W 4624   0.119   3.619   0.774 -0.1611  0.0088  0.3072
  561W        W 4625  10.151  10.000  11.530  0.1441  0.0793 -0.1045
  562W        W 4626   2.942   8.554   9.480 -0.1364  0.1170  0.4687
  563W        W 4627  10.240   7.499  10.277 -0.2845  0.4055  0.1199
  564W        W 4628   1.103   1.838   1.619  0.1014  0.0062  0.4008
  565W        W 4629   1.995   2.222   2.219  0.0369 -0.1893 -0.0317
  566W        W 4630   6.391   3.741   4.036  0.3580  0.0103 -0.0358
  567W        W 4631  10.035   8.274   2.930  0.1887  0.2700  0.0813
  568W        W 4632   3.946   6.936  10.005  0.0534 -0.0129 -0.0082
  569W        W 4633   8.313   9.044  10.202 -0.0663 -0.2474 -0.0963
  570W        W 4634   8.953   1.489   3.011  0.1708  0.0755 -0.0743
  571W        W 4635   2.624   3.444  11.048 -0.0924 -0.1040 -0.2909
  572W        W 4636   9.594   9.152   1.998 -0.4384 -0.1850 -0.4518
  573W        W 4637  10.348   9.492   7.189 -0.0723 -0.0893  0.3014
  574W        W 4638   0.616   8.131   8.449 -0.1015  0.3158  0.0274
  575W        W 4639  10.381   7.083   2.718 -0.2122 -0.2211  0.0768
  576W        W 4640   1.096   9.315  10.886 -0.3064 -0.1428 -0.0608
  577W        W 4641   9.231   1.280  10.787 -0.4105 -0.0797  0.0260
  578W        W 4642   3.989   5.925   0.988  0.0289 -0.1251 -0.1195
  579W        W 4643   4.643   0.266   2.804 -0.1558  0.0663  0.2086
  580W        W 4644   5.880   3.277   2.196 -0.1940 -0.3382 -0.4687
  581W        W 4645   0.765   7.360  10.666 -0.0939  0.1272 -0.1045
  582W        W 4646   9.050   1.111   2.506 -0.0407  0.0720  0.0342
  583W        W 4647  10.135   2.925   2.534 -0.2994  0.2073  0.3800
  584W        W 4648   5.645   7.279   9.180  0.1199 -0.1907  0.0238
  585W        W 4649   8.649   1.349   9.960 -0.2819 -0.1485  0.1164
  586W        W 4650   6.088   8.187   8.411 -0.1527 -0.3409 -0.0726
  587W        W 4651   1.181   1.287   0.118  0.2941  0.2113  0.4207
  588W        W 4652   1.733  10.418   2.478 -0.1370 -0.0744 -0.1740
  589W        W 4653   0.602   7.591   0.443  0.2991  0.0637 -0.0444
  590W        W 4654   8.050  10.284   3.525 -0.2174  0.1005 -0.2128
  591W        W 4655   5.506   8.054   1.553 -0.2063 -0.3699 -0.2973
  592W        W 4656  10.025   1.124  11.589 -0.0758 -0.3754  0.0052
  593W        W 4657   9.874   8.176   8.664  0.4504  0.0651 -0.1494
  594W        W 4658   4.314  10.384   1.252 -0.1340 -0.1414 -0.2840
  595W        W 4659   6.742   0.844   3.227  0.2147 -0.4461 -0.0162
  596W        W 4660   1.760   4.484   1.591 -0.3976  0.2720  0.2270
  597W        W 4661   8.681   2.258   0.762 -0.0149 -0.1506 -0.0802
  598W        W 4662   1.451   6.762   3.197  0.0922 -0.0426  0.1534
  599W        W 4663   0.550   7.923   2.211 -0.2280 -0.1337  0.0775
  600W        W 4664   7.454   4.561  10.483  0.0927  0.2273 -0.2232
  601W        W 4665   5.372   9.234   0.957  0.0440 -0.1198 -0.1850
  602W        W 4666   0.352   1.578   0.979  0.3373  0.0841  0.0552
  603W        W 4667   1.495   0.403  10.840 -0.1792  0.1631 -0.3268
  604W        W 4668   1.172   1.897   9.389  0.0098 -0.0761 -0.1233
  605W        W 4669   0.374   5.911   1.831  0.1313 -0.1910  0.3872
  606W        W 4670   5.529   8.558   9.183  0.1540  0.1371 -0.3152
  607W        W 4671   0.991   4.282  10.046  0.6138  0.1112 -0.0461
  608W        W 4672   2.540   8.078   0.169 -0.1078  0.0711  0.0851
  609W        W 4673   6.675   2.073   8.158  0.0889 -0.0960  0.0345
  610W        W 4674   7.730  10.342  10.631 -0.4576 -0.3644  0.0745
  611W        W 4675   1.404   7.491   2.385 -0.0644 -0.1514 -0.0203
  612W        W 4676   1.477   6.656   2.336 -0.2004 -0.0966  0.3741
  613W        W 4677   4.622   4.492   2.462 -0.0368 -0.2591 -0.1236
  614W        W 4678   4.625   3.457  11.173 -0.2252 -0.1296 -0.1928
  615W        W 4679   3.450   2.547   8.300 -0.0997 -0.1099 -0.2126
  616W        W 4680   8.153   1.854   0.926 -0.0436  0.0113 -0.0870
  617W        W 4681   2.287   4.643   1.522  0.3780  0.0729 -0.0504
  618W        W 4682   7.433   2.638  11.596  0.0734 -0.3003  0.0970
  619W        W 4683   1.102   0.199   7.360  0.1945 -0.0010 -0.0039
  620W        W 4684   8.531   6.740   1.107  0.0982 -0.1783 -0.3427
  621W        W 4685   1.313   9.931   4.160 -0.0799  0.3946  0.2932
  622W        W 4686  10.003   0.931  11.132  0.0755 -0.0518  0.0517
  623W        W 4687   1.063   1.400   2.445 -0.0361  0.0437 -0.1432
  624W        W 4688   5.706   7.485   2.338  0.0059 -0.0535 -0.2133
  625W        W 4689   1.132   2.880   8.790 -0.0666  0.3294  0.0430
  626W        W 4690   8.130  10.450   4.244 -0.0339 -0.0984 -0.0482
  627W        W 4691   0.422   7.042   1.910 -0.1375  0.0000 -0.0165
  628W        W 4692   6.014   6.361  10.611  0.3387  0.0395  0.2074
  629W        W 4693   1.196   4.229   8.237  0.0030  0.0390 -0.2322
  630W        W 4694   8.375   2.867   0.092  0.1015  0.2940  0.2014
  631W        W 4695   0.341   4.198  11.362  0.1942  0.2649  0.2199
  632W        W 4696   7.918   3.982  10.135 -0.0032 -0.0570 -0.1714
  633W        W 4697   8.002   6.650   0.333 -0.1393  0.3339 -0.0212
  634W        W 4698   1.256   8.909   0.558  0.0286 -0.3734  0.2134
  635W        W 4699   4.852   5.283   9.612 -0.2267  0.1930 -0.1675
  636W        W 4700   3.352   0.630   7.674  0.1576 -0.2601  0.0028
  637W        W 4701   7.337   7.491  11.094  0.1341  0.3184  0.3502
  638W        W 4702   8.320   8.844   8.468 -0.1506 -0.1734  0.2015
  639W        W 4703   0.155   9.542   7.495  0.0127  0.0376  0.0923
  640W        W 4704   2.613   0.755   8.960  0.2014 -0.0875  0.1789
  641W        W 4705   0.015   7.181   1.385  0.0318 -0.2404 -0.0845
  642W        W 4706   8.617   2.511  10.191  0.2690 -0.0510 -0.1274
  643W        W 4707   2.935   6.824  10.822 -0.5498  0.1329  0.1042
  644W        W 4708   2.758   6.984   0.605 -0.0818 -0.2718 -0.0070
  645W        W 4709   2.775   5.279   3.134 -0.2948 -0.0535 -0.3608
  646W        W 4710   6.875   3.148   3.312  0.2669  0.2147  0.0199
  647W        W 4711   5.938   1.631  11.574 -0.1844 -0.0017  0.1096
  648W        W 4712   9.089   9.493   2.136  0.1324  0.1119 -0.0503
  649W        W 4713   6.781   1.234   9.203  0.1389  0.3641  0.0280
  650W        W 4714   1.730   2.468   0.535  0.0331  0.0601 -0.0667
  651W        W 4715   1.572   0.902  10.813  0.0975 -0.0135  0.2145
  652W        W 4716   1.404  10.066  10.959 -0.1508  0.0533 -0.2113
  653W        W 4717   7.995   7.774  11.610  0.0973  0.3051  0.1684
  654W        W 4718   4.914   0.367   9.817 -0.0405  0.0776 -0.4106
  655W        W 4719   5.890   1.610   1.527  0.0526  0.0404  0.3484
  656W        W 4720   1.930   9.851   0.653 -0.2153 -0.0342 -0.2760
  657W        W 4721   5.186  10.551  11.334 -0.0348  0.2257 -0.0280
  658W        W 4722   7.607   6.247   2.619  0.0211  0.0377  0.2439
  659W        W 4723   4.675   8.915   9.755 -0.3511 -0.1056  0.0682
  660W        W 4724   5.943   0.318  11.284  0.0054  0.1625 -0.1206
  661W        W 4725   0.070   8.792   8.871  0.1136 -0.2258  0.1522
  662W        W 4726   7.879   5.210   9.819 -0.1272 -0.1033 -0.0961
  663W        W 4727   9.361  10.174   9.353  0.0752 -0.0900 -0.0247
  664W        W 4728   7.423   1.198   8.643 -0.1896  0.0444 -0.0104
  665W        W 4729   5.520   5.328   8.964 -0.0785  0.1424 -0.1153
  666W        W 4730   3.444   4.839  11.369 -0.4661 -0.0884  0.2993
  667W        W 4731   0.724   5.333   1.217 -0.0128 -0.2353 -0.1709
  668W        W 4732   0.274   0.725   9.387  0.0982  0.1766  0.0224
  669W        W 4733   5.021   4.020  10.556 -0.1584  0.1800  0.1670
  670W        W 4734   3.699   6.147   2.618  0.0416 -0.0605  0.0830
  671W        W 4735   7.700   2.758   1.462  0.1786  0.0814  0.0959
  672W        W 4736   3.062   7.407   0.702 -0.1262 -0.1748 -0.2496
  673W        W 4737   6.559   4.965   3.537  0.2065  0.0489 -0.0241
  674W        W 4738   9.671   3.099   2.417 -0.1652  0.1233  0.0072
  675W        W 4739   3.809   3.522   2.186  0.0171 -0.0259 -0.1695
  676W        W 4740   7.432   6.591   3.526 -0.0732 -0.1366 -0.0086
  677W        W 4741   2.907   9.665   2.314 -0.3369 -0.3516 -0.0505
  678W        W 4742   6.501   5.644  11.256 -0.1304 -0.1301  0.0980
  679W        W 4743   3.887   6.708  10.903 -0.0625  0.1159 -0.3180
  680W        W 4744  10.571   6.188  10.359  0.4304  0.6564  0.4135
  681W        W 4745   4.164   4.998   0.138  0.3462 -0.3503  0.0415
  682W        W 4746   3.543   8.613   9.573  0.0887  0.1147  0.0035
  683W        W 4747   2.668   1.402   8.696 -0.1335  0.0775 -0.3162
  684W        W 4748   0.550   7.283   1.444  0.0219  0.0470 -0.1005
  685W        W 4749   4.669   9.137   3.384  0.1241 -0.1778  0.1835
  686W        W 4750   3.061   4.872   9.892 -0.0357 -0.0858 -0.0692
  687W        W 4751   9.056   6.211   8.863  0.0441 -0.2721  0.1660
  688W        W 4752   8.111   5.833   0.445  0.0904  0.0738  0.2657
  689W        W 4753   0.640   1.578  11.589  0.0566  0.2111 -0.0400
  690W        W 4754   2.953   7.392   2.049 -0.0755  0.0963 -0.0651
  691W        W 4755   3.641   9.124  11.034  0.0979  0.0517  0.2978
  692W        W 4756   0.438   1.064  11.559  0.0800  0.0282  0.2322
  693W        W 4757   4.032   3.825   2.556  0.2221  0.3716  0.0227
  694W        W 4758   9.354   9.850   4.027  0.0890  0.1866  0.0250
  695W        W 4759   4.518   3.611   2.826  0.2955 -0.2257  0.1896
  696W        W 4760   9.430   8.209  10.939  0.2113  0.0068 -0.0160
  697W        W 4761  10.415   1.567   9.362 -0.2271  0.1989  0.1396
  698W        W 4762   1.720   3.825   0.549  0.1975 -0.4083 -0.0584
  699W        W 4763   7.575   9.525   3.721 -0.5873  0.2694  0.1825
  700W        W 4764   6.273   5.767   0.714 -0.2647 -0.0939  0.1133
  701W        W 4765   0.255   6.010   7.834  0.0465 -0.1355 -0.1064
  702W        W 4766   1.094   6.504   2.713 -0.0152  0.0480  0.0406
  703W        W 4767   7.660  10.137   0.584  0.0389  0.2945 -0.0692
  704W        W 4768   4.506   2.397   9.122  0.2081 -0.3881 -0.1198
  705W        W 4769   7.353   2.641   1.074 -0.0377  0.2526  0.1808
  706W        W 4770   3.156  10.307   7.657  0.1357 -0.0349  0.0972
  707W        W 4771   8.455   5.537   0.226  0.2872 -0.0705 -0.3491
  708W        W 4772   7.873   4.381  10.952  0.1583 -0.0900  0.0432
  709W        W 4773   7.403   0.141  11.479  0.1189 -0.0418  0.0793
  710W        W 4774   5.700  10.596  11.555 -0.1239  0.1126  0.3118
  711W        W 4775   8.257   5.358   1.206  0.0528 -0.0090  0.0402
  712W        W 4776   2.115  10.621   1.023  0.0626 -0.0921  0.1008
  713W        W 4777   4.392   7.070   0.689 -0.2353 -0.2569  0.1541
  714W        W 4778   9.530   6.445  10.283  0.2572 -0.3247  0.1718
  715W        W 4779   2.581   2.733   1.036 -0.1447 -0.0638 -0.2604
  716W        W 4780   8.321   6.378  11.484  0.2427 -0.1088  0.1594
  717W        W 4781   0.793   3.179   1.053  0.1422  0.1233  0.0473
  718W        W 4782   3.606   9.780   0.818  0.0269 -0.1839  0.2496
  719W        W 4783   4.378   2.307   1.856 -0.0168  0.0686  0.3676
  720W        W 4784   8.547   1.975   2.361  0.1188 -0.0781 -0.1123
  721W        W 4785   4.011   3.187   9.544  0.1917  0.2217  0.1366
  722W        W 4786   6.942   9.119   1.957  0.1906 -0.0498 -0.0563
  723W        W 4787   7.686   7.711   0.839  0.1268  0.0574 -0.1175
  724W        W 4788   2.195   7.753   0.915  0.1191 -0.0881 -0.2381
  725W        W 4789   3.470   9.527   2.526  0.0180 -0.1402  0.2211
  726W        W 4790   1.956   7.753   7.966 -0.3102 -0.2925 -0.1096
  727W        W 4791   7.335   3.975   1.446 -0.2969  0.1666 -0.3250
  728W        W 4792  10.491   9.354   0.171  0.0110  0.0865 -0.2417
  729W        W 4793  10.436   5.326   1.518  0.1041  0.1453  0.1494
  730W        W 4794   0.673   3.356   9.898 -0.1887 -0.2490  0.3465
  731W        W 4795   0.492   5.038   7.634 -0.2557  0.2879  0.1518
  732W        W 4796   1.627   2.796   2.294 -0.3786  0.2870  0.1627
  733W        W 4797   3.485  10.170   0.613 -0.2072 -0.0503 -0.4265
  734W        W 4798   1.948   6.045   2.630 -0.4753  0.1065 -0.1244
  735W        W 4799   2.980   7.494   0.152 -0.2480 -0.2290 -0.1679
  736W        W 4800   3.064   7.300  10.821  0.0318 -0.2265  0.0638
  737W        W 4801   3.594   0.452   0.201 -0.1485 -0.4135  0.1703
  738W        W 4802   2.939   8.989   3.204  0.0712 -0.1233 -0.0924
  739W        W 4803   1.404   6.970   0.973  0.0107 -0.1929  0.0689
  740W        W 4804  10.097   2.880   9.043 -0.0621 -0.0339 -0.1409
  741W        W 4805   4.499   0.639   0.462 -0.0842 -0.3042  0.1453
  742W        W 4806   8.007   1.930   8.769  0.2880 -0.0305 -0.3311
  743W        W 4807   2.160   4.212   8.377  0.0872  0.0319 -0.1374
  744W        W 4808   2.404   8.423   3.437 -0.2722  0.3510 -0.1287
  745W        W 4809   1.178   1.114   0.607 -0.0407  0.1181 -0.3299
  746W        W 4810   0.509   8.928   4.218  0.0057 -0.0247 -0.0853
  747W        W 4811   6.218   2.101   0.079  0.0960  0.0926  0.0727
  748W        W 4812   6.139   1.729   3.940  0.0936  0.0592  0.1400
  749W        W 4813   9.121   7.657   7.600  0.0716  0.0948  0.0474
  750W        W 4814   0.238   7.881   0.736 -0.0738 -0.2023  0.0427
  751W        W 4815   5.376   2.047   8.954 -0.2518 -0.3452  0.1671
  752W        W 4816   8.915   5.271   1.693 -0.0965 -0.0339 -0.0469
  753W        W 4817   8.381   6.589   2.444  0.0765  0.1230 -0.1318
  754W        W 4818   9.716   4.556   9.245 -0.2691  0.0089 -0.1834
  755W        W 4819   8.934   6.196   4.537  0.2200  0.1304 -0.0516
  756W        W 4820   5.743   4.689   4.088 -0.0259  0.0934 -0.2226
  757W        W 4821   3.566   9.222   8.067  0.0263  0.0117 -0.0129
  758W        W 4822   0.383   0.607  10.242  0.0501  0.1766  0.1628
  759W        W 4823   3.875   7.352   1.059  0.1091 -0.0212  0.0141
  760W        W 4824   0.820   4.609   9.637 -0.2068  0.3422 -0.1736
  761W        W 4825   0.553   0.342   1.929  0.0895  0.0155  0.1968
  762W        W 4826   0.444   5.264   2.624 -0.2665  0.2036  0.2215
  763W        W 4827   8.714   7.172   3.632  0.0031 -0.0347 -0.1935
  764W        W 4828   3.542   5.757   9.561  0.0956 -0.0205 -0.3533
  765W        W 4829   4.292   2.593   3.439 -0.2082 -0.0370 -0.2241
  766W        W 4830   2.442   3.459   2.549 -0.0445 -0.0777 -0.1311
  767W        W 4831   3.322   3.604   2.314  0.0085 -0.1210 -0.0840
  768W        W 4832  10.618   3.379   2.962  0.2046  0.1799  0.0480
  769W        W 4833   4.769   5.005   3.729  0.3627  0.3192  0.1764
  770W        W 4834   1.679   0.450   9.140 -0.1963  0.1437  0.1120
  771W        W 4835   4.540   4.114   0.496  0.1560 -0.1924  0.4073
  772W        W 4836   9.609   0.431  11.195 -0.0481 -0.0588 -0.0673
  773W        W 4837   1.909   2.021   8.786 -0.4799  0.0903  0.0926
  774W        W 4838   1.077   0.374   1.978 -0.3052  0.0456  0.1361
  775W        W 4839   9.390   9.071   3.700 -0.0210  0.1545 -0.2582
  776W        W 4840   4.405   1.019   8.824 -0.2897  0.1044 -0.1479
  777W        W 4841   0.937   9.611   2.556 -0.2459 -0.1276  0.0756
  778W        W 4842   5.845   2.401  10.207  0.2557 -0.0475  0.0035
  779W        W 4843   8.921   7.985   2.595  0.3738 -0.1271 -0.0511
  780W        W 4844   1.271  10.119   8.961 -0.1640  0.4160  0.0730
  781W        W 4845   0.296   9.733   0.108 -0.0927 -0.0758 -0.2648
  782W        W 4846   1.569   2.921   0.456 -0.0572 -0.0298 -0.1757
  783W        W 4847   7.715   7.929   2.069  0.3946 -0.0764  0.0092
  784W        W 4848   2.041   6.010   1.364 -0.0668  0.0899 -0.1513
  785W        W 4849   3.133   4.246  10.638  0.1980 -0.1404  0.1400
  786W        W 4850   5.937   3.600  11.066 -0.0151 -0.1141  0.0939
  787W        W 4851   6.623   8.595   3.832  0.0510 -0.2505 -0.0324
  788W        W 4852   1.032   9.613   1.137  0.0451  0.1587  0.2614
  789W        W 4853   0.173   3.647   1.653 -0.0302 -0.1579  0.0204
  790W        W 4854   2.834   7.925  11.430 -0.1828 -0.0600 -0.3144
  791W        W 4855   6.863   2.501   9.914  0.2237  0.2808  0.0648
  792W        W 4856   5.477  10.436   7.469  0.3255 -0.3304 -0.1210
  793W        W 4857   6.925   6.968   7.514  0.0840 -0.0308 -0.1737
  794W        W 4858   5.140   6.249  11.398  0.0268  0.0856 -0.2004
  795W        W 4859   6.885   8.510   8.738  0.0404  0.1700  0.1919
  796W        W 4860   9.124   7.987   1.233  0.1821 -0.2411 -0.0325
  797W        W 4861   6.611  10.037   8.584 -0.1694 -0.1278 -0.0295
  798W        W 4862   7.020   2.185   0.235  0.0306 -0.2819 -0.5044
  799W        W 4863   0.200   3.258   3.421 -0.1676 -0.2410  0.1659
  800W        W 4864   8.069   4.399   2.159 -0.0048  0.2943  0.2013
  801W        W 4865   7.804   6.469  11.311  0.4499 -0.1031 -0.2383
  802W        W 4866   6.152  10.250   0.125 -0.2728  0.1091  0.3229
  803W        W 4867   0.291   7.426  11.553  0.0682  0.3392 -0.5502
  804W        W 4868   0.007   3.631   9.325  0.1547 -0.0712 -0.1524
  805W        W 4869   1.061   0.650   0.459  0.0167  0.1150  0.0419
  806W        W 4870   8.683   0.175  10.772  0.0792 -0.0090 -0.1105
  807W        W 4871   0.889   8.802  10.149 -0.3093 -0.1687  0.3078
  808W        W 4872   4.416   5.991   0.644 -0.1682 -0.0866 -0.0422
  809W        W 4873   4.014   7.014   3.531  0.1445  0.1670 -0.0992
  810W        W 4874   8.244   2.800   7.789 -0.0473 -0.2586 -0.1135
  811W        W 4875   5.363   8.079   0.318 -0.4884  0.2160  0.3453
  812W        W 4876   1.617   9.182   9.856  0.3148  0.0732  0.1310
  813W        W 4877   9.913   4.558   1.110  0.1409 -0.0198  0.0125
  814W        W 4878   6.945   4.347   3.917 -0.3594 -0.1434 -0.0118
  815W        W 4879   8.226   5.662  10.074 -0.1700  0.1672 -0.0440
  816W        W 4880   8.744  10.233   8.027  0.1371 -0.0800 -0.4547
  817W        W 4881   7.753   7.448   2.038  0.0862 -0.1703  0.1221
  818W        W 4882   6.723   5.644   0.076  0.2706  0.1123  0.0829
  819W        W 4883   8.127   3.731   3.091 -0.2495  0.4136  0.1097
  820W        W 4884   7.381   5.501   3.122  0.0884  0.0626  0.0531
  821W        W 4885   6.151   7.903   9.776  0.1837 -0.2258 -0.1700
  822W        W 4886   4.184   8.993   9.881  0.0089  0.1423 -0.1230
  823W        W 4887   8.380   6.415  10.110  0.0192  0.3862 -0.0464
  824W        W 4888   4.899   1.623   9.320 -0.0034 -0.0289 -0.1814
  825W        W 4889   4.135   2.937   8.984 -0.3413  0.0541  0.0534
  826W        W 4890  10.284   4.218   2.633  0.2595  0.1064 -0.3109
  827W        W 4891   9.183   8.907   9.116  0.1204  0.0591 -0.1092
  828W        W 4892   7.919   8.985   1.040 -0.1310 -0.0108  0.1012
  829W        W 4893  10.355   9.636   2.167  0.0808 -0.0009 -0.0115
  830W        W 4894   6.245   4.423   0.905  0.1493 -0.2000 -0.1073
  831W        W 4895   8.415   5.170   9.252  0.2306  0.0279  0.1529
  832W        W 4896  10.264   1.588  11.543  0.2831  0.1874 -0.0358
  833W        W 4897   6.556   9.747   1.867  0.0738  0.0470  0.0239
  834W        W 4898   5.169   9.072   9.602 -0.0551 -0.1874 -0.0276
  835W        W 4899   5.226   7.307   2.104 -0.3367  0.1961 -0.2399
  836W        W 4900   4.110   3.050   3.407  0.1912 -0.2037  0.1474
  837W        W 4901   8.245   4.987  11.429  0.0522 -0.1102 -0.0341
  838W        W 4902   3.151   3.001   1.120  0.1313 -0.0840  0.3154
  839W        W 4903   9.447   1.426   8.299  0.1676  0.0166 -0.5648
  840W        W 4904   9.951   1.633  10.161 -0.2811  0.0083  0.0703
  841W        W 4905   1.986   7.063   3.063 -0.1411  0.2185  0.1254
  842W        W 4906   7.487  10.227   9.805  0.1052  0.1225 -0.2386
  843W        W 4907   4.808   4.402  10.890 -0.1864 -0.1792  0.0704
  844W        W 4908   7.929   8.906   8.852  0.0773 -0.1243 -0.3437
  845W        W 4909   5.723   1.363  10.786  0.0082 -0.0118  0.1486
  846W        W 4910   4.880   7.100  10.111  0.1164  0.1989 -0.1239
  847W        W 4911   3.180   6.249   0.869 -0.0309  0.0846 -0.1113
  848W        W 4912   1.751   6.408   1.419 -0.0620  0.1794 -0.2464
  849W        W 4913   4.536   5.604   9.389 -0.0104 -0.1337  0.4351
  850W        W 4914   0.590   9.461   0.999  0.0177 -0.2387 -0.0735
  851W        W 4915   9.886   3.521   3.339  0.0916 -0.1412  0.0011
  852W        W 4916   8.560   1.254   1.840 -0.0066  0.1620 -0.2161
  853W        W 4917   9.610   6.932   0.415 -0.1343 -0.1719  0.0058
  854W        W 4918   1.467   8.959   2.057 -0.0350 -0.1510  0.2350
  855W        W 4919   3.592   5.991   1.273 -0.0649  0.1103 -0.2425
  856W        W 4920   1.414   8.252   0.986 -0.3238 -0.2113  0.1091
  857W        W 4921   7.145   3.182   3.744  0.1180  0.1783  0.1006
  858W        W 4922   7.767   9.209   7.647  0.2535 -0.1962 -0.0453
  859W        W 4923   5.148   9.651   1.917  0.0163  0.0310  0.1570
  860W        W 4924   8.255   7.525   2.685  0.0598  0.4007  0.0715
  861W        W 4925   2.881   2.543  11.478 -0.2352  0.2111  0.2458
  862W        W 4926   0.904   8.521   8.676  0.0767 -0.1336  0.0768
  863W        W 4927   3.018   2.809   2.165  0.0390 -0.1387  0.1469
  864W        W 4928   9.230   6.554   8.120  0.1771  0.1106  0.0166
  865W        W 4929   4.746  10.401  11.165  0.2287 -0.0070 -0.4660
  866W        W 4930   2.193   3.162   1.542 -0.0485 -0.3005 -0.0694
  867W        W 4931  10.486   2.259   8.932  0.2147  0.1156 -0.1106
  868W        W 4932   4.709   3.587   0.038  0.2509  0.3457 -0.0871
  869W        W 4933   3.480   6.997  10.937  0.0364 -0.0055  0.0094
  870W        W 4934   0.201   7.373   0.644  0.0129 -0.2462 -0.1048
  871W        W 4935   6.845   9.680   1.047  0.0629 -0.0056  0.1400
  872W        W 4936   7.364   1.943   0.478 -0.2635  0.3323 -0.1694
  873W        W 4937  10.265   8.947   8.407  0.3298  0.0003  0.0430
  874W        W 4938   4.091   5.123  11.275  0.0208  0.2644  0.0552
  875W        W 4939   6.017   2.568  11.575 -0.1178  0.1859 -0.0216
  876W        W 4940   8.609   6.316   7.963 -0.0699  0.2400  0.1521
  877W        W 4941   3.296   3.985   9.267 -0.0679  0.0735  0.2072
  878W        W 4942   1.418   7.753  10.979  0.0158 -0.1661  0.2912
  879W        W 4943   5.149   2.723   2.253  0.3262 -0.1098 -0.0972
  880W        W 4944   9.502  10.427   1.716 -0.0135 -0.1859 -0.2419
  881W        W 4945   8.528   7.004  10.798 -0.3528  0.0395  0.1645
  882W        W 4946   7.923   8.150   9.876 -0.0751 -0.1149  0.2052
  883W        W 4947   8.100   6.122  10.671  0.0574 -0.1922 -0.2207
  884W        W 4948   7.498   1.684   2.163  0.0226  0.1569 -0.1314
  885W        W 4949   1.492   4.759   0.333  0.1179 -0.0234  0.2176
  886W        W 4950   4.037   7.032   9.055 -0.0331  0.1190 -0.1891
  887W        W 4951   3.982   5.268  10.332  0.3101  0.1422 -0.0640
  888W        W 4952  10.579   4.429   9.707  0.0994 -0.2145  0.0039
  889W        W 4953   8.765   5.442   2.585  0.0170 -0.1087  0.2617
  890W        W 4954   6.372   3.718   8.778  0.2532  0.2161 -0.0247
  891W        W 4955  10.477   0.662  11.154 -0.2437  0.1090 -0.1545
  892W        W 4956   2.247   1.361   7.485 -0.0618 -0.1578  0.1165
  893W        W 4957   6.652   2.113   1.758 -0.2740  0.1694  0.2616
  894W        W 4958   9.881   3.254   8.801 -0.1531 -0.1255 -0.2511
  895W        W 4959   8.893   9.005   3.432 -0.1543 -0.1293 -0.0903
  896W        W 4960   8.579   7.339   8.316 -0.2487  0.0400  0.2150
  897W        W 4961   4.461   3.185   9.855 -0.3151 -0.0254  0.0459
  898W        W 4962   9.408   6.207   8.539 -0.0237 -0.3115  0.1166
  899W        W 4963   4.883   6.311   1.622  0.1266  0.0104 -0.2823
  900W        W 4964   8.528   8.477   3.551  0.2160 -0.2195 -0.1552
  901W        W 4965   7.224  10.339   1.960 -0.1399 -0.0438  0.0306
  902W        W 4966   1.177   0.528   9.186  0.0182  0.0092 -0.2142
  903W        W 4967  10.279   7.089  10.995 -0.2447  0.0734 -0.0365
  904W        W 4968   5.339   0.724   0.457  0.2026  0.0725  0.2758
  905W        W 4969   3.246   9.280  11.360  0.3950  0.2111  0.2616
  906W        W 4970   4.615   4.874   9.746  0.2419  0.2337  0.0212
  907W        W 4971   7.968   0.576   9.384  0.1636 -0.5138  0.0965
  908W        W 4972   6.259   9.993   0.489  0.1530  0.1957 -0.0602
  909W        W 4973  10.294   1.495   7.994  0.0278  0.1278  0.0347
  910W        W 4974   9.372   0.077  11.470  0.0315  0.4180  0.2531
  911W        W 4975   2.768   7.319   3.545 -0.0687  0.1535 -0.0075
  912W        W 4976   0.948   5.119   0.354 -0.0060 -0.0975  0.4807
  913W        W 4977   5.353   5.936   9.103  0.1105  0.2569 -0.1143
  914W        W 4978   5.090   3.372  10.727  0.2359 -0.1262 -0.1564
  915W        W 4979   7.410   5.819   1.405 -0.0024  0.3510 -0.0588
  916W        W 4980   6.565  10.567   9.980 -0.0520  0.0445  0.0181
  917W        W 4981   0.379  10.405  11.122 -0.2147  0.3183  0.2192
  918W        W 4982   7.721   7.651   2.739  0.0004 -0.1674  0.1794
  919W        W 4983   3.902   5.618   1.401  0.1374 -0.0310  0.2278
  920W        W 4984   3.707   7.594   1.662  0.0351 -0.1550  0.1740
  921W        W 4985   5.554   4.914   1.441  0.0162 -0.2028  0.1792
  922W        W 4986   7.181   5.236   8.162  0.2246  0.0973 -0.2646
  923W        W 4987   1.766   7.399  10.331  0.0771  0.0121 -0.1729
  924W        W 4988   5.052   1.719   7.946 -0.4142  0.0152  0.1958
  925W        W 4989   6.625   6.826   8.659 -0.2757 -0.2642 -0.0149
  926W        W 4990   8.145   6.163   2.379  0.1771  0.1018  0.1089
  927W        W 4991   9.520   7.526   1.933  0.0161  0.2203 -0.3969
  928W        W 4992   3.081   0.722  11.150 -0.1783  0.1648  0.0308
  929W        W 4993   1.433  10.125   0.668 -0.1505  0.4714 -0.3656
  930W        W 4994   5.092   2.687  10.607  0.4095 -0.0327 -0.2280
  931W        W 4995   6.818   5.434   9.987  0.4203 -0.1479 -0.0203
  932W        W 4996   6.427   4.787   2.589  0.0433 -0.1710  0.1868
  933W        W 4997   8.742   6.111  11.489 -0.1988  0.0451  0.0248
  934W        W 4998   9.208   8.098   0.754 -0.1567 -0.3884 -0.1585
  935W        W 4999   2.559   9.647   7.489  0.0048  0.2590 -0.0362
  936W        W 5000   0.923   1.791   2.763  0.4373 -0.2085 -0.2627
  937W        W 5001   3.225  10.184   9.478  0.1022 -0.0504 -0.2171
  938W        W 5002   7.452   0.601   1.703 -0.0450 -0.0494 -0.0375
  939W        W 5003   0.838   3.025  11.328  0.1134  0.0706  0.0425
  940W        W 5004   8.562   6.616   2.885  0.0212 -0.1527 -0.1105
  941W        W 5005   7.734   4.709   3.323 -0.0666 -0.1169  0.0752
  942W        W 5006   6.973   2.991   4.206 -0.1800  0.2730  0.2741
  943W        W 5007  10.172   3.706   1.016  0.2682 -0.2849  0.1561
  944W        W 5008   2.146   4.936   9.382  0.0150  0.1214 -0.2262
  945W        W 5009   9.465   3.352   1.058  0.3674  0.0008 -0.0419
  946W        W 5010   9.214   4.105   8.136  0.4551 -0.0934  0.4575
  947W        W 5011   2.839   7.502  11.235  0.1125  0.1917  0.0032
  948W        W 5012   3.816   3.260   2.626  0.3024 -0.3514 -0.0314
  949W        W 5013   3.847   2.992   2.160 -0.0922  0.0493 -0.0104
  950W        W 5014   5.009   8.079   9.888  0.1399 -0.2010 -0.1229
  951W        W 5015   1.423   2.850   3.731  0.1677  0.1723 -0.1287
  952W        W 5016   7.303   2.831   3.389  0.1394  0.0893  0.0218
  953W        W 5017   3.461   1.797   8.352 -0.1546  0.0026  0.1142
  954W        W 5018   4.134   2.502  10.500 -0.4110 -0.4222  0.2012
  955W        W 5019   0.786   7.041   8.634 -0.5897 -0.0935 -0.2721
  956W        W 5020   7.246   0.755   3.469 -0.1389 -0.0820  0.0974
  957W        W 5021   0.529   1.142   3.253  0.2449 -0.1883 -0.0157
  958W        W 5022   8.042   3.337   7.873 -0.1848 -0.1066  0.0585
  959W        W 5023   9.579   2.846  10.004  0.0996  0.1129 -0.0516
  960W        W 5024  10.271   2.861   4.366  0.1620  0.1475  0.1583
  961W        W 5025   4.865   0.368   3.283  0.1842 -0.2231  0.1024
  962W        W 5026   4.464   9.759   9.492 -0.2579 -0.1372  0.2354
  963W        W 5027   3.750  10.095  10.744  0.0605  0.0317 -0.0336
  964W        W 5028   9.596   6.951   8.199 -0.2520  0.0711  0.3613
  965W        W 5029   8.366   8.189  10.085  0.0149  0.1162  0.0582
  966W        W 5030   6.190   2.060  10.309 -0.2561 -0.1214 -0.0351
  967W        W 5031   1.984   5.575   0.365  0.1123 -0.1017  0.0076
  968W        W 5032   5.327   3.402   9.859 -0.2707  0.3462  0.0302
  969W        W 5033  10.453   9.766   8.674 -0.4217  0.1787 -0.1621
  970W        W 5034   6.419   0.461   2.362  0.2772 -0.1449 -0.1517
  971W        W 5035   3.731   9.127   1.645  0.1320  0.1261 -0.2896
  972W        W 5036   4.964   3.248   8.969  0.1452 -0.1661  0.0885
  973W        W 5037   0.737   9.490   1.596  0.0115 -0.1325  0.0880
  974W        W 5038  10.109   0.571   8.478  0.0784  0.0331  0.1535
  975W        W 5039  10.535   3.687   7.772 -0.1912  0.2377 -0.0411
  976W        W 5040   2.220   2.391   0.724 -0.0676 -0.2130  0.2243
  977W        W 5041   1.873   2.907   8.889  0.0783 -0.2778 -0.0581
  978W        W 5042   9.022   4.090   2.927 -0.0571 -0.0450  0.0546
  979W        W 5043   5.016   9.255  10.577  0.2383  0.0273 -0.1433
  980W        W 5044   4.404   8.237   2.691 -0.2860  0.0490 -0.0847
  981W        W 5045   6.538   3.949   3.571  0.0779  0.3653 -0.4903
  982W        W 5046   6.836   6.574   3.698  0.1117 -0.1730 -0.3435
  983W        W 5047   2.952  10.019  11.492  0.1145 -0.1847 -0.0484
  984W        W 5048   2.430   0.058   0.597  0.2633 -0.2528 -0.2201
  985W        W 5049   3.951  10.087   3.160  0.0172  0.3326  0.3523
  986W        W 5050   2.330   0.164  11.284 -0.1539 -0.0180  0.0143
  987W        W 5051   6.085  10.426   9.843  0.1079 -0.1480 -0.0725
  988W        W 5052   1.723   4.074   9.289  0.2148  0.3992 -0.3270
  989W        W 5053   8.924   8.166   7.593 -0.0048 -0.0321  0.0763
  990W        W 5054   6.731   6.646   2.729 -0.1779 -0.0286 -0.0611
  991W        W 5055   7.445   6.202   9.446 -0.1982 -0.1320 -0.0504
  992W        W 5056   6.330   8.770   8.606  0.0699  0.0628  0.2539
  993W        W 5057   7.773   8.835   8.363 -0.4501  0.0281  0.2052
  994W        W 5058   7.354   2.181   0.932  0.0839 -0.4342  0.1884
  995W        W 5059   4.438  10.032   2.915  0.1442  0.0304  0.0890
  996W        W 5060   7.924  10.095   2.404  0.0399 -0.1385  0.2799
  997W        W 5061   6.094   0.998   0.922 -0.1246  0.2017 -0.1431
  998W        W 5062   7.624   1.164   0.957 -0.1820  0.1788  0.1859
  999W        W 5063   7.609   8.044   3.074  0.0111  0.0782 -0.0974
 1000W        W 5064   5.055   2.728   1.157  0.1158  0.2539 -0.3049
 1001W        W 5065   0.746   5.613   9.604 -0.1263  0.1477 -0.1542
 1002W        W 5066   6.518   6.479   9.690  0.1410  0.0876 -0.0377
 1003W        W 5067   8.360   6.302   0.328  0.0334 -0.0383  0.0989
 1004W        W 5068  10.222   3.768   2.871  0.3346  0.0844  0.2624
 1005W        W 5069   1.288   5.580  11.390 -0.2747 -0.1671 -0.1965
 1006W        W 5070   5.099   0.110  10.817  0.2113 -0.3087 -0.0685
 1007W        W 5071   2.961   5.275   8.769  0.1568  0.1374  0.1921
 1008W        W 5072   1.424   4.565   3.303  0.2122 -0.1215  0.4429
 1009W        W 5073   7.850   0.191   3.454  0.2627  0.2306 -0.1570
 1010W        W 5074   3.743   0.136   8.912 -0.1841 -0.0561  0.0289
 1011W        W 5075   6.140   5.785   9.856  0.1558  0.1123 -0.0575
 1012W        W 5076  10.323   2.712   0.608  0.1577  0.2093  0.0328
 1013W        W 5077   9.017   4.581   0.909 -0.1034 -0.0674 -0.1704
 1014W        W 5078  10.266   1.030   0.448  0.1043  0.1976  0.0874
 1015W        W 5079   7.010   5.453   7.688  0.3299 -0.1581  0.1872
 1016W        W 5080   0.216   5.224   1.061  0.1442 -0.0124 -0.0585
 1017W        W 5081   0.477  10.510  10.036  0.1501 -0.2730 -0.3329
 1018W        W 5082   7.375   6.536  10.569 -0.0899 -0.1244  0.0819
 1019W        W 5083  10.422   2.613   9.311  0.3003 -0.2435  0.0829
 1020W        W 5084   5.491  10.600  10.519 -0.4588  0.1390  0.0195
 1021W        W 5085   3.165   6.411   1.387 -0.1868 -0.0446  0.4119
 1022W        W 5086   9.241   8.956   8.191 -0.2052  0.1140  0.0769
 1023W        W 5087   6.723   6.800   0.829  0.2331  0.5386  0.1893
 1024W        W 5088   8.701   9.942  10.033  0.1216 -0.1436 -0.1641
 1025W        W 5089   4.710   7.051   3.100 -0.0486  0.2153  0.1370
 1026W        W 5090   6.138  10.424   1.906 -0.3048 -0.0438  0.3443
 1027W        W 5091   5.287   7.771   8.813 -0.0690 -0.2789  0.0174
 1028W        W 5092   8.171   7.020   2.812  0.3051  0.2100  0.1451
 1029W        W 5093   7.045  10.325   9.024  0.1408  0.2980 -0.0574
 1030W        W 5094  10.118   2.261   1.811  0.0090 -0.0562  0.1945
 1031W        W 5095   9.205   3.044  11.610  0.0717 -0.0254  0.0376
 1032W        W 5096   8.755   4.816   0.516  0.2487 -0.0090 -0.0755
 1033W        W 5097   0.957   5.148   7.890  0.0634  0.0424  0.3758
 1034W        W 5098   4.427   3.183   0.617 -0.0369 -0.3761  0.0805
 1035W        W 5099   6.659   7.312   8.855 -0.0491  0.2238 -0.0246
 1036W        W 5100   1.194   8.062   0.011 -0.5182 -0.0676 -0.2762
 1037W        W 5101   8.338   8.815  10.819 -0.2105 -0.2866  0.0868
 1038W        W 5102   3.538   8.080   8.444  0.0748 -0.1188 -0.1620
 1039W        W 5103   9.103   2.784  10.161 -0.0992 -0.3684 -0.0408
 1040W        W 5104  10.409   9.122   2.217  0.1446 -0.1436  0.1795
 1041W        W 5105   4.323   3.238   0.098 -0.1506  0.0976 -0.0630
 1042W        W 5106   8.703   6.850   1.939  0.0417 -0.1406 -0.2594
 1043W        W 5107   1.619   2.223   2.501 -0.2793 -0.1149  0.0345
 1044W        W 5108   7.067   7.756  10.049 -0.0095 -0.0991 -0.0959
 1045W        W 5109   6.381  10.080   9.540  0.1684 -0.2290 -0.3169
 1046W        W 5110   6.165   6.748   3.912 -0.0132 -0.1606  0.2696
 1047W        W 5111   1.632   7.781   0.231  0.1431  0.1698  0.0994
 1048W        W 5112   9.061   7.512   8.583  0.1438 -0.2599 -0.0094
 1049W        W 5113   9.701   2.032  10.329  0.0300  0.0716 -0.1703
 1050W        W 5114   4.150   4.402  10.215 -0.1008  0.1254 -0.0956
 1051W        W 5115   4.966   2.094   9.868  0.1115 -0.1797  0.2968
 1052W        W 5116   7.470   3.814  10.161 -0.2115  0.0811 -0.1380
 1053W        W 5117   9.930   7.970   9.567 -0.2926 -0.0689  0.2747
 1054W        W 5118  10.404   7.911   9.390  0.1519 -0.0368 -0.0517
 1055W        W 5119   8.023   6.074  11.158  0.0951  0.0117 -0.0541
 1056W        W 5120   3.300   7.748   1.937 -0.2883 -0.1961  0.4386
 1057W        W 5121   7.094   7.790   8.217  0.1659 -0.4238  0.1181
 1058W        W 5122   8.832   2.371   8.230 -0.0470 -0.0625 -0.3445
 1059W        W 5123   7.125   2.052   9.900  0.0591 -0.3465 -0.0619
 1060W        W 5124   2.117   7.757   2.753 -0.3515  0.0302  0.1185
 1061W        W 5125   9.917   4.916  11.373 -0.0936  0.0118  0.1013
 1062W        W 5126   2.020   9.774  11.500 -0.2262  0.0640  0.0578
 1063W        W 5127   7.038   6.127   0.048  0.1719  0.0935 -0.0115
 1064W        W 5128   8.396   4.468   1.689  0.0395  0.1499  0.1311
 1065W        W 5129   6.836   3.873   9.377  0.1272  0.1965 -0.3974
 1066W        W 5130   8.596   7.435  10.508  0.0953 -0.2509  0.1919
 1067W        W 5131   6.216   4.356   2.925 -0.2150 -0.0705  0.2174
 1068W        W 5132   7.530   6.036   3.080 -0.0922 -0.1027 -0.0724
 1069W        W 5133   7.312   8.673  10.466  0.0044  0.1290  0.1652
 1070W        W 5134   9.895   5.396   1.384 -0.0753  0.0750  0.1960
 1071W        W 5135  10.107   8.428  10.181 -0.0517 -0.1686  0.1730
 1072W        W 5136   6.320   4.014   2.525  0.1271  0.2962  0.2424
 1073W        W 5137   5.164   1.773  10.462 -0.0199  0.2098  0.0827
 1074W        W 5138   0.645   1.958   9.947 -0.1089  0.0243 -0.1814
 1075W        W 5139   8.254   8.264   9.466 -0.0726  0.0095 -0.0882
 1076W        W 5140   9.897   0.124  10.241 -0.0167  0.0821  0.0764
 1077W        W 5141   0.648   8.388   1.339 -0.0039  0.0780  0.1351
 1078W        W 5142   8.906   8.096   0.174  0.1195  0.0598  0.3840
 1079W        W 5143   8.532   6.847   0.197  0.2684  0.1147  0.1253
 1080W        W 5144   1.454   0.951  11.320  0.1286  0.0635  0.3718
 1081W        W 5145   3.366   4.384   0.109 -0.1422 -0.0954  0.0609
 1082W        W 5146  10.489   1.928   3.141 -0.0203  0.2415 -0.5163
 1083W        W 5147   6.209   8.755   2.223  0.1881  0.1100 -0.1409
 1084W        W 5148  10.458   3.473  10.028  0.0166 -0.0235 -0.0127
 1085W        W 5149   1.076   6.304   2.196 -0.0929  0.1026 -0.2128
 1086W        W 5150   0.303   0.609   3.072  0.2892 -0.1273  0.0721
 1087W        W 5151   6.751   8.046   3.562  0.3238  0.0915  0.0717
 1088W        W 5152   1.971   0.195   0.425  0.3405 -0.0627  0.2806
 1089W        W 5153   8.572   8.226   8.054  0.0250  0.1742  0.0866
 1090W        W 5154   2.876   3.685   2.735 -0.1324 -0.1477  0.3652
 1091W        W 5155   3.456   8.703  11.147  0.2207  0.2094 -0.1131
 1092W        W 5156   4.022   2.739  10.049  0.3180 -0.0262 -0.0498
 1093W        W 5157   6.203   4.436   0.075  0.3299 -0.0103  0.2771
 1094W        W 5158   7.908   5.808   0.956 -0.0295 -0.5186  0.0349
 1095W        W 5159   1.959   8.480   0.985  0.2109  0.0415  0.3261
 1096W        W 5160   4.435   7.188   4.351 -0.1712 -0.0589 -0.0835
 1097W        W 5161   4.351   7.101  11.294  0.1793 -0.1883 -0.0343
 1098W        W 5162  10.462   4.832   1.526 -0.3612 -0.2161 -0.1303
 1099W        W 5163   2.752   1.676  11.379  0.2873  0.0388  0.0836
 1100W        W 5164   0.414   3.123  11.579 -0.0337  0.1530  0.3139
 1101W        W 5165  10.486   9.583   1.648  0.1912  0.1342 -0.0152
 1102W        W 5166   2.674   3.915   3.147  0.1156  0.1808 -0.0663
 1103W        W 5167   6.785   7.973   2.572 -0.0225  0.0839  0.1030
 1104W        W 5168   3.166   6.469   9.079  0.0012  0.1922  0.0974
 1105W        W 5169   1.049   8.692   2.238  0.1335  0.0295  0.1136
 1106W        W 5170   3.867   3.039  10.767 -0.1431  0.1045  0.0107
 1107W        W 5171   1.391   7.461   1.013 -0.0118  0.1104 -0.1098
 1108W        W 5172   5.216   2.986   2.669  0.2723 -0.1308 -0.0004
 1109W        W 5173   4.242   2.984  10.449 -0.2147  0.0821  0.2973
 1110W        W 5174   7.540   3.535   2.286 -0.0062  0.1942  0.0712
 1111W        W 5175   8.439   1.498   1.317 -0.0696  0.1165  0.2217
 1112W        W 5176   0.427   1.678   8.571  0.1381  0.1525  0.0131
 1113W        W 5177   1.638   4.626   9.967  0.1641 -0.0789  0.4086
 1114W        W 5178   0.416   3.486   0.358 -0.2427  0.2362  0.0936
 1115W        W 5179   5.368   0.264   3.413 -0.1344 -0.2221 -0.2863
 1116W        W 5180   3.752  10.455   0.148  0.2304 -0.2586 -0.1361
 1117W        W 5181   1.582   0.625   7.280 -0.0142 -0.4117 -0.4032
 1118W        W 5182   4.322   3.066   1.448  0.0946 -0.0669 -0.0205
 1119W        W 5183   5.140   0.678   9.445 -0.2190  0.0884  0.0820
 1120W        W 5184   6.662   8.351   0.734 -0.1653  0.3604 -0.0816
 1121W        W 5185   9.927   6.716   1.694 -0.2504  0.0865  0.0394
 1122W        W 5186   1.040   5.344   0.821 -0.3682  0.2578  0.2986
 1123W        W 5187   3.149  10.337   0.315 -0.1369 -0.0209  0.0055
 1124W        W 5188   6.772   4.097   8.874 -0.2577  0.0758  0.2388
 1125W        W 5189   2.871   6.453   2.295  0.2967 -0.4978  0.0213
 1126W        W 5190   1.497   9.457   2.376 -0.0083  0.0039  0.1499
 1127W        W 5191   8.434   2.788   3.133  0.1631 -0.1788 -0.0635
 1128W        W 5192   7.582  10.430   1.093 -0.1284 -0.0598 -0.0164
 1129W        W 5193   4.559   7.802   0.297 -0.0613 -0.0417 -0.3553
 1130W        W 5194   7.078   8.340   2.886  0.1948 -0.0345  0.2776
 1131W        W 5195   9.640   4.238   0.303  0.4423 -0.2499 -0.3533
 1132W        W 5196   1.058   9.414   0.633 -0.2372 -0.0730  0.1268
 1133W        W 5197   3.538   9.181  10.542  0.2407 -0.0805  0.2608
 1134W        W 5198   6.004   5.294  11.449 -0.0248  0.3255  0.2001
 1135W        W 5199   1.798   7.979   1.184 -0.3244  0.0451 -0.2226
 1136W        W 5200   4.193  10.281   8.762 -0.1876  0.0875 -0.5948
 1137W        W 5201   9.389   7.834  10.096  0.1369  0.0927 -0.0477
 1138W        W 5202   1.386   5.087   3.369 -0.2044 -0.3583 -0.1669
 1139W        W 5203   9.600   6.136   9.058  0.1205  0.1665 -0.0094
 1140W        W 5204   6.563   3.015   1.527 -0.2047 -0.1606 -0.1526
 1141W        W 5205   5.238   1.143  10.688 -0.2113 -0.2515 -0.1667
 1142W        W 5206   2.182   1.606  10.118 -0.1671  0.3024 -0.1462
 1143W        W 5207  10.322   9.184  11.365  0.1343 -0.0049  0.4310
 1144W        W 5208   9.949   9.537  11.523 -0.0116 -0.0221 -0.0992
 1145W        W 5209   2.959   3.326   2.002 -0.0528 -0.1373  0.5520
 1146W        W 5210  10.329   9.526   2.770  0.1343 -0.2320  0.0439
 1147W        W 5211   9.408   9.224   9.487 -0.1964  0.0004  0.1498
 1148W        W 5212   9.451   8.492  11.473  0.3463 -0.2435 -0.0838
 1149W        W 5213   6.459   6.244   2.646  0.2183  0.1129  0.0004
 1150W        W 5214   2.452   0.220   2.195  0.1652 -0.0823  0.3887
 1151W        W 5215   1.472   8.881   2.539 -0.1471 -0.2473  0.2138
 1152W        W 5216   5.906   8.273  10.109 -0.2511 -0.2084  0.1318
 1153W        W 5217   6.589   1.744   3.057 -0.0423  0.0291 -0.2339
 1154W        W 5218   4.128   6.686  10.450 -0.0425  0.0651 -0.2009
 1155W        W 5219   8.590   8.413   8.568 -0.0361 -0.3685  0.0658
 1156W        W 5220   9.092   6.179   0.760 -0.1667  0.0987  0.0921
 1157W        W 5221   1.858   9.741   2.237 -0.1102 -0.0205  0.1633
 1158W        W 5222   3.690   7.798   1.239  0.0605 -0.1193  0.2147
 1159W        W 5223   3.441   7.305  10.085  0.0931  0.2390  0.1116
 1160W        W 5224   5.481   5.504   2.760  0.0455 -0.0239  0.0996
 1161W        W 5225   4.450   8.631   9.361  0.2637 -0.1358  0.0676
 1162W        W 5226   8.531   1.530   3.802 -0.0333 -0.0467  0.0614
 1163W        W 5227   2.335   6.189  10.775 -0.2042  0.4024  0.1522
 1164W        W 5228  10.262   3.649   8.568 -0.4038 -0.2181 -0.0587
 1165W        W 5229   1.482   8.908   3.960  0.1191  0.2591  0.1261
 1166W        W 5230   2.065   2.341   2.769 -0.1564  0.2448  0.0468
 1167W        W 5231   0.444   4.374   2.168 -0.1057 -0.2875 -0.0741
 1168W        W 5232   9.636   8.022   2.116 -0.0636  0.1175  0.0763
 1169W        W 5233   4.973   1.695   1.897  0.1540 -0.4211 -0.1395
 1170W        W 5234   1.780   8.623   9.701 -0.0832  0.1192  0.0156
 1171W        W 5235   8.645   9.297   9.929 -0.1482  0.0744  0.0784
 1172W        W 5236   2.639   1.734   2.431  0.4599 -0.2015 -0.0406
 1173W        W 5237   2.213   6.420   0.040  0.0594 -0.1484  0.0312
 1174W        W 5238   0.404  10.041   9.772 -0.0546 -0.0881  0.1445
 1175W        W 5239   1.153   0.013   1.447 -0.0727  0.1167 -0.1780
 1176W        W 5240   3.289   4.760  10.347 -0.0501 -0.0682 -0.0618
 1177W        W 5241   7.094   7.024  11.221  0.3599  0.0317 -0.1588
 1178W        W 5242   7.544   2.290   7.661  0.2987  0.0768 -0.1101
 1179W        W 5243   5.598   1.958   1.326  0.0913  0.2176 -0.1744
 1180W        W 5244   7.466   4.343   3.109  0.2203  0.3579 -0.5028
 1181W        W 5245   6.525   2.074   0.469  0.2849  0.3528 -0.0384
 1182W        W 5246   3.526   2.794   0.392  0.1677 -0.0455  0.0344
 1183W        W 5247   5.450  10.051   7.853 -0.0401 -0.1018 -0.2585
 1184W        W 5248   9.696   8.461   0.706  0.2227 -0.2261 -0.1283
 1185W        W 5249   9.019   6.595  10.210  0.1249 -0.1106 -0.2716
 1186W        W 5250   7.369   8.452  10.954  0.2861 -0.7186  0.4778
 1187W        W 5251   9.054   8.916   2.093 -0.1008 -0.2237  0.4528
 1188W        W 5252   2.231   4.776  10.497  0.1286  0.0358  0.1425
 1189W        W 5253   7.288   3.239   1.982 -0.1545 -0.0499 -0.0534
 1190W        W 5254   2.526   9.170   0.960 -0.2867 -0.2934 -0.1279
 1191W        W 5255   3.618   7.246  10.533 -0.1778  0.1934 -0.1920
 1192W        W 5256   9.198   8.248   9.842  0.3242  0.1763 -0.2317
 1193W        W 5257   8.052   2.446   3.112 -0.3754 -0.4088 -0.0902
 1194W        W 5258   5.461   4.455   2.286 -0.4154 -0.1371 -0.0232
 1195W        W 5259   6.075   6.786   0.170 -0.2866  0.1574  0.5184
 1196W        W 5260   0.533   9.949  11.345 -0.1033 -0.1140 -0.1817
 1197W        W 5261   7.360  10.582  10.294  0.2430 -0.0169 -0.3422
 1198W        W 5262   3.939   0.599   0.639 -0.1294 -0.0222  0.3585
 1199W        W 5263   1.140   1.930   9.878 -0.1941 -0.0499 -0.0311
 1200W        W 5264   5.982   8.980   4.565 -0.0252 -0.0474  0.0974
 1201W        W 5265   1.138   6.738   9.081  0.0263  0.1227  0.0270
 1202W        W 5266   0.452   0.174   8.235  0.0994 -0.0627 -0.0939
 1203W        W 5267   6.760   9.753  10.750 -0.0188 -0.1715 -0.2979
 1204W        W 5268  10.189   5.276   4.136  0.2855  0.1040 -0.1729
 1205W        W 5269   8.722   2.938   7.522 -0.0012 -0.0108 -0.2035
 1206W        W 5270   3.518   5.019  10.015  0.1423  0.2000  0.0656
 1207W        W 5271   1.070   8.083   1.292 -0.0471  0.0641 -0.0910
 1208W        W 5272   2.064   2.572  10.910 -0.0056 -0.1989 -0.0557
 1209W        W 5273   7.242   0.904   3.008 -0.1055  0.1580  0.1877
 1210W        W 5274   5.827   6.504   3.588 -0.0020 -0.2167  0.2379
 1211W        W 5275  10.139   3.401   0.039  0.2069  0.0212 -0.3407
 1212W        W 5276   5.765   4.885   9.820 -0.0378  0.0234 -0.0770
 1213W        W 5277   2.848   8.645   1.372 -0.0121  0.0947  0.1672
 1214W        W 5278   9.086   9.572   9.862 -0.0019 -0.0534  0.0229
 1215W        W 5279   7.188   7.572   0.818  0.0984 -0.2411  0.1787
 1216W        W 5280   8.346   6.721   8.000  0.0385  0.2725 -0.2238
 1217W        W 5281   0.632   2.971  10.430 -0.1864 -0.1789 -0.0493
 1218W        W 5282   8.528   0.771   7.903 -0.0549 -0.0087 -0.0372
 1219W        W 5283   5.338   9.109   8.574 -0.1181  0.0232  0.1614
 1220W        W 5284   7.194   3.638  11.000  0.1878  0.2395  0.1082
 1221W        W 5285   4.920   5.315   9.128 -0.0437 -0.1164 -0.0228
 1222W        W 5286   1.728   7.258   8.925 -0.0565  0.3277  0.1903
 1223W        W 5287   6.564   9.193   2.753 -0.1041  0.2378  0.0003
 1224W        W 5288   4.289   1.699   3.060 -0.0030  0.0813  0.0109
 1225W        W 5289   9.000   7.058  10.930 -0.2506  0.0577  0.1053
 1226W        W 5290   6.508   0.105  11.340  0.2289  0.1653 -0.2383
 1227W        W 5291   7.807   2.504  10.452 -0.0897 -0.2514 -0.2526
 1228W        W 5292   4.136   8.093   0.039 -0.0662  0.0934 -0.1113
 1229W        W 5293   4.693  10.089   3.359  0.0669 -0.0961  0.0430
 1230W        W 5294   4.000   0.647   1.154  0.0751 -0.1505 -0.3051
 1231W        W 5295   7.704   7.366  11.556  0.4492 -0.0078 -0.0269
 1232W        W 5296   4.398   5.637   1.173  0.0326  0.0064  0.2311
 1233W        W 5297   3.527   0.101   7.668  0.5225  0.0383  0.0049
 1234W        W 5298   7.230   2.947  11.230 -0.0934  0.0126 -0.0967
 1235W        W 5299   1.672   2.234  10.027 -0.3166 -0.3494  0.2064
 1236W        W 5300   1.499   7.193   1.870  0.1800 -0.0286 -0.0481
 1237W        W 5301   2.106   9.519  10.527 -0.0451 -0.3787 -0.2523
 1238W        W 5302   4.313   0.161   1.833  0.0184  0.0249 -0.0296
 1239W        W 5303   8.507   8.005   3.753 -0.3702  0.0630  0.1280
 1240W        W 5304   2.223   8.430   0.274  0.0636 -0.1265  0.1806
 1241W        W 5305   2.029   2.873   0.764 -0.0717  0.2967  0.2294
 1242W        W 5306   0.289   9.576   9.494 -0.1971  0.1993 -0.1204
 1243W        W 5307   3.858   4.498   8.184 -0.0483  0.2763  0.0721
 1244W        W 5308   6.082   1.038   8.634  0.1670  0.1497 -0.0473
 1245W        W 5309   8.931   3.376  10.850  0.0978 -0.1986 -0.1111
 1246W        W 5310   4.319   0.825  11.394  0.2319 -0.3748  0.2375
 1247W        W 5311   3.301   2.814  10.620  0.2901 -0.0480 -0.1353
 1248W        W 5312   5.013   8.626  10.094  0.0010 -0.0749  0.0862
 1249W        W 5313   4.086   5.675   9.040 -0.2745  0.0079 -0.3285
 1250W        W 5314   2.274   7.487   9.311  0.1369 -0.0978  0.0541
 1251W        W 5315   2.814   9.074   0.047 -0.1778 -0.1305  0.3152
 1252W        W 5316   2.930   7.210   1.200  0.0208 -0.2172  0.0983
 1253W        W 5317   8.835   9.051  10.425  0.0846 -0.2251  0.0741
 1254W        W 5318   7.510   4.060   2.640 -0.1133 -0.1743  0.1211
 1255W        W 5319   4.406   9.983   8.393  0.1712 -0.0248  0.0093
 1256W        W 5320   9.843  10.126   9.319 -0.1675  0.3056  0.2173
 1257W        W 5321   5.127   8.145   3.163 -0.1627 -0.0595  0.0281
 1258W        W 5322   8.632  10.336   1.983  0.2193  0.0881  0.0408
 1259W        W 5323   7.368  10.264  11.453  0.2962  0.0209 -0.0976
 1260W        W 5324   5.692   9.207   0.584  0.0782  0.2557 -0.0977
 1261W        W 5325   8.138   8.473   3.903  0.0441 -0.0534 -0.1245
 1262W        W 5326   7.882   8.173  11.197 -0.5049  0.4060 -0.3339
 1263W        W 5327   3.064   1.601   3.433 -0.0841  0.0816 -0.2607
 1264W        W 5328   1.940   6.074   3.151  0.0514  0.0354 -0.1709
 1265W        W 5329   0.654   2.853   9.939  0.1630 -0.0758  0.1246
 1266W        W 5330   0.627   8.064  10.352  0.1874  0.0857  0.0095
 1267W        W 5331   1.639   7.664   9.898  0.0714 -0.3006  0.1273
 1268W        W 5332   3.646  10.537   3.655  0.0135 -0.0850 -0.1984
 1269W        W 5333   7.007   1.499   8.655 -0.1768 -0.0847 -0.1056
 1270W        W 5334   2.043   2.982  10.565  0.2022  0.1357 -0.0851
 1271W        W 5335   7.239  10.555   2.934 -0.1947 -0.0665 -0.4230
 1272W        W 5336   0.644   6.702   2.183  0.0170 -0.0357  0.1818
 1273W        W 5337   9.130   9.906   1.905  0.0490  0.2748  0.2702
 1274W        W 5338   9.142   8.841   3.057 -0.0550  0.1611 -0.0722
 1275W        W 5339  10.580   1.330   0.276 -0.1363  0.0412 -0.0528
 1276W        W 5340   3.378   2.385   9.261 -0.1243  0.1587 -0.0872
 1277W        W 5341   7.274   0.450  10.089 -0.2603  0.1735 -0.0073
 1278W        W 5342   3.305   3.882   0.258  0.2463 -0.0684  0.1112
 1279W        W 5343  10.260   8.227   0.084  0.2919  0.1229  0.3215
 1280W        W 5344   4.685   0.107   0.012 -0.1216  0.1096 -0.3503
 1281W        W 5345   4.715   9.263   1.309 -0.4713 -0.0144 -0.1134
 1282W        W 5346   7.696   1.205  10.924  0.1136  0.1744 -0.1166
 1283W        W 5347   6.601   5.840  10.178 -0.1964 -0.0159 -0.2282
 1284W        W 5348   2.474   1.930   8.745  0.1143  0.0000 -0.1114
 1285W        W 5349   7.034   1.994  10.838 -0.0432 -0.2662  0.1266
 1286W        W 5350  10.449   0.147   2.350  0.0968 -0.0141  0.2624
 1287W        W 5351   6.915   0.345   2.481 -0.0075  0.1884  0.0586
 1288W        W 5352   6.342   3.973   1.765 -0.0134 -0.3863  0.3552
 1289W        W 5353   6.295   8.244   3.490  0.0084  0.3973  0.0657
 1290W        W 5354   6.330   0.366  10.964 -0.0682  0.1269 -0.0595
 1291W        W 5355   8.437   2.289   8.601  0.3579 -0.1610  0.3998
 1292W        W 5356   5.738   0.179   7.682 -0.1030 -0.1247 -0.0356
 1293W        W 5357   5.143   8.417  10.711 -0.1176  0.2693  0.3177
 1294W        W 5358   8.805   0.320   8.947  0.1602 -0.3083 -0.1201
 1295W        W 5359   1.572   9.303   9.278 -0.2890  0.5839  0.3778
 1296W        W 5360   6.721   3.609   7.797  0.1222  0.1079 -0.1438
 1297W        W 5361   0.383   8.888  10.003 -0.2546  0.0724  0.0337
 1298W        W 5362   0.959   3.461   9.434 -0.0757 -0.0706  0.2154
 1299W        W 5363   3.177   0.235   3.328 -0.0536  0.1636 -0.0785
 1300W        W 5364   1.782   4.383   0.297  0.2617  0.0048 -0.1425
 1301W        W 5365   9.032   5.913   9.585  0.0994  0.1964  0.3704
 1302W        W 5366   7.915   8.117   2.586  0.3047 -0.3351  0.2060
 1303W        W 5367   6.872   9.876   9.456 -0.1331  0.0047  0.1700
 1304W        W 5368   0.449   0.284   9.652 -0.0197 -0.1627  0.2258
 1305W        W 5369   1.775   8.793  10.173  0.0721  0.0562  0.1760
 1306W        W 5370   3.898   7.170  11.136  0.0237  0.1199  0.1286
 1307W        W 5371   7.285   0.389   7.990  0.2397 -0.1120  0.1552
 1308W        W 5372   9.926   2.500  10.092  0.2136 -0.0418 -0.3882
 1309W        W 5373   5.974   0.670   8.954 -0.1138 -0.0802 -0.0793
 1310W        W 5374   9.340   0.199   8.797  0.0838  0.1467 -0.2816
 1311W        W 5375   5.323   2.438   8.558 -0.0948 -0.1314  0.1067
 1312W        W 5376   8.234   5.534   8.920  0.0839 -0.0620 -0.0280
 1313W        W 5377   8.103   1.157   1.079 -0.1265  0.1394 -0.3556
 1314W        W 5378   4.769   8.185   9.397 -0.0632 -0.0475  0.2691
 1315W        W 5379   7.692   0.362   0.400 -0.0076 -0.1326 -0.3191
 1316W        W 5380   3.225   0.014   7.284 -0.1965  0.2101  0.0587
 1317W        W 5381   1.511   5.186   0.604  0.1846 -0.0088  0.0991
 1318W        W 5382   5.172   7.674   1.502 -0.0905 -0.0725 -0.5917
 1319W        W 5383   4.823  10.042   1.114  0.1511  0.2235 -0.1868
 1320W        W 5384  10.462   0.582   8.010  0.2205  0.1633  0.1265
 1321W        W 5385   4.197   9.597   0.729 -0.3232  0.1116 -0.1601
 1322W        W 5386   4.622   4.719   3.354 -0.4071 -0.1944 -0.2515
 1323W        W 5387   9.079   0.503  10.958 -0.0890 -0.3857 -0.1809
 1324W        W 5388   0.795   5.203   8.891 -0.1064  0.1827 -0.1065
 1325W        W 5389   5.425   1.766  10.861  0.1829  0.0554  0.2837
 1326W        W 5390   1.429   1.186   1.052 -0.1374  0.0812  0.1671
 1327W        W 5391   8.958   4.562   9.537  0.0132  0.0920 -0.0933
 1328W        W 5392   5.314   1.225   0.330  0.1565 -0.1537 -0.1237
 1329W        W 5393   7.190   0.306  10.641 -0.3318  0.0930 -0.1726
 1330W        W 5394   4.393   2.107  10.636  0.1280  0.0598  0.2050
 1331W        W 5395   7.004   5.965   9.239 -0.4399 -0.3542 -0.0840
 1332W        W 5396   9.101   1.383   1.059 -0.2626 -0.1089 -0.2256
 1333W        W 5397   5.726   8.238   3.549  0.3315  0.0758 -0.0660
 1334W        W 5398   3.123   9.828   3.457  0.0926  0.1371 -0.0377
 1335W        W 5399   8.803   2.953   0.360 -0.0311 -0.2261  0.2180
 1336W        W 5400   1.259  10.560  10.202 -0.1754 -0.4744 -0.0758
 1337W        W 5401   5.289   6.738  10.261 -0.2160  0.0259  0.1445
 1338W        W 5402   5.214   7.007   3.028  0.2469  0.0492  0.0203
 1339W        W 5403   0.089   1.738   3.693  0.0462  0.2666 -0.0014
 1340W        W 5404   4.978   2.955  10.989 -0.0011 -0.3003  0.0794
 1341W        W 5405   5.790   2.916   3.306 -0.1840  0.0520 -0.1894
 1342W        W 5406   7.249   7.692  11.531 -0.0724 -0.2545  0.0058
 1343W        W 5407   6.753   1.418  11.575 -0.0379  0.2399  0.1861
 1344W        W 5408   9.416  10.509   0.291 -0.4067  0.0685 -0.3186
 1345W        W 5409   6.054   8.894   1.762 -0.3675  0.1120  0.1959
 1346W        W 5410   1.639   3.076   1.652  0.0329 -0.1261  0.0727
 1347W        W 5411   7.116   0.117   0.271  0.1257  0.0402  0.1791
 1348W        W 5412   6.536   2.766   9.037 -0.0411  0.1335 -0.2367
 1349W        W 5413   7.061   8.603   9.532 -0.0120 -0.1234 -0.4458
 1350W        W 5414   8.682   7.952   2.135 -0.1221  0.0976 -0.3948
 1351W        W 5415  10.121   1.406   3.187  0.2524  0.0733  0.2832
 1352W        W 5416   4.614   3.982   9.588  0.0282 -0.0212 -0.0459
 1353W        W 5417   4.196   8.011  10.585  0.3038  0.1365  0.2263
 1354W        W 5418   9.534   7.431   8.424 -0.2312 -0.1371 -0.1849
 1355W        W 5419   8.455   1.787   8.647  0.1393  0.1226  0.3037
 1356W        W 5420   5.388   2.423   2.000 -0.3179  0.0594  0.0417
 1357W        W 5421   1.709   9.857   3.121 -0.0406 -0.0978  0.3624
 1358W        W 5422   3.813   7.117   1.511  0.1020  0.0026 -0.2735
 1359W        W 5423   9.169   5.838   9.113  0.1197 -0.0936 -0.0286
 1360W        W 5424  10.399   8.404   1.319 -0.1213 -0.0984 -0.2506
 1361W        W 5425   9.900   4.369  11.526  0.4466  0.1447 -0.1740
 1362W        W 5426   7.535   7.443   9.382  0.0187  0.0534 -0.0728
 1363W        W 5427   4.214   1.551  11.402  0.1149 -0.0677  0.2820
 1364W        W 5428   4.885   4.331  11.384 -0.1518 -0.0736  0.0519
 1365W        W 5429   0.651   8.055   0.945 -0.2404 -0.3850 -0.3803
 1366W        W 5430   4.219   4.772   1.050  0.0896 -0.0467 -0.0993
 1367W        W 5431   9.989   6.597   0.155  0.0195 -0.0427  0.0328
 1368W        W 5432   1.789   3.338   0.737 -0.1774 -0.2675 -0.2616
 1369W        W 5433   2.440   7.186  10.097 -0.1293  0.2463  0.0748
 1370W        W 5434   3.045  10.308   1.392  0.1275  0.0453 -0.3885
 1371W        W 5435   6.862   3.836   1.523  0.1094 -0.0324  0.2482
 1372W        W 5436   5.791   5.111   2.026  0.1414  0.0314 -0.1571
 1373W        W 5437   1.061   0.024   2.783 -0.1121 -0.0550  0.0092
 1374W        W 5438   5.266   9.452   9.057  0.0462  0.1355 -0.3142
 1375W        W 5439  10.197   5.810   0.111 -0.1361  0.0620  0.0825
 1376W        W 5440   8.677   3.181   2.159  0.1746 -0.0526 -0.1793
 1377W        W 5441   6.421   0.779  10.151 -0.1512 -0.1379 -0.3369
 1378W        W 5442   7.527   8.285   0.893  0.2408  0.0388 -0.2692
 1379W        W 5443   2.048   3.777   9.679 -0.1062 -0.0761 -0.1659
 1380W        W 5444   7.038   0.379   1.476 -0.1754  0.3840 -0.0642
 1381W        W 5445   7.939   0.941  10.528  0.2193 -0.2854  0.0979
 1382W        W 5446   7.684   1.372   1.842  0.1219  0.4511 -0.1361
 1383W        W 5447   3.821  10.239   9.795  0.1993  0.0989 -0.0450
 1384W        W 5448   6.505   9.226   9.645 -0.1186  0.2819 -0.4452
 1385W        W 5449   5.303   8.851  10.902  0.1927  0.3461  0.0955
 1386W        W 5450   4.976   1.471   0.093  0.2595 -0.1621 -0.2324
 1387W        W 5451   8.110   8.415   3.012  0.0732  0.0043  0.2344
 1388W        W 5452   2.321   5.731   9.828 -0.1988  0.0310 -0.2989
 1389W        W 5453   9.521   0.279   7.935 -0.2431  0.0417 -0.0300
 1390W        W 5454   7.287  10.478   9.410 -0.5295 -0.2737  0.0588
 1391W        W 5455   3.291   3.409   3.884  0.0251  0.1940 -0.1313
 1392W        W 5456   6.761   4.411   2.647 -0.2429 -0.2019 -0.0447
 1393W        W 5457   0.805   2.613  11.029  0.0461 -0.1809  0.0345
 1394W        W 5458   5.190   6.577   9.252 -0.3552 -0.3073  0.0602
 1395W        W 5459   5.932   4.768  10.370 -0.1904 -0.1204  0.2494
 1396W        W 5460   2.306   0.501   8.187 -0.2814 -0.1904 -0.2745
 1397W        W 5461   9.936   3.919   0.071 -0.1173  0.0309 -0.1855
 1398W        W 5462   5.701   6.144   9.839 -0.1673 -0.2774  0.2730
 1399W        W 5463   1.950   9.692  11.010  0.0172 -0.0230  0.0227
 1400W        W 5464   7.711   8.943  10.082  0.0454  0.0152  0.1694
 1401W        W 5465   4.128   0.456   2.547 -0.1938 -0.1933  0.3016
 1402W        W 5466   2.815   1.059   2.543 -0.1330 -0.1544  0.2601
 1403W        W 5467   6.186   7.667   0.327 -0.4010 -0.2934  0.0576
 1404W        W 5468   7.156   5.554  10.727 -0.1116 -0.3190  0.1652
 1405W        W 5469  10.011   8.611   2.525  0.0081 -0.0883  0.2248
 1406W        W 5470   9.351   7.817   0.316  0.2249 -0.2927 -0.2149
 1407W        W 5471   7.810   8.805  11.173  0.2102  0.1187 -0.0952
 1408W        W 5472  10.188   3.643   9.538  0.0168 -0.0786  0.1739
 1409W        W 5473   8.401   3.798   9.621 -0.0724  0.1285  0.1279
 1410W        W 5474   6.553   6.546   0.095 -0.1733  0.0329  0.0233
 1411W        W 5475   6.933   8.970   0.731 -0.0686 -0.0441  0.0057
 1412W        W 5476   2.795   1.133   0.986  0.0762  0.0641 -0.0765
 1413W        W 5477   2.519   3.248   0.294 -0.0360 -0.2169 -0.1398
 1414W        W 5478   2.213   6.487   9.103 -0.1057 -0.1387 -0.0315
 1415W        W 5479   1.986   3.610   2.383 -0.3108 -0.1775 -0.2322
 1416W        W 5480   4.254   1.004   0.700  0.0885 -0.0537 -0.2457
 1417W        W 5481   4.974   5.599   2.861  0.2877  0.3272 -0.0300
 1418W        W 5482   3.789   1.765  11.235  0.0458 -0.1190 -0.4980
 1419W        W 5483   4.594   1.606   3.536  0.2579  0.1755 -0.0375
 1420W        W 5484   5.769   4.441   2.675 -0.1357  0.0938 -0.0864
 1421W        W 5485   3.874   5.248   0.441  0.2587  0.1576  0.2057
 1422W        W 5486   0.123   3.056   9.212  0.0341  0.2522  0.0125
 1423W        W 5487   2.066   7.275   0.533  0.1616  0.4429 -0.3046
 1424W        W 5488   6.381   2.846   3.232  0.0279  0.0376  0.1566
 1425W        W 5489   0.332   7.066   2.473 -0.0924 -0.0326  0.2551
 1426W        W 5490  10.405   9.531   3.308  0.1829  0.1552  0.1797
 1427W        W 5491   5.264   8.357   9.551  0.0081 -0.1213  0.0426
 1428W        W 5492   0.638   0.749   0.799  0.0740  0.2108  0.1795
 1429W        W 5493  10.420   7.064   8.771  0.4667  0.1277  0.0186
 1430W        W 5494   6.734   1.707   9.654 -0.0057 -0.1029  0.1381
 1431W        W 5495   4.947   6.860   1.241 -0.1187  0.3172  0.0971
 1432W        W 5496   2.984   9.727   1.526 -0.0480  0.1411  0.0312
 1433W        W 5497   4.477   9.422   8.389  0.1063  0.0915  0.1641
 1434W        W 5498   4.626   2.594  10.685  0.1332 -0.0002  0.0541
 1435W        W 5499   4.315   0.537   8.573 -0.0438 -0.1188  0.1440
 1436W        W 5500   3.676  10.557   2.638 -0.1414 -0.2114  0.1083
 1437W        W 5501   6.591   7.954   0.377  0.1287 -0.0527 -0.0611
 1438W        W 5502   5.771   7.802   8.711 -0.2248  0.1142  0.0728
 1439W        W 5503   8.129   9.529  11.375 -0.1063 -0.3384 -0.3221
 1440W        W 5504   8.672   5.394   3.574  0.0487  0.1743 -0.4019
 1441W        W 5505   7.565   1.979   9.621  0.1380  0.0668 -0.2351
 1442W        W 5506   1.682   7.939  10.444 -0.1420  0.2765 -0.0912
 1443W        W 5507   3.333   1.272  10.296  0.1100  0.1432  0.1271
 1444W        W 5508   3.945   1.229   8.105 -0.0040 -0.0067 -0.1244
 1445W        W 5509   9.222   4.926   1.770 -0.0884  0.0964  0.0904
 1446W        W 5510   1.067   6.501  11.223  0.1357  0.0318 -0.2030
 1447W        W 5511   4.599   6.826   1.776 -0.0376 -0.1933 -0.3245
 1448W        W 5512   3.588  10.042   3.584 -0.1624 -0.4001 -0.1063
 1449W        W 5513   1.812   4.627   2.595  0.0017  0.1598  0.1256
 1450W        W 5514   4.212   2.271   2.523 -0.1284  0.3014  0.1699
 1451W        W 5515   1.559   7.161   9.804 -0.2496  0.2758 -0.2132
 1452W        W 5516   1.726   7.762   0.739 -0.0189 -0.1164  0.0921
 1453W        W 5517   8.023   7.586   0.430  0.1162 -0.1766 -0.0056
 1454W        W 5518   1.347   2.104   0.640  0.2241  0.1200 -0.1962
 1455W        W 5519  10.374  10.143   9.514  0.2981 -0.1293 -0.1289
 1456W        W 5520   2.428   3.298   2.056  0.5139 -0.0182 -0.0232
 1457W        W 5521   3.832   3.971  11.559 -0.0813  0.5004  0.5102
 1458W        W 5522   7.120   8.196   9.872  0.0247 -0.0289 -0.0283
 1459W        W 5523   4.595  10.294   9.274  0.0428 -0.1837 -0.3702
 1460W        W 5524   3.609   0.341   0.920 -0.0464  0.0833 -0.0251
 1461W        W 5525   2.459   6.763   2.367  0.2164  0.1696  0.0263
 1462W        W 5526   0.576   8.281  10.807  0.2319  0.1674 -0.2850
 1463W        W 5527   6.395   0.319   8.313  0.2339 -0.3157 -0.1643
 1464W        W 5528   6.617   4.685   0.017 -0.0558  0.3230  0.3311
 1465W        W 5529   7.994   5.272   4.156  0.0351  0.0938  0.3546
 1466W        W 5530   9.087   3.008   1.160 -0.1994  0.0905 -0.1100
 1467W        W 5531   5.987   8.093   9.071 -0.0965  0.1412  0.0352
 1468W        W 5532   4.247   4.963   3.111  0.1044  0.0808 -0.2227
 1469W        W 5533   9.213   3.583   9.522  0.0554  0.2269 -0.1349
 1470W        W 5534   7.779   5.454   8.802 -0.0229 -0.0261 -0.1809
 1471W        W 5535   3.104   5.675  10.542 -0.1167  0.0678 -0.1371
 1472W        W 5536   2.634   7.120  10.979 -0.1854 -0.1902 -0.1200
 1473W        W 5537   2.244   6.838  11.389  0.0255  0.3052 -0.2152
 1474W        W 5538   1.873   0.790   0.436 -0.3436 -0.0073  0.0608
 1475W        W 5539   8.668   6.203   3.497 -0.1059  0.3465  0.0817
 1476W        W 5540   4.493   9.641   3.267  0.1053  0.3099 -0.0447
 1477W        W 5541  10.600   7.086  11.397  0.4884 -0.0931  0.0807
 1478W        W 5542   3.583   0.246  10.536  0.2219 -0.0380 -0.1476
 1479W        W 5543   5.093   8.980   9.043  0.0846  0.1852 -0.3252
 1480W        W 5544   5.021   8.829   1.841 -0.2380  0.1807 -0.0980
 1481W        W 5545   9.992   9.945   9.770 -0.2124  0.0127 -0.2502
 1482W        W 5546   5.902   9.608   9.075 -0.0054  0.0764 -0.2349
 1483W        W 5547   7.445   8.513   8.625  0.4067 -0.1390  0.2977
 1484W        W 5548   2.439   5.414   9.465 -0.3785 -0.0945 -0.0027
 1485W        W 5549   6.832   5.672   0.827  0.0190  0.1351  0.1798
 1486W        W 5550   1.363   8.326   8.343  0.1510 -0.0674  0.1157
 1487W        W 5551   6.545   6.005   1.168  0.2328 -0.4316  0.4470
 1488W        W 5552  10.275   8.516   3.672 -0.1525  0.2179 -0.0613
 1489W        W 5553   8.715   2.809   8.566 -0.2832  0.1134  0.0126
 1490W        W 5554   4.588   8.513   1.652 -0.1244  0.2439  0.2637
 1491W        W 5555   3.227   3.842   8.818 -0.1599 -0.1641  0.0623
 1492W        W 5556   8.275   5.109  10.933 -0.1467  0.0424 -0.2106
 1493W        W 5557   4.731   2.940   8.123 -0.2809 -0.0767 -0.0946
 1494W        W 5558   9.583   7.220   4.185  0.0886  0.0521  0.0146
 1495W        W 5559   7.609   9.333  11.082 -0.2280 -0.0316  0.2755
 1496W        W 5560   7.615   1.944   1.256  0.0244 -0.2174 -0.0764
 1497W        W 5561   0.728   9.500   2.126  0.1955 -0.1562  0.0370
 1498W        W 5562   0.087   2.785  11.381  0.0155  0.0646  0.0053
 1499W        W 5563   5.784   7.615  10.671 -0.0250  0.2985  0.4397
 1500W        W 5564   3.181   4.837   0.616  0.0384  0.1765 -0.1131
 1501W        W 5565   6.537   5.415   2.595  0.2276 -0.1097  0.2967
 1502W        W 5566   0.007   9.883   9.170  0.3157 -0.1004 -0.0007
 1503W        W 5567   3.094   0.095   9.765 -0.0531  0.0150 -0.1165
 1504W        W 5568   3.395   9.537   1.277  0.0624  0.1414 -0.2156
 1505W        W 5569   2.628   4.418  11.346 -0.0443 -0.0156 -0.1066
 1506W        W 5570   2.314   8.552   2.437 -0.2444 -0.0061  0.0182
 1507W        W 5571   9.488   7.505   8.905 -0.1950 -0.2245  0.0477
 1508W        W 5572   0.854   9.878   0.708  0.2695  0.0561  0.1167
 1509W        W 5573   3.531   0.122  10.021 -0.0705 -0.0980 -0.0020
 1510W        W 5574  10.528   7.397  10.675  0.0143 -0.2579  0.0323
 1511W        W 5575  10.427   7.898   1.039 -0.0782 -0.3395 -0.0145
 1512W        W 5576   0.984   9.958   2.119 -0.2687 -0.0925 -0.0929
 1513W        W 5577   2.413   4.059   1.636  0.0823 -0.3845  0.0977
 1514W        W 5578   3.072   9.580  10.482 -0.2556  0.0239  0.1662
 1515W        W 5579   6.682   9.533   8.686 -0.1340  0.2466 -0.0455
 1516W        W 5580   7.869   2.451   9.028  0.2003  0.0450  0.0435
 1517W        W 5581   0.574   2.243   1.833  0.0937  0.1445 -0.0204
 1518W        W 5582   2.831   1.445   2.847 -0.1435  0.3996  0.0330
 1519W        W 5583   4.859   9.991   9.648  0.1952  0.0308 -0.0809
 1520W        W 5584   9.293   5.922  11.414 -0.1693 -0.0803 -0.0174
 1521W        W 5585   2.765   2.085   0.117 -0.1643  0.3138 -0.0697
 1522W        W 5586   3.788   2.304   9.787  0.3505  0.1161 -0.0159
 1523W        W 5587   7.416   8.489  11.487 -0.1569 -0.1783 -0.0114
 1524W        W 5588   1.605   3.243   2.690  0.3677  0.2099 -0.0381
 1525W        W 5589   5.926   0.459   0.666  0.0751  0.0185 -0.0862
 1526W        W 5590  10.076   0.310  11.105  0.0623 -0.0666 -0.1528
 1527W        W 5591   0.092   4.547   0.639  0.1897 -0.0649  0.0429
 1528W        W 5592   0.236   2.094   8.720 -0.2068  0.1929 -0.0429
 1529W        W 5593   2.168   8.763   0.671  0.0059  0.0243  0.2680
 1530W        W 5594   4.240  10.512  11.047 -0.2928 -0.1912  0.1004
 1531W        W 5595   0.095  10.440   0.630 -0.1154  0.0397  0.0678
 1532W        W 5596   8.411   7.655   3.430  0.0059  0.3119  0.0413
 1533W        W 5597   2.373   8.846   8.906  0.0967 -0.1225  0.1092
 1534W        W 5598   4.865   1.038   8.578 -0.1443  0.1324 -0.0267
 1535W        W 5599   2.677  10.423   7.792  0.0246  0.4764 -0.1604
 1536W        W 5600   6.578   5.209  11.482 -0.3428  0.1147  0.0021
 1537W        W 5601   2.150   7.820   0.347  0.0397  0.1430  0.0789
 1538W        W 5602   2.519   4.040   2.600 -0.0861  0.0388 -0.0082
 1539W        W 5603   5.461   5.062   9.413  0.0370 -0.0230  0.0408
 1540W        W 5604   3.872   1.239  10.459  0.1696  0.0317 -0.3129
 1541W        W 5605   8.111   8.765   3.408 -0.1681  0.2610 -0.0937
 1542W        W 5606   5.627   0.435   8.660 -0.2985 -0.0619  0.1256
 1543W        W 5607   9.011   1.574   1.917 -0.0046 -0.1377 -0.1467
 1544W        W 5608   7.038   9.077   9.328 -0.0137  0.0259 -0.0236
 1545W        W 5609   9.628   5.767   1.491 -0.1413  0.1894 -0.0007
 1546W        W 5610   8.814   4.544   2.826 -0.0285 -0.0269 -0.1452
 1547W        W 5611   7.604   6.329   2.088 -0.1418  0.2619  0.2761
 1548W        W 5612   3.159   2.477   1.157  0.0484 -0.2685  0.0738
 1549W        W 5613   8.714   0.338   0.453 -0.1440  0.1198  0.3097
 1550W        W 5614   6.567  10.371   0.653 -0.3348 -0.0688  0.4749
 1551W        W 5615   5.834   7.316   3.322 -0.0571  0.1191 -0.1431
 1552W        W 5616  10.532   0.650   0.667 -0.0716 -0.2590 -0.1097
 1553W        W 5617   4.103   9.310  11.267  0.0521 -0.4282  0.2821
 1554W        W 5618   8.812   6.148   8.368 -0.0923  0.1159 -0.3031
 1555W        W 5619   7.518   1.617   3.556  0.1408  0.0172 -0.0809
 1556W        W 5620   7.274   7.266   0.158 -0.2232  0.0611 -0.1061
 1557W        W 5621   3.159   7.016   1.600  0.0409 -0.1394  0.2768
 1558W        W 5622   6.130   0.449   1.639 -0.1391 -0.1105  0.0071
 1559W        W 5623   0.926   9.615  11.285 -0.3665 -0.1215 -0.0319
 1560W        W 5624   7.045   0.991   0.885 -0.0956 -0.0354  0.2601
 1561W        W 5625   9.921   7.188   0.970  0.1461  0.0831 -0.2571
 1562W        W 5626   0.138   9.662   2.963 -0.0630 -0.2035  0.0488
 1563W        W 5627   9.965   1.220  10.384  0.0299  0.0516  0.0053
 1564W        W 5628   7.474  10.079   3.716  0.3887 -0.1651 -0.2784
 1565W        W 5629   8.317   6.623  10.609 -0.0491 -0.0530 -0.0122
 1566W        W 5630   2.522   9.122   1.502 -0.0072  0.1275 -0.0593
 1567W        W 5631   7.432   2.493   2.928  0.0108  0.3416  0.0074
 1568W        W 5632   6.458  10.013   0.999 -0.3898 -0.1893  0.0793
 1569W        W 5633   9.779   7.981   0.674  0.3067  0.0149  0.3093
 1570W        W 5634   7.809   9.623   2.155 -0.3376  0.0711  0.0167
 1571W        W 5635   6.952   1.281   9.690  0.1222  0.1083 -0.1752
 1572W        W 5636   8.215   9.913   1.325 -0.3340  0.1731  0.0393
 1573W        W 5637   6.358   1.612   9.157 -0.0459  0.2430  0.0160
 1574W        W 5638   3.396   3.080   2.298 -0.0342 -0.1624  0.1739
 1575W        W 5639   8.538   2.838   9.751 -0.0925 -0.0754  0.0408
 1576W        W 5640   7.480   2.507   0.513  0.0372 -0.3164  0.2499
 1577W        W 5641   1.077   0.836   1.108  0.1439 -0.1350  0.0014
 1578W        W 5642   0.087   1.397   3.249 -0.2931  0.0007 -0.2954
 1579W        W 5643   8.780   9.931   2.361 -0.0382 -0.1995  0.0479
 1580W        W 5644   4.236   6.495   9.763 -0.2373  0.1146  0.1178
 1581W        W 5645   0.066   8.255   8.207 -0.0273  0.2094  0.2745
 1582W        W 5646   3.575   8.258   7.964  0.0892 -0.1070 -0.0953
 1583W        W 5647   1.210   2.288   9.101 -0.0436  0.1714 -0.3144
 1584W        W 5648   2.822   4.630   2.376 -0.2241  0.1827 -0.1547
 1585W        W 5649   0.433   7.632   3.282  0.1440 -0.3187  0.1724
 1586W        W 5650   1.630   2.458   1.926 -0.2233  0.1632  0.1240
 1587W        W 5651   3.268   5.999   2.309  0.3481  0.0088  0.3208
 1588W        W 5652   0.119   0.736   7.013 -0.0578  0.2575  0.2176
 1589W        W 5653   8.293   4.245   8.919 -0.0697  0.1694 -0.0419
 1590W        W 5654   1.719   7.329   2.756 -0.3917 -0.0679  0.1423
 1591W        W 5655   3.698  10.216   4.313  0.3133  0.0470  0.0488
 1592W        W 5656   4.817   6.909   9.144  0.2257  0.0070 -0.0668
 1593W        W 5657   7.155   6.990   1.055  0.1049 -0.0373  0.1863
 1594W        W 5658   5.087   3.899   3.638  0.0296  0.0649 -0.1553
 1595W        W 5659   4.561   4.689  11.548 -0.2251 -0.1447 -0.0203
 1596W        W 5660   3.887   1.299   3.225 -0.1197  0.0944 -0.0005
 1597W        W 5661   1.556   8.925   8.537  0.0147  0.2522  0.0711
 1598W        W 5662   7.851   9.572  10.264 -0.1025  0.1369 -0.2231
 1599W        W 5663   5.897   8.071  11.110  0.3261  0.3734 -0.1668
 1600W        W 5664   2.992   7.978   2.288 -0.1102  0.2970  0.1427
 1601W        W 5665   6.923   6.433   8.968 -0.3995  0.1830 -0.1684
 1602W        W 5666   8.621   7.131  11.360 -0.0437 -0.2101 -0.1394
 1603W        W 5667   4.772   2.529   9.696 -0.1878  0.0710 -0.0327
 1604W        W 5668   3.798   2.522   7.424 -0.3450 -0.1820  0.0152
 1605W        W 5669   8.169   9.058  11.608 -0.0129  0.0124  0.1553
 1606W        W 5670   8.082   9.658   9.403  0.1589  0.2308 -0.0041
 1607W        W 5671   8.806   1.460   8.456 -0.1154  0.1652 -0.1242
 1608W        W 5672   0.164   6.941   2.960 -0.0102 -0.1566 -0.1265
 1609W        W 5673   2.104   3.234  10.143  0.0371 -0.0868  0.0028
 1610W        W 5674   9.603  10.248   0.668 -0.2363  0.1708 -0.0716
 1611W        W 5675   5.490  10.177   1.284 -0.1767 -0.3532 -0.0544
 1612W        W 5676   5.353   2.061  11.310 -0.3281 -0.0584 -0.0805
 1613W        W 5677   5.229   2.851   9.095 -0.1733 -0.2417 -0.0794
 1614W        W 5678   1.178   9.098   8.200  0.3810 -0.5489  0.0958
 1615W        W 5679   8.831   3.709   1.650 -0.3718  0.0678  0.2950
 1616W        W 5680   0.560   3.716   1.979 -0.1275  0.0063 -0.1990
 1617W        W 5681   0.521   3.979   2.460  0.1018  0.2248 -0.0337
 1618W        W 5682   0.972   5.753   8.735  0.1270  0.0489 -0.1146
 1619W        W 5683   5.884   9.398  11.352 -0.0345 -0.1601  0.3328
 1620W        W 5684   0.329   3.025   8.755  0.0460 -0.3237 -0.1379
 1621W        W 5685   7.822   0.307   2.552  0.1277  0.2227 -0.1408
 1622W        W 5686  10.000   9.215  10.930  0.0635  0.0797 -0.2845
 1623W        W 5687   8.535  10.308   0.800  0.0385  0.0140  0.2869
 1624W        W 5688   3.362  10.016   1.680 -0.0984 -0.1217 -0.0021
 1625W        W 5689   7.793   6.209   0.577 -0.1581  0.2946  0.1411
 1626W        W 5690   7.255   1.542  10.848  0.2431  0.0575 -0.0720
 1627W        W 5691   1.868   6.233   8.800 -0.1120  0.2293  0.1168
 1628W        W 5692   2.613   7.667  10.284  0.1746 -0.2541 -0.0968
 1629W        W 5693   4.274   1.025  10.710  0.0632 -0.0993 -0.3467
 1630W        W 5694   0.131   6.331  10.825 -0.1523 -0.0420  0.1615
 1631W        W 5695   6.030   9.217   2.730 -0.1045  0.1931 -0.1433
 1632W        W 5696   0.131   8.042   2.442  0.1366  0.0379 -0.1283
 1633W        W 5697   4.155   8.300   0.587 -0.1087  0.2131  0.2936
 1634W        W 5698   8.182   0.645  11.362  0.0333 -0.1090  0.2157
 1635W        W 5699   8.704   6.482   0.630 -0.1496 -0.1521  0.0127
 1636W        W 5700   3.847   6.698   8.106  0.0352 -0.0095 -0.1119
 1637W        W 5701   0.737   9.029  10.548  0.2970  0.1865  0.0985
 1638W        W 5702   7.364   5.899   1.862 -0.0809 -0.0688  0.0518
 1639W        W 5703   2.351  10.442  10.867 -0.0282  0.0200  0.2349
 1640W        W 5704   3.384   6.162   1.847  0.1221  0.0458 -0.1895
 1641W        W 5705   9.986   8.361   9.166  0.2820  0.0828  0.3033
 1642W        W 5706   0.251   0.059  11.522  0.1189 -0.1915  0.0647
 1643W        W 5707   4.049   8.374   7.431 -0.1537  0.2722  0.2821
 1644W        W 5708   1.271   1.050   9.361 -0.0927 -0.1917 -0.0944
 1645W        W 5709   8.047   4.425   3.746 -0.4234 -0.0086 -0.0297
 1646W        W 5710   2.972   2.190   9.577 -0.3349  0.0968 -0.0730
 1647W        W 5711   9.981   3.881  11.219  0.3029  0.2960  0.4264
 1648W        W 5712   5.612   8.798   0.237  0.4523 -0.0907  0.3738
 1649W        W 5713   7.507   6.399   4.579 -0.1121  0.0039 -0.1871
 1650W        W 5714   9.042  10.303   1.574  0.0341  0.0063  0.1103
 1651W        W 5715   0.751   5.238  10.875  0.0698 -0.1489  0.0917
 1652W        W 5716   1.945   5.962  11.216 -0.2071 -0.1525  0.3406
 1653W        W 5717   1.162   9.063   3.404  0.1391 -0.0178 -0.3410
 1654W        W 5718   8.640   7.148   2.765  0.0663 -0.0079  0.0776
 1655W        W 5719   8.517   1.499   0.715 -0.2848 -0.0283  0.0973
 1656W        W 5720   0.148   6.470   3.172  0.1915  0.2000  0.4104
 1657W        W 5721   6.998   4.920   3.765  0.1767  0.0094  0.0626
 1658W        W 5722   2.716   2.296   0.583  0.0693  0.4787  0.1206
 1659W        W 5723  10.244   7.436   9.307 -0.1436 -0.2573  0.2716
 1660W        W 5724   2.866   4.207   9.131  0.0578 -0.4721 -0.0188
 1661W        W 5725   3.347  10.076  11.175 -0.0999 -0.0582 -0.3652
 1662W        W 5726   5.759  10.011   2.273 -0.1445 -0.4063 -0.1715
 1663W        W 5727   3.415   7.330   1.199  0.0680 -0.0503 -0.1627
 1664W        W 5728   8.281   9.228   0.761 -0.3308 -0.0779  0.1669
 1665W        W 5729   5.478   2.017   3.759  0.0989 -0.0831  0.1409
 1666W        W 5730   6.081   3.790   1.059  0.2999  0.3343 -0.2268
 1667W        W 5731   4.469   7.845   3.588 -0.0531  0.4063  0.4403
 1668W        W 5732   0.593  10.494   2.684 -0.2134 -0.0052  0.1852
 1669W        W 5733   9.308   2.601   3.203  0.1259 -0.0588 -0.2561
 1670W        W 5734   5.061   7.711   0.126 -0.0641  0.0821 -0.0333
 1671W        W 5735   8.692   8.929  11.497 -0.0663  0.3184  0.2005
 1672W        W 5736  10.238   6.567   8.623  0.1643 -0.0441 -0.0315
 1673W        W 5737   3.960   7.441   3.175  0.0006  0.2647  0.2138
 1674W        W 5738   0.307   7.479   2.182 -0.1119 -0.0351 -0.0715
 1675W        W 5739  10.483   5.145   2.367  0.1180 -0.1087  0.1558
 1676W        W 5740   4.811   8.133   8.581 -0.0954  0.2403  0.0099
 1677W        W 5741   5.166   5.797   1.425  0.2665 -0.2505 -0.0448
 1678W        W 5742   2.807   7.155   2.508 -0.0736  0.1112  0.1215
 1679W        W 5743   0.768   0.307  11.377 -0.1384  0.3424 -0.0582
 1680W        W 5744   9.163   2.621   1.483  0.0064  0.2998  0.0818
 1681W        W 5745   9.528  10.308   8.626  0.2017 -0.2001 -0.1409
 1682W        W 5746   9.788   9.057  11.402 -0.1681 -0.1410 -0.0873
 1683W        W 5747   2.423   6.737   9.496 -0.0794  0.0972 -0.0210
 1684W        W 5748  10.123   1.874   3.534  0.0451  0.2769 -0.0036
 1685W        W 5749   1.281   2.488  10.813  0.0413  0.0681  0.1912
 1686W        W 5750   5.903   9.946   9.618 -0.0855  0.1125 -0.3242
 1687W        W 5751   6.320   3.902   0.284  0.0176  0.2593 -0.2057
 1688W        W 5752   9.454   7.572   1.302 -0.0025  0.0749  0.2479
 1689W        W 5753   8.627  10.331   2.999  0.0614  0.1502  0.1621
 1690W        W 5754   9.483   7.272   2.356 -0.1769  0.1394  0.1285
 1691W        W 5755   0.179   0.981   2.273 -0.0737  0.0242 -0.0080
 1692W        W 5756   3.336   6.559  11.076 -0.0950 -0.0633 -0.2160
 1693W        W 5757   2.408   9.935   9.794 -0.2342  0.0958 -0.0261
 1694W        W 5758  10.609   2.150  10.746  0.1734  0.0280  0.0529
 1695W        W 5759   6.251   9.598   2.302  0.1734  0.0390 -0.1081
 1696W        W 5760   3.598   6.747  10.470 -0.0942  0.1480  0.2167
 1697W        W 5761   6.370   3.328  11.084 -0.0210 -0.1794  0.0267
 1698W        W 5762   2.094   8.752  11.025  0.0709  0.0576  0.0134
 1699W        W 5763   8.641   1.959   0.055  0.1685  0.1322  0.3843
 1700W        W 5764   8.918   7.499   0.102  0.0724 -0.0238  0.2243
 1701W        W 5765   9.848   8.681   8.651 -0.2786  0.0772  0.1673
 1702W        W 5766   9.001   0.533   9.426  0.1372  0.0224  0.1699
 1703W        W 5767  10.603   6.096   2.673 -0.2227 -0.1833  0.0101
 1704W        W 5768   9.837   9.596   1.555 -0.1980 -0.2446 -0.0294
 1705W        W 5769   3.768   9.408  10.149 -0.0101 -0.0048 -0.0168
 1706W        W 5770   6.472   3.251  10.178  0.0954  0.1272 -0.0674
 1707W        W 5771   2.501   7.419   1.698 -0.1427  0.1799 -0.2114
 1708W        W 5772   5.344   3.222   1.292 -0.1617  0.1891 -0.1901
 1709W        W 5773   8.882   4.130   2.391 -0.1412 -0.0231  0.1623
 1710W        W 5774   8.569   2.163  10.809  0.4274 -0.3687  0.0607
 1711W        W 5775   2.987   3.282   2.480  0.0289 -0.1236  0.0225
 1712W        W 5776   9.122   6.649   8.574  0.0866  0.1420 -0.3385
 1713W        W 5777   1.312   8.273  10.861  0.1646 -0.2765  0.0363
 1714W        W 5778   8.359   6.572   8.883  0.2846  0.2629 -0.0730
 1715W        W 5779   6.999   0.763  10.318  0.1543 -0.2701 -0.3762
 1716W        W 5780   0.279   2.638   1.483  0.1479  0.0354 -0.0413
 1717W        W 5781   6.022  10.421   0.558 -0.0765 -0.0914 -0.0979
 1718W        W 5782   7.476   5.557   8.406  0.1444  0.2682  0.1938
 1719W        W 5783   1.993   1.535   1.014  0.1013  0.1776  0.2630
 1720W        W 5784   3.877   5.318   1.826 -0.0080 -0.0395 -0.0303
 1721W        W 5785   1.063   3.914  10.511  0.2636 -0.0638 -0.0176
 1722W        W 5786   5.864   9.475   3.300 -0.0736  0.0698 -0.0443
 1723W        W 5787   4.368   0.567  10.435  0.1096 -0.1964  0.0737
 1724W        W 5788   2.683   0.247   3.269  0.2412  0.3442  0.1356
 1725W        W 5789   9.096   1.012  11.186 -0.1945 -0.2660 -0.2360
 1726W        W 5790   8.676   4.807  10.152  0.1258  0.0494 -0.0972
 1727W        W 5791   8.071   7.178  10.484  0.2244 -0.0032  0.1209
 1728W        W 5792   5.000   3.675   2.062 -0.2124  0.1241  0.2478
 1729W        W 5793   2.478  10.613   8.240 -0.3589  0.1576 -0.2082
 1730W        W 5794   3.180   6.158   2.783  0.0628  0.2560 -0.0489
 1731W        W 5795   9.096   3.076   3.145 -0.0744  0.1131  0.0370
 1732W        W 5796   2.124   9.515   9.033 -0.4849  0.4038 -0.3766
 1733W        W 5797   6.994   0.423   3.019 -0.1521  0.2718  0.0763
 1734W        W 5798   1.184  10.277   1.835 -0.0238  0.1294 -0.1205
 1735W        W 5799   8.239   3.516   0.987 -0.0311  0.1910 -0.0974
 1736W        W 5800   0.685   7.577   8.513 -0.0930  0.0146  0.0258
 1737W        W 5801   5.339   9.801   3.850 -0.0296 -0.1316  0.0895
 1738W        W 5802   5.660   2.461   9.045  0.1195 -0.1174 -0.0082
 1739W        W 5803   6.080  10.110   2.727 -0.4832 -0.0237 -0.0548
 1740W        W 5804   3.796   8.716   2.905 -0.0471  0.1433  0.1245
 1741W        W 5805   6.732  10.414   3.740  0.0996 -0.1051 -0.0644
 1742W        W 5806   2.878   5.171  10.452 -0.0517 -0.1128  0.1140
 1743W        W 5807   0.219   9.416   2.468  0.1284 -0.1444  0.2374
 1744W        W 5808   4.690   2.447   0.174  0.3686 -0.0047  0.1404
 1745W        W 5809   5.088   9.069   0.433  0.2495  0.0109  0.2067
 1746W        W 5810   9.473   3.335   9.840 -0.1962 -0.2610 -0.0746
 1747W        W 5811   6.825   3.790   0.504 -0.0067  0.2665 -0.0108
 1748W        W 5812   4.605   1.911   2.153  0.0584  0.1351 -0.1856
 1749W        W 5813   0.605   5.773   2.592  0.1688 -0.2146  0.1207
 1750W        W 5814   3.715   5.119  10.820 -0.0090 -0.2071  0.1253
 1751W        W 5815   8.358   4.731  10.566  0.0223  0.2009 -0.3121
 1752W        W 5816   0.385   8.128   1.739  0.0770  0.0998  0.0077
 1753W        W 5817   6.576   4.082   3.107  0.1635 -0.0463  0.0319
 1754W        W 5818   9.183   9.294   0.625  0.0793 -0.1192  0.0941
 1755W        W 5819   3.590   1.879   1.577  0.0358 -0.1319 -0.0999
 1756W        W 5820   3.676   4.325   9.439  0.0676  0.1120  0.0817
 1757W        W 5821   9.643   4.212   3.453  0.0693  0.0468 -0.1063
 1758W        W 5822   9.598   6.161   0.585 -0.2205 -0.1018 -0.0804
 1759W        W 5823   8.460   3.636   3.563 -0.1555  0.2955  0.0305
 1760W        W 5824   4.652   6.627   0.922 -0.3056  0.0986 -0.1065
 1761W        W 5825   6.341   8.409   0.354  0.5384  0.2430 -0.0665
 1762W        W 5826   2.797   0.663  11.577 -0.1279 -0.0522 -0.2803
 1763W        W 5827   1.232   3.514   3.083  0.2016 -0.0830  0.2367
 1764W        W 5828   0.357   2.323  11.553  0.2516  0.0616  0.1257
 1765W        W 5829   2.479   2.012   1.621  0.2843  0.0856 -0.1995
 1766W        W 5830   7.243   2.952   0.723  0.0769 -0.0246  0.1184
 1767W        W 5831   9.510   6.104   8.022  0.0829  0.1686  0.0547
 1768W        W 5832   6.856   8.377  10.312  0.0455  0.0607  0.0846
 1769W        W 5833   7.175   5.734  10.199  0.2606 -0.0179 -0.1040
 1770W        W 5834   2.072   7.261   0.007 -0.0161  0.2786 -0.3462
 1771W        W 5835   6.634   0.546   8.975  0.1078  0.0279 -0.1321
 1772W        W 5836   3.142   6.858   2.181 -0.0874 -0.7155 -0.1146
 1773W        W 5837   2.892   3.345  10.148  0.1480 -0.3855  0.0842
 1774W        W 5838   8.348   0.997   0.534  0.1712  0.0196 -0.0092
 1775W        W 5839  10.309   1.212   2.062  0.1081  0.0068  0.2413
 1776W        W 5840   8.078   1.647   1.957 -0.1379 -0.4195 -0.2262
 1777W        W 5841   9.354   9.368   4.212  0.2592  0.0981  0.1503
 1778W        W 5842   6.118   8.783   8.103 -0.0028  0.0069  0.0848
 1779W        W 5843   7.436   1.728   8.780 -0.2943 -0.0461  0.2145
 1780W        W 5844   1.215   8.277   7.893 -0.1589  0.2333  0.1463
 1781W        W 5845   2.690   7.587   2.803 -0.1243  0.0025 -0.0314
 1782W        W 5846   9.454   4.536  10.487  0.2079 -0.3379  0.2100
 1783W        W 5847   9.013   6.844   3.169  0.2595  0.2901 -0.1041
 1784W        W 5848   8.652   7.708   2.874 -0.0819  0.0914 -0.0632
 1785W        W 5849   0.883   8.225   2.287 -0.1688  0.3030 -0.0661
 1786W        W 5850   4.884   5.377   8.635  0.0179  0.0349 -0.2229
 1787W        W 5851   0.713   5.640  10.539 -0.1301 -0.2074  0.0105
 1788W        W 5852   7.682   2.488   1.856  0.0098 -0.3864  0.0014
 1789W        W 5853   9.301   1.165   2.015  0.0779 -0.1301 -0.2604
 1790W        W 5854  10.292   8.104   0.589 -0.2062 -0.4200  0.3294
 1791W        W 5855   9.946  10.168   1.348 -0.3117  0.0531 -0.0861
 1792W        W 5856  10.605   1.958   0.077 -0.0913 -0.1938  0.3984
 1793W        W 5857   0.400   4.584   8.072  0.1340  0.0587 -0.0829
 1794W        W 5858   8.686   1.234   7.340 -0.2737 -0.2832 -0.0123
 1795W        W 5859   9.018   9.265   0.141  0.2151 -0.1962  0.1098
 1796W        W 5860   8.596   9.593   3.455  0.1344 -0.1666 -0.0273
 1797W        W 5861   3.485   1.038  11.131 -0.0460  0.0223 -0.0642
 1798W        W 5862   4.312   4.914  10.181  0.2426  0.1001  0.0677
 1799W        W 5863   6.960   4.393   9.263 -0.1450  0.2251  0.0476
 1800W        W 5864   8.817   8.000  10.144  0.1080 -0.1259  0.4129
 1801W        W 5865   7.439   9.938   7.249  0.1455  0.1974 -0.2800
 1802W        W 5866   6.974   9.435   0.655 -0.0568  0.0319  0.1203
 1803W        W 5867   5.810   4.916   3.616  0.1235  0.1408 -0.1762
 1804W        W 5868   1.061   0.480  11.018  0.2145 -0.0510  0.2670
 1805W        W 5869   9.250   8.986  11.378  0.0948  0.3612  0.1780
 1806W        W 5870   7.587   4.371  11.528  0.0357 -0.0309  0.1592
 1807W        W 5871   9.009   1.811   9.839  0.0508  0.4735  0.2021
 1808W        W 5872   6.861   7.244  10.760 -0.0224 -0.1426 -0.0140
 1809W        W 5873   7.195   1.172   0.137 -0.1429  0.0554 -0.3973
 1810W        W 5874   4.499   9.994   0.639 -0.0040 -0.0090 -0.0213
 1811W        W 5875   6.083   8.637   3.587  0.0095  0.2003 -0.2486
 1812W        W 5876   6.285  10.561   9.421  0.3496 -0.0848 -0.2612
 1813W        W 5877   5.382   1.692   2.209  0.0485  0.0454 -0.0221
 1814W        W 5878  10.147   2.336   2.794 -0.1960  0.1938  0.3057
 1815W        W 5879   6.989   3.384   0.998  0.0435  0.0499  0.0126
 1816W        W 5880   6.991   9.510   7.022  0.1789 -0.2734  0.3809
 1817W        W 5881   9.666   9.019   9.015  0.1238 -0.0958 -0.1736
 1818W        W 5882   9.622   5.226   2.726  0.0824 -0.1825 -0.0274
 1819W        W 5883   6.233   5.159   0.734 -0.0704  0.1326 -0.0199
 1820W        W 5884   3.833   6.386   2.121  0.3500 -0.0203 -0.5593
 1821W        W 5885   3.325   8.383   1.253  0.0113  0.0347  0.1580
 1822W        W 5886   3.783   1.290   0.751 -0.0843 -0.3127 -0.2926
 1823W        W 5887   9.459   5.880   3.799  0.2451  0.0668 -0.0374
 1824W        W 5888   3.591   5.788  10.596  0.0747 -0.0445 -0.0149
 1825W        W 5889   4.907   4.036  10.025  0.0348  0.0658 -0.3462
 1826W        W 5890   8.911   6.700   3.646  0.2203  0.0198  0.1834
 1827W        W 5891   0.024   7.098   9.230  0.3994 -0.2945  0.1704
 1828W        W 5892   3.248   4.048   1.037 -0.0439  0.1111 -0.2714
 1829W        W 5893  10.568   2.264   3.658  0.1237  0.2292  0.3904
 1830W        W 5894   5.633   2.137   2.356 -0.0146  0.1599  0.1559
 1831W        W 5895   9.043  10.346  10.683 -0.0983  0.1174  0.3096
 1832W        W 5896   0.124   5.473   0.630  0.0098 -0.3471  0.1458
 1833W        W 5897   1.136   8.724  10.875 -0.1448 -0.0367  0.0458
 1834W        W 5898   9.207   8.284   2.896  0.0799 -0.2382  0.0200
 1835W        W 5899   1.665   2.137  10.761 -0.1792 -0.1144  0.0472
 1836W        W 5900   5.897   4.666   1.143 -0.1190  0.1111  0.0327
 1837W        W 5901   9.292   8.029  11.489 -0.0973  0.1105 -0.2013
 1838W        W 5902   9.272   3.904   3.334  0.0438 -0.1189 -0.1149
 1839W        W 5903   5.844   7.284   1.845 -0.0102  0.3602  0.0425
 1840W        W 5904   5.909   9.652   2.613 -0.0399 -0.2089  0.6543
 1841W        W 5905   0.834   4.325   2.639  0.2983  0.1379 -0.1534
 1842W        W 5906   5.483  10.205   0.559 -0.1374 -0.1636  0.2961
 1843W        W 5907   6.793   3.403   9.608  0.0155 -0.1521 -0.0576
 1844W        W 5908   2.749   3.451   3.127 -0.3170  0.1377 -0.0066
 1845W        W 5909   3.820   3.740   9.956  0.0397  0.0558 -0.3063
 1846W        W 5910   9.469   9.579   1.111 -0.1715  0.2278 -0.0624
 1847W        W 5911   8.516   2.321  11.294 -0.0417  0.0793  0.1040
 1848W        W 5912   1.321   9.087  11.285  0.1198  0.1469  0.1143
 1849W        W 5913   4.059   7.999   3.388 -0.1066  0.0604  0.0887
 1850W        W 5914   6.064  10.333  10.401 -0.2560 -0.0761 -0.1227
 1851W        W 5915   5.822   0.921   0.395  0.0478 -0.2534  0.1144
 1852W        W 5916   8.753   5.409   3.063 -0.1636  0.1350 -0.0294
 1853W        W 5917  10.327   3.296   9.081  0.0621 -0.0280  0.1765
 1854W        W 5918  10.060   0.266   8.900  0.0062  0.0467 -0.2277
 1855W        W 5919   9.703   6.101   0.087  0.0890  0.3054  0.2909
 1856W        W 5920   0.537   4.832   0.606 -0.3650  0.0469  0.0936
 1857W        W 5921   2.015   8.995   1.054  0.1563 -0.2772 -0.3372
 1858W        W 5922   5.992   3.947   8.515 -0.4021 -0.4597 -0.2644
 1859W        W 5923  10.017   9.369   2.416 -0.0283  0.1435 -0.1948
 1860W        W 5924   4.307   9.654   8.829  0.2057  0.0389 -0.1358
 1861W        W 5925  10.358   4.714  11.209  0.1031 -0.0221 -0.0546
 1862W        W 5926   4.967   3.396   2.901 -0.2787 -0.0568 -0.0028
 1863W        W 5927   0.274   9.170   0.815  0.1917  0.0604  0.3499
 1864W        W 5928   3.826   4.594  11.587  0.3606 -0.0079  0.0231
 1865W        W 5929   6.322   8.639   9.468 -0.1122  0.0981 -0.0177
 1866W        W 5930   2.511   8.938   3.506 -0.0634 -0.3611 -0.1285
 1867W        W 5931   2.388  10.184   0.750 -0.2841  0.0063 -0.1543
 1868W        W 5932   0.524   1.618   3.420 -0.1841 -0.1475  0.1628
 1869W        W 5933   6.391   8.404  10.051 -0.1876 -0.1235 -0.1394
 1870W        W 5934   0.336   7.506   9.940 -0.1890 -0.2932  0.1105
 1871W        W 5935   5.028   5.210   2.589 -0.2094  0.0066 -0.0434
 1872W        W 5936   0.634   8.552   2.580 -0.1243 -0.2951 -0.2937
 1873W        W 5937   9.030   4.608   2.343 -0.3425 -0.1866  0.3948
 1874W        W 5938   6.837   1.570   1.420  0.1027 -0.1313 -0.0491
 1875W        W 5939   1.952   3.975   1.468 -0.0444  0.2402 -0.2295
 1876W        W 5940   2.966   0.661   3.335  0.1018  0.1694  0.2433
 1877W        W 5941   2.258   5.837   1.754  0.0460 -0.0396 -0.0113
 1878W        W 5942   3.189   8.098   9.566 -0.2372 -0.1849  0.3021
 1879W        W 5943   2.685   7.681   1.230 -0.0096  0.1254 -0.3230
 1880W        W 5944   7.276   2.425   9.568  0.3239  0.1302  0.3781
 1881W        W 5945   9.986   1.302   1.294  0.0985 -0.1866  0.1769
 1882W        W 5946   7.846   5.956   9.616 -0.3039  0.0962 -0.1315
 1883W        W 5947   9.713   0.939   0.326 -0.3403 -0.1210 -0.1348
 1884W        W 5948   8.791   9.315   3.009  0.1280  0.2255 -0.1976
 1885W        W 5949   7.830   8.049   0.512 -0.1951 -0.0556  0.1144
 1886W        W 5950   7.244   2.879   1.535 -0.0816 -0.3505  0.0415
 1887W        W 5951   3.212   9.485   9.580  0.0479  0.3818 -0.3460
 1888W        W 5952   7.302   7.505   7.890 -0.0961 -0.1384 -0.0980
 1889W        W 5953   1.155  10.271   0.267 -0.0373  0.2518  0.2725
 1890W        W 5954   7.868   6.780   7.624  0.0149 -0.0083 -0.1845
 1891W        W 5955   5.440   4.848  10.267  0.0158 -0.0428  0.2055
 1892W        W 5956   1.853   4.027   1.971  0.1699  0.2112  0.2308
 1893W        W 5957   3.499   1.541   2.006  0.4225 -0.3890  0.0586
 1894W        W 5958   5.114   8.331   8.988 -0.0137  0.0352  0.0219
 1895W        W 5959   2.492   9.209   3.053 -0.1871  0.0334 -0.1098
 1896W        W 5960   9.416   7.828   2.549  0.0694 -0.0089 -0.2916
 1897W        W 5961   1.594   3.029  10.856  0.0388  0.4529  0.0115
 1898W        W 5962   3.630   4.294  10.792  0.2867  0.1610 -0.0059
 1899W        W 5963   0.311   5.795   9.490  0.4619  0.2577 -0.2612
 1900W        W 5964   4.571   7.444  10.925  0.2090  0.0440  0.1841
 1901W        W 5965   7.595   3.976   0.811 -0.0628  0.1364  0.3146
 1902W        W 5966  10.538  10.306   7.611 -0.0159  0.0701 -0.2110
 1903W        W 5967   2.312   6.382   0.563  0.1032 -0.0316  0.1619
 1904W        W 5968   0.864  10.173  10.055  0.2542 -0.0212 -0.0305
 1905W        W 5969   3.288   7.473   2.401 -0.1016 -0.0358 -0.1782
 1906W        W 5970   7.088   8.662   0.309  0.0373  0.1209 -0.1736
 1907W        W 5971   5.580   0.031   0.404  0.3198  0.1643  0.0339
 1908W        W 5972  10.024  10.321   2.981  0.1698 -0.1912 -0.1363
 1909W        W 5973   9.045   9.100   1.254 -0.0085 -0.1841  0.3385
 1910W        W 5974   0.276   0.914   1.785  0.1025  0.2513 -0.0185
 1911W        W 5975   8.625   8.759   3.055 -0.1598 -0.1592 -0.0090
 1912W        W 5976   9.724   3.748   1.223  0.0379 -0.0389 -0.0265
 1913W        W 5977   4.669   1.923   8.166 -0.2851 -0.0271  0.2340
 1914W        W 5978   7.113   5.323  11.178  0.3151  0.1485  0.0405
 1915W        W 5979   1.519   7.910   3.842  0.1561 -0.0876  0.2389
 1916W        W 5980   9.994   8.869   2.127  0.3091  0.1985 -0.1136
 1917W        W 5981  10.269   8.157   2.491 -0.1019  0.1371 -0.5684
 1918W        W 5982   8.967  10.018   8.918 -0.2823 -0.4458  0.0778
 1919W        W 5983   5.419   8.425  11.195 -0.0659 -0.2717  0.3314
 1920W        W 5984   7.841   7.281   3.042 -0.3870 -0.0480 -0.2478
 1921W        W 5985   7.407   5.121   1.482  0.1761  0.1879  0.0946
 1922W        W 5986   7.657   8.726   0.597  0.1810  0.0918 -0.4392
 1923W        W 5987   4.095   4.774   1.603 -0.2797  0.0866 -0.0683
 1924W        W 5988   0.359   7.977   0.137  0.1083  0.0151 -0.1562
 1925W        W 5989   8.058   9.981   8.446  0.0149 -0.1816  0.0010
 1926W        W 5990   3.597   4.190   1.416 -0.0856 -0.2110 -0.0954
 1927W        W 5991   2.486   2.229   2.530 -0.1772  0.2581  0.0468
 1928W        W 5992   4.358   0.444   9.923  0.0074  0.0218  0.0638
 1929W        W 5993   3.428   1.970   9.675  0.1008  0.0716  0.0162
 1930W        W 5994   4.517   4.192  10.546 -0.0249  0.2768  0.0704
 1931W        W 5995   4.019   0.129   8.530  0.2146  0.0481  0.2304
 1932W        W 5996   3.400   7.855   3.734  0.2301  0.0923 -0.0923
 1933W        W 5997   5.570   2.673   2.554 -0.1339 -0.3242  0.0026
 1934W        W 5998   3.727   4.582   1.130  0.0931 -0.0182  0.0928
 1935W        W 5999   3.476   3.623   0.663 -0.1778  0.4975  0.1902
 1936W        W 6000   9.085   4.269   0.166 -0.1312 -0.0673 -0.2726
 1937W        W 6001   7.681   0.608   9.824 -0.4311 -0.1119  0.1793
 1938W        W 6002   5.391   4.778   4.442  0.0142  0.1072 -0.0027
 1939W        W 6003   9.547   5.868   9.526 -0.0385 -0.0046  0.0417
 1940W        W 6004   5.861   3.659   8.094  0.2334  0.1814  0.1366
 1941W        W 6005   0.765   5.933   2.067  0.0103  0.0646  0.0397
 1942W        W 6006   4.871   2.120   9.384  0.0438  0.1219 -0.1483
 1943W        W 6007   7.298   4.442   0.851 -0.0492 -0.0435  0.0216
 1944W        W 6008   7.098   7.021   2.741  0.0104 -0.1866 -0.2325
 1945W        W 6009   6.764   7.288   1.017  0.3466 -0.0516 -0.0743
 1946W        W 6010   6.071   8.957   9.932  0.0654 -0.1454 -0.0695
 1947W        W 6011   0.077   7.458   8.042  0.1945  0.0407 -0.2420
 1948W        W 6012   1.405   5.322   2.219 -0.1019  0.0857 -0.1333
 1949W        W 6013   6.690   1.930  11.541  0.2048 -0.1144 -0.1619
 1950W        W 6014   9.403   8.539  10.271  0.0160 -0.1855  0.1697
 1951W        W 6015   8.629   5.208   8.807  0.3407  0.0663  0.2774
 1952W        W 6016   6.389  10.268   1.491  0.0576 -0.2014  0.1986
 1953W        W 6017   9.074   7.497   2.694  0.0892 -0.1622 -0.3590
 1954W        W 6018   2.627   3.734   8.864 -0.1588  0.0793  0.0670
 1955W        W 6019   2.690   5.506  10.077 -0.1270 -0.0358  0.6295
 1956W        W 6020   0.248   9.862   0.993  0.3525  0.1906  0.0671
 1957W        W 6021  10.149   2.753  11.334 -0.0230  0.0745 -0.0122
 1958W        W 6022   7.713   5.320  10.928  0.0324  0.1948 -0.2272
 1959W        W 6023   8.219   8.595  11.234  0.0274  0.0421 -0.3004
 1960W        W 6024   6.740   3.938   0.011  0.3212  0.0428 -0.0028
 1961W        W 6025   5.501  10.176  11.274  0.0405  0.3497 -0.3963
 1962W        W 6026   9.539   4.904   1.064 -0.1891  0.1907 -0.0866
 1963W        W 6027   8.550  10.451   1.437  0.0784  0.0862 -0.0884
 1964W        W 6028   4.829   8.864   8.260  0.2640  0.0802 -0.0103
 1965W        W 6029   8.208   5.957   9.211  0.3413  0.0137 -0.5075
 1966W        W 6030   6.876   6.968   2.263 -0.2162 -0.2540 -0.0849
 1967W        W 6031  10.216   1.642   0.428 -0.2055 -0.1771  0.2226
 1968W        W 6032   5.257   7.632   0.615 -0.2276 -0.3136  0.3200
 1969W        W 6033   0.158   3.187  10.629 -0.1634 -0.2043 -0.0292
 1970W        W 6034   7.222   5.201   0.700 -0.1870 -0.1539 -0.2048
 1971W        W 6035   2.360   6.218   2.384 -0.1959  0.2607  0.1203
 1972W        W 6036   4.053   0.975   2.382 -0.1528  0.3133 -0.3617
 1973W        W 6037   4.794   8.756   0.099 -0.0086  0.2685 -0.3258
 1974W        W 6038   2.554   3.855   8.316  0.1874  0.2400  0.2527
 1975W        W 6039   4.323   1.574  10.723  0.1831 -0.0096  0.0063
 1976W        W 6040   8.292   4.555   3.169  0.0053 -0.0905  0.1690
 1977W        W 6041   4.771   7.293   9.553  0.2491  0.2096  0.1793
 1978W        W 6042   6.617   7.696   1.381  0.0323  0.0604  0.1790
 1979W        W 6043   4.435   7.401   9.926 -0.2298 -0.2113  0.0023
 1980W        W 6044   3.704   5.555   0.877  0.0712 -0.0071 -0.2897
 1981W        W 6045   4.070   7.496   2.635  0.0778 -0.2287  0.1174
 1982W        W 6046   5.662   4.222   7.409  0.0581  0.2072 -0.0243
 1983W        W 6047   5.780   5.701   4.173  0.1833  0.0757 -0.0986
 1984W        W 6048   3.425   3.875  10.882 -0.0313  0.3516  0.0676
 1985W        W 6049   6.375   1.425   1.248 -0.0575 -0.1171 -0.1753
 1986W        W 6050   4.353  10.136  11.330  0.3591 -0.1225  0.1410
 1987W        W 6051   5.711   2.765   8.516  0.0713  0.2182 -0.1691
 1988W        W 6052   2.804   0.295   1.528 -0.0956  0.0484  0.4138
 1989W        W 6053   2.013   8.156   2.206  0.0018 -0.1766 -0.0856
 1990W        W 6054   6.256   1.627   9.935  0.0506 -0.2400  0.1166
 1991W        W 6055   8.213   1.674   7.903  0.0066 -0.3431 -0.0112
 1992W        W 6056   9.652   6.400  10.770  0.3643 -0.2175 -0.1652
 1993W        W 6057   7.277   7.676   2.993 -0.1276  0.2377 -0.1906
 1994W        W 6058   3.695   8.367   3.323 -0.0153  0.1459  0.0428
 1995W        W 6059   1.872   8.190   0.530  0.1759  0.1352  0.1486
 1996W        W 6060   5.059   7.613  10.840 -0.3893  0.1583  0.0858
 1997W        W 6061   7.506   8.467  10.041  0.0848  0.3736  0.1376
 1998W        W 6062   3.512   0.775   3.269 -0.3432 -0.0681 -0.1218
 1999W        W 6063  10.318   2.805   3.023  0.3530  0.1217  0.1600
 2000W        W 6064   5.785   9.533   1.063 -0.0706  0.1997  0.1777
 2001W        W 6065   0.294  10.130   2.862  0.1421  0.0385  0.1484
 2002W        W 6066   0.384   9.426  11.354 -0.0947  0.0504  0.1096
 2003W        W 6067   4.838   0.887  11.145 -0.1493  0.1190 -0.1227
 2004W        W 6068   5.084   9.572   1.250 -0.3689  0.0850  0.0587
 2005W        W 6069   5.567   0.025  11.024  0.3039  0.0633 -0.4039
 2006W        W 6070   4.805   1.954   8.820 -0.1497  0.1345  0.2742
 2007W        W 6071   4.709   5.980   2.175 -0.1346 -0.0424 -0.1172
 2008W        W 6072   8.114  10.458   9.890  0.4494 -0.0003 -0.0725
 2009W        W 6073   4.606   8.695   3.094 -0.0028  0.2302  0.1642
 2010W        W 6074   6.623   9.127   8.258  0.0435  0.1185 -0.0067
 2011W        W 6075   3.355   1.131   2.465 -0.0227  0.1843 -0.1468
 2012W        W 6076   9.717   1.698   0.116 -0.0237  0.0882 -0.1650
 2013W        W 6077   4.502   1.905   9.716 -0.1812  0.0818 -0.0960
 2014W        W 6078  10.335   7.445   1.896 -0.0895 -0.1808  0.2238
 2015W        W 6079   3.991   1.183   1.197  0.2171 -0.0226 -0.2823
 2016W        W 6080   8.532  10.119   8.725  0.1398  0.4819  0.2051
 2017W        W 6081   9.396   6.456  11.404 -0.0093  0.0115 -0.1134
 2018W        W 6082   6.210   6.733   8.417 -0.0433  0.2052  0.2543
 2019W        W 6083   4.156   7.642   1.904 -0.0668  0.0866  0.1288
 2020W        W 6084   9.951   1.858   9.323  0.3291  0.0375 -0.2411
 2021W        W 6085   5.064   9.597  10.970  0.0998 -0.2382 -0.2138
 2022W        W 6086   4.451   9.652   3.907  0.4045  0.1788 -0.1811
 2023W        W 6087   9.150   6.970   1.771  0.2173 -0.3911  0.2892
 2024W        W 6088   8.312   3.207   3.403 -0.0202  0.1224  0.1201
 2025W        W 6089   4.783   3.586   1.407  0.0400  0.0570 -0.0509
 2026W        W 6090   8.187   0.434   2.994 -0.1518  0.0036 -0.0566
 2027W        W 6091   4.124   4.128   9.736  0.2081  0.0229 -0.0664
 2028W        W 6092   2.296  10.151   8.047 -0.0587  0.2975 -0.0170
 2029W        W 6093   4.394   4.732  11.106 -0.0758 -0.0594 -0.2769
 2030W        W 6094   7.081   3.698   2.356 -0.3302  0.1023 -0.3870
 2031W        W 6095   7.685   3.917  11.188  0.1575  0.0121 -0.4573
 2032W        W 6096   3.059  10.005   2.676  0.0912 -0.0475 -0.0257
 2033W        W 6097   9.381   5.030  10.686  0.2715  0.4257 -0.2407
 2034W        W 6098  10.235   9.171   1.348 -0.1924 -0.3406 -0.4382
 2035W        W 6099  10.331   0.363   7.010 -0.0049 -0.0590  0.4084
 2036W        W 6100   2.216   4.300  11.058 -0.0575  0.3189  0.1286
 2037W        W 6101   9.651   5.629   9.953  0.1263 -0.2361 -0.0751
 2038W        W 6102   0.046   9.808   8.188 -0.1546 -0.0916  0.0868
 2039W        W 6103   3.049   3.273   9.648 -0.2397  0.3127  0.2199
 2040W        W 6104   7.556   2.165   0.059 -0.4245  0.0217  0.4819
 2041W        W 6105   2.604   3.211   9.795 -0.3293  0.2443 -0.2688
 2042W        W 6106   3.000   9.161   1.326  0.3194 -0.0565 -0.1777
 2043W        W 6107   7.661   0.287   0.937  0.0584  0.0979 -0.0496
 2044W        W 6108   4.132   2.583   1.206 -0.0712  0.2397 -0.0255
 2045W        W 6109   4.008   6.482   9.084 -0.2996 -0.2542  0.3345
 2046W        W 6110   4.868   9.485   2.311  0.1443 -0.2002  0.2725
 2047W        W 6111   6.127   0.815   2.041  0.1951  0.0527 -0.0629
 2048W        W 6112   8.357   0.435   3.483  0.2987  0.1633  0.1709
 2049W        W 6113   3.534   0.549   1.872  0.2286 -0.2280 -0.0490
 2050W        W 6114   4.841   1.201   1.960  0.0420  0.2492  0.2399
 2051W        W 6115  10.071   8.652   1.627 -0.1534 -0.2332 -0.0457
 2052W        W 6116   5.265   5.655   0.765  0.3097  0.2533 -0.1048
 2053W        W 6117  10.350   7.918   8.742 -0.0647  0.0697  0.1977
 2054W        W 6118   3.418   5.237  10.442  0.2167 -0.3567 -0.1569
 2055W        W 6119   4.433   3.899   1.645 -0.1564  0.1848  0.1738
 2056W        W 6120   9.651   0.411   0.173 -0.0453 -0.0536  0.3417
 2057W        W 6121   5.545   9.298   0.119 -0.0108  0.1029  0.2189
 2058W        W 6122  10.401   2.309   8.327 -0.1850  0.0846 -0.2579
 2059W        W 6123   3.807   3.829   9.392 -0.0456 -0.0456 -0.0344
 2060W        W 6124   0.415   5.282   0.044  0.1773  0.0146 -0.2483
 2061W        W 6125  10.055   3.215   2.907  0.0243  0.0393 -0.0954
 2062W        W 6126   8.629   9.656   9.622 -0.0691 -0.2421 -0.0113
 2063W        W 6127  10.177   6.509   9.600  0.3944  0.2340 -0.1168
 2064W        W 6128   4.721   1.678  11.309 -0.1401 -0.2598 -0.0491
 2065W        W 6129   5.518   8.288   8.710  0.0206 -0.2757  0.0563
 2066W        W 6130   4.848   3.077   0.168  0.0743  0.0596 -0.2490
 2067W        W 6131   4.213   0.694   8.121  0.2878  0.2347 -0.0993
 2068W        W 6132   9.214   5.822   8.287 -0.1330 -0.0559  0.2268
 2069W        W 6133   5.728   2.995   8.959 -0.1093  0.0785  0.0914
 2070W        W 6134   5.432   6.772   1.166  0.1853  0.0512  0.0667
 2071W        W 6135  10.623   1.338   8.866 -0.0536 -0.3099 -0.1485
 2072W        W 6136   2.922   1.161   1.456  0.0274  0.4098 -0.0749
 2073W        W 6137   7.221   7.340   9.790  0.2526 -0.0913  0.2181
 2074W        W 6138   4.657   0.084  10.133 -0.0819 -0.1280  0.0605
 2075W        W 6139   1.355  10.514   3.815 -0.0341  0.0409  0.1589
 2076W        W 6140   2.130   0.664   1.333  0.0241  0.2334 -0.0074
 2077W        W 6141  10.009   3.010   1.624 -0.0639 -0.0400 -0.1347
 2078W        W 6142   5.330   4.259   3.403  0.0946 -0.0201 -0.3438
 2079W        W 6143   2.040   9.292   1.469 -0.2188 -0.1343 -0.1095
 2080W        W 6144   2.578  10.285   2.283  0.1985  0.0600 -0.0577
 2081W        W 6145   3.154   4.784   1.840  0.2039  0.0866 -0.3139
 2082W        W 6146   1.754   6.419  11.421 -0.0135 -0.0611 -0.1351
 2083W        W 6147   2.874   2.574  10.850  0.0526 -0.0835  0.2131
 2084W        W 6148   9.216   3.232   8.295  0.1660  0.0825  0.2399
 2085W        W 6149  10.368   4.562   8.514  0.1403 -0.5158  0.1061
 2086W        W 6150   8.387   8.774   9.788  0.5464  0.0220  0.0634
 2087W        W 6151   4.286   8.822   2.689 -0.1308 -0.1980  0.0764
 2088W        W 6152   1.028   9.138   2.408  0.0944 -0.0263 -0.0314
 2089W        W 6153   1.971   3.726   0.971 -0.0607 -0.0251 -0.0040
 2090W        W 6154   4.991   3.834   2.611  0.0303 -0.0541  0.2944
 2091W        W 6155   4.761   9.000   2.316 -0.0593 -0.0134 -0.4162
 2092W        W 6156   4.629  10.060   8.859 -0.1116  0.0332  0.1234
 2093W        W 6157   1.134   0.302   8.222  0.1126 -0.4334  0.1997
 2094W        W 6158   5.936   8.226   4.056  0.1415 -0.0118  0.1564
 2095W        W 6159  10.394   1.692   1.525 -0.0665  0.2263  0.0881
 2096W        W 6160   4.236   2.801   2.433 -0.0080 -0.0877  0.1135
 2097W        W 6161   1.686   3.659   2.935 -0.0059 -0.1467  0.2909
 2098W        W 6162   3.492   2.093  10.638  0.0639 -0.4271 -0.1578
 2099W        W 6163   6.602   5.993   9.633 -0.2798  0.2041  0.1307
 2100W        W 6164   0.638   7.875   9.880 -0.0193 -0.1292  0.0292
 2101W        W 6165   8.971   7.747   3.633 -0.3037 -0.1296 -0.0694
 2102W        W 6166   8.163   2.586   9.915 -0.1324  0.4768 -0.1089
 2103W        W 6167  10.500   0.938  11.576 -0.1785  0.1584  0.0474
 2104W        W 6168   6.992   3.212  10.912  0.0864  0.1170  0.2878
 2105W        W 6169   3.782   2.258  11.187 -0.2689  0.1822  0.3352
 2106W        W 6170   3.976   9.627   8.375 -0.0146 -0.1297 -0.3217
 2107W        W 6171   9.439   1.550   2.366  0.0078 -0.2573  0.0859
 2108W        W 6172   1.503   3.858  10.323 -0.1167  0.0094  0.0042
 2109W        W 6173   1.932   7.804   9.083 -0.1130 -0.0568 -0.0415
 2110W        W 6174   3.121   6.395  10.083 -0.0726  0.3943 -0.0316
 2111W        W 6175   0.811   4.236  11.561  0.0556 -0.2191  0.2400
 2112W        W 6176   0.298   4.450   8.548  0.0111  0.0203  0.1540
 2113W        W 6177   1.905   2.510   8.473 -0.0522  0.0571 -0.0353
 2114W        W 6178   7.433   4.427   8.389 -0.3589  0.0190 -0.3669
 2115W        W 6179   6.144   7.328   9.714 -0.3734  0.2039  0.2017
 2116W        W 6180   6.838  10.577  10.434 -0.1436 -0.0213 -0.3227
 2117W        W 6181   1.754   9.126   0.597  0.0505  0.1312 -0.1753
 2118W        W 6182   1.645   8.608  11.110 -0.0806 -0.1564  0.0006
 2119W        W 6183   2.621   8.361  11.128  0.2063 -0.0876 -0.2599
 2120W        W 6184   4.673   0.574   8.193 -0.3365  0.2909  0.0520
 2121W        W 6185   2.211   8.023   3.131  0.1002 -0.1303 -0.1203
 2122W        W 6186   3.144  10.306   8.593  0.1400  0.0298  0.2001
 2123W        W 6187   2.849   6.667  11.304  0.0363  0.1277 -0.2044
 2124W        W 6188   2.997   4.268   3.343  0.1739  0.2499 -0.2620
 2125W        W 6189   4.692   9.236   1.787  0.1405  0.1594  0.0281
 2126W        W 6190   3.399   1.680   0.711  0.1290  0.0562 -0.4718
 2127W        W 6191   4.784   6.323   9.912  0.1816 -0.2044  0.3854
 2128W        W 6192   5.525   9.309   3.624  0.3410  0.4120 -0.2290
 2129W        W 6193   8.907   0.913   0.603  0.0324 -0.0252  0.0676
 2130W        W 6194   1.624   6.008   1.098  0.0511 -0.1580 -0.2049
 2131W        W 6195   5.894  10.423   1.457  0.0817  0.1884  0.0677
 2132W        W 6196   6.552   1.054   1.899 -0.1916  0.1746 -0.1867
 2133W        W 6197   6.729   5.967  10.827  0.1530  0.2640  0.2245
 2134W        W 6198   5.014   7.161   8.533  0.2145 -0.0442  0.0621
 2135W        W 6199   5.812   8.418   2.621  0.3587 -0.1666 -0.0875
 2136W        W 6200   7.769   9.731   7.621 -0.0866  0.1711 -0.1809
 2137W        W 6201   7.312   6.975   9.414  0.0746 -0.1022 -0.0908
 2138W        W 6202   9.255   7.340  11.346 -0.0989  0.2584 -0.0967
 2139W        W 6203   9.268   6.982   1.320 -0.4390 -0.0405  0.1482
 2140W        W 6204   6.911   0.694   8.188 -0.2980  0.1440  0.3191
 2141W        W 6205   7.561   8.468   2.819 -0.1294  0.0349  0.0743
 2142W        W 6206  10.115   6.152   2.291 -0.0073  0.1202 -0.1336
 2143W        W 6207   1.596   8.157   9.814  0.0496  0.0407 -0.1808
 2144W        W 6208   6.437   9.323   0.386 -0.1146 -0.0283  0.1173
 2145W        W 6209   3.770   5.100   1.309 -0.2333  0.1255 -0.2569
 2146W        W 6210   6.767   5.881   2.526  0.1145  0.1141 -0.1042
 2147W        W 6211   1.405   6.312  10.259  0.0178  0.0730  0.1848
 2148W        W 6212   0.154   9.711  10.525 -0.0690 -0.1671  0.1258
 2149W        W 6213   0.064   4.978   9.319  0.3306  0.1441  0.2953
 2150W        W 6214  10.109   4.094   8.528  0.0215 -0.3452  0.0807
 2151W        W 6215   5.234   2.710   0.368 -0.1550 -0.0591 -0.1935
 2152W        W 6216   4.013   1.830   9.797 -0.1316  0.1449  0.0307
 2153W        W 6217   1.927   1.514   9.710 -0.1463 -0.1066 -0.3938
 2154W        W 6218   0.260   8.961   8.449  0.0840 -0.1906  0.1427
 2155W        W 6219   2.422   6.224  11.306 -0.6329  0.2458  0.1030
 2156W        W 6220   6.349  10.214   7.126  0.0789  0.0099 -0.0747
 2157W        W 6221   4.407   1.139   1.499 -0.1474  0.1712  0.1633
 2158W        W 6222   5.816   8.683  10.848 -0.1967 -0.3378 -0.3653
 2159W        W 6223   2.110   7.921   9.644  0.0730  0.1968  0.2213
 2160W        W 6224   5.760   0.762   1.584  0.1857  0.0248  0.1499
 2161W        W 6225   7.610   5.504   9.459 -0.2225 -0.2607  0.1569
 2162W        W 6226   9.777   1.217  10.805  0.3040 -0.0813 -0.0192
 2163W        W 6227   3.075   6.246   3.284  0.2210  0.1627  0.1259
 2164W        W 6228   1.605   9.926   8.551 -0.1705 -0.1640 -0.2776
 2165W        W 6229   9.703   7.428  10.195  0.3179 -0.3866 -0.4416
 2166W        W 6230  10.535  10.346  11.345  0.0301  0.2438 -0.1193
 2167W        W 6231   0.426   2.438   3.688 -0.2606 -0.0478 -0.2592
 2168W        W 6232   1.157  10.426   9.769 -0.0570  0.0123  0.1085
 2169W        W 6233   8.501   4.055   1.421  0.1954 -0.1143 -0.1793
 2170W        W 6234   5.854  10.186   3.705  0.1065 -0.2398  0.0564
 2171W        W 6235   8.514   2.304   2.808  0.0078 -0.1717 -0.1179
 2172W        W 6236   3.402   0.081   0.508  0.1397  0.0334 -0.2832
 2173W        W 6237   4.774   5.434   1.455 -0.2475 -0.0596  0.0559
 2174W        W 6238   6.530   3.293   7.416 -0.0992  0.0430  0.1763
 2175W        W 6239   5.020   2.490   2.727  0.1032 -0.1919 -0.1943
 2176W        W 6240   5.742   7.742   0.683 -0.2368 -0.2519  0.4416
 2177W        W 6241   8.188  10.109  11.153  0.3737 -0.2867 -0.1514
 2178W        W 6242   4.801   4.202   7.950 -0.2491  0.0427  0.0357
 2179W        W 6243   3.998   0.124   9.753  0.1214 -0.2505  0.3613
 2180W        W 6244   0.707   1.687   9.422 -0.2706  0.1051 -0.1658
 2181W        W 6245   9.998   1.400   9.145  0.1049 -0.0075 -0.0971
 2182W        W 6246   2.542   6.433   1.942 -0.1576  0.0151  0.0140
 2183W        W 6247   0.087   5.062   2.866 -0.1048 -0.2127 -0.0228
 2184W        W 6248   5.055   7.449   1.019 -0.0129  0.0405  0.0249
 2185W        W 6249   1.885   5.557  10.452  0.0657  0.1963 -0.1101
 2186W        W 6250   9.167   5.618   0.575  0.3964 -0.0635 -0.0470
 2187W        W 6251   7.717   0.078   9.403  0.3969  0.0800 -0.1150
 2188W        W 6252  10.163   8.430   8.255 -0.0428 -0.0419  0.4097
 2189W        W 6253   0.967   3.598   2.422  0.0771  0.0244  0.2628
 2190W        W 6254   9.046   4.466   1.856 -0.1975  0.3294 -0.0545
 2191W        W 6255   9.598  10.542  10.999 -0.2350 -0.0950 -0.0072
 2192W        W 6256  10.462   5.271   8.549  0.4927  0.0169  0.3378
 2193W        W 6257   5.140   6.454   0.201  0.1320  0.0739 -0.0776
 2194W        W 6258   1.296   4.293   1.938 -0.1345  0.1625 -0.2505
 2195W        W 6259   9.863   0.619  10.245  0.2520 -0.1678 -0.0285
 2196W        W 6260   9.436   2.916   0.797 -0.0795  0.1702 -0.0044
 2197W        W 6261   6.017   7.498  11.128 -0.0945  0.1179 -0.3875
 2198W        W 6262   3.193   2.979  10.085  0.0277 -0.0948 -0.0163
 2199W        W 6263  10.309   8.440   4.197 -0.0989  0.0804  0.1099
 2200W        W 6264   8.832   2.951   9.032  0.1618  0.0616  0.3065
 2201W        W 6265   0.629   9.935   1.255 -0.3088 -0.0385  0.1698
 2202W        W 6266   6.892   4.701  10.687 -0.0009  0.2435 -0.1138
 2203W        W 6267   3.864   0.727   2.838  0.1015 -0.0301 -0.2017
 2204W        W 6268   0.699   1.227   0.810  0.2563  0.2757  0.0450
 2205W        W 6269   3.510   8.210   2.883 -0.1759 -0.0955 -0.1655
 2206W        W 6270   0.783   4.370  10.694 -0.0435  0.0161  0.0017
 2207W        W 6271   5.687   6.702  10.770 -0.3290 -0.1053 -0.1987
 2208W        W 6272   2.454   1.372   2.208 -0.1607  0.3981  0.4658
 2209W        W 6273   0.999   6.946   3.075 -0.1460  0.0414 -0.1571
 2210W        W 6274   2.030   1.170   2.397  0.0359  0.3676  0.0204
 2211W        W 6275   3.075   0.774   3.788 -0.0780 -0.0745 -0.2717
 2212W        W 6276   3.472   2.674   1.941 -0.1502  0.1386 -0.3237
 2213W        W 6277   7.052   4.688   0.449  0.2023 -0.1521 -0.0581
 2214W        W 6278   5.602   1.845   0.770  0.1069 -0.0100  0.0558
 2215W        W 6279   5.352   9.703   2.439  0.0801 -0.1695 -0.1282
 2216W        W 6280   5.558   1.000   9.919 -0.4128 -0.0735  0.1243
 2217W        W 6281   8.522   3.351   9.892 -0.3251  0.1227 -0.2644
 2218W        W 6282   1.529   3.636   9.578 -0.0932  0.0500 -0.0196
 2219W        W 6283   9.474   2.171   1.437 -0.0677 -0.1944  0.2530
 2220W        W 6284   5.762   2.682   0.346 -0.1018 -0.0399 -0.0243
 2221W        W 6285   6.012   9.101   3.676 -0.1768 -0.1153  0.0524
 2222W        W 6286   9.668   2.788  11.179  0.1279 -0.1576 -0.2521
 2223W        W 6287   6.504   2.301   8.586 -0.3319 -0.1319 -0.0653
 2224W        W 6288   1.423   7.961   1.585  0.1767  0.0930  0.1125
 2225W        W 6289   6.014   9.089   0.151 -0.1445 -0.3426 -0.0406
 2226W        W 6290   9.810   1.027   9.450  0.0072  0.0588  0.1955
 2227W        W 6291   7.373   9.039   0.333 -0.1501 -0.2522 -0.3608
 2228W        W 6292   7.719   1.837  10.172  0.0506  0.0449 -0.1594
 2229W        W 6293   1.282   7.790   2.834 -0.0569 -0.1264 -0.1296
 2230W        W 6294   7.694   2.387  11.202 -0.0378 -0.0130  0.4724
 2231W        W 6295   8.468   7.287   1.035 -0.2289  0.1005 -0.0435
 2232W        W 6296   1.981   4.137   2.483 -0.0845 -0.1349 -0.2758
 2233W        W 6297   2.310   1.150   1.271 -0.0295  0.1336 -0.0995
 2234W        W 6298   4.267   5.217   1.431  0.2382 -0.3449  0.0747
 2235W        W 6299   2.544   0.705  11.120  0.0100 -0.0443 -0.1229
 2236W        W 6300   5.001  10.517   0.422  0.2047  0.3555 -0.0554
 2237W        W 6301   2.064   9.972   9.399  0.3456 -0.0745 -0.0079
 2238W        W 6302   5.904   6.640   1.242  0.0903  0.2323 -0.0117
 2239W        W 6303   7.971   9.761   2.743  0.1412 -0.1629 -0.2271
 2240W        W 6304   0.915   0.538   9.599  0.1199  0.1446 -0.1725
 2241W        W 6305   3.533   6.230   9.765 -0.1129  0.1814  0.2509
 2242W        W 6306   9.241   6.851   7.615  0.3645 -0.0555 -0.1156
 2243W        W 6307  10.417   0.560   3.575  0.2916  0.0954  0.3017
 2244W        W 6308  10.246   7.976  10.487 -0.1441 -0.0813  0.0756
 2245W        W 6309   9.263  10.136   3.663 -0.2165  0.2357 -0.0883
 2246W        W 6310   3.213   7.808   1.006  0.0712 -0.0004  0.1365
 2247W        W 6311   4.378   9.729  10.505 -0.1568  0.0984 -0.3758
 2248W        W 6312   1.209   9.085   1.423  0.2121  0.1648  0.1670
 2249W        W 6313   1.030   1.663  11.232 -0.0247 -0.1381  0.0558
 2250W        W 6314   0.049   2.454   2.895 -0.1393 -0.2660  0.1305
 2251W        W 6315   8.919  10.492   1.137  0.2046  0.0771  0.1337
 2252W        W 6316   8.941   7.195   2.201  0.1457 -0.2776 -0.0051
 2253W        W 6317   1.139   2.392  11.357 -0.2803  0.0139  0.0481
 2254W        W 6318   4.589   9.179   7.283 -0.1242  0.1163 -0.2354
 2255W        W 6319   3.185   6.088   0.302  0.1325 -0.3570  0.2906
 2256W        W 6320  10.026   4.855   2.877 -0.1406 -0.2644 -0.1602
 2257W        W 6321   6.630   6.290   3.183 -0.1530 -0.2148  0.1706
 2258W        W 6322   0.964   7.738   9.180  0.2222  0.2476 -0.3152
 2259W        W 6323   4.226   9.349   1.536 -0.1475 -0.1085  0.0206
 2260W        W 6324   6.514   9.053   3.663  0.2101  0.2646 -0.0359
 2261W        W 6325   4.980   5.436   3.687  0.0749 -0.1942 -0.0984
 2262W        W 6326   6.981   2.499   0.664  0.1196  0.1065  0.1677
 2263W        W 6327   6.209   4.222  10.346 -0.1538  0.1206  0.0471
 2264W        W 6328   9.144   3.692   1.201 -0.0708 -0.2111  0.2057
 2265W        W 6329   5.208   1.530   8.796 -0.1219  0.3128  0.1096
 2266W        W 6330   1.455   4.487   8.689 -0.0324  0.0016 -0.1306
 2267W        W 6331   1.151   1.971  10.892  0.0119 -0.1284  0.1873
 2268W        W 6332   8.516   5.274   2.169 -0.0263  0.1947  0.2781
 2269W        W 6333   9.320   0.057   7.420  0.3036 -0.1225 -0.0083
 2270W        W 6334   7.868   6.793  10.754  0.0007 -0.0673  0.2340
 2271W        W 6335   1.718   9.156  10.909 -0.2021  0.3147 -0.0540
 2272W        W 6336   6.915   6.784   8.088 -0.2424  0.0288 -0.1964
 2273W        W 6337   4.478   1.254  11.093 -0.1277 -0.0472  0.1728
 2274W        W 6338  10.034   0.779   9.006 -0.1836 -0.3138  0.2961
 2275W        W 6339   9.384   8.057   3.444 -0.2578  0.2503 -0.2627
 2276W        W 6340   9.259   2.483  11.316  0.1098 -0.0696 -0.0337
 2277W        W 6341   5.145   5.150   0.693 -0.0473 -0.0806 -0.2600
 2278W        W 6342   9.969   0.202   2.834  0.3252  0.2440 -0.2034
 2279W        W 6343   3.437   5.870   9.091  0.2522 -0.2766  0.1496
 2280W        W 6344   7.863   6.642   3.797  0.0622 -0.3534 -0.0214
 2281W        W 6345   5.999   9.917  11.260  0.1738  0.1253  0.3894
 2282W        W 6346   7.312   4.000   9.267 -0.1074  0.0423  0.1090
 2283W        W 6347   9.497   0.668   2.996 -0.1247  0.2911  0.0680
 2284W        W 6348   7.123   9.737  10.360 -0.2517  0.2579  0.0546
 2285W        W 6349   8.899   7.774   0.493  0.0612  0.0238 -0.0083
 2286W        W 6350   3.017   1.639   9.042  0.1338 -0.0678  0.3801
 2287W        W 6351   3.879   4.064   3.421 -0.0834 -0.0442  0.1075
 2288W        W 6352   2.957   2.114   2.487  0.0819  0.2943  0.0691
 2289W        W 6353   2.440   3.640  10.003 -0.0444 -0.1879 -0.1356
 2290W        W 6354   2.992   2.583   8.207  0.2583 -0.1320  0.0133
 2291W        W 6355   9.692   0.664   9.777  0.0661 -0.0440  0.2612
 2292W        W 6356   5.824   2.738   7.895 -0.1829 -0.1892  0.4470
 2293W        W 6357   5.680   2.874   4.411 -0.1183 -0.0579  0.0597
 2294W        W 6358   2.908   9.581   0.110  0.1902  0.2104 -0.0590
 2295W        W 6359   4.205   7.130   8.256 -0.2674  0.0621  0.1096
 2296W        W 6360   3.967   9.499   9.207 -0.1963  0.0079  0.3803
 2297W        W 6361   1.537   5.251   9.346 -0.1189 -0.2932  0.0833
 2298W        W 6362   8.465   5.750   2.831  0.1245 -0.0907 -0.2529
 2299W        W 6363   4.713   8.341  10.318 -0.2757  0.2316 -0.0014
 2300W        W 6364   6.055   6.226   0.961  0.2287  0.2620 -0.0869
 2301W        W 6365   8.499   1.693   2.751 -0.1732  0.0124  0.1662
 2302W        W 6366   5.442   0.310   0.792  0.1662 -0.2171 -0.0610
 2303W        W 6367   7.983   4.630   0.212  0.0454  0.1992  0.1719
 2304W        W 6368   7.970   3.729   0.579 -0.1523  0.0962  0.0315
 2305W        W 6369   5.826   9.284   4.162  0.0362 -0.1851  0.1250
 2306W        W 6370   2.790   9.952   3.097  0.1685  0.0333 -0.1180
 2307W        W 6371   9.498   5.057  10.069  0.2356 -0.3285 -0.2811
 2308W        W 6372   6.456   2.067   2.728  0.0126  0.1723  0.0254
 2309W        W 6373   5.191   6.201   2.041 -0.0292 -0.1384  0.0844
 2310W        W 6374   0.275   5.077   1.512 -0.1368 -0.1462 -0.1149
 2311W        W 6375   9.752   0.300  10.663  0.2408  0.1830 -0.2831
 2312W        W 6376   8.936   0.988   0.024 -0.1412 -0.1374 -0.3810
 2313W        W 6377   0.128   4.010   2.119 -0.1187  0.1584  0.0268
 2314W        W 6378   2.970   8.998  10.446  0.0416 -0.0922 -0.1238
 2315W        W 6379   6.682   3.098  11.418 -0.0863  0.2421 -0.0097
 2316W        W 6380   4.179   4.375   0.748  0.0092  0.0661  0.1124
 2317W        W 6381   7.983   7.293   0.865 -0.2110 -0.1375  0.2259
 2318W        W 6382   5.422   9.277  11.134  0.1034 -0.0192  0.2198
 2319W        W 6383   3.618   0.102   2.031 -0.4102 -0.0996  0.2229
 2320W        W 6384   9.963   6.509   9.023  0.0177 -0.0367  0.1463
 2321W        W 6385   7.806   2.875  10.084  0.1069  0.2468  0.1892
 2322W        W 6386   8.566   2.885  11.077  0.0933 -0.2109  0.1413
 2323W        W 6387   8.401   2.224   1.260 -0.0013 -0.0176  0.1029
 2324W        W 6388   1.412   3.235   2.086  0.1476  0.2624 -0.0776
 2325W        W 6389   4.914   0.927   0.349  0.2111  0.2232 -0.3720
 2326W        W 6390   3.698   7.667   8.648  0.1760  0.0978  0.0065
 2327W        W 6391   7.118   8.925   1.464 -0.0057  0.2729 -0.2956
 2328W        W 6392   8.124   9.147   8.140 -0.1652  0.1672 -0.2226
 2329W        W 6393   5.063   1.256  10.227  0.2931 -0.0077 -0.0193
 2330W        W 6394   3.813   2.069   7.783 -0.0882  0.0254  0.1932
 2331W        W 6395   8.151   6.461   8.400 -0.0632 -0.2239 -0.1555
 2332W        W 6396   9.749   2.465   0.600 -0.0361 -0.2819 -0.1110
 2333W        W 6397   5.780   3.565   2.883  0.2802 -0.1812 -0.0943
 2334W        W 6398   9.875   5.690  10.855 -0.4023  0.1453  0.0724
 2335W        W 6399   4.621  10.025  10.863 -0.1724 -0.0499  0.1996
 2336W        W 6400   1.896  10.478   1.498 -0.1560 -0.1024 -0.0834
 2337W        W 6401   9.809   4.901  10.441 -0.0234 -0.1347 -0.1701
 2338W        W 6402   1.309   3.180   9.157 -0.0763  0.1791 -0.0672
 2339W        W 6403   9.209   8.921  10.036 -0.0181 -0.3142  0.1687
 2340W        W 6404   5.641   6.293   9.336  0.1277 -0.0808  0.3831
 2341W        W 6405   1.294   1.218   3.575  0.0372 -0.3541  0.1443
 2342W        W 6406   0.940   0.095   9.323 -0.3601  0.1391 -0.0211
 2343W        W 6407   5.905   8.147   0.381  0.1002  0.0737  0.1283
 2344W        W 6408  10.134   7.575  10.904  0.2705 -0.1635  0.2139
 2345W        W 6409   1.133   7.882   9.683 -0.0038 -0.3274  0.2032
 2346W        W 6410   6.796   0.453   7.749  0.2787  0.3674  0.0584
 2347W        W 6411   3.106   5.585   1.788  0.1691  0.1660 -0.0183
 2348W        W 6412   1.497   4.447   1.159  0.1080  0.1775 -0.1418
 2349W        W 6413   4.156   4.803   2.603  0.1210 -0.2402  0.0920
 2350W        W 6414   5.680   3.680   7.603  0.2921 -0.1219  0.0957
 2351W        W 6415   2.248   2.861   9.793  0.0961  0.0455 -0.0266
 2352W        W 6416  10.223   8.897   8.941  0.2579 -0.1813  0.0139
 2353W        W 6417   9.405   4.409   2.646 -0.2286 -0.0122 -0.2586
 2354W        W 6418   6.963   7.487   2.621 -0.1714 -0.6152 -0.1317
 2355W        W 6419   1.423   6.621   9.715  0.0675  0.0428  0.1069
 2356W        W 6420   5.987   2.724   2.888  0.1373  0.1528 -0.1514
 2357W        W 6421   2.727   4.500   9.862  0.3617 -0.1490  0.1733
 2358W        W 6422   1.819   1.864   1.952 -0.1290 -0.1777 -0.0120
 2359W        W 6423   7.505   9.380   9.941 -0.2571  0.2234  0.2764
 2360W        W 6424   6.960   5.543   3.459  0.1894 -0.2903  0.0273
 2361W        W 6425   3.120   1.691  10.501  0.0280 -0.0040  0.3017
 2362W        W 6426   1.121   0.452  10.505 -0.3972 -0.2622 -0.2439
 2363W        W 6427  10.481  10.367   2.654 -0.1522 -0.0211  0.1016
 2364W        W 6428   6.504   0.153   1.461  0.0732  0.0626  0.1322
 2365W        W 6429   3.689   7.144   2.716 -0.1259  0.0570  0.2113
 2366W        W 6430   1.827   1.218   8.512  0.1173 -0.0795 -0.2810
 2367W        W 6431   8.851   8.864  11.009 -0.2709  0.1198  0.2229
 2368W        W 6432   7.135   2.330  10.461  0.1178 -0.3726 -0.0507
 2369W        W 6433   0.335  10.444  10.616 -0.2390 -0.0231  0.5643
 2370W        W 6434   6.340   3.163   7.880  0.0300 -0.2741 -0.0198
 2371W        W 6435   0.311   4.245   1.007 -0.0355 -0.1628 -0.2411
 2372W        W 6436   1.938   6.849   0.773 -0.2690  0.0354  0.0874
 2373W        W 6437   0.539   0.832   9.788 -0.1230 -0.0764 -0.0321
 2374W        W 6438   2.981   0.219   2.016 -0.0883 -0.0434 -0.1224
 2375W        W 6439   1.408   0.227   2.511 -0.1406  0.2451 -0.2361
 2376W        W 6440   0.931   5.181   8.419 -0.1671 -0.0996  0.1425
 2377W        W 6441   6.942   2.838  10.443 -0.1549  0.0595 -0.1915
 2378W        W 6442   8.367   8.123  11.444  0.2312 -0.0541  0.1714
 2379W        W 6443   6.528   2.146   3.361  0.2739  0.0022 -0.2399
 2380W        W 6444   4.695   1.168   9.366 -0.2299  0.0791  0.1474
 2381W        W 6445   9.965   0.024   1.450  0.3093  0.0567  0.2511
 2382W        W 6446   1.977   5.463   9.511 -0.1385 -0.1214 -0.0834
 2383W        W 6447   4.647   7.529   8.618  0.3193  0.1498 -0.2527
 2384W        W 6448   8.852   3.679   2.645 -0.1745 -0.2505  0.2076
 2385W        W 6449   0.498   9.900   2.399  0.0201 -0.1565  0.3598
 2386W        W 6450   4.854  10.493   2.734  0.0624 -0.0195  0.2656
 2387W        W 6451   4.480   7.552   2.404 -0.0201 -0.2360 -0.0118
 2388W        W 6452   8.273   0.885  10.908 -0.2311 -0.3893 -0.1221
 2389W        W 6453   3.723   6.862   0.253 -0.2032 -0.1261  0.1935
 2390W        W 6454   4.892   4.868  11.117 -0.3782 -0.2594  0.1530
 2391W        W 6455   6.935  10.478   1.549  0.1392 -0.0741  0.4181
 2392W        W 6456   1.741   5.464   9.962 -0.0128  0.1469 -0.0730
 2393W        W 6457   2.096   8.869   3.187 -0.0786  0.1947 -0.1172
 2394W        W 6458   3.740   4.619   8.664 -0.0633 -0.0533 -0.2335
 2395W        W 6459   9.869   6.578   9.960  0.0132 -0.3448  0.0856
 2396W        W 6460   0.283   6.480   0.303  0.1539  0.0299 -0.2007
 2397W        W 6461   3.924   5.185   3.607  0.1262 -0.1785 -0.0799
 2398W        W 6462   7.636   3.661   9.115 -0.1303  0.2035 -0.3035
 2399W        W 6463   2.094   7.704  10.126  0.1148 -0.0605 -0.3704
 2400W        W 6464   9.592  10.183   3.256  0.1334  0.0968 -0.1018
 2401W        W 6465   7.700   8.218   1.614  0.0002  0.1458  0.2251
 2402W        W 6466   7.461   7.267   4.307  0.0948  0.2822 -0.3525
 2403W        W 6467   8.620   8.371   2.756 -0.3773  0.0399  0.1698
 2404W        W 6468   7.993   1.180   9.235 -0.0131 -0.1725 -0.0889
 2405W        W 6469   6.916   2.841   9.447 -0.0918  0.0776 -0.1487
 2406W        W 6470   7.164   7.994   0.612 -0.0311  0.1086  0.1586
 2407W        W 6471   1.936   2.956  11.207  0.0764  0.0070  0.1583
 2408W        W 6472   4.917   6.789   9.677  0.2543  0.4409  0.0456
 2409W        W 6473   8.328   2.455   3.500 -0.2458  0.2073  0.1047
 2410W        W 6474   3.589   0.862   0.868 -0.1581 -0.2257  0.1905
 2411W        W 6475   9.709   1.486   8.758  0.0048  0.2144 -0.0834
 2412W        W 6476   9.520   4.614   7.580 -0.1116  0.0588  0.0928
 2413W        W 6477   1.941   9.143   2.312 -0.0380  0.0097  0.2530
 2414W        W 6478   7.370   2.156   2.506 -0.2452  0.0930 -0.2359
 2415W        W 6479   5.631   4.735  10.725  0.0175  0.1429  0.1084
 2416W        W 6480   6.395   2.591   1.809 -0.2604 -0.0330 -0.0157
 2417W        W 6481   6.082   6.497   9.056  0.2028 -0.1221 -0.2442
 2418W        W 6482   4.297   9.200   1.010  0.0278 -0.1530 -0.2275
 2419W        W 6483   2.335   1.805   2.810  0.0977 -0.2634 -0.1502
 2420W        W 6484   3.210   9.271   0.287  0.0671  0.0351  0.2133
 2421W        W 6485   6.346   0.608  11.478 -0.0647  0.1075  0.0971
 2422W        W 6486   4.836   0.410  10.509 -0.0669 -0.3629 -0.0146
 2423W        W 6487   2.385   8.161   1.251  0.0028 -0.0568  0.1232
 2424W        W 6488   6.792   9.074   4.607  0.2114 -0.0151  0.1197
 2425W        W 6489   3.863   4.270   2.788 -0.4515  0.1844  0.0628
 2426W        W 6490   5.389   9.750  11.520  0.0301  0.3572 -0.0909
 2427W        W 6491   9.816   7.236  11.139 -0.0101  0.0720 -0.2408
 2428W        W 6492   6.439  10.252  11.296 -0.0770  0.0794 -0.1785
 2429W        W 6493   5.532   5.455  10.829  0.1346 -0.0211 -0.1452
 2430W        W 6494   0.227   2.729  10.540  0.3467  0.1200  0.1146
 2431W        W 6495   8.673   0.290   9.825 -0.1241  0.0154  0.3263
 2432W        W 6496   0.818   2.682   2.721  0.0951 -0.0207 -0.2446
 2433W        W 6497   5.242   4.795   3.502  0.4244 -0.0373 -0.1266
 2434W        W 6498   8.745   3.297  11.575 -0.0555  0.0550 -0.1329
 2435W        W 6499   4.013   9.689   2.836  0.0786 -0.3019  0.1796
 2436W        W 6500   0.097   6.064   0.441 -0.2740  0.3300 -0.4108
 2437W        W 6501   2.535   7.379   0.778  0.1022 -0.2078 -0.0143
 2438W        W 6502   1.439   9.068   2.986 -0.1899  0.0602 -0.1071
 2439W        W 6503   9.871   3.035   0.497  0.0164  0.2718 -0.1087
 2440W        W 6504   8.053   7.581   1.323 -0.5218 -0.0199  0.2880
 2441W        W 6505   8.313   1.712  10.054  0.1668 -0.0436 -0.0768
 2442W        W 6506   0.443   7.334  11.104  0.2178  0.0469  0.1432
 2443W        W 6507   0.440   1.776   2.480 -0.1096  0.0628  0.0726
 2444W        W 6508   7.339  10.528   0.666  0.0959 -0.2449  0.2520
 2445W        W 6509   2.439   1.570   9.716 -0.0216  0.1858  0.3468
 2446W        W 6510   1.283   4.495   2.795 -0.0347 -0.2481  0.1429
 2447W        W 6511   7.228   6.823   9.902  0.1313  0.0132 -0.2132
 2448W        W 6512   3.727   2.538  10.753  0.2336  0.2695 -0.1512
 2449W        W 6513   2.942   9.329  10.072  0.2170 -0.2011  0.0324
 2450W        W 6514   6.828   3.146   8.155 -0.0524 -0.1008  0.0121
 2451W        W 6515  10.402   8.587   2.230 -0.0866  0.2175 -0.1044
 2452W        W 6516   1.356   7.537  11.473 -0.0253 -0.0915 -0.1539
 2453W        W 6517   1.103   0.107   0.353  0.0532  0.1011  0.0164
 2454W        W 6518   8.086   8.047  10.495  0.3606 -0.1360 -0.3170
 2455W        W 6519   0.759   2.595   8.704  0.0099  0.1251  0.2031
 2456W        W 6520   6.180   3.388  10.642 -0.1345 -0.2485  0.1933
 2457W        W 6521   7.938   9.066   2.045  0.1022 -0.0275 -0.1449
 2458W        W 6522   1.830   0.118  11.440  0.2596 -0.0291  0.3879
 2459W        W 6523   0.226   0.312   0.533 -0.2727  0.1437  0.0702
 2460W        W 6524  10.090  10.387   3.473  0.1500 -0.0569  0.1331
 2461W        W 6525  10.131   4.836   1.945  0.0050 -0.3290  0.1041
 2462W        W 6526  10.511   7.453   9.727  0.0736  0.1332  0.0107
 2463W        W 6527   0.545   4.031  10.942 -0.1300  0.2272 -0.1251
 2464W        W 6528   2.377   0.844   2.315 -0.1413  0.0907 -0.2421
 2465W        W 6529   4.719   0.665   8.980 -0.0839 -0.1930  0.0378
 2466W        W 6530   8.558   3.932   8.638  0.1847 -0.1950 -0.2128
 2467W        W 6531   7.928   8.375   8.648  0.1577  0.1931 -0.0209
 2468W        W 6532   2.412   2.427  11.209 -0.0432 -0.4131 -0.1567
 2469W        W 6533   2.844   4.563   1.511  0.0641 -0.0930  0.0886
 2470W        W 6534   2.389   2.395   1.961  0.1715  0.0617  0.2193
 2471W        W 6535   8.226   4.662   2.605 -0.0702 -0.2737 -0.0920
 2472W        W 6536   8.337   9.465   2.905 -0.4981  0.3032 -0.1610
 2473W        W 6537   5.521   8.171   0.806 -0.1893  0.1685  0.2322
 2474W        W 6538   7.579   7.704   1.631  0.1645  0.2254 -0.0607
 2475W        W 6539   4.547   9.652   9.965 -0.1222 -0.1971 -0.2656
 2476W        W 6540   5.057   3.977   1.683  0.3621 -0.2939  0.1360
 2477W        W 6541   8.883   2.478  10.967 -0.0573 -0.1899  0.1030
 2478W        W 6542   1.941   0.052   1.955 -0.3623  0.2028 -0.0943
 2479W        W 6543   4.283   6.695   2.215 -0.1474  0.0588  0.0806
 2480W        W 6544   7.377   6.186   8.900  0.1045 -0.1221 -0.0471
 2481W        W 6545   4.071   9.133   7.183  0.1244  0.0453  0.1477
 2482W        W 6546   8.065   4.165   2.816 -0.0384 -0.2457 -0.1326
 2483W        W 6547   2.601   0.237   9.323 -0.1010 -0.0364  0.1672
 2484W        W 6548   1.750   0.260   1.224  0.0108  0.2515 -0.3569
 2485W        W 6549   6.996   8.849   3.589 -0.0226 -0.4134  0.1683
 2486W        W 6550   1.747   3.424  10.606  0.0373  0.0267  0.1427
 2487W        W 6551   4.882   7.052   0.776  0.1222 -0.1103 -0.1583
 2488W        W 6552   5.688   4.584   1.814 -0.0211 -0.0725  0.3236
 2489W        W 6553   0.001   8.686  10.431 -0.1467  0.0090  0.3261
 2490W        W 6554   4.729   1.977   0.664  0.3555 -0.2089  0.3063
 2491W        W 6555   4.371   2.098   3.497 -0.0304 -0.2076  0.2628
 2492W        W 6556   8.500   1.201  10.553 -0.2204 -0.1463  0.1344
 2493W        W 6557   1.929   0.563   9.539 -0.2099 -0.2913 -0.1401
 2494W        W 6558   2.554   1.186  11.000  0.0926  0.1060 -0.1264
 2495W        W 6559  10.533   7.458   7.528  0.0337  0.0040  0.2888
 2496W        W 6560   0.113   0.448   4.091 -0.2595  0.0876 -0.1474
 2497W        W 6561  10.102   6.076   9.400  0.2215  0.3619  0.1594
 2498W        W 6562   9.563   4.760  11.074  0.3227 -0.2237  0.2709
 2499W        W 6563   6.685   9.925   3.447 -0.4908 -0.1329 -0.0129
 2500W        W 6564   3.308   2.055   3.339 -0.0902 -0.2230 -0.1881
 2501W        W 6565   6.764   0.110   8.803  0.0035 -0.0735 -0.2731
 2502W        W 6566   0.166   0.766  10.777  0.1260  0.2539  0.2739
 2503W        W 6567   0.347   4.646   1.754  0.0788 -0.1208  0.2308
 2504W        W 6568   2.740   7.860   1.857  0.1311  0.1363 -0.1801
 2505W        W 6569   3.081   9.248   8.637 -0.1256 -0.0785  0.1479
 2506W        W 6570   2.404   3.678   0.676  0.1778  0.1138  0.4329
 2507W        W 6571   8.343   2.478   4.049  0.1209  0.1441 -0.2707
 2508W        W 6572   5.390   1.649   0.129  0.0842 -0.0605 -0.2242
 2509W        W 6573   9.871   4.538   2.487 -0.3649  0.0776 -0.3360
 2510W        W 6574   3.657   6.934   2.293  0.4357  0.1070  0.1599
 2511W        W 6575   4.950   1.655   2.451  0.3471  0.1561  0.0559
 2512W        W 6576   0.846   8.088   0.489  0.2117 -0.0377  0.2097
 2513W        W 6577   4.873   1.969   3.686  0.3509 -0.0079  0.3668
 2514W        W 6578   4.583   1.262  10.298  0.1732 -0.0804 -0.1414
 2515W        W 6579  10.279   8.483   9.608 -0.1719 -0.2026 -0.0661
 2516W        W 6580   7.156   8.802   8.229 -0.1731  0.2049  0.0077
 2517W        W 6581  10.172   3.544   1.492  0.5106 -0.1395 -0.2176
 2518W        W 6582   4.453   6.991   2.561 -0.2016  0.1361 -0.1132
 2519W        W 6583   8.563   4.152  11.377 -0.0252 -0.1121  0.0423
 2520W        W 6584   6.129   2.881  10.362 -0.2516  0.1973 -0.2120
 2521W        W 6585   1.994   5.622   0.966  0.1125 -0.1643 -0.1875
 2522W        W 6586   1.141   2.816  10.410  0.2773  0.0586  0.4812
 2523W        W 6587   2.019   4.215   0.736 -0.4016  0.0963  0.1831
 2524W        W 6588   0.495  10.367   1.013  0.1855  0.2009 -0.0244
 2525W        W 6589   4.961   2.461   8.946 -0.2763  0.0531  0.2440
 2526W        W 6590   2.298   8.696  10.287  0.1335  0.0393  0.1794
 2527W        W 6591   1.282   3.096   8.087 -0.0806 -0.0563 -0.0132
 2528W        W 6592   4.349   8.071   1.602  0.2328  0.1259 -0.1961
 2529W        W 6593   6.928   7.716  11.028 -0.2203  0.1354 -0.3072
 2530W        W 6594   4.149   4.336   1.345 -0.0382 -0.1453  0.1767
 2531W        W 6595   4.553   0.634   0.989 -0.3854  0.2473 -0.1726
 2532W        W 6596   1.179   3.824   0.697  0.1922  0.0540  0.0198
 2533W        W 6597  10.588   1.357   9.915 -0.0506  0.1725 -0.0760
 2534W        W 6598   1.911   2.529   1.075  0.2841 -0.0340  0.2909
 2535W        W 6599   6.673   5.145   8.375 -0.1373 -0.1479 -0.2311
 2536W        W 6600   1.559   9.910   9.383  0.2318 -0.1161 -0.1871
 2537W        W 6601   6.056   0.808   2.564  0.2940 -0.2154  0.0478
 2538W        W 6602   0.771   7.722  11.467  0.1802  0.2284  0.0389
 2539W        W 6603   6.355  10.419   3.444  0.0345 -0.2942  0.0952
 2540W        W 6604   7.975   6.892   8.798  0.2440 -0.0326  0.0334
 2541W        W 6605   7.481  10.479   8.162  0.3151  0.0682  0.0382
 2542W        W 6606   0.044   0.608   2.546 -0.2810  0.2073 -0.1992
 2543W        W 6607   7.661   5.602   9.972  0.0627 -0.1462 -0.1970
 2544W        W 6608   1.540   7.263  11.008  0.1333 -0.0732  0.2078
 2545W        W 6609   8.106   0.065   1.088  0.0484  0.1327  0.1298
 2546W        W 6610   3.794   1.716   1.122  0.2370 -0.1392  0.0765
 2547W        W 6611   7.932   4.215   3.298  0.2015  0.1024 -0.0148
 2548W        W 6612   3.099   9.593   2.904 -0.0854  0.0795  0.0777
 2549W        W 6613   4.241   2.156  11.556 -0.5330  0.0332 -0.4276
 2550W        W 6614   9.571   9.319   0.174 -0.0905  0.1430  0.1292
 2551W        W 6615   1.950   6.016   0.166  0.1926  0.0699 -0.0784
 2552W        W 6616   1.807   1.969   0.642 -0.0784  0.1212  0.0048
 2553W        W 6617   9.377   5.624   2.024 -0.0379  0.2687  0.4343
 2554W        W 6618   4.641   4.494   8.344 -0.1440  0.1528 -0.1398
 2555W        W 6619  10.626   9.300   8.094 -0.1629  0.2585  0.3092
 2556W        W 6620   8.220   8.185   2.173  0.0169  0.0696  0.0466
 2557W        W 6621   6.067   9.515  10.865 -0.3257  0.0721  0.1417
 2558W        W 6622   8.962  10.540   7.077 -0.0191 -0.1746  0.1148
 2559W        W 6623   9.519   5.585   0.104 -0.1438 -0.1842 -0.1285
 2560W        W 6624   5.120   7.199   0.356  0.1947 -0.0679  0.0311
 2561W        W 6625   1.702   4.908   3.009 -0.2058  0.3458  0.3300
 2562W        W 6626   8.724   0.205   2.988  0.0152 -0.5025  0.0685
 2563W        W 6627   5.434   3.794  10.261  0.0614 -0.0581  0.2159
 2564W        W 6628   8.601   0.159   0.906 -0.0398  0.0129  0.1406
 2565W        W 6629   5.934   4.204   1.328 -0.0477 -0.2027 -0.2973
 2566W        W 6630   7.729   0.267   4.395 -0.1108  0.0356 -0.1598
 2567W        W 6631   2.326   4.011   2.144  0.1009 -0.1926  0.0702
 2568W        W 6632   8.530   0.763   3.152 -0.1845 -0.0475  0.1090
 2569W        W 6633   1.732   1.039   9.598 -0.0717  0.0317  0.6199
 2570W        W 6634   3.560   6.525   3.062  0.0004  0.0463  0.0748
 2571W        W 6635   4.005   9.797   9.767  0.1328  0.0203  0.4191
 2572W        W 6636   6.281   9.271   4.076  0.0736 -0.1017 -0.0110
 2573W        W 6637   2.028   5.174   2.712 -0.1516  0.1011  0.0001
 2574W        W 6638   1.703   3.385  11.134 -0.3005 -0.1448  0.0376
 2575W        W 6639   0.877   9.541   8.253 -0.1272  0.0584 -0.1124
 2576W        W 6640   6.338   4.122   9.860  0.1361 -0.1061  0.0126
 2577W        W 6641   3.561   9.920   8.432 -0.1346 -0.4727  0.2063
 2578W        W 6642   2.340   1.867   0.686 -0.0347 -0.4091 -0.1444
 2579W        W 6643   6.894   2.388   1.167 -0.0031 -0.2243  0.1825
 2580W        W 6644   2.733  10.261   8.871  0.5428 -0.0594  0.1360
 2581W        W 6645  10.367   2.333   9.786 -0.0074 -0.1492  0.2700
 2582W        W 6646   0.463   7.074   3.432  0.0643  0.0657 -0.1364
 2583W        W 6647   6.620   2.855   0.553  0.0324 -0.0684 -0.1628
 2584W        W 6648   2.766   6.597  10.387 -0.0947 -0.1518  0.3569
 2585W        W 6649   3.279   0.869  11.577  0.1471  0.2709 -0.3229
 2586W        W 6650   3.555   1.132   7.731  0.1447 -0.2452 -0.3671
 2587W        W 6651   1.436   6.071  11.603  0.1446 -0.0120 -0.0540
 2588W        W 6652   9.808   3.033  11.561  0.1043  0.4456 -0.1181
 2589W        W 6653   9.593   5.231   1.872 -0.1955 -0.0758 -0.3720
 2590W        W 6654   7.857   2.533   0.137 -0.3010  0.0186 -0.2401
 2591W        W 6655   3.323   5.023   1.232  0.0835 -0.0328  0.1378
 2592W        W 6656   0.807   2.686   9.192  0.1257 -0.3494 -0.0709
 2593W        W 6657  10.519  10.250   8.667 -0.2586 -0.2408  0.0469
 2594W        W 6658   6.445   8.145   1.175 -0.0103  0.3859 -0.4489
 2595W        W 6659   9.494   3.265  10.927  0.2040 -0.0765  0.0685
 2596W        W 6660   8.878   4.807  10.747  0.3423  0.0649  0.1546
 2597W        W 6661   3.642   3.608   3.431  0.3354 -0.2759 -0.0285
 2598W        W 6662   6.298   6.390   0.570  0.1384  0.1635 -0.1351
 2599W        W 6663   5.750   5.554  10.076 -0.0020 -0.0283 -0.5441
 2600W        W 6664   6.165   2.937   8.346 -0.2219 -0.2686  0.1580
 2601W        W 6665   7.364   3.031   2.949 -0.0176 -0.2304  0.2329
 2602W        W 6666  10.248   7.857   8.204 -0.0989  0.2718 -0.0114
 2603W        W 6667   8.045   0.695   1.779  0.1005  0.2519  0.4469
 2604W        W 6668   4.180   2.099   1.420  0.1238  0.2067 -0.0081
 2605W        W 6669  10.404   0.862   1.126 -0.1774  0.2779 -0.0032
 2606W        W 6670   1.997   9.524   1.008 -0.0252 -0.1349  0.1112
 2607W        W 6671   5.039   4.931   1.545 -0.3129  0.0260  0.1693
 2608W        W 6672   8.276   4.691   0.620 -0.0556 -0.1392  0.3540
 2609W        W 6673   2.322   8.506   2.927 -0.0422 -0.1687 -0.2267
 2610W        W 6674   3.627   8.474   8.714 -0.2125  0.0067  0.2603
 2611W        W 6675   4.550   3.969   2.233 -0.1795  0.1563 -0.4833
 2612W        W 6676   0.265   1.794   9.670 -0.1894  0.0030  0.0889
 2613W        W 6677   6.108  10.495   3.019 -0.3628 -0.0586 -0.3934
 2614W        W 6678   4.037   0.232   3.024 -0.0729  0.3396  0.1665
 2615W        W 6679   2.538   1.482   4.139  0.2149 -0.5149 -0.2255
 2616W        W 6680   5.193   4.478   1.783  0.4046  0.1455 -0.0578
 2617W        W 6681   1.689  10.248   1.997  0.0798  0.1158 -0.1547
 2618W        W 6682   7.595   5.721   0.410 -0.0882 -0.0269 -0.1135
 2619W        W 6683   2.268   6.707   1.396  0.0244 -0.2150 -0.2650
 2620W        W 6684   8.246   5.865  11.568 -0.0467  0.0269 -0.1466
 2621W        W 6685   6.267   8.003   0.741 -0.0446  0.1397  0.2798
 2622W        W 6686   9.604   8.311   2.605 -0.2389 -0.2220  0.2029
 2623W        W 6687   4.187   8.315  10.160  0.0953  0.3165 -0.1024
 2624W        W 6688  10.442   5.661   1.162 -0.1291 -0.1274  0.0332
 2625W        W 6689   8.485   1.791   9.485  0.0902  0.0229  0.0427
 2626W        W 6690   1.579   0.700   2.335  0.0072  0.0939  0.0462
 2627W        W 6691   3.210   9.547   8.069  0.1051 -0.2500 -0.1977
 2628W        W 6692   2.169   7.682   1.437  0.0683 -0.1330 -0.1076
 2629W        W 6693   0.900   7.127   1.084 -0.0811  0.0549 -0.5013
 2630W        W 6694   5.348   5.826  10.553 -0.0409 -0.0311  0.1152
 2631W        W 6695   9.433   5.884   1.003 -0.2853 -0.2608  0.1465
 2632W        W 6696   6.217   1.261   9.478 -0.0472 -0.1913  0.1445
 2633W        W 6697   9.572   6.279   3.535 -0.1122 -0.0559  0.1060
 2634W        W 6698   1.610   1.702  10.099 -0.1974  0.2444  0.1899
 2635W        W 6699   8.012   7.641  10.224  0.1654 -0.1042 -0.4690
 2636W        W 6700   0.405   2.979  11.031 -0.2226 -0.0426  0.2918
 2637W        W 6701  10.360   6.614  10.120 -0.1263 -0.0025 -0.0594
 2638W        W 6702   8.655   3.157   3.754 -0.0867  0.2427  0.2676
 2639W        W 6703   8.671   0.650   1.049  0.0219  0.3182  0.1461
 2640W        W 6704   5.035   1.881   4.137  0.1932 -0.0080 -0.1844
 2641W        W 6705   8.165   9.693   8.852  0.1372  0.1261 -0.0020
 2642W        W 6706   2.815   0.005   8.614 -0.0259  0.0276  0.2970
 2643W        W 6707   3.593   8.473   2.166 -0.0741 -0.0503 -0.0778
 2644W        W 6708   9.710   4.210   1.636 -0.2096  0.0464 -0.2808
 2645W        W 6709   7.191   8.458   1.259 -0.2566  0.0820 -0.0272
 2646W        W 6710   8.081  10.042   1.908 -0.2612  0.1822  0.0321
 2647W        W 6711   9.299   0.593  10.549  0.1193 -0.1806 -0.0668
 2648W        W 6712   4.586   8.812   1.243 -0.0944  0.1430  0.0566
 2649W        W 6713   7.600   4.397   0.450  0.0091 -0.2723 -0.0536
 2650W        W 6714   9.569   8.110   1.104 -0.0306 -0.1796 -0.3429
 2651W        W 6715   0.645   0.447   0.232  0.1861 -0.0031  0.1062
 2652W        W 6716   7.054   2.071   8.477  0.1147 -0.0226  0.0466
 2653W        W 6717   9.511   4.302   9.660  0.1429 -0.0035  0.0104
 2654W        W 6718   8.986   3.446   3.473  0.1705 -0.1361 -0.0556
 2655W        W 6719   1.488   9.565  10.746  0.2759  0.1997 -0.0327
 2656W        W 6720   8.242   1.671   9.100  0.0434  0.3034 -0.0276
 2657W        W 6721   5.378   6.391   1.510  0.2174  0.3652 -0.1484
 2658W        W 6722   0.451   3.508   2.771  0.0475 -0.0546  0.0512
 2659W        W 6723  10.078  10.146   0.441 -0.1104  0.1399  0.1966
 2660W        W 6724   5.355   9.830   0.937  0.2377 -0.0184  0.3078
 2661W        W 6725   0.660  10.401   0.444 -0.0178 -0.3454  0.0038
 2662W        W 6726   1.913  10.218  11.024  0.1455  0.0398  0.0331
 2663W        W 6727   0.854   8.531   0.698 -0.5106 -0.1250 -0.2551
 2664W        W 6728   9.363   8.824   0.601 -0.2353  0.3844 -0.1133
 2665W        W 6729   4.924   3.689   4.166  0.1097 -0.2203 -0.0831
 2666W        W 6730   6.844   3.789   8.332 -0.0814  0.3418 -0.0586
 2667W        W 6731   6.982   9.351   9.795  0.0270  0.1520 -0.3100
 2668W        W 6732   4.897   0.345  11.259  0.2026 -0.0040 -0.3198
 2669W        W 6733   9.887   9.329   9.371 -0.1120  0.1674  0.4039
 2670W        W 6734   6.618   8.274   9.648 -0.1635  0.1415  0.3858
 2671W        W 6735   3.449   2.702  11.501  0.0188  0.1628 -0.1477
 2672W        W 6736   1.586   9.770   1.090  0.0199 -0.1241  0.0626
 2673W        W 6737   4.767   5.537  11.622 -0.2094 -0.2755 -0.1440
 2674W        W 6738   6.843   7.026   0.108  0.2873  0.1374 -0.0493
 2675W        W 6739   4.732   4.854  10.668 -0.0872  0.1031  0.2612
 2676W        W 6740  10.167   8.961  10.289 -0.2797 -0.0385 -0.0896
 2677W        W 6741   3.900   2.729  11.183 -0.0092 -0.2197 -0.1537
 2678W        W 6742   8.218   2.836   8.689  0.2139 -0.2154 -0.0507
 2679W        W 6743  10.376   3.176  11.301  0.0397 -0.0230 -0.2963
 2680W        W 6744  10.001   6.654   0.735 -0.0843 -0.2436  0.1481
 2681W        W 6745   4.078   3.468   9.091 -0.0280  0.0665 -0.1424
 2682W        W 6746   8.443   0.334   1.331 -0.0684  0.0166 -0.2919
 2683W        W 6747   5.079   6.829   8.046 -0.0041  0.0837 -0.3609
 2684W        W 6748   8.347   0.182   8.577 -0.0592 -0.0261  0.0643
 2685W        W 6749   8.664   3.678  11.261 -0.1725 -0.0717  0.3359
 2686W        W 6750  10.310   0.178   3.231  0.0758  0.0058 -0.0935
 2687W        W 6751   1.984   1.774  10.546 -0.0472 -0.2958  0.0686
 2688W        W 6752   7.170   4.254  10.245  0.0700 -0.1852 -0.0776
 2689W        W 6753   0.326   6.938   0.074  0.0520  0.0302  0.1506
 2690W        W 6754   6.646   0.434  10.540  0.1645 -0.0822  0.0768
 2691W        W 6755   0.099   8.810   0.521  0.0235  0.0884  0.2615
 2692W        W 6756   4.754   2.199   1.253 -0.3270  0.0059 -0.2994
 2693W        W 6757  10.027   9.404   8.889  0.0109  0.1297 -0.4206
 2694W        W 6758   0.282   3.640  10.732  0.3520  0.1160 -0.3538
 2695W        W 6759   6.130   7.298   8.800  0.2168  0.2327 -0.0499
 2696W        W 6760   1.302  10.104  10.432 -0.1459  0.0544  0.2948
 2697W        W 6761   4.123   4.272   0.225  0.1012 -0.1286 -0.1150
 2698W        W 6762   6.812   0.268   9.496  0.0336 -0.1758 -0.0922
 2699W        W 6763   3.151   8.842   0.928 -0.0344  0.1705  0.2568
 2700W        W 6764   2.727   3.474   1.148  0.0842  0.3731 -0.1310
 2701W        W 6765   0.964   1.468   3.179  0.1094  0.2922 -0.0876
 2702W        W 6766   0.217   4.371   3.345 -0.0163  0.0317 -0.1165
 2703W        W 6767   4.938   3.958  11.036 -0.1886  0.0884 -0.3986
 2704W        W 6768   8.157   4.452  11.327  0.1972  0.1665 -0.2549
 2705W        W 6769   5.966   8.759   0.558 -0.2252  0.0899  0.0976
 2706W        W 6770   0.134   0.310  10.527 -0.2033  0.1535  0.1934
 2707W        W 6771   5.176   5.173   3.104  0.0473  0.2056 -0.2053
 2708W        W 6772   3.403   6.518   2.473  0.0497  0.2347 -0.3637
 2709W        W 6773   7.766   0.098   2.980  0.2913  0.0063 -0.2498
 2710W        W 6774   7.493   7.769   3.502 -0.2190  0.0678 -0.2440
 2711W        W 6775   2.025   9.052   9.369 -0.2849 -0.0044 -0.3203
 2712W        W 6776   6.940   0.184   2.014 -0.2155 -0.2328  0.3453
 2713W        W 6777   6.336   7.932   3.864 -0.0560 -0.2549  0.0498
 2714W        W 6778   5.994   4.142   2.047  0.3661 -0.0836 -0.3299
 2715W        W 6779   5.636   2.237  10.856  0.2536  0.3241  0.0754
 2716W        W 6780  10.433   2.059   9.397  0.1689  0.2340  0.0905
 2717W        W 6781   8.958   7.991   8.369  0.0076  0.0930 -0.3559
 2718W        W 6782   5.274   3.754   0.717  0.0403  0.1338  0.1366
 2719W        W 6783   5.245   3.706   1.257 -0.0262 -0.1433 -0.3341
 2720W        W 6784   8.093   0.032   2.238  0.3134 -0.1326 -0.2130
 2721W        W 6785   1.473   9.273   1.067  0.2007  0.2379 -0.1164
 2722W        W 6786   7.035   4.349   1.313 -0.1335 -0.3287 -0.2371
 2723W        W 6787   2.724   3.736   2.194  0.0049 -0.0830 -0.2487
 2724W        W 6788   1.656  10.430  10.637 -0.1387 -0.0017  0.1512
 2725W        W 6789   4.438   6.072   9.669  0.0796 -0.0836 -0.0572
 2726W        W 6790   7.013  10.019   2.813 -0.0854  0.2468 -0.0344
 2727W        W 6791   6.768  10.393   9.485 -0.0733  0.1680 -0.1775
 2728W        W 6792   3.326   0.356   8.084 -0.0256 -0.0881  0.0755
 2729W        W 6793   4.854   1.335   1.485 -0.0645  0.0567  0.1544
 2730W        W 6794   0.047   1.760   0.556 -0.2459  0.0088 -0.4076
 2731W        W 6795  10.100   6.855  11.366 -0.0281 -0.0278 -0.2070
 2732W        W 6796   0.406   9.550   7.962 -0.0796 -0.0388  0.1623
 2733W        W 6797   2.564   1.631   0.177 -0.0917 -0.1445 -0.5204
 2734W        W 6798   5.101  10.398   7.917 -0.0411 -0.0111  0.5852
 2735W        W 6799   8.393   0.832   1.436 -0.1121  0.2465  0.2992
 2736W        W 6800   9.172   8.189   2.122  0.3821  0.3190  0.0533
 2737W        W 6801   6.997   2.888   8.909 -0.3922  0.0723 -0.1996
 2738W        W 6802   7.264   9.779   9.801 -0.2503 -0.0323  0.1188
 2739W        W 6803   5.405   0.708   2.564  0.1799  0.0229  0.0136
 2740W        W 6804   7.517   9.578   0.358 -0.0014  0.0810  0.1538
 2741W        W 6805   5.321   5.387  10.329  0.1693  0.0620  0.0110
 2742W        W 6806   2.408   8.209   0.694  0.1420 -0.0054  0.2967
 2743W        W 6807   3.446   8.080   1.589 -0.1497 -0.0060 -0.1502
 2744W        W 6808   9.036   2.615   0.633  0.0075 -0.1062 -0.1132
 2745W        W 6809   5.741   2.384   1.613 -0.0785  0.0570  0.0187
 2746W        W 6810   1.886  10.367   0.658 -0.3099  0.1766 -0.0210
 2747W        W 6811   5.720   6.970   9.725 -0.1482 -0.1033  0.0359
 2748W        W 6812   7.539  10.025  10.229 -0.0472 -0.1191 -0.1287
 2749W        W 6813   2.539   8.339   1.715  0.3836  0.0275 -0.1765
 2750W        W 6814   2.313   1.020   1.814  0.1732  0.3205 -0.0653
 2751W        W 6815   9.018   9.735   1.378  0.2460 -0.2050 -0.1287
 2752W        W 6816   4.330   5.315   2.757  0.1947  0.0749  0.0012
 2753W        W 6817   1.307   9.539   2.848  0.0210  0.0079 -0.1608
 2754W        W 6818   1.129   7.831   0.841  0.0699  0.2272 -0.1343
 2755W        W 6819   5.907   7.762   3.601  0.3354  0.0910  0.0935
 2756W        W 6820   0.404   6.207   2.362  0.1758  0.4282  0.0535
 2757W        W 6821   6.489   3.446   0.150  0.0348 -0.1324  0.0444
 2758W        W 6822   5.766   1.198   1.233  0.2025 -0.1835  0.3370
 2759W        W 6823   4.830   2.756   4.125  0.4649  0.0507 -0.1048
 2760W        W 6824   8.601   9.239  11.140  0.2513 -0.1345 -0.2795
 2761W        W 6825   1.142   9.955   7.354 -0.0759 -0.2924  0.2659
 2762W        W 6826   0.748   9.302   3.466  0.1154  0.1038  0.2737
 2763W        W 6827   2.606   0.816   3.000 -0.3262  0.0487 -0.0992
 2764W        W 6828   6.459   8.932  10.498 -0.2516  0.3458  0.2102
 2765W        W 6829   6.265   5.342   1.820 -0.0293  0.3604  0.0017
 2766W        W 6830   1.709   8.277   9.333  0.0151  0.1332 -0.2476
 2767W        W 6831   7.632   3.628  10.587  0.2235 -0.0513  0.0295
 2768W        W 6832   5.686   3.116   1.735  0.1222  0.1035 -0.1324
 2769W        W 6833   9.454   2.457  10.271  0.0564 -0.2261 -0.1613
 2770W        W 6834   9.997   4.182   0.696 -0.1128 -0.1736  0.2199
 2771W        W 6835   6.586   5.004  10.461 -0.2061  0.1954  0.0257
 2772W        W 6836   9.542   1.639   7.815 -0.1077  0.1146  0.0034
 2773W        W 6837   2.355   4.556   2.439  0.1612  0.1662 -0.1523
 2774W        W 6838   1.511   1.181   8.124  0.0029  0.0178 -0.0629
 2775W        W 6839   1.320   4.252   9.632  0.2811 -0.3641 -0.5103
 2776W        W 6840   1.062   0.925   2.445 -0.2682  0.0001  0.1630
 2777W        W 6841   0.306   3.762   3.426 -0.0602  0.1569 -0.1077
 2778W        W 6842   3.897   1.210   3.756  0.2711 -0.0710  0.0585
 2779W        W 6843   6.187   7.359   2.427 -0.0233 -0.4401  0.3683
 2780W        W 6844   6.215   6.298  10.082 -0.2289 -0.2473 -0.0463
 2781W        W 6845   6.361   0.953   9.105  0.2294  0.0369  0.0313
 2782W        W 6846   2.670   9.061   2.247  0.3354  0.1163 -0.2500
 2783W        W 6847   1.258   8.110   9.115 -0.0434 -0.0040  0.0066
 2784W        W 6848   7.594   9.534   4.539 -0.0398 -0.0721 -0.1119
 2785W        W 6849   5.600   0.901   8.405 -0.3012  0.3382 -0.4149
 2786W        W 6850   7.059   7.097   8.483  0.0283 -0.2439 -0.1206
 2787W        W 6851   1.911   2.134   3.241 -0.1389 -0.1338  0.1185
 2788W        W 6852   0.411   4.288   9.875 -0.5680  0.2345 -0.2058
 2789W        W 6853   7.527   4.595   1.514  0.1292 -0.1982 -0.2737
 2790W        W 6854   9.896   7.160  10.652  0.2737 -0.0361 -0.0245
 2791W        W 6855   7.400   8.858   2.239  0.2401  0.1893 -0.0066
 2792W        W 6856   0.878   7.477   7.830 -0.3565  0.1705  0.4469
 2793W        W 6857   7.884   9.875   6.962  0.1025  0.0587 -0.0841
 2794W        W 6858   5.641   9.204   7.551  0.0250 -0.1939 -0.1762
 2795W        W 6859   6.650   5.642   9.065  0.2021 -0.1636  0.1153
 2796W        W 6860   1.348   2.715   2.695 -0.0212  0.2681  0.1325
 2797W        W 6861   3.197   7.021   8.715  0.0086 -0.0522  0.0586
 2798W        W 6862   5.078   0.739   2.117  0.5004  0.2218  0.0010
 2799W        W 6863   3.694   3.774   2.904  0.0965 -0.1004  0.2321
 2800W        W 6864   0.841   9.397   8.747 -0.0945  0.1009  0.3623
 2801W        W 6865   3.375   9.540  10.841 -0.1418  0.1164  0.1219
 2802W        W 6866   2.362   5.855  10.312  0.0757 -0.3851 -0.1353
 2803W        W 6867   7.184   4.006   9.778 -0.0634  0.0314  0.0738
 2804W        W 6868   9.146   1.920   8.246 -0.0910  0.0992 -0.0781
 2805W        W 6869   6.154   4.945   1.561 -0.0821 -0.0868  0.0088
 2806W        W 6870   8.125   9.554   1.778  0.1178  0.2138 -0.0750
 2807W        W 6871   3.793   3.951   0.467  0.0504  0.3413  0.2203
 2808W        W 6872   2.855   3.500  11.586 -0.0895 -0.3251 -0.2436
 2809W        W 6873   4.687   0.518   1.872  0.0131  0.1266  0.1006
 2810W        W 6874   4.304   8.476   1.012  0.0659 -0.5421 -0.1015
 2811W        W 6875   8.211   8.807   9.300  0.0013  0.2201  0.1709
 2812W        W 6876   9.748   2.633   2.976 -0.0222 -0.0118  0.1698
 2813W        W 6877   8.483   1.348   0.221 -0.0757 -0.2842  0.2419
 2814W        W 6878  10.221   7.844  11.310 -0.0381 -0.0510 -0.1523
 2815W        W 6879   1.498   9.585   0.567 -0.0322 -0.0145 -0.1490
 2816W        W 6880   8.966   3.123   9.724 -0.2646 -0.0541  0.0109
 2817W        W 6881   2.210   7.920  10.559 -0.2445 -0.1366  0.0491
 2818W        W 6882   6.613   9.255  10.124 -0.1410 -0.0806 -0.1534
 2819W        W 6883   3.854   4.314   1.850 -0.0750  0.0884  0.3116
 2820W        W 6884   2.458   3.723   3.521  0.1119  0.1068  0.0202
 2821W        W 6885   6.587   0.102   2.813 -0.1240  0.0309 -0.0198
 2822W        W 6886   2.343   9.262   0.111  0.1099 -0.1654  0.0298
 2823W        W 6887   8.652   9.539   0.532 -0.3013 -0.0309  0.1337
 2824W        W 6888   2.275   9.798   3.122  0.2883  0.1306 -0.1155
 2825W        W 6889   0.411   2.012   0.301  0.3298 -0.1246 -0.1296
 2826W        W 6890   7.954  10.301   1.417 -0.2537 -0.1232 -0.0180
 2827W        W 6891   2.655   2.439   9.261  0.0282 -0.0816  0.2107
 2828W        W 6892   0.691   3.398   1.528  0.0215  0.2487 -0.1754
 2829W        W 6893   1.710   6.526   8.438  0.0167  0.3227 -0.0086
 2830W        W 6894   6.704   8.564   7.387  0.0735  0.3081 -0.3876
 2831W        W 6895   7.859   8.038   1.153  0.3438  0.1048  0.1746
 2832W        W 6896   6.333  10.571   2.359  0.1117 -0.0419 -0.2448
 2833W        W 6897   1.016   9.941   7.899  0.0530  0.1279  0.0519
 2834W        W 6898   4.258   8.586  10.580 -0.3082  0.0615 -0.0137
 2835W        W 6899  10.369   4.233   0.316  0.1175  0.3714 -0.0777
 2836W        W 6900   8.850   5.965   3.060  0.0609  0.0012  0.0122
 2837W        W 6901   4.002   7.984   2.907  0.1148  0.1573  0.2595
 2838W        W 6902   7.990   6.820   9.429 -0.1538  0.2765  0.3007
 2839W        W 6903   9.324  10.042   1.085  0.3505 -0.1743  0.1065
 2840W        W 6904   5.362   1.510   1.068 -0.1855  0.0628  0.1025
 2841W        W 6905   7.366   9.979   9.299 -0.3377 -0.1607  0.0194
 2842W        W 6906   0.497   7.716   8.950  0.1398  0.0214 -0.2441
 2843W        W 6907   0.999   8.555   9.177  0.2759  0.4827  0.2056
 2844W        W 6908   9.691   0.394   1.206  0.1798 -0.0562  0.0008
 2845W        W 6909   3.601   7.348   9.099  0.0943 -0.1899  0.1385
 2846W        W 6910   7.236   0.666   8.944  0.3049  0.2233 -0.0325
 2847W        W 6911   4.145   0.953  10.167  0.1214  0.0455  0.0893
 2848W        W 6912   9.082   5.010   8.191 -0.1149 -0.1167 -0.1829
 2849W        W 6913   7.434   7.405   2.422 -0.1417  0.3865  0.2487
 2850W        W 6914   9.795   9.079   0.633  0.2328  0.1023 -0.1434
 2851W        W 6915   0.651   9.493  10.800 -0.0460 -0.3513 -0.0218
 2852W        W 6916   4.446   1.256   2.338  0.2505  0.0692 -0.3194
 2853W        W 6917   7.705   1.434   1.344  0.2215 -0.0562 -0.2872
 2854W        W 6918   4.734   9.590   0.908 -0.0639 -0.2064  0.1839
 2855W        W 6919   8.825   8.761   1.633  0.0359  0.0129  0.1460
 2856W        W 6920   6.546   6.271   1.664  0.0834 -0.1511 -0.0881
 2857W        W 6921   9.126   5.151   3.655 -0.2508  0.0567  0.0394
 2858W        W 6922   3.351   3.418   2.891 -0.2905  0.1986  0.2589
 2859W        W 6923   7.960  10.412   7.869  0.1258 -0.1498 -0.2095
 2860W        W 6924   2.074   1.598   0.423 -0.2297  0.3480  0.1004
 2861W        W 6925   7.603   2.262  10.048  0.2865  0.0228  0.1368
 2862W        W 6926   8.737   8.062   0.955 -0.3085 -0.2129  0.0144
 2863W        W 6927   4.692   2.414   7.948  0.4164 -0.1045  0.0429
 2864W        W 6928   0.778  10.466   2.200 -0.0220 -0.1890 -0.4187
 2865W        W 6929   1.588   1.084   2.605  0.2852 -0.0193 -0.0709
 2866W        W 6930   3.251  10.454   2.895  0.0117 -0.0159  0.0290
 2867W        W 6931   9.575   9.596   0.616  0.3914 -0.0567 -0.0914
 2868W        W 6932   6.954  10.499   2.481  0.2187  0.0424 -0.0665
 2869W        W 6933   2.670   6.367   1.055  0.2161 -0.0867  0.0767
 2870W        W 6934   4.966   4.967   0.088 -0.1771 -0.1561 -0.1116
 2871W        W 6935   7.910   4.934   3.723  0.1336 -0.1265  0.2324
 2872W        W 6936   0.764   0.060  10.433 -0.3985  0.2475 -0.2007
 2873W        W 6937   0.829   2.375  10.535 -0.0326  0.1538  0.2870
 2874W        W 6938   8.905   4.365  10.491  0.2999  0.1244 -0.1402
 2875W        W 6939   2.476   8.610   3.931  0.1464 -0.2774 -0.0952
 2876W        W 6940   8.828   9.633  10.405  0.0609  0.2474  0.1312
 2877W        W 6941   9.254   7.729   4.407  0.2047  0.0272  0.2029
 2878W        W 6942  10.065   5.320   1.879 -0.2192  0.0712  0.1059
 2879W        W 6943   6.695   9.397   9.190  0.2136 -0.1894  0.0806
 2880W        W 6944   8.928   4.824   8.609  0.1869  0.1763  0.1736
 2881W        W 6945  10.429   6.021   8.403  0.1654 -0.3471  0.1504
 2882W        W 6946   4.450   7.354   3.369 -0.0098 -0.1260 -0.1449
 2883W        W 6947   3.947   2.626   8.516 -0.5032  0.1576  0.3448
 2884W        W 6948   8.416   6.495   9.359  0.2454 -0.2375  0.0085
 2885W        W 6949   5.328   4.771   0.382 -0.0331  0.1865 -0.1304
 2886W        W 6950   5.984   3.022   9.747  0.1401  0.1057 -0.1647
 2887W        W 6951   6.038   3.468  11.573 -0.2877 -0.0740  0.0370
 2888W        W 6952   1.506   9.436   3.296 -0.3010  0.3834  0.0282
 2889W        W 6953   5.288   2.839   4.073 -0.0167  0.0494  0.0800
 2890W        W 6954   0.180   6.401   1.100 -0.0772  0.0063 -0.0829
 2891W        W 6955   0.024   5.654   0.128 -0.0191  0.1467 -0.0225
 2892W        W 6956   5.054  10.533   3.248  0.0288  0.0416  0.1905
 2893W        W 6957   9.042   0.478   7.946 -0.2560 -0.0848 -0.1357
 2894W        W 6958   6.783   1.216   0.453 -0.3536 -0.1774 -0.4444
 2895W        W 6959   0.252   0.502   1.007 -0.0674  0.0657 -0.1639
 2896W        W 6960   0.866   3.473   0.081  0.2019  0.1250 -0.0273
 2897W        W 6961   9.570   5.414  11.180  0.0296 -0.2598  0.0235
 2898W        W 6962   0.464   2.175   2.736 -0.0498  0.1514 -0.2448
 2899W        W 6963   3.530   0.366   2.901  0.1976  0.3075  0.0427
 2900W        W 6964   4.169   6.923   1.090 -0.0871 -0.0122  0.3926
 2901W        W 6965   4.977   5.641   1.885  0.1608  0.1491 -0.2474
 2902W        W 6966   2.651   5.805  11.185  0.1082  0.3103 -0.1510
 2903W        W 6967   0.559   5.675  11.348  0.3921 -0.1933  0.4480
 2904W        W 6968   9.676   8.968   2.715 -0.1480 -0.1117 -0.2113
 2905W        W 6969   3.358   4.126   3.669  0.2367  0.1359  0.0918
 2906W        W 6970   6.606   2.783   8.564  0.2480 -0.2538  0.5202
 2907W        W 6971  10.049   5.673   9.698 -0.2159  0.0282 -0.2011
 2908W        W 6972   5.658  10.211  10.171  0.0255  0.2239  0.0980
 2909W        W 6973   9.676  10.615   9.143  0.0600 -0.0461 -0.2814
 2910W        W 6974   9.846   4.086   9.327  0.2987  0.1236 -0.1219
 2911W        W 6975   9.324   4.882   9.606  0.2473  0.2080 -0.2392
 2912W        W 6976   3.701  10.324   8.723 -0.1999  0.0979  0.3254
 2913W        W 6977   8.210   0.475   0.668 -0.2416 -0.0756 -0.2305
 2914W        W 6978   1.676   8.657  10.634  0.0234  0.2270 -0.2597
 2915W        W 6979   3.134   4.436  11.133  0.1207  0.3048  0.0765
 2916W        W 6980  10.100   9.173   3.281  0.3437  0.0758 -0.1043
 2917W        W 6981   4.927  10.226   8.457  0.1671 -0.0044  0.3479
 2918W        W 6982   9.207   4.113  10.085  0.0936  0.0711 -0.1539
 2919W        W 6983   8.548   1.774   1.752 -0.1253 -0.0108  0.1350
 2920W        W 6984   6.877   5.563   8.482 -0.2657  0.0693  0.1021
 2921W        W 6985   5.692   2.069   0.161  0.1846  0.0200  0.1482
 2922W        W 6986  10.152   9.763   9.237 -0.1595 -0.1542  0.3922
 2923W        W 6987   7.447   8.342   0.412 -0.1377 -0.1200 -0.2270
 2924W        W 6988   8.293   8.187   0.555  0.2453 -0.1001 -0.1234
 2925W        W 6989   5.242   9.576   9.531  0.0322  0.1365 -0.1130
 2926W        W 6990   9.216   6.963   2.677  0.2785 -0.1179 -0.0428
 2927W        W 6991  10.365   5.849   3.814  0.2061 -0.0398 -0.1969
 2928W        W 6992  10.369   1.403   3.621 -0.1761 -0.0281  0.1052
 2929W        W 6993   8.896   3.726   9.920 -0.0687 -0.1498 -0.2245
 2930W        W 6994   0.843   9.941   9.348  0.0317 -0.1150  0.0705
 2931W        W 6995   8.118   4.875   1.131 -0.1160  0.2547 -0.3541
 2932W        W 6996   2.692   6.993   1.857 -0.0828  0.1156  0.2091
 2933W        W 6997   4.863   4.339   3.162  0.3498  0.0588 -0.0287
 2934W        W 6998   4.391   3.394   1.074 -0.0957 -0.5056 -0.0974
 2935W        W 6999   9.704   1.661   3.257 -0.0192  0.0199  0.2726
 2936W        W 7000   4.112   1.871   1.874 -0.0056 -0.0121 -0.2490
 2937W        W 7001   5.376   7.159   1.630  0.2475  0.1171  0.0633
 2938W        W 7002   7.529   9.564   2.872  0.0930  0.0390  0.1459
 2939W        W 7003   7.599   7.136   1.636  0.3283  0.0742  0.2855
 2940W        W 7004   2.002   3.810  11.078 -0.1468  0.0400  0.1886
 2941W        W 7005   2.399   7.634  11.548 -0.0183  0.3740  0.2475
 2942W        W 7006   7.471   8.664   1.780 -0.1393  0.3195 -0.0335
 2943W        W 7007   7.779   6.130   1.601 -0.0452 -0.0654 -0.2063
 2944W        W 7008   6.142   3.350   1.560 -0.3616  0.0573 -0.3828
 2945W        W 7009   9.222   3.830   3.881  0.1371  0.0842  0.2560
 2946W        W 7010   9.433   9.718  11.479 -0.2826 -0.2771 -0.0701
 2947W        W 7011   4.739   9.073   2.780 -0.0502  0.2834  0.2371
 2948W        W 7012   8.035  10.231   8.882  0.0924  0.0793  0.1417
 2949W        W 7013   8.637  10.317  10.369 -0.0139 -0.2021 -0.2318
 2950W        W 7014   9.995   3.351   1.992  0.2487  0.4341 -0.0889
 2951W        W 7015   1.433   3.976   1.586  0.1083  0.2356 -0.0749
 2952W        W 7016   8.390   2.964   4.228 -0.2193  0.0122 -0.0872
 2953W        W 7017   8.511   0.708   0.167  0.0544 -0.1268  0.3455
 2954W        W 7018   6.215   5.653  10.425  0.2859 -0.0051  0.3868
 2955W        W 7019  10.321   6.208   3.131  0.0921 -0.1512  0.1881
 2956W        W 7020   3.299   6.619  11.600 -0.3680  0.1375 -0.3571
 2957W        W 7021   6.313   7.748   8.902 -0.1375  0.0041 -0.0315
 2958W        W 7022   5.887   9.828  10.482 -0.3268 -0.0119 -0.0629
 2959W        W 7023   9.661   9.382   9.855  0.2530  0.0646  0.1484
 2960W        W 7024   6.537   6.771   3.224  0.1481 -0.2024 -0.0354
 2961W        W 7025   6.846   4.894   2.770 -0.1200  0.1671  0.2126
 2962W        W 7026   3.133   0.434   8.551  0.1070  0.2659 -0.1344
 2963W        W 7027   6.374   1.927  10.767  0.0352 -0.3203  0.1676
 2964W        W 7028   6.078   6.937   3.387 -0.1144  0.3243 -0.2471
 2965W        W 7029   5.979   9.581   0.196 -0.1180  0.2629  0.2287
 2966W        W 7030   7.544   5.961   4.293  0.0101  0.0590  0.2211
 2967W        W 7031   0.099   0.514   2.013 -0.4693  0.1574 -0.1041
 2968W        W 7032  10.147   9.168   9.798 -0.0157  0.2438  0.0403
 2969W        W 7033   5.526   1.520  11.289 -0.1153 -0.3518 -0.0934
 2970W        W 7034   8.115   6.360   9.724  0.0307  0.2806  0.1812
 2971W        W 7035   6.305   3.588   2.143  0.0371 -0.1888  0.2505
 2972W        W 7036   1.067   1.412   8.078 -0.1125 -0.1070  0.0785
 2973W        W 7037   7.598   5.473   1.776 -0.0304 -0.0301 -0.0341
 2974W        W 7038  10.503   7.939   2.881 -0.0729  0.1598  0.1539
 2975W        W 7039   6.032   2.154   1.069  0.2181 -0.1028  0.0121
 2976W        W 7040   7.411   5.080   9.001 -0.1513  0.2936 -0.1100
 2977W        W 7041   7.313  10.592  11.047 -0.3729  0.0700 -0.0121
 2978W        W 7042   4.459   6.627   2.948  0.0834  0.2243  0.0715
 2979W        W 7043   6.717   8.584   1.153 -0.3075  0.2891 -0.0346
 2980W        W 7044   4.648  10.236   0.136 -0.0180 -0.3511  0.1845
 2981W        W 7045   7.254   1.860  10.386 -0.1730 -0.1597 -0.2951
 2982W        W 7046   3.908   1.924  10.782 -0.1328  0.1925 -0.1288
 2983W        W 7047   0.772   4.894   1.572 -0.0441  0.0182  0.2288
 2984W        W 7048   8.727   1.811   1.066  0.0643  0.1163 -0.0614
 2985W        W 7049   8.068   6.905  11.524  0.0067 -0.0228 -0.1878
 2986W        W 7050   7.993   3.280   8.524 -0.2320 -0.1182 -0.1306
 2987W        W 7051   1.477   9.710  10.096 -0.2052 -0.2235  0.3217
 2988W        W 7052  10.184   7.398  11.492 -0.1578  0.0069  0.1895
 2989W        W 7053   4.396   6.384  10.710 -0.1161 -0.0159 -0.4177
 2990W        W 7054   9.883   5.877   1.926  0.2535  0.1898  0.0932
 2991W        W 7055   3.408   3.706   1.428 -0.2860 -0.1176  0.0634
 2992W        W 7056   0.992   7.007  10.349 -0.3199  0.3309  0.1459
 2993W        W 7057   2.617   8.124  10.655 -0.2091 -0.1857 -0.0598
 2994W        W 7058  10.276   0.206   7.469  0.0445 -0.1601 -0.3982
 2995W        W 7059   0.643  10.408   1.721 -0.1898  0.1619  0.2126
 2996W        W 7060   0.906   1.709   0.612 -0.0792 -0.2032  0.0647
 2997W        W 7061   9.885   2.838  10.454 -0.0319  0.2523 -0.1566
 2998W        W 7062   4.887   4.540   0.258  0.2930  0.3287  0.2189
 2999W        W 7063   0.916   4.999   3.470 -0.1271  0.3815 -0.2278
 3000W        W 7064   9.939   6.868   2.945 -0.1809  0.1415 -0.0343
 3001W        W 7065   9.930   7.686   8.569 -0.0198  0.0849  0.3583
 3002W        W 7066   3.874   2.481   2.232  0.2098  0.2777 -0.0412
 3003W        W 7067   6.340   3.724   9.304 -0.0338 -0.0885  0.2076
 3004W        W 7068   6.905  10.173  10.063  0.3384  0.0192  0.1020
 3005W        W 7069   9.959   7.816   2.533  0.1240  0.1008 -0.0265
 3006W        W 7070   1.295   0.860   1.982  0.0859  0.0628  0.0690
 3007W        W 7071   7.145  10.191  10.588 -0.0204 -0.1160  0.3246
 3008W        W 7072   1.512  10.120   1.548 -0.2855 -0.0533  0.3647
 3009W        W 7073   3.519   0.593   1.311 -0.3541 -0.4819 -0.1708
 3010W        W 7074   4.057   9.391   0.179 -0.0312  0.1922 -0.1825
 3011W        W 7075   3.269   8.367   0.720 -0.3820  0.2501 -0.0019
 3012W        W 7076   0.710   6.502  11.590 -0.0364  0.2212 -0.0313
 3013W        W 7077   8.793   7.826   4.134  0.1504  0.0693 -0.2417
 3014W        W 7078   9.235   3.294   2.565  0.1653 -0.0455 -0.0776
 3015W        W 7079   1.940   5.458   1.433  0.0477  0.1361  0.1953
 3016W        W 7080   9.748   8.797   8.157  0.0095 -0.0763  0.2219
 3017W        W 7081   9.115   5.501  11.167  0.0459  0.4044  0.2702
 3018W        W 7082   2.767   9.906   7.931 -0.0933 -0.0412 -0.0672
 3019W        W 7083   5.805   0.220   9.609  0.0334  0.0608  0.1290
 3020W        W 7084   8.879   0.088  11.203 -0.0815 -0.1340 -0.0227
 3021W        W 7085   5.378   5.256   9.873  0.1985 -0.1398  0.1029
 3022W        W 7086   4.546   8.382   9.799 -0.2967  0.2051 -0.1946
 3023W        W 7087   3.321   0.208   2.429  0.0083 -0.1156 -0.3848
 3024W        W 7088   2.748   8.760   1.855 -0.0184  0.0870  0.0720
 3025W        W 7089   1.725   4.906   1.232 -0.0129  0.2740 -0.0982
 3026W        W 7090   8.904   7.350   3.173 -0.3292 -0.0170  0.0075
 3027W        W 7091   4.403   7.949   7.543  0.3393  0.0366  0.0929
 3028W        W 7092   2.085   3.502   0.203 -0.1422  0.1495 -0.3552
 3029W        W 7093   5.671   8.016   2.378 -0.1326 -0.0879 -0.1051
 3030W        W 7094   5.596   6.161   3.315  0.5193  0.4686  0.0002
 3031W        W 7095  10.037   3.731   9.066  0.0875 -0.0293  0.0388
 3032W        W 7096  10.527   0.499   8.953  0.3142 -0.1010 -0.0771
 3033W        W 7097   5.695   5.672   3.191  0.1085  0.1767  0.0280
 3034W        W 7098   0.446   6.129  10.336  0.0547 -0.1125  0.1196
 3035W        W 7099   6.244   9.491   8.347  0.0053  0.2042 -0.0499
 3036W        W 7100   7.169   8.261   8.260 -0.1546  0.0952  0.1886
 3037W        W 7101   3.655   2.956   9.784  0.2263  0.1322  0.0205
 3038W        W 7102   0.089   4.872   8.346 -0.2729 -0.0881  0.1774
 3039W        W 7103   2.115   3.303   9.656  0.0286  0.0951  0.1433
 3040W        W 7104   3.057   6.197  11.385  0.0147 -0.3619 -0.0373
 3041W        W 7105   3.685  10.206   2.193 -0.0537 -0.4624  0.1374
 3042W        W 7106   5.036   4.326   0.675 -0.4084 -0.0164  0.2501
 3043W        W 7107   5.229   8.743   2.343 -0.1810 -0.1778  0.0209
 3044W        W 7108   9.467   9.886   9.944 -0.1710 -0.2794 -0.1015
 3045W        W 7109   7.024   1.819   9.004  0.1053 -0.3133 -0.0276
 3046W        W 7110   1.111  10.119   1.197 -0.1069  0.0154  0.0912
 3047W        W 7111   2.473   5.425   2.707 -0.2241  0.0533  0.2701
 3048W        W 7112   6.112   1.531   8.685 -0.1158 -0.0830  0.3752
 3049W        W 7113   4.845   1.876  10.859 -0.0348 -0.1433 -0.1017
 3050W        W 7114   8.116   1.244   1.565 -0.0036  0.4593 -0.0418
 3051W        W 7115   2.828   9.941   0.608 -0.1995 -0.1183  0.0143
 3052W        W 7116   8.983   9.415   9.068 -0.2384  0.0708  0.1235
 3053W        W 7117   2.419   2.823   8.914  0.3245 -0.4523  0.1578
 3054W        W 7118   0.730  10.386  11.494  0.0181 -0.4333  0.0272
 3055W        W 7119   8.026   1.330   0.611 -0.0400  0.1844 -0.1112
 3056W        W 7120   6.140   2.614   8.768  0.0530  0.1223 -0.1303
 3057W        W 7121   5.150   2.172   2.360 -0.2178 -0.3129 -0.1763
 3058W        W 7122   2.593   9.764   8.792  0.0345 -0.0072  0.4864
 3059W        W 7123   5.053   1.315  11.110  0.1327  0.0015 -0.0131
 3060W        W 7124   2.988   9.701   7.054  0.0223  0.1509  0.0619
 3061W        W 7125   4.921   2.448   0.673  0.3173  0.2850 -0.1966
 3062W        W 7126   3.974   1.864   8.754 -0.0503  0.1248  0.2420
 3063W        W 7127   8.326   9.973   3.214 -0.3151 -0.0578  0.2677
 3064W        W 7128   3.597   6.382   9.264 -0.2645 -0.1701  0.0577
 3065W        W 7129   6.589   2.830   2.291  0.0488 -0.0536 -0.3584
 3066W        W 7130   6.416   1.714   0.781 -0.1255  0.1054 -0.0899
 3067W        W 7131   8.535   4.518   2.257 -0.0259 -0.1176  0.0664
 3068W        W 7132   5.719   4.089   3.072  0.0697  0.2040 -0.4060
 3069W        W 7133   6.771   7.760   3.104  0.1200 -0.1857 -0.3317
 3070W        W 7134   0.263   7.191   8.594  0.0768 -0.2000  0.1231
 3071W        W 7135   1.152   5.035   2.955 -0.0566  0.0092 -0.0170
 3072W        W 7136   1.094   7.612   3.736  0.0861 -0.1687 -0.0143
 3073W        W 7137   0.298   9.997   0.540  0.0963  0.2005 -0.0576
 3074W        W 7138   8.176   7.370   1.737  0.0535  0.1769 -0.0491
 3075W        W 7139   8.635  10.417   9.774 -0.3688 -0.2629  0.1497
 3076W        W 7140   8.601  10.497   9.003  0.2244 -0.1189  0.0726
 3077W        W 7141   7.831   5.926   2.107 -0.1983  0.0543 -0.1474
 3078W        W 7142   8.989   0.963   3.172 -0.0812 -0.0842  0.0510
 3079W        W 7143   5.313   8.458   3.790  0.1449 -0.1432 -0.1736
 3080W        W 7144   3.631   5.931   3.045 -0.1797  0.1643 -0.0380
 3081W        W 7145   3.873   8.490   9.219  0.0087  0.0802 -0.1308
 3082W        W 7146   7.523   3.250  10.915 -0.1190 -0.2633 -0.2157
 3083W        W 7147   2.857   6.855   9.295 -0.0848 -0.1642  0.1994
 3084W        W 7148   9.699   3.788   2.964  0.1508  0.1538  0.0042
 3085W        W 7149   8.133   3.547  10.418 -0.3889  0.0418 -0.2905
 3086W        W 7150   4.423   1.085   8.329 -0.2824  0.0938  0.0049
 3087W        W 7151   5.860   1.507   8.223 -0.3543  0.3778  0.3158
 3088W        W 7152   7.577   6.931   8.447  0.0663  0.1588 -0.0722
 3089W        W 7153   7.237   1.163   1.297 -0.4134  0.0857  0.1170
 3090W        W 7154   1.392   6.465   3.564  0.0523 -0.2639 -0.3174
 3091W        W 7155   0.266   4.156  10.456  0.2057  0.1044  0.1337
 3092W        W 7156   4.898   9.944  11.311  0.0984 -0.1509 -0.0174
 3093W        W 7157   8.341   9.444   4.449  0.1924 -0.0977 -0.3029
 3094W        W 7158  10.067   9.865   8.034  0.1245  0.0632  0.0366
 3095W        W 7159   9.430   6.777   3.545  0.3824 -0.2607 -0.2279
 3096W        W 7160   6.618   2.579  11.594 -0.0580 -0.0884 -0.2421
 3097W        W 7161   6.624   8.937   1.610 -0.1624  0.0464 -0.0911
 3098W        W 7162   4.761   6.413   9.433  0.1706 -0.1973 -0.0939
 3099W        W 7163   4.992   9.858   8.086  0.1167 -0.0531  0.1091
 3100W        W 7164   1.888   3.259   2.079 -0.0512  0.1597  0.1592
 3101W        W 7165   8.197   1.559  11.438  0.1612 -0.0637 -0.5688
 3102W        W 7166   8.188   8.935   2.894  0.2528  0.0093  0.4525
 3103W        W 7167   6.901   6.466   1.223  0.4026 -0.0400  0.2548
 3104W        W 7168   4.470   1.480   1.896 -0.0109  0.1641  0.0082
 3105W        W 7169   4.865   8.470   2.595  0.0826 -0.1107 -0.3288
 3106W        W 7170   8.301   5.052   7.770 -0.1223 -0.0790  0.0323
 3107W        W 7171  10.134   2.175   2.308 -0.0275  0.0333  0.1701
 3108W        W 7172   2.383   4.179  10.443 -0.0804 -0.1422 -0.0717
 3109W        W 7173  10.314   6.997   0.607  0.0897  0.0505 -0.1061
 3110W        W 7174  10.292   2.789   1.312 -0.3330  0.1428  0.1291
 3111W        W 7175   8.068   1.435  10.451  0.0242 -0.1500 -0.0456
 3112W        W 7176   3.794   0.232   8.033  0.1261  0.2813 -0.1438
 3113W        W 7177   2.425   2.538  10.529  0.0804 -0.3390 -0.2215
 3114W        W 7178   6.889   4.383   9.812 -0.1120  0.1638 -0.1509
 3115W        W 7179   8.010   3.590   9.858  0.0107  0.1358 -0.1883
 3116W        W 7180   0.365   3.139   0.806 -0.1806  0.0763 -0.1881
 3117W        W 7181   0.183   0.807   8.314  0.1534  0.0702  0.1568
 3118W        W 7182   5.221   5.018  10.782  0.0900 -0.2641 -0.0890
 3119W        W 7183   5.553   4.701   8.532  0.1254  0.4458 -0.0994
 3120W        W 7184   1.976   0.039   8.361  0.1277 -0.1231 -0.0975
 3121W        W 7185   0.996   7.357   2.752  0.0151  0.0826 -0.0170
 3122W        W 7186   3.032   7.891  10.946  0.2407  0.0210  0.2820
 3123W        W 7187   2.668   5.743  10.697 -0.1716  0.0926 -0.1123
 3124W        W 7188   3.032   1.624   7.869 -0.2077 -0.1567 -0.1380
 3125W        W 7189   7.908   3.696   2.619  0.0028  0.0341 -0.0504
 3126W        W 7190   6.289   6.160   2.131 -0.4460  0.1684  0.1231
 3127W        W 7191  10.475   7.575   2.447 -0.0188  0.1780  0.0854
 3128W        W 7192   6.218   2.054   9.475 -0.2371 -0.2688 -0.2546
 3129W        W 7193   0.647   5.146   9.856  0.0971 -0.1680 -0.0188
 3130W        W 7194  10.495   2.003   2.645  0.2116 -0.3735  0.0522
 3131W        W 7195   5.511   8.051  10.829 -0.2756 -0.0089  0.2453
 3132W        W 7196   8.033   2.791   2.750  0.0928  0.0556 -0.0818
 3133W        W 7197   3.191   4.990   2.334 -0.0007  0.1297 -0.2365
 3134W        W 7198   3.298   2.913   2.765 -0.2033 -0.0640  0.0677
 3135W        W 7199   2.069   9.507  10.033  0.2058 -0.3327 -0.1144
 3136W        W 7200   5.334   3.061  10.404 -0.0653  0.0781  0.2611
 3137W        W 7201   3.144   7.210   9.642 -0.1626 -0.2561  0.0430
 3138W        W 7202  10.107   6.702   8.120  0.1091 -0.2549  0.3502
 3139W        W 7203   0.412  10.067  10.291  0.1637 -0.3510 -0.1852
 3140W        W 7204   5.094   8.772   3.036  0.1362 -0.0488 -0.2621
 3141W        W 7205   6.829   1.218   2.916 -0.0899  0.1404  0.3715
 3142W        W 7206   3.581   0.462  10.962  0.0593  0.1659 -0.2302
 3143W        W 7207   9.823   9.927   8.880 -0.0076 -0.1280  0.1058
 3144W        W 7208   3.254  10.298  10.671  0.0086  0.1332 -0.3385
 3145W        W 7209   7.616   5.442   2.332  0.0173 -0.3588 -0.3087
 3146W        W 7210   7.869   4.176   1.528  0.2244  0.3811 -0.0046
 3147W        W 7211   4.130  10.480   3.424  0.0360 -0.1325 -0.2111
 3148W        W 7212   9.107   6.301   3.354 -0.2047  0.1415 -0.1582
 3149W        W 7213   5.633   9.907   8.711 -0.0734  0.1221 -0.1297
 3150W        W 7214   6.870   2.231   2.972 -0.0800  0.0727  0.4278
 3151W        W 7215   0.206   7.622   1.636  0.2639  0.3209  0.4261
 3152W        W 7216   1.099   6.978   9.652  0.3579  0.0565 -0.3839
 3153W        W 7217   3.091   3.334   1.488  0.1671 -0.0293  0.2227
 3154W        W 7218   3.144   8.281  11.276 -0.3508 -0.1423 -0.2445
 3155W        W 7219   1.772   9.904  10.456 -0.1570 -0.2324  0.1871
 3156W        W 7220   7.252   6.766   8.770  0.2212 -0.3697 -0.1504
 3157W        W 7221   9.293   6.788  10.659 -0.0267 -0.0020  0.0256
 3158W        W 7222   4.558   2.687  10.148  0.0499  0.3022  0.2343
 3159W        W 7223  10.203   2.075  10.306 -0.0832 -0.1311 -0.0110
 3160W        W 7224   4.103   7.612  10.986 -0.2100  0.2542  0.1526
 3161W        W 7225   8.602   7.193   1.505 -0.1989  0.1620  0.1604
 3162W        W 7226   9.354   2.561   2.221 -0.2537  0.1644 -0.0521
 3163W        W 7227   1.828   1.234   3.658  0.3030 -0.2158  0.1512
 3164W        W 7228   6.149   2.408   8.204 -0.1160  0.3366  0.0234
 3165W        W 7229   5.278   0.882   1.665 -0.2503  0.1853 -0.2752
 3166W        W 7230   5.592   4.114   9.345  0.0646 -0.0317  0.0398
 3167W        W 7231   3.616   9.047   2.137 -0.1208 -0.0366 -0.0474
 3168W        W 7232  10.460   5.145  11.025 -0.0376 -0.1264  0.2870
 3169W        W 7233   7.264   0.613   2.186  0.1329  0.2529  0.0733
 3170W        W 7234   5.508   4.419   1.339 -0.2361  0.2387  0.0095
 3171W        W 7235   8.531   1.710  10.675  0.1631 -0.1340 -0.0066
 3172W        W 7236   4.694   8.175  11.623 -0.0861  0.1741  0.0284
 3173W        W 7237  10.056   7.095   0.202 -0.0200 -0.0973 -0.1530
 3174W        W 7238   4.334   0.652   1.499  0.1090 -0.0181  0.1052
 3175W        W 7239   6.068   1.854   2.448  0.0635  0.1152  0.0134
 3176W        W 7240   7.270   1.378   2.600 -0.3542  0.1792  0.1437
 3177W        W 7241   0.543   0.760  11.120 -0.1888 -0.1753 -0.0724
 3178W        W 7242   4.171   9.819  10.974  0.0822 -0.1779 -0.1631
 3179W        W 7243   8.013   2.071   9.297  0.0202  0.2617  0.1674
 3180W        W 7244   9.195   5.465   9.647  0.1138 -0.0740 -0.0755
 3181W        W 7245   6.872   0.666  10.928 -0.1421  0.2731  0.3406
 3182W        W 7246   7.489   9.162   1.817 -0.1304 -0.2020 -0.3269
 3183W        W 7247   8.398   2.558   8.172  0.0510  0.0475 -0.0049
 3184W        W 7248   2.037   3.745  10.379  0.1393 -0.1055  0.2465
 3185W        W 7249   0.770   4.158   9.322 -0.0030  0.1010 -0.0471
 3186W        W 7250   2.074   6.341   1.768 -0.3882  0.1550  0.0383
 3187W        W 7251   8.360   1.428   8.316 -0.0370  0.0080  0.3379
 3188W        W 7252   0.852   0.463   7.799 -0.1045 -0.2319  0.3964
 3189W        W 7253   8.277   7.326   0.040  0.0489 -0.0941 -0.0324
 3190W        W 7254   0.522   7.220   2.962  0.0508 -0.3033  0.0248
 3191W        W 7255   9.133   7.679   2.175  0.0472  0.1513  0.1044
 3192W        W 7256   0.699   2.117  11.220  0.1285  0.0408 -0.2893
 3193W        W 7257   1.948   9.528   9.567  0.1107  0.1436  0.1107
 3194W        W 7258   5.482   0.547   3.783 -0.0958 -0.1948 -0.3279
 3195W        W 7259   3.333   1.613   3.029 -0.1361 -0.0564  0.0369
 3196W        W 7260   0.616   9.747   2.881  0.0801  0.3634  0.1000
 3197W        W 7261   8.664   8.908   2.602  0.1911  0.1954 -0.0142
 3198W        W 7262   4.493   8.767  10.203 -0.1999 -0.3069 -0.0036
 3199W        W 7263  10.085   7.044  10.116 -0.0007  0.3078  0.2550
 3200W        W 7264   2.330   7.410   8.769 -0.0563 -0.1995  0.3982
 3201W        W 7265   3.722   7.743  10.604  0.2192 -0.3575  0.0535
 3202W        W 7266   9.597   2.871   9.072 -0.1164  0.1055 -0.2119
 3203W        W 7267   1.171   9.944   9.732 -0.1475  0.0173 -0.1798
 3204W        W 7268   0.096   6.800  11.052  0.1056  0.3246 -0.2323
 3205W        W 7269   1.741   0.943   9.079 -0.1134  0.0766 -0.3394
 3206W        W 7270   0.564   3.158   9.373  0.0688  0.0824  0.3406
 3207W        W 7271   0.848   1.193  11.215 -0.1020 -0.0114 -0.0852
 3208W        W 7272   2.348   9.786   2.087  0.0614 -0.0712  0.2440
 3209W        W 7273   0.904   3.800  11.241  0.2386 -0.2308  0.0364
 3210W        W 7274   2.336   5.776   3.326  0.1382  0.0427 -0.0698
 3211W        W 7275   1.738   1.671  11.027 -0.0874 -0.1484  0.2396
 3212W        W 7276   5.960   8.130  10.607 -0.0622 -0.1692 -0.1291
 3213W        W 7277   2.018   2.065  11.097  0.1746  0.1751  0.1123
 3214W        W 7278   7.464   0.962   0.524 -0.1751  0.2348 -0.0951
 3215W        W 7279   7.703   7.659   8.878 -0.0650 -0.2074 -0.4010
 3216W        W 7280   0.176   5.627   8.223  0.1512  0.1690 -0.4019
 3217W        W 7281   0.250  10.340   8.218 -0.0286 -0.2930 -0.3026
 3218W        W 7282   7.678   2.461   3.511 -0.3323 -0.5003  0.0925
 3219W        W 7283   4.653   5.758   3.425  0.0605 -0.0079  0.0594
 3220W        W 7284   5.766   4.413   4.699  0.4800  0.1844 -0.1059
 3221W        W 7285   7.107   8.009   8.731  0.5025 -0.1309 -0.0696
 3222W        W 7286   3.080  10.554   8.174 -0.0185  0.1598  0.4882
 3223W        W 7287   5.786  10.119   3.196 -0.1443 -0.0012 -0.2587
 3224W        W 7288   4.176  10.251  10.621 -0.0451 -0.0552  0.1506
 3225W        W 7289   8.208   7.213   9.556  0.0828 -0.2123 -0.0372
 3226W        W 7290   2.435   2.482   0.087 -0.0695  0.0743  0.2560
 3227W        W 7291   3.433   7.660   9.625  0.2987 -0.2102 -0.1753
 3228W        W 7292   0.205   0.817   3.492 -0.2090  0.2195 -0.1719
 3229W        W 7293   4.537   9.431  10.934  0.0795 -0.2058  0.2580
 3230W        W 7294   7.641   1.287   9.581 -0.1200  0.2027  0.0109
 3231W        W 7295   1.612   3.078  10.299 -0.1678 -0.1165  0.4408
 3232W        W 7296   2.686   1.141  11.490 -0.0565  0.0008  0.1609
 3233W        W 7297   4.550   0.091   8.386  0.4625  0.0948 -0.1708
 3234W        W 7298   1.197   2.309   8.559 -0.0353 -0.2854 -0.3138
 3235W        W 7299   8.837   8.559  10.133  0.0555 -0.1042 -0.0548
 3236W        W 7300   9.985   0.994   2.921  0.2509 -0.0520  0.2162
 3237W        W 7301  10.278   6.167   1.097 -0.0620  0.3029 -0.2123
 3238W        W 7302   5.076   1.825   1.468 -0.1761  0.2674  0.0884
 3239W        W 7303  10.601   7.121  10.091  0.0031 -0.2146 -0.0216
 3240W        W 7304   0.436   8.975   3.649  0.0146 -0.2698 -0.0698
 3241W        W 7305   5.049   6.129   3.404  0.2144  0.1955 -0.0746
 3242W        W 7306   9.017   8.475   3.352 -0.2705  0.3222  0.0273
 3243W        W 7307   6.891   5.985   1.522  0.2361  0.1515  0.2334
 3244W        W 7308   6.959   4.408   4.455 -0.4914  0.1084 -0.5635
 3245W        W 7309   5.323   9.248   2.103 -0.0304 -0.0356 -0.2550
 3246W        W 7310   2.772   6.860   9.958 -0.0381 -0.3390  0.1663
 3247W        W 7311   5.196  10.283   9.329  0.0356  0.1466 -0.1435
 3248W        W 7312   3.520   3.487   8.509  0.2323  0.1974  0.1858
 3249W        W 7313   3.488   9.468   9.061  0.4336 -0.3655  0.1639
 3250W        W 7314   9.676   3.823   9.752  0.1276 -0.0823 -0.0884
 3251W        W 7315   2.137   8.641   1.486  0.0987 -0.2155  0.0156
 3252W        W 7316   5.612   6.539   0.744  0.3336 -0.1254  0.0340
 3253W        W 7317   3.829   0.776  10.563  0.0720 -0.0584 -0.0866
 3254W        W 7318   7.189  10.085   8.166 -0.0044  0.2451 -0.0635
 3255W        W 7319   4.226   4.170   8.309  0.1751  0.2448  0.4481
 3256W        W 7320   0.004   5.365   3.296 -0.1516 -0.2834  0.1146
 3257W        W 7321   4.498   8.459   8.464  0.1323  0.0567 -0.2110
 3258W        W 7322   8.581   4.669  11.152  0.2641 -0.3447 -0.1854
 3259W        W 7323   3.534   5.954   0.585  0.2820  0.0606 -0.0839
 3260W        W 7324   7.297   0.461   0.691  0.0351  0.0242  0.0507
 3261W        W 7325   2.476   9.559   1.328  0.0395  0.0156  0.1406
 3262W        W 7326  10.364   8.484   8.704  0.0647  0.0237 -0.1122
 3263W        W 7327   7.280   9.708   3.239 -0.1579 -0.0155  0.1993
 3264W        W 7328   5.965   1.637   1.043 -0.0102  0.0009  0.1962
 3265W        W 7329   2.411   2.940  10.995 -0.1065 -0.2733 -0.1097
 3266W        W 7330   3.184   4.619   3.633 -0.3878 -0.0775 -0.0129
 3267W        W 7331   7.048   5.387   1.197  0.1214 -0.0298 -0.1443
 3268W        W 7332   3.389   6.870   9.240  0.3454  0.0975 -0.1209
 3269W        W 7333   7.451   3.489  11.382 -0.1954  0.1201 -0.0322
 3270W        W 7334   0.360   2.637   2.517  0.1873  0.3481  0.0341
 3271W        W 7335   6.300   2.878  11.204 -0.0503 -0.0804 -0.0449
 3272W        W 7336   9.065   2.328   0.132 -0.0488 -0.1539  0.0273
 3273W        W 7337   4.020   8.799   1.311  0.0796  0.0264 -0.3557
 3274W        W 7338   5.130   8.095   4.635  0.2024 -0.0107 -0.0361
 3275W        W 7339   7.321   7.049  10.773 -0.0876 -0.1119 -0.0297
 3276W        W 7340   2.469   7.641   9.814  0.0480  0.3499 -0.1753
 3277W        W 7341   3.943   6.691   0.629  0.1836  0.1105 -0.4187
 3278W        W 7342   3.045   8.851   0.427  0.0260  0.0134 -0.0368
 3279W        W 7343   6.182   5.691   7.931 -0.0666 -0.1515  0.1573
 3280W        W 7344   7.907   5.161   9.179  0.1706 -0.0658 -0.1527
 3281W        W 7345   9.702   9.701   8.385 -0.2061 -0.0929  0.3295
 3282W        W 7346   8.724   7.359   9.636  0.3992 -0.4337  0.0926
 3283W        W 7347   4.885   5.165   2.074 -0.0266 -0.0064  0.1285
 3284W        W 7348   5.386   3.195   2.214 -0.0405  0.1740  0.2325
 3285W        W 7349   0.203   8.804   1.981  0.1097 -0.0678  0.0708
 3286W        W 7350   1.117   7.031  11.369 -0.2014  0.0641 -0.0786
 3287W        W 7351   8.832   3.948   3.611 -0.0187 -0.0237 -0.3746
 3288W        W 7352   0.288   3.583  10.159  0.1054 -0.3582  0.1819
 3289W        W 7353   8.719   9.432   2.542 -0.0172  0.0377  0.2686
 3290W        W 7354   6.527   3.403   0.683 -0.0174  0.0055  0.4251
 3291W        W 7355   7.736   1.674  10.916 -0.1670 -0.2212 -0.1128
 3292W        W 7356   6.635   6.849  11.298 -0.2891 -0.0046  0.1511
 3293W        W 7357   1.132   2.751   1.221 -0.2728  0.0676  0.0257
 3294W        W 7358   5.488   1.015   7.976 -0.2761 -0.1350 -0.0972
 3295W        W 7359   5.888   2.581  11.080  0.0133 -0.4500 -0.2019
 3296W        W 7360   7.323   3.554   9.626  0.1535  0.0181  0.1216
 3297W        W 7361   3.931   1.746   8.184  0.0181  0.0391  0.0700
 3298W        W 7362   6.807   1.470   0.922 -0.0566  0.3688 -0.2556
 3299W        W 7363   4.863   2.711   1.831 -0.1034 -0.1089 -0.0980
 3300W        W 7364   6.285   8.504  10.609  0.2825  0.2665 -0.0805
 3301W        W 7365   0.370   8.144   2.871 -0.0054 -0.1228 -0.2397
 3302W        W 7366   1.111   4.185   3.629  0.0914 -0.0537 -0.1330
 3303W        W 7367   5.796   5.980   0.632  0.1542  0.0746  0.1354
 3304W        W 7368   8.859   9.757   8.168  0.1205 -0.2832 -0.0369
 3305W        W 7369   6.767   4.876   9.779  0.0357 -0.0498  0.1491
 3306W        W 7370   5.247   2.423   9.395 -0.0937  0.1355 -0.1838
 3307W        W 7371   7.669   1.647   9.223  0.1318  0.2791 -0.1219
 3308W        W 7372   3.626   4.102   2.341 -0.0195 -0.3551  0.1651
 3309W        W 7373   3.833   8.057   9.892  0.1032 -0.0771  0.1417
 3310W        W 7374   5.784   7.142   1.256 -0.5205  0.1406  0.2397
 3311W        W 7375   0.078   4.463   9.060  0.2589  0.0761 -0.0205
 3312W        W 7376   0.862   9.873   8.771 -0.2661  0.4633 -0.0705
 3313W        W 7377   0.721   3.990   3.314  0.1069  0.0191 -0.0611
 3314W        W 7378   0.144   3.256   9.681 -0.2867 -0.2249 -0.1154
 3315W        W 7379   7.921   5.510   0.082  0.1909 -0.1477 -0.3810
 3316W        W 7380   7.306   1.486  10.046 -0.0614 -0.0193 -0.0832
 3317W        W 7381   8.307  10.395   8.196  0.2235  0.1068 -0.2785
 3318W        W 7382   3.709   4.679   2.166  0.0539  0.1062  0.0194
 3319W        W 7383   5.050  10.029   3.020 -0.0381  0.0620 -0.2311
 3320W        W 7384   2.935   3.648   0.575 -0.4975  0.0204 -0.0500
 3321W        W 7385   2.553   8.358   8.828  0.0932 -0.3439  0.2028
 3322W        W 7386   3.980   8.398   2.508 -0.1892 -0.0660  0.0436
 3323W        W 7387   8.727   3.189   2.714 -0.2539  0.0756 -0.1656
 3324W        W 7388  10.323   9.563  10.656 -0.0037 -0.2145  0.0766
 3325W        W 7389   9.917   0.050  11.463 -0.0394  0.3569 -0.1506
 3326W        W 7390   8.586   8.438   0.145  0.0716  0.0222 -0.0629
 3327W        W 7391   0.238   4.094   9.393 -0.0024 -0.1516  0.0361
 3328W        W 7392   2.669   1.241   9.128 -0.0416  0.0821 -0.3527
 3329W        W 7393   7.357   9.754  11.527  0.1469 -0.0431  0.0192
 3330W        W 7394  10.213   8.988   2.764  0.0417 -0.0772 -0.1600
 3331W        W 7395   9.053   5.281   2.161 -0.0444  0.1236  0.0730
 3332W        W 7396   7.738   5.884   9.083  0.0977 -0.0794 -0.0115
 3333W        W 7397   3.327   2.175   2.808 -0.4736 -0.1137 -0.0302
 3334W        W 7398   7.484   3.553   1.034  0.0997 -0.2196 -0.0107
 3335W        W 7399   6.285  10.034  10.835 -0.0838 -0.2065  0.1660
 3336W        W 7400   9.905   8.150   1.517 -0.1456 -0.1318 -0.0407
 3337W        W 7401   4.661   7.701   1.208 -0.1408 -0.1140  0.1503
 3338W        W 7402   8.724   9.803   2.925  0.1515  0.0050  0.1174
 3339W        W 7403   2.168   3.356  10.877  0.2137 -0.2078  0.1839
 3340W        W 7404   1.355   5.096  11.119 -0.0882 -0.0490 -0.5275
 3341W        W 7405   7.974   4.935   2.928 -0.1069 -0.0031 -0.0503
 3342W        W 7406   2.954   8.077  10.333 -0.0037 -0.0767  0.3137
 3343W        W 7407   9.608   9.964   2.784  0.1114  0.0436  0.1541
 3344W        W 7408   0.254   6.395   1.789  0.1263 -0.1284 -0.1545
 3345W        W 7409   0.645   4.429   1.377  0.0072 -0.2367 -0.2432
 3346W        W 7410   9.301   0.217   2.926  0.2918 -0.0656  0.3285
 3347W        W 7411  10.524  10.549  10.840  0.5840  0.2178  0.0474
 3348W        W 7412   0.672   1.353   2.764 -0.2190 -0.1380 -0.0661
 3349W        W 7413   9.722  10.494   7.658 -0.4218  0.0977 -0.0769
 3350W        W 7414   4.266   0.256   0.857 -0.0310 -0.1005 -0.0383
 3351W        W 7415   0.887   3.417   0.632  0.2439  0.2706  0.0557
 3352W        W 7416   2.720   7.827   8.828  0.0682 -0.0959  0.0649
 3353W        W 7417   2.891   0.119   3.738 -0.1273  0.1079 -0.0645
 3354W        W 7418   6.225   9.547   9.436  0.4380 -0.1034  0.1461
 3355W        W 7419   9.140   4.995  11.177 -0.1112 -0.0681  0.1631
 3356W        W 7420   4.503   1.153   9.835 -0.0363 -0.2063  0.0518
 3357W        W 7421   0.969   6.353   3.226 -0.3145 -0.3369 -0.0801
 3358W        W 7422   3.386   6.521   0.507  0.1652 -0.0295 -0.2980
 3359W        W 7423   6.114   1.064  10.483 -0.0646 -0.2215  0.1985
 3360W        W 7424   6.755   0.065   3.281  0.1443  0.0038 -0.0168
 3361W        W 7425   4.150  10.249   0.373  0.1762 -0.0724 -0.0355
 3362W        W 7426   0.924   6.052  11.321 -0.0988  0.2959 -0.0523
 3363W        W 7427   0.351   9.156   0.134  0.1122 -0.1762 -0.4240
 3364W        W 7428   4.227   5.729   8.532  0.2547 -0.3231 -0.1903
 3365W        W 7429   7.581  10.086   8.594  0.0874 -0.0257 -0.1688
 3366W        W 7430   4.532   1.908   4.106 -0.0283 -0.1759 -0.0955
 3367W        W 7431   8.622   2.408   1.660 -0.1396  0.4289 -0.2742
 3368W        W 7432  10.250   4.758  10.072 -0.2410 -0.1061 -0.1198
 3369W        W 7433   3.637  10.394  10.341  0.2041 -0.0838  0.0014
 3370W        W 7434   4.518   6.386   2.533 -0.0104 -0.2305  0.1882
 3371W        W 7435   5.814   5.491   0.747 -0.0149 -0.1825 -0.2479
 3372W        W 7436   0.669   0.801   2.171  0.3664  0.0073  0.0042
 3373W        W 7437  10.561   7.238   0.241 -0.1032 -0.1577  0.1026
 3374W        W 7438   4.085   8.009   0.981  0.1171  0.1373  0.0143
 3375W        W 7439   0.335  10.527   8.694 -0.1849 -0.0577  0.0410
 3376W        W 7440   4.858   0.412   8.598 -0.0243 -0.2107 -0.3653
 3377W        W 7441   9.677   8.169  10.488 -0.0952 -0.1089 -0.0961
 3378W        W 7442   6.509   2.064   9.899  0.0535 -0.1132 -0.0016
 3379W        W 7443   5.950   1.330   9.098 -0.2830 -0.1543  0.1530
 3380W        W 7444   5.169   4.072   8.376  0.2330 -0.0206 -0.2722
 3381W        W 7445   2.034   5.855   9.206 -0.0608  0.0514  0.2264
 3382W        W 7446   6.124   1.950   8.309  0.1923  0.1371 -0.2098
 3383W        W 7447   8.659   7.521   2.413 -0.1566  0.2199  0.0398
 3384W        W 7448   3.327   8.975   9.964 -0.1210 -0.2820 -0.3300
 3385W        W 7449   7.738   5.360   1.197  0.1268  0.1139 -0.0343
 3386W        W 7450   6.940   7.614   0.291  0.1354 -0.3951 -0.2874
 3387W        W 7451   2.378   7.420   3.260  0.1919 -0.2480 -0.0360
 3388W        W 7452   4.532   2.597   1.492  0.3225  0.1743  0.1133
 3389W        W 7453   7.453   3.109   1.154 -0.1161 -0.1858  0.0491
 3390W        W 7454   9.434   6.851  11.105  0.0071 -0.2236  0.3431
 3391W        W 7455   5.496   5.065  11.596 -0.1679 -0.1818 -0.0721
 3392W        W 7456   8.910   3.327   8.630 -0.0200  0.0682 -0.0706
 3393W        W 7457   3.039   3.718   9.833 -0.0326  0.0396  0.0196
 3394W        W 7458   6.996   1.801   2.024  0.2593 -0.1034 -0.3257
 3395W        W 7459  10.321   1.944   4.043 -0.2622 -0.1485 -0.1215
 3396W        W 7460   5.084   9.946   8.838 -0.2477 -0.1904 -0.1441
 3397W        W 7461   5.594   9.122   9.967  0.1303  0.0347 -0.2411
 3398W        W 7462   1.053   4.179   1.146 -0.1894  0.1014 -0.3908
 3399W        W 7463   4.490   6.887   9.828  0.0200  0.4329 -0.0197
 3400W        W 7464   9.872   0.298   2.263  0.0306  0.0174  0.0764
 3401W        W 7465   5.059   0.759   0.890  0.1932 -0.1297  0.0235
 3402W        W 7466   0.745   7.459   9.575 -0.0920  0.1062  0.2282
 3403W        W 7467   4.302   8.905   1.751  0.0883 -0.1627 -0.0116
 3404W        W 7468   1.579   1.502   2.261  0.0803  0.3374  0.2184
 3405W        W 7469   5.164   5.896   0.085  0.0822 -0.2862  0.0973
 3406W        W 7470   8.789   1.457  11.515 -0.0097 -0.4425 -0.0452
 3407W        W 7471   0.419   8.593   8.102 -0.2883 -0.1262 -0.0384
 3408W        W 7472  10.503   4.082   0.788  0.1111 -0.2436 -0.0037
 3409W        W 7473   1.103   4.976   1.951  0.0489  0.0057 -0.1592
 3410W        W 7474   3.176   7.586  10.426  0.0195 -0.2239 -0.0744
 3411W        W 7475   9.673   2.286   1.968  0.0327 -0.0163 -0.2777
 3412W        W 7476   8.534   4.317   9.398 -0.1261  0.0325  0.0409
 3413W        W 7477   2.179   8.382  10.704 -0.0477  0.0041  0.0193
 3414W        W 7478   6.404   6.324   8.682  0.1754 -0.3369  0.1700
 3415W        W 7479   6.446   7.281  11.168 -0.0728  0.0310  0.1578
 3416W        W 7480   2.203   6.809   1.915 -0.2359  0.0695  0.1348
 3417W        W 7481  10.463   3.648   3.330  0.2038 -0.1379  0.1273
 3418W        W 7482   6.154   4.499   4.284 -0.0366 -0.0832 -0.1949
 3419W        W 7483   0.289   6.117   8.344 -0.2437  0.2949 -0.1272
 3420W        W 7484   4.814   1.520   8.404 -0.3744 -0.2577  0.1690
 3421W        W 7485   7.074   5.374   4.032  0.0524 -0.3716  0.0397
 3422W        W 7486   2.447   9.849  11.037  0.1309 -0.1823  0.0613
 3423W        W 7487   2.276   2.678   1.408 -0.0227  0.0786  0.0983
 3424W        W 7488   1.059   5.063   9.429  0.2705 -0.0870  0.4075
 3425W        W 7489   4.901   9.749  10.490 -0.0708  0.2133 -0.1937
 3426W        W 7490   2.367   5.078   1.319  0.0952  0.1930  0.5562
 3427W        W 7491   7.202   4.535   8.831  0.2383  0.1602  0.0236
 3428W        W 7492   1.538   2.742   9.340  0.0345  0.1903  0.1209
 3429W        W 7493   5.309   3.231   0.639 -0.0794  0.0011 -0.0429
 3430W        W 7494   8.215   1.479  10.954  0.0377  0.0829 -0.0560
 3431W        W 7495   8.320   5.016   4.432  0.0597  0.3815  0.1344
 3432W        W 7496   5.754   4.056  11.223  0.1291 -0.0114  0.0860
 3433W        W 7497   0.600   6.193   9.241  0.0575 -0.1408 -0.2211
 3434W        W 7498   5.280   0.142   9.491 -0.2532  0.1528 -0.1273
 3435W        W 7499   3.641   3.851   1.872 -0.1500 -0.3686  0.2043
 3436W        W 7500   7.734   4.848  11.254 -0.3864 -0.1430  0.2336
 3437W        W 7501   5.569   1.917   8.102  0.0654  0.0475 -0.0240
 3438W        W 7502   2.669   4.841   0.609 -0.1707 -0.1214  0.0537
 3439W        W 7503   6.647   7.406   9.926 -0.1272 -0.1320 -0.0695
 3440W        W 7504  10.582   9.834  11.362  0.1759  0.1950  0.1809
 3441W        W 7505   3.221   3.219   0.513 -0.4255  0.0104  0.0815
 3442W        W 7506   5.473   5.305   3.492  0.0589  0.3854 -0.3026
 3443W        W 7507   4.457   9.120  11.566  0.0766 -0.0987  0.0932
 3444W        W 7508   0.436   1.323   9.809 -0.2213  0.3147 -0.1045
 3445W        W 7509   5.631   2.453   1.157 -0.2532  0.0369  0.1450
 3446W        W 7510   5.343   2.774   8.106 -0.0024 -0.0217 -0.1034
 3447W        W 7511   8.231   6.028   1.283 -0.0990  0.2059  0.1010
 3448W        W 7512   6.586   2.041   9.090  0.2081  0.1676  0.0892
 3449W        W 7513   5.293   8.168   2.666  0.1253 -0.1234 -0.0681
 3450W        W 7514   1.848   5.546   2.469 -0.3425  0.0533 -0.2365
 3451W        W 7515   4.434   4.103  11.040  0.1434  0.0333  0.2547
 3452W        W 7516   4.983   5.924   3.824  0.3991  0.0960  0.5390
 3453W        W 7517  10.093   1.832   2.897  0.1016  0.2997 -0.2019
 3454W        W 7518   2.038   5.167   0.719  0.0654 -0.0223 -0.1908
 3455W        W 7519   4.343   8.134   9.012  0.2580  0.1342 -0.3056
 3456W        W 7520   8.590   6.361   2.079 -0.0921  0.0542  0.5567
 3457W        W 7521   8.216   5.189   2.566 -0.2733 -0.0914  0.1025
 3458W        W 7522  10.400   8.225   3.289 -0.5360  0.2985 -0.0083
 3459W        W 7523   9.397   4.724   3.383 -0.0818  0.0452 -0.0751
 3460W        W 7524  10.574   1.494   7.610 -0.0304 -0.0725 -0.0469
 3461W        W 7525   5.910   5.248  10.549  0.1713  0.0562  0.0619
 3462W        W 7526   8.892   1.016   8.199  0.1354  0.3160  0.2003
 3463W        W 7527   5.785   1.570   9.652 -0.0192 -0.2095  0.0124
 3464W        W 7528   9.038   7.554   1.705 -0.4012  0.3282 -0.3144
 3465W        W 7529   4.787   6.472   2.135  0.0973  0.2410  0.0551
 3466W        W 7530   6.504   2.973   9.692 -0.0081 -0.0837 -0.1610
 3467W        W 7531   4.196   7.064   2.991  0.1955  0.0344 -0.2299
 3468W        W 7532   3.275   7.074   0.331  0.1944 -0.1402  0.0928
 3469W        W 7533   8.365   5.262   9.840  0.1539 -0.0375 -0.0419
 3470W        W 7534   4.922   8.660   9.382 -0.4589 -0.1300  0.0793
 3471W        W 7535   9.734   8.392   9.677 -0.2669 -0.1600 -0.3061
 3472W        W 7536   1.169   4.521   9.169  0.1781  0.1834 -0.0613
 3473W        W 7537   0.247  10.356   2.368  0.0607  0.0746 -0.0736
 3474W        W 7538   5.614   7.447   0.335  0.1161 -0.0018  0.2455
 3475W        W 7539   7.161   9.260   8.445  0.2715 -0.0284  0.0586
 3476W        W 7540   5.214   2.028   1.004 -0.1905  0.2134  0.2240
 3477W        W 7541   2.510   1.329   7.887 -0.0603 -0.3120 -0.0820
 3478W        W 7542   7.647   1.406   0.250  0.1252 -0.3612 -0.0007
 3479W        W 7543   9.199   0.693   9.900 -0.2715  0.0531  0.0989
 3480W        W 7544   9.176   8.388   1.668 -0.2786  0.0556 -0.1441
 3481W        W 7545   1.421   6.827   0.481 -0.2674  0.0854  0.0138
 3482W        W 7546   7.128   1.295   3.497 -0.0674  0.0087 -0.0073
 3483W        W 7547   4.221   8.843   3.396  0.3514 -0.1145 -0.2452
 3484W        W 7548   5.806   5.899  10.786  0.3197 -0.0462  0.0744
 3485W        W 7549   9.579   6.956  10.266 -0.2199 -0.0312 -0.1813
 3486W        W 7550   2.553   5.254  11.013 -0.0965 -0.2706 -0.1537
 3487W        W 7551  10.521   0.493   0.178  0.1651  0.0695  0.1659
 3488W        W 7552   5.218   5.799  10.034  0.2479  0.2828  0.5296
 3489W        W 7553   1.610  10.534   0.242 -0.0031  0.0678  0.0504
 3490W        W 7554   4.946   8.438   8.145 -0.2580  0.0815  0.0173
 3491W        W 7555   3.124   4.872   9.250  0.3537  0.0073  0.0741
 3492W        W 7556   7.376  10.169   1.494 -0.1303  0.0487  0.0458
 3493W        W 7557   5.678   7.843   8.153 -0.1017 -0.1474  0.1442
 3494W        W 7558   2.027   1.265   4.146  0.1025  0.0259  0.2194
 3495W        W 7559   4.916  10.390  10.533  0.2121  0.0713 -0.1334
 3496W        W 7560   1.736   1.208  10.060 -0.1646  0.0774  0.0857
 3497W        W 7561   4.837   8.066   1.774  0.0112 -0.2300 -0.1152
 3498W        W 7562   3.282   9.336   0.795 -0.0478  0.2257 -0.1155
 3499W        W 7563  10.260   5.139   9.665  0.3592  0.0582  0.0701
 3500W        W 7564   3.614   0.928  10.130  0.3444 -0.0050 -0.0238
 3501W        W 7565   4.887   3.278   0.994  0.1331  0.3158 -0.1923
 3502W        W 7566   8.671  10.510   2.471  0.1516  0.1211 -0.3376
 3503W        W 7567   5.403   0.544   9.845 -0.4571 -0.1710  0.0601
 3504W        W 7568   7.092   5.523   1.687 -0.2723 -0.0095  0.2828
 3505W        W 7569   6.389   4.418   2.207 -0.3478 -0.1169 -0.2722
 3506W        W 7570   9.112   3.889   2.026 -0.0714  0.3142 -0.1499
 3507W        W 7571   5.924   8.039   1.194  0.1873 -0.1357 -0.0672
 3508W        W 7572   6.906  10.021  11.438  0.0426 -0.3213  0.0384
 3509W        W 7573   3.165   6.965  10.353  0.0627  0.1642 -0.1736
 3510W        W 7574   1.044   3.058  10.879  0.0572  0.1009 -0.4925
 3511W        W 7575   0.781   1.170   9.459 -0.1720  0.0498  0.0377
 3512W        W 7576   2.850   8.741   8.953 -0.1821  0.1485 -0.4118
 3513W        W 7577   4.771   9.412   9.252  0.0170  0.1086 -0.1710
 3514W        W 7578   4.875   5.913   9.312 -0.1260 -0.2637  0.4468
 3515W        W 7579   0.017   6.011   1.467  0.3570  0.1012 -0.0135
 3516W        W 7580   9.500   2.163   7.937 -0.1463  0.0838 -0.0768
 3517W        W 7581   2.230   9.800   8.449  0.0645  0.3481 -0.4356
 3518W        W 7582   5.439   6.566   9.775 -0.0651 -0.3484  0.0399
 3519W        W 7583   9.653   8.606   1.349  0.0382 -0.1975 -0.2032
 3520W        W 7584   4.854   6.227   0.604 -0.0039 -0.0800 -0.3165
 3521W        W 7585   9.850   6.094   9.878  0.1403 -0.0919  0.2789
 3522W        W 7586   2.253   4.239   0.284  0.0141 -0.0915 -0.0532
 3523W        W 7587   5.254  10.026   4.447  0.1478 -0.0009  0.2440
 3524W        W 7588   9.575   5.994   2.330  0.1167 -0.2255 -0.0930
 3525W        W 7589   8.078   3.158   1.330  0.2249 -0.3502 -0.0929
 3526W        W 7590   8.183   2.704   1.797 -0.1217  0.1923 -0.4487
 3527W        W 7591   9.875   4.840   9.679  0.3087 -0.1807 -0.1637
 3528W        W 7592   2.719   2.439   1.441 -0.1196 -0.0428  0.2984
 3529W        W 7593   9.161   3.924   8.672 -0.3794 -0.0771  0.1483
 3530W        W 7594   1.408   5.121   0.031  0.3889  0.0879  0.1698
 3531W        W 7595   7.828   0.306  11.471 -0.0246  0.5160  0.2627
 3532W        W 7596   7.399   8.874   1.043  0.0557 -0.0004 -0.0295
 3533W        W 7597   7.072   4.895  11.384  0.3343  0.3146 -0.3680
 3534W        W 7598   6.759   3.366   8.633 -0.3459 -0.1555  0.1221
 3535W        W 7599   6.621   5.871   3.443 -0.2111 -0.2309 -0.1903
 3536W        W 7600   0.977   5.459   3.217 -0.0670 -0.2219 -0.1562
 3537W        W 7601   3.125   3.752   1.827 -0.2680  0.2235  0.2195
 3538W        W 7602   8.637   2.136   9.855  0.1506 -0.1064  0.2233
 3539W        W 7603   2.918   8.529   8.240  0.1359  0.0959 -0.1178
 3540W        W 7604   9.061   2.270  10.004 -0.0298 -0.0404  0.0875
 3541W        W 7605   5.840   5.405   2.405 -0.1640  0.1608  0.1097
 3542W        W 7606   4.724   8.208   1.295  0.1235 -0.1239 -0.3459
 3543W        W 7607   2.445   0.375   8.680 -0.2938  0.2052  0.1066
 3544W        W 7608   4.106   8.420   1.887 -0.0260  0.1532  0.1469
 3545W        W 7609   2.184   4.762   0.399  0.1996 -0.0705 -0.1014
 3546W        W 7610   7.794   4.929   2.408 -0.0754  0.1136  0.0937
 3547W        W 7611   5.764   0.573  10.883 -0.3128 -0.0709 -0.0326
 3548W        W 7612   1.512   0.697   8.284  0.2350  0.0684  0.1611
 3549W        W 7613   1.026   4.769  10.889  0.0151 -0.0089 -0.2169
 3550W        W 7614   0.653   0.206   0.727 -0.0461 -0.0332  0.0937
 3551W        W 7615   5.934   0.490   3.622  0.1715 -0.0942 -0.0179
 3552W        W 7616   6.582   6.410   8.106 -0.0188 -0.1753  0.0376
 3553W        W 7617   0.430   7.738  10.700 -0.1051 -0.0424  0.3084
 3554W        W 7618   4.854   4.789   2.920 -0.2760  0.3008 -0.1597
 3555W        W 7619  10.430   1.152  10.521 -0.1337  0.0464 -0.1467
 3556W        W 7620   2.127   5.303   9.026  0.3007  0.0311  0.0705
 3557W        W 7621   3.375   8.392   3.846 -0.0255  0.1725 -0.2434
 3558W        W 7622   9.697   0.073   3.268  0.0515  0.0316 -0.3914
 3559W        W 7623   6.597  10.143  10.468  0.2468 -0.0083  0.2039
 3560W        W 7624   0.973   6.835   0.212 -0.4313 -0.1039  0.0440
 3561W        W 7625   8.984   7.378   1.242  0.1166 -0.0662  0.2285
 3562W        W 7626   4.726   5.288   3.257 -0.1408 -0.0174  0.2533
 3563W        W 7627   7.351   0.072   2.273 -0.3723  0.0957  0.0740
 3564W        W 7628   5.653   6.092  11.576  0.5524  0.0405 -0.0042
 3565W        W 7629   2.369   9.769   0.375 -0.1031 -0.0949 -0.0052
 3566W        W 7630   5.925   2.127  11.312  0.0284  0.3721  0.0108
 3567W        W 7631   3.454   2.970   9.354  0.1986  0.0772 -0.1182
 3568W        W 7632   7.022   1.292  10.416  0.0074  0.0864  0.0000
 3569W        W 7633   9.674   1.022   3.317  0.0948 -0.0433  0.0588
 3570W        W 7634   1.135   3.563  10.878 -0.1347 -0.0475  0.1520
 3571W        W 7635   3.819   6.768   9.516 -0.0304 -0.0568  0.0571
 3572W        W 7636   9.528   9.512   9.044 -0.2771 -0.0811 -0.0100
 3573W        W 7637   6.180  10.436   7.942  0.2349 -0.1956  0.0865
 3574W        W 7638   6.844   0.168   0.652  0.0923 -0.1409 -0.1973
 3575W        W 7639   4.088  10.056   9.391  0.1097  0.0382  0.1090
 3576W        W 7640   5.651   1.320   8.752  0.0762  0.2728  0.2873
 3577W        W 7641   3.680   2.404   1.343  0.1593 -0.1356  0.2081
 3578W        W 7642   3.107   7.091  11.271  0.1019 -0.0554 -0.1230
 3579W        W 7643   2.150   3.746   8.662 -0.2402  0.4427  0.1505
 3580W        W 7644   6.501   5.470   9.654 -0.2368  0.2664  0.1004
 3581W        W 7645   7.825   1.341   2.371 -0.0271  0.1731 -0.0108
 3582W        W 7646   4.142  10.045   1.567  0.0743 -0.0639  0.2728
 3583W        W 7647   0.771   2.681   2.149  0.3478 -0.1302  0.0400
 3584W        W 7648   3.662  10.580  10.914  0.0437 -0.3091 -0.0031
 3585W        W 7649   8.141   5.420   8.469 -0.1684 -0.0725  0.3624
 3586W        W 7650   0.998   6.492  10.047 -0.1240 -0.1556 -0.0346
 3587W        W 7651   4.173   7.636   1.381 -0.2214 -0.2547  0.1885
 3588W        W 7652   2.058   1.971   9.880  0.1325 -0.1565  0.1110
 3589W        W 7653  10.263   5.349   9.067 -0.0034 -0.1073 -0.0633
 3590W        W 7654   0.151   8.661  10.911  0.1096 -0.5808 -0.0369
 3591W        W 7655   8.210   2.233  10.311 -0.0093 -0.3506 -0.0588
 3592W        W 7656   3.958   0.648   9.803  0.2310  0.1294  0.2621
 3593W        W 7657   5.616   8.511   1.214 -0.0900  0.0998  0.1926
 3594W        W 7658   3.719   4.594  10.000 -0.1667 -0.2944  0.3795
 3595W        W 7659   1.350   0.040   9.005 -0.0139  0.2252 -0.4072
 3596W        W 7660   2.252  10.582   2.604  0.0891  0.3980  0.0548
 3597W        W 7661   1.420   7.525   8.507  0.0253  0.2848 -0.0223
 3598W        W 7662   6.847   8.938   2.413 -0.1412  0.4658 -0.0476
 3599W        W 7663   8.216   6.702  11.111  0.1814 -0.0858 -0.0553
 3600W        W 7664   3.122   8.375   1.900  0.0288  0.1463  0.1783
 3601W        W 7665   5.636   6.671   2.731  0.1551 -0.1002 -0.4080
 3602W        W 7666   9.297   4.465   8.700  0.2202 -0.2103  0.0916
 3603W        W 7667   4.051   0.327   0.182  0.2376  0.0366  0.1967
 3604W        W 7668   7.587   5.901  10.553 -0.0044  0.0650 -0.0341
 3605W        W 7669   1.156   6.210   0.938  0.1710 -0.2762 -0.2315
 3606W        W 7670   1.019   4.699  11.497 -0.1581  0.2355 -0.2947
 3607W        W 7671   4.408   8.985   8.540 -0.2555 -0.1461  0.0657
 3608W        W 7672   9.620   8.019   3.025  0.2280  0.0822 -0.3177
 3609W        W 7673   1.497   9.726   7.699  0.0508  0.1155 -0.0116
 3610W        W 7674   1.330   1.319  10.975 -0.1784 -0.1270  0.1564
 3611W        W 7675   2.171   1.238   9.327  0.2332  0.0146 -0.1677
 3612W        W 7676   6.000   5.240   1.196 -0.0695 -0.0456 -0.0923
 3613W        W 7677   3.842   9.795   0.400 -0.0545 -0.0122 -0.1832
 3614W        W 7678   2.751   9.508   8.285  0.0001  0.0823  0.1855
 3615W        W 7679   7.919   1.372   9.985 -0.2634  0.1199 -0.0941
 3616W        W 7680   1.258   0.411   9.999  0.0724  0.1597  0.0177
 3617W        W 7681   1.279   3.795   0.161  0.0815  0.1356  0.3555
 3618W        W 7682   9.026  10.589  10.232 -0.1655 -0.1226  0.0030
 3619W        W 7683   4.909   6.178  10.801 -0.1084  0.1764 -0.0605
 3620W        W 7684  10.034  10.480   0.964  0.2331 -0.0454 -0.2744
 3621W        W 7685   8.484   7.798   8.535  0.1711  0.1084  0.0075
 3622W        W 7686   7.908   8.993   1.559  0.0359  0.0761  0.1192
 3623W        W 7687   7.129  10.200   1.055 -0.0495 -0.1049 -0.0800
 3624W        W 7688   0.265   0.868   0.373 -0.2160  0.0084  0.0481
 3625W        W 7689   5.552   8.343  10.424  0.2778 -0.0399  0.0633
 3626W        W 7690   6.377   0.195   0.653 -0.0184 -0.1260 -0.7974
 3627W        W 7691  10.013   2.330   9.091  0.1033 -0.0090 -0.1170
 3628W        W 7692   4.764   2.959   2.575  0.1133 -0.0345  0.0396
 3629W        W 7693   5.253   9.613   0.472 -0.0695  0.0125 -0.1207
 3630W        W 7694   6.633   1.157   8.274 -0.2770  0.1594  0.0708
 3631W        W 7695   8.483   4.592   0.092 -0.0110 -0.0028  0.4008
 3632W        W 7696   7.510   9.305   0.799  0.0524 -0.1648 -0.1041
 3633W        W 7697   8.108   7.971   8.883 -0.0845  0.0889 -0.1549
 3634W        W 7698  10.405   9.658   9.679 -0.0081  0.2395 -0.0414
 3635W        W 7699   8.653   8.313   9.709  0.1011  0.1772 -0.1770
 3636W        W 7700   7.397   5.652   0.920  0.1537 -0.0006 -0.3580
 3637W        W 7701  10.557   5.241   7.975 -0.4638  0.1840 -0.0628
 3638W        W 7702   2.263   0.213   1.576  0.0563  0.1915 -0.2436
 3639W        W 7703   6.651  10.205   0.187 -0.4843  0.1087  0.0544
 3640W        W 7704   3.004   2.064   4.435 -0.2211 -0.1362 -0.2655
 3641W        W 7705   9.363   6.126   2.891 -0.0301  0.0500  0.1175
 3642W        W 7706   9.197   1.583  11.293  0.3360  0.4763  0.1791
 3643W        W 7707   9.362   6.643   9.837  0.0586  0.3536  0.1473
 3644W        W 7708  10.104  10.347   8.980  0.0396 -0.0281 -0.0249
 3645W        W 7709   8.040   5.577  11.235  0.0848 -0.3130  0.1397
 3646W        W 7710   3.844   1.217  11.430  0.0396  0.1159 -0.1372
 3647W        W 7711   5.351   9.911   3.384 -0.1226  0.1013  0.2391
 3648W        W 7712   5.522   9.631   1.480 -0.0354 -0.1767 -0.3436
 3649W        W 7713   5.372   5.961  11.042 -0.1145  0.1946 -0.1898
 3650W        W 7714   5.275   6.460   3.046 -0.0569  0.0894 -0.1550
 3651W        W 7715   1.153   5.947   3.516 -0.1427  0.1559  0.1275
 3652W        W 7716   2.098  10.618   7.874 -0.2510 -0.3582 -0.2383
 3653W        W 7717   3.236   5.850  10.958 -0.1632  0.0646  0.2952
 3654W        W 7718   6.843   0.528   0.970  0.1595  0.3483 -0.3028
 3655W        W 7719   3.672   8.088   0.694 -0.4536 -0.3902 -0.0070
 3656W        W 7720   0.168   4.684  11.459  0.0225 -0.1435 -0.1869
 3657W        W 7721  10.510   4.557   2.918  0.2390 -0.0634  0.0083
 3658W        W 7722   8.935   1.600   2.438 -0.0432 -0.1424  0.1836
 3659W        W 7723   1.384   9.586   8.183  0.0723  0.3405  0.0950
 3660W        W 7724   2.698  10.069   8.362  0.1703 -0.3248  0.1283
 3661W        W 7725   3.285   6.364  10.615  0.1802  0.2252 -0.0185
 3662W        W 7726   6.382   6.516  11.078 -0.1220  0.1284 -0.0830
 3663W        W 7727   0.428   9.179   2.895 -0.0191  0.0261  0.2319
 3664W        W 7728   4.369  10.197   9.786 -0.2814 -0.1370  0.3674
 3665W        W 7729   7.053   4.802  10.200  0.2455  0.0804 -0.0508
 3666W        W 7730   7.907   9.289   2.702 -0.0561  0.1687  0.2218
 3667W        W 7731   9.293   7.579   0.833  0.1401  0.0377 -0.2877
 3668W        W 7732   1.482   9.817   1.917 -0.1326 -0.1640  0.2149
 3669W        W 7733   9.377   2.924   9.505 -0.3218 -0.0037 -0.2536
 3670W        W 7734   5.299   2.848   9.674 -0.2315  0.1032 -0.1179
 3671W        W 7735   0.946   4.405   3.114  0.1944  0.2370  0.1046
 3672W        W 7736   1.389   2.635  10.032 -0.0152 -0.3327  0.1084
 3673W        W 7737   4.240   1.408   9.463  0.3255 -0.0204 -0.3453
 3674W        W 7738   5.343   4.891   2.048 -0.1386 -0.3798 -0.0933
 3675W        W 7739   8.578   7.704   1.340 -0.2560 -0.0090 -0.1356
 3676W        W 7740   6.305   2.783   1.020 -0.1224  0.0473  0.0395
 3677W        W 7741  10.044   9.105   0.216 -0.1599 -0.1930 -0.1287
 3678W        W 7742  10.230   1.429   8.665  0.1053 -0.0445  0.0907
 3679W        W 7743   5.737   2.243   9.480 -0.3169 -0.0763  0.1415
 3680W        W 7744   4.879  10.566   8.871  0.1033  0.2061  0.1431
 3681W        W 7745   7.290   6.084   0.578 -0.2613 -0.0028  0.2290
 3682W        W 7746   2.105  10.304   0.224 -0.0780 -0.0774 -0.0429
 3683W        W 7747   4.574   5.771  10.790 -0.0690  0.0763  0.0280
 3684W        W 7748  10.198   1.005   8.123 -0.0439  0.0808  0.1094
 3685W        W 7749  10.507   7.788   0.244 -0.1399  0.0239  0.1821
 3686W        W 7750   6.140   6.791  10.322 -0.1818 -0.1349 -0.0916
 3687W        W 7751   5.442   0.568  11.216 -0.0683  0.2325 -0.0704
 3688W        W 7752   5.623   5.090  11.095  0.1560  0.2989  0.3502
 3689W        W 7753   6.408   2.310  11.215 -0.0212 -0.1168  0.0630
 3690W        W 7754   9.004   3.366   0.810 -0.0951 -0.1130 -0.2309
 3691W        W 7755   8.226   7.788   0.856  0.1083  0.2239  0.2659
 3692W        W 7756   1.284   4.802   0.842 -0.0293 -0.1610  0.0170
 3693W        W 7757   8.259   5.010   3.387  0.1775 -0.1957  0.0619
 3694W        W 7758   9.523   0.959  10.330 -0.1096 -0.2120  0.1645
 3695W        W 7759   5.960   0.050   8.274  0.0885 -0.1849 -0.4077
 3696W        W 7760   4.279   5.024   0.624  0.0458  0.2683  0.1007
 3697W        W 7761   6.287   1.254   0.550 -0.2225  0.1916  0.2000
 3698W        W 7762   5.819   3.871  10.612 -0.2022  0.0156  0.0260
 3699W        W 7763   0.970   7.235   9.126  0.1683  0.1368 -0.0446
 3700W        W 7764   7.206   8.930  10.019 -0.0835 -0.1666  0.1503
 3701W        W 7765   4.254   2.941   8.201  0.0224  0.2156  0.3620
 3702W        W 7766   8.620   3.110   0.988 -0.1304  0.2282  0.0278
 3703W        W 7767   1.975   3.581   3.399 -0.0177  0.2703  0.0210
 3704W        W 7768   1.402   4.316  10.503 -0.0187 -0.1495  0.1793
 3705W        W 7769   0.466   6.903  10.726 -0.1648  0.0226  0.1413
 3706W        W 7770   3.726   6.430   1.481 -0.2019 -0.1235  0.1350
 3707W        W 7771   8.836   0.908  10.752  0.1731 -0.2437 -0.4035
 3708W        W 7772   4.525   0.251   2.298  0.1473  0.1628 -0.3503
 3709W        W 7773   5.194   1.921   8.449 -0.0335 -0.0428  0.1697
 3710W        W 7774   2.833   2.279   7.778  0.0066  0.0697  0.0659
 3711W        W 7775   8.719   8.984   9.058 -0.0475  0.2277  0.0898
 3712W        W 7776   7.788   9.437   7.169  0.2094  0.0527 -0.1231
 3713W        W 7777   0.868   8.929  11.479 -0.0017 -0.0379  0.0616
 3714W        W 7778   1.204   7.867  10.184 -0.3093 -0.0924 -0.1072
 3715W        W 7779   3.683   6.347  10.258  0.0641 -0.0341 -0.0752
 3716W        W 7780   9.480   1.768   1.821  0.1825  0.3230  0.0035
 3717W        W 7781   6.302   5.845   8.729  0.0802  0.0756  0.1421
 3718W        W 7782   3.548   8.021   2.385 -0.0849 -0.1726 -0.5480
 3719W        W 7783   7.865   9.161   0.452  0.0771  0.1394 -0.3563
 3720W        W 7784   6.257   4.807   8.484  0.1329  0.0662 -0.1503
 3721W        W 7785   4.644   9.723   1.543 -0.0841 -0.2652  0.1797
 3722W        W 7786   5.983   6.389   2.442  0.0536 -0.1667 -0.0698
 3723W        W 7787   7.177   5.224   0.071  0.1970 -0.3955 -0.2364
 3724W        W 7788   2.843   2.146  11.229 -0.0639  0.1781  0.0023
 3725W        W 7789   3.602   2.722   0.930 -0.1121  0.0515  0.0843
 3726W        W 7790   3.221   9.999   1.019 -0.1103  0.1782  0.0914
 3727W        W 7791   3.468   4.751   9.577  0.0760 -0.0557 -0.1755
 3728W        W 7792   2.098   3.322   2.940  0.2669 -0.1278 -0.3355
 3729W        W 7793   0.411  10.304   3.418  0.0986 -0.3453  0.0998
 3730W        W 7794   3.588   5.263   9.527  0.0026  0.1396 -0.1205
 3731W        W 7795   0.539   9.933   8.260 -0.2276  0.1897  0.0215
 3732W        W 7796   8.957   5.683   4.471 -0.0644 -0.0026 -0.3355
 3733W        W 7797   4.001   4.605   9.119 -0.1479 -0.0606 -0.0200
 3734W        W 7798   2.324   7.153   1.325  0.2367 -0.4235  0.2676
 3735W        W 7799   0.596   2.067   0.833 -0.1465 -0.3709 -0.0945
 3736W        W 7800   1.830   6.871   0.218  0.3800 -0.1173  0.0518
 3737W        W 7801  10.532   5.133  11.534  0.1054  0.1363  0.1566
 3738W        W 7802   6.904   2.537   1.759  0.0993  0.3045 -0.0923
 3739W        W 7803   2.617   0.614   1.928  0.1202  0.2563  0.0638
 3740W        W 7804   8.791   4.574   1.398 -0.2253 -0.1103  0.1451
 3741W        W 7805   1.405   7.725   3.380 -0.0178  0.2505 -0.0752
 3742W        W 7806   2.480   5.082   8.604 -0.1550 -0.0157 -0.1591
 3743W        W 7807   6.129   9.867   8.725  0.0280  0.2319 -0.0257
 3744W        W 7808   4.936  10.490   9.743  0.1785 -0.1882 -0.0292
 3745W        W 7809   7.673   6.626   1.726 -0.0598 -0.0687 -0.2933
 3746W        W 7810   9.484   8.948   7.753 -0.0815  0.1521  0.2429
 3747W        W 7811   6.450   4.299   8.579  0.2166 -0.2146  0.0997
 3748W        W 7812   3.215   6.599   9.612 -0.0296 -0.0663 -0.1184
 3749W        W 7813   2.893   5.622   9.594  0.0224 -0.0831  0.3324
 3750W        W 7814   0.166   0.009   1.945  0.1819  0.0591  0.1439
 3751W        W 7815   4.320   1.951   0.988  0.0956  0.0711 -0.1537
 3752W        W 7816   4.125   0.849   0.223 -0.2258  0.0079  0.2028
 3753W        W 7817   8.077   1.951  11.174  0.1108  0.1453  0.0869
 3754W        W 7818   1.788   3.263   9.222 -0.1960 -0.3490 -0.0767
 3755W        W 7819   9.916   5.747   1.034  0.3706  0.1046  0.0974
 3756W        W 7820   7.517   2.284   8.686  0.1675 -0.1598  0.1647
 3757W        W 7821   3.925   8.276   1.383 -0.1529  0.3216 -0.3796
 3758W        W 7822   2.051   0.825   2.764 -0.3108  0.1521  0.0914
 3759W        W 7823   6.781   5.049   7.861 -0.4394 -0.2841 -0.0122
 3760W        W 7824   9.959   6.201   8.213 -0.0474 -0.0887 -0.0317
 3761W        W 7825   0.813   5.602   0.133 -0.0357  0.2658 -0.2210
 3762W        W 7826   5.705   3.150   2.677  0.1479 -0.0692  0.0714
 3763W        W 7827   6.009   6.149   1.624 -0.1677 -0.2875 -0.2115
 3764W        W 7828   0.652   6.903  11.324  0.3113  0.1575  0.2976
 3765W        W 7829  10.564   4.476   1.980  0.0739 -0.1507 -0.0978
 3766W        W 7830   9.962   0.231   3.674  0.1685  0.2948 -0.2660
 3767W        W 7831   2.766   8.538   3.097 -0.2021 -0.4571 -0.0001
 3768W        W 7832   3.294   3.902  10.221  0.0759  0.0720  0.1246
 3769W        W 7833   3.716   8.647   0.945 -0.0280 -0.0262  0.1473
 3770W        W 7834   8.995   6.444   2.911  0.1645  0.1983 -0.0318
 3771W        W 7835   6.758   8.706   2.812  0.3116  0.1659 -0.1638
 3772W        W 7836   9.592   2.010   8.414 -0.4157 -0.1240 -0.0200
 3773W        W 7837   3.568  10.402   8.046  0.0306 -0.3866  0.1695
 3774W        W 7838   1.619   0.450   3.164 -0.0180 -0.0672 -0.2466
 3775W        W 7839   7.919   4.750   4.204 -0.1113  0.0787 -0.0735
 3776W        W 7840   0.304   1.799   1.469  0.0099 -0.3668  0.0497
 3777W        W 7841   6.903   9.441   1.641 -0.1161 -0.0793 -0.4367
 3778W        W 7842   6.840   1.689  11.135  0.2133  0.0973  0.1955
 3779W        W 7843   7.065   0.026   9.887 -0.0366  0.1073  0.0668
 3780W        W 7844   9.665   3.964   8.739 -0.0466 -0.2536 -0.0553
 3781W        W 7845   5.337   2.781   1.667  0.1364 -0.0128  0.0335
 3782W        W 7846   6.280   7.070   2.093  0.0010 -0.1375 -0.1428
 3783W        W 7847   0.848  10.525   3.693  0.2662 -0.1360 -0.0323
 3784W        W 7848   2.274   9.322   1.915  0.1225 -0.0437 -0.0060
 3785W        W 7849   2.288   3.178   1.039  0.1129  0.2083 -0.3466
 3786W        W 7850  10.087   6.250   0.503 -0.1247  0.1470 -0.0193
 3787W        W 7851   1.408   5.796  10.157 -0.0368  0.1682 -0.1647
 3788W        W 7852   3.269   8.613   3.039  0.0620 -0.2603 -0.0279
 3789W        W 7853  10.550   1.823   1.043 -0.1345 -0.0484  0.1089
 3790W        W 7854   9.811   6.769   1.194  0.1694  0.2310  0.0275
 3791W        W 7855   9.363   0.935   7.920 -0.0271 -0.1107 -0.0232
 3792W        W 7856   4.901  10.529   2.171 -0.0310 -0.2885 -0.0561
 3793W        W 7857   9.509   9.927   1.534 -0.0777  0.3944 -0.0821
 3794W        W 7858   9.336   8.918   1.650  0.2487 -0.2482  0.0790
 3795W        W 7859  10.554   6.891   1.798  0.0652 -0.2214  0.2299
 3796W        W 7860   3.255   8.948   1.823  0.3768  0.2114 -0.0319
 3797W        W 7861   8.875   3.888  10.399  0.0195  0.0372  0.0434
 3798W        W 7862   3.812   1.892   2.300 -0.1726  0.0346  0.0163
 3799W        W 7863   8.354  10.082   2.672  0.0245  0.1188  0.2287
 3800W        W 7864   6.943   6.743  10.788  0.2248 -0.0592 -0.0455
 3801W        W 7865   5.039   1.200   3.067 -0.4817  0.0334  0.0072
 3802W        W 7866   6.368   3.849  11.299 -0.0929  0.1435  0.0961
 3803W        W 7867   4.167   9.873   3.544  0.0078 -0.0485  0.3172
 3804W        W 7868   6.853   2.894   1.069 -0.0174 -0.1296 -0.0899
 3805W        W 7869   7.140   6.525   1.932 -0.5219 -0.1386  0.1821
 3806W        W 7870   8.092   2.383  10.907 -0.2848  0.0256 -0.2137
 3807W        W 7871   0.306   1.750   2.960  0.0889 -0.0176  0.1352
 3808W        W 7872   6.324   8.332   4.347  0.0639  0.0917  0.0276
 3809W        W 7873   8.861   1.504   9.483  0.1961  0.1142 -0.0223
 3810W        W 7874   3.004   0.189   7.766  0.1639 -0.0459  0.2029
 3811W        W 7875   3.786   5.337  11.580  0.1120 -0.0870  0.1179
 3812W        W 7876   6.846   1.712   0.468  0.1775  0.1996 -0.1118
 3813W        W 7877   7.199   7.962   3.848 -0.0861  0.2016 -0.0298
 3814W        W 7878   1.432   0.818  10.351  0.0280 -0.2788  0.2643
 3815W        W 7879   8.723   0.136   8.008  0.0567 -0.0747 -0.1735
 3816W        W 7880   6.912   2.831   2.852  0.1467  0.1946  0.1307
 3817W        W 7881  10.000   1.492   1.762 -0.0515  0.0987 -0.2527
 3818W        W 7882   8.912   6.721   2.404 -0.1782 -0.0141  0.0005
 3819W        W 7883   6.957   8.319   7.783  0.0216  0.2675 -0.1486
 3820W        W 7884   6.469   7.397   0.647  0.2599 -0.2450  0.4092
 3821W        W 7885  10.353   3.424  10.900 -0.1092 -0.0212  0.2344
 3822W        W 7886   6.492   8.421   2.438 -0.3345  0.1986  0.0151
 3823W        W 7887   6.016   5.350   9.667  0.1561  0.2645 -0.1238
 3824W        W 7888   7.318   2.495  10.970  0.3098  0.1566 -0.0214
 3825W        W 7889   7.267   0.950  10.670 -0.0266  0.0783  0.1606
 3826W        W 7890   3.234   8.762   8.623 -0.1316 -0.0343 -0.2890
 3827W        W 7891   7.540   8.054   0.040 -0.1013  0.2434 -0.3349
 3828W        W 7892   5.596   0.594   9.250  0.1614 -0.1893  0.0371
 3829W        W 7893   9.323   7.432   9.782 -0.2038 -0.0344  0.0428
 3830W        W 7894   8.933   0.314   3.932  0.1374 -0.0543 -0.3559
 3831W        W 7895   2.849   6.300  10.857  0.1292  0.2543  0.1817
 3832W        W 7896   2.118   0.964  10.881 -0.1495 -0.0275  0.2184
 3833W        W 7897   4.810   0.786   2.950 -0.0715 -0.0776 -0.2534
 3834W        W 7898   7.921   8.620   9.719  0.0388  0.0719  0.1159
 3835W        W 7899   8.676   7.397   9.136  0.0530  0.2054 -0.2191
 3836W        W 7900   1.239   3.375  11.348 -0.0810 -0.1304  0.1516
 3837W        W 7901   1.578   8.412   1.427  0.2180 -0.0812 -0.1083
 3838W        W 7902   2.630   7.771   0.513 -0.0155 -0.1219  0.1759
 3839W        W 7903   8.957   2.877   1.867  0.0858  0.3547  0.3171
 3840W        W 7904   9.107   6.381  11.000 -0.2995 -0.2189 -0.0940
 3841W        W 7905   0.842   3.986   0.381  0.0252  0.0349 -0.0765
 3842W        W 7906   1.784   6.611  10.600 -0.3842 -0.1048  0.0453
 3843W        W 7907   4.078   5.771   1.862 -0.0272 -0.0832  0.0814
 3844W        W 7908   4.728   2.048   2.673  0.1845  0.1107 -0.1104
 3845W        W 7909   3.975   6.194   0.494 -0.1816 -0.0700  0.0460
 3846W        W 7910   4.343   6.294   1.920 -0.0760 -0.1421 -0.3093
 3847W        W 7911   0.053   6.586   2.249  0.0669  0.0700  0.2196
 3848W        W 7912   1.845   0.183   9.884  0.1803 -0.1529  0.2193
 3849W        W 7913   7.930   5.943   2.806  0.0016  0.2570 -0.1430
 3850W        W 7914   5.932   4.693   0.618  0.0327  0.0173 -0.1744
 3851W        W 7915   7.950   5.667   1.523 -0.0795 -0.0126 -0.0781
 3852W        W 7916   2.381   5.990   0.974  0.4148 -0.0682 -0.0489
 3853W        W 7917   2.240   7.718   1.986  0.0794  0.1941  0.0078
 3854W        W 7918   8.462   4.735   9.622 -0.3976 -0.0196  0.1505
 3855W        W 7919   2.451   1.678   1.128  0.2496 -0.2997 -0.0023
 3856W        W 7920   6.597   6.006   0.377 -0.0746  0.0345  0.0579
 3857W        W 7921   2.876   5.776   0.003  0.1253  0.1285 -0.1639
 3858W        W 7922   1.975   0.686  10.489 -0.3022  0.1866  0.1064
 3859W        W 7923   4.916   4.990  10.243 -0.1300  0.1390 -0.1026
 3860W        W 7924   9.636   0.783  11.496  0.3985  0.1628 -0.3266
 3861W        W 7925   5.480   8.801   0.743  0.1598  0.2612 -0.1749
 3862W        W 7926   7.120   6.887   1.554  0.0739  0.0817 -0.0462
 3863W        W 7927   8.148   2.504   2.337  0.2820  0.2395  0.0652
 3864W        W 7928  10.611   0.354   9.422  0.0151  0.1034  0.2026
 3865W        W 7929   1.939  10.221   8.312  0.1903  0.0194  0.0369
 3866W        W 7930   5.370   1.821   9.992 -0.0677  0.1653  0.0666
 3867W        W 7931   3.840   4.679  11.034  0.1822 -0.0008 -0.0989
 3868W        W 7932   3.198   1.163   0.726  0.1414 -0.5378  0.0712
 3869W        W 7933   6.927   8.188  11.206  0.2213 -0.1557 -0.0087
 3870W        W 7934   0.245   6.748   1.440 -0.1306 -0.2151  0.0824
 3871W        W 7935   3.201   1.857  11.053  0.1271  0.1999 -0.1563
 3872W        W 7936   3.296   8.177  10.663  0.0215 -0.1478  0.0940
 3873W        W 7937   9.112   1.738   1.398  0.0479 -0.1182 -0.3907
 3874W        W 7938   5.816   6.270  11.122 -0.2702 -0.1315 -0.3275
 3875W        W 7939   8.932   0.398   7.459 -0.2448 -0.0955 -0.0215
 3876W        W 7940   7.426   9.894   2.441  0.0711 -0.1835  0.1887
 3877W        W 7941   3.297   8.305   0.219  0.2627 -0.3909 -0.2012
 3878W        W 7942   5.073   4.752   2.431  0.2785 -0.1507  0.0190
 3879W        W 7943   5.385   4.540  11.455  0.0720 -0.2163 -0.2920
 3880W        W 7944  10.398   4.036   1.745 -0.0815  0.2382  0.0357
 3881W        W 7945   9.008   1.887  10.772  0.3425 -0.0965 -0.1597
 3882W        W 7946   5.064  10.182  10.127 -0.0831  0.2711 -0.2011
 3883W        W 7947   5.789   2.747   2.083  0.0599  0.2033  0.0026
 3884W        W 7948   5.038   9.672   9.972 -0.0647 -0.0108  0.2720
 3885W        W 7949   5.308   7.468  10.312 -0.0442  0.1203 -0.3499
 3886W        W 7950  10.178   2.338   3.303  0.0219 -0.0843 -0.1943
 3887W        W 7951   0.946   6.333   3.779 -0.2027  0.0471  0.0208
 3888W        W 7952   6.244   8.714   2.771 -0.0356  0.0623  0.0315
 3889W        W 7953   6.287   4.882  11.337  0.0793  0.0837  0.2355
 3890W        W 7954   8.040   5.486   2.020  0.2007  0.3234 -0.3285
 3891W        W 7955   9.602   9.663   2.020 -0.2099 -0.1157  0.1214
 3892W        W 7956   2.099   6.426   1.041 -0.1918  0.1379 -0.0963
 3893W        W 7957  10.595  10.308   9.939  0.1802  0.1378 -0.0064
 3894W        W 7958   6.980   4.985   3.272 -0.1626  0.1621 -0.0372
 3895W        W 7959   0.527   0.920   2.667 -0.2271  0.0699 -0.4123
 3896W        W 7960   2.249   8.759   1.988 -0.2659 -0.1934  0.1632
 3897W        W 7961   7.204   5.760   9.718 -0.0714 -0.1223  0.5777
 3898W        W 7962   1.944   0.274   3.890  0.0909 -0.0210  0.1249
 3899W        W 7963   0.854   1.970   3.291 -0.0282  0.0273 -0.0210
 3900W        W 7964  10.611   2.877   8.263 -0.0916  0.2220 -0.0944
 3901W        W 7965   6.914   5.231   8.856  0.1975 -0.1336  0.0228
 3902W        W 7966   1.073   1.942   0.087  0.1816 -0.0869  0.0914
 3903W        W 7967   7.681   3.780   1.796  0.0740  0.1453  0.2346
 3904W        W 7968   4.510   9.628  11.403 -0.0893 -0.0400  0.0940
 3905W        W 7969   9.820   2.991   3.329 -0.1383 -0.0589 -0.2038
 3906W        W 7970   8.525   7.325   0.488  0.3169  0.0260 -0.0915
 3907W        W 7971   6.680   1.576  10.582 -0.4131 -0.0016 -0.1247
 3908W        W 7972   2.447   4.252   8.842 -0.0976  0.1378  0.1342
 3909W        W 7973   7.455   8.932   9.566 -0.4110  0.0203 -0.0821
 3910W        W 7974   7.993  10.253   2.991  0.3070 -0.1402 -0.0488
 3911W        W 7975   4.056  10.559   2.214  0.1222  0.2519  0.0789
 3912W        W 7976   4.532   0.319   3.965 -0.0185  0.0663 -0.2386
 3913W        W 7977   6.124   6.011   0.240  0.3733  0.2489 -0.0697
 3914W        W 7978   1.784   3.893   8.294 -0.1380 -0.0639 -0.0619
 3915W        W 7979   4.798   3.042  10.442 -0.2022  0.1715  0.1491
 3916W        W 7980   8.725   9.607   8.670  0.0837 -0.0209 -0.2589
 3917W        W 7981   9.173   5.614   2.863  0.0897 -0.1130  0.0067
 3918W        W 7982   2.837   0.589   9.722  0.3963  0.3036 -0.0506
 3919W        W 7983   6.416   3.977   8.209  0.0563 -0.2388 -0.0437
 3920W        W 7984   0.682   2.626   0.071  0.0285  0.0909 -0.0123
 3921W        W 7985   4.024   0.680  11.048  0.1548  0.2154  0.0042
 3922W        W 7986   7.588   6.862  11.600 -0.1543 -0.0711  0.0986
 3923W        W 7987   3.837   8.779   8.358 -0.0278 -0.0558 -0.0641
 3924W        W 7988   8.748   5.687  10.378  0.0730 -0.0707 -0.3110
 3925W        W 7989   3.777   9.183   7.628 -0.1733  0.3904  0.0782
 3926W        W 7990   1.537   5.792   9.328  0.2511  0.0509  0.1732
 3927W        W 7991   3.626  10.029   7.726  0.1134 -0.0631  0.0799
 3928W        W 7992   0.362   0.990   8.803  0.0381 -0.1503  0.4715
 3929W        W 7993   0.261   1.087  10.255 -0.7261  0.2163 -0.2497
 3930W        W 7994   6.469   7.635   2.701  0.0541  0.1116 -0.2650
 3931W        W 7995   4.949   2.246   1.825 -0.1252  0.2073  0.0899
 3932W        W 7996   9.566   4.607   0.670 -0.0744 -0.2543 -0.3609
 3933W        W 7997  10.553   3.902   9.860  0.3094 -0.0965 -0.0088
 3934W        W 7998   2.549   5.542   8.992  0.1741 -0.1768  0.1259
 3935W        W 7999   4.271   1.604   1.392  0.0270 -0.1223 -0.3882
 3936W        W 8000   4.231   2.701  11.552  0.1187  0.0184  0.0614
 3937W        W 8001   3.243   1.063   9.787  0.0482 -0.0554 -0.0260
 3938W        W 8002   4.129   3.469  10.772 -0.2813  0.1590  0.0247
 3939W        W 8003   5.516   1.524   9.197 -0.0533  0.0038  0.0856
 3940W        W 8004   3.289   9.120   2.781 -0.0240 -0.0782 -0.2203
 3941W        W 8005   9.687   4.594  10.043 -0.0230 -0.0464 -0.1232
 3942W        W 8006   6.429   6.948  10.771 -0.0310  0.1713 -0.0362
 3943W        W 8007   2.352   7.955  11.063  0.0417 -0.2765  0.0585
 3944W        W 8008   9.575   2.868   8.279 -0.1054 -0.1894  0.0612
 3945W        W 8009   4.880   3.005   9.491 -0.0518 -0.0807  0.1472
 3946W        W 8010   9.467  10.424  10.381  0.0259 -0.2756  0.3081
 3947W        W 8011   0.324   7.333  10.420 -0.2872  0.5206  0.1067
 3948W        W 8012   6.635   7.221   1.678 -0.0284 -0.0780  0.0465
 3949W        W 8013   9.194   9.714   0.312 -0.0087  0.0625 -0.0101
 3950W        W 8014   7.327   2.393   1.492  0.0112 -0.0289 -0.0003
 3951W        W 8015   2.867   6.743   0.178  0.0793 -0.0712  0.3790
 3952W        W 8016   3.555   2.387   8.767 -0.2583 -0.1615  0.3076
 3953W        W 8017   9.886   3.744  10.680 -0.4919  0.0140 -0.1404
 3954W        W 8018   5.808   3.624   9.728 -0.0580 -0.1375  0.1892
 3955W        W 8019   7.574   5.774  11.107 -0.0726 -0.1255 -0.2619
 3956W        W 8020   7.724   1.704   0.740 -0.3375 -0.0152  0.2000
 3957W        W 8021   0.450   4.820  10.736 -0.0735 -0.3692 -0.3225
 3958W        W 8022   0.656   3.075   0.380  0.2588 -0.1523 -0.0310
 3959W        W 8023   4.955   0.389   2.454 -0.2616 -0.1693 -0.0739
 3960W        W 8024   4.514   6.985   8.632  0.1171  0.0122  0.1110
 3961W        W 8025   7.224   3.551   8.033 -0.1317  0.0360  0.2383
 3962W        W 8026   3.444   3.758  11.369 -0.0800  0.1989  0.3838
 3963W        W 8027   1.243   2.532   0.360  0.1155  0.0815  0.4284
 3964W        W 8028   0.669   6.589   0.499 -0.2369  0.0564  0.2257
 3965W        W 8029   5.659   5.059   0.890 -0.1741 -0.1205  0.0268
 3966W        W 8030   7.338   5.037  10.748  0.0983  0.1027 -0.0298
 3967W        W 8031   6.448   5.412   1.172 -0.1364  0.1244 -0.5176
 3968W        W 8032   4.897   2.927   3.178  0.2448  0.2662  0.1390
 3969W        W 8033   9.922   8.267   3.424  0.1344 -0.0728 -0.0763
 3970W        W 8034   9.884   4.471   4.194 -0.2400  0.2656  0.2471
 3971W        W 8035   4.635   4.097   2.797 -0.2652  0.1416 -0.0945
 3972W        W 8036   2.937   5.108   0.264  0.2121  0.1874 -0.0462
 3973W        W 8037   0.957   4.530   0.392 -0.1561  0.1667  0.1065
 3974W        W 8038   8.821   2.461   8.891 -0.0169  0.0417  0.1844
 3975W        W 8039   2.898  10.486   9.265 -0.0946  0.2178  0.1460
 3976W        W 8040   0.464   2.648   0.617 -0.1391  0.0947  0.0734
 3977W        W 8041   6.685   3.310   2.342 -0.1760 -0.0463  0.3172
 3978W        W 8042   4.490   3.365   3.265  0.3198  0.0528 -0.1161
 3979W        W 8043   0.178   5.575   2.266 -0.0378 -0.1142 -0.1114
 3980W        W 8044   5.168   4.544  10.581  0.1548 -0.0989  0.1210
 3981W        W 8045   6.972   3.680   3.227  0.1109  0.0952  0.3700
 3982W        W 8046   0.852   7.362   3.317  0.3690  0.0510  0.0864
 3983W        W 8047   1.200   9.403   1.915 -0.0458  0.0040  0.0183
 3984W        W 8048   7.615   4.905   1.041  0.0715 -0.0578  0.0387
 3985W        W 8049   0.870   4.010   1.675 -0.0545 -0.2334  0.1902
 3986W        W 8050   3.768   4.095   0.927  0.0380 -0.1813 -0.0538
 3987W        W 8051   6.194   3.060   2.502  0.1697  0.2617 -0.1670
 3988W        W 8052   6.851   0.214   8.269  0.0636  0.0643  0.3645
 3989W        W 8053   3.891   8.084   8.851 -0.1363 -0.0405 -0.1408
 3990W        W 8054   4.795   7.018  11.169 -0.3076  0.0120 -0.3787
 3991W        W 8055   2.689   3.586   1.659  0.0075  0.4032  0.1067
 3992W        W 8056   5.350  10.052   9.760  0.0369 -0.1220  0.2132
 3993W        W 8057   5.719   9.386   8.623 -0.0824 -0.0621 -0.1023
 3994W        W 8058   9.880   7.923  10.118  0.2116  0.0819  0.0956
 3995W        W 8059   9.382   8.330   0.320  0.0042 -0.0091  0.0470
 3996W        W 8060   7.583   4.983   9.503  0.2151  0.3135  0.0497
 3997W        W 8061   8.041   6.837  10.057 -0.1030 -0.1933  0.3821
 3998W        W 8062   9.337   3.869  10.623  0.2803 -0.2914 -0.2293
 3999W        W 8063   9.772   1.437   2.738  0.1315 -0.0208 -0.2990
 4000W        W 8064   6.917   8.985   0.037  0.0999 -0.1058 -0.1131
 4001W        W 8065   6.534   1.272  10.126 -0.0162 -0.0862  0.0134
 4002W        W 8066   8.197   3.918   1.814  0.0796  0.0103 -0.1374
 4003W        W 8067   7.054   4.412   0.024 -0.2016  0.1921 -0.0781
 4004W        W 8068   5.740   9.380   9.519  0.0815  0.0845  0.1124
 4005W        W 8069   5.171   0.986  11.559  0.2083 -0.1465  0.0622
 4006W        W 8070   8.711   5.159  11.324 -0.0458  0.1464  0.4728
 4007W        W 8071  10.265   8.291  11.196 -0.1387  0.0341 -0.0743
 4008W        W 8072   9.271   9.247   8.647 -0.1430 -0.0421  0.2812
 4009W        W 8073   2.287  10.379   8.654 -0.4199  0.2503 -0.1267
 4010W        W 8074   6.088   8.633  11.625  0.0741  0.1828 -0.0781
 4011W        W 8075   0.646   6.893   9.425  0.1900 -0.0968  0.1595
 4012W        W 8076   9.025  10.484   0.649 -0.2847 -0.3878 -0.1135
 4013W        W 8077   8.701   3.539   1.194 -0.0440  0.2654  0.0455
 4014W        W 8078   2.820   4.250   1.908 -0.0535 -0.2002  0.1807
 4015W        W 8079   7.955  10.579   0.581  0.0453 -0.1033 -0.3731
 4016W        W 8080   0.308   7.853  11.286  0.1913 -0.1158 -0.0777
 4017W        W 8081   9.688   7.966   8.216  0.4796 -0.3752 -0.0941
 4018W        W 8082  10.352   4.210  11.438 -0.0588 -0.1989 -0.0427
 4019W        W 8083   2.991   4.140  11.561 -0.0277 -0.1457 -0.0606
 4020W        W 8084   6.570   8.462  11.514 -0.1462 -0.0968  0.0635
 4021W        W 8085   3.017   3.521   8.429 -0.0694  0.0665  0.0236
 4022W        W 8086   7.024   2.368   8.897 -0.2147  0.0555 -0.3317
 4023W        W 8087   0.347   6.734   8.390  0.2054 -0.3177 -0.2264
 4024W        W 8088   5.960   1.743   7.801 -0.2028 -0.1375  0.1962
 4025W        W 8089   1.224   5.893   1.937 -0.1574 -0.0403 -0.3035
 4026W        W 8090   8.140   7.945   1.712 -0.3217 -0.0290  0.2167
 4027W        W 8091  10.546   7.503  11.166  0.1155 -0.0553  0.0178
 4028W        W 8092   3.795   4.206   8.928  0.0767  0.2266 -0.2320
 4029W        W 8093   7.971   0.481   8.502 -0.0361 -0.0282 -0.1880
 4030W        W 8094  10.119   0.022   7.958  0.0997 -0.0839  0.0340
 4031W        W 8095   5.634   1.455  10.216  0.1824 -0.1409 -0.3529
 4032W        W 8096   9.922   2.184   1.001 -0.0271  0.0714 -0.3061
 4033W        W 8097   6.719   3.988   2.115 -0.1352  0.2278  0.3222
 4034W        W 8098   5.447   5.271   8.454 -0.0940  0.1343 -0.0084
 4035W        W 8099   2.499   0.178   0.086 -0.0994 -0.2973  0.1812
 4036W        W 8100  10.516   7.900   7.820  0.3276  0.0681  0.0328
 4037W        W 8101   6.486   0.639   2.828  0.1546 -0.2413 -0.3293
 4038W        W 8102   4.045   1.313   0.217  0.2402  0.1355 -0.1619
 4039W        W 8103   5.509   6.146   1.062  0.0614 -0.1442  0.0612
 4040W        W 8104  10.341   6.724   3.205 -0.3066 -0.0568  0.0816
 4041W        W 8105   1.532   0.463   1.699  0.1602 -0.0484 -0.1017
 4042W        W 8106   7.015   6.645   3.138 -0.2211  0.1711  0.0834
 4043W        W 8107   1.914   7.478   2.332 -0.0005 -0.0471  0.0419
 4044W        W 8108   4.620   4.097   8.976  0.1032 -0.2268 -0.0456
 4045W        W 8109   6.321   0.659   0.384 -0.3036  0.3105 -0.2324
 4046W        W 8110   6.381   6.915   9.892  0.2506 -0.0139 -0.4234
 4047W        W 8111   1.461   1.147   4.054  0.3086 -0.1191 -0.0048
 4048W        W 8112   5.518   8.467   3.168  0.2052  0.1830  0.2224
 4049W        W 8113   0.918   7.878  10.657  0.1927 -0.2585 -0.0973
 4050W        W 8114   2.743   3.237   8.978 -0.2682 -0.2000  0.0272
 4051W        W 8115   5.056   4.974   8.456  0.1151 -0.1764  0.2080
 4052W        W 8116   1.791   7.408   9.381  0.0006 -0.1847  0.0448
 4053W        W 8117   3.327   7.818  11.489 -0.0151  0.1446 -0.1010
 4054W        W 8118   1.900   4.151  10.710 -0.0906  0.1840  0.0622
 4055W        W 8119   1.917   5.061   0.125 -0.0703 -0.0336  0.2611
 4056W        W 8120   4.079   8.642   0.106 -0.0934 -0.1326  0.1232
 4057W        W 8121   0.182   7.997   9.748  0.0491 -0.0734  0.1116
 4058W        W 8122   2.694   8.062   8.377  0.1160  0.0011 -0.2190
 4059W        W 8123   0.498   3.009   8.267 -0.2359  0.1971 -0.0972
 4060W        W 8124   1.377   8.556   8.820 -0.1539  0.0833  0.2586
 4061W        W 8125   2.241   2.143   8.400  0.1589  0.3357 -0.0099
 4062W        W 8126   7.860   2.710   0.825  0.0496 -0.1940  0.1805
 4063W        W 8127   4.205   1.514   3.965  0.0656  0.0719 -0.0612
 4064W        W 8128   5.404   0.032   1.297 -0.3736  0.0368 -0.0493
 4065W        W 8129   3.651   7.659   2.764  0.2495 -0.1006 -0.0607
 4066W        W 8130   5.709  10.027   0.172  0.3798 -0.1893 -0.0902
 4067W        W 8131   7.136   3.582   8.924 -0.3137  0.1073 -0.0647
 4068W        W 8132   2.422   3.849  10.828 -0.0213  0.2570 -0.0725
 4069W        W 8133   9.759   6.204   3.992  0.0105 -0.1475 -0.1800
 4070W        W 8134   5.933   1.600   0.446  0.0249 -0.2475  0.0928
 4071W        W 8135   0.260   0.607  11.487 -0.4484 -0.1774 -0.1827
 4072W        W 8136   1.692   1.038   3.167  0.0910 -0.0893 -0.0888
 4073W        W 8137   0.578   4.847   8.465  0.1919 -0.1841  0.3382
 4074W        W 8138   2.405   5.796  11.628  0.1042 -0.4366  0.0237
 4075W        W 8139   7.733   3.195   8.932 -0.1190  0.0933  0.1479
 4076W        W 8140   6.097   8.262   2.199 -0.0225 -0.1050 -0.0987
 4077W        W 8141   6.187   7.006   1.560 -0.1993 -0.1653  0.0321
 4078W        W 8142   6.571   9.250   0.955 -0.2416  0.0813 -0.0267
 4079W        W 8143   9.783   1.931   0.576  0.1090  0.0174  0.0401
 4080W        W 8144   2.551   5.987   9.435  0.0169  0.2013  0.0346
 4081W        W 8145  10.051   3.358  10.410 -0.0745  0.1967 -0.1152
 4082W        W 8146   9.017   6.871   0.447 -0.1746  0.0358 -0.0429
 4083W        W 8147   8.095   3.993   9.255  0.1720 -0.2345  0.0093
 4084W        W 8148   2.820   6.048   1.895  0.2522 -0.1692 -0.2462
 4085W        W 8149   5.255   8.842  11.464 -0.2098 -0.1023 -0.0530
 4086W        W 8150   4.975   7.375   9.027  0.0417  0.2095  0.1223
 4087W        W 8151   1.337   8.172   0.454 -0.0824  0.3862 -0.1513
 4088W        W 8152   5.816   7.141   2.797 -0.1319  0.3250 -0.0679
 4089W        W 8153   4.372   0.599   2.998 -0.3411 -0.2610 -0.1598
 4090W        W 8154   5.332   0.216   2.065  0.2196  0.2933 -0.1545
 4091W        W 8155   0.493   6.466   7.998 -0.2372 -0.2710  0.0501
 4092W        W 8156   2.264   7.440  11.118 -0.0784 -0.1164 -0.0595
 4093W        W 8157   0.227   4.770   2.486  0.1138 -0.1331 -0.2198
 4094W        W 8158   1.972   2.659  10.166 -0.2911  0.0928  0.0820
 4095W        W 8159   6.896   7.247   7.969 -0.5309  0.0877 -0.2237
 4096W        W 8160   9.602  10.474   2.259 -0.1774  0.3744 -0.1376
 4097W        W 8161   2.609  10.051   9.373  0.2546 -0.4951  0.1328
 4098W        W 8162   8.507   5.809   2.263  0.2482  0.0465 -0.0016
 4099W        W 8163  10.224   9.629  11.126 -0.0051 -0.0696  0.0526
 4100W        W 8164   0.645   7.121   0.562 -0.1578  0.2041 -0.1231
 4101W        W 8165   1.846   5.060   2.222 -0.0156  0.1984 -0.1707
 4102W        W 8166   9.173   3.287   1.582  0.2038 -0.1147 -0.0330
 4103W        W 8167   5.666   7.882  10.278 -0.0327 -0.1588  0.1139
 4104W        W 8168   6.973   5.888  11.243  0.3514  0.1143 -0.0537
 4105W        W 8169   4.892   2.237  10.438  0.1407 -0.0425  0.2067
 4106W        W 8170   3.386   2.987  11.079 -0.0544  0.1743  0.1843
 4107W        W 8171   3.050   2.693   0.681  0.0262  0.2534  0.0472
 4108W        W 8172   2.791   9.101   3.846  0.0449  0.0474  0.0643
 4109W        W 8173   8.937   7.883   9.572  0.0337 -0.2765 -0.2744
 4110W        W 8174   0.546   5.821   0.499 -0.2319  0.0866  0.0656
 4111W        W 8175   1.873   1.209  11.193  0.1419  0.0356  0.1614
 4112W        W 8176   9.119   5.505  10.648 -0.1174  0.3665  0.4006
 4113W        W 8177   1.584   2.372   3.018  0.3749 -0.3952  0.1356
 4114W        W 8178   7.351   1.988   2.977  0.0156 -0.0677 -0.1391
 4115W        W 8179   5.587   5.544  11.310  0.1378 -0.1121  0.0734
 4116W        W 8180  10.122  10.103   8.473  0.1923  0.0972 -0.1802
 4117W        W 8181   6.799   0.464   9.928 -0.3623 -0.0837 -0.3123
 4118W        W 8182   4.539   6.930   3.886 -0.0795 -0.1599  0.4563
 4119W        W 8183   9.096   5.076   2.734 -0.0794  0.1299 -0.2060
 4120W        W 8184   0.845   8.074   1.798 -0.1175 -0.1556  0.0076
 4121W        W 8185   6.923   6.629   0.410  0.0440 -0.1046  0.2834
 4122W        W 8186   9.860   5.660   9.160 -0.0354  0.0902 -0.2045
 4123W        W 8187   1.051   0.475   1.500  0.3298  0.3370  0.0518
 4124W        W 8188   3.886   3.908  10.966  0.0276  0.0388 -0.1364
 4125W        W 8189   1.190   4.935   9.907  0.0862  0.0228  0.0972
 4126W        W 8190   2.320   9.422   2.535  0.1253 -0.0511  0.0824
 4127W        W 8191   1.404   5.577   0.242  0.3136 -0.0312 -0.1063
 4128W        W 8192   4.829   7.349   2.698  0.0953 -0.0331  0.0104
 4129W        W 8193   6.188   5.653   9.322 -0.0668  0.1805  0.1625
 4130W        W 8194   1.418   0.878   0.221 -0.0151 -0.1891  0.2157
 4131W        W 8195   7.878   0.704   3.633  0.2409 -0.0803 -0.1193
 4132W        W 8196   8.264   2.945   0.599 -0.0629  0.0000  0.2058
 4133W        W 8197   6.500   9.670   7.857 -0.1157  0.1244  0.4065
 4134W        W 8198   3.170   0.354   9.379 -0.0709  0.3431 -0.0788
 4135W        W 8199   6.897   1.223  10.967 -0.2267  0.2990  0.0011
 4136W        W 8200  10.483   1.598  10.346 -0.0132 -0.3740 -0.1469
 4137W        W 8201   3.469   1.291   1.157  0.1819  0.0617  0.0800
 4138W        W 8202   9.687   1.951   8.892  0.2107 -0.3507  0.2644
 4139W        W 8203   9.201   2.065   8.999  0.3704  0.1882  0.0023
 4140W        W 8204   3.473   5.385   8.760  0.1345 -0.0015 -0.2375
 4141W        W 8205   0.355   8.680   2.915 -0.2100 -0.1655 -0.2495
 4142W        W 8206   6.439  10.460   8.383  0.2673 -0.2095 -0.2504
 4143W        W 8207   3.406   5.173   1.720  0.2227  0.1428  0.4014
 4144W        W 8208   0.814  10.348   8.900  0.1141 -0.1571 -0.2670
 4145W        W 8209   3.138   0.715   1.036 -0.1150  0.3314 -0.0323
 4146W        W 8210   6.824  10.256  10.961  0.2833 -0.2233  0.1485
 4147W        W 8211   9.533   7.010   8.749 -0.1397 -0.0924  0.1597
 4148W        W 8212   7.846   0.278   8.059 -0.2526 -0.1697  0.2331
 4149W        W 8213   9.277   0.139  10.670 -0.0181  0.0889 -0.0902
 4150W        W 8214   5.340   5.391   2.199  0.5914 -0.1346 -0.4280
 4151W        W 8215   9.653   5.489  10.490  0.2391  0.0463  0.0706
 4152W        W 8216   9.283   0.723   0.295  0.4221 -0.3403  0.2326
 4153W        W 8217   7.848   1.594   8.329  0.0416 -0.0275  0.1429
 4154W        W 8218   9.383   6.535   0.274 -0.6964  0.0446  0.1160
 4155W        W 8219   1.652   8.294   0.112  0.1440  0.2000  0.3227
 4156W        W 8220   6.816   6.970   9.606  0.0635  0.1510  0.0891
 4157W        W 8221   8.879   8.722   9.719 -0.0334 -0.3107  0.3310
 4158W        W 8222   4.593   6.112   8.475 -0.2643 -0.1335  0.3381
 4159W        W 8223   7.559   6.361   0.176 -0.0390 -0.2268 -0.1407
 4160W        W 8224   0.876   1.222   4.181  0.4498  0.5033  0.0932
 4161W        W 8225   0.956   2.463   0.852  0.4188 -0.1462 -0.0530
 4162W        W 8226   6.857   1.290   2.307  0.0362  0.0979  0.0291
 4163W        W 8227   0.174   3.390  11.181 -0.2591  0.2144  0.0928
 4164W        W 8228   3.181   0.792   8.099 -0.2056  0.0724  0.4664
 4165W        W 8229   1.502  10.621  11.071 -0.2476 -0.0898 -0.1593
 4166W        W 8230   4.059   0.293  10.739  0.1050 -0.0089 -0.1623
 4167W        W 8231   0.562   6.691   9.848  0.1498 -0.2327 -0.2063
 4168W        W 8232   6.794   9.419   7.500  0.2640  0.2808  0.5141
 4169W        W 8233   4.276   0.412   9.423 -0.1567  0.3418  0.0537
 4170W        W 8234   3.854   9.670   1.747  0.1371 -0.1324 -0.1291
 4171W        W 8235   9.264   2.008   2.363  0.3142  0.1757 -0.1880
 4172W        W 8236   0.121   1.532  11.436 -0.2094  0.2813  0.0559
 4173W        W 8237   2.130   2.084   0.290 -0.0047 -0.2606  0.2494
 4174W        W 8238   4.851   3.515   0.503 -0.2700  0.1382 -0.0920
 4175W        W 8239   8.737   5.291   7.680  0.3576  0.1332  0.3542
 4176W        W 8240   2.879   4.811  10.841  0.3637  0.1652  0.0463
 4177W        W 8241   5.498   6.290  10.676 -0.3168  0.3801 -0.0467
 4178W        W 8242   0.427   4.579   2.971 -0.1206 -0.1400 -0.1400
 4179W        W 8243   9.313   0.976   8.488 -0.0837  0.1101  0.1423
 4180W        W 8244   8.695   0.948   8.681 -0.0846 -0.0014 -0.1889
 4181W        W 8245   7.291   5.629   8.841  0.2875 -0.0549  0.0583
 4182W        W 8246   3.306   1.433   7.423  0.2622 -0.1529 -0.3896
 4183W        W 8247   1.975   8.324  10.118  0.0288 -0.0636  0.1527
 4184W        W 8248   5.653   8.778   3.556  0.0828  0.4049  0.2297
 4185W        W 8249   2.063  10.095   1.198  0.0714  0.0842  0.2806
 4186W        W 8250   2.381   1.231   2.712 -0.0901  0.1822  0.0222
 4187W        W 8251   2.731  10.471   2.915  0.1212  0.2553 -0.1327
 4188W        W 8252   9.232   3.345   3.936 -0.0308 -0.4333  0.1297
 4189W        W 8253   6.476   4.720   0.539 -0.1396 -0.1722  0.1339
 4190W        W 8254   0.273   7.074   9.678 -0.1732  0.0779  0.0033
 4191W        W 8255   0.776   3.441  10.476  0.5361 -0.1862 -0.2613
 4192W        W 8256   7.110   6.646   4.314 -0.2881 -0.4004  0.0156
 4193W        W 8257   4.583   5.901   1.668  0.1410 -0.1340  0.0724
 4194W        W 8258   0.959   1.834  10.316 -0.0281 -0.0701  0.3346
 4195W        W 8259   8.952   1.218   1.521  0.0957  0.2662 -0.2227
 4196W        W 8260   9.984   3.842   1.878 -0.0390  0.0386  0.0867
 4197W        W 8261  10.537   4.077   3.142 -0.2782 -0.2742  0.1665
 4198W        W 8262   9.064   7.020   0.014  0.1784 -0.1743 -0.2125
 4199W        W 8263   6.269   4.916   9.734 -0.2286 -0.1462  0.1042
 4200W        W 8264   8.442   9.478   1.346 -0.2596  0.1216 -0.1780
 4201W        W 8265   1.935   8.396   3.225  0.3454 -0.1175 -0.2440
 4202W        W 8266   8.686   8.540   1.119  0.1989 -0.0798 -0.2526
 4203W        W 8267   5.123   1.601   3.369  0.2267 -0.1488  0.0364
 4204W        W 8268   7.055   4.879   8.495  0.1326  0.2078  0.2767
 4205W        W 8269   9.444  10.516   1.127  0.3930 -0.2934 -0.2083
 4206W        W 8270   3.811   2.423   0.131 -0.3244 -0.0019 -0.1737
 4207W        W 8271   4.552   2.597   2.798 -0.0584  0.1822  0.2792
 4208W        W 8272  10.576   2.892  10.916  0.0770 -0.2118  0.0612
 4209W        W 8273   3.537   7.996  11.084  0.1360 -0.0477  0.0862
 4210W        W 8274   3.573   7.047   0.739  0.1171  0.3435  0.2170
 4211W        W 8275  10.479   9.036  10.751  0.0271  0.1427 -0.2576
 4212W        W 8276   4.085   5.270   2.327 -0.1323 -0.1096 -0.1324
 4213W        W 8277   9.145   3.295  10.224  0.3233 -0.0822 -0.0918
 4214W        W 8278   6.014   7.645   1.469  0.0829  0.1157  0.1276
 4215W        W 8279   3.487   0.072   8.475  0.0197  0.0050  0.3382
 4216W        W 8280   1.016   7.987  11.151  0.0843 -0.1615  0.3639
 4217W        W 8281   4.497   3.311   9.360 -0.1681 -0.2611  0.1364
 4218W        W 8282   5.953   8.402   0.872  0.2262 -0.1962  0.2729
 4219W        W 8283   5.991  10.471   8.759  0.0171  0.2050  0.1870
 4220W        W 8284   9.979   7.258   3.317  0.0409  0.0759  0.1036
 4221W        W 8285   5.240   1.485   3.885  0.2526  0.3209 -0.1022
 4222W        W 8286   4.804   1.582   9.917  0.2793 -0.1879 -0.1299
 4223W        W 8287   3.135  10.379   2.295  0.0073 -0.1656 -0.0752
 4224W        W 8288   1.507   0.300   8.635 -0.2301 -0.0333  0.5893
 4225W        W 8289   3.828   5.280   3.027  0.0770  0.1990 -0.2099
 4226W        W 8290   5.334   6.111   0.529  0.2106  0.1429  0.4500
 4227W        W 8291   7.585   9.182   8.093 -0.0993 -0.1028 -0.0192
 4228W        W 8292   3.353   2.496  11.061 -0.0752 -0.0680  0.3663
 4229W        W 8293   0.355   0.497   8.691  0.0255 -0.0132  0.0589
 4230W        W 8294   1.671   6.745   1.797 -0.0073  0.0819 -0.2483
 4231W        W 8295   0.513   9.975  10.811  0.2390  0.1855  0.0219
 4232W        W 8296   5.374   7.611   2.941  0.0025  0.0288  0.0734
 4233W        W 8297   5.322   3.990  11.448  0.0926  0.0555 -0.3022
 4234W        W 8298   7.226  10.172   0.312  0.1083 -0.0486  0.2208
 4235W        W 8299   9.815   8.600  10.642  0.1461 -0.1203  0.2278
 4236W        W 8300   4.963  10.039   2.500  0.3761  0.0719 -0.1877
 4237W        W 8301   2.772   1.334  10.129 -0.2195 -0.2742 -0.2261
 4238W        W 8302   3.830  10.401   1.650  0.0703 -0.0394 -0.1112
 4239W        W 8303   5.253   9.305   2.703  0.2880  0.0112  0.1065
 4240W        W 8304   3.202   4.401  10.074  0.0367 -0.1491  0.0113
 4241W        W 8305   9.479   7.030   9.296  0.1354 -0.1521  0.4597
 4242W        W 8306   5.272   7.051   9.499  0.1204  0.2458 -0.3011
 4243W        W 8307   6.604   0.005   7.813  0.1277 -0.0160  0.0479
 4244W        W 8308   2.880   5.559   0.465 -0.1739 -0.0435 -0.5982
 4245W        W 8309  10.005   5.054   2.386  0.2182 -0.1422 -0.0650
 4246W        W 8310   5.775   3.399   3.486  0.0614  0.0864 -0.2537
 4247W        W 8311   9.485   3.800   9.146  0.1913  0.1016 -0.0862
 4248W        W 8312  10.363   5.479  10.654  0.2988 -0.1083  0.0329
 4249W        W 8313   1.543   8.768   3.480  0.1200 -0.2266  0.1150
 4250W        W 8314   7.094   3.899   0.942 -0.3722  0.2118  0.0961
 4251W        W 8315   2.997   9.676   9.113  0.3044  0.0306  0.0077
 4252W        W 8316   1.343   0.462   7.813  0.0055 -0.2297 -0.1953
 4253W        W 8317  10.528  10.183   3.795 -0.2738 -0.0903  0.1173
 4254W        W 8318   6.599   7.082  10.331  0.1557  0.0332  0.0139
 4255W        W 8319   3.378   4.731  10.825  0.2260  0.2420  0.0547
 4256W        W 8320   1.178   7.701   1.886 -0.3462 -0.0318  0.0414
 4257W        W 8321   9.098  10.412   2.209 -0.0594  0.2132  0.2875
 4258W        W 8322   1.678   7.903   2.513 -0.3505 -0.0438 -0.2126
 4259W        W 8323   9.516   4.817   2.901 -0.0387  0.0546  0.0689
 4260W        W 8324   0.494   9.680   9.064  0.1370 -0.2459  0.0173
 4261W        W 8325   3.430   6.823   8.335 -0.1082 -0.0457 -0.0673
 4262W        W 8326   3.617   1.483   9.218 -0.2205 -0.1110  0.1512
 4263W        W 8327  10.011   6.116   8.734 -0.1251  0.1900 -0.1139
 4264W        W 8328   1.268   9.466   4.397  0.1621  0.0598  0.1523
 4265W        W 8329   9.614   9.025   3.217  0.2764 -0.1479 -0.0907
 4266W        W 8330   6.547   7.301   9.360  0.0877 -0.1855  0.0489
 4267W        W 8331   6.641   2.294   2.185 -0.1995  0.3784 -0.0586
 4268W        W 8332   2.555   8.808   0.399 -0.1244 -0.0276 -0.1793
 4269W        W 8333   6.072   5.149   9.234  0.0760  0.0683  0.0966
 4270W        W 8334   4.559  10.264   2.416  0.1718 -0.1031 -0.2121
 4271W        W 8335   7.846   7.339   3.920  0.1426  0.3098 -0.0098
 4272W        W 8336   6.303   9.215   3.190 -0.2565 -0.2283 -0.1189
 4273W        W 8337   7.156   0.198   9.053 -0.3162  0.2291  0.2116
 4274W        W 8338   0.362   3.201   1.898 -0.3493 -0.3890 -0.2950
 4275W        W 8339   1.800   3.928   0.093  0.1314  0.0222  0.3929
 4276W        W 8340   1.167   3.238   9.862  0.0455  0.2545 -0.3700
 4277W        W 8341   2.778   3.968   0.898  0.2274 -0.2592 -0.2686
 4278W        W 8342   5.129   8.970   3.535 -0.0880  0.2338 -0.0890
 4279W        W 8343   5.737   9.082   8.188  0.1528  0.0740 -0.1199
 4280W        W 8344   7.768   3.329   2.975 -0.0475  0.2195 -0.0869
 4281W        W 8345   9.635   3.391   8.087 -0.0875  0.1732  0.1155
 4282W        W 8346   7.150   4.182   2.315 -0.1314  0.1556  0.0834
 4283W        W 8347   4.894   1.636   1.010  0.1623  0.1312  0.1321
 4284W        W 8348   7.618   1.726   2.675 -0.1098 -0.0291 -0.0559
 4285W        W 8349   0.785   6.060   9.758 -0.0435 -0.0547 -0.1880
 4286W        W 8350   2.418   9.207  10.298 -0.1402  0.2106 -0.0518
 4287W        W 8351   2.835   3.041   2.902 -0.3340  0.1223  0.0450
 4288W        W 8352   5.413   0.803   3.038  0.0963 -0.1968 -0.0915
 4289W        W 8353   2.712   5.998   9.914 -0.4165  0.2862  0.1657
 4290W        W 8354   7.065   7.331   1.433 -0.0490 -0.1430  0.1518
 4291W        W 8355   7.882   9.006  10.649 -0.1100 -0.1276  0.0098
 4292W        W 8356   6.787   6.325   2.249 -0.4458 -0.2412 -0.1108
 4293W        W 8357   8.116   7.865   3.037  0.0247  0.1798  0.5036
 4294W        W 8358   0.383   9.485   8.499  0.0455  0.0837 -0.0956
 4295W        W 8359   4.387   5.636  11.220  0.0766 -0.0786 -0.2552
 4296W        W 8360   9.634   9.005  10.479  0.0094 -0.0249  0.3609
 4297W        W 8361   5.255   6.262  10.188  0.1409 -0.1566  0.0418
 4298W        W 8362  10.553   8.747   7.992 -0.0760  0.0810 -0.1860
 4299W        W 8363   4.416   6.428   0.448  0.1014  0.1508 -0.2034
 4300W        W 8364   3.982   7.612   9.648  0.0740 -0.1125 -0.0724
 4301W        W 8365   8.382   4.080   3.410  0.1402 -0.1422  0.0815
 4302W        W 8366   1.139  10.594  10.748  0.1893  0.1665 -0.3405
 4303W        W 8367  10.058   6.163  10.846  0.4536  0.1701  0.0011
 4304W        W 8368   1.696   7.957   3.068  0.1236  0.0812  0.0546
 4305W        W 8369   8.740   0.534   8.456 -0.2617  0.2230  0.3521
 4306W        W 8370   1.065  10.461   0.843  0.1961 -0.6047  0.0137
 4307W        W 8371   3.702   8.515   0.377 -0.0880  0.1328  0.2453
 4308W        W 8372   5.433   7.088   0.718 -0.1898 -0.2790 -0.0060
 4309W        W 8373   1.877   0.123   2.874 -0.2272 -0.0910  0.2531
 4310W        W 8374   8.679   4.942   2.469 -0.2544 -0.0150  0.0753
 4311W        W 8375   4.219   2.120   0.504  0.1957 -0.1909 -0.1447
 4312W        W 8376   0.508   7.746   8.050  0.1769 -0.0896  0.1958
 4313W        W 8377   0.841   2.235   0.399  0.2663 -0.3090 -0.1483
 4314W        W 8378   5.932   1.755  10.934  0.2372 -0.2681  0.1514
 4315W        W 8379   8.409   7.658  11.295  0.0678 -0.2998  0.0947
 4316W        W 8380   9.296   2.180   0.557 -0.0167  0.4789 -0.1812
 4317W        W 8381   8.617   1.195   2.802 -0.0812  0.0729  0.1214
 4318W        W 8382   6.983   6.294   9.880 -0.0561 -0.0228  0.1686
 4319W        W 8383   2.871   8.452   2.273  0.1289  0.0463  0.2980
 4320W        W 8384   7.803   0.204  10.909  0.1116  0.0631 -0.2687
 4321W        W 8385   8.214   4.921   2.166 -0.1535  0.1274  0.2208
 4322W        W 8386   6.694   4.305   0.384 -0.0596 -0.0584  0.0498
 4323W        W 8387   6.852   2.028   0.841  0.0409  0.1341  0.1946
 4324W        W 8388   5.577   4.630   9.131 -0.0854 -0.2538  0.0579
 4325W        W 8389   9.793   4.040   2.505 -0.0612 -0.1345 -0.2573
 4326W        W 8390   2.119   6.332  10.332  0.0801 -0.0319  0.4278
 4327W        W 8391   7.526   7.322   1.187  0.3346 -0.1264  0.0039
 4328W        W 8392  10.325   6.280   1.787  0.0302 -0.3425 -0.3064
 4329W        W 8393   1.530   5.674   0.713 -0.3798 -0.0032 -0.0470
 4330W        W 8394   0.832  10.205  10.518 -0.1059 -0.0481 -0.1120
 4331W        W 8395   8.803   2.877   8.073 -0.3060  0.1110 -0.1773
 4332W        W 8396   1.084   2.247   2.844  0.0854 -0.0222 -0.2903
 4333W        W 8397   1.391   4.281   0.675  0.1457 -0.1879  0.1113
 4334W        W 8398   1.593   5.349   1.106 -0.0715  0.1175  0.1022
 4335W        W 8399   1.915   0.997   0.938  0.0390 -0.4055 -0.0754
 4336W        W 8400   4.272   0.903   9.325 -0.1151  0.0312 -0.1306
 4337W        W 8401   7.914   7.155   2.395 -0.3085 -0.0948  0.3095
 4338W        W 8402   7.874   1.449   8.804  0.1613 -0.1543 -0.2649
 4339W        W 8403   6.450   5.617   2.143 -0.0327  0.0005 -0.2989
 4340W        W 8404   8.960   6.505   0.080  0.0120 -0.2914 -0.3524
 4341W        W 8405   3.732   1.535   4.180  0.0435 -0.0980 -0.0771
 4342W        W 8406   9.755   9.809  11.090  0.0976  0.1148 -0.0949
 4343W        W 8407   2.377   5.395  10.474 -0.1343 -0.1247 -0.2462
 4344W        W 8408   5.288   5.709   8.661 -0.4007 -0.3275 -0.3682
 4345W        W 8409   4.362   9.316   2.380 -0.1336  0.0318  0.0833
 4346W        W 8410   2.499   9.777  11.550  0.0523  0.1345  0.2949
 4347W        W 8411   5.381   1.170   7.507  0.0243 -0.1141 -0.0343
 4348W        W 8412   5.834   6.374   0.348  0.2374 -0.0556 -0.2267
 4349W        W 8413   1.337   1.507   9.706 -0.2688  0.2161 -0.0681
 4350W        W 8414   0.605   3.539   8.565  0.1203  0.1370 -0.0088
 4351W        W 8415   6.204   7.616   0.984  0.1829 -0.0743 -0.2627
 4352W        W 8416   1.941   9.274   2.995  0.2153 -0.2605 -0.1602
 4353W        W 8417   1.416   0.620   9.589  0.1401 -0.2932  0.3054
 4354W        W 8418   0.870   3.254   2.793 -0.1002 -0.0789 -0.0351
 4355W        W 8419   5.513   9.753  11.000  0.0863 -0.3066  0.0670
 4356W        W 8420  10.624   3.397   0.112 -0.1085 -0.0551 -0.3444
 4357W        W 8421   5.595   7.685   9.507  0.1232 -0.2615 -0.3527
 4358W        W 8422   9.155   6.341   9.313  0.0700 -0.0519 -0.0246
 4359W        W 8423   5.478   9.147   3.162 -0.0249  0.0907  0.0841
 4360W        W 8424   4.418   0.111   0.413  0.0883  0.2376  0.0673
 4361W        W 8425   5.355   7.265   3.451 -0.0898 -0.2584 -0.1072
 4362W        W 8426   3.567   1.682   7.823 -0.2126  0.2793 -0.0715
 4363W        W 8427   8.394   4.245  10.364  0.0691  0.1008 -0.1874
 4364W        W 8428   6.301   5.281  10.105  0.2345 -0.4645  0.2250
 4365W        W 8429   1.652  10.452   8.671 -0.2852  0.0736  0.1105
 4366W        W 8430   4.118   6.044   2.366 -0.0022  0.2326 -0.0566
 4367W        W 8431   5.680   0.478   0.162  0.1261 -0.0574  0.0651
 4368W        W 8432   0.094   0.247  10.000 -0.1776  0.1462  0.1122
 4369W        W 8433   2.433   1.359   0.726  0.0827  0.1107  0.1749
 4370W        W 8434   7.277   2.759   2.047  0.0590  0.1950 -0.2778
 4371W        W 8435   4.328   9.792   1.180  0.0740  0.1731  0.1272
 4372W        W 8436   2.203   2.389   8.910 -0.1263  0.1939 -0.2005
 4373W        W 8437   3.414   4.227   8.568  0.0079 -0.1329  0.3009
 4374W        W 8438   9.585   7.462   2.922 -0.2852  0.1967 -0.4546
 4375W        W 8439   6.444   9.160   2.035  0.1615 -0.0612  0.1235
 4376W        W 8440   8.865   9.377   1.653  0.0389 -0.0352  0.1381
 4377W        W 8441   1.068   9.702   3.323 -0.2338  0.0297 -0.1071
 4378W        W 8442   1.194   1.445   9.019 -0.3517 -0.1018 -0.1603
 4379W        W 8443   4.759   5.831   4.254  0.0757 -0.6152  0.1801
 4380W        W 8444   9.834   1.842   2.134 -0.3187  0.0349  0.1274
 4381W        W 8445   6.432  10.344   8.966 -0.1452 -0.1700 -0.1129
 4382W        W 8446   5.699   9.173  10.716  0.1224 -0.0035  0.0379
 4383W        W 8447   3.404   8.840   7.783  0.1938  0.1456  0.1383
 4384W        W 8448   9.989   7.505   9.753  0.3111  0.2446 -0.0240
 4385W        W 8449   0.679   0.101  10.894 -0.0427 -0.0159 -0.0201
 4386W        W 8450   0.686   0.667   9.122  0.2751 -0.2021  0.2052
 4387W        W 8451   8.204   4.138   8.374 -0.0234  0.1613  0.1107
 4388W        W 8452   9.043   0.233   2.478 -0.0758 -0.3200 -0.1988
 4389W        W 8453   1.354  10.318   7.609  0.0215 -0.1416 -0.2085
 4390W        W 8454  10.008   7.128   8.440  0.0434 -0.0094  0.1579
 4391W        W 8455   4.639   4.390   0.979 -0.2636  0.0002  0.0930
 4392W        W 8456   0.929   2.680   3.686 -0.0788 -0.0690  0.1688
 4393W        W 8457   5.724   3.510   1.386 -0.2690  0.1853 -0.0325
 4394W        W 8458   4.498   0.175   8.879  0.1398  0.0039 -0.1007
 4395W        W 8459   9.837  10.047   2.174 -0.2106  0.4062  0.0865
 4396W        W 8460   0.878   1.820   8.939  0.2615 -0.1242  0.3534
 4397W        W 8461   3.511   1.460  10.840  0.0576  0.0286  0.1926
 4398W        W 8462   4.007   0.568   2.012  0.0200 -0.1062  0.2504
 4399W        W 8463  10.188   6.656   2.177  0.0930  0.1752  0.2771
 4400W        W 8464   8.254   4.256   9.789 -0.1353 -0.2327  0.2955
 4401W        W 8465   4.567   7.204   1.131  0.0574  0.0018 -0.3591
 4402W        W 8466   7.516   7.998  10.177  0.1234 -0.0926  0.4399
 4403W        W 8467   7.459   0.723   8.469 -0.2218  0.0612 -0.2048
 4404W        W 8468  10.363   0.054  10.336 -0.2128  0.0320  0.0480
 4405W        W 8469   0.495   9.552   0.487  0.1377  0.0018  0.0466
 4406W        W 8470   1.401   0.402  11.357 -0.1656 -0.0849  0.1103
 4407W        W 8471   7.577   0.946  10.185 -0.0710  0.2854 -0.0912
 4408W        W 8472   7.713   3.306   1.669  0.1184  0.3135  0.0747
 4409W        W 8473   6.336   7.541   1.848 -0.2537 -0.4460 -0.0114
 4410W        W 8474   3.765   9.193   3.040  0.0172  0.0867  0.0269
 4411W        W 8475   0.981   0.849   3.769 -0.1293 -0.2445 -0.2096
 4412W        W 8476   3.710  10.286   9.177  0.1817  0.0829  0.1016
 4413W        W 8477   3.255   4.517   1.274 -0.2640 -0.1975  0.0533
 4414W        W 8478   8.386   0.871   9.325 -0.0803  0.0806 -0.1683
 4415W        W 8479   3.915   2.209   0.964 -0.2724  0.0834  0.0141
 4416W        W 8480   8.049   1.788   1.486  0.2077 -0.0428 -0.0387
 4417W        W 8481   5.413   7.761   1.983 -0.1892 -0.0494 -0.0464
 4418W        W 8482   5.811   7.210  11.547 -0.0022 -0.0625  0.0235
 4419W        W 8483   2.727   4.047   9.615  0.0609  0.1119  0.1313
 4420W        W 8484   4.817   3.060   1.472 -0.4384 -0.0260  0.1658
 4421W        W 8485   2.161   1.024   8.864  0.0201  0.0045 -0.0229
 4422W        W 8486   4.250   6.580  11.284 -0.0972  0.2239  0.3595
 4423W        W 8487   9.250   4.255   9.208  0.2587  0.1672 -0.0869
 4424W        W 8488  10.424  10.013   3.000 -0.1325 -0.0303 -0.0288
 4425W        W 8489   6.455   0.787   8.496  0.0479  0.1532  0.0087
 4426W        W 8490   1.723   3.023   9.761  0.1431  0.4137 -0.1893
 4427W        W 8491   9.793   1.253   8.015  0.0426 -0.1073 -0.0429
 4428W        W 8492   3.491   7.507  11.060  0.1692  0.0672 -0.3521
 4429W        W 8493   6.206   8.545  11.154  0.3036 -0.2367 -0.0422
 4430W        W 8494  10.555   9.283   8.737 -0.0027  0.0507  0.1826
 4431W        W 8495   7.078   2.003   1.540  0.1498  0.2285  0.0397
 4432W        W 8496   8.011   9.557  10.712 -0.0747 -0.3025  0.2618
 4433W        W 8497   1.783   4.959   9.023  0.1578 -0.1456  0.3113
 4434W        W 8498   8.692   5.808   1.444  0.0823  0.0429 -0.4517
 4435W        W 8499   9.375   9.448   1.631  0.1887  0.0044  0.0116
 4436W        W 8500   8.161   0.328   9.792  0.0126  0.2556  0.2222
 4437W        W 8501   1.349   8.309   2.632  0.1447 -0.2248 -0.0183
 4438W        W 8502   7.891   0.044  10.283  0.1790 -0.1073  0.0783
 4439W        W 8503   9.692   0.153   9.652  0.2033 -0.0514  0.2974
 4440W        W 8504   6.024   8.614   9.043 -0.1515 -0.0112  0.0956
 4441W        W 8505   8.946  10.450   3.917  0.3456  0.0534  0.0005
 4442W        W 8506   3.867   1.407  10.010 -0.1504  0.2372  0.1913
 4443W        W 8507   4.544   3.446   1.918  0.0987 -0.0418 -0.1260
 4444W        W 8508   9.491   9.030   1.098 -0.0984  0.0895  0.1943
 4445W        W 8509   3.773   0.487   9.382  0.3850  0.2173 -0.0778
 4446W        W 8510   3.660   7.195   9.654 -0.0895  0.0264 -0.4755
 4447W        W 8511   5.141   2.352   8.041 -0.0700  0.0847  0.0158
 4448W        W 8512   3.924   3.087   0.460 -0.0202  0.1747 -0.1819
 4449W        W 8513   0.023   9.530   0.634 -0.1137 -0.0363  0.0379
 4450W        W 8514   4.417   7.100  10.352  0.4642  0.2113  0.0245
 4451W        W 8515   1.769   2.437   4.015 -0.2142 -0.1645  0.2022
 4452W        W 8516   8.161   2.092   0.014 -0.2029 -0.0390  0.0941
 4453W        W 8517   7.564   9.765  10.679  0.2496 -0.1609  0.0025
 4454W        W 8518  10.616   6.012   2.135  0.0046 -0.1724 -0.1237
 4455W        W 8519   2.407   2.178   3.178 -0.3124 -0.1049  0.0829
 4456W        W 8520  10.570   7.900  10.891  0.3977  0.1428 -0.2197
 4457W        W 8521   1.873   7.491   3.245 -0.2076  0.1128  0.0291
 4458W        W 8522   9.225   2.705   8.729 -0.2245 -0.1824  0.1870
 4459W        W 8523   9.345   1.761   2.869  0.2205  0.1446  0.2386
 4460W        W 8524   0.118   1.108   2.796 -0.0670 -0.2308  0.0894
 4461W        W 8525   5.792   5.422   8.027  0.2415 -0.3088  0.1053
 4462W        W 8526   6.116   6.906  11.172  0.2210 -0.2765 -0.0703
 4463W        W 8527   8.031   6.534   1.367  0.2040  0.0216 -0.1393
 4464W        W 8528   0.644   7.828   1.416 -0.0826  0.1959 -0.0110
 4465W        W 8529   6.009   1.178  10.004 -0.2164 -0.0520  0.3565
 4466W        W 8530   2.769   9.296   2.692  0.2388  0.1495  0.0503
 4467W        W 8531   2.445   1.596   3.247 -0.1082  0.1311 -0.0135
 4468W        W 8532   9.753  10.313   8.179 -0.0359 -0.1765  0.1300
 4469W        W 8533  10.470   8.871   9.403  0.0229 -0.0452 -0.1685
 4470W        W 8534   6.134   7.828  10.236  0.0033 -0.1795 -0.2256
 4471W        W 8535   3.019   3.920  11.103  0.0931  0.0682  0.1909
 4472W        W 8536   3.048   6.593   1.790 -0.1378 -0.3490 -0.0030
 4473W        W 8537   0.079   6.603   9.806  0.0582 -0.0464  0.3171
 4474W        W 8538   7.644   8.170   3.818  0.0586  0.1086  0.1068
 4475W        W 8539   4.116  10.068   7.811  0.1365 -0.0706 -0.0042
 4476W        W 8540   9.404   0.331  10.165 -0.1786  0.1625  0.1166
 4477W        W 8541   0.235   8.575   9.589 -0.2858 -0.3047 -0.0662
 4478W        W 8542   2.100   3.067   2.524  0.0478 -0.1483  0.3472
 4479W        W 8543   8.480   0.737   9.875  0.0990 -0.0262 -0.0786
 4480W        W 8544   6.969   4.398   8.380 -0.1857 -0.0055  0.1015
 4481W        W 8545   9.514   2.459   1.050  0.1840  0.0329  0.2417
 4482W        W 8546   4.756   7.819   8.970  0.0997 -0.0351  0.3148
 4483W        W 8547   4.600   9.145   7.897 -0.0049 -0.3059 -0.0602
 4484W        W 8548  10.007   0.592   3.221  0.0643 -0.0551  0.1093
 4485W        W 8549   9.822   1.368   0.577 -0.0268 -0.1798  0.2113
 4486W        W 8550   1.264   3.333   0.920 -0.1981  0.0528 -0.1911
 4487W        W 8551   3.683   3.635  10.500 -0.0651  0.0809 -0.2236
 4488W        W 8552   8.107   9.185  11.054  0.3283  0.0252 -0.0777
 4489W        W 8553   6.471   6.926   0.430 -0.0331 -0.0697  0.2348
 4490W        W 8554   2.908   2.368   2.991 -0.2635  0.2681  0.1183
 4491W        W 8555   8.750   5.968   0.485 -0.0621 -0.0270  0.2652
 4492W        W 8556   7.385   7.977  11.163 -0.1892 -0.1233 -0.3472
 4493W        W 8557   1.046   7.933   8.632 -0.0215 -0.0015  0.0935
 4494W        W 8558   1.270   7.140   1.439  0.1806 -0.0734 -0.2251
 4495W        W 8559   7.736   0.935   1.444 -0.0159 -0.1805  0.0129
 4496W        W 8560   8.947   1.496  10.415 -0.1455  0.2109 -0.0931
 4497W        W 8561   3.862   1.413   1.664  0.0288  0.2922 -0.2290
 4498W        W 8562  10.398   1.007   1.625  0.0640 -0.0721 -0.3238
 4499W        W 8563   1.972   0.351   2.471  0.0684 -0.2623  0.1317
 4500W        W 8564  10.406   6.594   1.410 -0.0473  0.1558 -0.0812
 4501W        W 8565   8.577   9.890   1.727  0.3103  0.0600 -0.0454
 4502W        W 8566   1.669   6.460   2.762 -0.1887 -0.0987 -0.3680
 4503W        W 8567   2.161   1.120  10.288  0.2139  0.0002 -0.0160
 4504W        W 8568   4.604   1.903   1.636  0.0943 -0.1725  0.0376
 4505W        W 8569   5.045   6.664  10.662 -0.0033 -0.0456 -0.0328
 4506W        W 8570   8.513   0.562   2.632  0.2036  0.3670  0.0459
 4507W        W 8571   4.047   8.498   9.729  0.2088  0.1215  0.0081
 4508W        W 8572   5.817   6.157   2.847  0.2172 -0.0733  0.2184
 4509W        W 8573   2.330   7.243   2.135  0.2622 -0.1174  0.2408
 4510W        W 8574   4.058   2.897   3.909  0.0894  0.1494 -0.0900
 4511W        W 8575   0.919   5.499   2.147  0.5605 -0.0960  0.1728
 4512W        W 8576   0.566   9.030   2.319  0.0665 -0.0136 -0.1400
 4513W        W 8577   8.722   4.840   1.960  0.2405 -0.0319 -0.2104
 4514W        W 8578   2.108   0.484   3.311  0.1717  0.1118  0.3070
 4515W        W 8579   3.018   7.646   3.249 -0.2383 -0.0374 -0.0341
 4516W        W 8580   1.105   7.671   0.281  0.1375  0.0915  0.2252
 4517W        W 8581   3.103   0.996   7.246 -0.1688  0.2597 -0.2865
 4518W        W 8582   2.885   3.623   9.325  0.0167 -0.0721 -0.3210
 4519W        W 8583   7.231   3.545   0.603  0.0657  0.0194  0.0048
 4520W        W 8584   6.241   5.126   2.245 -0.0389 -0.0680 -0.1203
 4521W        W 8585   7.715   0.375   2.043 -0.0970  0.0674 -0.2179
 4522W        W 8586   7.703   7.341  10.765  0.0096  0.2529  0.2057
 4523W        W 8587   1.895   7.614  10.831  0.1439 -0.0127 -0.3542
 4524W        W 8588   5.209   0.766  10.283  0.0042  0.1405 -0.0820
 4525W        W 8589   1.633   0.314  10.364 -0.1582  0.0164  0.1576
 4526W        W 8590   8.842   2.881  10.559 -0.2410  0.0185  0.2489
 4527W        W 8591   3.720   9.138   1.068 -0.0268 -0.1410  0.1067
 4528W        W 8592   5.324   1.440   8.304 -0.2683  0.1665 -0.3923
 4529W        W 8593   6.506   8.437   9.076 -0.0942  0.1919 -0.2428
 4530W        W 8594   7.238   7.946   1.186 -0.3487  0.0608  0.2078
 4531W        W 8595   9.806   8.121  11.420  0.3429  0.0203 -0.3056
 4532W        W 8596   5.545   8.088   9.844 -0.0107 -0.0237  0.4527
 4533W        W 8597   9.398  10.296   4.180 -0.0495  0.0754  0.1317
 4534W        W 8598   6.238   7.806   3.167  0.4202 -0.1818  0.3243
 4535W        W 8599   0.809   2.342   1.333  0.1232  0.3147  0.5033
 4536W        W 8600   1.352   1.845   2.067  0.2292  0.1471 -0.2105
 4537W        W 8601   2.498   9.380   9.816  0.1726 -0.5249 -0.1881
 4538W        W 8602   3.047   9.138  10.906 -0.0131 -0.0170 -0.2763
 4539W        W 8603   7.957   4.627   1.770  0.2222  0.0755  0.1318
 4540W        W 8604   4.805   3.800   0.980  0.2172 -0.1913  0.1431
 4541W        W 8605   1.097   0.337   3.149  0.4486 -0.0513 -0.4594
 4542W        W 8606   4.565  10.554   3.126 -0.0019  0.1131 -0.3932
 4543W        W 8607   5.299   9.356   4.122 -0.1125 -0.0426  0.0213
 4544W        W 8608   1.383   7.211   0.169 -0.0603 -0.0270  0.0786
 4545W        W 8609   9.721   2.141   3.108 -0.3275  0.4900  0.3899
 4546W        W 8610   1.254  10.392   2.306 -0.3314 -0.0525 -0.1992
 4547W        W 8611   0.543   8.483   3.729 -0.2697 -0.0875  0.2038
 4548W        W 8612   9.403   7.905   8.590  0.0392 -0.1122  0.1536
 4549W        W 8613   6.495   4.685   1.252  0.4213 -0.1935 -0.1838
 4550W        W 8614   0.115   2.975   0.448  0.3117 -0.0295  0.1120
 4551W        W 8615   6.135   0.598  10.547  0.1120  0.0834 -0.2386
 4552W        W 8616   5.411   3.778  10.939 -0.0585  0.2286 -0.0672
 4553W        W 8617   6.776   9.047   3.193  0.2168  0.2851  0.1423
 4554W        W 8618   3.820   5.694   2.286 -0.0750 -0.2234  0.1060
 4555W        W 8619   0.959   3.729   8.373 -0.2327 -0.2143  0.0991
 4556W        W 8620  10.131   4.473   1.612 -0.1634  0.1794 -0.0458
 4557W        W 8621   1.181   7.373  10.041  0.0512  0.0441  0.0747
 4558W        W 8622   8.796   9.807   3.904  0.0766  0.1309 -0.1289
 4559W        W 8623   0.751   5.836   0.942  0.2605  0.0341  0.1279
 4560W        W 8624   5.221   9.618   8.498  0.0601 -0.0028  0.1145
 4561W        W 8625   7.169   1.094   8.203 -0.1088 -0.0296 -0.0474
 4562W        W 8626   4.423   3.422  10.314  0.2597  0.0475 -0.0937
 4563W        W 8627   2.909  10.455   0.736 -0.1478  0.0088  0.0105
 4564W        W 8628   5.224  10.256   0.098 -0.3574  0.2546  0.0677
 4565W        W 8629  10.318   7.935   9.863 -0.2617 -0.4716 -0.0977
 4566W        W 8630   7.881   1.500   7.483  0.1538  0.1382  0.1001
 4567W        W 8631   9.742   0.337   1.742  0.2540 -0.3769 -0.0669
 4568W        W 8632   7.303   8.703   9.097 -0.0121  0.1968  0.1868
 4569W        W 8633   9.118  10.482   3.246 -0.0478 -0.2316 -0.1893
 4570W        W 8634   9.115   9.229  10.796  0.3773 -0.0816  0.2229
 4571W        W 8635   3.697   7.130   8.659 -0.0529  0.0191  0.0660
 4572W        W 8636   7.819   1.634   3.149 -0.0710  0.0978  0.1096
 4573W        W 8637   4.942   7.479   3.163  0.1069 -0.0869  0.0371
 4574W        W 8638   6.536   8.082  10.612 -0.0323 -0.1392  0.2159
 4575W        W 8639   6.418   5.460   3.644 -0.2594 -0.0545 -0.1035
 4576W        W 8640   9.155   5.637   1.534 -0.1449 -0.1693  0.2404
 4577W        W 8641   9.988   4.434  11.008 -0.0281  0.0130  0.3343
 4578W        W 8642   6.301   3.937  10.800 -0.0085 -0.0562 -0.1557
 4579W        W 8643   9.629   3.529  10.273 -0.3236 -0.3246  0.2386
 4580W        W 8644   0.607   1.305   2.211 -0.1024 -0.2991  0.1497
 4581W        W 8645   9.485   1.440   9.203  0.0564 -0.2090 -0.1305
 4582W        W 8646   8.150  10.023   0.457  0.0747 -0.0363  0.0206
 4583W        W 8647   9.601   1.030   8.948 -0.0529  0.3700 -0.2083
 4584W        W 8648   1.910   6.469   2.277 -0.2688  0.3536 -0.1351
 4585W        W 8649   0.655   1.799   7.373 -0.2582  0.2761  0.0140
 4586W        W 8650   9.435   3.504   8.687  0.2379  0.0487  0.1674
 4587W        W 8651   2.783   4.875   1.115  0.1488  0.2026  0.1609
 4588W        W 8652   9.992   4.324   2.077 -0.0312 -0.1701 -0.0858
 4589W        W 8653   5.323   2.427   4.403  0.3232  0.0800 -0.1926
 4590W        W 8654   7.848  10.051   0.023 -0.1623 -0.1959 -0.1787
 4591W        W 8655   6.639   7.422   2.256 -0.0566  0.1678 -0.2039
 4592W        W 8656   8.909   9.197   9.504 -0.0625 -0.3087  0.3131
 4593W        W 8657   7.821   3.677   4.224 -0.0632  0.2110  0.3629
 4594W        W 8658   7.101   0.924  11.298 -0.1055 -0.1040 -0.0822
 4595W        W 8659   2.640   7.595   2.324  0.1062  0.0232 -0.2359
 4596W        W 8660   9.164   9.961  10.333  0.0657 -0.0430  0.0620
 4597W        W 8661   3.078   6.481   8.551 -0.1460 -0.1608 -0.3989
 4598W        W 8662   1.821   6.992   2.196  0.0053 -0.0946  0.3828
 4599W        W 8663   0.922   1.427   7.117  0.0287 -0.0978  0.0918
 4600W        W 8664   9.019   5.152  10.239 -0.1855 -0.1150 -0.2372
 4601W        W 8665   8.186   5.527   9.507 -0.0681  0.1632 -0.3713
 4602W        W 8666  10.103   2.093   0.035  0.1142  0.0886  0.0155
 4603W        W 8667   2.053   4.605  11.529 -0.2056 -0.4245  0.1726
 4604W        W 8668   4.665   1.368   0.521 -0.0830 -0.2965 -0.1219
 4605W        W 8669   4.268   9.163   3.032  0.1868 -0.2702 -0.3845
 4606W        W 8670   4.455   7.374   9.141 -0.2736 -0.2725  0.2227
 4607W        W 8671   1.963   7.299   1.805 -0.3929 -0.0374  0.0929
 4608W        W 8672   8.289   2.479   9.451 -0.3500  0.3257  0.1402
 4609W        W 8673   0.740   8.644   9.631 -0.1327 -0.1728  0.3237
 4610W        W 8674   9.316   2.253  10.877  0.2384  0.1414  0.0613
 4611W        W 8675   9.514   1.489  10.351 -0.1044  0.0713 -0.3021
 4612W        W 8676   7.749   8.828   0.077  0.2646  0.2276  0.2758
 4613W        W 8677   8.486   4.994   1.511  0.0424  0.3210 -0.2070
 4614W        W 8678   2.303   6.893   0.362  0.0603 -0.1898  0.3420
 4615W        W 8679   6.026   5.761   1.233 -0.0771  0.1008 -0.1765
 4616W        W 8680   3.492   7.827   3.187 -0.0738  0.0534 -0.2743
 4617W        W 8681   7.021   5.260  10.414  0.0773  0.3161 -0.1911
 4618W        W 8682   4.151   7.340   8.693 -0.1436  0.0691 -0.5334
 4619W        W 8683   2.338   1.994  11.512  0.1737  0.1982  0.1389
 4620W        W 8684   0.722   8.794   3.259  0.2990 -0.3813 -0.1109
 4621W        W 8685   2.830   5.967   0.688 -0.2437 -0.1138 -0.1743
 4622W        W 8686   9.362   5.845   3.276 -0.1487 -0.0192  0.0862
 4623W        W 8687  10.286   0.384  10.695  0.0092 -0.1087 -0.0435
 4624W        W 8688   8.327   9.908  11.626  0.3622 -0.1115  0.1686
 4625W        W 8689   4.021   3.522   0.739 -0.0811  0.2188  0.0905
 4626W        W 8690   2.226   5.265   9.971  0.1292 -0.1500  0.0121
 4627W        W 8691  10.139   8.659   0.579 -0.1441  0.1602 -0.1218
 4628W        W 8692  10.331   4.638   2.387 -0.4455 -0.1675  0.1065
 4629W        W 8693   3.818   9.862   8.863 -0.5433 -0.0246 -0.0228
 4630W        W 8694   9.770   2.496   3.518  0.3278 -0.0138  0.1364
 4631W        W 8695   3.710   8.232  10.389  0.0981 -0.1985 -0.1017
 4632W        W 8696  10.517   0.701  10.339  0.0778 -0.2042  0.0800
 4633W        W 8697   6.971   9.824   7.707 -0.1828  0.3229  0.0703
 4634W        W 8698   4.511   8.098   8.187  0.1370  0.3324 -0.1007
 4635W        W 8699   9.456   0.475   2.435  0.1338  0.0844  0.0305
 4636W        W 8700   7.695  10.483   3.889 -0.1073  0.0972 -0.1254
 4637W        W 8701   5.672   5.068   3.074  0.2433  0.0646  0.0607
 4638W        W 8702   7.819   9.407   3.272  0.3697  0.2165  0.2754
 4639W        W 8703   0.282   4.373   0.189 -0.1835  0.1112 -0.2291
 4640W        W 8704   0.856   9.310   9.291  0.2995 -0.4702  0.0334
 4641W        W 8705   1.332   0.648   2.773  0.0435 -0.3124  0.1869
 4642W        W 8706   6.943  10.053   2.265  0.2112 -0.2193  0.1916
 4643W        W 8707   4.053   6.265   2.965  0.0384  0.2040  0.0526
 4644W        W 8708   7.235   1.763   0.026  0.0083 -0.0654 -0.0453
 4645W        W 8709  10.501   8.848   0.103 -0.1124  0.1753 -0.2978
 4646W        W 8710   4.752   1.962   0.100 -0.3121 -0.0496 -0.0975
 4647W        W 8711   4.164   7.163   9.544  0.0457 -0.3398  0.0559
 4648W        W 8712   6.152   2.040   1.557 -0.2144 -0.0739  0.0146
 4649W        W 8713   9.365   0.821   1.631 -0.0401  0.0291  0.0607
 4650W        W 8714   2.648   4.192   3.777  0.1396 -0.1432 -0.0911
 4651W        W 8715   6.396   7.945  11.092 -0.2956  0.0144  0.2177
 4652W        W 8716   6.018   0.533   4.165 -0.3721  0.0829  0.1902
 4653W        W 8717   3.582   9.996   2.650  0.0455 -0.0225 -0.1585
 4654W        W 8718   2.066   7.032   9.201 -0.1239 -0.0245  0.2901
 4655W        W 8719   0.613   8.983   0.532  0.3791 -0.0995 -0.2286
 4656W        W 8720   8.927   6.168   1.670  0.0414 -0.3052 -0.0083
 4657W        W 8721   5.619   2.860  10.062  0.1338  0.0770  0.0677
 4658W        W 8722   9.783   6.249   1.012 -0.1593  0.0435 -0.0755
 4659W        W 8723   2.013  10.239   2.888  0.1382  0.4717  0.2088
 4660W        W 8724   1.547   4.252   2.389 -0.1761 -0.0692  0.1238
 4661W        W 8725   4.533   3.135   8.583 -0.0124 -0.1965 -0.0736
 4662W        W 8726   4.230  10.132   2.047 -0.1230  0.0588  0.0884
 4663W        W 8727   7.529   2.124  10.725 -0.1627  0.0789 -0.1340
 4664W        W 8728   1.159   5.759   8.243  0.2598  0.0443  0.0121
 4665W        W 8729   7.117   5.508   2.371 -0.2144  0.1015  0.0099
 4666W        W 8730   6.392   5.130   8.818  0.0782  0.0191 -0.0747
 4667W        W 8731   0.858   1.508   9.849  0.0415 -0.0365 -0.2001
 4668W        W 8732   1.047   9.233   9.896 -0.1393  0.1616  0.0685
 4669W        W 8733   6.078   9.930   1.892  0.2657 -0.0464  0.0197
 4670W        W 8734   9.070   0.483  11.554  0.1191  0.0645 -0.0570
 4671W        W 8735   1.175   1.938   1.101  0.0435  0.0082  0.1389
 4672W        W 8736   7.560   2.587   8.213  0.0638 -0.0776  0.0817
 4673W        W 8737   7.204   1.578   9.411  0.0815 -0.0315  0.2209
 4674W        W 8738   0.367   4.032   2.962  0.1118 -0.1618  0.2952
 4675W        W 8739   6.083   6.123   9.472  0.1484  0.2367  0.1087
 4676W        W 8740   4.466   8.937   0.460 -0.0517  0.1911 -0.2523
 4677W        W 8741   1.707   3.512  10.059  0.1341  0.1707  0.2895
 4678W        W 8742   0.713   8.135   8.940  0.0207 -0.1233 -0.0415
 4679W        W 8743   3.285   0.379  11.422 -0.0757 -0.0468  0.0491
 4680W        W 8744   9.566   4.655   1.912 -0.2630  0.1018  0.1506
 4681W        W 8745   6.923   2.093   9.455  0.3429  0.2420 -0.0003
 4682W        W 8746   7.567   9.979   1.942  0.0291  0.0011 -0.0092
 4683W        W 8747   8.898   0.499  10.214 -0.0870 -0.1141  0.2785
 4684W        W 8748   0.084   2.253   1.749 -0.2508 -0.1823  0.0319
 4685W        W 8749   4.237   1.694   2.524  0.0265  0.1674  0.1493
 4686W        W 8750   2.904   8.404   9.932  0.0035  0.0323  0.1121
 4687W        W 8751   7.011  10.395   8.488 -0.2117 -0.0102 -0.0991
 4688W        W 8752   5.832   2.998  11.338 -0.1589  0.1145 -0.1815
 4689W        W 8753   7.103   7.753   2.255 -0.0588 -0.1523  0.2367
 4690W        W 8754  10.063   5.729  10.240  0.2043  0.0793 -0.0957
 4691W        W 8755   4.506   2.868   1.003 -0.4187 -0.0503 -0.3010
 4692W        W 8756   8.031   1.609   9.593  0.3233 -0.2523 -0.1519
 4693W        W 8757   1.613   5.521  10.963 -0.4233 -0.0450  0.0914
 4694W        W 8758   8.481   3.319   8.903 -0.1448  0.1675 -0.3026
 4695W        W 8759   8.302   9.725   2.301  0.1334  0.0331  0.1763
 4696W        W 8760   3.775   7.255   8.114  0.0901 -0.3914 -0.2238
 4697W        W 8761   5.118   6.616   0.702  0.0434 -0.1299  0.0440
 4698W        W 8762   2.834   9.636   3.935 -0.1987 -0.1582  0.0156
 4699W        W 8763   5.470   4.044   2.627 -0.3244 -0.4115 -0.5549
 4700W        W 8764   1.074   3.778   9.786  0.2528  0.2000  0.0981
 4701W        W 8765   0.211   5.898   0.925  0.0808 -0.2256 -0.2382
 4702W        W 8766   6.003   2.081   0.540  0.1764  0.0150 -0.0492
 4703W        W 8767   0.723   9.653   9.776 -0.2066 -0.0116  0.0329
 4704W        W 8768   9.138   9.639   2.655  0.0028 -0.0347  0.0672
 4705W        W 8769   1.482   9.506   1.532 -0.1429 -0.3772 -0.0163
 4706W        W 8770   4.124   4.651   9.735  0.0659  0.0835 -0.3193
 4707W        W 8771   7.031   6.552   9.458  0.2262  0.2069  0.1535
 4708W        W 8772   4.390   9.811   0.196  0.3363 -0.1508 -0.4475
 4709W        W 8773   3.555   0.636   2.388 -0.0741 -0.0531 -0.0743
 4710W        W 8774   8.508   9.053   0.337 -0.2137  0.2419  0.1091
 4711W        W 8775   9.040   2.630   9.609 -0.0623  0.1653  0.0389
 4712W        W 8776   9.749   3.335   9.299  0.3772  0.0221 -0.0981
 4713W        W 8777   3.765   2.039   9.317 -0.1465 -0.1701  0.0935
 4714W        W 8778   0.813   7.281   0.016  0.1413  0.1756 -0.6253
 4715W        W 8779   7.248   7.830   9.242  0.1908 -0.0116 -0.1814
 4716W        W 8780   7.835   7.094   0.405  0.2971  0.0737  0.5418
 4717W        W 8781   3.828   1.059   9.543  0.4474  0.1549 -0.0632
 4718W        W 8782   6.159   1.111   8.143 -0.2326  0.1643 -0.0918
 4719W        W 8783   5.880   4.446   9.966 -0.3498 -0.0113 -0.1834
 4720W        W 8784   1.941   4.653  10.934 -0.0167 -0.2333 -0.1094
 4721W        W 8785   5.154  10.425   1.727  0.1586 -0.0223 -0.0597
 4722W        W 8786   3.589   4.297  11.272 -0.4290 -0.0372 -0.5026
 4723W        W 8787   3.319   3.284  11.490 -0.3251 -0.3482 -0.1667
 4724W        W 8788   8.181   8.665   1.340  0.0665 -0.2366 -0.1822
 4725W        W 8789   9.714   9.187   8.450 -0.1728 -0.0857  0.0857
 4726W        W 8790   2.419   0.733   9.500  0.0478 -0.2924 -0.0314
 4727W        W 8791   5.880   0.475   7.249  0.0691  0.0475  0.0583
 4728W        W 8792   9.585   3.161   2.950  0.0336 -0.5671 -0.0063
 4729W        W 8793   0.199   8.969  11.343 -0.0395  0.1538  0.0296
 4730W        W 8794   1.145   9.387  10.398 -0.0357 -0.0414  0.0870
 4731W        W 8795   3.125   9.186   2.274 -0.1772  0.1735  0.2110
 4732W        W 8796   0.792   3.188   8.908  0.1215  0.3284  0.0105
 4733W        W 8797   1.793   4.713   0.749 -0.1203 -0.2300 -0.2549
 4734W        W 8798   3.092   5.264  10.902  0.0857  0.0400  0.2811
 4735W        W 8799   7.860   0.297   6.965 -0.0277 -0.2785  0.0245
 4736W        W 8800   8.294   8.632   2.449  0.3095 -0.1026  0.3071
 4737W        W 8801   8.206  10.546  10.647 -0.0238  0.0018 -0.0346
 4738W        W 8802   1.743   2.033   1.118  0.0086  0.3218  0.0069
 4739W        W 8803   0.029   7.244   3.683 -0.1393  0.3431 -0.0850
 4740W        W 8804   3.068   9.744   8.581 -0.1624 -0.0624 -0.0390
 4741W        W 8805   0.710   4.820   2.650  0.0562  0.1320  0.2462
 4742W        W 8806  10.207   7.593   0.541 -0.1065  0.1640 -0.0443
 4743W        W 8807   2.924   5.966   1.294  0.0258 -0.0792 -0.2693
 4744W        W 8808   9.510   5.387   8.359  0.1310  0.1240 -0.0984
 4745W        W 8809   2.846   8.830  11.251 -0.3491 -0.2240  0.0865
 4746W        W 8810   3.239   5.779   3.287 -0.1891  0.1567 -0.0374
 4747W        W 8811   3.537   9.374   8.559  0.0483  0.1769 -0.0697
 4748W        W 8812   6.211   1.126   0.063 -0.0763  0.2594 -0.0627
 4749W        W 8813   6.554   2.463   9.489 -0.4497  0.1214 -0.1973
 4750W        W 8814   3.868   9.599  10.584 -0.2379 -0.0926 -0.2957
 4751W        W 8815   8.499   9.708  11.055  0.0213 -0.3567 -0.0646
 4752W        W 8816   8.418   5.667   0.796  0.1872  0.1362 -0.1974
 4753W        W 8817  10.288   8.014   3.865  0.1713  0.1325  0.0513
 4754W        W 8818   8.338   5.467   8.013 -0.0797 -0.0168 -0.4455
 4755W        W 8819   5.475   2.828   0.831 -0.1200 -0.3825  0.0624
 4756W        W 8820   6.519   4.492   9.505  0.0904 -0.0716 -0.2332
 4757W        W 8821   1.094   7.594   1.388 -0.3394 -0.1990  0.0442
 4758W        W 8822  10.044  10.553   1.987 -0.2734 -0.0103 -0.0429
 4759W        W 8823   7.420   9.477   9.425 -0.1296 -0.0846  0.3468
 4760W        W 8824   5.780   3.028   1.164 -0.1799 -0.0387  0.2008
 4761W        W 8825   7.904   9.376   8.606 -0.1925 -0.2089 -0.2745
 4762W        W 8826   3.502   1.466   9.696  0.0367 -0.0672 -0.2285
 4763W        W 8827   8.308   8.122  10.944  0.0769 -0.0633  0.1070
 4764W        W 8828   8.398   9.273   8.730  0.0947  0.1063 -0.0909
 4765W        W 8829   9.393   4.116  11.368  0.0181  0.1311 -0.0384
 4766W        W 8830  10.454   4.031  10.939  0.2009 -0.2151  0.0938
 4767W        W 8831   7.878   9.561   8.126  0.0255 -0.0802 -0.0491
 4768W        W 8832   5.841   3.779   2.393 -0.2634  0.1923  0.2876
 4769W        W 8833   2.527   0.152   9.826 -0.0168 -0.2284 -0.0298
 4770W        W 8834   1.164   5.716   1.223  0.0970  0.0789 -0.4030
 4771W        W 8835   6.354   9.554   3.561 -0.0609  0.1833 -0.2483
 4772W        W 8836   6.545   5.328   3.153 -0.0743 -0.0695  0.0708
 4773W        W 8837   5.853   9.698   3.782  0.0339 -0.4503 -0.0712
 4774W        W 8838   9.273   8.509   1.061 -0.0814 -0.0459  0.1282
 4775W        W 8839   2.793   2.078   8.248 -0.1052  0.1293  0.1327
 4776W        W 8840   4.386   8.498  11.401 -0.0444 -0.1490  0.2383
 4777W        W 8841  10.298   1.102   2.550  0.0089 -0.2194 -0.0369
 4778W        W 8842   0.731   0.139   1.222  0.1333  0.1088  0.0693
 4779W        W 8843   7.071   4.040   2.858  0.0052 -0.2543 -0.2290
 4780W        W 8844   3.269   1.412   8.624 -0.0468 -0.1400  0.1215
 4781W        W 8845   4.363   3.921   7.919 -0.2533  0.0664  0.2257
 4782W        W 8846   6.151   2.226   2.057 -0.0029  0.1633  0.2661
 4783W        W 8847   4.880   2.945   0.651  0.1231 -0.2760 -0.0159
 4784W        W 8848   5.903   8.419   1.729  0.0667 -0.2781  0.0334
 4785W        W 8849   2.679   4.307  10.876  0.1405  0.1044  0.0898
 4786W        W 8850   5.510   2.610   3.640 -0.0255  0.2671 -0.5281
 4787W        W 8851   4.864   5.446  10.115 -0.0080 -0.0474  0.1363
 4788W        W 8852   5.123   3.946   9.459 -0.0480 -0.0790 -0.1245
 4789W        W 8853   7.858   7.203   8.035  0.1885 -0.0273  0.0116
 4790W        W 8854   0.105   8.227  10.597  0.0408 -0.0334  0.3351
 4791W        W 8855   5.861  10.459   2.448 -0.0375 -0.0033 -0.0736
 4792W        W 8856   3.318   9.935   2.226  0.2548 -0.2426  0.1679
 4793W        W 8857   7.946   3.667  11.595 -0.1106  0.0494  0.0889
 4794W        W 8858   6.056   9.490   9.912  0.3631 -0.1520  0.0014
 4795W        W 8859   7.195   3.585   4.359  0.0205 -0.1732 -0.2663
 4796W        W 8860   2.623   7.197   9.573  0.0626  0.2824 -0.3079
 4797W        W 8861   4.273   2.213   3.024  0.0519 -0.0423  0.0858
 4798W        W 8862   9.901   0.027   0.322  0.0284  0.1123  0.1073
 4799W        W 8863   0.884   1.087   8.918  0.2037 -0.0748  0.0898
 4800W        W 8864   1.054   6.256   8.832 -0.0273  0.1984  0.0796
 4801W        W 8865   0.882   0.884   1.736  0.0438 -0.4287 -0.1322
 4802W        W 8866   4.542   8.405   7.713  0.0913  0.2591 -0.2387
 4803W        W 8867   1.021   9.796  10.800  0.2512  0.0086 -0.2791
 4804W        W 8868   5.367   3.522   2.616  0.0299 -0.4465  0.1287
 4805W        W 8869   0.405   1.477   0.457 -0.4685  0.1898 -0.2341
 4806W        W 8870   1.173   5.498   9.165 -0.0579 -0.3405  0.1162
 4807W        W 8871   9.844   8.405   3.956 -0.1700  0.0523  0.2844
 4808W        W 8872   9.344   2.306   2.760  0.2771 -0.2167  0.1355
 4809W        W 8873  10.527   8.998   3.555  0.0016 -0.5708  0.0026
 4810W        W 8874   6.525   3.037  10.727  0.1452  0.0593  0.1786
 4811W        W 8875   8.529   8.854   7.941 -0.0287  0.0355 -0.3662
 4812W        W 8876   8.740   6.662  11.261 -0.0109 -0.0851  0.0513
 4813W        W 8877   4.429   8.021  11.110  0.1443 -0.1337  0.0171
 4814W        W 8878   2.671   1.973   9.933  0.0174 -0.0175 -0.1341
 4815W        W 8879  10.584   7.922   1.988  0.2627 -0.1656  0.1657
 4816W        W 8880   4.728   7.941  10.667 -0.0780  0.0879 -0.1116
 4817W        W 8881   3.006   2.812   9.186  0.2027 -0.0182  0.0180
 4818W        W 8882   9.221   4.779   0.341  0.0354 -0.2452 -0.1825
 4819W        W 8883   4.604   5.566   2.414  0.2059  0.1716  0.0122
 4820W        W 8884   0.976   7.171   1.860 -0.2521  0.1359  0.2679
 4821W        W 8885   1.497   0.388   0.269  0.3543 -0.2473 -0.0220
 4822W        W 8886   1.147   3.626   1.863  0.2666 -0.0076  0.0908
 4823W        W 8887   2.345   2.737   2.958 -0.2823  0.0668  0.3253
 4824W        W 8888  10.453   7.335   0.957  0.2216 -0.3018 -0.2287
 4825W        W 8889   2.499   4.852   0.013  0.1407  0.3559  0.1126
 4826W        W 8890   7.872   9.148   9.583  0.0354 -0.1490 -0.1451
 4827W        W 8891   9.614  10.275  11.395  0.0263 -0.2929 -0.0474
 4828W        W 8892   6.267   4.975   0.167 -0.0904  0.1298 -0.2144
 4829W        W 8893   9.041   3.443   0.319 -0.0499  0.1700  0.1997
 4830W        W 8894   8.381   0.627   8.847 -0.3479  0.0029  0.1896
 4831W        W 8895   5.985   6.579   9.708  0.3290  0.0267 -0.0318
 4832W        W 8896   5.573   4.008   1.034  0.0729  0.0357  0.0937
 4833W        W 8897   1.791   6.881   1.361 -0.1517 -0.2512  0.3938
 4834W        W 8898   8.148   2.684  11.257  0.0869 -0.1113 -0.1058
 4835W        W 8899   8.914   1.202   3.957  0.2171  0.0825 -0.2786
 4836W        W 8900   4.532   4.394   9.889 -0.0224  0.3669 -0.2377
 4837W        W 8901   8.772   8.488   9.229 -0.0147 -0.1104  0.2703
 4838W        W 8902   0.121   8.938   2.540  0.0551  0.2863 -0.0662
 4839W        W 8903   3.215   1.586   1.555  0.1539  0.1105  0.2734
 4840W        W 8904   3.074   6.745   0.947 -0.1646  0.2708  0.1035
 4841W        W 8905   9.138   0.363   0.962  0.1996  0.1544  0.1109
 4842W        W 8906   8.136   7.195  11.132 -0.0185 -0.1560  0.2378
 4843W        W 8907   7.060   1.996   7.283  0.1235  0.1577 -0.1641
 4844W        W 8908  10.143   4.120   1.289  0.1609 -0.0847  0.2074
 4845W        W 8909   1.965   8.918   0.223  0.2237 -0.0184  0.0517
 4846W        W 8910   5.111   3.489  11.288 -0.1735 -0.1483  0.3365
 4847W        W 8911   5.376   6.532  11.097 -0.1996  0.1317 -0.1005
 4848W        W 8912  10.440   8.927   1.701 -0.1205  0.1252 -0.0828
 4849W        W 8913   0.896   6.161  10.735  0.0040  0.1350  0.2564
 4850W        W 8914   0.502   2.469  10.189 -0.2268  0.2646  0.2532
 4851W        W 8915   5.271   8.072   8.369  0.1256 -0.2163 -0.1384
 4852W        W 8916   3.761   0.745  11.472 -0.2879 -0.1766  0.0207
 4853W        W 8917   6.813   7.251   3.151 -0.0569  0.2231  0.2197
 4854W        W 8918   7.261   9.724   1.288 -0.0522  0.1286 -0.1992
 4855W        W 8919   7.098  10.237   3.301  0.0265 -0.1948  0.0606
 4856W        W 8920   3.266   0.689   0.494 -0.4083  0.0131 -0.2524
 4857W        W 8921  10.507   2.372   7.463  0.0605 -0.0368 -0.0604
 4858W        W 8922   9.463   4.190   1.040  0.2028  0.1549 -0.0685
 4859W        W 8923   8.441   4.645   8.600 -0.0410 -0.0805 -0.0140
 4860W        W 8924   9.020   3.838  11.592  0.1323 -0.0124  0.1282
 4861W        W 8925   1.890   9.680   2.690  0.3118  0.0980  0.0224
 4862W        W 8926   6.994   9.359   7.914  0.1076  0.0300  0.1227
 4863W        W 8927   0.111   2.956   3.788 -0.0329 -0.0561  0.1514
 4864W        W 8928   4.005   2.973   0.950 -0.3484 -0.0140  0.0125
 4865W        W 8929   3.791   9.112   3.706 -0.1373 -0.2521  0.0188
 4866W        W 8930   1.939   6.053   0.701  0.2252 -0.2603 -0.0938
 4867W        W 8931   4.948   3.082   9.988 -0.0649  0.0102 -0.3955
 4868W        W 8932   4.248   2.418  11.052  0.2033 -0.0509  0.1361
 4869W        W 8933   5.376   9.950  10.509  0.0818  0.0860  0.2054
 4870W        W 8934   6.785   9.570   2.349 -0.2584  0.4823  0.2678
 4871W        W 8935   4.054   9.244   2.000  0.0761  0.0375  0.0133
 4872W        W 8936   1.506   6.746  11.067 -0.0546 -0.3172 -0.3940
 4873W        W 8937   1.423   9.921   2.516  0.3468 -0.5491  0.2091
 4874W        W 8938   2.472   1.673   8.344 -0.0817 -0.0459 -0.0284
 4875W        W 8939   0.764  10.218   3.055 -0.1959  0.0228 -0.0378
 4876W        W 8940   7.982   2.262   1.545  0.2263 -0.0629  0.1395
 4877W        W 8941   9.772   4.853   1.559 -0.1587  0.1152  0.0098
 4878W        W 8942   0.585   2.737   1.074 -0.2637 -0.0861 -0.0872
 4879W        W 8943   2.303   8.549   9.805  0.2614 -0.1456  0.0884
 4880W        W 8944  10.490   6.834   1.003  0.0233  0.0556  0.0326
 4881W        W 8945   5.109   1.254   0.743  0.5714 -0.0765  0.0876
 4882W        W 8946   1.151   4.642   2.347  0.1762 -0.1513 -0.2151
 4883W        W 8947   1.284   1.083   1.511  0.0312 -0.2503 -0.0528
 4884W        W 8948  10.166   2.274   7.791 -0.2101  0.1332  0.3911
 4885W        W 8949   3.096   3.432  11.018 -0.0549  0.0850 -0.3836
 4886W        W 8950   4.950   8.106   3.650  0.0915 -0.1432 -0.0091
 4887W        W 8951  10.467   7.197   3.266  0.0840 -0.0859 -0.0859
 4888W        W 8952   5.924   4.360  10.806  0.0191  0.3342 -0.0862
 4889W        W 8953   9.892   5.007   0.655  0.1224  0.1157 -0.1312
 4890W        W 8954   3.052   5.225   0.826  0.2593  0.2987 -0.0402
 4891W        W 8955   5.495   4.111   9.842  0.2516  0.0723  0.2957
 4892W        W 8956   9.147   4.460  11.041 -0.2463 -0.1547  0.2987
 4893W        W 8957   2.457   5.684   1.326  0.0101  0.0213  0.0812
 4894W        W 8958   7.197   8.926   2.761 -0.2362 -0.3243  0.0829
 4895W        W 8959   6.741   3.260   9.101  0.2582 -0.1943  0.1619
 4896W        W 8960  10.595   1.244   8.364  0.2316  0.1603 -0.1168
 4897W        W 8961   6.153   8.060   2.652  0.0711  0.2373  0.0461
 4898W        W 8962   9.969   6.680  10.454  0.1324 -0.0613 -0.1968
 4899W        W 8963   1.691   7.067  11.435  0.1585  0.1632 -0.1006
 4900W        W 8964   0.743  10.380   8.397 -0.0107 -0.0188 -0.1177
 4901W        W 8965   7.006   5.838   3.023  0.4856  0.2753 -0.0618
 4902W        W 8966   6.058   6.404  11.502  0.0274  0.1636 -0.1665
 4903W        W 8967   2.767   2.325   3.507  0.0470  0.0391  0.2024
 4904W        W 8968   9.344   4.535   1.483 -0.0007 -0.1654  0.0781
 4905W        W 8969   0.622   4.895   2.176 -0.1102  0.0706 -0.1923
 4906W        W 8970   6.430   3.730  10.273 -0.0804 -0.0693 -0.2023
 4907W        W 8971   0.372   0.263   2.437  0.2501 -0.1011  0.0840
 4908W        W 8972   2.615   4.942   9.637  0.1757 -0.0561 -0.0860
 4909W        W 8973   7.697   7.014  11.172  0.0941  0.1862 -0.2171
 4910W        W 8974   2.324   7.684   8.267  0.1864  0.0666  0.1847
 4911W        W 8975   1.454   5.049   8.462  0.1110  0.0673 -0.1261
 4912W        W 8976   4.260  10.537   2.709  0.3205 -0.1089 -0.0396
 4913W        W 8977   5.437   3.934   2.112 -0.0600 -0.3825  0.0170
 4914W        W 8978   4.760   4.568   8.917  0.1694 -0.1234 -0.1065
 4915W        W 8979  10.045   8.784   1.103 -0.1494 -0.1367  0.1447
 4916W        W 8980   4.844   0.791   1.379 -0.0914 -0.1911 -0.3031
 4917W        W 8981   2.237   4.487   3.707 -0.2330  0.0292 -0.1516
 4918W        W 8982   8.254  10.562   9.437  0.1639 -0.0317 -0.3919
 4919W        W 8983   7.034   9.412   2.784  0.1288  0.1110 -0.1614
 4920W        W 8984   1.442   1.979  11.351  0.2059 -0.1175  0.0475
 4921W        W 8985   2.479   6.648  10.930  0.0378 -0.3379  0.0396
 4922W        W 8986   6.542   9.724   0.084  0.2024  0.2013  0.1441
 4923W        W 8987   2.024   7.087  10.963  0.0800  0.2818  0.4381
 4924W        W 8988   6.698   8.101   8.155  0.1660  0.1235 -0.0492
 4925W        W 8989   1.973   0.882   8.175  0.5852  0.1101 -0.0498
 4926W        W 8990   5.859   1.825   9.184  0.0749  0.1228 -0.3540
 4927W        W 8991   3.327   4.892   8.726  0.2686  0.0303 -0.1616
 4928W        W 8992   2.911   2.326   1.980 -0.1815 -0.3686 -0.1237
 4929W        W 8993   8.888   4.008   9.495  0.0992 -0.3140  0.2220
 4930W        W 8994   5.063   0.307   1.652 -0.1237  0.1562  0.0402
 4931W        W 8995   5.605  10.470   1.967  0.0725  0.2591 -0.1850
 4932W        W 8996   8.611   3.351   9.382  0.2267  0.0416 -0.0991
 4933W        W 8997   1.513   4.724  11.418 -0.3840  0.0831 -0.0831
 4934W        W 8998   8.823   0.988   9.631 -0.2466 -0.0779 -0.1972
 4935W        W 8999   1.290   4.013   3.220 -0.1611  0.2047 -0.0017
 4936W        W 9000   1.506   0.157   9.480 -0.0914  0.1776 -0.0100
 4937W        W 9001   2.746   8.909   8.488  0.0990  0.0475 -0.4252
 4938W        W 9002  10.566   0.296   8.498 -0.1131 -0.3578 -0.1672
 4939W        W 9003  10.618   0.022   8.994  0.1346 -0.1972 -0.1179
 4940W        W 9004   6.144   2.482   9.758  0.0383 -0.2705  0.1748
 4941W        W 9005   6.814   1.215   7.241 -0.0787 -0.3705 -0.1190
 4942W        W 9006   8.314   0.173   1.783 -0.1553 -0.2087  0.1044
 4943W        W 9007   8.460   0.343   7.609 -0.2588 -0.1140 -0.1065
 4944W        W 9008   6.854   9.046   8.733  0.0217  0.0546 -0.0660
 4945W        W 9009   3.953   7.270   0.601 -0.0445 -0.1812  0.0642
 4946W        W 9010   3.666   5.547  11.120 -0.2436  0.0196  0.0934
 4947W        W 9011   5.210   7.695   2.477 -0.2733 -0.0253  0.1144
 4948W        W 9012   1.706   1.303   0.591  0.0384 -0.0443  0.0716
 4949W        W 9013   7.316   1.466   3.076  0.0239 -0.3373 -0.2861
 4950W        W 9014   7.804   9.817   9.803 -0.0547  0.0881  0.1247
 4951W        W 9015   8.682   1.995  10.324  0.0284 -0.1311 -0.0223
 4952W        W 9016  10.374   1.818   9.844  0.1869  0.0529  0.0769
 4953W        W 9017   2.187   9.291   0.598 -0.2203  0.2505  0.0291
 4954W        W 9018   6.218   0.887  10.934  0.0493 -0.2843  0.1627
 4955W        W 9019  10.228   8.785  11.107  0.1548  0.0362  0.0301
 4956W        W 9020   2.459   9.994   1.616 -0.0886  0.1216  0.0216
 4957W        W 9021   9.962   9.841   3.157  0.4099 -0.0985  0.0233
 4958W        W 9022   9.244   0.669   4.001 -0.1443 -0.2704  0.0921
 4959W        W 9023   5.827   6.967   2.304  0.1583  0.2384  0.3779
 4960W        W 9024  10.124   5.858   1.449 -0.0590 -0.1179 -0.1367
 4961W        W 9025   0.297   9.654   1.447  0.1752 -0.0590 -0.1074
 4962W        W 9026   5.357   7.176   2.581  0.0434  0.0352 -0.0274
 4963W        W 9027   8.331   8.416   9.001  0.0315 -0.3432 -0.1024
 4964W        W 9028   6.032  10.454  11.197  0.0515 -0.0615 -0.1109
 4965W        W 9029   2.736   6.685   1.401 -0.3231 -0.1741  0.0528
 4966W        W 9030   6.168   3.512   2.629 -0.0439  0.3366 -0.3172
 4967W        W 9031   8.315   6.844   1.657 -0.2425 -0.0421 -0.0306
 4968W        W 9032   8.052   1.838   2.444  0.2012 -0.2004  0.0655
 4969W        W 9033   7.419   6.177  11.305  0.2240 -0.1523  0.1148
 4970W        W 9034   3.235   5.900  10.068  0.1918  0.1736 -0.1774
 4971W        W 9035   5.653   0.791   0.916 -0.0904 -0.0284 -0.0004
 4972W        W 9036   0.158   6.009  11.258  0.1453 -0.1384 -0.1979
 4973W        W 9037   4.161   8.829   2.229 -0.2707 -0.2535 -0.1742
 4974W        W 9038   7.754  10.362  11.193 -0.0697  0.3868 -0.0782
 4975W        W 9039   9.478   4.609  11.564  0.4089 -0.1357 -0.0082
 4976W        W 9040   5.168   8.605   0.428  0.0516 -0.1520  0.1440
 4977W        W 9041   2.200  10.054   2.481  0.0297 -0.0535 -0.1188
 4978W        W 9042   2.407   5.354   1.707  0.1332  0.0213  0.1682
 4979W        W 9043   8.482   4.964   2.954 -0.3361  0.2796  0.0111
 4980W        W 9044   8.069   1.084   3.170  0.0698 -0.0065 -0.0517
 4981W        W 9045   0.511   5.711  10.019  0.0041 -0.0300 -0.2774
 4982W        W 9046   9.241   1.933  10.312 -0.2250  0.1605  0.2543
 4983W        W 9047   6.906   6.364   8.466  0.0468 -0.1192 -0.2578
 4984W        W 9048   7.047   8.293   9.148 -0.0101 -0.0017  0.4252
 4985W        W 9049   0.640  10.419   9.587 -0.0173 -0.0113  0.1118
 4986W        W 9050   0.874   5.012  10.336  0.0652  0.1193 -0.1548
 4987W        W 9051  10.139   4.998   1.196 -0.0951  0.2929  0.0154
 4988W        W 9052   2.006   6.485  10.994  0.1794 -0.1631 -0.2630
 4989W        W 9053   7.401   9.653   7.913 -0.3499 -0.2979  0.2259
 4990W        W 9054   6.419  10.524  10.837 -0.0396  0.0426  0.3960
 4991W        W 9055   5.183   4.811   8.926  0.0801  0.0318 -0.1656
 4992W        W 9056   8.586   1.301   7.886  0.0067  0.0084  0.3324
 4993W        W 9057  10.488   0.850   8.656 -0.0296 -0.1378 -0.0507
 4994W        W 9058   2.027   6.826   2.653 -0.0185  0.1427  0.0451
 4995W        W 9059   4.345   0.921   1.957  0.0380 -0.1259  0.0102
 4996W        W 9060  10.369   3.242   0.598  0.1154  0.0986 -0.1880
 4997W        W 9061   0.506   6.425   3.579  0.0360  0.0525  0.2514
 4998W        W 9062  10.552   5.585   2.705 -0.1690  0.1528 -0.1709
 4999W        W 9063  10.287   5.933  11.239 -0.1290 -0.0647  0.1997
 5000W        W 9064   3.648   3.080   3.097 -0.2722 -0.1381 -0.0015
 5001W        W 9065   9.202   4.201   0.644  0.0635 -0.1607  0.1561
 5002W        W 9066   6.677   7.854  11.506  0.3078  0.0253 -0.0583
 5003W        W 9067   3.546   3.422   9.530 -0.2102 -0.0346 -0.1617
 5004W        W 9068   9.881  10.092  10.275  0.2778 -0.2001  0.0209
 5005W        W 9069   9.853   6.885   2.476  0.0378  0.0080 -0.0068
 5006W        W 9070   5.599   0.465  10.457  0.3426  0.0907 -0.2542
 5007W        W 9071   4.418   2.389   0.840  0.0859 -0.1115  0.0245
 5008W        W 9072   9.380   1.075   0.637  0.2366 -0.0042  0.0064
 5009W        W 9073   9.725   7.503   0.533 -0.1849 -0.0520  0.1481
 5010W        W 9074   7.431  10.463   7.248 -0.0938  0.0663  0.1434
 5011W        W 9075   4.602   9.380   0.416 -0.0507 -0.2266 -0.3337
 5012W        W 9076   6.797   4.356   1.783  0.2039 -0.1255  0.1253
 5013W        W 9077   9.047   9.420  11.302 -0.0011  0.0784  0.1399
 5014W        W 9078   1.707   2.528   3.536 -0.4037  0.0993 -0.4052
 5015W        W 9079   1.260  10.577  11.474 -0.1932  0.0188  0.1384
 5016W        W 9080   9.153   7.771   3.153 -0.2798 -0.0365 -0.1420
 5017W        W 9081   6.568   7.092   2.651 -0.0788 -0.2166  0.1395
 5018W        W 9082   1.175   4.162  11.005  0.2733 -0.0442 -0.0793
 5019W        W 9083   1.768   5.585  11.464 -0.1730  0.0378 -0.0802
 5020W        W 9084  10.309   3.181   3.391 -0.2498 -0.1105  0.2659
 5021W        W 9085   1.227   9.467   9.553 -0.1694 -0.2415 -0.0697
 5022W        W 9086   1.150   5.852   2.444  0.1834 -0.0242 -0.2131
 5023W        W 9087   1.318   4.793  10.375  0.1541 -0.1395 -0.1759
 5024W        W 9088   0.026   4.032   8.314 -0.1001  0.2025  0.0876
 5025W        W 9089   2.080   9.054  10.602 -0.1444  0.1452 -0.4350
 5026W        W 9090   6.445   4.407  10.730 -0.0970  0.4316  0.1947
 5027W        W 9091  10.056   7.830   2.032  0.0490  0.1698 -0.0163
 5028W        W 9092   3.685   5.007   0.828  0.0643 -0.0944 -0.1964
 5029W        W 9093   7.535   6.657   9.155 -0.1004  0.2922  0.0474
 5030W        W 9094   8.277   3.172   1.790 -0.1251  0.2269 -0.1994
 5031W        W 9095   8.265  10.601   2.748  0.0422  0.1557  0.1135
 5032W        W 9096   1.274   3.809   9.176  0.0586 -0.3131  0.1358
 5033W        W 9097   8.843   5.064   9.741  0.0435 -0.2947 -0.0466
 5034W        W 9098   3.019   1.621   4.211 -0.0305 -0.4117 -0.0605
 5035W        W 9099   7.433   4.510   9.313  0.0572 -0.1764 -0.0066
 5036W        W 9100  10.596   6.202   9.487 -0.1349 -0.0281  0.1804
 5037W        W 9101   9.507   1.863   1.011 -0.1362  0.0274  0.0343
 5038W        W 9102  10.003   2.594   0.198 -0.1217 -0.3042 -0.0740
 5039W        W 9103   9.862   5.761   3.435  0.2713 -0.0590 -0.1063
 5040W        W 9104   4.001   7.391   0.009  0.1107 -0.1440 -0.0849
 5041W        W 9105   8.684   6.068   9.219  0.1571  0.0346  0.2317
 5042W        W 9106   7.816   5.216   3.323 -0.0701 -0.0415  0.0439
 5043W        W 9107   1.299   2.191  10.341 -0.1055  0.0923 -0.3397
 5044W        W 9108   9.216   9.871   3.090  0.1913  0.1272 -0.1585
 5045W        W 9109   2.253   1.608  11.056  0.1472  0.1488  0.3332
 5046W        W 9110   9.052   8.622   2.582 -0.0580  0.2800 -0.3353
 5047W        W 9111   7.130   3.648   0.146  0.1114 -0.0456  0.1862
 5048W        W 9112   2.339   0.420   2.844 -0.2009 -0.2469  0.4669
 5049W        W 9113   8.340   2.653  10.560 -0.0061  0.0465 -0.0344
 5050W        W 9114   4.577   6.162   1.167  0.0711 -0.1504  0.0046
 5051W        W 9115   7.453   6.136  10.164  0.2106 -0.0770  0.0388
 5052W        W 9116   4.571   8.517   2.211  0.0917 -0.0738  0.0407
 5053W        W 9117   7.858   1.115   8.411  0.1538 -0.3527 -0.0811
 5054W        W 9118   0.298  10.246   0.056 -0.1901 -0.0536 -0.0376
 5055W        W 9119   0.578   4.672  10.172 -0.1527  0.2145 -0.1622
 5056W        W 9120   8.921   4.118   4.088 -0.0876 -0.0237 -0.0309
 5057W        W 9121   6.482   6.074  11.518  0.2564 -0.1910 -0.2591
 5058W        W 9122   9.507   8.687   2.319  0.4599  0.0421  0.1476
 5059W        W 9123   4.424   2.840   9.519 -0.0331  0.1583  0.1799
 5060W        W 9124   9.097   8.774   8.620 -0.0091  0.0365  0.1439
 5061W        W 9125   5.171   7.970   1.114 -0.2727 -0.0321 -0.0269
 5062W        W 9126   9.743   2.020   2.622  0.2882  0.0079  0.0229
 5063W        W 9127   6.745   7.704   8.538 -0.4314  0.1036 -0.0907
 5064W        W 9128   7.287   3.105   0.098 -0.3008  0.2247 -0.1294
 5065W        W 9129   5.101   6.765  11.431 -0.0378 -0.1711 -0.1679
 5066W        W 9130   3.452   4.099   9.777 -0.1430  0.2745 -0.0457
 5067W        W 9131   5.998   0.791   7.830  0.0504  0.2717 -0.3494
 5068W        W 9132   7.100   7.162  10.311  0.2417 -0.1196 -0.1057
 5069W        W 9133   8.466   8.715   0.721  0.1028  0.2201  0.0387
 5070W        W 9134   2.861   5.746   2.952 -0.0428 -0.0304 -0.0551
 5071W        W 9135   0.624   9.813   7.424 -0.2317  0.2986 -0.2743
 5072W        W 9136   5.642   0.295   1.732  0.0345 -0.4163  0.1427
 5073W        W 9137   9.701   7.516   9.369 -0.0232  0.0209  0.0361
 5074W        W 9138   2.218   3.299   8.990  0.5363 -0.1864 -0.2195
 5075W        W 9139   6.121   5.493  10.961 -0.1069 -0.1159  0.0563
 5076W        W 9140   2.835   3.099  10.704 -0.0384 -0.2138  0.0245
 5077W        W 9141   6.552   3.158   2.861  0.2303  0.0415 -0.1317
 5078W        W 9142   8.884   8.010   1.660  0.3874  0.0067 -0.1893
 5079W        W 9143   7.247   4.547   2.694 -0.1370 -0.3693 -0.0217
 5080W        W 9144   6.970   6.216  10.353 -0.0057  0.1139  0.0765
 5081W        W 9145   7.746   2.967   0.377 -0.1981  0.1156 -0.2210
 5082W        W 9146   1.759   8.595   1.881 -0.0515  0.0724 -0.0465
 5083W        W 9147   1.994   2.352  11.462  0.1704 -0.1130 -0.0245
 5084W        W 9148   9.219   0.190   9.718  0.2579  0.2275 -0.1367
 5085W        W 9149   4.750   6.795   0.351  0.0772  0.0987  0.0435
 5086W        W 9150   8.083  10.197   0.935 -0.1580  0.1435 -0.0983
 5087W        W 9151   2.968   2.003   1.463  0.0133 -0.0475  0.1055
 5088W        W 9152   6.947   0.706   7.382 -0.0095 -0.0267 -0.1694
 5089W        W 9153   5.463   3.673   9.068 -0.0399 -0.0112  0.0959
 5090W        W 9154   2.232   2.221   3.705  0.0259 -0.2649 -0.0552
 5091W        W 9155   3.569   1.471   0.262 -0.2996 -0.5540 -0.0650
 5092W        W 9156   8.429   7.805   9.789  0.2171  0.1279 -0.0497
 5093W        W 9157   8.237   2.404   0.819 -0.0426 -0.2465  0.4178
 5094W        W 9158   0.727   3.450   3.233  0.2122  0.0379  0.1209
 5095W        W 9159   4.328   1.932  11.105  0.0712  0.1164  0.0061
 5096W        W 9160   8.420   3.823  10.173 -0.2191  0.0688 -0.1334
 5097W        W 9161  10.062   5.112   8.294 -0.0487  0.3370 -0.0194
 5098W        W 9162   7.099   4.095   3.392 -0.2206  0.3062  0.1639
 5099W        W 9163  10.188   4.323   8.932 -0.0327 -0.0405 -0.0872
 5100W        W 9164   3.317   1.631   3.864 -0.3116  0.1451  0.0763
 5101W        W 9165   7.819   2.289   1.019 -0.3957 -0.0841 -0.0046
 5102W        W 9166   6.548   1.829   2.246  0.2516  0.0989  0.1924
 5103W        W 9167   4.683   6.080   0.135  0.0849 -0.0179 -0.4391
 5104W        W 9168   2.830   0.496   0.696  0.2013  0.0437 -0.0047
 5105W        W 9169   6.217   4.838  10.784 -0.2035 -0.2457 -0.1606
 5106W        W 9170   5.864   1.987   9.899  0.2562  0.0583 -0.1679
 5107W        W 9171   1.252   6.628   1.362 -0.1272 -0.0553 -0.0688
 5108W        W 9172   7.436   9.318   2.408 -0.3023 -0.0832 -0.2408
 5109W        W 9173   1.756   0.916   1.872 -0.0293 -0.0601  0.0491
 5110W        W 9174   8.945   4.698  11.495 -0.0589 -0.0037  0.1266
 5111W        W 9175   5.572   3.669   0.351 -0.2546  0.3808  0.0682
 5112W        W 9176   7.600  10.412   3.332  0.2861 -0.3840  0.1978
 5113W        W 9177   8.935   4.975   3.245 -0.0790 -0.0817  0.0280
 5114W        W 9178   1.244   6.692   4.087  0.1274  0.0955  0.0824
 5115W        W 9179   6.382   6.943   7.960 -0.0153  0.0027  0.0145
 5116W        W 9180   4.405   7.335   0.261  0.0473  0.4263 -0.1903
 5117W        W 9181   4.000   6.146   9.503  0.0538  0.1888  0.0137
 5118W        W 9182   5.382   5.711   8.130 -0.1804 -0.2629  0.2815
 5119W        W 9183   7.807   5.988  11.615 -0.2099 -0.0530  0.0088
 5120W        W 9184   3.129   2.112   0.752 -0.2750 -0.2664 -0.0134
 5121W        W 9185   6.865   6.379  11.162  0.0235 -0.1823  0.2369
 5122W        W 9186   3.723   3.405  11.109  0.0288 -0.0612 -0.3987
 5123W        W 9187   5.151   5.254  11.234 -0.1754  0.0324 -0.0485
 5124W        W 9188   4.640   2.859   9.063  0.0639  0.2137  0.0650
 5125W        W 9189   3.640   6.160  11.226 -0.3252 -0.0988 -0.1622
 5126W        W 9190   7.342   0.410   2.694  0.2068  0.1468 -0.2387
 5127W        W 9191   0.021   3.037   2.603  0.0514  0.2313 -0.3276
 5128W        W 9192   6.427   5.828   2.926 -0.1477 -0.0573  0.0220
 5129W        W 9193   8.304   6.906   0.678 -0.4121 -0.0976  0.1322
 5130W        W 9194   5.185  10.439   0.886  0.1357 -0.3076 -0.1607
 5131W        W 9195   1.448   1.463   2.868 -0.1351 -0.0923 -0.3782
 5132W        W 9196   1.996   8.639   3.649  0.1527  0.1263 -0.2434
 5133W        W 9197   4.754   0.944  10.671  0.2376 -0.0157 -0.1380
 5134W        W 9198   4.405   2.592   8.665 -0.0912 -0.0433 -0.2168
 5135W        W 9199   2.984   6.882   3.852  0.1028  0.0516 -0.0923
 5136W        W 9200   9.244   1.858   0.062  0.0534 -0.2498  0.5327
 5137W        W 9201   0.764   1.091   0.293 -0.2524 -0.2871  0.1162
 5138W        W 9202   0.632   3.453  11.026  0.3066 -0.0612 -0.0187
 5139W        W 9203   5.526   1.505   7.842  0.2795  0.0564  0.1198
 5140W        W 9204   8.986   1.857   3.656  0.0550 -0.0159 -0.0788
 5141W        W 9205   0.270   2.721   2.042 -0.1433  0.0130 -0.1408
 5142W        W 9206   0.239   2.187   2.230  0.2715 -0.1643  0.0271
 5143W        W 9207   3.659   1.662   3.377 -0.2728  0.1235 -0.1303
 5144W        W 9208   2.683   4.708   3.531  0.0446  0.0113  0.3516
 5145W        W 9209   5.119   6.707   1.813 -0.1030 -0.2788 -0.0002
 5146W        W 9210   7.704   9.667   1.566  0.1743 -0.0621  0.0623
 5147W        W 9211   4.196   2.232   9.550  0.1805  0.0027 -0.0709
 5148W        W 9212   2.929   1.292   1.984 -0.1089  0.1164  0.4703
 5149W        W 9213   3.930   9.977  10.252 -0.2302 -0.1343 -0.0228
 5150W        W 9214   4.036  10.128   2.591  0.2500 -0.0856 -0.0573
 5151W        W 9215   7.121   7.004   3.563 -0.0655 -0.2519 -0.1582
 5152W        W 9216   7.244   9.551   1.997 -0.3833  0.0875 -0.2031
 5153W        W 9217  10.165   5.484  11.279 -0.1898 -0.0133  0.3338
 5154W        W 9218   5.627   1.258   0.734 -0.1568  0.1380  0.0414
 5155W        W 9219   3.182  10.067   8.146  0.1467  0.0523 -0.0819
 5156W        W 9220   5.455   9.469  10.426  0.0562 -0.0317  0.0846
 5157W        W 9221   0.891   3.184   1.954 -0.2732  0.3460 -0.1784
 5158W        W 9222  10.482   5.000   0.805 -0.2480 -0.3600  0.2487
 5159W        W 9223   5.105   9.966   1.498 -0.3110 -0.4490 -0.2898
 5160W        W 9224   7.096  10.546   7.819 -0.2476 -0.1644  0.2048
 5161W        W 9225   5.127   0.126  10.216  0.1039  0.0858  0.3568
 5162W        W 9226   4.802   7.948   2.670 -0.1860  0.1061 -0.0349
 5163W        W 9227  10.622   8.348  10.072  0.0024  0.2279  0.2075
 5164W        W 9228   9.494   5.987  10.941 -0.0156  0.1065 -0.1346
 5165W        W 9229   0.180   5.327   9.593  0.2857 -0.1990  0.0663
 5166W        W 9230   3.462   0.946   8.515 -0.1732  0.1436  0.2472
 5167W        W 9231   0.097   5.521  11.261 -0.0282 -0.1425 -0.1294
 5168W        W 9232   5.585  10.514   3.009 -0.3098 -0.2261  0.3253
 5169W        W 9233   8.747  10.056   0.245 -0.0294 -0.0803 -0.0794
 5170W        W 9234   8.508   8.364   1.701 -0.0250 -0.1189  0.0846
 5171W        W 9235   2.894   1.320   8.273  0.1032 -0.3720  0.2562
 5172W        W 9236  10.389   4.539   1.051 -0.1437  0.3360 -0.0847
 5173W        W 9237   4.827   5.735   0.470  0.1859 -0.1304 -0.2808
 5174W        W 9238   9.568   3.494  11.600 -0.2135 -0.0676 -0.0110
 5175W        W 9239   5.618   3.190   8.216 -0.1660 -0.2093  0.0751
 5176W        W 9240   3.673   0.999   9.000  0.0145 -0.1464 -0.0797
 5177W        W 9241   8.896   5.892  10.887  0.0146 -0.2955 -0.1952
 5178W        W 9242   7.915   5.768   3.378 -0.0238 -0.1453 -0.2605
 5179W        W 9243  10.268   0.669   2.104  0.0450  0.0527  0.2655
 5180W        W 9244   9.968   9.905   0.918  0.2477 -0.0467 -0.1866
 5181W        W 9245   7.956   5.921   8.650  0.0883 -0.0416 -0.1340
 5182W        W 9246   5.205   8.821   1.243 -0.0058 -0.1364 -0.1524
 5183W        W 9247   5.841   3.656   1.870 -0.1474  0.1497 -0.1835
 5184W        W 9248   6.443   9.694  11.167 -0.1088 -0.0331 -0.1486
 5185W        W 9249   6.363   1.616   0.204 -0.2295  0.2924 -0.0776
 5186W        W 9250   3.548   3.232   0.935  0.0583  0.4894  0.3822
 5187W        W 9251   5.632   6.774   9.237 -0.1810 -0.3157  0.1298
 5188W        W 9252   7.274   6.013   8.439  0.0445  0.0321 -0.0245
 5189W        W 9253   1.104   0.851   8.014 -0.3490 -0.1361  0.2097
 5190W        W 9254   6.434   5.749   1.654  0.2062  0.0012  0.0654
 5191W        W 9255   1.501   3.096   8.556 -0.0253 -0.0573 -0.0293
 5192W        W 9256   0.237   9.363   3.431  0.0627 -0.1421 -0.1861
 5193W        W 9257   8.813   4.134   8.994  0.0199  0.0684  0.0835
 5194W        W 9258   6.587   9.684   9.889  0.0163 -0.1649  0.0154
 5195W        W 9259   7.006   0.865   2.543 -0.2434 -0.2576  0.1673
 5196W        W 9260   5.058   9.348  11.551  0.3282  0.2202 -0.3271
 5197W        W 9261   1.830   3.146   1.203 -0.0708  0.0927  0.0596
 5198W        W 9262   0.139   4.458  10.914  0.0784  0.1475 -0.0766
 5199W        W 9263   9.314   8.403   8.380 -0.0144 -0.2855  0.0284
 5200W        W 9264   4.149   8.627   8.775  0.0548 -0.0320 -0.2985
 5201W        W 9265   6.355   7.517  10.690 -0.0607 -0.1983  0.0812
 5202W        W 9266   4.701   0.823  10.185 -0.1298  0.0873  0.0269
 5203W        W 9267   7.616   2.588   2.439  0.1914  0.3319 -0.0640
 5204W        W 9268   1.225  10.506   8.550  0.0231 -0.1441 -0.3159
 5205W        W 9269   9.154   1.226   8.950 -0.0340 -0.2463 -0.0114
 5206W        W 9270   9.082   7.795   8.995  0.1827  0.2238  0.1236
 5207W        W 9271   1.410   3.280   3.480 -0.4380  0.1487  0.1543
 5208W        W 9272   5.348   3.563   1.727 -0.0959 -0.2088 -0.0901
 5209W        W 9273   4.976   4.238   2.201  0.0248 -0.0772  0.1713
 5210W        W 9274   5.487   8.343   2.016  0.0841 -0.0012 -0.2354
 5211W        W 9275   4.155   9.192  10.743  0.0379 -0.0953 -0.0380
 5212W        W 9276   4.378   3.625   8.297  0.1857  0.4836  0.0378
 5213W        W 9277   4.645  10.492   0.815  0.1553 -0.2206 -0.2209
 5214W        W 9278   7.688   6.528   9.722 -0.1609 -0.1817  0.1556
 5215W        W 9279  10.447   0.595   2.991 -0.0693 -0.0242 -0.3266
 5216W        W 9280  10.419   7.441   8.447 -0.0886  0.1723  0.1703
 5217W        W 9281   0.519   1.106  10.751 -0.1801  0.0284  0.0188
 5218W        W 9282   6.740   1.109   1.292 -0.3061  0.1291 -0.0349
 5219W        W 9283   8.130   1.060   2.105 -0.1005  0.0685  0.0225
 5220W        W 9284   4.822   7.260  11.578 -0.1397  0.4154 -0.4972
 5221W        W 9285   4.910   3.502   8.558  0.1199  0.0719  0.3006
 5222W        W 9286   6.057   3.498   0.580  0.3502  0.0333  0.3408
 5223W        W 9287   7.732   9.781  11.204 -0.0895 -0.1294 -0.0398
 5224W        W 9288   0.055   4.412   1.435 -0.0815  0.4018  0.1432
 5225W        W 9289   8.345   4.369  10.881  0.0358 -0.2459  0.4421
 5226W        W 9290   4.015   2.754   1.752 -0.1003 -0.2878  0.1214
 5227W        W 9291   0.452   2.959   2.949 -0.0052 -0.2467 -0.0467
 5228W        W 9292   2.754   8.030   3.083  0.0418  0.0262  0.1867
 5229W        W 9293   8.452   2.407   0.230 -0.2510  0.0958  0.1426
 5230W        W 9294  10.595   5.717   9.830 -0.0762 -0.0661  0.0670
 5231W        W 9295  10.307   5.293   0.397 -0.0773  0.1349  0.0958
 5232W        W 9296   8.534   5.086   0.201  0.3285  0.0867  0.1049
 5233W        W 9297   3.233   8.910   9.235  0.0827  0.0143  0.4467
 5234W        W 9298   3.244   5.699   0.886  0.1799  0.3241 -0.0806
 5235W        W 9299   3.390   5.484   0.417 -0.0291  0.4696  0.1505
 5236W        W 9300   7.229   9.418   8.930  0.0041 -0.0909  0.0541
 5237W        W 9301   5.046   2.546  11.408 -0.0549  0.2415 -0.2610
 5238W        W 9302   7.919   7.599   3.397 -0.1019 -0.1180  0.0037
 5239W        W 9303   1.214   9.030   8.956  0.0146  0.0273  0.0057
 5240W        W 9304   7.743   9.270   9.122 -0.0499  0.1097  0.0674
 5241W        W 9305   0.063   8.362   0.258  0.0259  0.0496  0.1524
 5242W        W 9306   5.913   3.886   9.010  0.0953  0.2585  0.0692
 5243W        W 9307   5.849   5.748   8.452 -0.2326  0.1974  0.0274
 5244W        W 9308   6.322   0.528   1.070  0.0595  0.2560  0.1282
 5245W        W 9309   9.808   4.738   0.234 -0.2374  0.1475 -0.1211
 5246W        W 9310   6.457   9.640   1.336 -0.0329 -0.0731 -0.1612
 5247W        W 9311   9.253   9.456   8.180 -0.1090 -0.0103  0.1322
 5248W        W 9312   1.338   1.871   2.579 -0.0365 -0.1269  0.0394
 5249W        W 9313   6.462   3.989   0.847  0.2450 -0.0276  0.1675
 5250W        W 9314   7.278   4.293   1.859  0.1344  0.2163  0.1810
 5251W        W 9315   5.608   9.136   1.431  0.0877  0.2674  0.0283
 5252W        W 9316   4.648   8.217   3.187 -0.1011 -0.2068 -0.0289
 5253W        W 9317   1.524   8.104  11.293  0.0776 -0.3242  0.0757
 5254W        W 9318   5.706   0.387   3.032 -0.3368  0.0733 -0.1176
 5255W        W 9319   0.321   3.086   1.326  0.1665  0.1645  0.4853
 5256W        W 9320   7.162   5.821   3.827 -0.0737 -0.1772 -0.3943
 5257W        W 9321  10.386   0.218   1.229 -0.2273 -0.0456  0.1177
 5258W        W 9322   6.307   1.360  10.847  0.1778  0.0840  0.1329
 5259W        W 9323   0.963   5.513  10.107  0.1816  0.2117  0.3259
 5260W        W 9324   0.513   1.106   1.307  0.0737 -0.3737  0.0763
 5261W        W 9325   8.855   3.784   7.715  0.2117 -0.1091  0.0759
 5262W        W 9326   0.952   6.487   9.488 -0.0649 -0.2014 -0.1357
 5263W        W 9327   7.994   8.497  10.819  0.2090  0.1275 -0.0419
 5264W        W 9328   2.472   2.461   7.520 -0.1426  0.0277  0.0942
 5265W        W 9329   6.047   6.725   0.728  0.1956  0.1055  0.2841
 5266W        W 9330   3.085   0.658   1.631 -0.0689 -0.1422  0.0181
 5267W        W 9331   1.754   1.871   2.843  0.0879  0.1440  0.0925
 5268W        W 9332   3.705  10.106   1.293 -0.1234 -0.0246  0.1513
 5269W        W 9333   8.229   7.679   9.301 -0.2593  0.2563 -0.0693
 5270W        W 9334   1.889   0.604   8.601  0.0593 -0.0269 -0.0446
 5271W        W 9335   6.711   8.785   9.849 -0.0723 -0.2436  0.0497
 5272W        W 9336   9.222   2.478   3.765 -0.0698  0.1978 -0.1949
 5273W        W 9337   7.235   9.899  10.993 -0.2376 -0.0443 -0.1022
 5274W        W 9338   9.154   6.061   0.235 -0.3288  0.0740 -0.3356
 5275W        W 9339   9.372   7.619   3.910 -0.0116  0.2266  0.2478
 5276W        W 9340   0.209   7.589   1.125 -0.1394  0.0458  0.0441
 5277W        W 9341   6.504   7.849   4.329  0.1757 -0.0486 -0.2116
 5278W        W 9342   7.240   7.554  10.518 -0.1231 -0.1754 -0.1162
 5279W        W 9343   4.007   6.634   2.640  0.0985 -0.0489  0.1017
 5280W        W 9344   1.234   2.997   0.097  0.1593  0.0335 -0.1103
 5281W        W 9345   4.448   8.864  11.077 -0.1152 -0.0390  0.3104
 5282W        W 9346   8.175   0.539   2.236 -0.0516  0.0314  0.1125
 5283W        W 9347   2.432   5.290   0.318 -0.1363 -0.2705 -0.2563
 5284W        W 9348   7.848   8.528   9.121 -0.0368  0.2494  0.0096
 5285W        W 9349   8.881   1.934   0.493  0.1907 -0.3264  0.2429
 5286W        W 9350   0.063   1.421   1.793  0.1537  0.2557 -0.1538
 5287W        W 9351   4.280   5.490   0.104 -0.1186 -0.2687 -0.0341
 5288W        W 9352   2.865   4.645   8.831  0.0246 -0.1572  0.1849
 5289W        W 9353   4.501   7.901  10.153  0.2213 -0.1285 -0.1628
 5290W        W 9354   3.765   7.977   1.938 -0.1128 -0.0306  0.1096
 5291W        W 9355   9.659   3.808   3.695 -0.1256  0.2684  0.3263
 5292W        W 9356   2.441   1.417  10.579  0.1691  0.1163  0.1144
 5293W        W 9357   7.614  10.437   2.592  0.0244 -0.0960  0.1424
 5294W        W 9358   4.813   0.170   7.916  0.0103 -0.0579 -0.2649
 5295W        W 9359   9.303   2.800   2.738 -0.3151  0.0481  0.3194
 5296W        W 9360   0.831   0.192   9.927  0.0511 -0.2394  0.1505
 5297W        W 9361   5.942   8.912   3.153 -0.3215  0.0125  0.2325
 5298W        W 9362   4.000   0.622   8.963 -0.0334  0.1596 -0.2182
 5299W        W 9363   5.119   3.445   9.428 -0.0498 -0.0640  0.1345
 5300W        W 9364   9.369   6.295   1.258  0.0566 -0.1799  0.1158
 5301W        W 9365   4.596  10.089  10.266 -0.1209 -0.0533 -0.0629
 5302W        W 9366   8.059   5.005   8.208 -0.0165  0.0703 -0.1683
 5303W        W 9367   2.607   1.012   3.452 -0.0248 -0.1031 -0.1918
 5304W        W 9368   8.616   4.299   0.625 -0.2421  0.0036  0.0386
 5305W        W 9369   1.193  10.039  11.458  0.2257 -0.1171  0.1187
 5306W        W 9370   3.337  10.465   0.982 -0.2011 -0.0793 -0.1080
 5307W        W 9371   3.441   4.402   0.661  0.2510  0.1200  0.0610
 5308W        W 9372  10.002   2.682   2.075  0.2597 -0.1923 -0.0165
 5309W        W 9373   4.793   1.412  10.722  0.1852  0.3132 -0.2711
 5310W        W 9374   5.747   1.553   7.386  0.0331  0.2883 -0.0188
 5311W        W 9375   8.582   7.475   1.944  0.2783  0.1355  0.0093
 5312W        W 9376   2.963   4.473   0.929 -0.0488 -0.0159 -0.2716
 5313W        W 9377   4.189   4.084   9.259 -0.1271 -0.0003 -0.1750
 5314W        W 9378   8.087   3.949  10.673 -0.1993  0.0239 -0.2225
 5315W        W 9379   1.394   3.518   8.311 -0.0298 -0.2422 -0.1942
 5316W        W 9380   2.847   8.183   1.001  0.1803 -0.0110 -0.2143
 5317W        W 9381   5.204   7.505   9.807 -0.1127  0.4086  0.1540
 5318W        W 9382   9.101  10.260   9.841  0.1197 -0.1756 -0.0159
 5319W        W 9383   8.259   1.035  10.147  0.1076  0.2055 -0.1199
 5320W        W 9384   0.914   9.189   2.927 -0.2000  0.0585  0.0925
 5321W        W 9385   6.445   0.736   7.992 -0.0299  0.2028 -0.1667
 5322W        W 9386   0.664   2.462   3.238  0.0980 -0.1709 -0.0397
 5323W        W 9387   1.119   3.024   2.408 -0.0713  0.0835 -0.0114
 5324W        W 9388  10.585  10.017  10.903 -0.1065  0.0489 -0.0842
 5325W        W 9389   7.966   6.963   1.927  0.0184  0.0667 -0.5366
 5326W        W 9390  10.106   1.387   9.718 -0.0170  0.2196  0.0286
 5327W        W 9391   5.603  10.029   1.754 -0.3188 -0.0681 -0.3076
 5328W        W 9392   7.712   3.331   9.490  0.2992  0.0643 -0.1026
 5329W        W 9393   7.682   3.046  11.399 -0.4978  0.0012  0.0113
 5330W        W 9394   6.447   0.204   1.937 -0.2436  0.0168 -0.1221
 5331W        W 9395   0.565   3.071   2.404 -0.0912 -0.0446 -0.0285
 5332W        W 9396   6.877   6.684  10.292  0.0006  0.2762  0.0485
 5333W        W 9397   5.728   6.500  10.170  0.1938 -0.0972  0.3913
 5334W        W 9398   8.366   1.471   2.347  0.1413 -0.4341  0.2253
 5335W        W 9399   0.229   5.595   1.376  0.0727  0.2975  0.0408
 5336W        W 9400   7.699   4.647   8.881  0.0978 -0.0908  0.3047
 5337W        W 9401   2.783   1.696  10.876  0.0614 -0.2730  0.0519
 5338W        W 9402   6.483   1.269   3.945 -0.1380  0.0658 -0.3329
 5339W        W 9403   6.223   1.335   2.203 -0.0121  0.0396  0.1102
 5340W        W 9404   3.980   0.959   8.542  0.2170  0.2251  0.3367
 5341W        W 9405   7.498   5.004   1.929  0.1747  0.2434 -0.1454
 5342W        W 9406   7.114   5.623   0.420  0.2060 -0.1890 -0.2228
 5343W        W 9407   2.076   0.141   9.375 -0.0040 -0.0741  0.0708
 5344W        W 9408   0.313   6.578   2.669  0.1259 -0.2840 -0.0189
 5345W        W 9409   4.641   8.376   0.416 -0.2552 -0.4245 -0.0089
 5346W        W 9410   8.866   2.594   3.431 -0.0257 -0.1027  0.2412
 5347W        W 9411   6.341  10.052   2.310  0.0384  0.0628  0.0323
 5348W        W 9412   7.482   0.864   2.539 -0.1171 -0.2122  0.0550
 5349W        W 9413   5.856   3.673   3.976 -0.2263 -0.0295  0.5251
 5350W        W 9414   6.534   2.587  10.243 -0.1048  0.0501  0.1276
 5351W        W 9415   6.401   7.942   9.353  0.0005  0.3508  0.0995
 5352W        W 9416   8.753   7.891  10.759  0.1051 -0.0558 -0.1345
 5353W        W 9417   8.571   5.099   8.301 -0.1140 -0.2177 -0.0299
 5354W        W 9418   4.112   1.684   3.534  0.0389  0.0351  0.0287
 5355W        W 9419   1.632   5.735   1.685 -0.1339  0.0144 -0.1095
 5356W        W 9420   8.440   6.845   9.747  0.0070  0.1379  0.0806
 5357W        W 9421  10.010   3.262   9.833  0.1866  0.4276  0.3863
 5358W        W 9422   3.949   4.535   3.253 -0.2255  0.0445  0.1553
 5359W        W 9423  10.485   2.567   2.318 -0.0150 -0.0499 -0.0673
 5360W        W 9424   7.234   1.695   1.064  0.2409 -0.1631  0.1317
 5361W        W 9425   2.507  10.495   1.236  0.3573  0.2147  0.0239
 5362W        W 9426   2.147   9.022   9.895 -0.0479  0.2074 -0.2107
 5363W        W 9427   4.841   7.601  10.289 -0.2367  0.0583  0.4109
 5364W        W 9428   4.840   3.749   8.045 -0.1536  0.4440 -0.0938
 5365W        W 9429   1.402   3.422   0.434 -0.1169 -0.0331  0.2036
 5366W        W 9430   7.685   8.581   1.257  0.1779  0.1898 -0.1791
 5367W        W 9431   2.970   1.777   8.567  0.0903 -0.0937  0.2932
 5368W        W 9432   8.893   5.754   1.932  0.1759 -0.2291 -0.0460
 5369W        W 9433   2.798   4.494  10.370  0.0409 -0.1206  0.3327
 5370W        W 9434   0.696   8.874   1.423 -0.0484 -0.1617 -0.4307
 5371W        W 9435   8.169   9.459   9.853  0.1097 -0.2633 -0.0135
 5372W        W 9436   8.623   5.649   8.491  0.1240 -0.0578 -0.1730
 5373W        W 9437   7.621   3.829   3.255  0.2312 -0.3415  0.2011
 5374W        W 9438   3.336   2.574   9.729 -0.0526  0.0841  0.1636
 5375W        W 9439   6.118   1.367   3.531 -0.1999  0.0902 -0.0345
 5376W        W 9440   7.292   3.226   9.208 -0.1097  0.1113 -0.0090
 5377W        W 9441   1.322   1.920   3.175  0.2628  0.0744  0.0030
 5378W        W 9442   2.489   2.110  10.835 -0.0469 -0.0615  0.0715
 5379W        W 9443   6.305   3.441   8.377  0.1897 -0.0963  0.3329
 5380W        W 9444   5.983   3.426   9.125 -0.1128 -0.1373  0.1840
 5381W        W 9445  10.309   1.015   9.375  0.0687 -0.0645  0.0426
 5382W        W 9446   1.998   0.482   0.849 -0.0906  0.0699 -0.4038
 5383W        W 9447   8.380   6.249   3.079  0.2689  0.0986 -0.4812
 5384W        W 9448   9.916   8.035  10.908  0.2210 -0.0041  0.0375
 5385W        W 9449   8.123   2.037   8.253 -0.3274  0.0640 -0.0253
 5386W        W 9450   8.121   1.724   0.360  0.1589  0.2084  0.1852
 5387W        W 9451   4.990   4.396   9.610  0.1576  0.0381  0.0614
 5388W        W 9452   9.084   6.527   1.947 -0.1031  0.0465  0.1345
 5389W        W 9453   5.139   4.733   1.119 -0.0230 -0.1580  0.1582
 5390W        W 9454   9.532   5.710   8.714  0.0516  0.1905 -0.0557
 5391W        W 9455   7.641   2.785   8.662  0.4331  0.2936  0.1478
 5392W        W 9456   2.822   5.314   2.130  0.1985  0.2585 -0.4272
 5393W        W 9457   2.556   8.680   0.927 -0.2715  0.2070 -0.1887
 5394W        W 9458   8.965   8.860   0.841  0.1707  0.1073  0.1446
 5395W        W 9459   7.183   9.442  10.835  0.2950  0.2961  0.0822
 5396W        W 9460  10.538   5.903  10.768 -0.1669 -0.2546 -0.0408
 5397W        W 9461   8.923   1.994   2.744  0.1373  0.2115 -0.0353
 5398W        W 9462   5.893   6.056   8.946  0.0342  0.0589  0.0690
 5399W        W 9463   9.297   6.158   9.907  0.2413 -0.0089  0.1124
 5400W        W 9464   5.511   7.573  11.164  0.2520  0.1804  0.2603
 5401W        W 9465   6.558   0.945   0.827 -0.1046 -0.3278 -0.0473
 5402W        W 9466   6.215   7.696   8.411 -0.1303  0.1525 -0.1234
 5403W        W 9467   0.216  10.185   1.632 -0.2501  0.0417  0.2223
 5404W        W 9468   6.732   8.118   2.096 -0.2141 -0.0369 -0.1816
 5405W        W 9469   9.460   1.703  10.775  0.0071  0.0002  0.1700
 5406W        W 9470   5.911   3.892  10.115 -0.1152 -0.0578  0.2333
 5407W        W 9471   9.954   7.666   1.027 -0.1403 -0.2392  0.3156
 5408W        W 9472   6.292   4.736   9.105  0.2520 -0.1247 -0.1649
 5409W        W 9473   4.761   8.839  10.596 -0.2666  0.2355  0.2657
 5410W        W 9474   3.773   6.258  10.728 -0.2917 -0.0552  0.1896
 5411W        W 9475   5.704   2.798   9.410 -0.1341 -0.2130 -0.2722
 5412W        W 9476  10.489   9.390  10.220  0.0975  0.1850 -0.1505
 5413W        W 9477   7.272   3.288  10.492 -0.2067  0.0183 -0.3144
 5414W        W 9478   5.385   6.765   2.269  0.1997 -0.3340  0.1119
 5415W        W 9479   5.379   1.222   2.696  0.1458 -0.1368  0.4630
 5416W        W 9480   9.672   5.301   9.574  0.1159 -0.1419 -0.0171
 5417W        W 9481   6.627   2.594   8.109 -0.1577 -0.0018  0.2344
 5418W        W 9482   8.389   5.947   9.737 -0.0804 -0.1549  0.1240
 5419W        W 9483   7.739   3.926   9.573  0.2372 -0.1758 -0.3281
 5420W        W 9484   9.431   7.262  10.806  0.2451  0.1739  0.1270
 5421W        W 9485   5.645   3.398  10.552 -0.1016 -0.1227  0.1646
 5422W        W 9486   2.533   8.162   9.644  0.1848  0.0227 -0.0509
 5423W        W 9487   1.861   6.872  10.123  0.0363  0.0327 -0.2177
 5424W        W 9488  10.106   5.867   2.720  0.0001 -0.2353 -0.0976
 5425W        W 9489   1.977   8.817   7.929 -0.2028  0.0258 -0.0426
 5426W        W 9490   7.574   6.899  10.219  0.0650 -0.2129  0.0917
 5427W        W 9491   7.799   7.668  11.144 -0.0282  0.2656 -0.2657
 5428W        W 9492  10.046   8.326   2.063  0.3570  0.1282  0.1773
 5429W        W 9493   0.875   0.701  10.107 -0.2464 -0.0342 -0.0996
 5430W        W 9494   3.793   8.751  10.734 -0.0670  0.0383 -0.0628
 5431W        W 9495   0.732   6.602  10.484  0.0378  0.0701  0.2519
 5432W        W 9496   4.502   3.525   8.874 -0.1518 -0.2614 -0.0970
 5433W        W 9497   0.190   6.863   0.605 -0.1218  0.2332 -0.0167
 5434W        W 9498   5.538   8.764   1.746 -0.0211 -0.0638  0.4174
 5435W        W 9499   9.353   1.616   0.576 -0.0377 -0.1564 -0.1417
 5436W        W 9500   9.878   9.505  10.242  0.1777  0.1350 -0.5063
 5437W        W 9501   1.774   5.041   9.722 -0.1503  0.1385  0.3660
 5438W        W 9502   5.884   0.062   3.422 -0.0574  0.0128  0.1616
 5439W        W 9503   8.479   3.725   9.133  0.0792 -0.2107  0.0075
 5440W        W 9504   4.132   6.432   1.044  0.2852 -0.4999  0.0421
 5441W        W 9505   9.405   4.893   9.027  0.3712  0.1910 -0.1190
 5442W        W 9506   7.241  10.587   3.687  0.5005  0.3461  0.2254
 5443W        W 9507   8.658   9.965   7.618 -0.2548  0.2910 -0.3419
 5444W        W 9508   7.023   8.685  11.291  0.2923  0.1174 -0.2156
 5445W        W 9509   4.704   3.432   2.403 -0.0967  0.2025  0.2197
 5446W        W 9510   2.075   2.793   9.285 -0.3023 -0.1145  0.0320
 5447W        W 9511   9.895   3.778   7.657 -0.1796  0.1530  0.0860
 5448W        W 9512   8.543   1.280   9.115  0.0455  0.1156  0.0007
 5449W        W 9513   7.369   1.652   8.257 -0.3353 -0.3129 -0.0884
 5450W        W 9514   3.820  10.567   1.152  0.1766 -0.0074 -0.1724
 5451W        W 9515   4.905   7.168   3.580  0.2095 -0.0185 -0.2483
 5452W        W 9516   2.767   9.328   7.814  0.0651 -0.1583  0.3243
 5453W        W 9517   8.091   5.655   2.472  0.0434 -0.1988 -0.1548
 5454W        W 9518   0.953   8.263   9.936 -0.0042 -0.1558  0.2200
 5455W        W 9519   7.843   6.468  10.361 -0.0114  0.1299  0.3603
 5456W        W 9520   8.586   6.839  10.259  0.0933 -0.0787 -0.2056
 5457W        W 9521   1.614   4.993  10.693 -0.2041  0.1773  0.1830
 5458W        W 9522   3.951   2.658   9.467 -0.0501  0.0542 -0.2794
 5459W        W 9523   8.276   7.437   8.863 -0.1555  0.1229 -0.3103
 5460W        W 9524   7.740   9.309  11.609 -0.1392  0.1805  0.2045
 5461W        W 9525   1.133   6.318   0.335 -0.0917 -0.1304  0.1417
 5462W        W 9526   7.328   2.675  10.093  0.4103 -0.3082 -0.0414
 5463W        W 9527   4.435   2.924   1.962  0.1889  0.1071  0.1304
 5464W        W 9528   6.696   4.181  10.288 -0.3619 -0.0902 -0.1891
 5465W        W 9529  10.532  10.415   1.090  0.1384 -0.3112 -0.0299
 5466W        W 9530   6.569   6.549   4.125 -0.0750 -0.0154 -0.3310
 5467W        W 9531   8.775   7.490  11.056  0.1024  0.0269  0.1615
 5468W        W 9532   8.052   8.567   1.790  0.0242 -0.1077  0.0749
 5469W        W 9533   8.685   4.090   1.918  0.0028  0.1084  0.3420
 5470W        W 9534   6.772   0.678   2.087  0.4422  0.1858  0.3208
 5471W        W 9535   7.146   3.378   1.504 -0.4760 -0.1114  0.0293
 5472W        W 9536   0.784   6.437   1.152  0.1742  0.0637  0.0444
 5473W        W 9537   8.620   7.077   8.703 -0.1156 -0.0245 -0.3947
 5474W        W 9538   5.520   8.575   9.957 -0.1814 -0.3630  0.2183
 5475W        W 9539  10.456   5.731   9.299 -0.2744 -0.0344 -0.0823
 5476W        W 9540   8.868   6.688   1.503  0.0857  0.0560  0.0419
 5477W        W 9541   6.552   0.766   9.604 -0.0405 -0.3369 -0.0656
 5478W        W 9542   7.413   2.106   9.190 -0.1125 -0.1401  0.1143
 5479W        W 9543   8.364   9.775   0.889 -0.0022 -0.1104 -0.0645
 5480W        W 9544   4.769   4.672   2.046  0.0267  0.2119 -0.0688
 5481W        W 9545   8.074  10.179  10.299 -0.1383  0.2067 -0.3497
 5482W        W 9546   0.875   9.054   0.958 -0.2244  0.2958  0.0900
 5483W        W 9547   3.785   9.335   0.580  0.4029 -0.1593  0.0721
 5484W        W 9548   6.945  10.541  11.394 -0.0655 -0.0638 -0.0122
 5485W        W 9549   9.388   6.593   9.003  0.0423  0.1414  0.1746
 5486W        W 9550   4.683   4.890   1.203  0.0896 -0.2870  0.2552
 5487W        W 9551   8.939   6.937   9.359  0.0221 -0.1023 -0.0293
 5488W        W 9552  10.072   9.632   7.562 -0.2886 -0.0899  0.2807
 5489W        W 9553   8.441   9.352  10.655 -0.1394 -0.1504  0.1430
 5490W        W 9554  10.424  10.043   0.790  0.1175  0.1850  0.1817
 5491W        W 9555  10.089   0.508   0.903 -0.0203 -0.0264  0.0869
 5492W        W 9556   7.420   5.734   2.693  0.0375  0.1564 -0.0106
 5493W        W 9557   4.427   5.337   8.942 -0.2434  0.0806 -0.0590
 5494W        W 9558   5.229   6.125   9.625 -0.2528 -0.1652  0.1650
 5495W        W 9559   3.386   0.816   9.399  0.1500 -0.0144  0.0400
 5496W        W 9560   3.995   5.095   9.822 -0.0759 -0.0213 -0.1166
 5497W        W 9561   1.662   7.475   1.455 -0.2985 -0.1153  0.1594
 5498W        W 9562   1.139   2.306   1.856  0.0241 -0.0433 -0.3022
 5499W        W 9563   8.392   3.485  10.878  0.0278  0.0027  0.1041
 5500W        W 9564   6.004   4.535   9.495 -0.0095 -0.1342  0.3264
 5501W        W 9565   3.737   3.040   8.264 -0.0652  0.0371  0.0165
 5502W        W 9566   0.220   1.246   9.342  0.1159  0.4707  0.1094
 5503W        W 9567   1.078   1.360   1.912  0.4212 -0.0820 -0.0534
 5504W        W 9568   8.820   2.557   1.091  0.2148  0.2844 -0.1673
 5505W        W 9569   8.125   0.504  10.716  0.4992 -0.1313 -0.0488
 5506W        W 9570   6.898   4.198  10.705  0.2472  0.0449  0.1832
 5507W        W 9571   5.691  10.406   9.447  0.1157 -0.4651 -0.1272
 5508W        W 9572   5.339   2.692   3.077 -0.0238 -0.6139 -0.0587
 5509W        W 9573   8.998   3.685   9.089 -0.0241  0.0861 -0.0107
 5510W        W 9574   4.259   3.622   9.689 -0.0640 -0.0713  0.1252
 5511W        W 9575   7.003   0.752   9.350 -0.2205 -0.2455  0.2148
 5512W        W 9576  10.103  10.329  11.154  0.3636  0.1013 -0.0141
 5513W        W 9577   5.940   0.096  10.691  0.1690 -0.6540 -0.3137
 5514W        W 9578   3.197   3.249   3.353 -0.1426 -0.0795 -0.1165
 5515W        W 9579   2.743   3.129   0.736 -0.3008 -0.4167 -0.0529
 5516W        W 9580   3.922   5.723   0.395  0.4407  0.0190  0.1827
 5517W        W 9581   2.784   8.551  10.402 -0.1299 -0.0013 -0.1259
 5518W        W 9582   1.328   3.438   3.929  0.3255  0.3500  0.0172
 5519W        W 9583   8.848   7.941  11.293 -0.0279 -0.1200  0.1843
 5520W        W 9584   2.027   0.481   7.579 -0.0473 -0.0823 -0.0651
 5521W        W 9585   4.216   8.062   9.499  0.1211 -0.0627  0.1028
 5522W        W 9586   3.796   4.710  10.460  0.2816  0.0493 -0.1236
 5523W        W 9587  10.511   7.702   3.395 -0.0438 -0.1961 -0.4305
 5524W        W 9588  10.156   5.386   3.596 -0.3644  0.0341  0.0101
 5525W        W 9589   3.629  10.572   3.150  0.4705 -0.1449  0.1640
 5526W        W 9590   1.314   6.139   1.502  0.0004 -0.0436 -0.2241
 5527W        W 9591  10.170   0.022   9.411  0.1922  0.1474  0.0167
 5528W        W 9592   6.425   8.690   3.235 -0.1915  0.1619  0.0890
 5529W        W 9593   7.569   8.914   3.591  0.0099  0.0459 -0.0217
 5530W        W 9594   4.081   7.236  10.671  0.1274  0.0225 -0.0818
 5531W        W 9595   6.851   1.627   8.132  0.0143  0.1712 -0.3070
 5532W        W 9596  10.442   3.560   1.955  0.0940 -0.4926 -0.0427
 5533W        W 9597   0.694   8.566   1.818 -0.1164  0.5453 -0.0345
 5534W        W 9598   2.043   2.739   0.258 -0.1975  0.1036  0.0170
 5535W        W 9599   1.535   3.943   1.041 -0.0016 -0.2932  0.1977
 5536W        W 9600   8.525   5.235  10.429  0.2184 -0.0430  0.0167
 5537W        W 9601   4.324   8.391   3.620  0.0311  0.0031 -0.1904
 5538W        W 9602   2.881   3.015  11.196 -0.1032  0.3613  0.3984
 5539W        W 9603   6.519   1.958   1.229  0.5328 -0.0161  0.0208
 5540W        W 9604   0.256   5.471  10.787 -0.3138  0.0143 -0.2417
 5541W        W 9605   5.012  10.052   0.600  0.0174  0.0682  0.1141
 5542W        W 9606   7.286   4.997   2.455 -0.1356  0.0793 -0.1572
 5543W        W 9607   0.594   5.292   0.671 -0.0883  0.1066  0.1455
 5544W        W 9608   3.209   2.384   0.284 -0.1599  0.1002  0.0140
 5545W        W 9609   8.879   8.622   8.210  0.1103  0.0390 -0.1172
 5546W        W 9610   4.690   4.047   8.446  0.1120  0.0400  0.1387
 5547W        W 9611   9.223   0.186   1.986  0.3685  0.1653  0.1423
 5548W        W 9612   7.087   4.788   1.672  0.0967 -0.2607  0.0524
 5549W        W 9613   6.188   3.270   1.046  0.2507  0.0838  0.0773
 5550W        W 9614   9.781   2.572   2.473 -0.0443  0.0177 -0.1905
 5551W        W 9615  10.186   7.514   2.900  0.2450 -0.3151  0.2359
 5552W        W 9616   0.301   8.124   9.298  0.0953 -0.1890 -0.1198
 5553W        W 9617   3.433   6.775   9.970  0.2626 -0.0852  0.2263
 5554W        W 9618   4.477   6.610   1.383 -0.0499  0.0750  0.1973
 5555W        W 9619   0.558   3.883   1.322 -0.1224  0.0136  0.0566
 5556W        W 9620   8.470   6.279  10.982  0.0763  0.0688  0.1641
 5557W        W 9621   0.632   9.093  11.092  0.1311 -0.1441  0.1184
 5558W        W 9622   1.607   2.605   0.016 -0.4568  0.0014  0.1301
 5559W        W 9623   0.686   9.974   0.218  0.0664  0.3320  0.2487
 5560W        W 9624   7.671   6.282  10.885 -0.3090 -0.1347 -0.1567
 5561W        W 9625   5.060   9.419   3.267  0.2534  0.0318 -0.2129
 5562W        W 9626   6.840   1.691  10.118 -0.0715 -0.1495 -0.3009
 5563W        W 9627   7.006   7.768   1.786 -0.5350  0.0647 -0.0670
 5564W        W 9628   0.955   8.428  10.536 -0.0117  0.1281  0.3840
 5565W        W 9629   3.867   2.142  10.274 -0.0606  0.2563 -0.0601
 5566W        W 9630   7.102   8.508   0.795  0.1717 -0.1000  0.1171
 5567W        W 9631   1.909   6.811   9.628  0.2294 -0.0134 -0.1610
 5568W        W 9632   4.560   4.957   1.707 -0.2481  0.3447  0.2584
 5569W        W 9633  10.507   3.193   1.634  0.1010 -0.0623  0.1647
 5570W        W 9634   0.271   2.240   1.179 -0.1790 -0.3015 -0.0617
 5571W        W 9635  10.492   3.352   1.070 -0.3151  0.1207  0.0483
 5572W        W 9636   9.643   7.677  11.192 -0.0320  0.2010  0.3009
 5573W        W 9637   7.677   0.875   2.086 -0.0157 -0.0836  0.1531
 5574W        W 9638  10.532   6.886  10.561  0.0794 -0.1163  0.0399
 5575W        W 9639   4.099   7.724   0.402  0.1551  0.0994  0.3474
 5576W        W 9640   3.047   1.361   0.230  0.0510 -0.2888 -0.2483
 5577W        W 9641   8.132   6.255   3.627 -0.3100  0.1677  0.0927
 5578W        W 9642   8.886   7.549  10.053  0.0831  0.3151 -0.0104
 5579W        W 9643   5.492   9.858   9.235  0.1993  0.1073 -0.0109
 5580W        W 9644   7.169   7.523   8.810  0.1795  0.1548 -0.2857
 5581W        W 9645   6.824   0.672   0.449 -0.1321 -0.0592  0.1859
 5582W        W 9646   1.425   2.380   1.065  0.0252 -0.0246 -0.1236
 5583W        W 9647   2.733   6.437   9.696 -0.0076  0.0323 -0.0088
 5584W        W 9648   8.212   3.931  11.174 -0.1287  0.0985  0.1479
 5585W        W 9649   6.822   2.749  11.013  0.0227 -0.1940  0.2013
 5586W        W 9650   1.972   1.307   7.902  0.0403  0.0281  0.0071
 5587W        W 9651   6.649   0.296   0.155  0.1300 -0.1818  0.1185
 5588W        W 9652   4.340   3.171   2.757  0.1635  0.0677  0.0726
 5589W        W 9653   2.605   7.159  11.481 -0.1329  0.2368  0.1516
 5590W        W 9654   5.296   5.981   2.960 -0.1228  0.1931  0.2044
 5591W        W 9655   4.702   5.281   0.895 -0.0117  0.0734 -0.2641
 5592W        W 9656   8.115   3.968   1.067 -0.1587 -0.0710 -0.3407
 5593W        W 9657   6.148   2.448   9.186  0.0869 -0.1074  0.1160
 5594W        W 9658   9.204   8.220   9.308  0.2868  0.0246 -0.1947
 5595W        W 9659   1.377   3.832  11.307  0.0500 -0.1248  0.0001
 5596W        W 9660   2.823   1.802   1.970 -0.6914  0.1101  0.2551
 5597W        W 9661   7.775   4.398   1.067 -0.1218 -0.0123 -0.0087
 5598W        W 9662   4.966   8.039   0.630 -0.1316  0.0886  0.0011
 5599W        W 9663   4.300   7.209   1.592 -0.3014  0.1591  0.1208
 5600W        W 9664   1.200   6.621   8.543 -0.0222 -0.1649 -0.0808
 5601W        W 9665   5.992   4.077   7.828 -0.1978 -0.0822 -0.0140
 5602W        W 9666   7.057   1.797   3.370  0.1060 -0.2145  0.0826
 5603W        W 9667   6.746   7.597  10.430  0.1236 -0.1773 -0.0481
 5604W        W 9668   6.211   8.269   7.408  0.2830 -0.1329  0.1606
 5605W        W 9669   6.280   7.265   3.021  0.1017 -0.1155  0.0417
 5606W        W 9670   4.658   1.460   8.935  0.1930 -0.2936  0.1330
 5607W        W 9671   1.436   6.073  11.060 -0.1240 -0.0906  0.2412
 5608W        W 9672   1.544   2.170   0.175 -0.0681 -0.2082 -0.3469
 5609W        W 9673   3.863   7.776  11.374  0.0051  0.1274  0.0689
 5610W        W 9674   8.569  10.405  11.434 -0.1084 -0.2140  0.4285
 5611W        W 9675   2.606   4.939  10.118 -0.1327  0.1056 -0.0990
 5612W        W 9676   1.882   9.480   8.545 -0.0360 -0.0511  0.3078
 5613W        W 9677  10.065   2.091   8.613  0.2811 -0.2985 -0.1866
 5614W        W 9678  10.039   8.656  11.563 -0.0292 -0.0990  0.0017
 5615W        W 9679   0.631   0.552  10.631 -0.0470 -0.2314 -0.2144
 5616W        W 9680   6.035   5.790  11.369  0.1862 -0.0997  0.2212
 5617W        W 9681   2.530   3.002   9.391 -0.1723  0.2238 -0.3116
 5618W        W 9682   2.946   0.254   1.088 -0.0007  0.0702  0.0394
 5619W        W 9683   4.606   2.474   2.252  0.3770  0.4872 -0.0589
 5620W        W 9684   6.411   4.792   3.058 -0.0666 -0.0854 -0.0025
 5621W        W 9685   5.831   0.101  10.159  0.3062 -0.1096  0.0011
 5622W        W 9686   8.274   0.880   8.315 -0.3013 -0.2427 -0.0391
 5623W        W 9687   1.522   4.768   2.050 -0.1464  0.0962 -0.2179
 5624W        W 9688   8.803   5.349   1.117 -0.3005 -0.1124 -0.0214
 5625W        W 9689   2.121   0.006  10.433  0.0184 -0.2657  0.1216
 5626W        W 9690   3.969   2.436   9.030 -0.2073  0.3738  0.0393
 5627W        W 9691   2.247   9.250  11.058 -0.3046  0.1048 -0.1230
 5628W        W 9692   5.394   2.293  10.384  0.4060 -0.1861  0.1820
 5629W        W 9693  10.326   9.837  10.151  0.1099  0.0414  0.2815
 5630W        W 9694   7.830   3.262   0.788 -0.1131 -0.1900 -0.1896
 5631W        W 9695  10.122   9.291   1.838  0.1662 -0.0638  0.1009
 5632W        W 9696   5.416   2.330   9.851  0.3537  0.0153 -0.2153
 5633W        W 9697   8.307   9.138   2.418  0.2652  0.1262 -0.0534
 5634W        W 9698   0.256   2.567   9.049  0.1003 -0.2340 -0.3410
 5635W        W 9699   9.454   5.105  11.599 -0.5453  0.2642  0.5674
 5636W        W 9700  10.490   2.693   8.712  0.2267 -0.3520  0.1130
 5637W        W 9701   8.371   0.534   3.959 -0.1288 -0.1522 -0.1224
 5638W        W 9702   3.244   9.726   0.507  0.2217  0.1836  0.2452
 5639W        W 9703   0.699   8.230  11.561 -0.1814 -0.0496  0.1439
 5640W        W 9704   0.584   4.793   0.077  0.2426  0.0967 -0.1517
 5641W        W 9705   5.260   5.431   0.304  0.0379  0.3645  0.0265
 5642W        W 9706   8.560   9.698   9.126 -0.1590  0.0908  0.2798
 5643W        W 9707   3.688   4.204  10.279 -0.1880 -0.1386  0.0440
 5644W        W 9708   3.231   0.779   2.852  0.0362  0.0762  0.0894
 5645W        W 9709   8.895   2.121   9.425 -0.2055  0.0559  0.0848
 5646W        W 9710   6.746   7.791   0.872  0.2649 -0.1169 -0.1144
 5647W        W 9711   0.288   2.066   8.243 -0.1551  0.5019  0.1926
 5648W        W 9712   0.505   6.062   1.353  0.1281  0.1320  0.4876
 5649W        W 9713  10.522   6.970   4.094 -0.2150 -0.2448  0.0747
 5650W        W 9714   7.946   2.413   7.900 -0.2116 -0.2017 -0.1207
 5651W        W 9715   3.187   3.515   1.025 -0.1153  0.2408  0.0386
 5652W        W 9716   1.328   6.065   9.762  0.0931 -0.0577  0.4131
 5653W        W 9717   0.202   0.024   2.927  0.1951 -0.2183  0.1612
 5654W        W 9718   3.752   6.738  11.410  0.1494  0.3246  0.1202
 5655W        W 9719   0.214   9.658  10.029  0.0410 -0.1310  0.1206
 5656W        W 9720   7.306   9.809   0.766 -0.0392  0.1759  0.0679
 5657W        W 9721   4.316   9.669   1.944  0.2463 -0.0471 -0.1158
 5658W        W 9722   8.339   4.611   8.112 -0.3503 -0.1857  0.0737
 5659W        W 9723   0.608   0.880   7.883  0.0603 -0.3318  0.0853
 5660W        W 9724  10.371   0.256   1.758  0.1623 -0.0828 -0.2313
 5661W        W 9725   4.778   4.809   0.678 -0.1849  0.1082  0.0325
 5662W        W 9726   2.007   0.369   7.091  0.1680 -0.3585  0.1816
 5663W        W 9727   3.195   2.598   4.123  0.0034 -0.1643 -0.1365
 5664W        W 9728   6.372   2.029   7.734 -0.0750  0.1358  0.0678
 5665W        W 9729   0.467   9.530   3.848 -0.5035  0.0247  0.1347
 5666W        W 9730   6.102   2.728   3.621 -0.1596 -0.2199 -0.1591
 5667W        W 9731   5.560   3.560  11.454  0.1588  0.1425  0.2906
 5668W        W 9732   3.025   0.905  10.170 -0.0376  0.2993 -0.2396
 5669W        W 9733   1.676   8.967   1.545 -0.1431  0.0517  0.0712
 5670W        W 9734   4.108   5.622   9.686 -0.2596  0.1035  0.2265
 5671W        W 9735   1.863   2.565   9.663 -0.0818  0.1193 -0.0949
 5672W        W 9736   8.624   3.433  10.434 -0.0270  0.0429  0.0707
 5673W        W 9737   5.415   4.269   0.325 -0.0047  0.2886 -0.2084
 5674W        W 9738   5.910   4.933   8.822 -0.2394  0.0333 -0.0386
 5675W        W 9739   6.405   8.749   0.789  0.0367 -0.2739 -0.1570
 5676W        W 9740   7.320   8.266   1.940  0.3322  0.1607 -0.0137
 5677W        W 9741   2.208   5.328  11.341 -0.0445  0.2231  0.0499
 5678W        W 9742  10.059   7.852   3.224  0.2328 -0.0513  0.0046
 5679W        W 9743  10.469   9.833   7.731 -0.2901 -0.2619  0.0026
 5680W        W 9744   2.809   7.973   7.760 -0.1218  0.1687  0.1551
 5681W        W 9745   6.876   8.437   3.311 -0.0639 -0.3291 -0.0832
 5682W        W 9746   2.206   1.027   9.819  0.2324 -0.1439  0.2752
 5683W        W 9747  10.281   2.747   3.660 -0.2702  0.3043  0.1229
 5684W        W 9748   3.451   1.305   8.173 -0.0823 -0.1643  0.0781
 5685W        W 9749   7.678   8.458   3.327 -0.2782 -0.0367  0.0244
 5686W        W 9750  10.491   6.418   0.701 -0.2583 -0.4667  0.1074
 5687W        W 9751   0.337  10.241   9.189  0.3229 -0.1947  0.0178
 5688W        W 9752   5.892   5.390   3.772 -0.0568 -0.0200  0.3981
 5689W        W 9753   4.104   5.498  10.782 -0.2301 -0.1776 -0.0049
 5690W        W 9754   7.134   8.956  10.905 -0.0653 -0.0205 -0.0295
 5691W        W 9755   0.274   6.155   9.901 -0.1042  0.1422 -0.1926
 5692W        W 9756   0.436   8.550   9.124  0.2661  0.0751 -0.1465
 5693W        W 9757   4.659   1.814  10.332  0.3260 -0.0492 -0.0941
 5694W        W 9758   4.527   7.954   0.800 -0.1515  0.2072 -0.0200
 5695W        W 9759   1.828   9.389   0.204 -0.0467  0.0364  0.3587
 5696W        W 9760   9.343   8.627   9.474 -0.1874 -0.1863  0.2362
 5697W        W 9761   5.181   3.411   0.164 -0.0473 -0.4197  0.0691
 5698W        W 9762   4.315   1.580   8.473  0.0442  0.1393  0.1823
 5699W        W 9763   0.857   4.528   1.877 -0.0934  0.2414 -0.0213
 5700W        W 9764   0.070   2.777   0.967  0.1996  0.1732 -0.0071
 5701W        W 9765   8.472  10.485   0.344  0.2569  0.3088  0.0120
 5702W        W 9766   8.114   8.103   3.474 -0.1356 -0.3140  0.0383
 5703W        W 9767  10.403   2.391   0.983 -0.2242  0.0218  0.2483
 5704W        W 9768   2.556  10.449   4.008 -0.0788 -0.2590  0.1629
 5705W        W 9769   7.953   4.447  10.482  0.1199  0.0197 -0.1136
 5706W        W 9770   9.572   4.262  10.847 -0.0040 -0.3928  0.0854
 5707W        W 9771   8.860   4.315   8.518 -0.2560 -0.0470 -0.1215
 5708W        W 9772   7.190   6.090  10.833 -0.1728  0.0532  0.1608
 5709W        W 9773   5.238  10.145   2.138 -0.0747 -0.0324  0.1033
 5710W        W 9774   9.124   2.954  11.101  0.1036 -0.3004 -0.0755
 5711W        W 9775   3.726   9.677  11.208  0.1401  0.0082 -0.1058
 5712W        W 9776   6.404   9.643  10.426 -0.0074  0.1735  0.2068
 5713W        W 9777   9.164   3.588   2.984  0.0222  0.0028  0.2185
 5714W        W 9778   7.543  10.519   8.940 -0.3743  0.0638 -0.3457
 5715W        W 9779   4.712  10.600   3.655 -0.3514 -0.2249  0.2313
 5716W        W 9780   6.646   8.907  11.063  0.2462  0.1815 -0.0685
 5717W        W 9781   3.403   8.662  10.391 -0.1921  0.2457  0.2106
 5718W        W 9782   8.439   5.794   3.340 -0.1574  0.1649 -0.4410
 5719W        W 9783   5.830   8.816   8.581  0.0554 -0.1941  0.1363
 5720W        W 9784   4.769   4.409   1.524 -0.1414  0.2388 -0.2042
 5721W        W 9785   7.821   4.912  10.678 -0.1331  0.3270  0.1307
 5722W        W 9786   2.137   3.808   2.848  0.0385  0.0926 -0.0935
 5723W        W 9787   1.035   8.716   2.846 -0.0579 -0.1422  0.1615
 5724W        W 9788   9.457   7.892   9.631  0.1241 -0.0006  0.1466
 5725W        W 9789   5.144   8.396   0.017 -0.0874 -0.3018  0.2701
 5726W        W 9790   0.989   5.695  10.974 -0.2506  0.0309 -0.1327
 5727W        W 9791   7.044   9.233   1.118  0.1807  0.0940 -0.1087
 5728W        W 9792   5.499   1.043  11.189 -0.0085 -0.2358 -0.0524
 5729W        W 9793   5.240   1.453   9.623 -0.0148  0.2073  0.1658
 5730W        W 9794   8.224   7.593   8.035 -0.2793 -0.2370 -0.0405
 5731W        W 9795   6.176   8.545   1.352 -0.0127  0.3896  0.1949
 5732W        W 9796  10.315   6.150   7.862 -0.0079  0.0329  0.0301
 5733W        W 9797   5.332   5.308   1.713  0.3873 -0.3193 -0.0553
 5734W        W 9798   7.313   7.135   3.126  0.1226 -0.0708  0.2734
 5735W        W 9799   1.550   2.516   8.801  0.0515 -0.2087  0.0250
 5736W        W 9800   1.816   6.028  10.679 -0.2322  0.0096  0.1132
 5737W        W 9801   1.953   5.507   1.990  0.1135  0.2433  0.3914
 5738W        W 9802   6.449   6.672   2.331  0.1313  0.0353 -0.2724
 5739W        W 9803   4.194   3.722   0.286 -0.0129  0.1862 -0.0896
 5740W        W 9804   5.928   7.623   2.773 -0.0584  0.0012 -0.2121
 5741W        W 9805   7.633   3.433   0.295 -0.0223 -0.2363 -0.1130
 5742W        W 9806   2.021   5.037   1.726 -0.1143 -0.1664  0.3223
 5743W        W 9807   8.673   3.659   2.117 -0.0165  0.0935 -0.0825
 5744W        W 9808  10.011   4.464   7.865 -0.0547  0.0604 -0.0463
 5745W        W 9809   2.856   7.892   9.910  0.0689  0.2752 -0.2433
 5746W        W 9810   2.753   0.823   8.472 -0.3567 -0.1013  0.1718
 5747W        W 9811   8.488   8.432  10.536  0.2006 -0.2917  0.1082
 5748W        W 9812   1.401   2.701   8.312 -0.0688  0.1862  0.0251
 5749W        W 9813   5.132   3.226   8.000  0.2078  0.2296 -0.1239
 5750W        W 9814   5.390   6.275   3.800 -0.0982  0.2340  0.3893
 5751W        W 9815   2.901  10.073   1.902  0.0291  0.2181  0.1592
 5752W        W 9816   6.096   2.067   8.791  0.1172  0.0290  0.0669
 5753W        W 9817   1.344   5.828  10.646  0.0492  0.0489 -0.0076
 5754W        W 9818  10.164   1.647   2.414 -0.0339  0.1156 -0.0356
 5755W        W 9819   9.049   4.113   1.498  0.2038  0.0103  0.0993
 5756W        W 9820   0.661   7.549   0.908  0.2443  0.1875 -0.1113
 5757W        W 9821   2.517   4.326   0.717  0.0240 -0.2996 -0.0682
 5758W        W 9822   7.477   2.877   9.608  0.4255  0.1472  0.1343
 5759W        W 9823   4.665   2.225  11.265  0.1391  0.0336  0.1675
 5760W        W 9824   8.572   8.852   2.113 -0.1537  0.1196  0.0220
 5761W        W 9825  10.451   2.642   1.823 -0.0970 -0.1691 -0.3932
 5762W        W 9826   1.574   7.300   0.581 -0.0062 -0.1188 -0.2576
 5763W        W 9827   8.297   3.269  11.335  0.1390 -0.3909  0.3455
 5764W        W 9828   5.345   0.576   1.282  0.0050  0.0964 -0.0680
 5765W        W 9829   6.496   8.533   1.893  0.0054 -0.0178  0.0576
 5766W        W 9830   8.425   6.977   9.172 -0.1904 -0.0582  0.1612
 5767W        W 9831   6.206   8.011   0.012  0.1860 -0.0693 -0.0500
 5768W        W 9832   9.470   0.867  10.915 -0.1692  0.0232  0.2632
 5769W        W 9833   4.420   6.123   9.202 -0.2487 -0.0167  0.0950
 5770W        W 9834   7.771   0.703  11.029 -0.0070 -0.0253  0.0912
 5771W        W 9835   9.036  10.611   9.265  0.3688  0.2640 -0.1894
 5772W        W 9836   5.582   0.715   2.045 -0.1797 -0.1903  0.3748
 5773W        W 9837   2.434   9.682   0.822 -0.0444  0.2809  0.0391
 5774W        W 9838   3.366   1.529  11.442  0.0250 -0.2367 -0.1524
 5775W        W 9839   0.020   0.589   1.508 -0.2601  0.6256  0.0179
 5776W        W 9840   2.353   2.392   9.963  0.1192 -0.1558  0.3647
 5777W        W 9841   3.275  10.578   9.012  0.3303 -0.1916  0.0368
 5778W        W 9842  10.372   7.855   1.534  0.2459  0.0798 -0.1818
 5779W        W 9843  10.245   0.444   4.022  0.1740 -0.1280  0.1802
 5780W        W 9844   3.525  10.621   9.449  0.0865  0.0920 -0.0663
 5781W        W 9845   6.021  10.126   9.127  0.0692 -0.2640 -0.0193
 5782W        W 9846   7.919   4.605   8.428  0.0787 -0.1507  0.1972
 5783W        W 9847   5.811   4.730   0.130 -0.0833 -0.0368 -0.2204
 5784W        W 9848   2.290  10.407   9.134 -0.1173  0.2595 -0.1027
 5785W        W 9849   1.839   5.968  10.202 -0.0992 -0.0210 -0.0847
 5786W        W 9850   9.529   9.367  11.109 -0.0210  0.2053  0.1993
 5787W        W 9851   9.995   7.807   0.181  0.1937  0.1082  0.1850
 5788W        W 9852  10.485   9.971   1.337 -0.1587  0.0116  0.0771
 5789W        W 9853   2.165   0.559   9.087  0.0699  0.1236 -0.2295
 5790W        W 9854   3.188   5.383   9.964 -0.0506 -0.0008  0.0210
 5791W        W 9855   1.068   8.603   1.151  0.1069  0.1241 -0.0091
 5792W        W 9856   8.202   4.158   0.195  0.1232  0.0668 -0.0518
 5793W        W 9857   0.284   2.088   3.315  0.2070 -0.3834 -0.0149
 5794W        W 9858   1.178   0.357   0.981 -0.0222 -0.0375  0.2328
 5795W        W 9859   9.541   3.424   7.554 -0.1609 -0.2775  0.0346
 5796W        W 9860   0.126   1.922  11.117 -0.0631 -0.2947 -0.0896
 5797W        W 9861  10.464   8.801   9.942  0.1939  0.2239  0.0010
 5798W        W 9862   5.698   8.771   2.167 -0.1262  0.0067 -0.3310
 5799W        W 9863   1.151   1.696   3.634 -0.2283  0.5116 -0.0083
 5800W        W 9864   1.785   3.173   3.920  0.1013  0.0760 -0.1627
 5801W        W 9865   9.538   1.217  11.292  0.1104 -0.0963 -0.1609
 5802W        W 9866   2.823   6.483   2.757  0.1750  0.0917  0.0257
 5803W        W 9867   7.696   0.599   3.044  0.2277 -0.1639  0.2657
 5804W        W 9868   7.998   0.953   9.672  0.0259  0.0724 -0.1777
 5805W        W 9869   3.546   2.511  10.292  0.1850  0.0322  0.3003
 5806W        W 9870  10.274   0.115   0.680 -0.2070 -0.3043  0.2762
 5807W        W 9871   9.418   5.272   1.410  0.1077 -0.1473 -0.0145
 5808W        W 9872   8.627  10.314  10.906 -0.0790 -0.2179  0.3805
 5809W        W 9873   5.230   2.351   1.411  0.1100  0.2284 -0.1659
 5810W        W 9874   6.781   9.923   0.542 -0.0655  0.0832 -0.0828
 5811W        W 9875   7.338   0.698   1.185 -0.1397  0.0089 -0.2100
 5812W        W 9876   7.894  10.580   8.522 -0.0878  0.0852  0.1022
 5813W        W 9877   5.360   8.837  10.421  0.1175 -0.1541  0.2233
 5814W        W 9878   6.128   0.257   2.687 -0.1394 -0.1473 -0.1971
 5815W        W 9879   1.183   5.444   1.717  0.1430  0.1001 -0.1472
 5816W        W 9880  10.620   9.921   2.487 -0.2000  0.1668  0.1481
 5817W        W 9881   1.494   0.072   0.689 -0.2976 -0.1591 -0.0156
 5818W        W 9882   2.208   9.036   3.896  0.2558 -0.1316 -0.1018
 5819W        W 9883   0.646   1.183   8.394 -0.0951  0.1006  0.1959
 5820W        W 9884  10.268   5.640   2.294  0.0349 -0.2149  0.2416
 5821W        W 9885   3.803   1.829   2.884 -0.3402  0.0775  0.0880
 5822W        W 9886   2.040   1.526   8.888 -0.0430 -0.1302  0.1388
 5823W        W 9887   9.624   8.826   0.172  0.0039 -0.0707  0.2933
 5824W        W 9888   6.733   6.525   7.626  0.1130  0.0334 -0.1875
 5825W        W 9889   9.220   3.272   2.048  0.0702 -0.2095 -0.1743
 5826W        W 9890  10.331   5.788   0.598 -0.0169 -0.3646 -0.0428
 5827W        W 9891   8.918   8.447  11.384  0.5111  0.1537 -0.0234
 5828W        W 9892   7.898   0.828   0.690 -0.0432 -0.0397  0.1395
 5829W        W 9893   0.377  10.027   8.706 -0.3795 -0.1521 -0.0565
 5830W        W 9894   5.756   1.176   2.334 -0.0689 -0.0226 -0.1924
 5831W        W 9895   0.075   2.972  10.142  0.0031  0.0791 -0.0995
 5832W        W 9896   0.951   1.372   1.276 -0.1597 -0.3465 -0.0307
 5833W        W 9897   3.132   9.810   7.560  0.0906  0.3016 -0.5079
 5834W        W 9898   6.530   1.752   8.540 -0.1199  0.0584  0.1366
 5835W        W 9899   4.322   4.428   8.754  0.2231  0.2136 -0.1714
 5836W        W 9900   4.656   3.654  10.689  0.2229 -0.1709 -0.0189
 5837W        W 9901   4.430   6.903  10.846 -0.0124 -0.2587 -0.0339
 5838W        W 9902   4.005   8.853   0.619 -0.1603  0.0923 -0.0545
 5839W        W 9903   0.065   4.671  10.353 -0.2616  0.0800  0.2079
 5840W        W 9904   6.431   8.494   7.826  0.0327  0.2031  0.0227
 5841W        W 9905   7.271   2.274   2.003 -0.1960  0.0754  0.0687
 5842W        W 9906   1.188   9.593   9.095 -0.1773  0.0865 -0.0271
 5843W        W 9907   2.485   8.861   9.405  0.1263  0.1243 -0.0617
 5844W        W 9908   7.548   4.846   0.159  0.1035  0.0390  0.0177
 5845W        W 9909   8.217   4.665  10.051  0.2222 -0.3393 -0.2568
 5846W        W 9910  10.259   8.396  10.712 -0.2767  0.3724  0.0139
 5847W        W 9911   1.366   5.297  10.231  0.2206  0.2475  0.0719
 5848W        W 9912   5.901   4.213   0.637 -0.2443  0.0908 -0.0464
 5849W        W 9913   3.822   1.480   7.354  0.0742 -0.0125 -0.0859
 5850W        W 9914   3.030   1.149   7.819  0.0273 -0.2093  0.0324
 5851W        W 9915   3.352   5.508   2.185  0.0959  0.0121 -0.3612
 5852W        W 9916   1.527   2.079   1.585  0.1165 -0.1041 -0.3565
 5853W        W 9917   5.459   7.861   3.411  0.3386  0.0608  0.0886
 5854W        W 9918   4.109   5.282   0.999 -0.3204  0.1403 -0.1507
 5855W        W 9919   0.653   4.541  11.163  0.0271  0.0064  0.0770
 5856W        W 9920   9.934   6.896   9.396  0.0198  0.0340 -0.0236
 5857W        W 9921   9.133   2.186   1.045  0.2858  0.2821  0.1824
 5858W        W 9922   6.322   7.243   0.025 -0.3412 -0.2377 -0.2233
 5859W        W 9923   7.232   3.077   2.433  0.2442 -0.3894 -0.0396
 5860W        W 9924   1.077   3.701   1.237  0.1541  0.3011  0.0142
 5861W        W 9925   2.899   0.345   8.974  0.0381  0.0854  0.0692
 5862W        W 9926   0.109   2.025  10.118  0.0810  0.1047 -0.1532
 5863W        W 9927   1.619   2.134   8.364  0.3953 -0.1655  0.0216
 5864W        W 9928   5.313   1.913   9.445 -0.2247  0.0078 -0.1365
 5865W        W 9929   9.720   7.062   9.792 -0.1340 -0.0554 -0.2661
 5866W        W 9930  10.063   6.215  10.333 -0.0046 -0.2647 -0.0336
 5867W        W 9931   9.407   7.067   0.872 -0.0843 -0.1493 -0.0643
 5868W        W 9932   0.184   8.147   8.822 -0.1152  0.2040 -0.0261
 5869W        W 9933   5.424   6.134   8.428 -0.2543  0.0929 -0.0237
 5870W        W 9934   8.333   4.839   3.940 -0.1018 -0.0219 -0.1615
 5871W        W 9935   6.252   6.018  10.974  0.1176  0.0468  0.2807
 5872W        W 9936   2.216   1.431  11.497 -0.2648 -0.2906  0.0317
 5873W        W 9937   4.094   4.357  11.224 -0.3574  0.0177  0.0775
 5874W        W 9938   3.435   3.292   1.850 -0.1478 -0.1315 -0.0586
 5875W        W 9939   0.255   9.033   7.738  0.1041 -0.0256  0.1591
 5876W        W 9940   1.749   1.206   0.109 -0.1896 -0.1867 -0.1096
 5877W        W 9941   0.769   9.045   8.429 -0.2077  0.4107 -0.3038
 5878W        W 9942   7.906   8.162   4.201 -0.1527  0.0151 -0.0717
 5879W        W 9943   9.536   6.486   2.508 -0.1594  0.1527  0.0596
 5880W        W 9944   0.935   4.096   2.149  0.0716 -0.0755 -0.1503
 5881W        W 9945   2.838  10.491  11.534  0.0853  0.3564  0.1426
 5882W        W 9946   7.090   9.929   8.650  0.0059  0.2076  0.3432
 5883W        W 9947   9.711   1.214   9.923 -0.0840 -0.0232  0.1139
 5884W        W 9948   7.689   8.361  10.470 -0.2958  0.0206  0.3645
 5885W        W 9949  10.070   0.566   0.428 -0.0105  0.2711 -0.0353
 5886W        W 9950   0.705   3.912  10.149 -0.1851  0.0297 -0.0286
 5887W        W 9951   0.313   2.240   9.474 -0.0972  0.0471 -0.1459
 5888W        W 9952   3.542   9.862   3.160  0.1711 -0.2052  0.3054
 5889W        W 9953   6.755   5.020   0.824  0.1945 -0.1494  0.2631
 5890W        W 9954   7.833   3.332   3.544  0.1241 -0.1772 -0.2258
 5891W        W 9955   7.044   2.675   0.224 -0.0875 -0.0475  0.1543
 5892W        W 9956   3.876   0.319   1.540  0.1589 -0.1308  0.0559
 5893W        W 9957   3.750   7.554   2.226  0.0997 -0.2950  0.2019
 5894W        W 9958   4.822   6.014  10.336 -0.0618 -0.1073 -0.0140
 5895W        W 9959   1.123   3.042   7.501  0.0908  0.1601  0.0069
 5896W        W 9960   2.671   8.863  10.028 -0.0317 -0.1088  0.1967
 5897W        W 9961   5.887   8.913   1.000 -0.2535 -0.2483 -0.0880
 5898W        W 9962   1.730  10.372  10.143 -0.0861  0.0001 -0.2006
 5899W        W 9963   9.918   2.039   9.827  0.0936  0.0518  0.2484
 5900W        W 9964   1.708   1.654   3.366  0.1686  0.2044  0.3233
 5901W        W 9965   2.055   1.468   1.870 -0.2384 -0.0824 -0.0455
 5902W        W 9966   5.711   9.606   2.048  0.1877 -0.1874  0.3960
 5903W        W 9967   2.073   0.552   2.016 -0.3376 -0.0597  0.1068
 5904W        W 9968   0.366   5.024  11.192  0.1459 -0.1926 -0.2856
 5905W        W 9969   6.036   2.832   1.569 -0.0185  0.1981  0.1022
 5906W        W 9970   0.052   1.121   7.324  0.0625  0.3595 -0.5304
 5907W        W 9971   6.729  10.155   8.006  0.2498  0.1537 -0.0462
 5908W        W 9972   5.224   8.633   8.517 -0.1239 -0.1868  0.0141
 5909W        W 9973   2.166  10.233   1.924 -0.0869 -0.0476 -0.0010
 5910W        W 9974   9.337   3.752   0.755 -0.0751  0.4366  0.0947
 5911W        W 9975   0.248   4.726   1.117  0.2688 -0.0760  0.2489
 5912W        W 9976   7.757   5.372   0.696 -0.0589  0.0564  0.0381
 5913W        W 9977   9.751   6.574   8.487  0.1244 -0.0720 -0.2114
 5914W        W 9978   0.922   6.032  10.230 -0.1322 -0.2393  0.0606
 5915W        W 9979   1.650   8.638   2.933  0.2078  0.0436  0.1760
 5916W        W 9980   3.102   2.860   1.601  0.0394  0.1128 -0.2815
 5917W        W 9981   8.863   4.005   0.981 -0.0169  0.0533  0.2989
 5918W        W 9982   0.591   2.211   9.041  0.0874 -0.1615  0.2504
 5919W        W 9983   7.845   0.264   1.448 -0.0980 -0.1260  0.1057
 5920W        W 9984   8.078   8.557  10.236  0.2023  0.2447  0.1189
 5921W        W 9985   7.204   4.088   0.498 -0.1234 -0.3789 -0.0809
 5922W        W 9986   3.858   8.679   7.801  0.0001  0.0847 -0.1739
 5923W        W 9987   1.114   2.582   7.740  0.0365 -0.0074  0.0046
 5924W        W 9988   8.104   2.057   9.773  0.2308  0.1583  0.1985
 5925W        W 9989   9.637   0.598   8.685  0.0071 -0.3118  0.0016
 5926W        W 9990   3.401   5.672   2.711  0.1963 -0.0594 -0.3011
 5927W        W 9991   4.508   1.442   7.987  0.0511  0.3178 -0.1291
 5928W        W 9992   5.898   0.779  11.420 -0.1226  0.1882  0.2266
 5929W        W 9993   9.625   5.969  10.389 -0.0910  0.0383 -0.0274
 5930W        W 9994   1.142  10.505   3.270  0.2968 -0.2511 -0.4862
 5931W        W 9995   4.960  10.327   7.363 -0.2556 -0.2208  0.2079
 5932W        W 9996   5.641   8.899   2.752  0.1112 -0.0857  0.4269
 5933W        W 9997   2.611   2.432   8.607 -0.1256  0.0290  0.0951
 5934W        W 9998   0.872   4.039   8.760 -0.1052 -0.1895  0.1511
 5935W        W 9999   6.892   3.260   0.352  0.1769 -0.3125  0.0326
 5936W        W10000   1.293   8.930  10.419  0.1188  0.2171  0.1289
 5937W        W10001   5.980   1.226  11.229 -0.3763  0.0290  0.0931
 5938W        W10002   5.497   8.373   4.264 -0.1343  0.3535  0.3037
 5939W        W10003   1.905   9.044  11.382 -0.1625 -0.1420  0.1307
 5940W        W10004   4.205   9.580   7.094  0.4745  0.1983  0.0668
 5941W        W10005   2.001   8.196   1.653 -0.0276  0.0315  0.1850
 5942W        W10006   0.722   2.788   1.620  0.2884 -0.1257  0.0062
 5943W        W10007   5.917  10.199   8.350  0.1976  0.2353 -0.0472
 5944W        W10008   9.026   5.166   0.221  0.0784 -0.4293  0.1253
 5945W        W10009   6.836   9.982   1.442 -0.0849  0.0654  0.1801
 5946W        W10010   3.634   6.988   3.204 -0.0933 -0.3436 -0.1192
 5947W        W10011   6.160   6.713   2.797  0.0827  0.1395 -0.0513
 5948W        W10012   3.340   5.334   3.046 -0.0630 -0.3220  0.0162
 5949W        W10013   2.983   1.561   1.120  0.0707  0.1492 -0.0652
 5950W        W10014   7.938   8.357   0.031 -0.5085 -0.2386 -0.2838
 5951W        W10015   5.430   3.255   3.052  0.1417 -0.2227 -0.1796
 5952W        W10016  10.412   1.010   3.298  0.1702 -0.3404  0.2618
 5953W        W10017   9.083   6.256   2.324 -0.5208  0.0751 -0.0152
 5954W        W10018   7.888   2.177   0.539  0.1669 -0.0512 -0.1102
 5955W        W10019   7.746   3.788   8.105 -0.0984  0.0659 -0.0014
 5956W        W10020   5.524   2.346   0.647 -0.0286  0.1999  0.0080
 5957W        W10021   3.401   2.001   1.139 -0.0100  0.0946  0.1808
 5958W        W10022   3.360  10.531  11.370 -0.2610 -0.2392  0.2017
 5959W        W10023   9.459   5.221   0.457 -0.0184  0.0128  0.0653
 5960W        W10024   7.551   1.383  10.498  0.0088  0.2179  0.1082
 5961W        W10025   5.618   6.642  11.518  0.0682 -0.3591  0.0396
 5962W        W10026   1.986   0.164   8.875 -0.3467 -0.1239  0.1085
 5963W        W10027   9.952   6.275  11.344 -0.0295 -0.0366  0.0018
 5964W        W10028   7.278   5.239   9.832 -0.0251 -0.1938  0.1582
 5965W        W10029  10.358  10.398   1.600 -0.4563  0.0439  0.0959
 5966W        W10030   7.566   3.944   0.215 -0.1143  0.0613 -0.0580
 5967W        W10031   9.453   3.301   3.457  0.3421 -0.5891 -0.0579
 5968W        W10032   2.018  10.035   8.835  0.0389 -0.1646 -0.1434
 5969W        W10033   9.205   0.292   0.442  0.5384  0.0795  0.0705
 5970W        W10034   1.876   5.063  10.253  0.2158 -0.1081  0.1015
 5971W        W10035   7.044   7.387   9.314  0.0271  0.0897  0.1588
 5972W        W10036   5.260   2.985  11.470 -0.0414 -0.1044  0.1772
 5973W        W10037   6.081   5.489   2.887 -0.2001 -0.1016  0.1614
 5974W        W10038   1.403   2.296   9.651 -0.0418 -0.1416 -0.5880
 5975W        W10039   4.844   1.354   7.667  0.0826 -0.1345 -0.1472
 5976W        W10040   4.654   0.712   9.560 -0.1470 -0.1850 -0.1530
 5977W        W10041   9.891   6.662   3.400  0.1118 -0.3571 -0.0244
 5978W        W10042   9.890   7.643   1.567 -0.2842 -0.1800  0.2506
 5979W        W10043   5.084   4.336   2.688 -0.2274  0.1533 -0.1902
 5980W        W10044   4.939   4.807   9.331  0.5470 -0.1214  0.1040
 5981W        W10045   2.917   1.243  10.631 -0.0862  0.2429 -0.0834
 5982W        W10046   0.081   1.539   4.152  0.1763  0.0735 -0.0340
 5983W        W10047   1.979   1.688   2.441 -0.1783  0.1945  0.0175
 5984W        W10048  10.412   9.341   9.242  0.2309 -0.1499  0.1734
 5985W        W10049   7.258   1.394   0.576  0.0640 -0.1782 -0.2091
 5986W        W10050   4.706   8.676   8.909  0.0625 -0.1798 -0.2244
 5987W        W10051   1.782   6.361   9.890 -0.0225 -0.1169 -0.2312
 5988W        W10052   4.912   8.614   0.848  0.0829 -0.0381  0.0453
 5989W        W10053   1.141   9.775   0.254  0.1426  0.1047 -0.0953
 5990W        W10054   2.755   0.037  10.647 -0.0098  0.1878 -0.1253
 5991W        W10055   7.982   7.610   9.754  0.0599  0.0083 -0.1142
 5992W        W10056   9.418   2.869  10.609  0.3484 -0.0821 -0.2217
 5993W        W10057   2.237   5.661  10.848  0.1157 -0.0964 -0.0865
 5994W        W10058   4.564  10.121   3.839  0.1216  0.1204 -0.0016
 5995W        W10059   9.292   7.338   0.369  0.2816 -0.2219  0.0245
 5996W        W10060   1.849   7.679  11.332  0.1072 -0.0580 -0.3044
 5997W        W10061   1.244   2.811   1.836  0.2074 -0.0327  0.1548
 5998W        W10062   4.531   6.225   3.335  0.2068 -0.1758 -0.2086
 5999W        W10063   4.476   8.012   2.101  0.0726 -0.2235  0.1944
 6000W        W10064   2.190  10.063  10.265 -0.4189 -0.0645  0.0084
 6001W        W10065   4.640   7.285   2.035 -0.0905  0.1014  0.0909
 6002W        W10066   0.656   5.616   9.096  0.0812 -0.0270 -0.1628
 6003W        W10067  10.499   6.772   0.136 -0.2761  0.0777  0.0372
 6004W        W10068   4.180   1.747  10.258  0.0034  0.0808 -0.0741
 6005W        W10069   0.833   3.828   2.869  0.3468 -0.0132  0.2345
 6006W        W10070   4.016   3.420   3.082  0.3017  0.0787  0.4032
 6007W        W10071   4.547   0.255   1.276  0.3604 -0.0785 -0.0986
 6008W        W10072   0.014   5.034   1.932 -0.2145  0.1666  0.0783
 6009W        W10073   5.947   4.689   2.228  0.1861 -0.1241 -0.0718
 6010W        W10074  10.087   3.810  10.082 -0.1917 -0.1095  0.1947
 6011W        W10075   2.796   0.970   0.422  0.0356  0.2688  0.1265
 6012W        W10076   1.936   5.994   2.122  0.2424 -0.0964  0.2713
 6013W        W10077   6.176   7.310  10.209  0.0431 -0.3074  0.2341
 6014W        W10078   6.051   9.436   1.691  0.3070  0.2805 -0.1905
 6015W        W10079   0.589   9.922   1.769  0.1406 -0.2378  0.0768
 6016W        W10080   6.118   2.430  10.652 -0.1383  0.1207 -0.0464
 6017W        W10081   9.918   2.339   8.198 -0.0457  0.2724 -0.0368
 6018W        W10082   7.954   0.691   0.155  0.2139 -0.0045  0.0854
 6019W        W10083   8.716   4.285   9.969  0.0887  0.1751 -0.0399
 6020W        W10084   3.145   2.639   8.745  0.3041 -0.2453  0.0691
 6021W        W10085   7.292   1.191   9.141  0.4592 -0.1222  0.1065
 6022W        W10086   6.033   0.633   8.342 -0.0270 -0.1357  0.2786
 6023W        W10087   9.065   0.670   2.746 -0.0636  0.1024 -0.2249
 6024W        W10088   3.999   7.665   9.141  0.0827  0.1075  0.3379
 6025W        W10089   1.299   7.067   8.735  0.0264 -0.1009 -0.0208
 6026W        W10090   1.242   1.335  10.362  0.2137  0.1045  0.2341
 6027W        W10091   4.801   9.118   0.848  0.0552 -0.1877  0.1070
 6028W        W10092   8.095  10.457   0.008 -0.0964 -0.0766 -0.0867
 6029W        W10093   0.207   1.045   0.841  0.0871  0.0152  0.2291
 6030W        W10094   1.258   0.741   3.379  0.3371  0.1892  0.2984
 6031W        W10095   5.153   5.260   1.171  0.1724  0.2293 -0.0948
 6032W        W10096   8.788   9.923  11.370 -0.1698 -0.2418 -0.1262
 6033W        W10097   1.822   5.044  11.225 -0.0588 -0.4310 -0.1688
 6034W        W10098  10.236   2.858   9.955 -0.1859 -0.1464 -0.3215
 6035W        W10099   2.833   2.578   2.543  0.0530 -0.2893  0.1343
 6036W        W10100   7.364   4.074   4.119  0.1264  0.1588 -0.1363
 6037W        W10101   7.354   5.708  11.556  0.1431  0.0862 -0.3358
 6038W        W10102   4.105   4.357   2.345  0.1193  0.1370  0.1171
 6039W        W10103  10.466   1.541   2.804  0.0306  0.1527  0.1823
 6040W        W10104   1.488   1.502  11.414 -0.2294  0.2510 -0.1347
 6041W        W10105   0.899   1.555  10.742 -0.2294 -0.0814  0.0237
 6042W        W10106   5.029   6.355   1.141  0.0848  0.2711  0.1212
 6043W        W10107   6.608   1.732   4.182 -0.1712  0.3953  0.0746
 6044W        W10108   0.872   6.321   1.723 -0.1650 -0.2850  0.1052
 6045W        W10109   0.121   0.232  11.087  0.0808 -0.0347 -0.0730
 6046W        W10110   4.383   4.459   7.882 -0.0186 -0.0817  0.2376
 6047W        W10111   8.670   0.278   2.164 -0.2511  0.1784 -0.1382
 6048W        W10112   6.626   2.389  10.761  0.1289  0.2616 -0.0826
 6049W        W10113   9.367   5.348   3.228  0.2722 -0.3609 -0.3849
 6050W        W10114   5.826   1.137   2.860 -0.1096 -0.0176  0.1922
 6051W        W10115   8.629   7.999   9.040 -0.0317 -0.1889  0.1403
 6052W        W10116   5.520   7.335   8.578 -0.0819 -0.3053  0.1022
 6053W        W10117   6.769   8.204   4.061 -0.0228 -0.1141 -0.0709
 6054W        W10118   8.680   4.895   3.638  0.1991 -0.0210 -0.0703
 6055W        W10119  10.543   4.007   8.901  0.0249  0.4284  0.0398
 6056W        W10120   9.469   8.874  10.936 -0.0191 -0.0465  0.0841
 6057W        W10121   4.753   3.863   3.239 -0.0121 -0.0466 -0.1356
 6058W        W10122   4.342   0.284   3.514 -0.0622  0.1009  0.0432
 6059W        W10123   9.306   0.270   1.492  0.0905  0.2181  0.1083
 6060W        W10124   7.337   3.367   3.282  0.0081 -0.0292 -0.1028
 6061W        W10125   4.968   6.654   8.716 -0.1161 -0.0826 -0.1021
 6062W        W10126   4.841   1.464   7.175 -0.2633 -0.0314 -0.2581
 6063W        W10127   1.183   5.322  10.693  0.1508  0.0116 -0.2283
 6064W        W10128   0.404   8.706   1.008 -0.1207 -0.1858  0.1741
 6065W        W10129   2.272   4.099   9.256  0.1187 -0.1995 -0.3883
 6066W        W10130   6.879   1.736   2.664  0.1372  0.0511 -0.0184
 6067W        W10131  10.353  10.477   0.253  0.3365  0.0297  0.0370
 6068W        W10132   9.248   0.444   8.389  0.1078 -0.3555 -0.0965
 6069W        W10133   0.772   6.833   1.483 -0.2950  0.3183  0.2424
 6070W        W10134   5.894   6.872   8.793  0.0244 -0.1547  0.2894
 6071W        W10135   2.648   3.059   1.438  0.1506 -0.0657  0.2956
 6072W        W10136   7.773   2.100   2.172  0.1387  0.0715 -0.0326
 6073W        W10137   9.129   8.719   0.148 -0.0693 -0.2422 -0.2533
 6074W        W10138   7.916   9.659   0.675  0.0084 -0.2780  0.0025
 6075W        W10139   6.049   9.890   1.422 -0.1477 -0.1176  0.0360
 6076W        W10140   2.988   8.285   2.718  0.0823 -0.2379 -0.1147
 6077W        W10141   9.541   9.587   3.337  0.2773 -0.1745  0.0970
 6078W        W10142   8.399   0.199   0.052  0.1175  0.0824  0.0219
 6079W        W10143   4.712   1.552   2.873 -0.5065  0.1081 -0.0853
 6080W        W10144   9.081   7.105   8.928  0.1006  0.2901 -0.0117
 6081W        W10145   1.565   7.028   8.304  0.2802 -0.3563  0.5128
 6082W        W10146   5.839   7.817   7.659 -0.3695  0.2241  0.1461
 6083W        W10147   9.027   6.599   1.066 -0.0345  0.0616 -0.0629
 6084W        W10148   9.613   7.166   1.600 -0.3275  0.1755 -0.0127
 6085W        W10149   5.772   4.068   0.092  0.0951 -0.0076  0.1731
 6086W        W10150   4.970   0.290   1.040  0.0935  0.3281 -0.0181
 6087W        W10151   5.564   9.682   9.997  0.1957 -0.1443 -0.0699
 6088W        W10152   7.034   0.849   1.675 -0.0523  0.2531 -0.3912
 6089W        W10153   3.740   4.782   2.887  0.1152 -0.0692  0.1003
 6090W        W10154  10.046   1.696   0.958  0.0132 -0.4090 -0.2110
 6091W        W10155  10.553   8.448   9.185  0.0114  0.0983 -0.1417
 6092W        W10156   3.612   9.849   9.404 -0.2543 -0.0211 -0.1062
 6093W        W10157   3.309   0.846  10.658  0.1176 -0.0907  0.1984
 6094W        W10158   0.695   1.853   1.226 -0.1050  0.3814 -0.2127
 6095W        W10159   6.768   7.819   9.077  0.0180 -0.3787  0.2373
 6096W        W10160   9.979   5.206  10.092 -0.0295  0.1875  0.0346
 6097W        W10161   2.698   6.230   0.109 -0.0346 -0.2802  0.3428
 6098W        W10162   0.262   6.543   9.290 -0.0159  0.1134 -0.0812
 6099W        W10163   3.992   6.038   9.992  0.2132 -0.1420 -0.1825
 6100W        W10164   6.204   3.018   0.110  0.1468  0.0543  0.1056
 6101W        W10165   7.040   5.303   2.820  0.2188 -0.0867  0.1428
 6102W        W10166  10.161   6.661   7.617 -0.0477  0.0465  0.0581
 6103W        W10167   3.247   5.373  11.504  0.1677  0.4216  0.0224
 6104W        W10168   2.709   2.102   1.055 -0.2678 -0.1849 -0.0869
 6105W        W10169  10.516   1.891   2.104 -0.0183 -0.1517 -0.0550
 6106W        W10170   9.929   0.773  10.697  0.0376  0.3324 -0.0618
 6107W        W10171   2.523  10.436  10.230 -0.3530 -0.2506 -0.3616
 6108W        W10172   8.482   7.456   3.936  0.1662 -0.1664 -0.2912
 6109W        W10173  10.232   2.195   0.508  0.1014 -0.1836  0.1060
 6110W        W10174   3.035   4.076   1.452  0.1972  0.5372  0.1036
 6111W        W10175   9.720   2.515  10.767 -0.1600  0.1214 -0.3942
 6112W        W10176   7.282   6.326   1.494  0.0405  0.0306  0.0327
 6113W        W10177   4.206   4.986  10.669 -0.0220  0.1377  0.2182
 6114W        W10178   0.979   2.464  10.023  0.3599  0.0396  0.1638
 6115W        W10179   7.670   8.943   3.026  0.0391  0.1762  0.1954
 6116W        W10180  10.165   0.008   8.477  0.0193 -0.0483 -0.0159
 6117W        W10181   7.596   2.088   8.231 -0.2987 -0.0617 -0.0211
 6118W        W10182   1.069   5.848   0.580  0.1649  0.0755 -0.2839
 6119W        W10183   7.604   0.102   9.931  0.1236  0.3289 -0.0246
 6120W        W10184   1.263   3.874   2.710 -0.3207 -0.0090 -0.0913
 6121W        W10185   0.969   6.823  10.851 -0.0361 -0.1141  0.2245
 6122W        W10186   0.045   3.765   2.589 -0.0034 -0.1349 -0.1276
 6123W        W10187   1.906   4.537   3.270  0.0948 -0.0156  0.2050
 6124W        W10188   4.991   3.542  10.282 -0.0315  0.1017  0.1219
 6125W        W10189   2.292   8.960   2.719  0.2244  0.1560  0.2296
 6126W        W10190   0.631   6.492  10.990 -0.2767 -0.1621  0.5425
 6127W        W10191   5.722   9.783   0.600  0.0560 -0.1941 -0.2770
 6128W        W10192   7.457   6.941   2.144 -0.0793  0.0955  0.1623
 6129W        W10193   2.694   7.294   8.110  0.1725 -0.1567  0.2668
 6130W        W10194  10.097   7.220   1.466  0.1936 -0.0755 -0.0004
 6131W        W10195   9.635   7.714  10.662  0.1457  0.0150 -0.0753
 6132W        W10196   4.121  10.550   9.219 -0.1940 -0.0119  0.0549
 6133W        W10197   8.046   1.190   3.726  0.0560  0.1485 -0.0878
 6134W        W10198   8.050   7.976   8.389  0.3849  0.1750 -0.0416
 6135W        W10199   0.634   0.095   3.215 -0.1773 -0.2267  0.2837
 6136W        W10200   2.725   1.126   9.693  0.2445 -0.5019 -0.1391
 6137W        W10201   2.726   9.237   9.017  0.2044  0.0988 -0.0317
 6138W        W10202   8.852   1.736   8.992  0.0197 -0.0059 -0.2574
 6139W        W10203   0.013   0.776   9.816  0.1489 -0.1348  0.1063
 6140W        W10204   6.966   7.195   0.592  0.0395  0.0449  0.1419
 6141W        W10205   8.699  10.050   1.144 -0.1484 -0.1875 -0.0976
 6142W        W10206   2.611  10.206   0.278 -0.0284  0.1249 -0.0375
 6143W        W10207   8.061   1.187   0.146 -0.3032  0.1752 -0.0995
 6144W        W10208   3.687   0.718   8.022 -0.0106 -0.0411  0.0830
 6145W        W10209   8.921   2.401   2.433  0.1653 -0.1645 -0.2417
 6146W        W10210   1.550   6.165   2.413  0.3470  0.2438  0.3138
 6147W        W10211   2.999   4.131   2.353  0.0548 -0.0032  0.0423
 6148W        W10212   5.786   5.162   0.407  0.0383  0.0044  0.0938
 6149W        W10213   3.796   2.321   2.817 -0.3948 -0.1821  0.0321
 6150W        W10214   8.647   5.664   9.437 -0.0108 -0.1620 -0.0661
 6151W        W10215   3.446   0.088   1.397  0.0481 -0.1611  0.0421
 6152W        W10216   3.794   2.217   8.260 -0.0132 -0.2658 -0.1099
 6153W        W10217   2.916   4.443   2.840  0.0143  0.2879 -0.1943
 6154W        W10218   4.483   2.814   7.688  0.1731  0.0731 -0.0918
 6155W        W10219   8.825   6.171  10.055  0.0214  0.0114  0.1608
 6156W        W10220   6.324   8.007   1.677 -0.0226 -0.0497  0.2116
 6157W        W10221   2.711   9.326   0.541 -0.2523  0.0173 -0.3656
 6158W        W10222   4.089  10.140   0.877 -0.2383 -0.1119 -0.2114
 6159W        W10223   1.300   8.736   9.916 -0.1421  0.0798  0.2803
 6160W        W10224   9.966   7.180   8.976 -0.1605 -0.0187 -0.1674
 6161W        W10225   2.935   2.185  10.575 -0.0919  0.5568 -0.0285
 6162W        W10226   5.730   3.008   3.859  0.0316 -0.1006 -0.0198
 6163W        W10227   9.439   4.898   8.476 -0.2215  0.1983  0.2172
 6164W        W10228   9.630   9.742   9.527 -0.1312  0.0816  0.0205
 6165W        W10229   6.777   3.864   9.907 -0.0667 -0.1077  0.0835
 6166W        W10230   2.898   8.826   2.638  0.4201 -0.0946  0.0904
 6167W        W10231   6.717   5.328   0.450  0.0495  0.1791 -0.1183
 6168W        W10232   4.388   8.911   3.844  0.0798 -0.4513  0.0319
 6169W        W10233   3.416   7.273   1.913 -0.3533  0.2861 -0.2792
 6170W        W10234   5.142   8.417   1.539 -0.1048  0.0654 -0.0894
 6171W        W10235   1.532   2.867   0.947 -0.0559 -0.0787  0.0408
 6172W        W10236   2.652   5.309  11.518  0.2293 -0.0039  0.2157
 6173W        W10237   3.410   8.617   8.197  0.1156 -0.2828 -0.2508
 6174W        W10238   4.789   8.583   3.554  0.1146 -0.0496 -0.3650
 6175W        W10239  10.377   2.943   0.124  0.1247  0.2233  0.0695
 6176W        W10240   9.271   0.943   3.590 -0.0751 -0.1931 -0.0894
 6177W        W10241   6.041   3.988   9.502  0.0013  0.1993  0.0226
 6178W        W10242   1.178   8.583   1.769  0.2459 -0.3567 -0.2863
 6179W        W10243   7.241   4.513  11.107  0.2150 -0.1042  0.0441
 6180W        W10244   2.078   6.826   8.207  0.1492  0.0387  0.0786
 6181W        W10245   2.384   8.827  11.429  0.4701  0.1132 -0.3909
 6182W        W10246   0.872  10.200  11.030  0.2009 -0.0280  0.0729
 6183W        W10247   2.856   7.645   9.325  0.0917  0.0561  0.1685
 6184W        W10248   5.356   7.197  10.777  0.0461 -0.1573  0.0339
 6185W        W10249  10.119   6.620  10.882 -0.3625 -0.3418  0.0287
 6186W        W10250   1.023   5.921   9.331 -0.0691 -0.1198 -0.1941
 6187W        W10251   9.053   3.878  11.045  0.1396 -0.2511  0.2317
 6188W        W10252   0.485   5.180   8.113  0.3826 -0.1476 -0.0002
 6189W        W10253   2.082   2.216  10.355 -0.0075 -0.2194  0.3652
 6190W        W10254   2.278   2.656   2.407  0.1244 -0.0571  0.2356
 6191W        W10255   4.867   6.214   2.915 -0.0915  0.1600  0.1453
 6192W        W10256   1.464   1.568   1.284  0.1363  0.1136 -0.1359
 6193W        W10257   6.994   3.325   2.812  0.3111 -0.1436 -0.0362
 6194W        W10258   2.388   7.994   9.208  0.1034 -0.0401  0.0912
 6195W        W10259   4.820   5.758   1.007 -0.2285  0.2685 -0.1956
 6196W        W10260   9.099   5.774   2.386  0.4856 -0.0707  0.0528
 6197W        W10261   0.345   4.141   1.725 -0.0899  0.2723 -0.1171
 6198W        W10262   3.426   0.593   8.963 -0.0333  0.1106 -0.0323
 6199W        W10263   6.512   7.498   3.455  0.1838  0.0676  0.0914
 6200W        W10264   7.678   8.442   2.186 -0.0663  0.1923 -0.3307
 6201W        W10265   7.845   2.195   2.737  0.2984  0.0958 -0.0573
 6202W        W10266   9.508   7.018   3.141  0.0193  0.0364  0.3745
 6203W        W10267   6.530   8.179   8.622 -0.0477 -0.1186  0.2255
 6204W        W10268   7.082   3.561  10.101 -0.3487  0.1755  0.2068
 6205W        W10269   9.385   8.096   4.041  0.0047 -0.0464  0.3017
 6206W        W10270   7.759   1.727  11.509  0.0938  0.0085  0.1029
 6207W        W10271   7.480   7.154   8.951 -0.0159 -0.0451 -0.0084
 6208W        W10272   9.447   5.144   4.568 -0.3996 -0.1878 -0.1351
 6209W        W10273   4.241   3.915   0.985 -0.1253  0.1356  0.0526
 6210W        W10274   5.943   7.186   8.335  0.1464  0.1171 -0.1285
 6211W        W10275   1.045   3.042   4.163  0.0247  0.0357 -0.2984
 6212W        W10276   3.903   3.360   1.250 -0.3062  0.0848  0.0319
 6213W        W10277   8.361   9.189   3.309  0.0095 -0.0224  0.0110
 6214W        W10278   8.978   5.800   3.579 -0.0640  0.3226 -0.0414
 6215W        W10279   9.557   2.296   0.066 -0.1734  0.1401  0.1186
 6216W        W10280   8.432   6.091   8.752 -0.0483 -0.1839  0.0046
 6217W        W10281   1.263   3.414  10.368 -0.0744 -0.4155  0.1623
 6218W        W10282   6.001   7.619   9.276 -0.1494 -0.2296  0.0138
 6219W        W10283  10.028   3.170   8.330  0.0472 -0.1820 -0.1011
 6220W        W10284   5.422   1.140   3.480  0.1272 -0.4291  0.2065
 6221W        W10285   8.073   0.112   9.008  0.2975  0.2065 -0.0098
 6222W        W10286   6.406   6.514   1.081  0.3114 -0.4322  0.4094
 6223W        W10287   8.637   5.639  11.349  0.0196 -0.0195 -0.0394
 6224W        W10288   2.639   7.215   9.044 -0.1402  0.2401  0.0152
 6225W        W10289   0.339   3.996   0.517 -0.0671  0.2810 -0.4367
 6226W        W10290  10.375   1.230  11.206 -0.0181  0.1839 -0.1009
 6227W        W10291  10.512  10.182  10.446  0.1287 -0.2713  0.2244
 6228W        W10292   7.335   8.500   7.489  0.1227  0.0963 -0.0927
 6229W        W10293   4.139   6.127   1.510  0.0753  0.0375 -0.1426
 6230W        W10294   9.124   9.781   9.365  0.0239  0.0126 -0.0378
 6231W        W10295   3.438   1.240   3.500 -0.0904 -0.3085  0.0256
 6232W        W10296   3.716   2.647   3.366 -0.0557 -0.3039  0.0874
 6233W        W10297   0.369   1.750   1.961 -0.2862  0.0578 -0.0696
 6234W        W10298   2.573   3.868   0.225 -0.3216  0.0738  0.1417
 6235W        W10299   7.466   7.686   0.372 -0.0509 -0.3489 -0.0082
 6236W        W10300   1.786   4.246   3.733 -0.0772  0.0333  0.2583
 6237W        W10301   1.646   8.606   0.557  0.0680 -0.3741  0.4255
 6238W        W10302   8.187   5.432   3.733  0.0621  0.0540  0.0361
 6239W        W10303   4.878   9.796   4.126  0.0459 -0.1944 -0.2822
 6240W        W10304   7.164   8.044   3.282  0.2063 -0.1855  0.0981
 6241W        W10305  10.359   4.851  10.636  0.1002 -0.0083  0.0453
 6242W        W10306   4.819   5.768   9.730  0.0062  0.0796  0.0901
 6243W        W10307   4.761   1.891   3.187 -0.0683 -0.1573  0.0853
 6244W        W10308   0.511   4.922   3.915 -0.2017 -0.1987 -0.0941
 6245W        W10309  10.383   0.156  11.454 -0.1653  0.3748 -0.2778
 6246W        W10310   4.142   7.173   2.143 -0.3852  0.0929  0.3018
 6247W        W10311   7.554   4.454   2.245 -0.2965  0.1557  0.0005
 6248W        W10312   2.427   4.773  11.072  0.2705 -0.2578  0.2172
 6249W        W10313   0.596   3.774   9.594  0.3019  0.0122  0.2018
 6250W        W10314   6.108   9.059   9.281  0.1457  0.1230  0.1052
 6251W        W10315   9.142   2.213   1.890  0.0056 -0.0821 -0.0972
 6252W        W10316   8.383   1.278   9.583  0.1416  0.3801  0.1373
 6253W        W10317   2.616   4.758   1.953  0.2283  0.0259  0.0179
 6254W        W10318   9.467   6.611   0.826 -0.0524 -0.0828  0.3574
 6255W        W10319   4.393   4.359   1.860 -0.0030 -0.1695  0.0271
 6256W        W10320   0.285   9.138   9.193 -0.2726 -0.1337 -0.0693
 6257W        W10321   8.320   0.383   8.117 -0.0460  0.0624 -0.2900
 6258W        W10322   2.308  10.198  11.415  0.0133 -0.0327  0.3108
 6259W        W10323   1.585   5.191   1.709  0.2136  0.1100  0.0620
 6260W        W10324   1.726   9.343   1.904  0.0588  0.0167 -0.0492
 6261W        W10325   0.602   6.627   3.096 -0.3285 -0.1006  0.0487
 6262W        W10326   3.191   8.202   3.288  0.2904  0.1598  0.0465
 6263W        W10327  10.554  10.404   3.274  0.3512 -0.2767  0.0353
 6264W        W10328   1.056   2.919   0.679 -0.3635 -0.0336  0.1786
 6265W        W10329   1.344   0.999   8.850 -0.1424  0.2656  0.3102
 6266W        W10330   7.782   2.800  10.957  0.1522 -0.4618  0.1000
 6267W        W10331   7.293   1.573   1.648  0.0129 -0.1296 -0.1162
 6268W        W10332   0.025   3.822   1.229 -0.0782 -0.1455  0.1266
 6269W        W10333   9.632   4.193   7.788  0.3810  0.2498 -0.2992
 6270W        W10334   0.100   5.956   3.212 -0.2700 -0.1007 -0.1367
 6271W        W10335   7.916   3.775   7.631 -0.0823  0.5353 -0.2242
 6272W        W10336   1.409   1.470   8.572 -0.1284 -0.0417 -0.1858
 6273W        W10337   8.023   3.516   2.143  0.0184 -0.1059  0.0623
 6274W        W10338   4.708   2.408   3.242  0.2165 -0.0577  0.1406
 6275W        W10339   7.551   4.960   8.437  0.1108 -0.3355 -0.1856
 6276W        W10340   4.472   9.251   6.758  0.0712  0.1382  0.1532
 6277W        W10341   4.795   9.964   1.998 -0.0195  0.2368 -0.3820
 6278W        W10342   4.557   4.988   2.459 -0.2697 -0.1557 -0.2351
 6279W        W10343   0.369   2.524   8.443 -0.0044 -0.3470 -0.0991
 6280W        W10344   5.819   9.727   8.237  0.1524 -0.2566 -0.1362
 6281W        W10345   7.703   9.794   8.993  0.0250  0.2738  0.1966
 6282W        W10346   7.995   9.443   1.173  0.0367  0.0274 -0.0326
 6283W        W10347   1.401   6.668   0.005 -0.1941  0.2592 -0.0097
 6284W        W10348   8.047   0.560  10.187 -0.2316 -0.2129 -0.1567
 6285W        W10349   5.186   9.205   1.616  0.1406 -0.0908 -0.1354
 6286W        W10350   7.995   8.488   0.850  0.0359  0.3909  0.2013
 6287W        W10351   7.933   6.837   3.235 -0.0022  0.2464  0.0036
 6288W        W10352   4.554   5.168  11.449 -0.2032  0.4969  0.3035
 6289W        W10353   2.650   4.872   2.776 -0.0416 -0.0486  0.2455
 6290W        W10354   2.865   3.680  10.642  0.0669 -0.0638  0.0640
 6291W        W10355   3.684   6.294   0.897 -0.1586  0.1168  0.1184
 6292W        W10356   5.230   5.520   9.442 -0.1011 -0.0965 -0.1101
 6293W        W10357   6.470   9.217  11.448 -0.0534  0.1509 -0.0177
 6294W        W10358   0.130   3.900   0.119 -0.2218  0.0313 -0.2463
 6295W        W10359   5.000   3.965   0.240  0.2011  0.1849 -0.2924
 6296W        W10360   3.760   9.325   9.678  0.2388  0.2922  0.2071
 6297W        W10361   3.431   5.809  11.564 -0.3391 -0.0668 -0.0235
 6298W        W10362   2.853   1.732   0.603 -0.1219 -0.0209  0.0874
 6299W        W10363   9.363   1.341   0.146 -0.1047  0.1469  0.2416
 6300W        W10364  10.226   2.489  10.851  0.1686 -0.0668 -0.2074
 6301W        W10365   7.910   7.476   8.464  0.0667 -0.0845 -0.1201
 6302W        W10366   2.528   0.870  10.586  0.0572 -0.0922  0.1098
 6303W        W10367  10.211   4.636   9.386  0.1168  0.0147  0.2125
 6304W        W10368   4.893   9.095  11.071  0.0371 -0.1055  0.1313
 6305W        W10369   9.879   1.069   8.533  0.3288 -0.3620  0.0593
 6306W        W10370   5.978   3.385  10.117  0.1147 -0.0714 -0.0293
 6307W        W10371  10.524   9.510   1.139  0.0690 -0.2926  0.1703
 6308W        W10372   7.830   8.838   2.541 -0.1009 -0.0827  0.1607
 6309W        W10373   8.357   7.191   3.210 -0.3290 -0.1092  0.1796
 6310W        W10374   0.790   6.880   2.617 -0.1926 -0.0173  0.0461
 6311W        W10375   0.880   0.375   2.412  0.0084  0.1837 -0.1532
 6312W        W10376   4.449   7.676  11.443 -0.0001 -0.1181  0.1972
 6313W        W10377   7.648   6.202   1.166 -0.1586 -0.0518  0.1247
 6314W        W10378   2.846   0.660   7.629 -0.0608  0.2239  0.0058
 6315W        W10379   6.040   2.338   2.565 -0.4171  0.3040  0.0224
 6316W        W10380   7.617   1.289   8.003 -0.1931  0.1937  0.1357
 6317W        W10381   4.236   4.839   2.091  0.1126  0.0257  0.0305
 6318W        W10382   2.453   6.872   0.947  0.0584  0.0197  0.0062
 6319W        W10383   0.666   7.581   1.845  0.0797  0.0696  0.1207
 6320W        W10384   7.721   9.881   1.090 -0.1444  0.1074  0.0162
 6321W        W10385   7.329   7.390   3.850 -0.0563  0.1422 -0.2512
 6322W        W10386   9.023   2.087  11.301 -0.1187  0.0034 -0.0734
 6323W        W10387   7.420   7.454   8.394  0.1724 -0.1097  0.2150
 6324W        W10388   7.313   9.210   3.264 -0.1519  0.0435 -0.3134
 6325W        W10389   1.140   1.819   8.322  0.0681  0.0582 -0.2059
 6326W        W10390   5.528  10.228   4.088  0.1380  0.2430 -0.1993
 6327W        W10391   7.443   9.003   8.733 -0.0442  0.3350  0.1516
 6328W        W10392   0.106   4.294   2.554  0.3019 -0.0126 -0.2073
 6329W        W10393   3.562   3.482   9.023  0.1381  0.0844 -0.0506
 6330W        W10394   5.107   5.839   2.446 -0.1600 -0.0194  0.1153
 6331W        W10395   8.374   8.004   2.617  0.1656 -0.2948 -0.1283
 6332W        W10396   6.382   1.611   8.023  0.1326  0.0732 -0.0552
 6333W        W10397   5.882   8.720  10.368  0.1128  0.0509  0.2409
 6334W        W10398   0.501   6.247   0.759  0.0282 -0.1718  0.1718
 6335W        W10399   7.872   0.987   4.147 -0.1819  0.0152 -0.0901
 6336W        W10400   9.787   5.813  11.324  0.0430 -0.2202 -0.2918
 6337W        W10401   0.617   5.100   3.124  0.2591  0.3927  0.1318
 6338W        W10402   5.291   6.321   2.560  0.0335  0.0947 -0.0514
 6339W        W10403   6.581   4.687   8.175  0.4629  0.1444 -0.0338
 6340W        W10404   2.515   7.374   0.294  0.1354 -0.1786  0.0050
 6341W        W10405   5.632   5.920   2.388 -0.2052  0.0101 -0.0995
 6342W        W10406   3.199   1.688  10.026  0.2006  0.2685  0.0981
 6343W        W10407   1.833   5.904   9.744  0.1841  0.0921 -0.0962
 6344W        W10408   6.058   5.255   3.311  0.0776 -0.2863 -0.0440
 6345W        W10409   3.601   1.719  10.318  0.2933  0.1344  0.0627
 6346W        W10410   5.962   7.126  10.719 -0.3417 -0.0877  0.1503
 6347W        W10411   5.993   8.358   3.121 -0.3198 -0.3292  0.0251
 6348W        W10412   2.437   3.847   1.203 -0.1847  0.4510 -0.1542
 6349W        W10413   8.433   3.843   0.670  0.1787 -0.0256 -0.0506
 6350W        W10414   8.896   2.050   8.624  0.2444  0.0774 -0.2667
 6351W        W10415   0.733   0.191   8.712  0.0368  0.2360  0.0640
 6352W        W10416   0.225   6.525  11.436 -0.0255 -0.1973  0.1916
 6353W        W10417   1.354   8.156   2.072  0.0330 -0.0866 -0.1010
 6354W        W10418   3.483   1.943   4.371  0.1357  0.0340  0.2602
 6355W        W10419   9.946   0.986   0.818  0.0682  0.2624 -0.3859
 6356W        W10420   5.528   9.617   2.958 -0.1043 -0.3753  0.2124
 6357W        W10421   9.937   7.122   1.981  0.1104  0.4649 -0.2235
 6358W        W10422   0.001   7.517   8.965  0.1779 -0.0412 -0.2411
 6359W        W10423   5.348   1.196   2.046  0.1815 -0.1207 -0.1574
 6360W        W10424   2.494   8.047   2.670  0.0253  0.0386  0.0728
 6361W        W10425   4.509   9.681   7.953  0.2727 -0.1362 -0.0192
 6362W        W10426   7.641   9.212   4.181 -0.0166  0.0499 -0.3569
 6363W        W10427   1.040   7.497  11.060  0.1060  0.2189 -0.3044
 6364W        W10428   5.966   9.183   2.238  0.1107  0.0200 -0.0247
 6365W        W10429  10.180   5.350   0.879 -0.0848 -0.0488  0.1182
 6366W        W10430   2.446   9.276   8.584  0.0577  0.1624 -0.0378
 6367W        W10431   1.684   9.635   8.966  0.0230  0.2535 -0.0836
 6368W        W10432   9.575  10.467   2.756 -0.1623 -0.2249 -0.4711
 6369W        W10433   2.580   5.341   0.808  0.2274 -0.1229  0.2756
 6370W        W10434   5.842   5.000   8.269  0.0966  0.1961 -0.0486
 6371W        W10435   2.901   7.349  10.048 -0.1031  0.0147  0.1602
 6372W        W10436   2.346   9.623   7.949  0.1218  0.1931  0.2995
 6373W        W10437   1.469   8.370  10.242  0.3648 -0.0121 -0.1255
 6374W        W10438   1.403   7.297   3.137 -0.2260  0.0967 -0.1099
 6375W        W10439   0.271   6.630  10.309 -0.0030 -0.0066  0.0246
 6376W        W10440   4.831   9.223   8.643 -0.0398 -0.1763  0.0311
 6377W        W10441   9.856   3.549   2.508 -0.0869  0.1884 -0.1328
 6378W        W10442  10.450   3.040   2.168  0.2586 -0.1101  0.1950
 6379W        W10443   4.304   5.507   0.621  0.0748  0.2069  0.0172
 6380W        W10444   1.248   8.414   9.554 -0.1143 -0.1963 -0.1814
 6381W        W10445   2.346   6.651   9.991  0.3094 -0.3036 -0.1461
 6382W        W10446   1.044   6.708   0.787  0.0192  0.0006 -0.1811
 6383W        W10447   6.568   1.726   3.674  0.0153  0.2911  0.0358
 6384W        W10448   1.870   0.615  11.214  0.2261 -0.2391  0.1023
 6385W        W10449   8.186   1.937   3.038  0.5233 -0.0645 -0.1219
 6386W        W10450   9.605   0.121   0.759 -0.2839  0.2421  0.3106
 6387W        W10451   1.813   1.334  10.615 -0.2857 -0.1928  0.0181
 6388W        W10452   3.155   1.637   2.447 -0.2434  0.1078 -0.0012
 6389W        W10453   9.926   5.060   9.245 -0.2162 -0.0426 -0.1659
 6390W        W10454   4.001   9.251   8.770  0.1975 -0.0962 -0.2378
 6391W        W10455   3.167   2.169  10.134 -0.2574  0.1554 -0.0319
 6392W        W10456  10.603   0.071   7.980  0.0234 -0.0391  0.0154
 6393W        W10457   6.336   3.556   9.771  0.0674  0.1798 -0.0488
 6394W        W10458   3.101   0.984   8.879 -0.2359 -0.0325 -0.2300
 6395W        W10459   4.004   5.762   2.782 -0.2251  0.2020 -0.3168
 6396W        W10460   8.593   3.941  10.809  0.0858 -0.2301 -0.1245
 6397W        W10461   7.414   3.645   2.822  0.0439  0.1603 -0.0461
 6398W        W10462   3.310   2.195   8.018 -0.1122 -0.0609 -0.0235
 6399W        W10463   8.760   9.178   8.300  0.0894  0.3194 -0.0631
 6400W        W10464   5.010   2.669   3.562 -0.2175  0.0419 -0.1251
 6401W        W10465   3.544   6.793   1.809 -0.0018  0.3375  0.0277
 6402W        W10466  10.034   8.289   1.009  0.1326 -0.4196 -0.4188
 6403W        W10467   5.015   8.211   2.205 -0.1550 -0.0361 -0.1611
 6404W        W10468   6.414   1.512   2.674 -0.0184 -0.0121  0.3510
 6405W        W10469   0.044   9.222   9.776  0.2638 -0.2121  0.0095
 6406W        W10470   1.073   7.260   8.255  0.3075  0.2493  0.0432
 6407W        W10471   1.844   9.743   3.601 -0.3892  0.3400  0.1997
 6408W        W10472   0.987   7.701   2.350  0.2216  0.0531  0.0425
 6409W        W10473   7.925   3.513  11.039  0.1068  0.0167 -0.0811
 6410W        W10474   8.852   3.680   8.254  0.4887 -0.0793  0.1191
 6411W        W10475   3.556   7.532   0.759  0.0867 -0.1115  0.0710
 6412W        W10476   3.102   4.356   9.546 -0.1393  0.2822 -0.1511
 6413W        W10477   5.052   3.911   8.864 -0.3536 -0.2536  0.2498
 6414W        W10478   6.507   7.236   8.392  0.1224  0.1257 -0.1870
 6415W        W10479   7.802   6.346   3.303  0.3558  0.0039  0.0174
 6416W        W10480   1.897   1.687   8.410 -0.2206 -0.3233  0.2359
 6417W        W10481   1.061   5.924   3.003 -0.2494  0.1261  0.2183
 6418W        W10482   3.946   5.790  11.445 -0.0753 -0.0688 -0.1555
 6419W        W10483   5.172   7.952  10.388  0.0275  0.0596  0.1925
 6420W        W10484   5.226   3.821   3.067 -0.0846 -0.0376 -0.3802
 6421W        W10485   6.102   3.261   3.099 -0.0472  0.0915  0.0340
 6422W        W10486   1.985   4.599   2.112  0.1827 -0.1010  0.1682
 6423W        W10487   6.359   1.615  11.305  0.3402  0.2000 -0.1784
 6424W        W10488   1.267   7.522  10.554  0.0457 -0.1026  0.2540
 6425W        W10489   3.630   5.631  10.030 -0.1973  0.4160 -0.0179
 6426W        W10490   3.598   2.115   0.597  0.0607 -0.0100 -0.1224
 6427W        W10491   2.051   7.313   9.756  0.1375 -0.0445 -0.0179
 6428W        W10492   3.595   2.948   1.391 -0.0256 -0.2651  0.1435
 6429W        W10493   8.634   3.569   3.062 -0.0311 -0.1343 -0.3602
 6430W        W10494   6.570   7.908  10.087  0.0186  0.0695  0.0009
 6431W        W10495   4.389   2.069   8.544  0.0212 -0.3284 -0.1560
 6432W        W10496   9.184   8.127  10.511 -0.3709 -0.1673 -0.3222
 6433W        W10497   1.008   0.953  10.723  0.0794 -0.3043  0.0604
 6434W        W10498   4.538   1.191   0.065  0.0360  0.1177  0.0001
 6435W        W10499   9.017   8.225   8.797 -0.0482  0.1018  0.1401
 6436W        W10500   2.634  10.470   1.757  0.0183 -0.2092 -0.0193
 6437W        W10501   2.084   5.143  10.808  0.3437  0.0571 -0.2840
 6438W        W10502   9.650   5.183   3.607 -0.0771  0.1369 -0.0479
 6439W        W10503   0.440   5.941  10.863 -0.4006 -0.1356 -0.0359
 6440W        W10504   7.396   8.027   2.515  0.0265 -0.0373  0.2133
 6441W        W10505   7.621   4.367   9.978 -0.0206  0.0639 -0.1723
 6442W        W10506   8.244   3.064   2.324  0.2578  0.2069 -0.3342
 6443W        W10507  10.473   2.497  10.348  0.2295 -0.2278 -0.0677
 6444W        W10508  10.113   9.993  10.740  0.2871 -0.2033  0.0930
 6445W        W10509   5.281  10.534   4.432 -0.1990 -0.2371 -0.1295
 6446W        W10510   4.923   8.100  11.107 -0.0717 -0.0112 -0.2356
 6447W        W10511   5.945   4.420   8.697 -0.1050 -0.2268  0.0166
 6448W        W10512   5.937   3.011  10.813  0.0944  0.1852 -0.1729
 6449W        W10513   6.892   5.839   2.042 -0.0853 -0.1854  0.2840
 6450W        W10514   5.651   0.470   8.089 -0.2566 -0.3180 -0.2279
 6451W        W10515   1.566   6.515   0.973  0.1689  0.0245  0.0366
 6452W        W10516   7.331   6.530   8.259  0.3083  0.0933  0.0371
 6453W        W10517   7.156   3.821  10.559 -0.0324  0.2528 -0.3968
 6454W        W10518   5.390  10.072   8.338  0.2078  0.0494  0.2201
 6455W        W10519   7.450   6.751   0.481  0.1326  0.2309 -0.0157
 6456W        W10520   7.023   8.482   2.329  0.1256 -0.0321 -0.3634
 6457W        W10521   1.260   8.390   3.156  0.0368  0.1496  0.1489
 6458W        W10522   0.266   0.099   1.488  0.1072 -0.0378 -0.1935
 6459W        W10523   9.035   7.024   9.888 -0.1177 -0.1092 -0.0520
 6460W        W10524   6.290   3.063   1.953  0.0272  0.4760 -0.2327
 6461W        W10525   5.647   1.623   2.594  0.0195 -0.1040  0.0984
 6462W        W10526   2.812   6.122  10.394  0.2014 -0.1015  0.1653
 6463W        W10527  10.302   3.072   9.502 -0.1660 -0.1191  0.0232
 6464W        W10528   3.554   9.543   0.051 -0.1973  0.3214 -0.2792
 6465W        W10529   2.928   4.890  11.350  0.1392 -0.2414 -0.1185
 6466W        W10530   7.883   3.651   1.363 -0.0088 -0.1466  0.4850
 6467W        W10531   4.466   5.318  10.436 -0.0016  0.2468 -0.0859
 6468W        W10532   7.129   6.586  11.542  0.2435  0.2317 -0.1234
 6469W        W10533   9.493   9.408   2.437 -0.2868 -0.1953 -0.0150
 6470W        W10534   2.912   8.156   9.168  0.6043 -0.1224  0.0363
 6471W        W10535   6.970   4.506   3.103  0.0070 -0.2185  0.1448
 6472W        W10536   3.253   0.464  10.266  0.2686  0.1384  0.0430
 6473W        W10537   6.161   9.042  11.016  0.2553  0.3405  0.4367
 6474W        W10538   3.245   8.696   7.309  0.3273 -0.1433 -0.1855
 6475W        W10539   9.109   9.115   2.500  0.1107 -0.1039  0.3881
 6476W        W10540   7.095   5.465   9.337  0.0740  0.1786 -0.0843
 6477W        W10541   1.127   3.505   8.752  0.1282 -0.1355 -0.0054
 6478W        W10542   9.499   3.353   0.518 -0.0842  0.1110 -0.0539
 6479W        W10543   8.554   9.032   1.142  0.0904 -0.1200  0.1322
 6480W        W10544   2.612   2.991   2.400  0.0214  0.0818  0.1310
 6481W        W10545   9.969   2.668   9.579 -0.0484  0.0098  0.0270
 6482W        W10546   0.473   7.242   9.048  0.0126  0.1343 -0.0912
 6483W        W10547   2.628   9.344  10.686  0.0828 -0.4025  0.0884
 6484W        W10548   7.827   0.866   8.890 -0.1173 -0.1236  0.0665
 6485W        W10549   7.048   6.280   2.797 -0.0814  0.0715 -0.0034
 6486W        W10550   6.679   6.737   1.895  0.2923 -0.4173  0.2508
 6487W        W10551   4.916   6.927   2.273 -0.0458 -0.0312 -0.1079
 6488W        W10552   7.095   3.060   9.941 -0.2818 -0.1046 -0.0000
 6489W        W10553   0.853   2.321   9.515 -0.3101  0.2586  0.1380
 6490W        W10554   8.563   3.375   0.554  0.1671  0.1795  0.0883
 6491W        W10555   8.249   3.207   2.912  0.3181 -0.2623  0.0067
 6492W        W10556   0.257   8.622   1.541  0.2586  0.4014  0.0186
 6493W        W10557   6.798   5.233   2.042  0.3780 -0.1055 -0.0233
 6494W        W10558   7.459   7.188   0.718  0.0300 -0.1427 -0.2601
 6495W        W10559   7.060   4.841   1.173 -0.1021 -0.0034 -0.3701
 6496W        W10560   0.876   6.773   3.542  0.0737 -0.0527 -0.1575
 6497W        W10561   7.926   7.269   9.148  0.1513  0.0941  0.4913
 6498W        W10562   6.758   5.060  10.969 -0.0379  0.1997 -0.1493
 6499W        W10563   1.953   8.412   8.860  0.1157  0.0997 -0.1886
 6500W        W10564   7.472   3.632   8.503  0.2866  0.0327 -0.2460
 6501W        W10565   2.185   3.471  11.356  0.1024 -0.0686  0.0189
 6502W        W10566   8.656   1.909   3.188  0.1473  0.2311 -0.0842
 6503W        W10567   6.664   4.488   3.508  0.1610 -0.1257  0.1555
 6504W        W10568   7.320   9.160  11.468  0.1594  0.0290 -0.2335
 6505W        W10569   9.425   4.214   2.166  0.0637  0.0876  0.0895
 6506W        W10570   4.435   3.939  10.080 -0.0439  0.0350  0.2050
 6507W        W10571   7.332   0.498  11.081  0.2285 -0.0119 -0.0991
 6508W        W10572  10.465   6.620   2.716 -0.0950 -0.0631 -0.0438
 6509W        W10573   2.262   6.246   9.730  0.2873  0.1450 -0.1817
 6510W        W10574   5.839   3.516   8.651 -0.2574  0.1533  0.4279
 6511W        W10575   8.280  10.010   9.778 -0.1828  0.0719  0.0252
 6512W        W10576   8.055   0.619   1.147  0.1987  0.0388  0.1935
 6513W        W10577   1.606   9.919   0.189  0.1126  0.0661  0.0208
 6514W        W10578   2.690  10.025   1.166 -0.1231  0.0200 -0.1328
 6515W        W10579   8.907   0.677   1.567  0.0326 -0.2528 -0.0687
 6516W        W10580   9.222   3.220   9.082 -0.5237  0.0389 -0.3542
 6517W        W10581   3.434   7.845  10.128  0.2101 -0.1034 -0.0240
 6518W        W10582  10.502   7.111   2.221  0.1559  0.1522  0.3724
 6519W        W10583   5.922   5.712   2.016  0.1882 -0.0028 -0.0491
 6520W        W10584   6.590   0.681   1.556  0.0005 -0.0832  0.1112
 6521W        W10585   5.381   2.713  11.043 -0.0632 -0.1829  0.2560
 6522W        W10586   9.520   1.338   1.565 -0.1712  0.1836  0.2265
 6523W        W10587   8.827   2.718  11.463  0.1342  0.1771 -0.1619
 6524W        W10588   9.280   9.291   2.969 -0.0382  0.0208 -0.4028
 6525W        W10589   1.435   4.986   2.562 -0.1533 -0.1484  0.1118
 6526W        W10590   3.196   0.135  10.889 -0.1106  0.1486 -0.2848
 6527W        W10591   1.866   9.028   8.895 -0.1909  0.0860 -0.1976
 6528W        W10592   0.538   0.604   1.453  0.5957 -0.1068  0.0366
 6529W        W10593   1.536  10.604   8.130  0.0076  0.0726  0.3783
 6530W        W10594   5.025   0.961   9.817 -0.3251 -0.0542 -0.1773
 6531W        W10595   7.441   4.969   2.973  0.0217 -0.1387  0.2434
 6532W        W10596   7.338   6.648  11.082  0.0703  0.3659  0.1013
 6533W        W10597   9.631   8.541   1.862  0.5613 -0.0553 -0.3196
 6534W        W10598   8.962   5.779   1.021 -0.0077 -0.1575  0.2058
 6535W        W10599   8.387   5.793  10.919 -0.0568 -0.0789  0.1415
 6536W        W10600   6.237   9.887   3.192  0.0258  0.0652  0.1624
 6537W        W10601   6.726   4.570  11.148 -0.1768  0.2017 -0.1101
 6538W        W10602   7.388   0.570   0.108  0.5912  0.0209  0.6940
 6539W        W10603   5.763   7.775  11.541 -0.1760  0.0469 -0.3328
 6540W        W10604   2.762   2.809   3.337  0.0441  0.1124  0.1309
 6541W        W10605   2.339   5.101   2.186 -0.4751  0.1367  0.2376
 6542W        W10606   9.647   5.724   2.810 -0.2644 -0.2580  0.3453
 6543W        W10607   5.646   3.181   0.196 -0.1083 -0.2927 -0.1302
 6544W        W10608   1.614  10.391   1.095 -0.0733  0.1217  0.2141
 6545W        W10609   7.857  10.230   9.334  0.1859 -0.2933 -0.2197
 6546W        W10610   7.531   7.835   9.727  0.2348 -0.0775  0.1943
 6547W        W10611   1.097   1.073   8.459  0.1047  0.0378  0.1248
 6548W        W10612   3.401   7.979   8.970  0.0049 -0.0533  0.2237
 6549W        W10613   2.815   6.436   0.573 -0.0594  0.1712  0.0487
 6550W        W10614   4.250   7.845   8.575  0.1745 -0.1689  0.1191
 6551W        W10615   6.744  10.549   1.101  0.0048 -0.0278 -0.1839
 6552W        W10616   3.787   2.223   1.822 -0.0038  0.0042  0.1693
 6553W        W10617   1.996   3.720   9.121 -0.2868 -0.2034 -0.1708
 6554W        W10618  10.435   6.215   0.080 -0.2868 -0.0448  0.0297
 6555W        W10619   6.092   7.032   9.299  0.3312  0.0309  0.0352
 6556W        W10620   0.972   7.899   3.244  0.2001  0.2106 -0.0709
 6557W        W10621  10.486   3.748  11.363 -0.0395  0.1891  0.1707
 6558W        W10622   4.005   8.764  11.233  0.2450  0.1191  0.1733
 6559W        W10623   6.192   5.500   0.255 -0.0383  0.0057 -0.1287
 6560W        W10624   9.390   5.405   9.133  0.1473 -0.1664  0.2897
 6561W        W10625   7.171   1.418   7.800 -0.2816  0.0558 -0.0298
 6562W        W10626   5.942   7.231   0.697 -0.0666  0.0504 -0.1677
 6563W        W10627   5.094   4.502   8.534  0.0422  0.1269  0.2268
 6564W        W10628   6.676   3.733   2.771 -0.0593  0.0225  0.1405
 6565W        W10629   6.508   8.263   3.009  0.0688 -0.1504  0.1260
 6566W        W10630  10.342   6.132   9.894 -0.1751 -0.3526 -0.2520
 6567W        W10631   4.732   1.437   4.082 -0.0804  0.1463 -0.0567
 6568W        W10632   1.006   0.752  11.560  0.1093  0.1333  0.3898
 6569W        W10633   0.070   7.820  10.227  0.2156  0.1397 -0.1778
 6570W        W10634   3.679   8.566   1.677  0.2500  0.2513  0.1578
 6571W        W10635   7.093   4.660   8.010 -0.0148  0.3279  0.0448
 6572W        W10636   4.363   1.688   0.247  0.1445 -0.0574 -0.0405
 6573W        W10637   2.922   4.597   0.181 -0.0743  0.1450 -0.0823
 6574W        W10638   6.381   7.861   2.269  0.1944  0.1468  0.0337
 6575W        W10639   5.088   1.131   9.040  0.4868  0.0684 -0.0090
 6576W        W10640   0.291   9.205  10.559  0.0742  0.1986 -0.0494
 6577W        W10641   0.791   8.177   9.428  0.1195  0.4046 -0.3000
 6578W        W10642   6.986   9.445   0.172 -0.2199 -0.3014 -0.2680
 6579W        W10643   2.321   4.237   9.924 -0.0990 -0.2261 -0.2102
 6580W        W10644   5.181   2.226   3.295 -0.0490 -0.0253  0.0088
 6581W        W10645   5.203   0.676  10.802 -0.1555 -0.2111 -0.1661
 6582W        W10646   9.765   3.896   8.210 -0.0032  0.0921 -0.0075
 6583W        W10647   3.697   1.474   2.543  0.2461 -0.0589  0.0208
 6584W        W10648   7.535   8.320   9.565  0.0398 -0.0499 -0.1937
 6585W        W10649   0.525   8.576  10.396 -0.1043  0.0928  0.0851
 6586W        W10650   1.206   5.078   1.302 -0.1867  0.2609 -0.2244
 6587W        W10651   0.780   9.426   0.145  0.0632 -0.0439 -0.3906
 6588W        W10652   2.532   9.709  10.224 -0.1158  0.0907  0.0377
 6589W        W10653   5.274   1.090   1.266 -0.0598  0.0781  0.1909
 6590W        W10654   6.146   5.825   3.366  0.0368 -0.1165 -0.2329
 6591W        W10655   9.603   6.948  11.558  0.0856  0.0790 -0.3391
 6592W        W10656   8.868  10.590   8.511  0.3698  0.2942 -0.0882
 6593W        W10657   1.439   1.889   8.938  0.0473  0.2840 -0.1402
 6594W        W10658   0.362   8.362   0.669 -0.0041  0.0170 -0.2518
 6595W        W10659   8.410   9.224   9.379 -0.2680 -0.0191  0.0183
 6596W        W10660   7.713   4.502   2.734  0.4431 -0.1595 -0.1419
 6597W        W10661   2.475   6.203   1.486  0.1759 -0.1191 -0.3272
 6598W        W10662   7.715   9.947   3.348 -0.1457  0.3757 -0.0373
 6599W        W10663   8.598   9.406   2.055  0.1248 -0.1937  0.0930
 6600W        W10664  10.501   3.747  10.492  0.1393 -0.0606 -0.0576
 6601W        W10665   5.952   2.549   0.774 -0.2871 -0.3410 -0.4179
 6602W        W10666   6.248   4.178   9.064 -0.1823 -0.0228  0.0553
 6603W        W10667   6.638   8.601   8.245 -0.1477  0.0161  0.1008
 6604W        W10668   2.574   1.457   1.623 -0.0844 -0.1123  0.1021
 6605W        W10669   1.502   3.736   2.268  0.0997  0.0823  0.4007
 6606W        W10670   4.920  10.492   1.321 -0.0163 -0.2013 -0.1410
 6607W        W10671   9.722   7.188   3.708 -0.0134  0.1857 -0.0227
 6608W        W10672   4.801   4.481  10.275  0.3630  0.2425  0.2553
 6609W        W10673   0.152   2.234   0.640  0.0699  0.0281 -0.1157
 6610W        W10674   3.968  10.273   8.303  0.1809 -0.1460  0.2949
 6611W        W10675   4.132   5.963  10.480  0.1599  0.0439 -0.2978
 6612W        W10676   2.228   2.142   1.138  0.1153 -0.1079 -0.1019
 6613W        W10677   2.056   7.717   3.974 -0.1692  0.3781 -0.2670
 6614W        W10678   3.724   8.329  11.413 -0.1730  0.1894 -0.0421
 6615W        W10679   1.828   4.182  10.106 -0.1558 -0.1816  0.3043
 6616W        W10680   8.457   7.792   0.224  0.3462  0.1729  0.1761
 6617W        W10681   3.139   0.767   2.132  0.2257 -0.0729  0.0169
 6618W        W10682   9.095   5.378   8.623 -0.0538 -0.0012  0.0192
 6619W        W10683   1.856   9.757   8.076 -0.0916  0.2733  0.0201
 6620W        W10684   7.138   2.629   3.829  0.4188  0.4667  0.3358
 6621W        W10685   3.587   4.708   1.639 -0.1429 -0.1262  0.0393
 6622W        W10686   3.139   6.709   3.208  0.2346  0.0102  0.0913
 6623W        W10687   7.694  10.041   8.068 -0.0144  0.0099 -0.2900
 6624W        W10688   4.354   4.463   2.918  0.0030  0.0036 -0.0137
 6625W        W10689  10.068   0.507   9.445  0.0010  0.0055  0.0936
 6626W        W10690   7.597   1.950   1.746 -0.4383  0.0565  0.0853
 6627W        W10691   1.230   2.468   2.312 -0.2110 -0.0683 -0.4047
 6628W        W10692   4.385   2.733   0.394  0.0736 -0.0618  0.2097
 6629W        W10693   6.498   9.849   9.094 -0.2394  0.1761  0.1654
 6630W        W10694   0.722   0.678   3.347 -0.1985 -0.1378  0.0244
 6631W        W10695   7.251   3.140   8.529 -0.0572  0.0526 -0.1957
 6632W        W10696   6.302   4.356  11.214  0.3273  0.4435 -0.0223
 6633W        W10697   5.531   4.941   2.532  0.3299 -0.1693 -0.0425
 6634W        W10698   8.335   8.171   1.288  0.0699 -0.0874 -0.3344
 6635W        W10699   0.684   0.645   8.299 -0.0962  0.2153  0.1798
 6636W        W10700   3.791   0.350   3.439  0.1654  0.1062  0.1879
 6637W        W10701   6.210   6.087   8.268  0.1631  0.0807  0.1965
 6638W        W10702   7.256   8.727   3.189 -0.0050  0.1203 -0.3223
 6639W        W10703   3.226   3.354  10.540 -0.0510 -0.1763  0.1789
 6640W        W10704   6.886   9.504  11.214  0.1291  0.0295  0.0375
 6641W        W10705   4.902   7.648  11.306 -0.3606 -0.1253 -0.3049
 6642W        W10706   7.920   6.348   9.060  0.2320 -0.0046 -0.1901
 6643W        W10707   5.454   6.817   0.328 -0.2020  0.2397 -0.2672
 6644W        W10708  10.311   1.810   8.935 -0.0457  0.0545 -0.0540
 6645W        W10709   3.382   2.534   2.425  0.2268 -0.2755 -0.0492
 6646W        W10710   3.481   4.891   0.220 -0.1414  0.2693  0.2432
 6647W        W10711   0.671   8.579  11.186  0.1989  0.0934 -0.2122
 6648W        W10712   3.082   8.629  10.788 -0.3539  0.2694  0.1125
 6649W        W10713   1.678   1.439   9.284  0.0331 -0.3302 -0.2716
 6650W        W10714   6.598   5.131   9.279 -0.1847 -0.0823 -0.2886
 6651W        W10715  10.188   4.929   8.817 -0.0328  0.2383  0.1351
 6652W        W10716   3.412   0.567   9.829  0.3386  0.3399 -0.0622
 6653W        W10717  10.032   2.719   8.480  0.0931  0.2257  0.0486
 6654W        W10718   4.194   3.624  11.390  0.0365  0.0974  0.2049
 6655W        W10719   0.490   8.360   9.960 -0.4360  0.1010 -0.0488
 6656W        W10720  10.290   8.918   4.002  0.2170  0.0938  0.1647
 6657W        W10721   5.649   9.058   9.056  0.1915  0.0049  0.2136
 6658W        W10722   2.496   9.579   9.317 -0.1143  0.2976 -0.1848
 6659W        W10723   4.592  10.367   1.675 -0.4508 -0.1096  0.1882
 6660W        W10724   5.604   6.817   3.264  0.0488 -0.3101 -0.2085
 6661W        W10725   9.235   9.716   8.627  0.3223  0.0999 -0.1672
 6662W        W10726   2.984   5.391   2.647 -0.2555  0.0477 -0.0846
 6663W        W10727   3.747   1.437   8.592 -0.2227  0.2799  0.1099
 6664W        W10728   3.639   6.230   0.121  0.0754 -0.1367  0.0195
 6665W        W10729   2.779   5.947   2.499 -0.0174 -0.1472  0.2100
 6666W        W10730   0.236   4.910   8.847 -0.1991  0.0210  0.0316
 6667W        W10731   8.955   1.433   0.379 -0.2669  0.3622  0.5013
 6668W        W10732   9.780   4.418   8.289 -0.3131  0.1576 -0.2102
 6669W        W10733   1.053  10.482   8.005 -0.0809  0.0466  0.0885
 6670W        W10734   7.088   6.060   1.063 -0.0965  0.1829 -0.4626
 6671W        W10735   0.592   4.557   8.974  0.2703 -0.1778 -0.1228
 6672W        W10736   2.216   8.020   8.664 -0.1009  0.1541  0.0248
 6673W        W10737   6.964   8.572   1.840  0.2281 -0.1085  0.0472
 6674W        W10738  10.127   0.560   1.435 -0.0448 -0.0550  0.0198
 6675W        W10739   5.211   0.268   0.105  0.4507  0.2685 -0.1452
 6676W        W10740   0.668   1.666   8.151  0.0810 -0.0375  0.1498
 6677W        W10741   7.577   0.023   7.662  0.0077 -0.2675  0.1145
 6678W        W10742   3.407   8.336  10.009 -0.1452 -0.1560 -0.0443
 6679W        W10743   0.793   9.761  10.302  0.0670  0.1225  0.0122
 6680W        W10744   3.834   2.136   3.305 -0.1075  0.1180 -0.1518
 6681W        W10745   8.230   7.080   3.706 -0.2317 -0.1043  0.2820
 6682W        W10746   1.951   1.761   1.493 -0.1343  0.2150 -0.0068
 6683W        W10747   0.310   7.612   9.399 -0.0386  0.1756 -0.2888
 6684W        W10748   9.446   1.944   9.457  0.0312 -0.2535 -0.1166
 6685W        W10749   9.907   2.327  11.275 -0.2031  0.2223  0.0939
 6686W        W10750   8.199   9.509   0.267 -0.1143 -0.1892 -0.0650
 6687W        W10751   9.488   6.620   1.594  0.2981 -0.0456 -0.0242
 6688W        W10752  10.024   4.283   9.745 -0.0419  0.0765 -0.0711
 6689W        W10753   2.909  10.346  11.042  0.1569 -0.0599 -0.0178
 6690W        W10754   3.206  10.459   1.836 -0.0959 -0.3041  0.0299
 6691W        W10755   3.721   9.046  11.611 -0.3984  0.1642  0.2192
 6692W        W10756   5.503   4.500   0.768  0.2356 -0.0526 -0.0641
 6693W        W10757   7.198   0.139   1.110 -0.0612 -0.1689  0.2364
 6694W        W10758   6.221   9.587   0.751  0.0186 -0.0065  0.2286
 6695W        W10759   9.586   7.596   3.417  0.0942 -0.2658 -0.0949
 6696W        W10760   8.133   9.976   7.943 -0.3780 -0.2708 -0.1640
 6697W        W10761   7.127   6.163   3.385 -0.1260 -0.2869 -0.0736
 6698W        W10762  10.399   6.691   9.150 -0.1770  0.0138 -0.0085
 6699W        W10763   2.601   2.950  10.225  0.3639 -0.3171  0.1937
 6700W        W10764   3.736   3.555   0.198 -0.2904 -0.3549 -0.1685
 6701W        W10765   3.136   7.416   8.982 -0.0448 -0.0214  0.2333
 6702W        W10766   5.534   5.521   1.201 -0.3570  0.2910 -0.3842
 6703W        W10767   2.087   1.838   9.307  0.0216  0.2102  0.1298
 6704W        W10768   5.448   4.526   9.594  0.0252 -0.2101 -0.1882
 6705W        W10769   3.895   3.036  11.605  0.0545 -0.2360  0.1531
 6706W        W10770   5.290   8.002  11.416  0.1308  0.1330  0.1468
 6707W        W10771   2.233   6.422   2.839  0.1620 -0.0784 -0.2721
 6708W        W10772   3.163   1.239   9.261  0.0093 -0.3421 -0.3204
 6709W        W10773   5.729   6.305   2.015  0.3339  0.2527 -0.0324
 6710W        W10774   2.941   7.135   3.087 -0.1373  0.0791  0.2320
 6711W        W10775   7.131   8.068  10.625 -0.4218 -0.4182 -0.1214
 6712W        W10776   5.540   8.083   9.190 -0.0178  0.0269 -0.0508
 6713W        W10777   1.103   1.060   9.831 -0.1597 -0.2705 -0.0256
 6714W        W10778   6.463  10.112   7.586 -0.0864  0.2512 -0.1321
 6715W        W10779   0.905   9.032   3.867 -0.2145  0.0175 -0.0268
 6716W        W10780   3.261   2.349   1.631 -0.2587 -0.0563 -0.0385
 6717W        W10781  10.365   1.341   0.816  0.1749  0.1619  0.1186
 6718W        W10782   9.035   2.340  10.500  0.3094  0.1937  0.1441
 6719W        W10783   2.471   3.406  10.473  0.0368 -0.2008  0.0959
 6720W        W10784   7.474   2.473   4.168 -0.0943  0.0257 -0.1315
 6721W        W10785   1.120  10.064   8.394  0.1078  0.0007 -0.1950
 6722W        W10786   5.427   1.987   1.780 -0.1736  0.1315  0.1217
 6723W        W10787   0.560   7.695   2.686 -0.2935 -0.0541  0.1925
 6724W        W10788   0.501   1.604  11.087 -0.0590  0.4044  0.3194
 6725W        W10789   5.567  10.529   8.038  0.0373 -0.1979 -0.2972
 6726W        W10790   1.691   1.897   9.560  0.3262 -0.1327 -0.0587
 6727W        W10791   6.265   3.131   8.825 -0.0470  0.3479  0.0407
 6728W        W10792   5.514   4.182   8.747 -0.0186  0.1205 -0.3036
 6729W        W10793   5.659   7.096  10.298 -0.0242  0.2324 -0.2047
 6730W        W10794   9.003   6.014   4.070 -0.1097 -0.3070  0.0146
 6731W        W10795   1.239   7.448   9.465  0.0211 -0.0570 -0.0434
 6732W        W10796   8.548   0.709   1.890 -0.0981 -0.1629  0.0224
 6733W        W10797   7.450   2.725   9.130  0.5677  0.0654 -0.2146
 6734W        W10798   6.254  10.039  10.073 -0.1848  0.1047 -0.1583
 6735W        W10799   3.149   7.083   7.876  0.1508  0.2284 -0.5291
 6736W        W10800   4.058   7.913   2.366 -0.4194  0.0261 -0.1477
 6737W        W10801   6.145   6.569   1.968 -0.1108 -0.3286  0.3025
 6738W        W10802   8.527   2.770   2.605 -0.1191  0.0650  0.0336
 6739W        W10803   3.653   0.989   0.362 -0.0952 -0.1873  0.0418
 6740W        W10804   5.663   1.153   0.008 -0.2561 -0.0147  0.0710
 6741W        W10805   1.638   9.284  10.365  0.3113 -0.3608 -0.1293
 6742W        W10806   0.309   9.314   1.873 -0.1830 -0.1454 -0.0461
 6743W        W10807   3.860   8.961   9.307  0.2145  0.2242 -0.0244
 6744W        W10808   3.362   2.069   2.036 -0.1158 -0.0324  0.0122
 6745W        W10809   2.983   0.508  10.697  0.0001  0.1448  0.1006
 6746W        W10810   3.003   0.342   2.886  0.3137 -0.0632 -0.2681
 6747W        W10811   5.181   0.559   8.202 -0.1724 -0.0575  0.1636
 6748W        W10812   1.165   2.231   8.073  0.0244  0.0217 -0.2130
 6749W        W10813   7.866   6.799   0.862  0.0020 -0.0286 -0.1870
 6750W        W10814   6.703   4.659   8.855 -0.0360 -0.1563  0.1998
 6751W        W10815   6.159   5.806   2.528  0.1472 -0.0240 -0.0483
 6752W        W10816   9.159   9.768  10.987  0.0235  0.1545  0.4266
 6753W        W10817   0.879   9.016   1.914 -0.1982 -0.3551 -0.2259
 6754W        W10818  10.364   6.963   9.676 -0.0459  0.1692  0.2676
 6755W        W10819   6.928   9.138  10.530  0.1936  0.0856 -0.0879
 6756W        W10820   3.900   9.628   2.310 -0.0709  0.0103 -0.1142
 6757W        W10821   4.551   0.544  10.879  0.0743 -0.1350  0.4269
 6758W        W10822   4.895   7.686   2.080 -0.2895 -0.0020 -0.0311
 6759W        W10823   0.669   7.179   9.971 -0.0454  0.1337  0.2175
 6760W        W10824   8.893   8.439   0.564 -0.0011  0.0399 -0.2057
 6761W        W10825   4.611   0.772   3.502  0.1664 -0.3714  0.3297
 6762W        W10826   4.228   1.524   0.820 -0.0248 -0.1332  0.0339
 6763W        W10827   2.842   0.090   2.484  0.3908  0.2261 -0.2339
 6764W        W10828   3.597   5.256   2.589  0.0060  0.0942 -0.0472
 6765W        W10829   0.045   1.371   1.309 -0.0136  0.3924 -0.0022
 6766W        W10830   8.949   7.096  10.373  0.1784  0.3572  0.2086
 6767W        W10831   7.224   1.142   2.048  0.1289  0.0779 -0.0172
 6768W        W10832   2.617   1.859  10.416  0.0914  0.1014  0.2209
 6769W        W10833   6.790   2.573   3.376 -0.0476  0.2249  0.0198
 6770W        W10834   1.455   1.728  10.562  0.0633 -0.0785 -0.0295
 6771W        W10835   9.169   5.700  10.152 -0.3330 -0.0703  0.0284
 6772W        W10836   5.499  10.533   9.854  0.2255 -0.1483 -0.0494
 6773W        W10837   9.991   1.496   7.590 -0.0452 -0.1066  0.1425
 6774W        W10838   6.832   4.061  11.147  0.2981 -0.1362 -0.2008
 6775W        W10839   5.879   0.783   9.581 -0.0227 -0.0131  0.0361
 6776W        W10840   8.337   5.925   1.805 -0.2679  0.0912  0.2450
 6777W        W10841   2.108   8.052  11.529 -0.1805  0.0372 -0.0051
 6778W        W10842   8.320   1.523   3.328  0.1582  0.0670  0.2469
 6779W        W10843  10.379   2.166   1.402 -0.1343 -0.1346  0.1989
 6780W        W10844   9.932   8.834   9.422  0.0253  0.1848  0.3112
 6781W        W10845   1.288   4.647   1.576 -0.0560 -0.3583 -0.0978
 6782W        W10846   5.241   2.832   7.134  0.3234 -0.1059 -0.1776
 6783W        W10847   3.963   8.310  10.911  0.0855 -0.0552 -0.2016
 6784W        W10848   0.422   6.032   0.089 -0.2456 -0.0329  0.1079
 6785W        W10849   8.616   0.487  11.154 -0.0221 -0.1356 -0.1796
 6786W        W10850   6.022   3.017   0.608  0.1373  0.3702 -0.1072
 6787W        W10851   3.964   1.378  10.961 -0.3726 -0.0658  0.0592
 6788W        W10852   1.821   4.566  10.435 -0.0317 -0.0938  0.1972
 6789W        W10853   3.408   4.526   2.582 -0.0482  0.2652 -0.1497
 6790W        W10854   4.282   6.856   0.123 -0.0805 -0.1919  0.0403
 6791W        W10855   3.065   7.572   1.511  0.2799  0.1918 -0.3224
 6792W        W10856   7.599   5.312  11.427  0.0079  0.0327 -0.0010
 6793W        W10857   5.645   0.946  10.470  0.2945  0.1930 -0.0110
 6794W        W10858   4.641   1.175   0.992 -0.2614 -0.0450 -0.1717
 6795W        W10859   9.109   4.601   9.976  0.0012 -0.3109  0.1315
 6796W        W10860   7.860   4.178   4.169  0.2152 -0.0439  0.1024
 6797W        W10861   6.611   1.241   3.467  0.0919 -0.1374  0.3007
 6798W        W10862   2.750   2.997   8.557  0.1137 -0.1341 -0.2287
 6799W        W10863   9.129   7.101   8.364 -0.1747  0.0755 -0.0096
 6800W        W10864   8.116   8.703   0.387 -0.2744 -0.0414 -0.0905
 6801W        W10865   7.858   2.033   3.438  0.1264 -0.1979 -0.0674
 6802W        W10866   5.741   6.016  10.283  0.1133  0.1043 -0.1114
 6803W        W10867   5.055   4.218   1.182  0.0911  0.0275  0.0639
 6804W        W10868   4.563   5.815   2.929  0.3012 -0.0581 -0.1182
 6805W        W10869   8.804   0.872   9.116  0.0195  0.0082 -0.1340
 6806W        W10870   4.296   6.315  10.205 -0.2925 -0.1687 -0.0812
 6807W        W10871   9.481   2.769   0.277  0.2640 -0.0062 -0.1588
 6808W        W10872   6.638  10.330   1.975  0.0246  0.1339  0.1747
 6809W        W10873   1.565   9.610  11.353  0.3028  0.2797 -0.0250
 6810W        W10874   0.170   1.809   9.160 -0.2684 -0.1911  0.2568
 6811W        W10875   0.202   1.083  11.152  0.2695  0.0149  0.0225
 6812W        W10876   6.114   7.304   3.826 -0.0688  0.1222  0.2750
 6813W        W10877   4.772   6.531  11.082 -0.0583  0.0979  0.2256
 6814W        W10878   9.261   0.988   9.398  0.0614  0.4830  0.1769
 6815W        W10879   8.670   3.026   1.517 -0.0240  0.1807  0.2246
 6816W        W10880   2.981   2.142   9.014 -0.1520  0.0647  0.0122
 6817W        W10881   8.030   4.216   0.647 -0.2841  0.2292 -0.0191
 6818W        W10882   9.089   6.133  10.444  0.3938  0.2342 -0.0374
 6819W        W10883   4.386   0.404   7.812 -0.1112  0.0269 -0.0562
 6820W        W10884   5.548   1.082   9.352 -0.0484  0.1321 -0.2229
 6821W        W10885   5.657   0.285   2.525 -0.0634 -0.4292  0.0168
 6822W        W10886   9.787   8.525  11.138 -0.3290 -0.3251 -0.0566
 6823W        W10887   2.909   2.559  10.257  0.0166  0.0333 -0.0816
 6824W        W10888   8.953   7.266   0.731 -0.0394 -0.0008 -0.0015
 6825W        W10889   0.080   1.488   2.335  0.1710 -0.2903 -0.4523
 6826W        W10890   7.600   1.035  11.391 -0.2740  0.0269 -0.2397
 6827W        W10891   4.065   1.364   8.968 -0.0263 -0.0241  0.1401
 6828W        W10892  10.455   3.179   8.638 -0.1707  0.0006  0.1661
 6829W        W10893   8.476   0.717  10.437 -0.0056 -0.1470 -0.2234
 6830W        W10894   2.478   8.190  10.157 -0.0210  0.1650 -0.2508
 6831W        W10895   7.630   0.375   8.837 -0.0860 -0.0186 -0.0439
 6832W        W10896   9.081   7.573  10.569  0.1913  0.1053  0.1524
 6833W        W10897   8.834   6.520   9.692 -0.1650 -0.2055  0.0475
 6834W        W10898   5.213   0.344   2.922 -0.1393 -0.0433 -0.2462
 6835W        W10899   5.845   0.152   9.134  0.0614 -0.2013 -0.0186
 6836W        W10900   9.806   5.470   2.276  0.0841  0.1607 -0.1399
 6837W        W10901   6.216   0.961   1.429 -0.1555 -0.4037  0.0561
 6838W        W10902   1.035   9.493   7.300  0.0893 -0.1326 -0.3577
 6839W        W10903   9.877   2.018  10.812  0.0742  0.1319  0.0051
 6840W        W10904   7.525  10.076   2.923  0.1495 -0.0609  0.3074
 6841W        W10905   3.404   5.491   1.365  0.0077 -0.0595  0.0829
 6842W        W10906   3.699   8.070   9.444  0.0978  0.3344  0.3291
 6843W        W10907   3.073  10.601  10.273 -0.1891 -0.1623  0.0997
 6844W        W10908   4.348   7.710   3.023  0.1601  0.0672 -0.2166
 6845W        W10909   5.682   8.309  11.609 -0.1590 -0.0996 -0.3394
 6846W        W10910  10.487   5.270  10.149 -0.0967 -0.0631 -0.0725
 6847W        W10911   2.450   0.379   1.024  0.1257 -0.2676  0.0807
 6848W        W10912   4.638   7.751   9.524 -0.0068  0.2056 -0.1409
 6849W        W10913  10.107   5.387   2.723 -0.0177 -0.0062 -0.0451
 6850W        W10914   9.749   8.848   9.946 -0.0304 -0.0620  0.1265
 6851W        W10915   7.344   0.137   8.525 -0.0382  0.1055  0.3053
 6852W        W10916   6.162   2.927   9.274  0.1867  0.2321 -0.1902
 6853W        W10917   9.636   7.456   0.046  0.0783  0.0054 -0.1523
 6854W        W10918  10.055   9.557   0.452  0.2541  0.3014 -0.2688
 6855W        W10919   2.693   0.986   6.901  0.0173  0.2851  0.3189
 6856W        W10920   9.380   6.081   1.792  0.2614  0.1571 -0.1869
 6857W        W10921   2.376   0.423  10.761  0.1330  0.0549 -0.0894
 6858W        W10922   5.961   0.604  10.087 -0.0859 -0.1463 -0.2698
 6859W        W10923   3.632   3.125   3.620  0.1312  0.1355  0.1703
 6860W        W10924   7.060   3.294   7.641  0.3393  0.0614 -0.0689
 6861W        W10925   6.479   4.607  10.137 -0.0706  0.0930  0.1556
 6862W        W10926   6.330   1.158   3.023  0.2284 -0.0925 -0.2242
 6863W        W10927   3.616   9.007   8.927  0.3118  0.1010  0.3614
 6864W        W10928   0.492   5.597   3.048  0.0506 -0.2643  0.0699
 6865W        W10929  10.289   4.680   0.066  0.0436  0.1490 -0.0638
 6866W        W10930   9.794   9.457   2.879 -0.0075 -0.3119  0.1198
 6867W        W10931   8.598   0.992   2.313 -0.2021  0.0841  0.0686
 6868W        W10932   2.814   0.265  11.239  0.0645 -0.2627  0.0016
 6869W        W10933   8.774   8.441   2.272 -0.0284  0.0512  0.0609
 6870W        W10934  10.242   0.412   9.941 -0.0810  0.2015 -0.0315
 6871W        W10935   8.454   3.748   0.105 -0.0343 -0.0586  0.2919
 6872W        W10936   2.488   8.124   2.183  0.2862  0.2719  0.1073
 6873W        W10937   1.576   3.816  10.842 -0.0603  0.2638 -0.0394
 6874W        W10938   2.871   9.538   1.027 -0.2712  0.0868  0.2342
 6875W        W10939   7.926   3.869   3.728  0.4028  0.1312 -0.1161
 6876W        W10940   1.856   6.320   9.413  0.1906  0.2822  0.0337
 6877W        W10941   1.687  10.330   9.122 -0.1615 -0.0039 -0.0969
 6878W        W10942   8.825  10.022   3.340  0.2562  0.0493  0.1254
 6879W        W10943   9.844   6.097   3.106 -0.1663 -0.1651  0.1633
 6880W        W10944   0.769   7.267   2.289  0.1597  0.0537  0.0171
 6881W        W10945   8.209   5.361   3.054 -0.2419 -0.2773  0.0462
 6882W        W10946   7.262   6.498   0.917  0.0801 -0.1273  0.0590
 6883W        W10947   1.082   0.542   8.663 -0.1783 -0.3155 -0.2728
 6884W        W10948  10.101   3.022  10.886 -0.2136  0.1331 -0.2526
 6885W        W10949  10.004   6.442   2.714  0.0003  0.0260  0.2050
 6886W        W10950   7.522   6.098   3.661  0.2441 -0.0787 -0.2524
 6887W        W10951   5.692   5.618   0.185 -0.0348 -0.2675  0.0962
 6888W        W10952   4.596   4.944   8.633  0.1832 -0.2031 -0.0096
 6889W        W10953   3.886   7.576  10.140 -0.0759 -0.1138  0.2009
 6890W        W10954   6.130   0.231   0.169 -0.2875  0.1026  0.0177
 6891W        W10955  10.560   8.503   2.916  0.0875 -0.0903 -0.0838
 6892W        W10956   9.844   1.203   2.137  0.2102  0.2008 -0.0182
 6893W        W10957   6.595   6.815   1.386  0.2872  0.1514 -0.1808
 6894W        W10958   8.594   9.434  11.588 -0.0085 -0.1594 -0.3495
 6895W        W10959   3.605   5.716   1.812  0.0989 -0.2351 -0.2125
 6896W        W10960   5.577   2.302   2.859  0.0916 -0.0746 -0.1372
 6897W        W10961   3.127   7.857   0.481  0.0694 -0.1827  0.2550
 6898W        W10962   1.468   2.913   3.137 -0.0670 -0.6863 -0.0061
 6899W        W10963   1.776   0.663   9.998  0.1762 -0.4240  0.0810
 6900W        W10964   9.216  10.123   0.037 -0.0362 -0.3130 -0.2809
 6901W        W10965   0.906   8.127   2.833 -0.3528 -0.1088 -0.0974
 6902W        W10966   1.641  10.265  11.433 -0.2593 -0.0516  0.3452
 6903W        W10967  10.128   9.944   2.605 -0.0074  0.2376 -0.6077
 6904W        W10968   3.722   7.962   0.188  0.2825 -0.2658  0.1576
 6905W        W10969   8.459   1.094  11.406 -0.0093 -0.1289 -0.4535
 6906W        W10970   4.001   3.312   8.565  0.0191  0.0467  0.0892
 6907W        W10971   7.710  10.413   1.939 -0.0849  0.0324 -0.3556
 6908W        W10972   4.200   6.156   0.034 -0.0141 -0.0324  0.0371
 6909W        W10973   5.514  10.305   8.952 -0.2112 -0.3444 -0.2817
 6910W        W10974   5.981   7.684   4.114 -0.0138 -0.1071 -0.2193
 6911W        W10975   7.695   7.120   9.766 -0.0177  0.0752  0.0335
 6912W        W10976   9.023   0.645   2.105 -0.1557 -0.1446 -0.0261
 6913W        W10977   7.233   4.579   3.525 -0.3518 -0.2603  0.0038
 6914W        W10978   4.364   6.714   9.348  0.0728 -0.0109  0.0116
 6915W        W10979   1.385   6.831  10.143  0.1567 -0.1016  0.0507
 6916W        W10980   4.463   6.814   3.441  0.2406  0.1360 -0.0389
 6917W        W10981   2.622   2.827   1.887 -0.0417  0.0204  0.3556
 6918W        W10982   9.333   3.836   2.499 -0.2471 -0.0541  0.0197
 6919W        W10983   4.063   3.335   1.801 -0.0208 -0.0267  0.2489
 6920W        W10984   3.745   0.510   8.490 -0.0326  0.1996 -0.1423
 6921W        W10985   6.879   9.392   3.590  0.1232  0.0694  0.4002
 6922W        W10986   5.301   0.191   8.944  0.2745  0.0325 -0.0074
 6923W        W10987   7.014   8.135   0.119 -0.1394 -0.0689 -0.0653
 6924W        W10988   4.557   0.690   2.531 -0.4573 -0.2102  0.1485
 6925W        W10989   1.183   6.705   1.895  0.1701 -0.0932  0.0870
 6926W        W10990   2.884   9.088   9.595  0.0545 -0.1958 -0.3436
 6927W        W10991   7.541   6.725   1.276  0.1439  0.0080  0.1635
 6928W        W10992   9.125  10.262  11.176 -0.3063 -0.0961 -0.1023
 6929W        W10993   8.368   7.312   9.996 -0.1388 -0.0220 -0.0207
 6930W        W10994   9.126   7.439   9.318 -0.0030  0.0155 -0.0834
 6931W        W10995   5.906   7.853   1.935 -0.2296  0.1559 -0.0659
 6932W        W10996   6.706   0.098   7.326 -0.0012  0.0677  0.0646
 6933W        W10997   4.363   0.302  11.289  0.0894  0.2801  0.1355
 6934W        W10998   3.481   4.387   3.251 -0.1142  0.2820  0.4562
 6935W        W10999   4.743   7.492   0.671 -0.1679 -0.0411 -0.1371
 6936W        W11000   2.572   1.728   9.255  0.0880  0.1155 -0.1621
 6937W        W11001  10.511   6.953   8.311  0.0235 -0.2922 -0.2184
 6938W        W11002   2.253   7.376  10.570  0.1397 -0.1466 -0.1762
 6939W        W11003   1.806   8.570   2.392  0.0814 -0.2121  0.2263
 6940W        W11004   0.681   0.396   2.851 -0.1908  0.3365  0.0074
 6941W        W11005   3.182   2.188   8.495 -0.0284 -0.3679 -0.2141
 6942W        W11006   3.457   3.400  10.072 -0.1808 -0.2956 -0.1027
 6943W        W11007   4.018   3.308  10.036  0.2190  0.0577 -0.2591
 6944W        W11008  10.590   9.093   3.083 -0.0286  0.2307  0.1066
 6945W        W11009   0.248   5.985   3.856 -0.2606  0.1196 -0.0981
 6946W        W11010   2.242   2.313   9.442  0.4295  0.0835 -0.0917
 6947W        W11011   1.539   7.842   9.423  0.1851  0.0038  0.3752
 6948W        W11012   0.464   3.681  11.433 -0.0058  0.0987  0.1848
 6949W        W11013   7.241   3.937  11.388  0.1830 -0.1444  0.0348
 6950W        W11014  10.147   1.511  10.813  0.0630  0.1742 -0.5676
 6951W        W11015   3.762   1.917   0.083 -0.0282 -0.2650 -0.0240
 6952W        W11016   9.268   1.672   8.710  0.1442  0.0270  0.4593
 6953W        W11017   8.319   3.991   2.402  0.3447 -0.1861 -0.2457
 6954W        W11018   1.804   2.330   9.232 -0.1039  0.4992  0.1081
 6955W        W11019   0.080   4.959   0.332 -0.0613 -0.4057 -0.1488
 6956W        W11020   0.531   6.827   0.972  0.1203 -0.1189 -0.2039
 6957W        W11021   3.927   0.511   7.592  0.1601  0.2545  0.0513
 6958W        W11022  10.216   4.611   0.581 -0.3228  0.1854 -0.2695
 6959W        W11023   8.589   4.919   0.951  0.0473 -0.0782 -0.0114
 6960W        W11024  10.101   4.019   3.310 -0.0425 -0.1867  0.0557
 6961W        W11025   8.709   6.233   1.163 -0.0319 -0.3322  0.3306
 6962W        W11026   6.932   4.727   2.219  0.1220 -0.1250  0.1184
 6963W        W11027   3.973   3.855   1.491  0.5616 -0.2057  0.0673
 6964W        W11028   9.150   1.302   9.843 -0.2147 -0.4351  0.2300
 6965W        W11029   9.579   5.391   0.967  0.2418 -0.3282  0.3995
 6966W        W11030   9.646   9.880   7.720 -0.0821 -0.1515 -0.0164
 6967W        W11031   8.399   9.987  10.647  0.0114 -0.1266  0.1472
 6968W        W11032   3.941   0.380  10.200 -0.0168 -0.1270 -0.2210
 6969W        W11033   3.384   1.033   1.587 -0.0504 -0.2570 -0.2079
 6970W        W11034   2.003   2.747   1.826  0.0426 -0.1246  0.1662
 6971W        W11035   1.939   1.395   2.896 -0.0402 -0.0908 -0.2585
 6972W        W11036   2.951   9.819  10.919 -0.0023 -0.2920  0.2207
 6973W        W11037   9.478   6.824   2.108 -0.2474 -0.0360  0.1369
 6974W        W11038   6.514   8.853   0.317  0.2677  0.1135 -0.3018
 6975W        W11039   4.953   6.184   8.882 -0.0798 -0.2291 -0.2036
 6976W        W11040   0.392   4.096   8.884 -0.0509  0.1584 -0.0104
 6977W        W11041   7.425   0.084   1.647 -0.0879 -0.1753  0.0154
 6978W        W11042   7.795   3.972   2.222  0.0919 -0.3643  0.1721
 6979W        W11043   3.008   0.228   0.262 -0.2463  0.1025  0.4113
 6980W        W11044   8.292   3.633   8.237  0.0045 -0.2021  0.1475
 6981W        W11045   4.359   1.861   9.133  0.1081  0.0995  0.0238
 6982W        W11046   2.738   1.736   3.792 -0.1574  0.1190  0.2697
 6983W        W11047   6.720   3.654  10.932  0.1450  0.0504  0.0623
 6984W        W11048   5.489   6.414   8.837 -0.3860  0.2038  0.1526
 6985W        W11049   8.766   8.342  10.937 -0.0402 -0.2843  0.0818
 6986W        W11050   5.085   2.617  10.124 -0.0078  0.0628 -0.0004
 6987W        W11051   1.953   8.549  11.487  0.1774  0.1829  0.1189
 6988W        W11052   9.721   9.858   7.144  0.2819 -0.2234  0.1261
 6989W        W11053   5.656   3.461   0.890 -0.1773  0.5327  0.2590
 6990W        W11054   5.970   0.288   2.116  0.2296 -0.0139 -0.1549
 6991W        W11055   3.995   1.420   2.126  0.2756 -0.1879  0.1443
 6992W        W11056   1.340   3.940   8.566 -0.2424 -0.0361 -0.2407
 6993W        W11057   9.680   2.419   8.713 -0.2045  0.2128  0.2389
 6994W        W11058   0.259   8.446  11.423 -0.3919 -0.0294 -0.0513
 6995W        W11059   0.544   8.574   0.290  0.0873 -0.1198 -0.0398
 6996W        W11060   2.248   4.739   0.939 -0.2680  0.2559 -0.1104
 6997W        W11061   4.520   3.087  10.832  0.1102  0.3954  0.0836
 6998W        W11062   5.325   7.190  11.547  0.0429 -0.0489  0.0646
 6999W        W11063   1.916   9.973   9.850 -0.0261  0.1381 -0.0588
 7000W        W11064   8.110   3.341   0.355 -0.2856 -0.0840  0.0260
 7001W        W11065   4.950   9.358   8.195 -0.2232 -0.0764  0.0214
 7002W        W11066   3.227   5.437   9.228  0.1127 -0.0081  0.0263
 7003W        W11067   0.882   5.805   1.615 -0.0047  0.1384 -0.3686
 7004W        W11068   2.403   5.845   0.479 -0.1549 -0.0747 -0.2029
 7005W        W11069   1.398   6.291   9.230  0.3091 -0.1161 -0.2691
 7006W        W11070   8.177   6.979   8.372 -0.3348 -0.3156  0.0638
 7007W        W11071   2.331   1.163   8.340 -0.0189  0.0800 -0.0712
 7008W        W11072   8.927  10.614   0.127  0.1005 -0.1588 -0.1277
 7009W        W11073   0.955  10.125   2.569  0.0648  0.1429 -0.1910
 7010W        W11074   8.116   5.551  10.557 -0.1069 -0.0700 -0.0165
 7011W        W11075   8.764   1.371  11.014  0.0477  0.2868 -0.2068
 7012W        W11076   9.999   7.824   9.064  0.1452  0.1077 -0.1512
 7013W        W11077   4.206  10.517  11.583 -0.2524  0.0023 -0.1688
 7014W        W11078   7.695   8.717   4.029  0.1390  0.0797 -0.1534
 7015W        W11079   4.187   3.146  11.165 -0.1119 -0.2133 -0.0422
 7016W        W11080   6.598   0.970  10.565  0.0558  0.1600  0.0540
 7017W        W11081   1.891   3.023   3.435 -0.1201 -0.1505 -0.1178
 7018W        W11082   9.639   2.300   3.959 -0.0472  0.0375 -0.0226
 7019W        W11083   5.203   5.655   3.315 -0.0741 -0.0494  0.1236
 7020W        W11084   2.902   0.789   9.319  0.2844  0.2363  0.2378
 7021W        W11085   7.936   2.908   9.280 -0.0253  0.4037 -0.0075
 7022W        W11086   0.861   2.186   2.401 -0.0669  0.0900  0.0945
 7023W        W11087  10.399  10.237   8.076  0.4558  0.2711  0.2599
 7024W        W11088   2.895   4.201   8.588 -0.3678 -0.1605 -0.0792
 7025W        W11089   2.873   9.274   1.838 -0.0267 -0.4473  0.1551
 7026W        W11090   1.536   1.461   1.789 -0.1032  0.0567 -0.1030
 7027W        W11091   0.374   8.379   2.193  0.0804 -0.0084  0.0865
 7028W        W11092   6.893   3.521  11.386 -0.1388  0.2728  0.2085
 7029W        W11093   4.171  10.424  10.149 -0.1809 -0.1431 -0.2892
 7030W        W11094   6.507   9.778   2.731  0.1630  0.1593  0.1424
 7031W        W11095   0.920   5.465   2.720 -0.0212 -0.0540 -0.0396
 7032W        W11096   1.080   9.824   1.571 -0.1244 -0.2112 -0.0253
 7033W        W11097   4.568   5.238  10.931 -0.0833 -0.0556 -0.2040
 7034W        W11098   4.570   9.295  10.294  0.0031 -0.1620  0.0853
 7035W        W11099   6.740   5.203   1.551  0.2465 -0.0943 -0.2518
 7036W        W11100   6.498   1.097  11.255 -0.0380 -0.0315  0.3750
 7037W        W11101   7.534   0.822   9.368 -0.0886  0.0319  0.3486
 7038W        W11102   0.255   4.851   3.384 -0.3932 -0.3690  0.0737
 7039W        W11103   4.173   8.426   3.111 -0.2302 -0.0998  0.1578
 7040W        W11104   2.155  10.207   3.509 -0.3546  0.0003  0.2699
 7041W        W11105   2.793   0.395   8.170  0.0836  0.2797  0.0525
 7042W        W11106   9.589   3.611   2.089  0.1107 -0.0055 -0.0973
 7043W        W11107   0.456   2.027  10.726  0.1134  0.1736  0.4848
 7044W        W11108   4.459   4.862   9.155  0.3393 -0.1066  0.0831
 7045W        W11109   6.340  10.029   3.732  0.1743  0.2309 -0.3128
 7046W        W11110   9.014   5.605   0.071  0.1892  0.0927  0.0224
 7047W        W11111   4.610   2.741  11.294 -0.1945 -0.1622  0.0240
 7048W        W11112   9.919   5.161  10.926 -0.1420  0.1011 -0.0070
 7049W        W11113   5.823   0.885   3.255  0.0608  0.0066  0.2206
 7050W        W11114   7.310   0.331   9.559  0.1516  0.3190 -0.1058
 7051W        W11115   3.560   7.500   0.230  0.2440 -0.2394  0.1059
 7052W        W11116   7.250   1.375  11.322  0.2460  0.1083  0.2563
 7053W        W11117   5.297   3.449   7.423  0.0655  0.0934  0.1068
 7054W        W11118   5.666   1.834   8.630 -0.1206 -0.2309 -0.0547
 7055W        W11119   3.344   9.332   3.267  0.2642 -0.0999 -0.1483
 7056W        W11120   8.040   5.148  10.274 -0.1524 -0.0846 -0.0860
 7057W        W11121   8.285   0.079  11.163  0.2949  0.2776  0.0036
 7058W        W11122   9.159   0.879   1.058 -0.0574  0.1500  0.0887
 7059W        W11123   1.816   0.411   8.041 -0.1699  0.3075  0.1573
 7060W        W11124   5.337  10.531   2.489  0.2083 -0.1746 -0.0999
 7061W        W11125   2.635   5.100   9.148  0.2140 -0.0046 -0.1453
 7062W        W11126   5.712   5.693   9.558 -0.1147 -0.2366 -0.0754
 7063W        W11127   4.699   3.557   3.712 -0.0337 -0.1735 -0.0229
 7064W        W11128   7.347   0.245   3.345 -0.0585 -0.3899  0.0735
 7065W        W11129   5.186   2.213   0.194 -0.0847 -0.2133  0.0553
 7066W        W11130   2.393   0.828   0.747 -0.2686 -0.2246 -0.1809
 7067W        W11131   1.521   1.688   0.281  0.0317 -0.0239 -0.0980
 7068W        W11132   2.858   2.724   9.754 -0.2619 -0.0304  0.1898
 7069W        W11133   7.986   1.921  10.574  0.2518  0.1069 -0.0133
 7070W        W11134   3.443   1.882   8.901  0.0918 -0.0786  0.1721
 7071W        W11135   0.107   4.872   9.831 -0.0776  0.1012 -0.0348
 7072W        W11136  10.505  10.459   7.125  0.0906 -0.1945  0.0628
 7073W        W11137   8.865   3.898   0.473 -0.1069 -0.0976  0.2681
 7074W        W11138   6.363   6.126   7.766 -0.1025 -0.2896 -0.1872
 7075W        W11139   2.797   9.410  11.223 -0.3685 -0.0289  0.1946
 7076W        W11140   2.856   7.320   8.573 -0.2052 -0.0205 -0.2595
 7077W        W11141   6.782   8.462  10.831  0.1806 -0.0977 -0.0699
 7078W        W11142   8.381   5.454   1.702  0.0116  0.0534  0.0163
 7079W        W11143  10.325   4.267  10.157 -0.0005 -0.1880  0.0685
 7080W        W11144   4.834   0.317   0.559  0.0405 -0.1712 -0.2029
 7081W        W11145   3.528   7.160  11.484 -0.0496 -0.1968 -0.1202
 7082W        W11146   5.538   7.614   1.132 -0.2202 -0.0875  0.1260
 7083W        W11147   9.802   4.620   8.749 -0.2469 -0.1078 -0.1319
 7084W        W11148   6.865   3.018   1.925 -0.1068  0.0185  0.0306
 7085W        W11149   9.821   1.620  11.171 -0.0197  0.0831  0.0655
 7086W        W11150   7.379   1.981  11.240  0.0591 -0.0186  0.1726
 7087W        W11151   3.886   1.708   0.519 -0.1665 -0.1385 -0.2443
 7088W        W11152   2.290   5.692   2.307 -0.3253 -0.0728  0.2947
 7089W        W11153   1.175   8.965   9.449 -0.2412  0.1275 -0.0129
 7090W        W11154   1.586   2.629   1.476 -0.1349 -0.0196  0.0562
 7091W        W11155   7.389   4.149  10.850  0.1521 -0.0045  0.0040
 7092W        W11156   0.927   0.919   2.966 -0.1168  0.0294 -0.0079
 7093W        W11157   0.188   3.490   2.246  0.2128  0.1213 -0.1634
 7094W        W11158   1.310   9.187   0.170 -0.0783 -0.1267 -0.0508
 7095W        W11159   5.677   8.026   2.997 -0.1969 -0.0152 -0.0880
 7096W        W11160  10.003   3.172   1.122  0.0547 -0.1324 -0.0879
 7097W        W11161   2.795   0.586   2.459 -0.1893 -0.0117 -0.0926
 7098W        W11162  10.418   6.288   4.087  0.0154  0.1129  0.0162
 7099W        W11163   5.058   3.413   3.378 -0.4269 -0.4431 -0.2164
 7100W        W11164   5.652   3.929   3.598  0.2057  0.0067 -0.0660
 7101W        W11165   4.562   1.201   3.233  0.1418 -0.2140 -0.2385
 7102W        W11166   0.704   4.545   3.604 -0.0059 -0.1157  0.1137
 7103W        W11167   2.585   3.900  11.318 -0.1517 -0.0629  0.2439
 7104W        W11168   0.721   4.811   1.042  0.0316 -0.0272 -0.3585
 7105W        W11169   6.718   3.463   3.676 -0.1813 -0.0051 -0.1103
 7106W        W11170   5.563  10.075   2.719  0.0963  0.0142  0.1931
 7107W        W11171   9.670   6.430   9.426 -0.1242  0.1735  0.0286
 7108W        W11172   1.354   4.314   0.038  0.0350 -0.1160 -0.2034
 7109W        W11173   6.821   5.983   8.757  0.0618  0.0843  0.0606
 7110W        W11174   3.839   9.624   7.896 -0.4156  0.1404 -0.2546
 7111W        W11175   3.906   9.179   2.548  0.0890  0.4342 -0.0210
 7112W        W11176   4.442   4.970   8.070 -0.0895 -0.0593 -0.2151
 7113W        W11177   6.268   7.087   1.033 -0.0748 -0.2156  0.2167
 7114W        W11178   5.158   1.695   0.580  0.0914 -0.2433 -0.0195
 7115W        W11179   1.676   2.579  10.508 -0.0413 -0.3974 -0.1256
 7116W        W11180   6.925   6.954   9.098 -0.0690  0.1218  0.0667
 7117W        W11181   8.592   8.095   3.197  0.1236 -0.1284 -0.2641
 7118W        W11182   8.476   2.104   9.073 -0.0589 -0.0163 -0.0909
 7119W        W11183   6.264   4.461   1.660  0.0748 -0.1827 -0.1502
 7120W        W11184   9.357   9.991   2.315  0.0270 -0.0604  0.1738
 7121W        W11185   4.359   9.024   9.057  0.3345 -0.4049 -0.0061
 7122W        W11186   5.803   4.640  11.212  0.0805 -0.0007 -0.3479
 7123W        W11187   4.110   4.460  10.719  0.4326 -0.1473  0.0906
 7124W        W11188   6.585   3.484   1.284 -0.0535 -0.0983 -0.0014
 7125W        W11189   2.838   2.806   7.715  0.0948 -0.0082  0.0887
 7126W        W11190   8.940   5.179   9.268  0.2719 -0.3378  0.0493
 7127W        W11191   9.840   2.514   1.449 -0.1635 -0.0106 -0.0830
 7128W        W11192   7.047   4.848   9.343 -0.2163 -0.1849  0.1342
 7129W        W11193   7.661   0.507  10.528 -0.0032 -0.4098 -0.0605
 7130W        W11194   1.762   4.248  11.301  0.1049  0.1679  0.1245
 7131W        W11195   6.534   4.843   1.858 -0.0895 -0.0132 -0.1233
 7132W        W11196   1.760   7.790   1.904 -0.2668  0.3444 -0.3918
 7133W        W11197   2.783   8.523   0.013 -0.0970 -0.1353 -0.1796
 7134W        W11198   0.361   4.583   9.431  0.1367  0.0848 -0.0441
 7135W        W11199   5.581   4.039   1.631  0.3230  0.0540  0.2260
 7136W        W11200   9.609  10.339   9.869 -0.0783  0.0678  0.2553
 7137W        W11201   3.028   1.279  11.104  0.0124 -0.0591 -0.1510
 7138W        W11202   6.102   6.531   7.937 -0.1275  0.0598  0.1318
 7139W        W11203   5.398   1.467   1.620  0.2206  0.1285  0.1032
 7140W        W11204   3.621   2.855   8.917 -0.0248  0.1889  0.3218
 7141W        W11205   2.289   6.827  10.462 -0.2430 -0.3957 -0.1096
 7142W        W11206   9.610   2.947   1.275  0.0618 -0.0032  0.2339
 7143W        W11207   8.330  10.103   9.285 -0.3211 -0.2132  0.1070
 7144W        W11208   1.372   6.910   2.777  0.1657 -0.3129  0.6902
 7145W        W11209   6.610   9.541   4.489 -0.0048  0.2061  0.0337
 7146W        W11210  10.272   5.643   8.078 -0.2284 -0.1900  0.2161
 7147W        W11211  10.014   7.360   2.420 -0.2318 -0.0660  0.1418
 7148W        W11212   5.360   6.435   7.995 -0.2341  0.1502 -0.1013
 7149W        W11213   8.974   9.932   0.741  0.2574  0.2352  0.3090
 7150W        W11214   3.815   0.178  11.390  0.1726  0.0697 -0.1977
 7151W        W11215  10.405   6.449  11.257  0.0185  0.0174  0.0222
 7152W        W11216   8.379   9.005   1.719 -0.0564 -0.3675 -0.0070
 7153W        W11217   0.359  10.039   7.774  0.1626  0.1773 -0.3412
 7154W        W11218   9.404   0.505   6.959  0.0330  0.0072 -0.0816
 7155W        W11219   2.566   4.290   1.206  0.1067 -0.0189 -0.0543
 7156W        W11220   3.403   8.688   2.547  0.1078  0.2449 -0.0677
 7157W        W11221  10.039   4.460  10.516 -0.1496 -0.1281  0.0565
 7158W        W11222   4.617   5.827   8.847  0.0119  0.1174 -0.0106
 7159W        W11223   8.150   7.638  10.772  0.0252  0.0403  0.0862
 7160W        W11224   7.939   6.026  10.104  0.0221 -0.0148  0.0467
 7161W        W11225   2.526   8.818  10.708 -0.0040  0.1357 -0.1922
 7162W        W11226   0.907   1.490   8.609 -0.0097 -0.0957  0.1515
 7163W        W11227   1.648   0.764   1.281 -0.1569  0.0774  0.0623
 7164W        W11228   5.633   6.622   4.041  0.1704  0.2681 -0.1984
 7165W        W11229   7.550   3.351  10.058 -0.1002  0.1186 -0.0933
 7166W        W11230   5.733   7.461   9.932  0.3356 -0.5204  0.1563
 7167W        W11231   8.802  10.154   9.384 -0.0877 -0.0773  0.3510
 7168W        W11232   8.105   7.014   1.256  0.0588 -0.0289  0.0642
 7169W        W11233   5.919   4.641   3.165 -0.1244  0.2696 -0.0629
 7170W        W11234   6.483   1.016   2.529 -0.0816 -0.0224  0.1464
 7171W        W11235   3.880   0.879   1.612  0.0427 -0.2153  0.2423
 7172W        W11236   4.538   2.003   7.091  0.2037  0.2814  0.0113
 7173W        W11237   3.883   8.690  10.176  0.0186 -0.1158  0.1401
 7174W        W11238   4.843   0.253   9.249  0.1001  0.0357  0.1382
 7175W        W11239   9.420   4.971   2.313  0.1713 -0.0779  0.2783
 7176W        W11240   6.574   1.295   8.771 -0.0803  0.1477  0.0200
 7177W        W11241   6.723   9.594   3.128  0.0568  0.3815  0.1195
 7178W        W11242   4.954   1.079   2.468  0.2823  0.0684  0.0416
 7179W        W11243   6.701   2.036  10.438 -0.2172 -0.2553  0.1124
 7180W        W11244   6.103   4.143   3.896 -0.0505 -0.2597  0.1263
 7181W        W11245   0.340   1.608  10.259 -0.1328  0.1542  0.1695
 7182W        W11246   9.111   1.362   7.947  0.4527  0.0688 -0.3044
 7183W        W11247   5.348   4.287  11.019 -0.1310  0.1556  0.4069
 7184W        W11248   1.991   2.311   1.609 -0.0622 -0.0354  0.0267
 7185W        W11249   5.730  10.220  10.774  0.1832 -0.1595  0.0107
 7186W        W11250   7.633  10.487   0.196 -0.2648  0.1925  0.1466
 7187W        W11251   8.662   6.185   2.562  0.0544 -0.0070 -0.1518
 7188W        W11252   6.244   9.134   1.309 -0.1221 -0.0951 -0.2853
 7189W        W11253   3.160   7.816   2.802 -0.0219 -0.0876  0.1272
 7190W        W11254   1.391   7.604   8.975  0.0838  0.1976  0.1695
 7191W        W11255   3.763   4.630   3.711 -0.0080  0.0333  0.1001
 7192W        W11256   5.607   7.028  11.153  0.0132  0.0477 -0.0792
 7193W        W11257   1.312   6.441  10.711  0.0773 -0.1730  0.0154
 7194W        W11258   5.852   1.660   1.995  0.2672  0.1666 -0.0484
 7195W        W11259   7.699   4.180   9.014 -0.2216  0.2917  0.1136
 7196W        W11260   9.656   9.576  10.655  0.0630  0.0096 -0.3325
 7197W        W11261   0.263   2.106   4.028  0.2078 -0.1092  0.0261
 7198W        W11262   0.748   2.133   8.432  0.1850 -0.0477 -0.0717
 7199W        W11263   5.524   2.531  11.503  0.0990 -0.2578 -0.1872
 7200W        W11264   0.395   8.534   8.632  0.0402 -0.1239  0.2995
 7201W        W11265   3.636   3.018  10.313 -0.3918  0.1157  0.0375
 7202W        W11266   0.086   5.651  10.345 -0.0145  0.1100  0.0541
 7203W        W11267   6.773   6.230   0.790 -0.1623  0.1735 -0.1228
 7204W        W11268   2.266   0.572  10.008 -0.0434  0.0942  0.1070
 7205W        W11269   2.409   3.154   3.361  0.2562 -0.1664  0.1379
 7206W        W11270   3.487   1.175   2.962 -0.2776 -0.1415  0.1290
 7207W        W11271   1.593   6.295   1.918  0.0870 -0.0571  0.5390
 7208W        W11272   3.062   8.286   8.668  0.1938  0.0890 -0.0786
 7209W        W11273  10.157   0.594   2.614  0.1382  0.1511 -0.4866
 7210W        W11274   1.422   1.644   0.777 -0.2174  0.2200 -0.0111
 7211W        W11275   9.818   6.263   1.537 -0.0939 -0.3444 -0.1697
 7212W        W11276   6.896   7.417  11.418  0.3155  0.2988 -0.0785
 7213W        W11277   0.236   9.158   1.371 -0.1297 -0.6419 -0.1657
 7214W        W11278   1.895   7.359   1.047 -0.0453 -0.0505  0.4280
 7215W        W11279   4.871   9.755   0.196 -0.1974 -0.0668 -0.3716
 7216W        W11280   2.196  10.357   9.723 -0.3808  0.0814  0.3162
 7217W        W11281   1.245   5.484   9.701  0.0546 -0.1180  0.2006
 7218W        W11282   8.272   0.001   3.265  0.2227 -0.2832 -0.1304
 7219W        W11283   5.900   8.348   9.545  0.1195  0.1444 -0.0980
 7220W        W11284   9.933   5.314   0.070  0.1434 -0.3989 -0.1108
 7221W        W11285   1.861   1.794  11.580  0.1432 -0.1066 -0.0997
 7222W        W11286   0.950   3.160   8.420  0.0909 -0.1046 -0.1019
 7223W        W11287   8.611   4.705   9.063  0.0749  0.1018 -0.0518
 7224W        W11288   3.512   6.800   1.225  0.0035  0.1724 -0.0919
 7225W        W11289   2.670   0.731   1.290 -0.1910 -0.0787 -0.0340
 7226W        W11290   1.686   4.193   3.011  0.2806  0.0788  0.0072
 7227W        W11291   0.922   2.717   8.174 -0.2988 -0.0127 -0.1476
 7228W        W11292   2.308   7.251   2.685  0.1249 -0.1122  0.1654
 7229W        W11293   7.985   6.513   2.841  0.0655 -0.0016 -0.0706
 7230W        W11294   8.910   2.608   2.894 -0.0569 -0.2119  0.0917
 7231W        W11295   5.018   7.641   3.739 -0.0090  0.0620 -0.0228
 7232W        W11296   0.145   3.542   8.867 -0.3003 -0.1792  0.0032
 7233W        W11297   8.559   4.096   2.797 -0.3479 -0.2538 -0.0142
 7234W        W11298   2.999   1.612   9.535  0.1767 -0.4044  0.1896
 7235W        W11299   4.128   7.783   4.107 -0.1720  0.0606 -0.1762
 7236W        W11300   4.102   9.239   8.165 -0.0556  0.1280 -0.0736
 7237W        W11301   1.085   8.529   0.247 -0.0986 -0.3280  0.0957
 7238W        W11302   5.699  10.505   0.879 -0.1979 -0.1578 -0.2008
 7239W        W11303   4.295   2.272  10.061 -0.3365  0.1080 -0.3594
 7240W        W11304   3.517   8.904   0.606  0.1770  0.3495 -0.2075
 7241W        W11305   9.914   1.883   1.391 -0.3283  0.3478  0.0145
 7242W        W11306   9.359   9.980   8.141 -0.0267 -0.2292 -0.1402
 7243W        W11307   4.094   7.177   3.969  0.1517  0.0215 -0.1685
 7244W        W11308   1.916   8.247   2.754  0.0872  0.0483  0.1563
 7245W        W11309   7.909   7.498   4.434 -0.1648 -0.0180  0.0593
 7246W        W11310   9.489   6.517   3.091  0.1338 -0.0173  0.2643
 7247W        W11311   4.796   3.539   9.789 -0.0239 -0.2224 -0.1469
 7248W        W11312   9.955  10.473  10.652  0.0359 -0.0275  0.0511
 7249W        W11313   4.296   9.287   9.524 -0.2020  0.1667 -0.5178
 7250W        W11314   6.351   1.616   1.788  0.3301 -0.0140  0.0203
 7251W        W11315   5.761   1.927  10.498 -0.0485  0.0279  0.2613
 7252W        W11316  10.328   4.532   3.400  0.0751  0.0794  0.1682
 7253W        W11317   2.339   1.885   2.094  0.2349  0.0810  0.0659
 7254W        W11318   3.381   7.381   3.039  0.1504  0.1077  0.0024
 7255W        W11319   3.880  10.599   0.644 -0.0353 -0.2436  0.1789
 7256W        W11320   4.363   7.563  10.478 -0.0256 -0.3007  0.0056
 7257W        W11321   7.811   2.478   9.596  0.1947 -0.0172  0.1582
 7258W        W11322   7.566   5.414  10.412  0.0220 -0.1005 -0.2595
 7259W        W11323   9.427   2.429   9.294 -0.2397 -0.1285  0.0695
 7260W        W11324   8.594   6.110  10.551 -0.0790 -0.1566  0.1172
 7261W        W11325   9.768   6.375   2.010 -0.2807 -0.0575 -0.1162
 7262W        W11326   8.045   0.840   2.656 -0.2574  0.2270  0.0435
 7263W        W11327   0.367   5.171  10.324 -0.0335  0.0755 -0.6982
 7264W        W11328   2.711  10.383   3.412 -0.0646 -0.4027 -0.0415
 7265W        W11329  10.075  10.465   9.903  0.0757 -0.0198  0.2226
 7266W        W11330   2.724   7.150  10.512 -0.1267 -0.3522 -0.0435
 7267W        W11331   7.578   7.907  10.758  0.1842 -0.1239 -0.1675
 7268W        W11332   7.052   2.290  11.406  0.1209  0.3261  0.2983
 7269W        W11333   9.586  10.095  10.762  0.0135 -0.0639  0.2128
 7270W        W11334   8.546   1.819  11.192 -0.1945 -0.2280 -0.0124
 7271W        W11335   8.557  10.285   3.634 -0.1367  0.1657 -0.0624
 7272W        W11336   6.710   0.958   0.041  0.1408  0.0258  0.0532
 7273W        W11337   1.522   8.728  11.626  0.0562 -0.1486 -0.2250
 7274W        W11338   8.103   3.419   9.229  0.3276 -0.2239 -0.1026
 7275W        W11339  10.348   2.970  10.469  0.5257 -0.0350 -0.0157
 7276W        W11340   8.222   1.116   8.741 -0.0366 -0.0738 -0.1416
 7277W        W11341   8.348   7.177   7.833  0.0510  0.0005  0.0046
 7278W        W11342   3.672   1.009   2.062  0.0760  0.0446  0.1291
 7279W        W11343   8.833   6.614  10.685 -0.1366  0.1666  0.1682
 7280W        W11344   6.800   9.174   4.120 -0.1360 -0.2425  0.1596
 7281W        W11345   0.048   1.471  10.876  0.1236  0.1534 -0.0147
 7282W        W11346   9.655   0.695   8.207 -0.1092 -0.0738  0.2733
 7283W        W11347   3.359   2.164  11.430 -0.0793  0.1008 -0.1447
 7284W        W11348   8.097   8.548   8.148 -0.0275 -0.0080  0.0928
 7285W        W11349   9.204   7.729  10.983  0.3339 -0.2602 -0.1126
 7286W        W11350   9.537   3.728  11.134 -0.1123 -0.0334 -0.1100
 7287W        W11351   6.817   8.165   1.482 -0.1200 -0.0601 -0.1383
 7288W        W11352   1.167   8.474  11.384  0.1504  0.3546 -0.1333
 7289W        W11353   1.582   4.721   9.394  0.4215 -0.0042  0.1913
 7290W        W11354   1.459   0.049   1.981 -0.2562 -0.1479  0.1200
 7291W        W11355   0.837   1.329   3.670  0.0138  0.0812 -0.3569
 7292W        W11356   6.652   5.471  10.649  0.2038  0.0458  0.1897
 7293W        W11357   8.211   5.193   0.673  0.2032 -0.0077  0.0611
 7294W        W11358   4.556   7.126   7.628 -0.0241 -0.0458  0.0069
 7295W        W11359   1.151   3.166   1.481 -0.0355 -0.1456 -0.1965
 7296W        W11360   6.003   5.009   2.738 -0.1793  0.1241  0.1289
 7297W        W11361  10.385   3.701   0.378 -0.0110 -0.2884  0.3811
 7298W        W11362   3.735   2.784   2.611  0.2913  0.2078 -0.1956
 7299W        W11363   2.582  10.091  10.612  0.1594 -0.0134 -0.0569
 7300W        W11364   7.698   1.163   2.854 -0.2059  0.0394 -0.1492
 7301W        W11365  10.365   4.061   9.358 -0.2431 -0.3881 -0.0158
 7302W        W11366   1.434   6.236   3.165 -0.1587  0.0978  0.2587
 7303W        W11367   6.073   9.252  10.385  0.2100 -0.0281  0.0853
 7304W        W11368   8.467   6.370   1.595 -0.1779 -0.2108 -0.0092
 7305W        W11369   8.892   1.012  10.207  0.2240 -0.0278  0.1034
 7306W        W11370   5.106   4.856   9.821  0.4288  0.0610 -0.1070
 7307W        W11371   5.635   4.308  10.369  0.0021 -0.0845 -0.1690
 7308W        W11372   7.227   4.052   8.719 -0.0261 -0.0212 -0.0384
 7309W        W11373   8.429   4.630   4.745 -0.1654  0.1293  0.1763
 7310W        W11374   0.184   9.835   2.007  0.1794  0.2818  0.0249
 7311W        W11375   9.655   0.146   8.420  0.1498 -0.2135  0.2232
 7312W        W11376   6.036   1.612   2.977  0.4366  0.2246  0.1954
 7313ION    NA+11377   6.719   3.440   1.805 -0.0342  0.1291 -0.3738
 7314ION    NA+11378   6.968   0.415   3.724  0.2574 -0.2849 -0.1354
 7315ION    NA+11379   1.328   9.370   8.645 -0.3637  0.1348 -0.1700
 7316ION    NA+11380   9.431   3.796   1.673  0.2919 -0.4097  0.0520
 7317ION    NA+11381   8.761   5.634   8.968 -0.0351  0.2737 -0.0396
 7318ION    NA+11382  10.580   8.462   0.832 -0.0480 -0.2227 -0.2183
 7319ION    NA+11383   9.572   0.960   2.562 -0.3086  0.3108 -0.0354
 7320ION    NA+11384   0.181   1.601   8.064 -0.2496 -0.1069 -0.0083
 7321ION    NA+11385   3.273   1.890   0.219  0.0989 -0.3824  0.2751
 7322ION    NA+11386   0.202   2.454  11.054  0.1062 -0.1000 -0.0136
 7323ION    NA+11387   8.556   2.660   2.106  0.0669 -0.0415 -0.5005
 7324ION    NA+11388   0.195   6.011   9.029  0.0797  0.2293  0.0516
 7325ION    NA+11389   4.661   6.580  11.556  0.3445 -0.1931  0.0855
 7326ION    NA+11390   9.779   9.109   1.465 -0.2686  0.0259  0.2101
 7327ION    NA+11391   7.155   1.975   7.795  0.0339  0.0748 -0.1629
 7328ION    NA+11392   4.387   4.636   0.376  0.0305  0.1825 -0.0327
 7329ION    NA+11393   5.795   5.416   1.622 -0.3182  0.0104  0.1288
 7330ION    NA+11394   0.262  10.514   3.847  0.2314  0.2299  0.1164
 7331ION    NA+11395   9.071   4.923   1.257 -0.0553  0.1576  0.0757
 7332ION    NA+11396   9.924   3.146   7.786  0.2342 -0.0566 -0.2616
 7333ION    NA+11397   3.785  10.293  11.293 -0.1326 -0.3242 -0.0906
 7334ION    NA+11398   7.857   6.644   2.362  0.0176 -0.0279  0.4737
 7335ION    NA+11399   5.255   0.054   3.913  0.0256 -0.0051  0.0989
 7336ION    NA+11400   5.076   2.294  10.921  0.0179  0.0420  0.1024
 7337ION    NA+11401   3.390   8.890   1.378 -0.1148  0.0369  0.2655
 7338ION    NA+11402   2.855   5.432   1.269 -0.2299 -0.0471 -0.0857
 7339ION    NA+11403   5.664   7.397   7.890 -0.0468  0.1621  0.0253
 7340ION    NA+11404   4.220   0.668   3.852 -0.1010 -0.2742  0.2480
 7341ION    NA+11405   1.182   7.036   2.291 -0.0399 -0.1207  0.1850
 7342ION    NA+11406   0.832   1.794   2.136  0.1585  0.0288 -0.2179
 7343ION    NA+11407   7.888   2.221   3.961  0.0975  0.0505  0.2866
 7344ION    NA+11408   0.534   5.065   9.339 -0.3209 -0.0600  0.1897
 7345ION    NA+11409   4.446   5.738  10.101 -0.0859  0.3272  0.1403
 7346ION    NA+11410   7.630   4.904  10.165 -0.0525 -0.2951 -0.2232
 7347ION    NA+11411   9.879   1.400   3.652  0.2884 -0.0203  0.0260
 7348ION    NA+11412   9.681  10.466   3.712 -0.1006  0.2385 -0.1597
 7349ION    NA+11413   1.970   9.794   1.640  0.0622 -0.1139 -0.2067
 7350ION    NA+11414   2.397   2.972  11.509  0.0054 -0.0338  0.1259
 7351ION    NA+11415   7.839   7.931   9.380  0.2500  0.0317 -0.1035
 7352ION    NA+11416   4.859   8.599  11.235 -0.2169 -0.0007  0.0526
 7353ION    NA+11417   2.808  10.298   9.783  0.0520  0.1687 -0.0719
 7354ION    NA+11418  10.052   6.192   3.602  0.0092 -0.2421  0.1597
 7355ION    NA+11419  10.078   0.592  11.535 -0.1113 -0.1550 -0.0506
 7356ION    NA+11420   8.097   4.687   9.213 -0.0400 -0.0017 -0.1067
 7357ION    NA+11421   7.816   0.954   7.436 -0.0886  0.2443  0.0856
 7358ION    NA+11422   9.637   0.897   1.201  0.2078 -0.1013 -0.0090
 7359ION    NA+11423   4.970   5.686  11.169 -0.5901 -0.0366 -0.2306
 7360ION    NA+11424   2.277   0.889  11.482  0.0677 -0.0637  0.2133
 7361ION    NA+11425   8.862   6.580   4.142 -0.0545  0.2719 -0.2569
 7362ION    NA+11426   9.874   5.258   3.165 -0.3486  0.2096  0.1269
 7363ION    NA+11427   4.962   2.171   7.631  0.1025 -0.1136 -0.3533
 7364ION    NA+11428   6.355   2.188   3.850 -0.0012 -0.1514  0.0708
 7365ION    NA+11429   3.332   4.320   1.972 -0.2395 -0.1233 -0.3081
 7366ION    NA+11430   1.495  10.454   2.958  0.0121  0.1616 -0.1770
 7367ION    NA+11431   5.484   0.649   7.560  0.3074 -0.1480  0.0943
 7368ION    NA+11432   7.787   3.171  10.486 -0.1023 -0.0715  0.1162
 7369ION    NA+11433   1.070   8.123   3.720  0.2728  0.0622  0.2020
 7370ION    NA+11434   3.482   9.787   9.897  0.2413  0.2132 -0.1957
 7371ION    NA+11435  10.149   3.683   3.766  0.2900 -0.0518 -0.0619
 7372ION    NA+11436   6.491   2.391   0.811 -0.1654  0.1938  0.0481
 7373ION    NA+11437  10.031  10.451   2.478 -0.1208  0.1770  0.0231
 7374ION    NA+11438   3.208   1.971   7.562 -0.4428  0.0936 -0.1353
 7375ION    NA+11439   6.203   0.477   9.321  0.1085  0.2098 -0.2898
 7376ION    NA+11440   9.552   2.883   1.779 -0.0898  0.3025 -0.0521
 7377ION    NA+11441   6.532   6.470  10.545 -0.0417  0.0328 -0.0971
 7378ION    NA+11442   0.050   9.430  10.995  0.1277 -0.1819  0.2226
 7379ION    NA+11443   3.119   8.045   8.128 -0.2769  0.3533 -0.1753
 7380ION    NA+11444   2.859   8.869   7.671  0.1038  0.1516  0.2211
 7381ION    NA+11445   5.470  10.395   3.546 -0.0883 -0.0614 -0.1155
 7382ION    NA+11446  10.508   8.383   1.783  0.2277 -0.2493 -0.1252
 7383ION    NA+11447   2.144   4.350   2.868 -0.0203 -0.1175  0.0668
 7384ION    NA+11448   1.124   2.788   9.633 -0.2394  0.0157  0.0201
 7385ION    NA+11449   2.921   4.155   0.451 -0.3970  0.2150  0.1419
 7386ION    NA+11450   8.765   5.297   0.605 -0.0385 -0.3000  0.3480
 7387ION    NA+11451   9.103   9.645   3.547  0.0791  0.0611  0.0471
 7388ION    NA+11452   4.928   2.813   8.565  0.3670 -0.1406  0.1353
 7389ION    NA+11453   1.020   7.809   8.164  0.0280 -0.0481  0.0075
 7390ION    CL-11454   0.013   2.470   0.273 -0.0669 -0.4063  0.1050
 7391ION    CL-11455   1.523   0.706   0.773 -0.0316  0.2641 -0.3286
 7392ION    CL-11456   8.233   6.187   0.802  0.0315 -0.0076 -0.2142
 7393ION    CL-11457   7.604   7.115   3.513 -0.1816 -0.0002  0.0520
 7394ION    CL-11458   1.829   2.768   2.779  0.2012  0.0729  0.0717
 7395ION    CL-11459   6.285   0.250   8.830  0.0815  0.2478  0.4277
 7396ION    CL-11460   4.900   6.721   2.743 -0.0520  0.0990  0.3572
 7397ION    CL-11461   3.027   1.105   3.219  0.0049  0.0243 -0.1561
 7398ION    CL-11462   8.130   5.035   8.781 -0.2446  0.0262 -0.5109
 7399ION    CL-11463   4.992   5.427  10.743  0.2805 -0.0252 -0.0020
 7400ION    CL-11464  10.125   9.892   1.804  0.0769 -0.0457 -0.1662
 7401ION    CL-11465   1.541   6.969   9.327 -0.0551  0.0147  0.0091
 7402ION    CL-11466   6.514   3.485   3.267 -0.0514  0.2305  0.1869
 7403ION    CL-11467   3.220   4.025   2.849  0.1568 -0.1484 -0.0981
 7404ION    CL-11468   9.362   1.213   2.940  0.2653  0.0015 -0.3625
 7405ION    CL-11469   7.845   4.506   9.565 -0.0662  0.0684  0.2364
 7406ION    CL-11470   6.501   2.581   2.768  0.1420 -0.1298 -0.3512
 7407ION    CL-11471   5.568   5.872   1.714 -0.1397  0.1597  0.2446
 7408ION    CL-11472   5.151  10.226  10.927 -0.1314  0.0179 -0.2217
 7409ION    CL-11473   6.014   5.463   8.883  0.1289  0.1203  0.1640
 7410ION    CL-11474   9.039  10.169   8.469 -0.0606  0.1346  0.0968
 7411ION    CL-11475   0.827   5.163  11.417  0.0750 -0.1028 -0.2190
 7412ION    CL-11476   7.562   7.419  10.142  0.1537  0.0264 -0.0590
 7413ION    CL-11477   9.879   4.648   3.310 -0.0384  0.2256 -0.0363
 7414ION    CL-11478   9.588   1.383   1.032 -0.0188  0.0451  0.3490
 7415ION    CL-11479   2.265   1.142   0.272 -0.4236  0.0899 -0.0139
 7416ION    CL-11480   0.212   8.177   1.207 -0.1336  0.1717 -0.2328
 7417ION    CL-11481   0.212   5.399   9.034  0.0273 -0.0416  0.2672
 7418ION    CL-11482   0.152  10.519   9.554  0.3092 -0.0947 -0.1986
 7419ION    CL-11483  10.389   6.233   9.029  0.0440  0.1355  0.2268
 7420ION    CL-11484   1.640   2.465  11.164 -0.0323 -0.0567 -0.0971
 7421ION    CL-11485   4.027   0.842   3.412  0.1674  0.0001  0.1417
 7422ION    CL-11486   8.794   6.630   9.008  0.0849  0.3658  0.0428
 7423ION    CL-11487   5.640   4.130   8.199 -0.2482 -0.0027 -0.0079
 7424ION    CL-11488   3.252  10.260   9.973 -0.3709  0.2958 -0.3385
 7425ION    CL-11489   3.854   4.654   0.486  0.0188 -0.1483  0.0312
 7426ION    CL-11490   3.188   6.920   2.705  0.2014 -0.1935 -0.3977
 7427ION    CL-11491  10.482   1.770   8.397 -0.5804  0.2259 -0.0106
 7428ION    CL-11492   6.238   2.521   0.367 -0.3300  0.1243 -0.0293
 7429ION    CL-11493   6.141   4.163   3.412 -0.0708 -0.2061  0.1452
 7430ION    CL-11494   2.755   3.968  10.170  0.2429  0.4509  0.0462
 7431ION    CL-11495   1.242  10.052   3.049  0.2997 -0.2746 -0.0044
 7432ION    CL-11496   8.101   6.457   1.960 -0.1284 -0.1519 -0.3194
 7433ION    CL-11497   9.129   0.511   3.306 -0.2730  0.0589 -0.0031
 7434ION    CL-11498   1.987   4.462   9.558 -0.1250  0.2344 -0.1657
 7435ION    CL-11499   6.857   0.148  10.966  0.0090  0.0727  0.1419
 7436ION    CL-11500   7.244   6.577   2.464 -0.1555 -0.1038 -0.2246
 7437ION    CL-11501   2.570   9.839   2.679 -0.0278 -0.0987 -0.0747
 7438ION    CL-11502   7.811   2.889   3.262 -0.3719 -0.1648 -0.1308
 7439ION    CL-11503   9.975   2.704   0.952  0.0845  0.1598  0.1755
 7440ION    CL-11504  10.455   9.886   0.294 -0.0739  0.0425 -0.1262
 7441ION    CL-11505   4.486   0.035   9.642  0.1426  0.1263  0.1765
 7442ION    CL-11506   4.638   8.386  10.819 -0.0855  0.3023 -0.0453
 7443ION    CL-11507  10.545   8.864   1.144 -0.1528  0.0119  0.1744
 7444ION    CL-11508  10.221   5.669   3.157  0.0276  0.0530 -0.0474
 7445ION    CL-11509   1.560   5.438   8.823 -0.1256 -0.1644 -0.1542
 7446ION    CL-11510   6.295   0.349   9.783 -0.1849  0.4282 -0.2769
 7447ION    CL-11511   4.240   3.405   2.337  0.0263  0.4381  0.1337
 7448ION    CL-11512   4.849   2.325   8.462 -0.0404 -0.0105 -0.1266
 7449ION    CL-11513   4.527   6.142  11.280  0.0892  0.2928  0.2647
 7450ION    CL-11514   0.107   9.909   3.385  0.1663 -0.1986  0.1387
 7451ION    CL-11515   8.771   4.501   3.339  0.4849  0.1206 -0.1258
 7452ION    CL-11516   9.641   8.578   3.057 -0.1657 -0.0984  0.1784
 7453ION    CL-11517   5.496  10.503   8.551  0.1041 -0.0150  0.3396
 7454ION    CL-11518   4.705   5.247   0.389 -0.0040  0.0518 -0.3830
 7455ION    CL-11519   6.249   0.778   3.400 -0.3596  0.0088 -0.1183
 7456ION    CL-11520   5.333   3.107   8.631 -0.1963  0.3149 -0.1639
 7457ION    CL-11521   9.667   3.390   1.611  0.2592  0.1148  0.1198
 7458ION    CL-11522   8.270   2.216   1.974 -0.4741  0.3542 -0.1144
 7459ION    CL-11523   0.637   6.548   8.901  0.0188 -0.0640  0.1347
 7460ION    CL-11524   0.711   8.322   3.293 -0.1019  0.1253  0.2721
 7461ION    CL-11525   3.434  10.017   0.042 -0.2287 -0.0229  0.1910
 7462ION    CL-11526   4.001   8.288   8.344 -0.1234 -0.1873 -0.2882
 7463ION    CL-11527   4.443   5.297   9.864  0.3069  0.0390  0.2886
 7464ION    CL-11528   9.670   0.722   2.088 -0.1395  0.4012  0.0282
 7465ION    CL-11529   3.288   4.468   9.008  0.1471  0.0210 -0.0629
 7466ION    CL-11530   9.156   5.097   0.828  0.0725 -0.0318  0.0011
  10.62814  10.62814  11.62784
