Protein in INSANE! Membrane UpperLeaflet>POPC=1.0 LowerLeaflet>POPC=1.0
11125
    1AU     AUC    1   1.728   0.039   6.405  0.0882 -0.0627 -0.0698
    1AU     AUC    2   1.648   0.177   6.366  0.0371  0.0303  0.0791
    1AU     AUC    3   1.672   0.053   6.259 -0.0136  0.0814 -0.1022
    1AU     AUC    4   1.820  -0.002   6.552  0.0613 -0.0921 -0.0446
    1AU     AUC    5   1.808  -0.122   6.439 -0.0087  0.0287  0.0232
    1AU     AUC    6   1.941   0.025   6.417  0.0196  0.0095 -0.0216
    1AU     AUC    7   1.821   0.128   6.308 -0.0183 -0.0816 -0.0493
    1AU     AUC    8   1.692  -0.072   6.519  0.0321 -0.0217 -0.0461
    1AU     AUC    9   1.566   0.018   6.386  0.0165  0.0204  0.0252
    1AU     AUC   10   1.671  -0.099   6.334 -0.0113  0.0088 -0.0058
    1AU     AUC   11   1.824  -0.032   6.272 -0.1394  0.0381  0.1097
    1AU     AUC   12   1.665   0.096   6.531 -0.1112 -0.0347  0.0535
    1AU     AUC   13   1.806   0.175   6.467  0.0043  0.0555 -0.0253
    1AU     AUC   14   1.576   0.299   6.354 -0.0586 -0.0076  0.0295
    1AU     AUC   15   1.592   0.208   6.172  0.0659 -0.0769 -0.0313
    1AU     AUC   16   1.617   0.066   6.111 -0.0273  0.0281 -0.0356
    1AU     AUC   17   1.903  -0.010   6.695 -0.1722 -0.0784 -0.0006
    1AU     AUC   18   1.939  -0.144   6.640 -0.0805 -0.0328 -0.0235
    1AU     AUC   19   1.896  -0.253   6.439  0.0547 -0.0152  0.0841
    1AU     AUC   20   2.059   0.017   6.421 -0.1259 -0.0023  0.0438
    1AU     AUC   21   2.041   0.127   6.319 -0.0396 -0.0416 -0.0411
    1AU     AUC   22   1.890   0.244   6.223 -0.0357  0.0300 -0.0132
    1AU     AUC   23   1.595  -0.195   6.596 -0.0182 -0.0033 -0.0394
    1AU     AUC   24   1.497  -0.129   6.535  0.0770  0.1042 -0.0730
    1AU     AUC   25   1.413  -0.015   6.417 -0.0925  0.0347  0.0487
    1AU     AUC   26   1.605  -0.225   6.249  0.0466 -0.0350  0.0069
    1AU     AUC   27   1.774  -0.181   6.165  0.0896  0.0049 -0.0454
    1AU     AUC   28   1.903  -0.086   6.154  0.0980  0.0580  0.0174
    1AU     AUC   29   1.589   0.156   6.650 -0.0279 -0.0713 -0.0472
    1AU     AUC   30   1.707   0.249   6.633  0.0325  0.0059  0.0354
    1AU     AUC   31   1.846   0.304   6.526  0.0172 -0.0138  0.1043
    1AU     AUC   32   1.582  -0.117   6.154 -0.0578 -0.0091 -0.0271
    1AU     AUC   33   1.740  -0.013   6.075 -0.0539 -0.0471 -0.0353
    1AU     AUC   34   1.554   0.280   6.496 -0.0628  0.0613  0.0240
    1AU     AUC   35   1.753   0.376   6.467 -0.0400  0.0758  0.0744
    1AU     AUC   36   1.717  -0.278   6.340  0.0732  0.0860  0.0350
    1AU     AUC   37   1.906  -0.211   6.284  0.0089  0.0040 -0.0035
    1AU     AUC   38   1.780   0.087   6.747  0.0440  0.1156  0.0054
    1AU     AUC   39   1.916   0.190   6.642  0.0795 -0.0080 -0.0505
    1AU     AUC   40   1.705   0.347   6.262 -0.0108  0.1358 -0.0473
    1AU     AUC   41   1.742   0.204   6.103 -0.0189  0.0521 -0.0524
    1AU     AUC   42   1.998   0.014   6.588  0.0506 -0.0792 -0.0698
    1AU     AUC   43   2.023  -0.158   6.459  0.0105 -0.0618  0.0175
    1AU     AUC   44   1.465   0.178   6.365 -0.0702  0.0702  0.0359
    1AU     AUC   45   1.434   0.012   6.258 -0.0330 -0.0688  0.0103
    1AU     AUC   46   1.731  -0.132   6.704 -0.0026 -0.0528  0.0201
    1AU     AUC   47   1.789  -0.265   6.580 -0.0633  0.0169  0.0168
    1AU     AUC   48   2.031  -0.069   6.289 -0.0774  0.0684  0.0468
    1AU     AUC   49   1.926   0.077   6.143  0.1126  0.0537 -0.0677
    1AU     AUC   50   1.578  -0.278   6.408 -0.0226  0.0053 -0.0407
    1AU     AUC   51   1.467  -0.127   6.355  0.0644  0.0137 -0.0909
    1AU     AUC   52   1.990   0.208   6.514  0.0182  0.0069  0.0682
    1AU     AUC   53   1.889   0.295   6.358  0.0540  0.0516 -0.0191
    1AU     AUC   54   1.572  -0.008   6.679  0.0256  0.1003  0.0067
    1AU     AUC   55   1.459   0.088   6.542  0.0119  0.0902 -0.0542
    1AU    AUSL   56   1.657  -0.034   5.968  0.1152 -0.0950 -0.0261
    1AU    AUSL   57   1.335  -0.251   5.980 -0.0023 -0.1004 -0.1207
    1AU     AUL   58   1.675  -0.392   5.889  0.0403  0.0285 -0.0813
    1AU       S   59   0.964  -0.409   5.804 -0.3743 -0.3661 -0.0038
    1AU     LIG   60   0.536  -0.492   5.688  0.4253  0.0829  0.0832
    1AU     LIG   61   0.207  -0.821   5.802 -0.1797  0.0614  0.1749
    1AU     LIG   62   0.082  -1.051   6.180 -0.0979  0.1984  0.1696
    1AU     LIG   63  -0.086  -1.379   6.509 -0.2251 -0.0635 -0.4118
    1AU       S   64   1.412  -0.152   5.376  0.6942  0.2379  0.0685
    1AU     LIG   65   1.014   0.171   5.300  0.0081 -0.6269  0.3278
    1AU     LIG   66   0.665   0.406   5.212 -0.1396 -0.2065  0.1565
    1AU     LIG   67   0.339   0.528   4.881 -0.0563 -0.1596 -0.1214
    1AU     LIG   68   0.033   0.806   4.644 -0.1060 -0.2143 -0.0220
    1AU    AUSL   69   1.576  -0.261   6.100  0.0493 -0.0789 -0.0278
    1AU    AUSL   70   1.848  -0.274   6.078 -0.0188  0.0387  0.0201
    1AU     AUL   71   1.923  -0.371   6.026  0.0643  0.0035  0.0175
    1AU       S   72   1.417  -0.337   5.436  0.3065  0.0926  0.1923
    1AU     LIG   73   0.998  -0.493   5.290  0.1370 -0.3008  0.0031
    1AU     LIG   74   0.737  -0.617   4.925  0.1395  0.0252 -0.1784
    1AU     LIG   75   0.799  -0.645   4.423  0.0849 -0.2606 -0.1565
    1AU     LIG   76   0.865  -0.768   4.031 -0.0021 -0.0358  0.4026
    1AU       S   77   2.155  -0.742   5.807 -0.4016 -0.1354  0.3793
    1AU     LIG   78   2.581  -0.917   5.843  0.0177  0.1167 -0.2388
    1AU     LIG   79   2.942  -1.069   5.653  0.2061  0.1396 -0.4407
    1AU     LIG   80   3.244  -1.290   5.932 -0.4837  0.0745  0.1250
    1AU     LIG   81   3.334  -1.728   6.129  0.1546 -0.1844  0.0324
    1AU    AUSL   82   1.854  -0.171   5.819  0.0112  0.0278  0.0881
    1AU    AUSL   83   1.813   0.126   5.794 -0.0156 -0.0875  0.0010
    1AU     AUL   84   1.566  -0.112   5.861 -0.0376 -0.0920 -0.0095
    1AU       S   85   1.917  -0.393   5.434  0.0802 -0.0869 -0.0745
    1AU     LIG   86   1.634  -0.739   5.477 -0.1302  0.1254 -0.0820
    1AU     LIG   87   1.186  -0.896   5.550  0.0356  0.1617 -0.0689
    1AU     LIG   88   0.755  -1.001   5.791  0.2789  0.0622 -0.0843
    1AU     LIG   89   0.390  -1.257   5.872  0.3249  0.2958 -0.1232
    1AU       S   90   1.875   0.193   5.356 -0.0366 -0.1934  0.1152
    1AU     LIG   91   1.800  -0.121   5.053 -0.1288  0.1222 -0.1383
    1AU     LIG   92   1.452  -0.414   4.952  0.0068  0.0881 -0.3809
    1AU     LIG   93   1.279  -0.740   4.907  0.0963 -0.4779 -0.0026
    1AU     LIG   94   1.372  -1.188   4.746  0.1191 -0.0636  0.0834
    1AU    AUSL   95   1.577   0.633   6.459  0.0940 -0.0484  0.0159
    1AU    AUSL   96   1.851   0.628   6.354 -0.0283 -0.0262 -0.0244
    1AU     AUL   97   1.896   0.681   6.660 -0.0088 -0.0575  0.0431
    1AU       S   98   1.431   1.085   6.562  0.0630 -0.1987 -0.0558
    1AU     LIG   99   0.969   1.268   6.513 -0.1569 -0.3596  0.5072
    1AU     LIG  100   0.610   1.394   6.398  0.2607 -0.1126 -0.3374
    1AU     LIG  101   0.365   1.708   6.384 -0.2186  0.2528 -0.1021
    1AU     LIG  102   0.247   2.096   6.238  0.0065  0.2523  0.2954
    1AU       S  103   1.907   1.047   6.219 -0.1872 -0.1459 -0.4336
    1AU     LIG  104   1.695   1.452   6.350 -0.0590  0.0975  0.0550
    1AU     LIG  105   1.396   1.776   6.534  0.0719  0.0521  0.1889
    1AU     LIG  106   1.453   2.214   6.441  0.0120  0.5718 -0.0698
    1AU     LIG  107   1.452   2.710   6.345 -0.0096 -0.0189 -0.0159
    1AU    AUSL  108   1.547   0.534   6.718  0.0554 -0.0015 -0.0861
    1AU    AUSL  109   1.480   0.373   6.511 -0.1186 -0.0565  0.0203
    1AU     AUL  110   1.262   0.365   6.488  0.0690 -0.0098  0.0578
    1AU       S  111   1.021   0.735   6.682 -0.2295 -0.1464 -0.1125
    1AU     LIG  112   0.672   0.915   6.616 -0.1072  0.1440 -0.1301
    1AU     LIG  113   0.535   1.238   6.852 -0.2350 -0.0361  0.0738
    1AU     LIG  114   0.252   1.670   6.930 -0.2493  0.3348 -0.0320
    1AU     LIG  115  -0.036   1.873   7.212  0.2369 -0.2403 -0.4457
    1AU       S  116   1.457   0.900   6.868  0.4532 -0.2470  0.0221
    1AU     LIG  117   1.594   1.242   7.225 -0.7006  0.0738 -0.1048
    1AU     LIG  118   1.784   1.468   7.415 -0.3895 -0.1994  0.1268
    1AU     LIG  119   2.209   1.694   7.304  0.1116  0.0348  0.3814
    1AU     LIG  120   2.638   1.552   7.290  0.0004  0.1281  0.1319
    1AU    AUSL  121   1.759   0.446   6.557 -0.0120 -0.0895 -0.0435
    1AU    AUSL  122   1.649   0.283   6.751 -0.0546 -0.0266  0.0021
    1AU     AUL  123   1.607   0.284   6.906 -0.0216  0.0523 -0.0807
    1AU       S  124   1.613   0.589   7.304 -0.1761  0.1048  0.2310
    1AU     LIG  125   1.201   0.671   7.307  0.2183  0.3328  0.1993
    1AU     LIG  126   1.012   1.082   7.010 -0.0788  0.1916  0.0198
    1AU     LIG  127   1.305   1.429   6.851  0.0246 -0.4684  0.2064
    1AU     LIG  128   1.403   1.704   7.155 -0.3045 -0.1491  0.6213
    1AU       S  129   1.606   1.070   6.685 -0.0669 -0.2540 -0.1900
    1AU     LIG  130   1.814   1.538   6.828  0.2526 -0.0394 -0.1066
    1AU     LIG  131   2.153   1.879   6.703 -0.0409  0.1041 -0.3331
    1AU     LIG  132   2.504   2.208   6.517 -0.2890  0.2440 -0.3998
    1AU     LIG  133   2.714   2.503   6.763  0.0364  0.4197 -0.2418
    1AU    AUSL  134   1.926  -0.368   6.315 -0.0530  0.0288 -0.0186
    1AU    AUSL  135   2.084  -0.160   6.192 -0.0072 -0.0570 -0.0184
    1AU     AUL  136   2.118  -0.232   5.882  0.0887 -0.0086  0.0666
    1AU       S  137   2.040  -0.893   6.038  0.0907  0.0995 -0.4255
    1AU     LIG  138   2.188  -1.235   6.317  0.2985  0.3144  0.0266
    1AU     LIG  139   2.371  -1.679   6.222  0.1413  0.3582  0.0280
    1AU     LIG  140   2.392  -1.970   5.850 -0.1616  0.0658 -0.1473
    1AU     LIG  141   2.668  -2.312   5.582  0.0419 -0.0224 -0.1788
    1AU       S  142   2.635  -0.535   6.158  0.2430 -0.1148 -0.1101
    1AU     LIG  143   2.967  -0.828   6.229  0.0086 -0.1902  0.1603
    1AU     LIG  144   3.086  -1.136   6.519 -0.5332  0.0372  0.3630
    1AU     LIG  145   2.928  -1.078   6.958  0.0103  0.1127  0.2995
    1AU     LIG  146   2.861  -1.122   7.452  0.0648  0.1602  0.2622
    1AU    AUSL  147   1.720  -0.524   6.132 -0.0798 -0.0727  0.0336
    1AU    AUSL  148   1.805  -0.603   6.408 -0.0119 -0.0328 -0.0543
    1AU     AUL  149   1.453  -0.548   6.346  0.0120  0.0993  0.0394
    1AU       S  150   1.761  -1.013   6.525  0.1607 -0.2143  0.1383
    1AU     LIG  151   1.754  -1.495   6.623  0.0346 -0.2056 -0.0856
    1AU     LIG  152   1.700  -1.886   6.400  0.0566 -0.1488  0.0689
    1AU     LIG  153   1.637  -2.353   6.318 -0.0169 -0.0844 -0.1294
    1AU     LIG  154   1.418  -2.613   6.488  0.2123  0.0961  0.0987
    1AU       S  155   1.855  -0.926   5.946 -0.1890  0.2677 -0.1082
    1AU     LIG  156   2.093  -1.238   5.592  0.0948 -0.3843 -0.0504
    1AU     LIG  157   2.436  -1.246   5.251 -0.2892 -0.1535  0.0544
    1AU     LIG  158   2.778  -1.348   5.253  0.3140  0.1877  0.1297
    1AU     LIG  159   2.858  -1.914   5.371 -0.0349 -0.2038 -0.1552
    1AU    AUSL  160   1.837   0.100   6.827 -0.0550 -0.0344 -0.0153
    1AU    AUSL  161   1.635   0.013   6.999  0.0308 -0.0478 -0.1444
    1AU     AUL  162   1.364   0.172   7.018  0.0228 -0.0155  0.1246
    1AU       S  163   1.807   0.343   7.436 -0.2168  0.5379 -0.3898
    1AU     LIG  164   1.336   0.361   7.659 -0.3766  0.1029 -0.3513
    1AU     LIG  165   1.098  -0.044   7.759 -0.0338 -0.2714  0.0327
    1AU     LIG  166   1.093  -0.563   7.783  0.0249 -0.2340  0.1485
    1AU     LIG  167   0.908  -1.012   7.735  0.0472  0.0577 -0.1963
    1AU       S  168   1.571  -0.108   7.409  0.1420  0.0418  0.2078
    1AU     LIG  169   2.029  -0.333   7.558  0.0351 -0.2507  0.2868
    1AU     LIG  170   2.128  -0.750   7.724  0.1244 -0.3103 -0.1501
    1AU     LIG  171   1.873  -1.112   7.658 -0.1893 -0.5141 -0.3990
    1AU     LIG  172   1.773  -1.490   7.748  0.2092  0.1667 -0.3619
    1AU    AUSL  173   1.878   0.361   6.911 -0.0100  0.0313  0.0254
    1AU    AUSL  174   2.081   0.166   6.921 -0.0493 -0.1425 -0.0779
    1AU     AUL  175   1.810   0.487   6.830 -0.0288  0.0344  0.0401
    1AU       S  176   2.264   0.266   7.281  0.2048 -0.0607  0.0297
    1AU     LIG  177   2.218   0.123   7.603  0.0737  0.1653  0.0102
    1AU     LIG  178   2.207  -0.107   8.007 -0.0935  0.1698 -0.1339
    1AU     LIG  179   2.448  -0.466   8.105 -0.2935 -0.1585  0.0229
    1AU     LIG  180   2.915  -0.377   8.131  0.3682  0.2872  0.4390
    1AU       S  181   1.888   0.639   7.300  0.0146 -0.2261 -0.4618
    1AU     LIG  182   1.991   0.987   7.190  0.2327  0.2427 -0.1845
    1AU     LIG  183   2.406   1.153   7.032  0.2296 -0.0045  0.2824
    1AU     LIG  184   2.686   1.238   6.710  0.1196  0.0076 -0.3511
    1AU     LIG  185   2.690   1.712   6.517 -0.0315  0.5636  0.3001
    1AU    AUSL  186   1.772   0.545   6.056 -0.0747 -0.0216  0.0450
    1AU    AUSL  187   1.663   0.441   6.288 -0.0777 -0.0029  0.0260
    1AU     AUL  188   1.694   0.392   5.867 -0.0754  0.0207 -0.0417
    1AU       S  189   1.678   1.020   6.082  0.1968  0.2736 -0.3318
    1AU     LIG  190   1.408   1.407   5.890 -0.3038 -0.3732 -0.1001
    1AU     LIG  191   1.068   1.587   6.147 -0.1673 -0.0196  0.1864
    1AU     LIG  192   0.721   1.658   6.014 -0.0733 -0.3547 -0.2008
    1AU     LIG  193   0.552   2.042   5.898 -0.0308 -0.2206 -0.2196
    1AU       S  194   1.588   0.831   5.658 -0.1603  0.0407 -0.2591
    1AU     LIG  195   1.767   1.277   5.606 -0.0310  0.1559  0.4710
    1AU     LIG  196   1.844   1.657   5.843 -0.0124  0.3823  0.0999
    1AU     LIG  197   1.514   1.889   6.071  0.0641 -0.1638  0.1186
    1AU     LIG  198   1.058   2.114   6.096  0.4121  0.4570 -0.1859
    1AU    AUSL  199   1.491   0.473   6.042 -0.0645 -0.0297 -0.0322
    1AU    AUSL  200   1.301   0.244   6.022 -0.0329  0.0597  0.0039
    1AU     AUL  201   1.542   0.166   5.778 -0.0347 -0.0430 -0.0282
    1AU       S  202   1.334   0.751   5.827  0.1005 -0.4147 -0.2660
    1AU     LIG  203   1.099   0.978   6.044 -0.2596 -0.3104  0.3717
    1AU     LIG  204   0.619   1.086   6.032  0.4987  0.2174 -0.0823
    1AU     LIG  205   0.220   0.958   5.976 -0.0419  0.0473 -0.1255
    1AU     LIG  206  -0.196   0.880   5.760  0.1340  0.0512 -0.2321
    1AU       S  207   0.943   0.453   5.960  0.4317  0.2612 -0.4663
    1AU     LIG  208   0.614   0.673   5.666 -0.5393 -0.4040  0.1685
    1AU     LIG  209   0.245   0.683   5.380  0.3577  0.2275  0.2101
    1AU     LIG  210  -0.254   0.509   5.432 -0.4108  0.0897  0.2547
    1AU     LIG  211  -0.713   0.538   5.345 -0.1070 -0.4367 -0.0745
    1AU    AUSL  212   1.578   0.217   6.044 -0.0081  0.0212  0.0132
    1AU    AUSL  213   1.847   0.243   6.041 -0.0256 -0.0452 -0.0097
    1AU     AUL  214   1.978   0.255   5.919  0.0293  0.0472  0.1450
    1AU       S  215   2.082   0.395   5.464 -0.3219 -0.1608 -0.0500
    1AU     LIG  216   1.828   0.667   5.128 -0.0707  0.1038  0.0188
    1AU     LIG  217   1.532   1.043   5.215 -0.0724  0.1792  0.1711
    1AU     LIG  218   1.213   1.184   5.534  0.1141  0.2869 -0.1742
    1AU     LIG  219   0.790   1.411   5.621 -0.1721  0.2423 -0.0192
    1AU       S  220   1.358   0.569   5.536  0.3646  0.1425  0.3221
    1AU     LIG  221   1.072   0.711   5.225  0.0332  0.2979 -0.1797
    1AU     LIG  222   0.963   1.173   5.081 -0.1367 -0.5168 -0.1858
    1AU     LIG  223   0.816   1.331   4.752  0.0878 -0.1545 -0.2304
    1AU     LIG  224   0.723   1.535   4.311  0.0754  0.1801  0.0742
    1AU    AUSL  225   2.208  -0.019   6.517 -0.0302 -0.0294 -0.0038
    1AU    AUSL  226   2.174  -0.474   6.365  0.0751  0.0130  0.0010
    1AU     AUL  227   2.280  -0.064   6.595  0.1164  0.0275 -0.0424
    1AU       S  228   2.424  -0.770   6.290  0.5315 -0.0397 -0.0587
    1AU     LIG  229   2.583  -1.143   6.551 -0.2020 -0.2868  0.2081
    1AU     LIG  230   2.826  -1.493   6.683  0.2683  0.0714  0.1260
    1AU     LIG  231   2.950  -1.819   6.398 -0.0936 -0.0294 -0.0830
    1AU     LIG  232   2.900  -1.853   5.981  0.0705 -0.1641  0.5112
    1AU       S  233   2.759  -0.155   6.726 -0.5065 -0.0958  0.2875
    1AU     LIG  234   3.178  -0.132   6.499  0.2036  0.0847  0.2388
    1AU     LIG  235   3.618  -0.044   6.569 -0.1133 -0.1204 -0.1969
    1AU     LIG  236   3.966   0.148   6.426 -0.0405 -0.3364 -0.0869
    1AU     LIG  237   4.390   0.014   6.350  0.0158 -0.3087 -0.2276
    1AU    AUSL  238   2.037  -0.056   6.726  0.0453  0.0008  0.0355
    1AU    AUSL  239   2.252   0.199   6.702  0.0581  0.0003  0.0069
    1AU     AUL  240   2.177  -0.169   6.839  0.0302 -0.0223 -0.0377
    1AU       S  241   2.526  -0.164   7.185  0.2200  0.0825  0.3492
    1AU     LIG  242   2.823  -0.447   7.123  0.1973 -0.2099  0.0234
    1AU     LIG  243   3.212  -0.340   7.062 -0.2946 -0.0417  0.1684
    1AU     LIG  244   3.663  -0.248   6.985 -0.1791  0.2420 -0.0466
    1AU     LIG  245   3.958   0.092   6.978  0.1235  0.1810  0.2044
    1AU       S  246   2.605   0.337   6.947 -0.2573 -0.1162 -0.0516
    1AU     LIG  247   2.973   0.506   6.828 -0.0159 -0.1068 -0.0276
    1AU     LIG  248   3.306   0.241   6.945  0.1982 -0.2529  0.0443
    1AU     LIG  249   3.562   0.159   7.301  0.1245 -0.1027 -0.1163
    1AU     LIG  250   3.707   0.113   7.660  0.0758  0.4440 -0.1221
    1AU    AUSL  251   2.076  -0.251   6.516 -0.0304 -0.0626  0.0334
    1AU    AUSL  252   1.962  -0.338   6.812  0.0145 -0.0427 -0.0394
    1AU     AUL  253   2.217  -0.335   6.606 -0.0014  0.1094  0.0203
    1AU       S  254   2.052  -0.661   7.111 -0.0343  0.0648  0.1191
    1AU     LIG  255   2.463  -0.862   7.292 -0.2269 -0.0425 -0.1359
    1AU     LIG  256   2.559  -0.527   7.594 -0.3243 -0.3245  0.2565
    1AU     LIG  257   2.676  -0.135   7.801 -0.2340  0.0053  0.0630
    1AU     LIG  258   2.550   0.221   7.998  0.0584 -0.0853  0.0183
    1AU       S  259   2.577  -0.626   6.770 -0.3820  0.0560  0.1255
    1AU     LIG  260   3.029  -0.652   6.646 -0.4367 -0.3618  0.0760
    1AU     LIG  261   3.453  -0.692   6.434  0.1005 -0.2854 -0.1337
    1AU     LIG  262   3.822  -0.519   6.520 -0.2494 -0.0634  0.1108
    1AU     LIG  263   4.130  -0.239   6.661 -0.1816  0.2671  0.1523
    1AU    AUSL  264   1.182   0.145   6.269  0.0261  0.0120  0.0170
    1AU    AUSL  265   1.425  -0.008   6.110  0.0415 -0.0970 -0.0268
    1AU     AUL  266   1.358   0.029   5.972 -0.0611 -0.0191 -0.0824
    1AU       S  267   0.788   0.278   6.182  0.2072  0.3081  0.1659
    1AU     LIG  268   0.392   0.311   5.914 -0.1081 -0.1982  0.1432
    1AU     LIG  269  -0.054   0.391   5.851 -0.1531  0.1662 -0.1860
    1AU     LIG  270  -0.511   0.418   5.910 -0.0829  0.1225  0.1612
    1AU     LIG  271  -0.957   0.496   6.100  0.3012  0.2972  0.0648
    1AU       S  272   0.919  -0.006   5.719 -0.0158  0.3266 -0.0125
    1AU     LIG  273   0.576  -0.037   5.569 -0.1227  0.1294  0.0652
    1AU     LIG  274   0.185  -0.168   5.732 -0.0015 -0.1012 -0.1973
    1AU     LIG  275  -0.199  -0.437   5.774  0.1577 -0.0730 -0.3265
    1AU     LIG  276  -0.560  -0.708   5.692 -0.2297  0.2335  0.2477
    1AU    AUSL  277   1.409   0.290   6.261 -0.0561  0.0274  0.0181
    1AU    AUSL  278   1.341   0.117   6.520  0.0588  0.1171  0.0414
    1AU     AUL  279   1.377   0.522   6.295 -0.0052  0.1015 -0.0561
    1AU       S  280   0.864   0.578   6.158  0.0868 -0.0367 -0.0521
    1AU     LIG  281   0.480   0.646   6.238  0.2605  0.0916 -0.1459
    1AU     LIG  282   0.102   0.552   6.337  0.2662 -0.1312  0.1211
    1AU     LIG  283  -0.192   0.190   6.525 -0.0766  0.0140 -0.1818
    1AU     LIG  284  -0.236  -0.223   6.471  0.3383  0.2519  0.4501
    1AU       S  285   0.818   0.421   6.665  0.1016 -0.0143  0.1994
    1AU     LIG  286   0.423   0.301   6.593  0.1293  0.0287  0.4321
    1AU     LIG  287   0.178  -0.000   6.234 -0.4119 -0.0574 -0.1224
    1AU     LIG  288  -0.217  -0.007   6.045  0.4520 -0.0364 -0.2131
    1AU     LIG  289  -0.338   0.012   5.575 -0.3479 -0.1023  0.0363
    1AU    AUSL  290   1.685  -0.437   6.820  0.0900  0.0452  0.0258
    1AU    AUSL  291   1.748  -0.167   6.844 -0.0140  0.0045 -0.0250
    1AU     AUL  292   1.931  -0.094   6.980 -0.0409  0.0345  0.0285
    1AU       S  293   1.571  -0.387   7.366 -0.0417 -0.2573  0.0572
    1AU     LIG  294   1.663  -0.599   7.762  0.0993  0.0418  0.2551
    1AU     LIG  295   1.740  -0.843   8.093 -0.3689  0.0883  0.3005
    1AU     LIG  296   1.574  -0.710   8.514 -0.3762 -0.0601  0.1260
    1AU     LIG  297   1.208  -0.390   8.523  0.0285 -0.0068 -0.2093
    1AU       S  298   1.739  -0.775   7.125 -0.1153  0.3087 -0.5644
    1AU     LIG  299   1.667  -1.169   7.124 -0.0468  0.2194  0.0889
    1AU     LIG  300   1.990  -1.416   7.241  0.0844 -0.0359 -0.0764
    1AU     LIG  301   2.194  -1.667   7.019  0.2383  0.0174  0.2360
    1AU     LIG  302   2.382  -1.616   6.681 -0.0314  0.2057  0.1637
    1AU    AUSL  303   1.819  -0.385   6.578 -0.0110  0.0553 -0.0660
    1AU    AUSL  304   1.588  -0.544   6.577  0.0038 -0.0088 -0.0198
    1AU     AUL  305   1.972  -0.505   6.567 -0.0481 -0.0209  0.0321
    1AU       S  306   1.574  -1.028   6.674 -0.3719 -0.4215 -0.2855
    1AU     LIG  307   1.173  -1.203   6.915  0.0221 -0.1123 -0.5448
    1AU     LIG  308   0.787  -1.142   7.247 -0.1763 -0.0960 -0.1322
    1AU     LIG  309   0.353  -1.109   7.239 -0.3706 -0.0295  0.2217
    1AU     LIG  310   0.061  -0.787   7.241  0.1076  0.1084 -0.1178
    1AU       S  311   2.001  -0.823   6.944  0.0458 -0.0396 -0.3455
    1AU     LIG  312   2.232  -1.168   6.882  0.0768  0.0207 -0.0227
    1AU     LIG  313   2.571  -1.399   7.143 -0.0880  0.1653  0.0080
    1AU     LIG  314   2.893  -1.718   7.182  0.3317 -0.3566 -0.2247
    1AU     LIG  315   3.326  -1.774   7.365  0.1614  0.4727 -0.0498
    1AU    AUSL  316   2.214   0.004   5.988  0.0380 -0.0844 -0.0216
    1AU    AUSL  317   2.325  -0.226   6.359  0.0827 -0.0334 -0.0231
    1AU     AUL  318   2.159  -0.301   6.142  0.0104 -0.0060 -0.0746
    1AU       S  319   2.757  -0.323   6.265  0.4173  0.2433 -0.0756
    1AU     LIG  320   3.101  -0.378   5.986  0.1032  0.2988 -0.6184
    1AU     LIG  321   3.292   0.007   5.947  0.3371  0.0721 -0.0359
    1AU     LIG  322   3.687   0.248   6.058 -0.0479  0.0449  0.2746
    1AU     LIG  323   3.780   0.633   6.263  0.0371  0.0194 -0.1251
    1AU       S  324   2.576   0.041   5.788  0.1100  0.1367 -0.1278
    1AU     LIG  325   2.987  -0.174   5.580 -0.2629  0.1162 -0.0580
    1AU     LIG  326   3.410  -0.098   5.454  0.0109 -0.3277  0.1402
    1AU     LIG  327   3.811   0.161   5.555  0.2280 -0.1921  0.1327
    1AU     LIG  328   4.216   0.157   5.653 -0.2434  0.0546 -0.0961
    1AU    AUSL  329   2.315   0.028   6.266  0.0379 -0.0583  0.0055
    1AU    AUSL  330   2.209   0.447   6.278  0.0145 -0.0480 -0.0196
    1AU     AUL  331   2.432   0.174   6.471 -0.0783  0.0670  0.0321
    1AU       S  332   2.757   0.104   6.015 -0.1104  0.5385  0.2855
    1AU     LIG  333   3.043   0.319   6.207  0.1926 -0.3115 -0.0024
    1AU     LIG  334   3.394   0.412   6.458  0.0712  0.1210  0.0846
    1AU     LIG  335   3.721   0.478   6.748  0.0279  0.2246  0.4114
    1AU     LIG  336   3.928   0.525   7.176  0.3125 -0.2508 -0.0730
    1AU       S  337   2.466   0.737   6.295  0.0960  0.3078 -0.0727
    1AU     LIG  338   2.715   1.151   6.187 -0.4299 -0.0566 -0.1779
    1AU     LIG  339   3.056   1.155   5.904  0.0325 -0.0009  0.0229
    1AU     LIG  340   3.086   1.032   5.385 -0.3973  0.0904 -0.2048
    1AU     LIG  341   3.200   1.132   4.970 -0.1332  0.3504 -0.2699
    1AU    AUSL  342   2.077   0.165   6.177 -0.0313  0.0270  0.0789
    1AU    AUSL  343   1.942  -0.013   6.006 -0.0019  0.0425 -0.0685
    1AU     AUL  344   2.193   0.238   6.107  0.0104 -0.0626 -0.0364
    1AU       S  345   2.185   0.105   5.445 -0.0408  0.5000  0.3379
    1AU     LIG  346   2.569   0.080   5.186  0.2575 -0.0968  0.0980
    1AU     LIG  347   2.906  -0.263   5.077 -0.1520  0.1879 -0.2715
    1AU     LIG  348   3.185  -0.275   4.761  0.1928  0.0088  0.1012
    1AU     LIG  349   3.448  -0.195   4.330 -0.0729  0.2932 -0.1476
    1AU       S  350   2.587   0.380   5.879  0.3080  0.2422  0.1154
    1AU     LIG  351   2.966   0.706   5.963 -0.1197  0.1178  0.2336
    1AU     LIG  352   3.372   0.802   6.107  0.2455 -0.2121  0.1875
    1AU     LIG  353   3.832   1.150   6.137 -0.0852  0.1107  0.1212
    1AU     LIG  354   4.067   1.448   6.122  0.0826  0.0777 -0.1017
    1AU    AUSL  355   1.399  -0.271   6.305 -0.0408 -0.0829  0.0049
    1AU    AUSL  356   1.171  -0.112   6.157 -0.0015  0.0436  0.0620
    1AU     AUL  357   1.444  -0.501   6.055  0.0396  0.0991 -0.0233
    1AU       S  358   0.967  -0.680   6.216  0.2215  0.0059 -0.3637
    1AU     LIG  359   0.589  -0.945   6.259  0.1554 -0.1110 -0.0383
    1AU     LIG  360   0.479  -1.389   6.404 -0.0113  0.0356 -0.2896
    1AU     LIG  361   0.290  -1.809   6.520 -0.0107 -0.1832 -0.1065
    1AU     LIG  362   0.233  -2.108   6.726  0.0467  0.0764 -0.0668
    1AU       S  363   0.783  -0.199   5.994  0.1772 -0.0448  0.0571
    1AU     LIG  364   0.442  -0.408   6.168  0.0524  0.2777  0.0483
    1AU     LIG  365   0.033  -0.539   6.210 -0.2980 -0.2908  0.0097
    1AU     LIG  366  -0.415  -0.625   6.160  0.0481 -0.0369 -0.2338
    1AU     LIG  367  -0.859  -0.816   6.086  0.1881  0.1483 -0.4314
    1AU    AUSL  368   1.516  -0.283   6.594  0.0090  0.0728  0.0401
    1AU    AUSL  369   1.658  -0.374   6.351 -0.0513  0.0260  0.1265
    1AU     AUL  370   1.307  -0.337   6.244 -0.0011  0.0193  0.0193
    1AU       S  371   1.083  -0.838   6.567 -0.0129 -0.3571 -0.0589
    1AU     LIG  372   0.980  -1.317   6.437 -0.2199 -0.0809  0.1224
    1AU     LIG  373   0.814  -1.876   6.453 -0.1693 -0.1354 -0.0897
    1AU     LIG  374   0.546  -2.288   6.364  0.1402 -0.1016 -0.0737
    1AU     LIG  375   0.255  -2.574   6.598 -0.0432  0.1440 -0.5513
    1AU       S  376   1.478  -1.023   6.353 -0.2846 -0.4724  0.1266
    1AU     LIG  377   1.351  -1.210   5.975 -0.2226  0.1424  0.0035
    1AU     LIG  378   1.047  -1.397   5.685  0.1814  0.3152 -0.0433
    1AU     LIG  379   0.602  -1.432   5.497  0.1989  0.2170  0.0728
    1AU     LIG  380   0.144  -1.295   5.453 -0.2027 -0.0017 -0.0175
    1AU    AUSL  381   1.269  -0.366   6.517  0.0647  0.0643  0.0088
    1AU    AUSL  382   1.302  -0.138   6.670 -0.0289 -0.0183  0.0933
    1AU     AUL  383   1.406  -0.497   6.798  0.0059 -0.0154 -0.0138
    1AU       S  384   0.877  -0.272   6.844 -0.5060  0.1595 -0.1866
    1AU     LIG  385   0.845  -0.691   7.042  0.0582 -0.1000  0.2013
    1AU     LIG  386   0.702  -1.090   6.776 -0.2986 -0.1056  0.0091
    1AU     LIG  387   0.597  -1.474   6.939  0.0026 -0.2151  0.1744
    1AU     LIG  388   0.235  -1.596   6.939 -0.2831 -0.0278  0.2114
    1AU       S  389   0.913  -0.622   6.512 -0.1866 -0.0773  0.3755
    1AU     LIG  390   0.451  -0.650   6.659 -0.3637 -0.1618  0.0230
    1AU     LIG  391   0.199  -0.988   6.789 -0.2299  0.2912 -0.1274
    1AU     LIG  392  -0.175  -1.089   6.945  0.0413 -0.4512  0.1005
    1AU     LIG  393  -0.598  -1.004   6.887 -0.2431  0.4307 -0.3394
    1AU    AUSL  394   2.037   0.495   6.492 -0.0322 -0.1070  0.0438
    1AU    AUSL  395   1.940   0.387   6.257  0.0614 -0.0302  0.0979
    1AU     AUL  396   2.040   0.462   6.078  0.0350  0.0040  0.0447
    1AU       S  397   2.409   0.837   6.640  0.5095  0.5245  0.4447
    1AU     LIG  398   2.270   1.316   6.458  0.0770  0.1271  0.0401
    1AU     LIG  399   2.263   1.732   6.249  0.2216  0.0993 -0.3561
    1AU     LIG  400   2.057   2.094   6.249  0.1987 -0.0843 -0.0508
    1AU     LIG  401   1.878   2.446   6.305  0.1136  0.0198  0.0959
    1AU       S  402   2.050   0.949   5.986 -0.0180  0.0649  0.0141
    1AU     LIG  403   2.273   1.368   5.955 -0.0818 -0.1915 -0.0194
    1AU     LIG  404   2.364   1.764   5.755 -0.1164  0.2257  0.2960
    1AU     LIG  405   2.642   2.148   5.965  0.1066  0.2883  0.1452
    1AU     LIG  406   2.857   2.508   5.789  0.0124 -0.2823  0.1338
    1AU    AUSL  407   2.156   0.236   6.438 -0.0501 -0.0212 -0.0312
    1AU    AUSL  408   1.990   0.276   6.672  0.0134  0.0046  0.0129
    1AU     AUL  409   2.040   0.439   6.676 -0.0350  0.0288 -0.0068
    1AU       S  410   2.607   0.643   6.536  0.1098  0.0433 -0.1130
    1AU     LIG  411   3.027   0.927   6.479 -0.0730  0.1879  0.0976
    1AU     LIG  412   3.113   1.407   6.414  0.0295 -0.0736 -0.0870
    1AU     LIG  413   3.149   1.815   6.310  0.3157 -0.0977 -0.3971
    1AU     LIG  414   3.476   2.007   6.574  0.2314  0.1040 -0.2270
    1AU       S  415   2.453   0.534   7.085 -0.2931 -0.2423  0.3336
    1AU     LIG  416   2.830   0.886   7.106  0.0199 -0.0036  0.0090
    1AU     LIG  417   2.851   1.079   7.433  0.0969  0.0375  0.0251
    1AU     LIG  418   3.062   1.272   7.732  0.2956  0.2753 -0.1161
    1AU     LIG  419   3.385   1.504   7.717  0.0662  0.3666 -0.4081
    1AU    AUSL  420   1.498   0.039   6.754 -0.0312 -0.0890 -0.0330
    1AU    AUSL  421   1.484  -0.206   6.877  0.0222 -0.1015  0.0963
    1AU     AUL  422   1.292   0.023   6.790 -0.0409  0.0298  0.0206
    1AU       S  423   1.318  -0.326   7.303  0.2186  0.0133 -0.0226
    1AU     LIG  424   0.811  -0.244   7.389 -0.1976  0.1067 -0.0602
    1AU     LIG  425   0.455  -0.371   7.202 -0.2777  0.5781 -0.1734
    1AU     LIG  426   0.125  -0.216   7.302 -0.1574  0.0450  0.5096
    1AU     LIG  427  -0.242  -0.090   7.062  0.3019  0.4295 -0.1855
    1AU       S  428   0.809  -0.043   6.908 -0.0592 -0.0101 -0.2560
    1AU     LIG  429   0.562   0.195   7.099  0.0805  0.0682  0.1460
    1AU     LIG  430   0.109   0.259   7.210  0.3174  0.1013  0.2878
    1AU     LIG  431  -0.280   0.296   7.379 -0.1578 -0.2277  0.1678
    1AU     LIG  432  -0.428   0.467   6.922 -0.2945 -0.2959  0.1694
    1AU    AUSL  433   1.188  -0.110   6.424  0.0226  0.0722  0.0484
    1AU    AUSL  434   1.358   0.297   6.748  0.0166 -0.0574 -0.0196
    1AU     AUL  435   1.175   0.104   6.546  0.0257  0.0141  0.0965
    1AU       S  436   0.738  -0.140   6.584  0.0690 -0.1137  0.3655
    1AU     LIG  437   0.277  -0.175   6.768 -0.0138 -0.5479 -0.1302
    1AU     LIG  438  -0.006  -0.450   6.822 -0.1422 -0.0095 -0.0200
    1AU     LIG  439  -0.269  -0.732   6.605 -0.0215  0.5284  0.0873
    1AU     LIG  440  -0.400  -1.071   6.382 -0.0791  0.0946 -0.2821
    1AU       S  441   0.946   0.517   6.886  0.0293  0.0321 -0.1913
    1AU     LIG  442   0.535   0.695   7.022  0.0837  0.0960 -0.1080
    1AU     LIG  443   0.173   0.665   6.800  0.0898 -0.1612 -0.1818
    1AU     LIG  444  -0.217   0.975   6.642 -0.3280  0.2050  0.3668
    1AU     LIG  445  -0.244   1.290   6.216  0.2532 -0.1655 -0.1432
    2POPC   NC3  446   5.486   9.804   8.203  0.1018  0.1523 -0.3239
    2POPC   PO4  447   5.530   9.371   8.237  0.0292 -0.0147 -0.1681
    2POPC   GL1  448   5.584   9.162   7.827 -0.0598 -0.1537  0.0888
    2POPC   GL2  449   5.844   9.058   7.600 -0.0366 -0.2937  0.1257
    2POPC   C1A  450   5.413   9.114   7.366  0.3131 -0.6729 -0.0514
    2POPC   D2A  451   5.027   8.976   7.272  0.3316 -0.0080 -0.0517
    2POPC   C3A  452   5.011   8.775   6.805 -0.0329  0.1578  0.2749
    2POPC   C4A  453   5.315   8.896   6.376  0.3242  0.1614  0.0934
    2POPC   C1B  454   5.854   9.013   7.188 -0.1854  0.3150 -0.1599
    2POPC   C2B  455   6.209   9.165   6.812 -0.0543  0.1117 -0.2272
    2POPC   C3B  456   6.378   9.424   6.484 -0.1637 -0.0099 -0.2128
    2POPC   C4B  457   6.591   9.678   6.160  0.0118  0.0795  0.1637
    3POPC   NC3  458   5.537   1.809   8.444 -0.2558 -0.1889  0.0643
    3POPC   PO4  459   5.438   1.412   8.544 -0.2674  0.3255  0.0260
    3POPC   GL1  460   5.562   1.349   8.112  0.2443 -0.0524 -0.3708
    3POPC   GL2  461   5.357   1.196   8.008 -0.1324  0.0553  0.0745
    3POPC   C1A  462   5.594   1.453   7.669 -0.0456  0.2258 -0.0696
    3POPC   D2A  463   5.589   1.722   7.398  0.1009 -0.3298  0.1643
    3POPC   C3A  464   5.932   1.853   7.005  0.1805 -0.3762  0.0651
    3POPC   C4A  465   6.264   1.658   6.820  0.3075  0.1593 -0.0827
    3POPC   C1B  466   5.192   1.213   7.653  0.3301 -0.2804 -0.0875
    3POPC   C2B  467   5.181   1.452   7.210  0.1901  0.1531  0.0463
    3POPC   C3B  468   5.026   1.438   6.848 -0.1224  0.1023  0.3824
    3POPC   C4B  469   4.971   1.334   6.419  0.2905  0.2103 -0.0825
    4POPC   NC3  470   7.043   8.722   8.139 -0.1420  0.3623  0.1353
    4POPC   PO4  471   6.505   8.872   8.019 -0.1289 -0.1735  0.0757
    4POPC   GL1  472   6.314   9.134   7.637  0.1759  0.1054 -0.0832
    4POPC   GL2  473   6.251   9.441   7.669 -0.2010  0.2522 -0.1194
    4POPC   C1A  474   6.384   8.889   7.281  0.1337  0.0383  0.0225
    4POPC   D2A  475   6.713   8.803   7.013 -0.2114 -0.2142  0.4262
    4POPC   C3A  476   6.592   8.916   6.591 -0.2525  0.1868 -0.3096
    4POPC   C4A  477   6.690   8.908   6.245 -0.1468 -0.0761  0.1614
    4POPC   C1B  478   6.229   9.425   7.295 -0.0998 -0.2733  0.1197
    4POPC   C2B  479   6.319   9.631   6.954 -0.0806  0.1130 -0.1687
    4POPC   C3B  480   6.274   9.943   6.525 -0.0186  0.1140 -0.0927
    4POPC   C4B  481   6.574  10.204   6.245  0.1178  0.0859  0.1682
    5POPC   NC3  482   3.853   3.446   8.272  0.4037  0.1318  0.2360
    5POPC   PO4  483   3.662   3.087   8.570 -0.0614 -0.1411  0.1028
    5POPC   GL1  484   3.803   2.947   8.160  0.0889 -0.2813  0.0378
    5POPC   GL2  485   3.558   2.988   8.017 -0.1857  0.2836  0.1306
    5POPC   C1A  486   3.843   2.683   7.693  0.0496  0.1074 -0.1325
    5POPC   D2A  487   3.522   2.446   7.513  0.0008 -0.1109 -0.2700
    5POPC   C3A  488   3.465   2.552   7.151  0.1793 -0.1845 -0.1970
    5POPC   C4A  489   3.352   2.422   6.797  0.3357  0.2761  0.0129
    5POPC   C1B  490   3.234   2.817   7.784  0.0179  0.1477  0.1254
    5POPC   C2B  491   2.969   2.957   7.520  0.0582  0.1735 -0.1462
    5POPC   C3B  492   2.727   2.930   7.131 -0.3481 -0.1644  0.2941
    5POPC   C4B  493   2.594   3.238   6.813 -0.5612 -0.0613  0.0319
    6POPC   NC3  494   9.103   4.238   8.216 -0.1524  0.1874  0.2256
    6POPC   PO4  495   8.787   4.554   8.261  0.0772 -0.0500 -0.0347
    6POPC   GL1  496   8.897   4.429   7.833  0.2661  0.1665  0.0195
    6POPC   GL2  497   8.933   4.675   7.734 -0.2573  0.3335  0.0059
    6POPC   C1A  498   8.704   4.301   7.423 -0.0366  0.0779 -0.2219
    6POPC   D2A  499   8.698   4.374   7.000 -0.2339 -0.0588 -0.0246
    6POPC   C3A  500   8.704   4.738   6.823  0.2913  0.0017  0.1096
    6POPC   C4A  501   8.724   5.031   6.515 -0.5727 -0.0567  0.3102
    6POPC   C1B  502   8.940   4.715   7.301  0.2820  0.0068 -0.3504
    6POPC   C2B  503   9.203   4.670   6.974  0.0268  0.0102 -0.2123
    6POPC   C3B  504   9.510   4.426   6.877  0.2385  0.0851 -0.1353
    6POPC   C4B  505   9.869   4.382   6.636  0.4578 -0.0354 -0.1952
    7POPC   NC3  506   5.938   1.348   8.482  0.1825  0.2103 -0.2915
    7POPC   PO4  507   6.004   1.190   8.098  0.0735  0.1428 -0.4446
    7POPC   GL1  508   5.951   1.079   7.761 -0.2259 -0.0790  0.1689
    7POPC   GL2  509   6.136   1.031   7.499 -0.2536 -0.1892 -0.0678
    7POPC   C1A  510   5.644   1.017   7.481 -0.0353  0.1019  0.0180
    7POPC   D2A  511   5.362   0.864   7.281  0.6786  0.1850  0.2837
    7POPC   C3A  512   5.205   0.913   6.825  0.1421 -0.0367 -0.1519
    7POPC   C4A  513   5.326   0.753   6.471 -0.1874  0.0692  0.1054
    7POPC   C1B  514   5.956   1.261   7.085  0.2293 -0.1454 -0.1528
    7POPC   C2B  515   5.555   1.581   6.902  0.1362  0.0573 -0.3464
    7POPC   C3B  516   5.636   1.621   6.465  0.0290  0.0845 -0.2175
    7POPC   C4B  517   5.609   1.481   6.051 -0.2251  0.2125 -0.2553
    8POPC   NC3  518   8.037   6.290   8.175 -0.1600  0.1171  0.2123
    8POPC   PO4  519   7.580   6.527   8.118  0.0407  0.1131 -0.3915
    8POPC   GL1  520   7.849   6.603   7.734  0.2596 -0.1283  0.0962
    8POPC   GL2  521   7.995   6.354   7.598 -0.0503  0.0164 -0.6410
    8POPC   C1A  522   7.682   6.931   7.420 -0.4567 -0.2136  0.1345
    8POPC   D2A  523   7.822   7.213   7.082 -0.0386  0.7721 -0.0606
    8POPC   C3A  524   7.796   7.225   6.690 -0.0943 -0.0789 -0.0007
    8POPC   C4A  525   8.041   7.182   6.298  0.0249  0.2097 -0.0436
    8POPC   C1B  526   7.807   6.433   7.189  0.0109  0.1436  0.1891
    8POPC   C2B  527   8.024   6.307   6.784  0.2932 -0.2672  0.1487
    8POPC   C3B  528   8.309   6.161   6.570  0.3157 -0.0422  0.2850
    8POPC   C4B  529   8.803   6.098   6.381  0.0990  0.2135 -0.0893
    9POPC   NC3  530   5.678   0.021   8.977  0.0931  0.1068  0.4502
    9POPC   PO4  531   5.336   0.108   8.652 -0.0853 -0.1817 -0.0609
    9POPC   GL1  532   5.063   0.195   8.268  0.1235 -0.1254  0.0900
    9POPC   GL2  533   4.763   0.327   8.286  0.3146 -0.1545 -0.0530
    9POPC   C1A  534   4.952   0.361   7.847 -0.0024 -0.3822  0.0144
    9POPC   D2A  535   4.708   0.263   7.436  0.0881  0.0298  0.0705
    9POPC   C3A  536   4.869   0.016   7.090  0.0577 -0.0531  0.1018
    9POPC   C4A  537   4.659  -0.195   6.695 -0.0333 -0.2383 -0.2460
    9POPC   C1B  538   4.523   0.359   8.059  0.2965 -0.0730 -0.1920
    9POPC   C2B  539   4.251   0.169   7.773 -0.1122  0.1418 -0.0908
    9POPC   C3B  540   4.175   0.139   7.434 -0.0614  0.1755 -0.0961
    9POPC   C4B  541   3.968  -0.252   7.375 -0.2691 -0.0971  0.1158
   10POPC   NC3  542   7.933   6.825   8.286 -0.0032 -0.0449  0.1024
   10POPC   PO4  543   8.253   6.740   8.068 -0.2296  0.3372  0.2466
   10POPC   GL1  544   8.268   6.891   7.718 -0.0052 -0.0330 -0.1368
   10POPC   GL2  545   8.151   7.200   7.774  0.1655  0.0781  0.1183
   10POPC   C1A  546   8.190   6.836   7.364 -0.2613  0.4283  0.0816
   10POPC   D2A  547   8.297   7.073   6.883  0.5467  0.3237 -0.0545
   10POPC   C3A  548   8.473   7.386   6.755  0.2303 -0.1266  0.1399
   10POPC   C4A  549   8.524   7.223   6.408  0.2726 -0.1015 -0.1649
   10POPC   C1B  550   8.249   7.385   7.318 -0.2395  0.0915  0.0129
   10POPC   C2B  551   8.170   7.708   6.922 -0.0236  0.0143  0.0626
   10POPC   C3B  552   8.009   7.752   6.501  0.0192  0.1200  0.0967
   10POPC   C4B  553   7.774   7.542   6.172 -0.0788  0.1149  0.0660
   11POPC   NC3  554   7.170   6.902   8.165  0.1112 -0.0638 -0.3036
   11POPC   PO4  555   7.238   7.301   7.938 -0.0504 -0.1369 -0.1590
   11POPC   GL1  556   7.234   7.340   7.551 -0.0840 -0.4550 -0.2460
   11POPC   GL2  557   7.321   7.647   7.402  0.0622 -0.4498  0.2195
   11POPC   C1A  558   7.363   7.195   7.115  0.0161  0.0051  0.1160
   11POPC   D2A  559   7.400   6.852   6.814  0.0204  0.0857  0.2553
   11POPC   C3A  560   6.980   6.849   6.533  0.4126 -0.1960 -0.0356
   11POPC   C4A  561   6.616   7.149   6.419  0.1338  0.3487  0.0430
   11POPC   C1B  562   6.956   7.850   7.256  0.1477 -0.1759 -0.1312
   11POPC   C2B  563   6.651   7.982   6.942  0.2311  0.0199 -0.0140
   11POPC   C3B  564   6.463   8.308   6.757  0.2846  0.0432  0.1255
   11POPC   C4B  565   6.250   8.657   6.843 -0.1142 -0.1276 -0.0096
   12POPC   NC3  566   1.124   2.122   9.287  0.0220 -0.3327  0.1718
   12POPC   PO4  567   0.806   2.239   9.033  0.1479  0.1037  0.1294
   12POPC   GL1  568   1.104   2.257   8.652 -0.0174  0.2737 -0.1503
   12POPC   GL2  569   1.392   2.352   8.638 -0.0659 -0.0900 -0.1809
   12POPC   C1A  570   1.014   2.063   8.156  0.5711 -0.1297 -0.0540
   12POPC   D2A  571   0.977   1.934   7.748 -0.4052  0.2238 -0.0137
   12POPC   C3A  572   1.183   2.091   7.376 -0.0279 -0.0958  0.0175
   12POPC   C4A  573   1.157   2.444   7.050 -0.1463 -0.2754 -0.3150
   12POPC   C1B  574   1.510   2.188   8.260 -0.2024 -0.1473  0.0259
   12POPC   C2B  575   1.483   2.035   7.856 -0.0445 -0.0018  0.3207
   12POPC   C3B  576   1.356   1.665   7.639 -0.3919 -0.0520  0.4621
   12POPC   C4B  577   1.206   1.282   7.421 -0.1908  0.2351  0.2378
   13POPC   NC3  578   0.837   5.579   8.668 -0.0709 -0.0168 -0.1570
   13POPC   PO4  579   0.496   5.344   8.538  0.0664  0.0807 -0.1136
   13POPC   GL1  580   0.786   5.372   8.244 -0.3336 -0.0741  0.1037
   13POPC   GL2  581   0.882   5.077   8.135  0.2908 -0.0361 -0.1256
   13POPC   C1A  582   1.062   5.441   7.795 -0.2171  0.0763 -0.0989
   13POPC   D2A  583   1.417   5.398   7.560 -0.2892  0.0578 -0.0581
   13POPC   C3A  584   1.661   5.732   7.499 -0.1870  0.0007 -0.4439
   13POPC   C4A  585   1.980   6.059   7.255  0.3041 -0.0313 -0.2493
   13POPC   C1B  586   1.201   4.937   7.818  0.0624  0.3090 -0.2319
   13POPC   C2B  587   1.463   4.872   7.518  0.1261 -0.2081  0.1903
   13POPC   C3B  588   1.598   5.023   7.168  0.2609 -0.0859 -0.5494
   13POPC   C4B  589   2.047   5.034   6.977  0.0684 -0.0942 -0.1621
   14POPC   NC3  590   3.615   3.754   8.917  0.0775  0.0683  0.0926
   14POPC   PO4  591   3.349   3.498   8.734  0.2369 -0.2556  0.3250
   14POPC   GL1  592   3.247   3.438   8.230 -0.1211  0.3288 -0.0793
   14POPC   GL2  593   2.892   3.303   8.072  0.2056 -0.0509 -0.1886
   14POPC   C1A  594   3.426   3.566   7.864  0.2780 -0.0610  0.0054
   14POPC   D2A  595   3.404   3.526   7.393 -0.1118 -0.1473 -0.2304
   14POPC   C3A  596   3.387   3.225   6.992  0.0095 -0.0228 -0.0118
   14POPC   C4A  597   3.076   2.906   6.820  0.1798 -0.2091 -0.2244
   14POPC   C1B  598   2.960   3.433   7.697 -0.2031  0.0074 -0.2811
   14POPC   C2B  599   2.986   3.364   7.255 -0.0510  0.2724 -0.1920
   14POPC   C3B  600   3.047   3.625   6.947  0.0437  0.5484  0.0971
   14POPC   C4B  601   3.169   3.796   6.469  0.1459 -0.0857 -0.5163
   15POPC   NC3  602   1.932   6.444   8.981  0.0830 -0.0777  0.0573
   15POPC   PO4  603   1.702   6.054   8.704  0.0831  0.1452 -0.2219
   15POPC   GL1  604   1.674   6.018   8.279  0.0757  0.3921 -0.1595
   15POPC   GL2  605   2.095   5.908   8.359 -0.1867 -0.1255  0.1745
   15POPC   C1A  606   1.884   5.928   7.908  0.0256  0.2352 -0.0860
   15POPC   D2A  607   2.185   6.204   7.759  0.0637 -0.3449  0.0081
   15POPC   C3A  608   2.575   6.016   7.572 -0.1430 -0.1255  0.0023
   15POPC   C4A  609   2.923   6.288   7.644  0.4452 -0.1147  0.0081
   15POPC   C1B  610   2.336   5.754   7.995  0.0742  0.0977 -0.2884
   15POPC   C2B  611   2.198   5.657   7.649 -0.2385 -0.1819  0.1902
   15POPC   C3B  612   2.264   5.666   7.182  0.2324  0.0505 -0.4977
   15POPC   C4B  613   2.497   5.737   6.768 -0.0652 -0.0508 -0.2378
   16POPC   NC3  614   2.634   6.413   8.628 -0.2284  0.1421 -0.2498
   16POPC   PO4  615   2.427   6.796   8.853 -0.0091  0.3442  0.0422
   16POPC   GL1  616   2.455   6.903   8.395  0.1006  0.2319 -0.2696
   16POPC   GL2  617   2.674   6.827   8.092 -0.0499 -0.0170 -0.1344
   16POPC   C1A  618   2.163   6.777   8.066 -0.2505  0.1012  0.1936
   16POPC   D2A  619   1.910   6.668   7.666  0.1147 -0.1273 -0.3712
   16POPC   C3A  620   2.160   7.014   7.317 -0.3122  0.3042 -0.2789
   16POPC   C4A  621   2.581   7.018   7.198  0.1828  0.0082 -0.0701
   16POPC   C1B  622   2.515   6.751   7.700  0.0803  0.1389  0.0967
   16POPC   C2B  623   2.353   6.525   7.405 -0.0014  0.2260  0.0632
   16POPC   C3B  624   2.007   6.505   7.084 -0.1593 -0.2031  0.2290
   16POPC   C4B  625   1.828   6.346   6.749 -0.1183  0.1852  0.4189
   17POPC   NC3  626   3.515   0.418   9.614  0.5010  0.1082 -0.0790
   17POPC   PO4  627   3.165   0.860   9.760  0.1759  0.1568  0.1382
   17POPC   GL1  628   3.147   0.765   9.216 -0.1465  0.2255 -0.0011
   17POPC   GL2  629   3.023   0.383   9.021  0.1417 -0.0193  0.1456
   17POPC   C1A  630   3.000   0.848   8.868  0.2973  0.0471  0.0636
   17POPC   D2A  631   2.500   0.841   8.714  0.0258  0.4192  0.3168
   17POPC   C3A  632   2.427   1.225   8.365 -0.0888 -0.0524 -0.2688
   17POPC   C4A  633   2.702   1.348   8.086 -0.0095  0.0370 -0.2431
   17POPC   C1B  634   2.830   0.338   8.697  0.3262  0.1360 -0.3528
   17POPC   C2B  635   2.418   0.437   8.380 -0.2230 -0.0723 -0.3964
   17POPC   C3B  636   2.117   0.780   8.349  0.5474 -0.1126 -0.1957
   17POPC   C4B  637   1.784   0.847   8.595  0.0119 -0.0401  0.2667
   18POPC   NC3  638   0.069   8.337   8.556 -0.1283 -0.0466 -0.0417
   18POPC   PO4  639   0.394   8.731   8.726 -0.3357 -0.0851  0.0432
   18POPC   GL1  640   0.649   8.886   8.424 -0.2383 -0.1249 -0.1182
   18POPC   GL2  641   0.700   8.852   8.152  0.0175  0.0192  0.2058
   18POPC   C1A  642   0.840   9.272   8.288 -0.2370 -0.3086  0.2018
   18POPC   D2A  643   0.847   9.673   8.128  0.1787 -0.1860 -0.1489
   18POPC   C3A  644   0.552   9.948   8.152 -0.1302  0.0946 -0.2461
   18POPC   C4A  645   0.186  10.165   8.030 -0.0539  0.2233  0.1989
   18POPC   C1B  646   0.587   8.395   8.167 -0.0098 -0.1586 -0.1366
   18POPC   C2B  647   0.557   8.075   7.851 -0.0022 -0.2386 -0.0763
   18POPC   C3B  648   0.345   7.755   7.711  0.2030  0.0095 -0.1414
   18POPC   C4B  649   0.277   7.693   7.206 -0.1143 -0.1252  0.0913
   19POPC   NC3  650   9.835   1.322   8.914 -0.1500 -0.1039  0.3258
   19POPC   PO4  651   9.745   1.677   8.656  0.0728 -0.2784  0.0060
   19POPC   GL1  652   9.839   1.637   8.283  0.1286 -0.1988  0.0325
   19POPC   GL2  653   9.785   2.053   8.215 -0.3288  0.0027  0.0447
   19POPC   C1A  654   9.985   1.637   7.882 -0.3909  0.0047  0.3225
   19POPC   D2A  655  10.142   1.512   7.490  0.2791 -0.0339 -0.1307
   19POPC   C3A  656  10.506   1.562   7.414  0.1003  0.2899 -0.0428
   19POPC   C4A  657  10.855   1.656   7.015  0.1033  0.1974  0.0780
   19POPC   C1B  658   9.678   2.059   7.754  0.0991  0.1589  0.1409
   19POPC   C2B  659   9.560   2.192   7.381 -0.1276 -0.0361  0.1626
   19POPC   C3B  660   9.700   2.254   6.899  0.0538  0.1186 -0.0156
   19POPC   C4B  661   9.883   1.953   6.710 -0.0852 -0.1050 -0.3721
   20POPC   NC3  662   7.909   9.004   8.202  0.2320 -0.0781 -0.0985
   20POPC   PO4  663   8.044   9.363   8.216  0.1181 -0.1773  0.3020
   20POPC   GL1  664   8.086   9.524   7.801  0.1915 -0.2064 -0.2040
   20POPC   GL2  665   8.216   9.365   7.670 -0.3521  0.2166  0.1571
   20POPC   C1A  666   8.035   9.833   7.382  0.0518  0.2896 -0.0905
   20POPC   D2A  667   8.236   9.787   7.025 -0.1502 -0.1005 -0.0230
   20POPC   C3A  668   8.448   9.450   6.791 -0.0287 -0.3437 -0.0831
   20POPC   C4A  669   8.637   9.287   6.421  0.2952  0.1020  0.0619
   20POPC   C1B  670   7.866   9.232   7.445 -0.0550 -0.2196 -0.0156
   20POPC   C2B  671   7.637   9.120   7.147  0.0594 -0.2624  0.1941
   20POPC   C3B  672   7.261   9.092   6.917 -0.1229  0.1403  0.1663
   20POPC   C4B  673   7.114   8.892   6.532  0.0304  0.1230  0.1889
   21POPC   NC3  674   6.889   0.968   7.986  0.0187 -0.1229 -0.1330
   21POPC   PO4  675   7.245   1.123   8.042  0.1172 -0.3303 -0.3270
   21POPC   GL1  676   7.356   0.953   7.685  0.1586 -0.0654  0.3286
   21POPC   GL2  677   7.255   0.753   7.639  0.0641  0.0827  0.2358
   21POPC   C1A  678   7.771   0.878   7.413  0.2278  0.0746  0.0455
   21POPC   D2A  679   7.828   0.768   6.970  0.1173 -0.0861  0.3029
   21POPC   C3A  680   7.956   0.327   7.028 -0.1495  0.3518 -0.2877
   21POPC   C4A  681   8.130   0.134   6.568  0.0879 -0.3000  0.1462
   21POPC   C1B  682   7.205   0.985   7.218  0.2044  0.0081  0.2218
   21POPC   C2B  683   7.412   0.984   6.824 -0.3702  0.0707 -0.1902
   21POPC   C3B  684   7.639   0.996   6.491 -0.0163 -0.0590  0.0796
   21POPC   C4B  685   7.864   0.843   6.088  0.2599  0.1997 -0.2943
   22POPC   NC3  686   3.662   9.681   9.766 -0.2041  0.4271 -0.1659
   22POPC   PO4  687   3.813   9.962   9.554 -0.4065  0.1780  0.1381
   22POPC   GL1  688   3.683   9.684   9.149  0.1279  0.0727 -0.2063
   22POPC   GL2  689   3.498   9.805   8.858 -0.1874  0.5363  0.1689
   22POPC   C1A  690   3.787   9.367   8.943 -0.0347  0.2071 -0.0853
   22POPC   D2A  691   3.712   9.073   8.579 -0.4979  0.1386 -0.0668
   22POPC   C3A  692   3.395   8.784   8.550 -0.0987  0.0779 -0.0173
   22POPC   C4A  693   3.346   8.388   8.275 -0.0276 -0.2149  0.0361
   22POPC   C1B  694   3.382  10.220   8.697 -0.2260 -0.2870 -0.0043
   22POPC   C2B  695   3.189  10.491   8.440  0.0273 -0.3637  0.3182
   22POPC   C3B  696   2.845  10.602   8.306  0.0028  0.1200 -0.2175
   22POPC   C4B  697   2.537  10.778   7.981 -0.0044  0.0958  0.0397
   23POPC   NC3  698   7.794   9.792   8.098  0.4288 -0.0748  0.2198
   23POPC   PO4  699   7.878  10.173   8.417 -0.0470 -0.2166  0.0109
   23POPC   GL1  700   8.190  10.095   8.029 -0.3020  0.3482  0.1627
   23POPC   GL2  701   8.000  10.141   7.823  0.1151 -0.0516 -0.0939
   23POPC   C1A  702   8.605   9.983   7.750 -0.0252 -0.2850  0.2068
   23POPC   D2A  703   8.742   9.942   7.358  0.1479  0.1597  0.4618
   23POPC   C3A  704   9.039   9.591   7.202  0.2413 -0.2165 -0.1121
   23POPC   C4A  705   8.904   9.247   6.874 -0.1612 -0.0370 -0.1167
   23POPC   C1B  706   7.715  10.233   7.581  0.1322  0.0280 -0.1434
   23POPC   C2B  707   7.481  10.379   7.252 -0.2224  0.0746 -0.0014
   23POPC   C3B  708   7.145  10.486   6.904  0.1623  0.1235 -0.4113
   23POPC   C4B  709   7.250  10.546   6.441 -0.1199  0.1638 -0.0845
   24POPC   NC3  710   0.356   2.102   9.031  0.2326 -0.0583 -0.0175
   24POPC   PO4  711   0.311   1.673   9.102 -0.2078  0.1274 -0.2142
   24POPC   GL1  712   0.351   1.601   8.721 -0.1665 -0.0188  0.0866
   24POPC   GL2  713   0.349   1.264   8.761 -0.2351 -0.2598 -0.4366
   24POPC   C1A  714   0.422   1.696   8.269  0.3566  0.1282 -0.6006
   24POPC   D2A  715   0.594   1.620   7.929 -0.2280  0.5391  0.2764
   24POPC   C3A  716   0.526   1.230   7.819  0.1581  0.0117  0.2021
   24POPC   C4A  717   0.216   0.926   7.563 -0.1590  0.1562  0.0174
   24POPC   C1B  718   0.285   1.254   8.351 -0.1154 -0.2466  0.0022
   24POPC   C2B  719  -0.015   1.206   7.997  0.1909 -0.0744  0.3307
   24POPC   C3B  720  -0.204   1.224   7.624  0.0282 -0.3690  0.0640
   24POPC   C4B  721  -0.579   1.117   7.510  0.1058  0.0393 -0.1639
   25POPC   NC3  722   1.646   3.059   8.398  0.1084 -0.0596 -0.0672
   25POPC   PO4  723   1.607   3.360   8.658  0.0899  0.0556 -0.3910
   25POPC   GL1  724   1.530   3.502   8.239  0.1241 -0.2204 -0.3157
   25POPC   GL2  725   1.599   3.296   7.911  0.1792 -0.0169  0.1042
   25POPC   C1A  726   1.440   3.856   7.922  0.1169  0.2254 -0.1082
   25POPC   D2A  727   1.251   3.990   7.570  0.2086  0.1333  0.1515
   25POPC   C3A  728   0.901   3.840   7.355  0.1244  0.2784 -0.5023
   25POPC   C4A  729   0.728   3.555   7.050  0.2714 -0.0918  0.2551
   25POPC   C1B  730   1.321   3.473   7.631  0.0794  0.0998 -0.0685
   25POPC   C2B  731   1.173   3.399   7.251 -0.5015 -0.0143  0.1780
   25POPC   C3B  732   1.466   3.331   6.809 -0.4075  0.2550  0.0617
   25POPC   C4B  733   1.752   3.038   6.586 -0.0712 -0.1475 -0.0088
   26POPC   NC3  734   8.677   2.466   8.260 -0.1179  0.0347 -0.0713
   26POPC   PO4  735   8.821   1.945   8.134  0.1026  0.0880  0.3412
   26POPC   GL1  736   8.768   1.838   7.704  0.0671  0.1063 -0.0172
   26POPC   GL2  737   9.012   1.732   7.601 -0.3269 -0.1416 -0.1388
   26POPC   C1A  738   8.702   1.675   7.259 -0.3426  0.0454 -0.0479
   26POPC   D2A  739   8.616   1.808   6.853 -0.0696  0.4088 -0.3695
   26POPC   C3A  740   9.025   1.799   6.676  0.0023 -0.0590 -0.3102
   26POPC   C4A  741   9.313   2.147   6.577 -0.1825  0.2278  0.0874
   26POPC   C1B  742   9.151   1.455   7.187 -0.0461  0.1313 -0.4229
   26POPC   C2B  743   9.254   1.303   6.756  0.3901  0.2156  0.0913
   26POPC   C3B  744   9.315   1.051   6.366 -0.5708  0.0785 -0.1167
   26POPC   C4B  745   9.559   0.745   6.260 -0.0939 -0.2255 -0.1973
   27POPC   NC3  746   5.538   0.332   8.201 -0.0505  0.1015  0.2090
   27POPC   PO4  747   5.949   0.002   8.154  0.0273 -0.1221  0.0097
   27POPC   GL1  748   5.648   0.067   7.813 -0.1031  0.1404  0.0426
   27POPC   GL2  749   5.655  -0.271   7.605  0.1912  0.2014 -0.4293
   27POPC   C1A  750   5.361   0.275   7.584 -0.0865 -0.0167 -0.2017
   27POPC   D2A  751   5.253   0.322   7.131  0.0574 -0.0142 -0.0294
   27POPC   C3A  752   5.458   0.477   6.898  0.0265  0.3032  0.1964
   27POPC   C4A  753   5.746   0.816   6.932 -0.1402 -0.0177 -0.0246
   27POPC   C1B  754   5.303  -0.126   7.295  0.1327 -0.2081  0.1933
   27POPC   C2B  755   5.279  -0.020   6.770 -0.2848  0.0832 -0.0688
   27POPC   C3B  756   5.179   0.295   6.544  0.0335 -0.0766  0.1121
   27POPC   C4B  757   5.053   0.450   6.137  0.3347  0.0341  0.1980
   28POPC   NC3  758   9.808   7.269   9.022  0.1224 -0.0237 -0.0998
   28POPC   PO4  759   9.727   7.142   8.657  0.0250 -0.1059 -0.2391
   28POPC   GL1  760   9.797   7.076   8.264  0.0807 -0.0829 -0.2403
   28POPC   GL2  761  10.011   6.871   8.210 -0.0616 -0.0465  0.0958
   28POPC   C1A  762   9.733   6.833   7.830 -0.0812 -0.0279 -0.1964
   28POPC   D2A  763   9.518   6.824   7.405  0.4138 -0.0019 -0.1330
   28POPC   C3A  764   9.665   6.881   7.044 -0.1954 -0.3024 -0.2422
   28POPC   C4A  765   9.638   6.852   6.680  0.1750 -0.1144  0.1992
   28POPC   C1B  766  10.334   6.769   7.932  0.1105 -0.0835  0.0958
   28POPC   C2B  767  10.385   6.410   7.598  0.1235 -0.0884 -0.1414
   28POPC   C3B  768  10.569   6.306   7.210  0.0375 -0.0523  0.0839
   28POPC   C4B  769  10.960   6.168   6.992 -0.0728  0.0451  0.0552
   29POPC   NC3  770   7.015   9.027   8.676 -0.0486  0.2724  0.0126
   29POPC   PO4  771   7.332   9.005   8.379  0.3546  0.0306  0.2915
   29POPC   GL1  772   7.357   9.075   8.014  0.0080 -0.1254  0.0105
   29POPC   GL2  773   7.544   9.274   7.825 -0.0085  0.1003 -0.2317
   29POPC   C1A  774   7.229   8.948   7.570 -0.0811 -0.3930 -0.0475
   29POPC   D2A  775   7.188   8.648   7.159 -0.1459  0.0182  0.0048
   29POPC   C3A  776   7.401   8.613   6.789 -0.2125  0.2732 -0.3771
   29POPC   C4A  777   7.299   8.459   6.395 -0.0518  0.0552 -0.1567
   29POPC   C1B  778   7.318   9.404   7.423 -0.0141  0.0920  0.2614
   29POPC   C2B  779   7.258   9.563   6.905 -0.2525 -0.1183  0.1766
   29POPC   C3B  780   7.453   9.330   6.468  0.0432 -0.2652 -0.2366
   29POPC   C4B  781   7.363   9.085   6.147  0.0138 -0.1703 -0.0250
   30POPC   NC3  782   2.596   2.366   8.923 -0.0348 -0.2401 -0.1654
   30POPC   PO4  783   2.970   2.477   8.713 -0.0300 -0.0691 -0.0552
   30POPC   GL1  784   2.862   2.268   8.361  0.0667 -0.3746 -0.0033
   30POPC   GL2  785   2.961   2.483   8.075 -0.1510 -0.1429  0.0242
   30POPC   C1A  786   2.863   1.876   8.083 -0.0257  0.2552  0.2374
   30POPC   D2A  787   2.914   1.714   7.636  0.0587 -0.3465 -0.0177
   30POPC   C3A  788   3.104   1.524   7.280 -0.2425 -0.0886 -0.1838
   30POPC   C4A  789   3.146   1.237   6.928  0.3927  0.3617  0.1855
   30POPC   C1B  790   2.901   2.449   7.699  0.1597  0.0603  0.1336
   30POPC   C2B  791   2.554   2.555   7.546 -0.0209 -0.0694  0.0571
   30POPC   C3B  792   2.261   2.817   7.430 -0.0123  0.2746 -0.1235
   30POPC   C4B  793   2.139   2.794   7.014 -0.0909  0.2898  0.0108
   31POPC   NC3  794   0.080   5.111   8.658  0.4172  0.1723 -0.0616
   31POPC   PO4  795  -0.074   5.451   8.407 -0.1928 -0.1464 -0.0238
   31POPC   GL1  796   0.117   5.561   8.106 -0.0349 -0.0483 -0.1304
   31POPC   GL2  797   0.432   5.682   7.978  0.1483 -0.0593  0.1097
   31POPC   C1A  798   0.142   5.662   7.534 -0.0406  0.2698  0.0679
   31POPC   D2A  799   0.276   6.022   7.336  0.3775  0.0568  0.0834
   31POPC   C3A  800   0.252   6.070   6.899 -0.1370 -0.1088 -0.0606
   31POPC   C4A  801   0.653   6.031   6.662  0.0354  0.2212 -0.0278
   31POPC   C1B  802   0.683   5.769   7.556 -0.2935  0.3447 -0.0978
   31POPC   C2B  803   0.589   5.697   7.141 -0.2034  0.0687 -0.1237
   31POPC   C3B  804   0.380   5.656   6.663 -0.0223  0.1873  0.3604
   31POPC   C4B  805   0.359   5.491   6.193  0.2215 -0.0397  0.1067
   32POPC   NC3  806   6.766   3.106   8.228  0.1956 -0.1584  0.1540
   32POPC   PO4  807   6.735   2.664   8.110 -0.0713 -0.1914  0.0915
   32POPC   GL1  808   6.990   2.559   7.834  0.0261  0.1013  0.2277
   32POPC   GL2  809   7.133   2.858   7.515 -0.2676  0.1419 -0.1164
   32POPC   C1A  810   7.010   2.337   7.481  0.1978  0.0238  0.1339
   32POPC   D2A  811   6.769   2.371   7.083 -0.4338 -0.3037 -0.1318
   32POPC   C3A  812   6.561   2.576   6.795 -0.4626 -0.2869  0.6726
   32POPC   C4A  813   6.463   2.972   6.653 -0.0803  0.3229  0.0294
   32POPC   C1B  814   7.398   2.650   7.229 -0.1099  0.1596 -0.4140
   32POPC   C2B  815   7.640   2.523   6.892  0.1489  0.2169 -0.0168
   32POPC   C3B  816   7.786   2.293   6.520 -0.1351  0.2084  0.1588
   32POPC   C4B  817   7.974   1.951   6.267 -0.1274  0.1462 -0.0152
   33POPC   NC3  818   4.848   9.179   8.420 -0.0254  0.0266  0.1212
   33POPC   PO4  819   5.145   9.068   8.054  0.0389 -0.0863  0.1106
   33POPC   GL1  820   5.081   9.340   7.748 -0.0104  0.2035  0.3871
   33POPC   GL2  821   5.184   9.551   7.885 -0.0395  0.2029  0.1079
   33POPC   C1A  822   4.956   9.461   7.283  0.0851  0.0710  0.0266
   33POPC   D2A  823   4.862   9.285   6.942 -0.1111  0.0482  0.1064
   33POPC   C3A  824   5.022   9.413   6.474 -0.0726 -0.3323  0.0311
   33POPC   C4A  825   5.303   9.297   6.119 -0.5171  0.1439  0.0506
   33POPC   C1B  826   4.908   9.792   7.653 -0.2577  0.1308  0.0552
   33POPC   C2B  827   4.467   9.711   7.514 -0.1264  0.1258  0.1176
   33POPC   C3B  828   4.411   9.844   7.114  0.3499 -0.0972  0.0226
   33POPC   C4B  829   4.459  10.245   6.934  0.1756  0.3162  0.3278
   34POPC   NC3  830   7.133   6.222   8.117 -0.1777 -0.1273  0.1344
   34POPC   PO4  831   6.883   6.509   8.203 -0.2956 -0.0618  0.0177
   34POPC   GL1  832   6.850   6.469   7.700  0.0532  0.0499 -0.2534
   34POPC   GL2  833   6.960   6.169   7.677  0.1493  0.2451  0.2397
   34POPC   C1A  834   6.775   6.388   7.309  0.1552 -0.1878  0.0309
   34POPC   D2A  835   6.877   6.566   6.940  0.0810  0.2288  0.1378
   34POPC   C3A  836   6.489   6.789   6.727 -0.4347  0.2425 -0.0691
   34POPC   C4A  837   6.077   6.742   6.804  0.0643 -0.0089  0.3666
   34POPC   C1B  838   7.180   6.057   7.339 -0.1773 -0.0376  0.1864
   34POPC   C2B  839   7.054   6.036   7.032 -0.1068 -0.1767  0.2995
   34POPC   C3B  840   6.916   5.796   6.720 -0.1235 -0.1027  0.0208
   34POPC   C4B  841   7.148   5.928   6.343  0.0165  0.5601  0.1876
   35POPC   NC3  842   0.083   9.046   9.125  0.1756  0.2264  0.1523
   35POPC   PO4  843   0.160   9.400   8.874 -0.0202  0.1011 -0.0160
   35POPC   GL1  844   0.368   9.275   8.464 -0.3128 -0.0861 -0.3452
   35POPC   GL2  845   0.181   9.026   8.326  0.1071 -0.3413  0.1186
   35POPC   C1A  846   0.440   9.302   8.000  0.2246 -0.2892 -0.0518
   35POPC   D2A  847   0.334   9.598   7.733 -0.3009  0.1435  0.1072
   35POPC   C3A  848   0.463  10.021   7.633  0.1716  0.3587  0.1932
   35POPC   C4A  849   0.209  10.398   7.624  0.0736 -0.1402 -0.3438
   35POPC   C1B  850   0.170   8.665   8.026 -0.1135  0.1148  0.0937
   35POPC   C2B  851   0.505   8.535   7.682 -0.1477  0.1206  0.1224
   35POPC   C3B  852   0.323   8.220   7.396 -0.1270 -0.1516  0.3585
   35POPC   C4B  853  -0.058   8.061   7.370 -0.0950 -0.0006  0.2816
   36POPC   NC3  854   9.046   4.996   8.107 -0.2700  0.1743 -0.0910
   36POPC   PO4  855   8.601   5.008   7.905 -0.3075 -0.5084  0.0507
   36POPC   GL1  856   8.814   5.117   7.546  0.1567 -0.3620 -0.0780
   36POPC   GL2  857   9.012   5.311   7.709 -0.1054 -0.3562  0.3330
   36POPC   C1A  858   8.625   5.097   7.202  0.3226  0.0235 -0.1902
   36POPC   D2A  859   8.700   5.366   6.893  0.0366  0.1111 -0.0658
   36POPC   C3A  860   8.317   5.736   6.838  0.3364 -0.2007 -0.2462
   36POPC   C4A  861   8.169   5.893   7.173 -0.0045  0.0517 -0.3219
   36POPC   C1B  862   9.180   5.233   7.286 -0.2824  0.1622 -0.4585
   36POPC   C2B  863   9.184   5.170   6.845  0.1468  0.1409 -0.1414
   36POPC   C3B  864   9.455   5.314   6.495  0.2494  0.3328  0.3962
   36POPC   C4B  865   9.650   5.150   6.093  0.1186  0.0816  0.0698
   37POPC   NC3  866   5.607   5.732   8.441 -0.0460 -0.3043 -0.2662
   37POPC   PO4  867   5.262   5.891   8.196  0.0114  0.0381  0.1963
   37POPC   GL1  868   5.160   5.913   7.761 -0.3000  0.0320 -0.2077
   37POPC   GL2  869   4.841   5.859   7.605 -0.1808  0.0274  0.0614
   37POPC   C1A  870   5.298   6.204   7.457 -0.2059  0.3155  0.1037
   37POPC   D2A  871   5.336   6.383   7.004 -0.0106  0.0002 -0.3082
   37POPC   C3A  872   5.117   6.361   6.684  0.0814 -0.3005 -0.3409
   37POPC   C4A  873   4.782   6.513   6.447 -0.2199  0.0341  0.1056
   37POPC   C1B  874   4.859   6.022   7.218 -0.1095  0.2096 -0.1414
   37POPC   C2B  875   4.620   6.176   6.816 -0.0619 -0.0068 -0.1114
   37POPC   C3B  876   4.443   6.573   6.817 -0.3321 -0.0381 -0.0236
   37POPC   C4B  877   4.051   6.776   6.873  0.0680  0.3961 -0.1352
   38POPC   NC3  878   7.093   3.053   9.088 -0.1052  0.0417 -0.0461
   38POPC   PO4  879   7.049   3.282   8.603 -0.0493 -0.1323 -0.0481
   38POPC   GL1  880   7.227   3.213   8.173 -0.0877  0.1901 -0.0281
   38POPC   GL2  881   7.058   3.266   7.832  0.4404 -0.2624  0.0662
   38POPC   C1A  882   7.547   3.361   7.782  0.1049 -0.0942  0.0937
   38POPC   D2A  883   7.933   3.482   7.626 -0.0102 -0.1233  0.1959
   38POPC   C3A  884   8.104   3.496   7.217 -0.3024  0.0181  0.1878
   38POPC   C4A  885   8.175   3.350   6.848  0.2841  0.2325  0.0763
   38POPC   C1B  886   7.106   3.594   7.625 -0.0550 -0.0274  0.3144
   38POPC   C2B  887   7.040   3.695   7.130 -0.0319 -0.2072 -0.0190
   38POPC   C3B  888   6.821   3.808   6.854 -0.2853 -0.0669 -0.1519
   38POPC   C4B  889   6.385   3.962   6.923 -0.3096 -0.0149  0.4266
   39POPC   NC3  890   2.013   3.551   8.851  0.2932  0.0466 -0.1002
   39POPC   PO4  891   2.195   3.125   8.727  0.2160  0.2651  0.0668
   39POPC   GL1  892   2.388   2.994   8.311 -0.0329 -0.1010  0.2810
   39POPC   GL2  893   2.661   2.762   8.335  0.0600  0.1560 -0.2466
   39POPC   C1A  894   2.583   2.955   7.883 -0.0116 -0.0047  0.3288
   39POPC   D2A  895   2.530   3.238   7.443  0.0352  0.1352 -0.0190
   39POPC   C3A  896   2.224   3.242   7.193 -0.1646 -0.3243 -0.0494
   39POPC   C4A  897   2.154   3.264   6.716 -0.1650 -0.0911 -0.0127
   39POPC   C1B  898   2.440   2.489   8.071  0.1364  0.3593 -0.0418
   39POPC   C2B  899   2.437   2.047   7.776  0.3434  0.0749  0.0022
   39POPC   C3B  900   2.636   2.038   7.356  0.1884  0.0426 -0.1649
   39POPC   C4B  901   2.818   1.962   6.948 -0.1049 -0.0751  0.0802
   40POPC   NC3  902   3.407   7.928   9.315 -0.0239  0.0033  0.0800
   40POPC   PO4  903   3.365   8.262   9.127  0.3412 -0.2653  0.0640
   40POPC   GL1  904   3.209   8.180   8.733 -0.4700 -0.0532 -0.2206
   40POPC   GL2  905   3.019   7.985   8.467 -0.1425 -0.1468 -0.0867
   40POPC   C1A  906   2.926   8.476   8.478 -0.2870  0.0549 -0.3609
   40POPC   D2A  907   2.597   8.464   8.121  0.1921  0.1442  0.0029
   40POPC   C3A  908   2.600   8.136   7.960  0.0374  0.1002  0.0599
   40POPC   C4A  909   2.456   7.703   7.845 -0.4574  0.1639  0.1950
   40POPC   C1B  910   2.886   7.755   8.101 -0.1113 -0.0986 -0.0463
   40POPC   C2B  911   3.014   7.848   7.639 -0.0224 -0.1623  0.1343
   40POPC   C3B  912   3.110   7.732   7.140 -0.2972  0.0304  0.0405
   40POPC   C4B  913   3.150   7.763   6.629 -0.0455  0.0595 -0.1728
   41POPC   NC3  914   8.640   5.974   8.039 -0.1617 -0.0029 -0.1057
   41POPC   PO4  915   8.519   6.331   8.095 -0.0520 -0.0149  0.2537
   41POPC   GL1  916   8.506   6.356   7.626  0.0704 -0.2652 -0.5481
   41POPC   GL2  917   8.408   6.094   7.560 -0.1191  0.0807 -0.4506
   41POPC   C1A  918   8.651   6.647   7.367 -0.0965  0.0985  0.0438
   41POPC   D2A  919   9.010   6.790   7.162 -0.2576 -0.0775  0.2818
   41POPC   C3A  920   9.076   6.876   6.771 -0.0101 -0.2512  0.0134
   41POPC   C4A  921   8.946   7.078   6.285  0.1779  0.1909  0.1408
   41POPC   C1B  922   8.318   6.366   7.122 -0.2546  0.2627 -0.5706
   41POPC   C2B  923   8.521   6.589   6.866  0.2976  0.0547 -0.0353
   41POPC   C3B  924   8.666   6.674   6.518  0.2288 -0.0089 -0.3572
   41POPC   C4B  925   8.912   6.507   6.140  0.1402 -0.0371  0.3292
   42POPC   NC3  926   1.739   0.279   9.661 -0.1610  0.0816  0.3025
   42POPC   PO4  927   1.399   0.436   9.355 -0.1763 -0.3125  0.2417
   42POPC   GL1  928   1.751   0.216   9.108  0.3615  0.2038 -0.0346
   42POPC   GL2  929   1.927   0.511   9.194 -0.0655 -0.1196  0.2671
   42POPC   C1A  930   2.059  -0.096   8.918  0.0849  0.3245  0.2826
   42POPC   D2A  931   2.302  -0.263   8.597 -0.0646 -0.3250 -0.1198
   42POPC   C3A  932   2.614  -0.083   8.376 -0.0102 -0.0848  0.0633
   42POPC   C4A  933   3.029   0.135   8.251 -0.1949 -0.3586 -0.2843
   42POPC   C1B  934   2.153   0.725   9.019  0.0269  0.2379 -0.1642
   42POPC   C2B  935   2.134   1.174   8.862 -0.0195  0.1397 -0.2005
   42POPC   C3B  936   2.171   1.547   8.683  0.3023  0.2955  0.1376
   42POPC   C4B  937   1.920   1.767   8.437  0.0678  0.0773 -0.1710
   43POPC   NC3  938   2.944   4.264   8.762  0.2600 -0.0041 -0.1800
   43POPC   PO4  939   3.297   4.125   8.697 -0.3190  0.0139 -0.0487
   43POPC   GL1  940   3.197   4.164   8.277 -0.2242  0.1759  0.0215
   43POPC   GL2  941   3.039   3.996   8.089 -0.0290 -0.1429 -0.2271
   43POPC   C1A  942   3.356   4.334   7.883 -0.0421  0.3816  0.1304
   43POPC   D2A  943   3.526   4.185   7.458  0.2976 -0.0040  0.0225
   43POPC   C3A  944   3.338   4.104   7.000 -0.4318 -0.1785 -0.1245
   43POPC   C4A  945   3.292   4.308   6.618 -0.1361 -0.3381  0.4936
   43POPC   C1B  946   2.863   4.334   7.888  0.1083  0.2315 -0.2079
   43POPC   C2B  947   3.006   4.388   7.494 -0.0841  0.1514 -0.2444
   43POPC   C3B  948   2.816   4.161   7.176 -0.0267 -0.4074 -0.1409
   43POPC   C4B  949   2.883   4.051   6.807  0.0436 -0.2418 -0.0550
   44POPC   NC3  950   2.669   3.597   9.340  0.1390 -0.2353 -0.2237
   44POPC   PO4  951   2.494   3.946   9.004  0.0836 -0.1071  0.0429
   44POPC   GL1  952   2.440   3.936   8.495 -0.0105 -0.0192  0.1167
   44POPC   GL2  953   2.116   3.897   8.406 -0.1051  0.3928  0.3897
   44POPC   C1A  954   2.574   3.638   8.237 -0.0422 -0.0604  0.1520
   44POPC   D2A  955   2.431   3.433   7.904 -0.1124  0.0469 -0.2521
   44POPC   C3A  956   2.092   3.065   7.852  0.0538 -0.0781 -0.0536
   44POPC   C4A  957   1.748   2.919   7.651 -0.0008 -0.0081  0.0109
   44POPC   C1B  958   1.969   3.731   7.963 -0.0756  0.1920  0.1142
   44POPC   C2B  959   2.257   3.710   7.557  0.1726  0.2353  0.4094
   44POPC   C3B  960   2.281   4.068   7.325 -0.3574 -0.1515  0.0212
   44POPC   C4B  961   2.334   4.092   6.881 -0.0075 -0.1243 -0.1662
   45POPC   NC3  962   5.980   5.009   9.191 -0.2761  0.0950  0.1345
   45POPC   PO4  963   5.969   4.883   8.689 -0.2648 -0.0535 -0.2077
   45POPC   GL1  964   5.975   4.957   8.254 -0.0224 -0.0434 -0.1070
   45POPC   GL2  965   6.057   4.658   8.088 -0.1716 -0.0341  0.3258
   45POPC   C1A  966   6.032   5.121   7.812  0.2720  0.0666 -0.0331
   45POPC   D2A  967   5.809   5.505   7.669  0.0421  0.1900  0.0145
   45POPC   C3A  968   5.543   5.788   7.539  0.0833 -0.2443 -0.1065
   45POPC   C4A  969   5.602   5.971   7.062  0.0628  0.0959 -0.2780
   45POPC   C1B  970   6.063   4.508   7.661 -0.0866  0.0510  0.0785
   45POPC   C2B  971   6.322   4.699   7.361  0.0105 -0.1221 -0.1022
   45POPC   C3B  972   6.611   4.562   7.194  0.4285 -0.2448  0.0547
   45POPC   C4B  973   6.895   4.209   7.271  0.1459  0.0598  0.2154
   46POPC   NC3  974   4.502   0.381   8.854  0.0214  0.0992  0.2074
   46POPC   PO4  975   4.409   0.796   8.759  0.0315 -0.2895  0.2279
   46POPC   GL1  976   4.297   0.890   8.378  0.2408 -0.2527  0.0471
   46POPC   GL2  977   4.457   1.140   8.196  0.3092 -0.1211  0.0621
   46POPC   C1A  978   4.132   0.649   8.068  0.0727 -0.0977 -0.2658
   46POPC   D2A  979   3.991   0.704   7.721 -0.1447 -0.0929 -0.0117
   46POPC   C3A  980   3.546   0.580   7.537 -0.0177 -0.2333  0.2368
   46POPC   C4A  981   3.122   0.554   7.341  0.2960 -0.3143 -0.0576
   46POPC   C1B  982   4.342   1.061   7.825  0.0626  0.2617  0.2151
   46POPC   C2B  983   3.970   1.153   7.495  0.0690 -0.0697  0.1331
   46POPC   C3B  984   3.970   1.064   7.014 -0.3620 -0.0854 -0.0691
   46POPC   C4B  985   3.998   1.117   6.628  0.0192 -0.0778 -0.1816
   47POPC   NC3  986   6.524   5.650   8.830  0.0520  0.1326  0.2177
   47POPC   PO4  987   6.426   5.463   8.419 -0.0617 -0.3775 -0.0906
   47POPC   GL1  988   6.413   5.162   8.090 -0.1649 -0.0532  0.0784
   47POPC   GL2  989   6.459   5.445   7.819 -0.1297  0.3463  0.1017
   47POPC   C1A  990   6.522   4.940   7.713  0.0342 -0.0274  0.0222
   47POPC   D2A  991   6.627   5.110   7.389 -0.1921 -0.0256 -0.0863
   47POPC   C3A  992   7.059   4.979   7.249 -0.1203 -0.0030 -0.1469
   47POPC   C4A  993   7.198   4.608   7.125  0.0297 -0.2382  0.2470
   47POPC   C1B  994   6.258   5.419   7.463  0.0770  0.2058 -0.1983
   47POPC   C2B  995   6.246   5.237   7.090  0.2027  0.1984 -0.2490
   47POPC   C3B  996   6.199   5.290   6.662  0.0743 -0.1668 -0.2087
   47POPC   C4B  997   6.167   5.594   6.320  0.1174  0.2353 -0.0754
   48POPC   NC3  998   6.548   6.212   7.987  0.0457  0.0104 -0.1899
   48POPC   PO4  999   6.329   5.841   8.008 -0.0114  0.1482  0.1510
   48POPC   GL1 1000   6.299   5.984   7.586  0.1778  0.0822 -0.1499
   48POPC   GL2 1001   5.986   6.051   7.542 -0.2511  0.2189 -0.1870
   48POPC   C1A 1002   6.502   5.893   7.267 -0.2058 -0.2739  0.2088
   48POPC   D2A 1003   6.403   5.750   6.921  0.0651  0.1273 -0.0178
   48POPC   C3A 1004   6.134   5.976   6.663 -0.0407  0.1468  0.0188
   48POPC   C4A 1005   5.719   6.251   6.650 -0.1337  0.0337  0.0611
   48POPC   C1B 1006   5.983   5.725   7.277 -0.2436 -0.1663  0.1112
   48POPC   C2B 1007   5.819   5.453   7.077 -0.0175  0.1000  0.0271
   48POPC   C3B 1008   5.412   5.321   7.012 -0.3531  0.2507  0.2619
   48POPC   C4B 1009   5.063   5.234   7.015  0.1705  0.3350  0.1300
   49POPC   NC3 1010   2.291   9.654   9.776  0.1241 -0.0262  0.0626
   49POPC   PO4 1011   2.679   9.943   9.676  0.0725 -0.0809 -0.3238
   49POPC   GL1 1012   2.695  10.018   9.219  0.1291 -0.2571  0.0376
   49POPC   GL2 1013   2.613   9.799   8.961  0.0179 -0.0731  0.1035
   49POPC   C1A 1014   2.361  10.254   8.855  0.2678 -0.1242 -0.3579
   49POPC   D2A 1015   1.928  10.319   8.663  0.1030 -0.0877  0.0942
   49POPC   C3A 1016   1.857  10.220   8.253 -0.0762 -0.0604  0.0080
   49POPC   C4A 1017   1.714   9.937   7.923 -0.2185 -0.3630  0.1146
   49POPC   C1B 1018   2.972   9.737   8.768  0.0481  0.0232  0.0728
   49POPC   C2B 1019   3.301   9.750   8.455  0.0294 -0.0434 -0.0556
   49POPC   C3B 1020   3.373   9.747   7.973 -0.1866 -0.1384  0.1985
   49POPC   C4B 1021   3.220   9.651   7.548  0.2069 -0.0862 -0.1468
   50POPC   NC3 1022   1.691   8.844   9.776 -0.0214  0.1363 -0.0366
   50POPC   PO4 1023   1.363   8.568   9.585 -0.0199 -0.1044 -0.0937
   50POPC   GL1 1024   1.541   8.763   9.237  0.0138 -0.2219  0.1370
   50POPC   GL2 1025   1.892   8.916   9.271 -0.1022 -0.0941 -0.0769
   50POPC   C1A 1026   1.600   8.798   8.788  0.1168  0.0032  0.0571
   50POPC   D2A 1027   1.987   8.673   8.534  0.0110 -0.0485 -0.1627
   50POPC   C3A 1028   2.111   8.685   8.079 -0.0509 -0.1261  0.3732
   50POPC   C4A 1029   2.328   8.714   7.657  0.1535  0.3736  0.1758
   50POPC   C1B 1030   2.197   8.711   9.026  0.2009  0.0329  0.2530
   50POPC   C2B 1031   2.453   8.672   8.681  0.1078  0.1305  0.0795
   50POPC   C3B 1032   2.491   8.936   8.231 -0.0349 -0.0081  0.2541
   50POPC   C4B 1033   2.682   9.057   7.900  0.0549  0.0809 -0.3818
   51POPC   NC3 1034   4.607   3.939   8.418 -0.1103  0.0326  0.0814
   51POPC   PO4 1035   5.089   3.999   8.458 -0.0293  0.2812 -0.0268
   51POPC   GL1 1036   5.165   3.722   8.285  0.2109 -0.0236 -0.2701
   51POPC   GL2 1037   5.351   3.868   8.025  0.2525  0.0451 -0.0725
   51POPC   C1A 1038   5.084   3.403   7.936 -0.2386 -0.1452  0.2088
   51POPC   D2A 1039   5.044   3.394   7.507 -0.2147  0.1297 -0.0143
   51POPC   C3A 1040   4.884   3.031   7.189  0.2293 -0.4141 -0.4662
   51POPC   C4A 1041   5.009   2.913   6.845 -0.1442  0.0637  0.2139
   51POPC   C1B 1042   5.227   3.931   7.660  0.0661  0.3489  0.3726
   51POPC   C2B 1043   4.968   3.980   7.290 -0.4177 -0.1337  0.0813
   51POPC   C3B 1044   4.596   3.989   7.055  0.3401  0.3196  0.0470
   51POPC   C4B 1045   4.219   4.276   6.968 -0.2553 -0.0387  0.0435
   52POPC   NC3 1046   9.789   4.411   8.207 -0.1121 -0.1076  0.3152
   52POPC   PO4 1047   9.415   4.640   8.214 -0.0105  0.0570  0.2503
   52POPC   GL1 1048   9.380   4.375   7.797 -0.2039 -0.2150 -0.1730
   52POPC   GL2 1049   9.671   4.321   7.771 -0.1961  0.0283  0.1352
   52POPC   C1A 1050   9.240   4.287   7.426  0.2436  0.2071  0.0538
   52POPC   D2A 1051   9.123   4.123   7.075 -0.2498  0.1904  0.0302
   52POPC   C3A 1052   9.040   3.658   7.055 -0.2941 -0.1681  0.2345
   52POPC   C4A 1053   8.915   3.363   6.684 -0.0523  0.3457 -0.4071
   52POPC   C1B 1054  10.103   4.097   7.625 -0.0633  0.0748 -0.1699
   52POPC   C2B 1055  10.396   4.054   7.307  0.0923 -0.2333  0.0580
   52POPC   C3B 1056  10.688   4.087   6.965 -0.0014 -0.0519 -0.1821
   52POPC   C4B 1057  10.898   4.249   6.696 -0.0192  0.0674 -0.0204
   53POPC   NC3 1058   0.634   7.541   8.793 -0.2797  0.1356 -0.1952
   53POPC   PO4 1059   1.014   7.569   8.836  0.1706  0.4037 -0.0919
   53POPC   GL1 1060   1.273   7.285   8.588  0.0400 -0.2622  0.1802
   53POPC   GL2 1061   1.410   7.556   8.449  0.0232 -0.3335 -0.0649
   53POPC   C1A 1062   1.169   7.127   8.121 -0.0933  0.2700 -0.2088
   53POPC   D2A 1063   1.159   7.164   7.571  0.2964  0.2062  0.0667
   53POPC   C3A 1064   1.002   7.435   7.269  0.0893 -0.1090  0.1576
   53POPC   C4A 1065   0.670   7.376   6.912 -0.0269 -0.1521  0.1623
   53POPC   C1B 1066   1.400   7.546   7.962 -0.1037 -0.3255 -0.0081
   53POPC   C2B 1067   1.433   7.626   7.510 -0.2560  0.2216 -0.4559
   53POPC   C3B 1068   1.318   7.907   7.243 -0.0080  0.1336  0.1566
   53POPC   C4B 1069   1.090   8.175   6.965 -0.0357 -0.2046 -0.4451
   54POPC   NC3 1070   1.195   9.033   9.829 -0.1012 -0.1089 -0.0380
   54POPC   PO4 1071   1.130   9.433   9.581 -0.1657  0.0892  0.2246
   54POPC   GL1 1072   1.331   9.762   9.281 -0.1272  0.1051  0.5363
   54POPC   GL2 1073   1.119  10.008   9.119 -0.2430 -0.2561 -0.1418
   54POPC   C1A 1074   1.642   9.587   8.973  0.2326 -0.2706  0.1088
   54POPC   D2A 1075   1.942   9.211   8.877 -0.0992  0.0183  0.0967
   54POPC   C3A 1076   2.365   9.163   8.846 -0.6026 -0.3320  0.1207
   54POPC   C4A 1077   2.729   9.352   8.521 -0.0209  0.0318  0.1421
   54POPC   C1B 1078   1.418   9.996   8.745  0.0963  0.1152  0.0877
   54POPC   C2B 1079   1.687   9.866   8.554  0.2423 -0.0000 -0.1584
   54POPC   C3B 1080   1.926   9.534   8.284 -0.1370 -0.0542  0.0099
   54POPC   C4B 1081   2.110   9.189   8.397  0.5079 -0.0168 -0.4024
   55POPC   NC3 1082   3.680   1.398   9.086 -0.2412  0.0725 -0.4587
   55POPC   PO4 1083   4.003   1.763   8.845  0.0844  0.3524 -0.3547
   55POPC   GL1 1084   4.002   1.890   8.357 -0.2695 -0.2126 -0.1904
   55POPC   GL2 1085   4.122   1.558   8.197 -0.0005  0.0859 -0.2116
   55POPC   C1A 1086   3.597   1.903   8.081 -0.2084 -0.1135  0.0771
   55POPC   D2A 1087   3.272   2.090   7.795 -0.2278  0.0159  0.1544
   55POPC   C3A 1088   3.145   2.057   7.375 -0.1257 -0.0889 -0.1315
   55POPC   C4A 1089   2.967   2.507   7.221  0.0368  0.0734  0.0454
   55POPC   C1B 1090   3.881   1.565   7.783 -0.3085  0.1301  0.1274
   55POPC   C2B 1091   3.612   1.465   7.296 -0.3768 -0.1420  0.0909
   55POPC   C3B 1092   3.760   1.496   6.919  0.2201 -0.2696 -0.0103
   55POPC   C4B 1093   3.586   1.480   6.523 -0.3626  0.1556  0.0696
   56POPC   NC3 1094   3.228   5.165   8.417  0.1984 -0.1389 -0.1273
   56POPC   PO4 1095   2.810   5.295   8.395  0.1001  0.1109 -0.1194
   56POPC   GL1 1096   2.838   5.128   8.058  0.1972 -0.0228 -0.2489
   56POPC   GL2 1097   2.991   5.303   7.940 -0.0791 -0.1828 -0.1561
   56POPC   C1A 1098   2.722   4.776   7.719  0.1638  0.1302 -0.2892
   56POPC   D2A 1099   2.425   4.485   7.547  0.0438 -0.1008  0.2751
   56POPC   C3A 1100   2.501   4.584   7.053 -0.0476  0.0037 -0.1590
   56POPC   C4A 1101   2.675   4.514   6.658 -0.0851  0.2376  0.1407
   56POPC   C1B 1102   2.798   5.383   7.564  0.2175 -0.0718 -0.0323
   56POPC   C2B 1103   2.643   5.376   7.134  0.2387 -0.0967 -0.1371
   56POPC   C3B 1104   2.510   5.064   6.865  0.0789  0.0530  0.1283
   56POPC   C4B 1105   2.226   4.972   6.514 -0.2397  0.1228  0.2611
   57POPC   NC3 1106   2.873   1.681   9.603 -0.1796 -0.0563  0.0683
   57POPC   PO4 1107   2.763   1.481   9.239 -0.1709  0.1207  0.2066
   57POPC   GL1 1108   2.637   1.408   8.826 -0.1603  0.2023 -0.1359
   57POPC   GL2 1109   2.699   1.681   8.571 -0.1835  0.1430 -0.0379
   57POPC   C1A 1110   2.866   1.209   8.548 -0.2334  0.0111 -0.0159
   57POPC   D2A 1111   3.192   1.058   8.226  0.0975  0.1179  0.1718
   57POPC   C3A 1112   3.054   0.751   7.881 -0.0889 -0.1650  0.2164
   57POPC   C4A 1113   2.703   0.488   7.620  0.2029 -0.1904  0.1340
   57POPC   C1B 1114   2.340   1.733   8.195  0.1129  0.2217 -0.1164
   57POPC   C2B 1115   2.235   1.590   7.829  0.0660 -0.1130 -0.3401
   57POPC   C3B 1116   2.359   1.237   7.672 -0.0683 -0.0666 -0.0057
   57POPC   C4B 1117   2.400   0.946   7.495  0.1236  0.3206 -0.1151
   58POPC   NC3 1118   6.552   8.417   7.834 -0.0952 -0.1766  0.1946
   58POPC   PO4 1119   6.996   8.326   7.775 -0.1867  0.0400 -0.0552
   58POPC   GL1 1120   6.816   8.350   7.298 -0.0581 -0.0982  0.1520
   58POPC   GL2 1121   6.545   8.391   7.323 -0.2258  0.0921  0.0493
   58POPC   C1A 1122   6.965   8.382   6.817  0.0477 -0.1904  0.1624
   58POPC   D2A 1123   7.006   8.044   6.572 -0.1086 -0.1236  0.1718
   58POPC   C3A 1124   7.069   8.098   6.106 -0.0139 -0.3059 -0.0561
   58POPC   C4A 1125   7.076   8.106   5.708  0.0784 -0.0813  0.2316
   58POPC   C1B 1126   6.209   8.271   7.168 -0.0196 -0.0314 -0.1157
   58POPC   C2B 1127   5.987   8.149   6.759  0.4592  0.0717  0.1290
   58POPC   C3B 1128   5.919   8.074   6.332  0.0064  0.1691  0.2968
   58POPC   C4B 1129   5.964   7.813   6.100  0.2440 -0.1104 -0.0170
   59POPC   NC3 1130   1.228   6.188   8.471 -0.2757  0.0036  0.1647
   59POPC   PO4 1131   0.743   6.379   8.533  0.1650 -0.0887  0.1181
   59POPC   GL1 1132   0.841   6.601   8.055 -0.0517 -0.0961 -0.2710
   59POPC   GL2 1133   1.099   6.673   8.027  0.1515 -0.0861  0.0208
   59POPC   C1A 1134   0.842   6.758   7.642  0.0058  0.2513 -0.0864
   59POPC   D2A 1135   0.773   7.007   7.280  0.1149  0.3428  0.1756
   59POPC   C3A 1136   0.531   6.816   7.054  0.0310 -0.0484 -0.3293
   59POPC   C4A 1137   0.170   6.839   6.812 -0.1464  0.2351 -0.2454
   59POPC   C1B 1138   1.351   6.687   7.660  0.2751 -0.0275  0.1358
   59POPC   C2B 1139   1.540   6.792   7.287  0.0893  0.1021  0.1301
   59POPC   C3B 1140   1.725   6.983   6.844 -0.0270  0.1337 -0.1790
   59POPC   C4B 1141   1.902   7.275   6.633 -0.1966 -0.0531 -0.1772
   60POPC   NC3 1142   8.003   2.089   8.766 -0.0279  0.3199 -0.0481
   60POPC   PO4 1143   8.244   2.061   8.381  0.1187  0.1373  0.1506
   60POPC   GL1 1144   8.286   2.051   7.881 -0.0092  0.1594 -0.2486
   60POPC   GL2 1145   8.364   2.362   7.803  0.0019  0.0917 -0.2470
   60POPC   C1A 1146   8.213   2.026   7.462 -0.0897  0.2347  0.2526
   60POPC   D2A 1147   8.209   1.822   7.127 -0.2542 -0.1929 -0.2088
   60POPC   C3A 1148   8.180   1.748   6.689  0.0540  0.2811 -0.2763
   60POPC   C4A 1149   8.230   1.532   6.338 -0.1936 -0.3178  0.1102
   60POPC   C1B 1150   8.365   2.521   7.483 -0.0824 -0.1846  0.1910
   60POPC   C2B 1151   8.412   2.336   7.105  0.1702  0.4693  0.3823
   60POPC   C3B 1152   8.314   2.237   6.766 -0.1510 -0.0159 -0.3929
   60POPC   C4B 1153   8.462   2.030   6.413  0.2028  0.1046  0.0571
   61POPC   NC3 1154   9.014   8.312   8.453  0.0338  0.0801  0.2338
   61POPC   PO4 1155   9.420   8.107   8.610 -0.0089  0.2516  0.2098
   61POPC   GL1 1156   9.504   8.068   8.135  0.1505 -0.0124 -0.0928
   61POPC   GL2 1157   9.302   8.286   8.021 -0.0995  0.1328 -0.0538
   61POPC   C1A 1158   9.672   7.836   7.785  0.0044 -0.0393 -0.4240
   61POPC   D2A 1159   9.392   7.778   7.415 -0.2505  0.0170 -0.1185
   61POPC   C3A 1160   9.536   7.831   7.033  0.0976 -0.0899  0.1461
   61POPC   C4A 1161   9.707   8.068   6.643  0.3408 -0.0925 -0.3165
   61POPC   C1B 1162   9.416   8.269   7.608 -0.1564  0.5382  0.1771
   61POPC   C2B 1163   9.124   8.064   7.180 -0.3273  0.1949 -0.0011
   61POPC   C3B 1164   9.113   7.948   6.736 -0.3866  0.1095  0.0245
   61POPC   C4B 1165   9.363   7.854   6.414 -0.0664  0.1297  0.0185
   62POPC   NC3 1166   7.336   1.393   8.489  0.1253  0.1514  0.5716
   62POPC   PO4 1167   7.269   1.845   8.287  0.0257  0.0866 -0.1609
   62POPC   GL1 1168   7.259   1.817   7.848 -0.0346  0.1849  0.4693
   62POPC   GL2 1169   7.069   1.464   7.694 -0.0403 -0.0667  0.0667
   62POPC   C1A 1170   7.381   1.979   7.425  0.1816  0.1957 -0.1484
   62POPC   D2A 1171   7.215   2.182   7.019 -0.0401 -0.0672 -0.0600
   62POPC   C3A 1172   7.163   2.514   6.800 -0.1966 -0.1584 -0.0588
   62POPC   C4A 1173   6.999   2.857   6.531  0.0404 -0.1069 -0.1115
   62POPC   C1B 1174   6.851   1.345   7.359  0.3376 -0.1178  0.1098
   62POPC   C2B 1175   6.497   1.270   7.056 -0.2802 -0.1760 -0.2821
   62POPC   C3B 1176   6.555   1.273   6.606 -0.0096  0.2844 -0.1428
   62POPC   C4B 1177   6.675   1.308   6.197  0.1181  0.1007  0.0908
   63POPC   NC3 1178   7.796   8.059   7.981  0.0061 -0.1685 -0.2783
   63POPC   PO4 1179   7.994   8.388   8.051  0.0580 -0.2413 -0.0233
   63POPC   GL1 1180   8.284   8.413   7.735  0.2527 -0.0899  0.2235
   63POPC   GL2 1181   8.008   8.312   7.485  0.0348  0.0841 -0.1548
   63POPC   C1A 1182   8.367   8.704   7.350 -0.1953 -0.2063 -0.2317
   63POPC   D2A 1183   8.361   8.982   7.140 -0.0592 -0.1538 -0.1237
   63POPC   C3A 1184   8.537   9.386   7.338 -0.0273 -0.2453 -0.0405
   63POPC   C4A 1185   8.749   9.467   7.700 -0.0117  0.3883  0.0327
   63POPC   C1B 1186   8.251   8.137   7.099 -0.2117 -0.0629  0.1501
   63POPC   C2B 1187   8.506   8.349   6.744  0.0348 -0.2477  0.0547
   63POPC   C3B 1188   8.684   8.474   6.445  0.1025  0.3122 -0.0034
   63POPC   C4B 1189   8.599   8.832   6.197 -0.2751 -0.3126 -0.0247
   64POPC   NC3 1190   5.185   4.499   8.323  0.1856  0.0965 -0.0965
   64POPC   PO4 1191   4.817   4.462   8.600  0.1890  0.1338 -0.0491
   64POPC   GL1 1192   4.769   4.390   8.122 -0.0980  0.0017 -0.1660
   64POPC   GL2 1193   4.851   4.050   8.008  0.2293 -0.3394  0.2658
   64POPC   C1A 1194   4.953   4.558   7.689  0.0277  0.2051  0.2747
   64POPC   D2A 1195   4.848   4.902   7.387 -0.1007 -0.2152  0.4139
   64POPC   C3A 1196   4.643   4.908   6.917  0.0172 -0.0885  0.0104
   64POPC   C4A 1197   4.284   5.210   6.782  0.0966 -0.0750  0.2625
   64POPC   C1B 1198   4.753   3.771   7.734  0.3489  0.0199 -0.0362
   64POPC   C2B 1199   4.582   3.443   7.719 -0.0352  0.0248  0.1764
   64POPC   C3B 1200   4.835   3.052   7.747  0.0693  0.2801  0.0531
   64POPC   C4B 1201   5.119   2.787   7.894  0.2664 -0.0946  0.3214
   65POPC   NC3 1202   0.717   4.851   8.527  0.1426 -0.0584 -0.1705
   65POPC   PO4 1203   0.376   4.733   8.632  0.0117 -0.1308  0.1681
   65POPC   GL1 1204   0.413   4.970   8.157  0.1258  0.4801  0.0640
   65POPC   GL2 1205   0.382   4.809   7.934  0.1743  0.3264  0.0079
   65POPC   C1A 1206   0.316   5.251   7.731 -0.0491 -0.1388 -0.0264
   65POPC   D2A 1207   0.232   5.106   7.273 -0.1464  0.2714 -0.1049
   65POPC   C3A 1208   0.503   4.839   7.075 -0.1222  0.0840  0.2646
   65POPC   C4A 1209   0.686   4.475   7.217 -0.2749 -0.1765  0.1748
   65POPC   C1B 1210   0.680   4.880   7.672 -0.0967 -0.2446  0.0842
   65POPC   C2B 1211   0.815   5.227   7.419 -0.0855  0.1555 -0.1575
   65POPC   C3B 1212   0.758   5.211   6.954  0.1873 -0.2584  0.3122
   65POPC   C4B 1213   0.915   5.543   6.715 -0.0239 -0.0115 -0.4226
   66POPC   NC3 1214   1.127   6.882   9.256 -0.3190  0.1063  0.0434
   66POPC   PO4 1215   1.457   6.834   8.894 -0.2128  0.1220 -0.1050
   66POPC   GL1 1216   1.548   6.570   8.524 -0.0103  0.5110 -0.3835
   66POPC   GL2 1217   1.563   6.879   8.316  0.2222  0.1758 -0.1450
   66POPC   C1A 1218   1.623   6.480   8.014 -0.0030  0.1510  0.1613
   66POPC   D2A 1219   1.585   6.255   7.550  0.0646  0.0742 -0.2241
   66POPC   C3A 1220   1.491   6.245   7.123 -0.0176  0.0361  0.2562
   66POPC   C4A 1221   1.348   6.610   6.767  0.1053  0.1699 -0.0771
   66POPC   C1B 1222   1.601   7.082   7.851 -0.1484 -0.0703  0.4474
   66POPC   C2B 1223   1.728   7.255   7.467  0.0985  0.1177  0.1054
   66POPC   C3B 1224   1.429   7.397   7.044 -0.0737 -0.0382  0.1760
   66POPC   C4B 1225   1.156   7.654   6.767  0.2815 -0.0924 -0.0677
   67POPC   NC3 1226   4.401   7.887   8.355 -0.3016 -0.0829 -0.1127
   67POPC   PO4 1227   4.874   7.956   8.232  0.2059 -0.0464 -0.2292
   67POPC   GL1 1228   4.828   8.244   8.044 -0.0598  0.0400  0.0598
   67POPC   GL2 1229   4.556   8.350   8.027 -0.1477  0.1862 -0.0013
   67POPC   C1A 1230   4.748   8.252   7.545 -0.0605  0.1456  0.1794
   67POPC   D2A 1231   4.391   8.278   7.295 -0.0326  0.1263  0.0912
   67POPC   C3A 1232   4.296   8.293   6.917  0.0194 -0.1672  0.3436
   67POPC   C4A 1233   4.708   8.340   6.632  0.1122  0.0619 -0.0528
   67POPC   C1B 1234   4.279   8.158   7.722 -0.1447 -0.2932 -0.0446
   67POPC   C2B 1235   4.105   7.802   7.454  0.0611 -0.0234  0.0191
   67POPC   C3B 1236   4.019   7.779   6.997  0.1928 -0.2764  0.1644
   67POPC   C4B 1237   3.789   7.525   6.702 -0.0099 -0.0753 -0.0393
   68POPC   NC3 1238   4.805   7.498   8.466 -0.0621 -0.3310 -0.2629
   68POPC   PO4 1239   4.289   7.481   8.690  0.1419 -0.4382 -0.1026
   68POPC   GL1 1240   4.128   7.383   8.274  0.3479  0.2408  0.2523
   68POPC   GL2 1241   3.956   7.105   8.168 -0.0885  0.2513 -0.1529
   68POPC   C1A 1242   4.144   7.354   7.811  0.5175  0.2227  0.0904
   68POPC   D2A 1243   4.127   7.174   7.448 -0.2223  0.4462  0.0238
   68POPC   C3A 1244   3.851   7.357   7.246  0.1466 -0.0407  0.1111
   68POPC   C4A 1245   3.488   7.362   7.046  0.0624  0.2100  0.1114
   68POPC   C1B 1246   3.584   7.018   7.901  0.5244  0.0039  0.0768
   68POPC   C2B 1247   3.648   6.947   7.416  0.1085  0.0089  0.0037
   68POPC   C3B 1248   3.356   6.823   7.094 -0.1510 -0.4088 -0.0694
   68POPC   C4B 1249   3.192   6.484   6.785 -0.0439 -0.1825  0.1159
   69POPC   NC3 1250   7.326   3.634   8.428  0.3548 -0.2836 -0.0072
   69POPC   PO4 1251   7.716   3.847   8.436 -0.0427  0.0336 -0.0072
   69POPC   GL1 1252   7.716   3.920   8.028 -0.0356  0.0104  0.4195
   69POPC   GL2 1253   7.401   3.814   7.987  0.1769 -0.1445  0.1870
   69POPC   C1A 1254   7.828   3.966   7.629 -0.0982  0.3415  0.3084
   69POPC   D2A 1255   7.845   4.041   7.132  0.1872 -0.1362  0.0990
   69POPC   C3A 1256   7.950   3.822   6.758  0.0994 -0.2629  0.1243
   69POPC   C4A 1257   7.790   3.431   6.525  0.4558  0.3337 -0.0173
   69POPC   C1B 1258   7.343   4.061   7.620 -0.0977  0.0925  0.3326
   69POPC   C2B 1259   7.363   4.083   7.152  0.4144 -0.0211 -0.1254
   69POPC   C3B 1260   7.012   4.233   6.772 -0.0676  0.3373  0.1135
   69POPC   C4B 1261   6.593   4.388   6.674 -0.1264  0.2115 -0.2755
   70POPC   NC3 1262   5.222   0.987   8.688 -0.4659  0.0858  0.0650
   70POPC   PO4 1263   4.806   0.826   8.493  0.0026 -0.1373  0.2507
   70POPC   GL1 1264   4.802   0.776   8.028 -0.2293 -0.0261  0.1037
   70POPC   GL2 1265   4.873   0.991   7.906 -0.2523  0.1827  0.1626
   70POPC   C1A 1266   4.505   0.667   7.657  0.2296  0.0350  0.0875
   70POPC   D2A 1267   4.294   0.803   7.354 -0.2058  0.0207 -0.1415
   70POPC   C3A 1268   4.392   0.786   6.944 -0.0869 -0.1467  0.0206
   70POPC   C4A 1269   4.155   0.611   6.667  0.2522 -0.1786  0.2068
   70POPC   C1B 1270   4.923   0.824   7.515  0.0337  0.0304 -0.0830
   70POPC   C2B 1271   4.812   0.681   7.182  0.3317  0.0250 -0.2297
   70POPC   C3B 1272   4.881   0.583   6.743  0.0216 -0.2803 -0.1743
   70POPC   C4B 1273   4.704   0.481   6.472  0.1082  0.3698 -0.5309
   71POPC   NC3 1274   8.003   0.660   8.792 -0.1187  0.0751  0.0920
   71POPC   PO4 1275   8.162   0.764   8.406 -0.1760 -0.0748  0.1587
   71POPC   GL1 1276   8.185   0.703   7.981  0.1111  0.1766  0.0296
   71POPC   GL2 1277   8.428   1.012   7.939 -0.0542 -0.2937  0.1381
   71POPC   C1A 1278   8.429   0.527   7.662 -0.1948 -0.0716  0.0543
   71POPC   D2A 1279   8.308   0.303   7.382  0.0041  0.0011  0.2516
   71POPC   C3A 1280   8.489   0.336   6.922  0.0139 -0.0108 -0.1826
   71POPC   C4A 1281   8.679   0.597   6.543 -0.1882  0.0815  0.2970
   71POPC   C1B 1282   8.315   0.954   7.481 -0.0304  0.0729 -0.0862
   71POPC   C2B 1283   8.247   0.759   7.177 -0.3772 -0.0097  0.0575
   71POPC   C3B 1284   8.181   0.627   6.680  0.0710 -0.2473  0.2708
   71POPC   C4B 1285   7.839   0.518   6.496 -0.0095 -0.2008  0.1183
   72POPC   NC3 1286   2.474   7.860   9.239  0.0277  0.1683  0.1184
   72POPC   PO4 1287   2.033   7.904   9.196 -0.0615 -0.0992  0.0244
   72POPC   GL1 1288   1.991   8.236   8.876 -0.0818  0.4509  0.0058
   72POPC   GL2 1289   1.762   8.107   8.711  0.2872  0.0186 -0.1436
   72POPC   C1A 1290   2.046   8.216   8.362 -0.2059 -0.0287 -0.0721
   72POPC   D2A 1291   2.079   8.058   7.916  0.1306  0.2545 -0.1484
   72POPC   C3A 1292   2.284   8.180   7.596  0.2423 -0.0483 -0.1524
   72POPC   C4A 1293   2.562   7.990   7.477 -0.2633  0.0821  0.1155
   72POPC   C1B 1294   1.536   8.018   8.281 -0.0436 -0.0406 -0.0356
   72POPC   C2B 1295   1.400   8.132   7.861 -0.1848 -0.0703 -0.2316
   72POPC   C3B 1296   1.419   8.352   7.390  0.0417 -0.0416  0.1376
   72POPC   C4B 1297   1.647   8.188   6.998  0.0566 -0.2224 -0.1994
   73POPC   NC3 1298   3.234   8.634   9.423 -0.0834  0.2402 -0.1393
   73POPC   PO4 1299   3.193   9.052   9.521  0.2161 -0.2960  0.2039
   73POPC   GL1 1300   3.269   9.019   9.063 -0.2483 -0.1931  0.0604
   73POPC   GL2 1301   3.291   9.367   9.095 -0.0139  0.2300  0.1381
   73POPC   C1A 1302   2.903   8.941   8.741  0.1510  0.2363 -0.1963
   73POPC   D2A 1303   2.935   8.907   8.375 -0.0897 -0.0162  0.0991
   73POPC   C3A 1304   3.133   8.803   8.034 -0.0529 -0.1143 -0.1830
   73POPC   C4A 1305   2.986   8.436   7.744 -0.0287 -0.2561 -0.0049
   73POPC   C1B 1306   3.287   9.304   8.668 -0.2166 -0.0581 -0.4382
   73POPC   C2B 1307   3.298   9.262   8.189 -0.3821 -0.0095  0.0823
   73POPC   C3B 1308   3.259   9.168   7.760 -0.0837 -0.1182 -0.1575
   73POPC   C4B 1309   3.217   9.138   7.393  0.0124  0.2636 -0.0130
   74POPC   NC3 1310   8.948   9.441   8.990  0.1717 -0.1378  0.0679
   74POPC   PO4 1311   8.905   9.151   8.553 -0.0831  0.1275  0.1563
   74POPC   GL1 1312   8.879   8.875   8.251  0.1673  0.0278  0.2704
   74POPC   GL2 1313   9.101   8.761   8.195 -0.2045  0.0454  0.1517
   74POPC   C1A 1314   8.850   8.906   7.790 -0.0370 -0.0558  0.5861
   74POPC   D2A 1315   8.843   8.909   7.347  0.1957 -0.0414 -0.1523
   74POPC   C3A 1316   8.880   8.606   7.029 -0.1111 -0.2707  0.1086
   74POPC   C4A 1317   9.190   8.426   6.702  0.0268  0.0312 -0.0577
   74POPC   C1B 1318   9.388   8.725   7.869 -0.3049  0.3927  0.2781
   74POPC   C2B 1319   9.742   8.984   7.850  0.3016  0.1563 -0.3043
   74POPC   C3B 1320  10.163   9.021   7.683 -0.3236 -0.1011  0.1277
   74POPC   C4B 1321  10.565   9.215   7.495 -0.1212  0.2092 -0.3825
   75POPC   NC3 1322   6.452   7.223   8.057 -0.0642 -0.1547 -0.0149
   75POPC   PO4 1323   6.470   6.773   8.114  0.2400 -0.3104 -0.1266
   75POPC   GL1 1324   6.269   6.758   7.712 -0.1149 -0.0421 -0.1503
   75POPC   GL2 1325   6.304   6.456   7.613  0.2267  0.3093 -0.0131
   75POPC   C1A 1326   6.596   6.844   7.315  0.6136  0.1553 -0.3909
   75POPC   D2A 1327   7.055   6.872   7.297 -0.0806  0.1390 -0.0260
   75POPC   C3A 1328   7.292   6.494   7.214  0.1622  0.0502 -0.0930
   75POPC   C4A 1329   7.296   6.352   6.681  0.0195  0.1291  0.0365
   75POPC   C1B 1330   6.125   6.781   7.292  0.1479  0.2730  0.2553
   75POPC   C2B 1331   6.037   7.209   7.074  0.4233  0.0760 -0.0708
   75POPC   C3B 1332   6.370   7.365   6.851  0.0075  0.0571  0.3433
   75POPC   C4B 1333   6.742   7.617   6.654 -0.0563  0.1983  0.2306
   76POPC   NC3 1334   4.107   8.565   8.636 -0.0854 -0.0380 -0.2627
   76POPC   PO4 1335   4.084   8.268   8.313 -0.2180  0.0398  0.3853
   76POPC   GL1 1336   3.883   8.558   8.046  0.2377 -0.2238  0.0461
   76POPC   GL2 1337   3.674   8.489   7.907  0.0887 -0.1682 -0.1355
   76POPC   C1A 1338   3.893   8.784   7.593  0.2487  0.0059 -0.1062
   76POPC   D2A 1339   4.076   8.724   7.127 -0.3436  0.0253 -0.1132
   76POPC   C3A 1340   3.893   9.018   6.821 -0.2940  0.0120 -0.0044
   76POPC   C4A 1341   3.490   9.199   6.927 -0.0885  0.0904 -0.1855
   76POPC   C1B 1342   3.472   8.644   7.496  0.1120 -0.1454 -0.0403
   76POPC   C2B 1343   3.484   8.686   7.031 -0.1354  0.0400  0.0352
   76POPC   C3B 1344   3.571   8.691   6.542  0.3472  0.0228  0.2285
   76POPC   C4B 1345   3.740   8.610   6.116  0.2361  0.1689 -0.1131
   77POPC   NC3 1346   5.921   7.885   8.087  0.2244  0.1139  0.0797
   77POPC   PO4 1347   6.249   7.591   7.848 -0.1619 -0.1317  0.0991
   77POPC   GL1 1348   6.066   7.663   7.491  0.0012 -0.0808 -0.0512
   77POPC   GL2 1349   6.299   7.805   7.343 -0.4504 -0.0227 -0.1581
   77POPC   C1A 1350   5.916   7.788   7.065  0.2205  0.1185 -0.1630
   77POPC   D2A 1351   5.842   7.633   6.665 -0.2420 -0.1755 -0.2296
   77POPC   C3A 1352   6.138   7.493   6.392  0.1696  0.1893  0.1760
   77POPC   C4A 1353   5.943   7.310   5.975  0.1428 -0.1027  0.0387
   77POPC   C1B 1354   6.662   7.481   7.214  0.0107 -0.0316  0.1154
   77POPC   C2B 1355   6.876   7.230   6.983 -0.0376  0.1678 -0.3801
   77POPC   C3B 1356   7.176   7.308   6.653  0.1134 -0.2996 -0.2744
   77POPC   C4B 1357   7.282   7.688   6.296  0.0956  0.3714 -0.0681
   78POPC   NC3 1358   0.627   8.366   9.150 -0.0786 -0.1335  0.0915
   78POPC   PO4 1359   0.450   8.097   8.799  0.2922  0.2230 -0.0615
   78POPC   GL1 1360   0.761   8.019   8.512 -0.1444  0.1266 -0.1537
   78POPC   GL2 1361   0.837   7.754   8.419 -0.2152  0.2335  0.2736
   78POPC   C1A 1362   1.016   8.201   8.230 -0.2292  0.3585 -0.2767
   78POPC   D2A 1363   1.078   8.534   8.085 -0.1011  0.2660  0.0206
   78POPC   C3A 1364   1.013   8.458   7.640 -0.3022  0.0315  0.1134
   78POPC   C4A 1365   0.817   8.333   7.361 -0.0076 -0.2747  0.0571
   78POPC   C1B 1366   0.921   7.732   8.013  0.1486 -0.0235  0.3035
   78POPC   C2B 1367   0.942   7.873   7.666 -0.2011 -0.0803  0.3798
   78POPC   C3B 1368   0.733   7.872   7.307 -0.2434 -0.0605 -0.1933
   78POPC   C4B 1369   0.698   7.916   6.911 -0.0245 -0.2556  0.0276
   79POPC   NC3 1370   9.899   9.856   8.783 -0.1066  0.1622  0.4317
   79POPC   PO4 1371   9.621   9.835   8.482  0.3010 -0.6238  0.2430
   79POPC   GL1 1372   9.588   9.623   8.110 -0.0163  0.1028  0.2123
   79POPC   GL2 1373   9.874   9.449   7.980 -0.1142  0.3845  0.2160
   79POPC   C1A 1374   9.292   9.288   7.922  0.0387  0.0173  0.2579
   79POPC   D2A 1375   9.223   9.148   7.528  0.1139  0.1580  0.0966
   79POPC   C3A 1376   9.509   8.746   7.349 -0.1180 -0.0603 -0.0143
   79POPC   C4A 1377   9.549   8.413   7.019 -0.0382  0.0982 -0.0558
   79POPC   C1B 1378   9.636   9.439   7.584 -0.2044  0.0304 -0.0840
   79POPC   C2B 1379   9.528   9.368   7.171 -0.2169 -0.2421 -0.0986
   79POPC   C3B 1380   9.374   9.524   6.839  0.0740 -0.0379  0.2307
   79POPC   C4B 1381   9.099   9.504   6.523 -0.1601 -0.1449  0.2186
   80POPC   NC3 1382   7.235   2.341   8.369  0.0919  0.0746  0.0319
   80POPC   PO4 1383   7.492   2.776   8.187  0.0445  0.0855  0.1117
   80POPC   GL1 1384   7.589   2.844   7.670  0.0135  0.1742 -0.1625
   80POPC   GL2 1385   7.887   2.749   7.545 -0.0925  0.3133 -0.1156
   80POPC   C1A 1386   7.761   3.146   7.348  0.1423 -0.0857 -0.1131
   80POPC   D2A 1387   7.556   3.642   7.333 -0.2690  0.0879 -0.1337
   80POPC   C3A 1388   7.560   3.564   6.946  0.0541  0.4063  0.2096
   80POPC   C4A 1389   7.226   3.534   6.672  0.0273  0.3636  0.3003
   80POPC   C1B 1390   7.778   2.280   7.420 -0.2201  0.0882 -0.0133
   80POPC   C2B 1391   7.835   2.040   6.952 -0.1454  0.2375 -0.1770
   80POPC   C3B 1392   7.541   1.879   6.673  0.1909 -0.3212 -0.1158
   80POPC   C4B 1393   7.410   1.897   6.245  0.0064  0.1920  0.0216
   81POPC   NC3 1394   5.649   8.740   8.050 -0.3071  0.0884  0.0948
   81POPC   PO4 1395   5.253   8.545   8.024 -0.0253  0.2642  0.0215
   81POPC   GL1 1396   5.221   8.218   7.673 -0.1752  0.0865  0.0691
   81POPC   GL2 1397   5.040   7.873   7.773  0.1680  0.0728  0.1463
   81POPC   C1A 1398   5.327   8.077   7.198  0.1291  0.1514  0.1602
   81POPC   D2A 1399   5.487   7.824   6.908 -0.1371 -0.1893 -0.1110
   81POPC   C3A 1400   5.324   7.860   6.463  0.0732 -0.0184  0.2116
   81POPC   C4A 1401   5.473   8.029   6.103  0.0431  0.0724  0.0760
   81POPC   C1B 1402   4.764   7.591   7.484  0.2736  0.0247 -0.0456
   81POPC   C2B 1403   4.444   7.492   7.186  0.0308 -0.0990  0.2297
   81POPC   C3B 1404   4.154   7.255   6.902  0.1035 -0.2058 -0.1340
   81POPC   C4B 1405   4.173   7.079   6.491 -0.0203  0.3005 -0.5004
   82POPC   NC3 1406   4.843   8.690   8.292 -0.1454  0.0831 -0.1049
   82POPC   PO4 1407   4.468   8.871   8.545  0.3126 -0.1505 -0.0479
   82POPC   GL1 1408   4.415   8.859   8.064 -0.2246 -0.0367  0.1100
   82POPC   GL2 1409   4.640   9.070   7.965 -0.2593 -0.3252 -0.1232
   82POPC   C1A 1410   4.393   8.761   7.571 -0.0057 -0.2235 -0.2034
   82POPC   D2A 1411   4.597   8.765   7.151 -0.0492 -0.1326  0.0215
   82POPC   C3A 1412   4.438   8.751   6.745 -0.2012 -0.1916  0.1477
   82POPC   C4A 1413   4.302   8.525   6.358 -0.1677  0.1769  0.2111
   82POPC   C1B 1414   4.657   9.222   7.571  0.2839 -0.2044  0.0713
   82POPC   C2B 1415   4.297   9.177   7.324 -0.3739  0.0308  0.1813
   82POPC   C3B 1416   4.313   9.274   6.871 -0.1025  0.2266 -0.0756
   82POPC   C4B 1417   4.228   9.183   6.440 -0.3240 -0.2904  0.1846
   83POPC   NC3 1418   3.622   6.788   8.714  0.3654  0.1043 -0.0016
   83POPC   PO4 1419   3.560   6.316   8.631 -0.1392 -0.1366 -0.3131
   83POPC   GL1 1420   3.504   6.534   8.260 -0.2999 -0.2620  0.2882
   83POPC   GL2 1421   3.739   6.635   8.207  0.0607  0.1688 -0.1061
   83POPC   C1A 1422   3.186   6.698   7.971  0.0677  0.0643 -0.0327
   83POPC   D2A 1423   3.016   6.890   7.719 -0.1243  0.2406 -0.0198
   83POPC   C3A 1424   2.877   6.611   7.289  0.3351  0.3491 -0.0141
   83POPC   C4A 1425   2.704   6.623   6.912  0.1287  0.1386  0.0770
   83POPC   C1B 1426   3.798   6.288   7.906 -0.0310 -0.2796  0.1745
   83POPC   C2B 1427   3.910   6.177   7.458  0.1335 -0.2609  0.1113
   83POPC   C3B 1428   4.089   6.294   7.004  0.0494  0.2341  0.0045
   83POPC   C4B 1429   4.044   6.107   6.662 -0.1862  0.5970 -0.3209
   84POPC   NC3 1430   3.981   1.208   8.566  0.1534  0.2552  0.0217
   84POPC   PO4 1431   3.608   1.326   8.521 -0.1393 -0.1076  0.0118
   84POPC   GL1 1432   3.661   1.290   8.083  0.2035 -0.0519 -0.2010
   84POPC   GL2 1433   3.867   1.052   8.120  0.3380  0.0600  0.0882
   84POPC   C1A 1434   3.486   0.962   7.820  0.0018 -0.0956  0.2148
   84POPC   D2A 1435   3.421   1.040   7.363 -0.2154  0.1474 -0.0153
   84POPC   C3A 1436   3.500   0.887   7.074  0.1218  0.2444  0.0795
   84POPC   C4A 1437   3.506   0.972   6.611 -0.1434 -0.1486  0.1110
   84POPC   C1B 1438   3.639   0.658   8.174 -0.1176  0.1643  0.2769
   84POPC   C2B 1439   3.382   0.350   7.972  0.1785 -0.0728 -0.1082
   84POPC   C3B 1440   3.202   0.226   7.697 -0.1558  0.2243  0.0178
   84POPC   C4B 1441   2.979   0.061   7.331  0.1057  0.3524 -0.3620
   85POPC   NC3 1442   7.135   8.262   8.321 -0.2840  0.0366 -0.1592
   85POPC   PO4 1443   7.537   8.544   8.186  0.0777 -0.0038  0.1888
   85POPC   GL1 1444   7.606   8.647   7.761 -0.2422  0.0841 -0.1987
   85POPC   GL2 1445   7.486   8.299   7.639 -0.0652  0.0999  0.1299
   85POPC   C1A 1446   7.684   8.705   7.343 -0.3334  0.1621  0.0415
   85POPC   D2A 1447   7.950   8.555   7.087  0.1645  0.0770  0.3082
   85POPC   C3A 1448   8.143   8.806   6.702  0.2394  0.1419 -0.0005
   85POPC   C4A 1449   8.555   8.858   6.710  0.2425 -0.1458  0.0734
   85POPC   C1B 1450   7.428   8.202   7.196 -0.3868  0.0092  0.0969
   85POPC   C2B 1451   7.533   8.099   6.717 -0.0425  0.0588 -0.0288
   85POPC   C3B 1452   7.966   8.254   6.681 -0.1856  0.0436 -0.2210
   85POPC   C4B 1453   8.247   8.202   6.392  0.1794  0.0234  0.1064
   86POPC   NC3 1454   2.850   4.796   8.426 -0.0533 -0.1962 -0.0296
   86POPC   PO4 1455   3.235   4.586   8.513  0.1677 -0.1507  0.0778
   86POPC   GL1 1456   3.350   4.777   8.074  0.0811  0.0350  0.1935
   86POPC   GL2 1457   3.708   4.642   8.115 -0.0823 -0.3720  0.1299
   86POPC   C1A 1458   3.209   4.821   7.720 -0.2361 -0.0836 -0.0095
   86POPC   D2A 1459   3.401   4.889   7.242 -0.0081  0.1283 -0.0363
   86POPC   C3A 1460   3.630   4.506   7.120  0.0827  0.2509 -0.1816
   86POPC   C4A 1461   3.766   4.355   6.749  0.0826 -0.0031  0.3808
   86POPC   C1B 1462   3.692   4.886   7.700  0.0166 -0.0683  0.1609
   86POPC   C2B 1463   3.914   4.949   7.330 -0.0010 -0.1851 -0.3216
   86POPC   C3B 1464   3.763   5.033   6.818 -0.1690  0.0946 -0.3359
   86POPC   C4B 1465   3.507   4.824   6.693  0.0362  0.1852  0.1171
   87POPC   NC3 1466   5.824   2.048   9.013 -0.1705  0.0750 -0.2871
   87POPC   PO4 1467   6.023   1.871   8.533  0.1099 -0.0866  0.0095
   87POPC   GL1 1468   5.855   1.799   8.076  0.0677  0.3063 -0.0689
   87POPC   GL2 1469   6.019   1.674   7.827  0.2339 -0.1903  0.5007
   87POPC   C1A 1470   5.726   2.101   7.827  0.0415  0.1710  0.1421
   87POPC   D2A 1471   5.893   2.177   7.465 -0.1475  0.1765 -0.0431
   87POPC   C3A 1472   5.705   2.306   7.098 -0.0219 -0.2187 -0.0736
   87POPC   C4A 1473   5.439   2.545   6.871  0.1420 -0.1734 -0.3177
   87POPC   C1B 1474   6.249   1.646   7.399  0.0467  0.2989  0.1286
   87POPC   C2B 1475   6.384   2.074   7.234  0.0880  0.3000 -0.0594
   87POPC   C3B 1476   6.184   2.516   7.183 -0.1433  0.1420  0.1701
   87POPC   C4B 1477   5.821   2.826   7.172 -0.1086  0.1082 -0.1578
   88POPC   NC3 1478   4.887   2.046   8.831 -0.1722  0.0296 -0.2386
   88POPC   PO4 1479   5.084   1.827   8.414  0.3395 -0.2642  0.0134
   88POPC   GL1 1480   4.893   1.874   7.980  0.1527  0.2321 -0.2686
   88POPC   GL2 1481   4.707   1.601   7.925  0.1060 -0.2071 -0.1709
   88POPC   C1A 1482   5.024   1.709   7.580 -0.1453  0.2229 -0.0412
   88POPC   D2A 1483   4.874   1.807   7.188 -0.1402 -0.1082 -0.0322
   88POPC   C3A 1484   4.704   1.855   6.789 -0.3063  0.2804  0.0923
   88POPC   C4A 1485   4.396   2.189   6.597  0.0964  0.0758 -0.0570
   88POPC   C1B 1486   4.654   1.318   7.562  0.1505 -0.0027  0.0125
   88POPC   C2B 1487   4.709   1.171   7.131 -0.1399 -0.1203  0.3753
   88POPC   C3B 1488   4.702   1.022   6.650 -0.3225  0.2290 -0.0749
   88POPC   C4B 1489   4.348   0.953   6.324 -0.0526  0.2854  0.2748
   89POPC   NC3 1490   8.843   9.747   8.525 -0.0134 -0.1117 -0.3680
   89POPC   PO4 1491   8.733  10.100   8.878 -0.3709 -0.2139 -0.3372
   89POPC   GL1 1492   8.917  10.210   8.385  0.1633  0.0439  0.2417
   89POPC   GL2 1493   9.153  10.002   8.263 -0.0540  0.1321 -0.0561
   89POPC   C1A 1494   8.949  10.281   7.965  0.2129 -0.1547 -0.2687
   89POPC   D2A 1495   9.069  10.249   7.575 -0.0079 -0.0321 -0.1121
   89POPC   C3A 1496   9.267  10.532   7.389 -0.3836  0.0266  0.0842
   89POPC   C4A 1497   9.353  10.840   7.061  0.4013  0.1659 -0.1403
   89POPC   C1B 1498   9.048   9.837   7.845 -0.3770  0.2959 -0.1445
   89POPC   C2B 1499   9.316   9.829   7.552 -0.2288 -0.3031  0.3056
   89POPC   C3B 1500   9.245  10.017   7.108 -0.0599 -0.0185  0.1061
   89POPC   C4B 1501   9.221  10.154   6.543  0.4555 -0.3676  0.1279
   90POPC   NC3 1502   5.390   7.969   8.141  0.2468 -0.0478  0.0355
   90POPC   PO4 1503   5.676   8.285   7.846 -0.2121  0.0382 -0.1433
   90POPC   GL1 1504   5.744   8.406   7.467 -0.1365  0.1501 -0.0108
   90POPC   GL2 1505   5.519   8.670   7.557 -0.2407  0.0347  0.1093
   90POPC   C1A 1506   5.769   8.579   6.990 -0.1646 -0.2080 -0.0324
   90POPC   D2A 1507   5.850   8.757   6.618 -0.0929  0.2270 -0.1529
   90POPC   C3A 1508   6.097   8.713   6.324  0.0716 -0.4099 -0.0094
   90POPC   C4A 1509   6.301   8.431   6.183 -0.0856 -0.3401 -0.0649
   90POPC   C1B 1510   5.328   8.582   7.245  0.3924  0.2724  0.1279
   90POPC   C2B 1511   4.910   8.372   7.080  0.2120  0.1555 -0.1585
   90POPC   C3B 1512   4.642   7.946   7.038 -0.1018  0.4087  0.3595
   90POPC   C4B 1513   4.387   7.902   6.712  0.1005  0.1848  0.0869
   91POPC   NC3 1514   4.818   5.564   8.136 -0.1213 -0.1631  0.1966
   91POPC   PO4 1515   5.033   5.128   8.183  0.1668 -0.1419  0.0761
   91POPC   GL1 1516   5.249   4.955   7.773  0.1635 -0.4717  0.0114
   91POPC   GL2 1517   5.398   5.267   7.474 -0.2709  0.1840 -0.1234
   91POPC   C1A 1518   5.317   4.710   7.377  0.1365 -0.0049 -0.0224
   91POPC   D2A 1519   5.323   4.614   6.919  0.0603 -0.0059 -0.2514
   91POPC   C3A 1520   5.221   4.870   6.695  0.1175 -0.0799  0.0579
   91POPC   C4A 1521   5.135   4.828   6.248  0.1515  0.0772 -0.2507
   91POPC   C1B 1522   5.159   5.644   7.279  0.1626 -0.0384  0.3366
   91POPC   C2B 1523   5.156   5.859   6.878 -0.3744  0.2040  0.0835
   91POPC   C3B 1524   4.840   5.848   6.508  0.3027  0.1411 -0.2228
   91POPC   C4B 1525   4.424   6.122   6.378 -0.1964 -0.1511 -0.0600
   92POPC   NC3 1526   5.096   6.304   8.464  0.1993  0.2003 -0.1089
   92POPC   PO4 1527   4.876   6.611   8.297  0.4376 -0.0208 -0.0176
   92POPC   GL1 1528   4.546   6.597   8.025 -0.2923  0.0515  0.1674
   92POPC   GL2 1529   4.257   6.610   8.253  0.4166 -0.0882  0.0584
   92POPC   C1A 1530   4.508   6.789   7.609 -0.3047 -0.1707 -0.1923
   92POPC   D2A 1531   4.478   6.934   7.158 -0.1280  0.1415  0.0977
   92POPC   C3A 1532   4.676   7.003   6.746  0.1294  0.1055  0.3558
   92POPC   C4A 1533   4.594   7.390   6.684  0.2837 -0.1680 -0.1930
   92POPC   C1B 1534   4.074   6.771   7.830 -0.1167  0.2052 -0.0995
   92POPC   C2B 1535   4.037   6.661   7.445  0.0960 -0.0086 -0.0065
   92POPC   C3B 1536   3.693   6.484   7.161  0.3324 -0.0773  0.3209
   92POPC   C4B 1537   3.673   6.528   6.691  0.0949 -0.0967  0.1096
   93POPC   NC3 1538   6.467   9.342   8.142 -0.0448  0.0474 -0.2496
   93POPC   PO4 1539   6.879   9.170   8.227  0.1053  0.0265 -0.1041
   93POPC   GL1 1540   6.818   9.259   7.755 -0.2678  0.2017  0.3673
   93POPC   GL2 1541   6.796   9.554   7.632  0.0303  0.1932  0.0107
   93POPC   C1A 1542   6.842   9.175   7.285  0.1522 -0.2221 -0.3826
   93POPC   D2A 1543   6.707   9.276   6.911 -0.2634 -0.0087 -0.2046
   93POPC   C3A 1544   6.801   9.690   6.730  0.2876 -0.0070 -0.2952
   93POPC   C4A 1545   6.886  10.126   6.670 -0.0306  0.0425  0.1141
   93POPC   C1B 1546   6.839   9.661   7.228 -0.0044 -0.0195 -0.2301
   93POPC   C2B 1547   7.083  10.030   7.088 -0.2195  0.1252 -0.2513
   93POPC   C3B 1548   7.479  10.066   6.865 -0.1243 -0.0946  0.3376
   93POPC   C4B 1549   7.782   9.793   6.632  0.0165 -0.0633 -0.0957
   94POPC   NC3 1550   2.439   5.459   8.670  0.0154  0.1564 -0.1376
   94POPC   PO4 1551   1.881   5.501   8.571 -0.0871 -0.1667 -0.3652
   94POPC   GL1 1552   2.261   5.241   8.240 -0.2017  0.1277 -0.2084
   94POPC   GL2 1553   2.381   4.869   8.315 -0.0319 -0.0258  0.1532
   94POPC   C1A 1554   2.322   5.104   7.763 -0.0411  0.1242  0.2339
   94POPC   D2A 1555   2.404   4.969   7.344  0.1800  0.0175  0.1601
   94POPC   C3A 1556   2.856   4.881   7.245 -0.0375  0.2993 -0.0962
   94POPC   C4A 1557   3.069   4.569   6.961 -0.2856 -0.0576  0.0178
   94POPC   C1B 1558   2.272   4.580   8.002 -0.1057  0.2419  0.0731
   94POPC   C2B 1559   2.372   4.126   7.935  0.0061  0.1447 -0.2585
   94POPC   C3B 1560   2.669   3.929   7.758 -0.3098  0.0438 -0.0288
   94POPC   C4B 1561   3.165   3.893   7.628  0.0218 -0.2780 -0.1010
   95POPC   NC3 1562   0.307   2.924   8.740  0.2799 -0.0980 -0.1495
   95POPC   PO4 1563   0.401   2.884   8.335 -0.2714  0.4693 -0.3489
   95POPC   GL1 1564   0.330   2.741   7.997  0.0306 -0.0091  0.0657
   95POPC   GL2 1565   0.026   2.575   7.910 -0.0133 -0.1664 -0.3763
   95POPC   C1A 1566   0.369   2.623   7.526 -0.0107  0.3845  0.0730
   95POPC   D2A 1567   0.055   2.392   7.265  0.0191  0.1947  0.0278
   95POPC   C3A 1568   0.224   2.372   6.889 -0.0895 -0.3298  0.1906
   95POPC   C4A 1569   0.467   2.077   6.708 -0.0087  0.2597  0.3945
   95POPC   C1B 1570  -0.133   2.760   7.554 -0.0606  0.0130  0.0262
   95POPC   C2B 1571  -0.258   2.723   7.085  0.2873  0.2921  0.2301
   95POPC   C3B 1572  -0.265   2.631   6.648  0.1543  0.1325 -0.2535
   95POPC   C4B 1573  -0.197   2.321   6.322  0.1588  0.2178 -0.4968
   96POPC   NC3 1574   4.411   4.654   8.318 -0.0718 -0.0322  0.1944
   96POPC   PO4 1575   4.196   4.239   8.375 -0.1897  0.0221 -0.3581
   96POPC   GL1 1576   4.300   4.309   7.947 -0.5563 -0.2173  0.1147
   96POPC   GL2 1577   4.163   4.653   7.799  0.0709  0.2989  0.1432
   96POPC   C1A 1578   4.560   4.168   7.542 -0.0073 -0.3295 -0.0564
   96POPC   D2A 1579   4.759   4.411   7.223 -0.2237  0.3573 -0.2241
   96POPC   C3A 1580   5.027   4.222   6.846 -0.0828 -0.1657  0.0211
   96POPC   C4A 1581   5.305   4.229   6.537  0.0738  0.0931  0.0440
   96POPC   C1B 1582   4.321   4.657   7.394  0.3264  0.2246  0.1815
   96POPC   C2B 1583   4.160   4.753   6.948  0.1349  0.0561 -0.1340
   96POPC   C3B 1584   4.350   4.565   6.603  0.4280 -0.0920 -0.1085
   96POPC   C4B 1585   4.159   4.325   6.333 -0.1389 -0.2701 -0.0519
   97POPC   NC3 1586   6.102   3.844   8.562 -0.0544 -0.1608 -0.3093
   97POPC   PO4 1587   6.480   3.795   8.193  0.0851  0.1670 -0.1452
   97POPC   GL1 1588   6.401   3.590   7.851  0.0213 -0.1270  0.0662
   97POPC   GL2 1589   6.500   3.247   7.728  0.1737 -0.0693  0.3852
   97POPC   C1A 1590   6.032   3.378   7.632  0.1369  0.1931  0.2520
   97POPC   D2A 1591   5.794   3.285   7.242 -0.1947 -0.0765 -0.1026
   97POPC   C3A 1592   6.013   3.386   6.866 -0.4206  0.1342 -0.4148
   97POPC   C4A 1593   6.430   3.457   6.600  0.0180 -0.1218 -0.2361
   97POPC   C1B 1594   6.797   3.278   7.391 -0.1546 -0.0640 -0.3336
   97POPC   C2B 1595   7.243   3.265   7.177  0.2412 -0.3814  0.2723
   97POPC   C3B 1596   7.375   3.090   6.887  0.0838 -0.0418  0.0804
   97POPC   C4B 1597   7.467   3.077   6.458 -0.0721  0.1190 -0.2730
   98POPC   NC3 1598   1.291   3.101   9.007  0.0695 -0.2603  0.0079
   98POPC   PO4 1599   1.260   2.852   8.637  0.1089 -0.0052 -0.2116
   98POPC   GL1 1600   1.118   2.621   8.255 -0.1635  0.1273  0.0020
   98POPC   GL2 1601   0.825   2.765   8.196  0.0200  0.5721 -0.0328
   98POPC   C1A 1602   1.182   2.388   7.855  0.1164  0.2799 -0.0195
   98POPC   D2A 1603   1.485   2.443   7.532 -0.0747  0.2036  0.1113
   98POPC   C3A 1604   1.646   2.592   7.196 -0.2246 -0.2159 -0.0392
   98POPC   C4A 1605   1.739   2.586   6.749  0.0221  0.1378 -0.2058
   98POPC   C1B 1606   0.893   2.939   7.786 -0.1932 -0.1180  0.1082
   98POPC   C2B 1607   1.235   2.968   7.419 -0.0475  0.2032  0.1037
   98POPC   C3B 1608   1.652   3.202   7.200  0.1326 -0.2258  0.0557
   98POPC   C4B 1609   1.875   3.392   7.518 -0.0104 -0.1939  0.1478
   99POPC   NC3 1610   1.881   4.186   9.461  0.0118 -0.0935 -0.0596
   99POPC   PO4 1611   1.535   4.251   9.112 -0.1150  0.0651 -0.1480
   99POPC   GL1 1612   1.619   4.339   8.652 -0.2938  0.0287 -0.0259
   99POPC   GL2 1613   1.732   4.564   8.716 -0.1329 -0.3545  0.3432
   99POPC   C1A 1614   1.783   4.284   8.287  0.1761  0.1813  0.2080
   99POPC   D2A 1615   1.714   4.402   7.801  0.2016 -0.3414 -0.2600
   99POPC   C3A 1616   1.749   3.992   7.481  0.1192  0.0009  0.1226
   99POPC   C4A 1617   1.611   3.763   7.150 -0.2052 -0.0253 -0.2895
   99POPC   C1B 1618   1.835   4.831   8.362  0.1085  0.0595 -0.0051
   99POPC   C2B 1619   1.870   4.915   7.963  0.2045 -0.1302 -0.4177
   99POPC   C3B 1620   1.982   4.777   7.530  0.0142 -0.0199  0.1871
   99POPC   C4B 1621   1.988   4.508   7.239 -0.0516  0.2405  0.1779
  100POPC   NC3 1622   9.755   0.459   9.426 -0.1430  0.4405  0.0703
  100POPC   PO4 1623   9.919   0.797   9.132 -0.3312  0.1523 -0.0469
  100POPC   GL1 1624  10.121   0.827   8.750  0.0349 -0.2710  0.1315
  100POPC   GL2 1625   9.885   0.846   8.507  0.0120 -0.1453  0.1961
  100POPC   C1A 1626  10.334   0.644   8.387  0.1504  0.1119  0.2207
  100POPC   D2A 1627  10.263   0.774   8.045 -0.1049  0.1967 -0.1785
  100POPC   C3A 1628  10.546   0.709   7.768 -0.3702  0.1167  0.1992
  100POPC   C4A 1629  10.770   0.469   7.516  0.1231 -0.0758 -0.1379
  100POPC   C1B 1630   9.820   0.703   8.113 -0.1838  0.2336 -0.6291
  100POPC   C2B 1631   9.751   0.725   7.724 -0.1300  0.1760 -0.0765
  100POPC   C3B 1632   9.763   0.848   7.305  0.2837  0.1223 -0.1985
  100POPC   C4B 1633  10.029   1.102   7.093  0.1031 -0.0351  0.2241
  101POPC   NC3 1634   8.080   1.189   8.187  0.2076 -0.2169  0.0553
  101POPC   PO4 1635   7.651   1.348   8.084 -0.1092 -0.0764 -0.0714
  101POPC   GL1 1636   7.647   1.364   7.663  0.1232  0.4208 -0.3512
  101POPC   GL2 1637   7.801   1.576   7.552  0.0185 -0.0568  0.0826
  101POPC   C1A 1638   7.465   1.444   7.261  0.2742  0.1177 -0.0272
  101POPC   D2A 1639   7.705   1.397   6.794 -0.1499 -0.0513  0.0364
  101POPC   C3A 1640   8.036   1.154   6.672  0.0010  0.3958  0.2177
  101POPC   C4A 1641   8.278   1.015   6.389  0.0162  0.0003  0.3875
  101POPC   C1B 1642   8.022   1.249   7.176  0.3669 -0.0032  0.0921
  101POPC   C2B 1643   8.447   1.222   6.942 -0.1991  0.0651  0.0829
  101POPC   C3B 1644   8.703   1.357   6.530  0.0981 -0.1343  0.0635
  101POPC   C4B 1645   8.804   1.651   6.220  0.0648 -0.0956  0.3238
  102POPC   NC3 1646   1.110   4.117   8.808 -0.0288  0.1117 -0.0521
  102POPC   PO4 1647   1.108   4.409   8.524  0.2183 -0.2142 -0.0510
  102POPC   GL1 1648   1.234   4.286   8.055  0.4047  0.0526  0.0672
  102POPC   GL2 1649   0.951   4.070   7.981  0.1277  0.2340  0.0797
  102POPC   C1A 1650   1.173   4.464   7.601  0.1159 -0.1442  0.0613
  102POPC   D2A 1651   1.218   4.411   7.129 -0.0465 -0.0371 -0.3165
  102POPC   C3A 1652   1.505   4.328   7.148 -0.2167  0.2660 -0.1086
  102POPC   C4A 1653   1.785   4.147   6.946  0.0764 -0.0429 -0.1056
  102POPC   C1B 1654   0.629   4.247   7.698 -0.0952 -0.0324 -0.0989
  102POPC   C2B 1655   0.292   4.569   7.476 -0.2240  0.0428 -0.1456
  102POPC   C3B 1656  -0.050   4.815   7.602  0.1456  0.2190 -0.1815
  102POPC   C4B 1657  -0.469   4.852   7.612 -0.2648 -0.0108  0.0780
  103POPC   NC3 1658   9.027   1.050   8.758 -0.3066 -0.0951 -0.1107
  103POPC   PO4 1659   9.062   0.823   8.458 -0.4988 -0.0386  0.2566
  103POPC   GL1 1660   8.985   1.014   8.087 -0.3042 -0.3256  0.4505
  103POPC   GL2 1661   8.881   1.334   7.939  0.1172  0.0215 -0.0311
  103POPC   C1A 1662   8.862   0.826   7.666 -0.3046 -0.0833 -0.3666
  103POPC   D2A 1663   8.766   0.595   7.288  0.0258 -0.1046 -0.0863
  103POPC   C3A 1664   8.928   0.382   6.915 -0.2048  0.0799 -0.1517
  103POPC   C4A 1665   8.860  -0.089   6.798 -0.1281 -0.4617 -0.3155
  103POPC   C1B 1666   8.782   1.298   7.588 -0.1674 -0.0926 -0.0823
  103POPC   C2B 1667   8.825   1.067   7.236  0.1242 -0.5025 -0.1134
  103POPC   C3B 1668   8.923   0.932   6.794  0.2420 -0.2821  0.4643
  103POPC   C4B 1669   9.165   0.687   6.641 -0.1430  0.2621 -0.2357
  104POPC   NC3 1670   9.702   3.544   8.259 -0.2456  0.2386  0.0024
  104POPC   PO4 1671   9.543   3.954   8.108  0.0820  0.0921  0.2119
  104POPC   GL1 1672   9.937   3.696   7.802 -0.2716  0.2586  0.2312
  104POPC   GL2 1673   9.806   3.353   7.826  0.2772 -0.1235 -0.1432
  104POPC   C1A 1674  10.087   3.595   7.436 -0.0801 -0.0184 -0.1105
  104POPC   D2A 1675  10.018   3.673   7.067 -0.1159  0.0539  0.1923
  104POPC   C3A 1676   9.956   4.047   6.973  0.0523 -0.0486  0.0380
  104POPC   C4A 1677   9.827   4.314   7.257  0.1661  0.0656 -0.1624
  104POPC   C1B 1678   9.751   3.185   7.405 -0.1205  0.0278 -0.1772
  104POPC   C2B 1679   9.638   3.282   6.963 -0.2579  0.1322 -0.1131
  104POPC   C3B 1680   9.434   3.349   6.628 -0.2129 -0.1309 -0.0640
  104POPC   C4B 1681   9.414   3.092   6.291 -0.1128  0.1550  0.2784
  105POPC   NC3 1682   2.326   7.295   8.672 -0.0212  0.3181  0.2541
  105POPC   PO4 1683   2.853   7.080   8.667  0.1343  0.0193  0.2266
  105POPC   GL1 1684   2.886   7.266   8.201  0.1863  0.1758  0.5249
  105POPC   GL2 1685   2.628   7.352   8.116 -0.0991  0.0339 -0.2416
  105POPC   C1A 1686   3.203   7.409   7.902 -0.0768 -0.1949  0.0236
  105POPC   D2A 1687   3.340   7.268   7.538 -0.1340  0.0888 -0.0192
  105POPC   C3A 1688   3.047   7.156   7.220  0.2725 -0.0364 -0.0503
  105POPC   C4A 1689   2.832   7.350   6.907  0.0092 -0.0005  0.0153
  105POPC   C1B 1690   2.616   7.253   7.687 -0.0852 -0.2664  0.1875
  105POPC   C2B 1691   2.718   7.498   7.361  0.0681 -0.4199  0.0848
  105POPC   C3B 1692   2.543   7.822   7.036 -0.0754  0.0141 -0.1161
  105POPC   C4B 1693   2.676   7.894   6.779  0.0017 -0.0474  0.1265
  106POPC   NC3 1694   0.072   2.482   8.953  0.2118 -0.0944  0.2460
  106POPC   PO4 1695   0.449   2.439   8.697  0.1913  0.3472  0.2854
  106POPC   GL1 1696   0.517   2.349   8.252 -0.2573 -0.1188 -0.2687
  106POPC   GL2 1697   0.330   2.140   8.064 -0.2909  0.0370  0.1356
  106POPC   C1A 1698   0.695   2.449   7.841 -0.1797 -0.0401  0.0628
  106POPC   D2A 1699   0.887   2.445   7.465  0.0879  0.0558 -0.2604
  106POPC   C3A 1700   0.614   2.563   7.081  0.0424  0.2741  0.1429
  106POPC   C4A 1701   0.563   2.788   6.766  0.0204 -0.4335  0.0813
  106POPC   C1B 1702   0.397   2.057   7.679 -0.2552  0.2249  0.0706
  106POPC   C2B 1703   0.479   2.151   7.265  0.0384  0.1878 -0.1996
  106POPC   C3B 1704   0.801   2.096   7.020 -0.1839  0.0211  0.1507
  106POPC   C4B 1705   0.921   1.873   6.612  0.0816 -0.0694  0.0421
  107POPC   NC3 1706   7.899   2.566   7.986 -0.3698  0.1223 -0.2724
  107POPC   PO4 1707   8.284   2.739   8.101 -0.1057  0.0068  0.3736
  107POPC   GL1 1708   8.365   3.084   7.721  0.2784 -0.0545  0.1650
  107POPC   GL2 1709   8.447   3.329   7.746 -0.0260 -0.0466  0.2275
  107POPC   C1A 1710   8.296   3.046   7.263 -0.1358 -0.0713  0.1060
  107POPC   D2A 1711   8.115   2.812   7.064  0.0335 -0.1850 -0.1154
  107POPC   C3A 1712   7.898   2.958   6.661 -0.1516 -0.0694  0.2834
  107POPC   C4A 1713   7.844   2.744   6.237  0.1549 -0.1074 -0.0495
  107POPC   C1B 1714   8.628   3.410   7.201 -0.3579 -0.2199  0.0126
  107POPC   C2B 1715   8.614   3.790   6.897 -0.0808  0.0014  0.2050
  107POPC   C3B 1716   8.914   4.064   6.642  0.1321  0.0973 -0.2876
  107POPC   C4B 1717   9.230   4.241   6.513  0.1348  0.2885 -0.1001
  108POPC   NC3 1718   0.735   4.119   8.383  0.0804  0.1365 -0.0773
  108POPC   PO4 1719   0.383   3.847   8.207  0.1106 -0.0290  0.0008
  108POPC   GL1 1720   0.438   3.597   7.963  0.1252 -0.2464 -0.0319
  108POPC   GL2 1721   0.618   3.251   8.061  0.0046 -0.1728  0.0019
  108POPC   C1A 1722   0.659   3.397   7.542  0.0054  0.1524  0.2525
  108POPC   D2A 1723   0.669   3.049   7.330  0.1120 -0.1576 -0.3548
  108POPC   C3A 1724   0.917   2.999   7.034 -0.1216 -0.0916 -0.1385
  108POPC   C4A 1725   1.303   2.880   6.842 -0.1656  0.3420 -0.1578
  108POPC   C1B 1726   0.266   3.140   7.660 -0.1614  0.2198 -0.3085
  108POPC   C2B 1727   0.200   2.971   7.145  0.2016  0.3537 -0.2712
  108POPC   C3B 1728   0.108   2.977   6.764  0.3452  0.0280  0.0084
  108POPC   C4B 1729   0.215   2.697   6.447 -0.3153 -0.2644  0.2804
  109POPC   NC3 1730   3.782   2.181   8.714 -0.0313 -0.0027 -0.0410
  109POPC   PO4 1731   3.968   2.476   8.538  0.0162 -0.0861  0.1362
  109POPC   GL1 1732   4.110   2.435   8.178 -0.2138  0.0049 -0.2597
  109POPC   GL2 1733   4.364   2.215   8.210  0.0064 -0.1638  0.0651
  109POPC   C1A 1734   3.913   2.243   7.762  0.3123  0.2208 -0.4202
  109POPC   D2A 1735   3.694   1.971   7.533  0.1202  0.2823 -0.0394
  109POPC   C3A 1736   3.737   2.001   7.100 -0.1946 -0.3172 -0.1361
  109POPC   C4A 1737   3.940   2.370   6.854 -0.1247  0.1397  0.1480
  109POPC   C1B 1738   4.354   1.938   7.915 -0.3310  0.0312 -0.1015
  109POPC   C2B 1739   4.284   1.779   7.515  0.0212 -0.1285  0.2295
  109POPC   C3B 1740   4.225   1.533   7.191 -0.0125 -0.1566  0.2176
  109POPC   C4B 1741   4.363   1.389   6.879 -0.0112 -0.4707 -0.0850
  110POPC   NC3 1742   8.361   8.879   8.402 -0.3715 -0.0892 -0.3266
  110POPC   PO4 1743   8.446   8.548   8.156 -0.0498 -0.1455  0.1272
  110POPC   GL1 1744   8.824   8.378   7.968  0.3441  0.1108  0.0914
  110POPC   GL2 1745   8.879   8.446   7.669 -0.1999 -0.1170  0.0998
  110POPC   C1A 1746   9.058   7.941   7.735 -0.4578  0.0152  0.3108
  110POPC   D2A 1747   9.204   7.582   7.843 -0.2414 -0.2946  0.2078
  110POPC   C3A 1748   9.560   7.402   7.968 -0.1247  0.0552  0.1976
  110POPC   C4A 1749  10.052   7.282   7.860 -0.3622  0.2476 -0.4056
  110POPC   C1B 1750   8.605   8.092   7.496  0.2288 -0.2237  0.1849
  110POPC   C2B 1751   8.209   7.837   7.554  0.1779 -0.0074 -0.0615
  110POPC   C3B 1752   7.830   7.873   7.287  0.0633  0.2169  0.2614
  110POPC   C4B 1753   7.598   7.591   6.919 -0.0943 -0.1432  0.2367
  111POPC   NC3 1754   4.004   0.533   9.388 -0.4419  0.1543 -0.3867
  111POPC   PO4 1755   4.106   0.191   9.166  0.0666  0.2061  0.0400
  111POPC   GL1 1756   3.879   0.148   8.750 -0.0312 -0.2253 -0.0255
  111POPC   GL2 1757   4.054  -0.218   8.754 -0.0775 -0.1190  0.1886
  111POPC   C1A 1758   3.751   0.162   8.322 -0.0379  0.1865 -0.4556
  111POPC   D2A 1759   3.870  -0.138   8.076 -0.0579 -0.0584 -0.0887
  111POPC   C3A 1760   4.150  -0.293   7.909  0.1892 -0.0212 -0.3518
  111POPC   C4A 1761   4.209  -0.696   7.802  0.0599  0.0526  0.0864
  111POPC   C1B 1762   3.813  -0.339   8.516  0.1389  0.0205 -0.1577
  111POPC   C2B 1763   3.823  -0.599   8.207 -0.0978  0.1820  0.0476
  111POPC   C3B 1764   3.727  -0.612   7.744 -0.0900  0.3291 -0.0663
  111POPC   C4B 1765   3.788  -0.721   7.345 -0.0788  0.1782  0.0171
  112POPC   NC3 1766   9.191   7.176   8.714 -0.1066  0.3736  0.0835
  112POPC   PO4 1767   9.376   6.834   8.628 -0.0239 -0.2781  0.2488
  112POPC   GL1 1768   9.223   6.797   8.188 -0.2422  0.1440  0.1324
  112POPC   GL2 1769   8.885   6.654   8.022  0.2926 -0.0601  0.2704
  112POPC   C1A 1770   9.195   7.038   7.798 -0.2803  0.0653 -0.0603
  112POPC   D2A 1771   9.160   7.272   7.500  0.0863 -0.3179 -0.1524
  112POPC   C3A 1772   9.338   7.278   7.158 -0.0597 -0.2373  0.2242
  112POPC   C4A 1773   9.742   7.362   6.874 -0.1122  0.2537  0.2096
  112POPC   C1B 1774   9.097   6.591   7.661  0.2070  0.4805  0.0585
  112POPC   C2B 1775   9.547   6.257   7.606  0.0496 -0.2528 -0.0738
  112POPC   C3B 1776   9.668   5.978   7.279 -0.1031  0.1245 -0.0365
  112POPC   C4B 1777   9.781   5.777   6.921 -0.2360  0.6073  0.2193
  113POPC   NC3 1778   6.395   4.636   8.502  0.2931 -0.0915  0.4330
  113POPC   PO4 1779   6.403   4.239   8.447 -0.1250  0.0968 -0.1406
  113POPC   GL1 1780   6.097   4.131   8.126  0.1557 -0.2183 -0.0459
  113POPC   GL2 1781   6.364   4.178   7.846  0.0919 -0.0168 -0.0507
  113POPC   C1A 1782   5.967   3.834   7.801  0.3806 -0.1053 -0.4614
  113POPC   D2A 1783   5.540   3.510   7.693 -0.1435 -0.2191 -0.1382
  113POPC   C3A 1784   5.447   3.619   7.244  0.0323 -0.1976  0.0791
  113POPC   C4A 1785   5.421   4.066   7.127 -0.0865 -0.3071  0.2323
  113POPC   C1B 1786   6.334   4.207   7.455 -0.2011 -0.1593 -0.1873
  113POPC   C2B 1787   6.058   3.854   7.301  0.2392  0.1263 -0.1932
  113POPC   C3B 1788   5.895   3.840   6.932 -0.3168 -0.2348  0.2870
  113POPC   C4B 1789   5.720   4.125   6.797 -0.3561 -0.1428  0.0452
  114POPC   NC3 1790   4.118   2.931   8.543 -0.1729 -0.1127 -0.1260
  114POPC   PO4 1791   4.281   3.261   8.437  0.0707 -0.0371  0.2719
  114POPC   GL1 1792   4.291   3.210   8.043 -0.1189  0.0982 -0.3108
  114POPC   GL2 1793   4.283   2.826   7.951 -0.0279  0.0560 -0.0817
  114POPC   C1A 1794   4.158   3.226   7.609  0.1343 -0.1171  0.0983
  114POPC   D2A 1795   3.926   3.396   7.241  0.2240 -0.2628 -0.1826
  114POPC   C3A 1796   3.865   3.352   6.787 -0.1236 -0.3036  0.1018
  114POPC   C4A 1797   3.527   3.366   6.459  0.2120 -0.3134 -0.1871
  114POPC   C1B 1798   4.450   2.854   7.524  0.3618 -0.1453 -0.1249
  114POPC   C2B 1799   4.380   3.140   7.151  0.1613  0.3403 -0.1694
  114POPC   C3B 1800   4.598   3.364   6.747  0.0927  0.1129  0.1678
  114POPC   C4B 1801   4.498   3.550   6.364  0.2461 -0.2470 -0.0880
  115POPC   NC3 1802   4.541   2.736   8.302 -0.2019 -0.1567 -0.0360
  115POPC   PO4 1803   4.791   2.399   8.497 -0.1322  0.3468 -0.1998
  115POPC   GL1 1804   4.865   2.368   8.081  0.0550  0.2854  0.0749
  115POPC   GL2 1805   4.657   2.459   7.920 -0.2616  0.1295  0.1330
  115POPC   C1A 1806   4.734   2.129   7.590  0.0909 -0.0514  0.0975
  115POPC   D2A 1807   4.486   2.209   7.276  0.2992  0.0537 -0.1307
  115POPC   C3A 1808   4.291   1.993   7.069 -0.3340 -0.2600 -0.0584
  115POPC   C4A 1809   4.069   1.839   6.721 -0.3664  0.1649 -0.1035
  115POPC   C1B 1810   4.344   2.425   7.703  0.2822 -0.0890  0.2145
  115POPC   C2B 1811   4.105   2.583   7.263 -0.2979  0.1281  0.2660
  115POPC   C3B 1812   3.878   2.911   7.201 -0.2530 -0.0237 -0.0103
  115POPC   C4B 1813   3.536   3.087   7.488 -0.0556 -0.2368 -0.2721
  116POPC   NC3 1814   8.142   4.904   8.016 -0.2535  0.0191 -0.1893
  116POPC   PO4 1815   8.279   5.357   8.017  0.2737  0.1111 -0.0237
  116POPC   GL1 1816   8.388   5.388   7.630  0.1233  0.0515  0.0458
  116POPC   GL2 1817   8.640   5.657   7.687 -0.0060  0.0222 -0.3083
  116POPC   C1A 1818   8.208   5.315   7.167  0.1416 -0.0455 -0.1310
  116POPC   D2A 1819   7.783   5.422   6.895  0.1657  0.0133 -0.3256
  116POPC   C3A 1820   7.951   5.695   6.504  0.2100  0.0256 -0.0627
  116POPC   C4A 1821   8.000   5.399   6.135 -0.2937 -0.0782  0.0316
  116POPC   C1B 1822   8.666   5.792   7.229 -0.0900 -0.2058 -0.0613
  116POPC   C2B 1823   8.744   6.029   7.012  0.0328 -0.2612 -0.0897
  116POPC   C3B 1824   9.020   6.350   6.815  0.0019  0.2733 -0.0287
  116POPC   C4B 1825   9.326   6.511   6.511 -0.0888 -0.1210 -0.1365
  117POPC   NC3 1826   1.757   2.347   8.992 -0.0095  0.0402 -0.1920
  117POPC   PO4 1827   2.139   2.230   8.892 -0.2381 -0.0550 -0.3992
  117POPC   GL1 1828   1.940   2.270   8.501  0.0303  0.1139 -0.1599
  117POPC   GL2 1829   1.799   2.628   8.546 -0.0698 -0.0147  0.0483
  117POPC   C1A 1830   2.023   2.116   8.038 -0.0744 -0.2885 -0.0522
  117POPC   D2A 1831   1.915   1.942   7.617  0.0887  0.4698  0.1412
  117POPC   C3A 1832   1.762   2.067   7.189  0.0075  0.1155 -0.0446
  117POPC   C4A 1833   1.555   2.113   6.892  0.1038  0.2419 -0.0177
  117POPC   C1B 1834   1.947   2.587   8.105  0.0212 -0.0891  0.3052
  117POPC   C2B 1835   1.998   2.486   7.671 -0.1663 -0.1590 -0.1996
  117POPC   C3B 1836   2.140   2.331   7.380 -0.1384 -0.2243  0.4078
  117POPC   C4B 1837   2.219   2.334   6.925  0.3049  0.0178 -0.0503
  118POPC   NC3 1838   9.232   3.402   8.073  0.2859  0.0371 -0.0231
  118POPC   PO4 1839   9.362   3.008   8.132  0.0183  0.1511 -0.2141
  118POPC   GL1 1840   9.256   3.026   7.735 -0.0860  0.1911 -0.1561
  118POPC   GL2 1841   9.075   3.279   7.611 -0.0410 -0.1263 -0.2974
  118POPC   C1A 1842   9.310   2.653   7.384  0.0119  0.1767 -0.0380
  118POPC   D2A 1843   9.260   2.397   7.041  0.0259 -0.3514  0.2837
  118POPC   C3A 1844   8.849   2.240   6.836  0.3137  0.0103  0.1098
  118POPC   C4A 1845   8.753   2.514   6.536 -0.0343  0.1692  0.0426
  118POPC   C1B 1846   9.163   3.100   7.120 -0.2454 -0.3135 -0.1117
  118POPC   C2B 1847   9.182   2.879   6.710 -0.0219 -0.3601  0.0422
  118POPC   C3B 1848   9.198   2.669   6.368 -0.0104 -0.0147 -0.0807
  118POPC   C4B 1849   9.087   2.604   5.960 -0.0724  0.1278  0.1507
  119POPC   NC3 1850   9.340   1.830   8.386 -0.1053  0.0652 -0.0900
  119POPC   PO4 1851   9.134   1.449   8.365  0.0036 -0.2838  0.2495
  119POPC   GL1 1852   9.386   1.399   7.991  0.0130 -0.0098  0.3432
  119POPC   GL2 1853   9.442   1.698   7.948 -0.3092 -0.0562  0.1194
  119POPC   C1A 1854   9.452   0.999   7.978  0.0089 -0.2319  0.1949
  119POPC   D2A 1855   9.344   0.615   8.020  0.0564 -0.2408  0.2017
  119POPC   C3A 1856   9.539   0.259   7.867 -0.0501  0.1688  0.2195
  119POPC   C4A 1857   9.818  -0.005   7.710 -0.3129  0.2037  0.2717
  119POPC   C1B 1858   9.515   1.644   7.509 -0.0352 -0.0081 -0.1745
  119POPC   C2B 1859   9.631   1.418   7.105 -0.0063 -0.0161 -0.1150
  119POPC   C3B 1860   9.805   1.424   6.716  0.0498 -0.1941  0.0063
  119POPC   C4B 1861  10.122   1.142   6.475  0.0799 -0.2284 -0.0109
  120POPC   NC3 1862   9.541   2.556   8.179 -0.0199 -0.0739 -0.0407
  120POPC   PO4 1863   9.117   2.631   7.990 -0.3221 -0.2000  0.3116
  120POPC   GL1 1864   8.805   2.609   7.749 -0.4018 -0.1697  0.2292
  120POPC   GL2 1865   8.796   2.869   7.567  0.0901 -0.2807  0.0587
  120POPC   C1A 1866   8.833   2.288   7.362  0.0309  0.2823 -0.1223
  120POPC   D2A 1867   9.112   1.947   7.172  0.1002 -0.0273 -0.0399
  120POPC   C3A 1868   9.408   1.828   6.944 -0.2950  0.1941 -0.0977
  120POPC   C4A 1869   9.473   1.717   6.480 -0.2108 -0.1800 -0.0681
  120POPC   C1B 1870   8.752   2.728   7.154 -0.1294 -0.1321  0.0576
  120POPC   C2B 1871   8.547   2.991   6.799 -0.3604 -0.2748 -0.0184
  120POPC   C3B 1872   8.748   2.938   6.300 -0.1432  0.1578  0.0643
  120POPC   C4B 1873   8.719   3.254   6.129 -0.1344  0.1753 -0.5677
  121POPC   NC3 1874   6.356   0.378   8.321 -0.1138  0.1325 -0.1700
  121POPC   PO4 1875   6.738   0.514   7.997  0.1138  0.2615  0.1240
  121POPC   GL1 1876   6.585   0.320   7.672  0.0199 -0.0301 -0.0425
  121POPC   GL2 1877   6.304   0.134   7.720  0.2253 -0.2158 -0.2129
  121POPC   C1A 1878   6.564   0.186   7.207  0.0825 -0.4262 -0.2408
  121POPC   D2A 1879   6.389   0.342   6.894 -0.2046 -0.3789 -0.1010
  121POPC   C3A 1880   6.556   0.617   6.613 -0.0388  0.0262 -0.0984
  121POPC   C4A 1881   6.735   0.796   6.313 -0.3524  0.1657  0.1333
  121POPC   C1B 1882   6.035  -0.088   7.398  0.0188 -0.0579  0.0759
  121POPC   C2B 1883   5.683  -0.357   7.162 -0.2185 -0.0195  0.1741
  121POPC   C3B 1884   5.379  -0.610   6.929  0.1508  0.2706 -0.2383
  121POPC   C4B 1885   5.468  -0.967   6.869  0.2008  0.1520  0.0382
  122POPC   NC3 1886   3.255   6.186   9.045  0.2896 -0.1816 -0.1358
  122POPC   PO4 1887   3.021   6.121   8.717 -0.1542 -0.0058  0.2214
  122POPC   GL1 1888   3.262   5.940   8.379  0.1994  0.0752  0.3042
  122POPC   GL2 1889   3.578   5.915   8.123 -0.1826 -0.0153  0.0392
  122POPC   C1A 1890   3.117   5.757   7.975  0.1752 -0.1103 -0.2175
  122POPC   D2A 1891   3.078   5.800   7.530 -0.0188  0.0664  0.4020
  122POPC   C3A 1892   3.312   6.156   7.345 -0.0680  0.0931  0.0692
  122POPC   C4A 1893   3.356   6.534   7.511 -0.0112  0.1799 -0.3028
  122POPC   C1B 1894   3.565   5.911   7.711  0.0729 -0.0144  0.1659
  122POPC   C2B 1895   3.542   5.776   7.170  0.1024 -0.0505  0.0238
  122POPC   C3B 1896   3.482   6.036   6.789 -0.1810 -0.1940  0.2027
  122POPC   C4B 1897   3.302   6.248   6.384  0.2998  0.0792 -0.1039
  123POPC   NC3 1898   8.185   3.685   8.150  0.0326  0.3548 -0.0881
  123POPC   PO4 1899   8.665   3.637   8.109  0.0935  0.1651 -0.1869
  123POPC   GL1 1900   9.018   3.816   7.810  0.1802 -0.0049 -0.0918
  123POPC   GL2 1901   9.366   3.831   7.645  0.1091  0.0038  0.0704
  123POPC   C1A 1902   8.683   3.840   7.444 -0.3017  0.2301  0.1347
  123POPC   D2A 1903   8.359   3.919   7.283 -0.1248  0.0847 -0.2991
  123POPC   C3A 1904   8.248   4.188   6.865  0.0771  0.1637  0.3259
  123POPC   C4A 1905   8.346   4.036   6.477 -0.1547  0.2628  0.2525
  123POPC   C1B 1906   9.587   3.830   7.257  0.0681  0.1609  0.1295
  123POPC   C2B 1907   9.589   3.842   6.794  0.1366  0.0792  0.3179
  123POPC   C3B 1908   9.436   3.776   6.360 -0.0766  0.0909 -0.0194
  123POPC   C4B 1909   9.210   3.491   6.068  0.0296 -0.1826 -0.2402
  124POPC   NC3 1910   8.645   8.014   8.447 -0.0393 -0.2158 -0.1913
  124POPC   PO4 1911   8.599   7.640   8.396  0.3004 -0.1487  0.0964
  124POPC   GL1 1912   8.594   7.456   7.945 -0.1503  0.0011 -0.0390
  124POPC   GL2 1913   8.654   7.131   8.011 -0.1438 -0.1091  0.0807
  124POPC   C1A 1914   8.709   7.602   7.484  0.0794 -0.1008  0.1460
  124POPC   D2A 1915   8.697   7.764   7.062 -0.0651  0.2397  0.0013
  124POPC   C3A 1916   8.556   7.845   6.611 -0.2888  0.1661 -0.0310
  124POPC   C4A 1917   8.315   7.565   6.164  0.0860 -0.0697  0.0183
  124POPC   C1B 1918   8.719   7.118   7.632  0.1677  0.2551  0.3317
  124POPC   C2B 1919   8.747   7.207   7.161  0.3252 -0.0810  0.1661
  124POPC   C3B 1920   8.951   7.385   6.813  0.1379  0.0120  0.1755
  124POPC   C4B 1921   9.334   7.288   6.560 -0.0521  0.1492 -0.2555
  125POPC   NC3 1922   6.033   6.728   8.391  0.0486  0.1274 -0.2489
  125POPC   PO4 1923   5.850   6.708   7.965  0.4976  0.0828 -0.0835
  125POPC   GL1 1924   5.747   6.754   7.562  0.1040 -0.0577  0.0808
  125POPC   GL2 1925   5.679   6.453   7.547  0.1072 -0.0140  0.2746
  125POPC   C1A 1926   5.614   6.820   7.191  0.1914  0.0851 -0.3146
  125POPC   D2A 1927   5.589   6.749   6.746 -0.2854 -0.1582 -0.0157
  125POPC   C3A 1928   5.759   7.109   6.501 -0.1438 -0.1322 -0.0864
  125POPC   C4A 1929   6.187   6.976   6.333  0.2452 -0.0377 -0.2037
  125POPC   C1B 1930   5.867   6.357   7.205 -0.4763 -0.3141  0.0990
  125POPC   C2B 1931   6.227   6.233   7.079  0.3963  0.3540 -0.1297
  125POPC   C3B 1932   6.593   6.210   6.831 -0.1511 -0.3883  0.0552
  125POPC   C4B 1933   6.840   6.356   6.353  0.3354 -0.0517  0.2559
  126POPC   NC3 1934   1.269   0.989   9.678  0.1580 -0.1798  0.2056
  126POPC   PO4 1935   1.467   1.364   9.655  0.2046 -0.0307 -0.5205
  126POPC   GL1 1936   1.375   1.279   9.246  0.2520  0.0261  0.0751
  126POPC   GL2 1937   1.685   1.408   9.207 -0.0144 -0.0454  0.1824
  126POPC   C1A 1938   1.478   0.981   8.940  0.0279 -0.0599  0.0751
  126POPC   D2A 1939   1.471   0.550   8.905  0.2636 -0.1152  0.2097
  126POPC   C3A 1940   1.410   0.475   8.498  0.0524 -0.0522 -0.1246
  126POPC   C4A 1941   1.554   0.736   8.095 -0.1735 -0.3228  0.3154
  126POPC   C1B 1942   1.689   1.379   8.699 -0.1482 -0.0698  0.0284
  126POPC   C2B 1943   1.910   1.218   8.283 -0.0067  0.0116  0.0189
  126POPC   C3B 1944   1.959   1.035   7.910 -0.1202  0.1679 -0.0938
  126POPC   C4B 1945   2.066   0.586   7.802 -0.0700  0.0173 -0.1539
  127POPC   NC3 1946   7.741   4.576   8.392  0.0148 -0.0257 -0.1466
  127POPC   PO4 1947   7.791   4.493   7.920  0.2099 -0.1820 -0.1706
  127POPC   GL1 1948   7.911   4.500   7.549  0.2832 -0.0557 -0.0967
  127POPC   GL2 1949   8.182   4.358   7.424  0.1705  0.0723 -0.4150
  127POPC   C1A 1950   7.703   4.448   7.251 -0.0455 -0.0532  0.0758
  127POPC   D2A 1951   7.734   4.558   6.874  0.0197 -0.0529 -0.2602
  127POPC   C3A 1952   7.430   4.524   6.653  0.1510  0.1593  0.0239
  127POPC   C4A 1953   7.378   4.671   6.253  0.0475  0.0605 -0.1835
  127POPC   C1B 1954   8.225   4.691   7.093 -0.0932 -0.1893 -0.0237
  127POPC   C2B 1955   8.077   4.917   6.831 -0.0209  0.3461  0.1945
  127POPC   C3B 1956   8.261   5.341   6.637  0.2079 -0.1516 -0.2413
  127POPC   C4B 1957   8.456   5.660   6.316  0.1298  0.0538  0.2498
  128POPC   NC3 1958   3.716   4.338   8.511 -0.2528  0.1039  0.0687
  128POPC   PO4 1959   3.634   3.866   8.435  0.3401 -0.2441 -0.0522
  128POPC   GL1 1960   3.628   3.940   7.983 -0.3790 -0.2470 -0.0822
  128POPC   GL2 1961   3.807   4.197   7.912 -0.3073 -0.1700  0.2446
  128POPC   C1A 1962   3.779   3.782   7.590  0.0777 -0.1542 -0.1118
  128POPC   D2A 1963   3.858   3.898   7.169 -0.0127 -0.0346 -0.1883
  128POPC   C3A 1964   3.617   3.765   6.790  0.0277 -0.2606  0.2776
  128POPC   C4A 1965   3.667   3.955   6.459  0.1090 -0.0978 -0.1713
  128POPC   C1B 1966   4.009   4.229   7.523 -0.1103 -0.0287 -0.2792
  128POPC   C2B 1967   4.270   3.803   7.403  0.1617  0.2236 -0.1837
  128POPC   C3B 1968   4.701   3.520   7.190 -0.1970  0.3520  0.0944
  128POPC   C4B 1969   5.099   3.398   6.953  0.0360  0.3850 -0.1932
  129POPC   NC3 1970   7.202   0.646   8.157  0.3390 -0.1034  0.0075
  129POPC   PO4 1971   7.127   0.213   8.092  0.2047 -0.0821  0.2864
  129POPC   GL1 1972   7.048   0.170   7.720  0.4115 -0.3564 -0.2643
  129POPC   GL2 1973   7.302   0.028   7.686 -0.1100  0.3104 -0.1521
  129POPC   C1A 1974   6.957   0.477   7.375 -0.2117  0.0272 -0.0707
  129POPC   D2A 1975   6.721   0.706   7.052 -0.4052  0.0592 -0.2890
  129POPC   C3A 1976   6.971   1.028   6.757  0.2124  0.2320 -0.1063
  129POPC   C4A 1977   7.156   1.465   6.904  0.2150 -0.1206  0.2689
  129POPC   C1B 1978   7.522  -0.088   7.365 -0.1894  0.0305  0.2698
  129POPC   C2B 1979   7.739  -0.347   7.042 -0.1006 -0.4206  0.0413
  129POPC   C3B 1980   7.951  -0.688   6.759  0.2180 -0.0791  0.2013
  129POPC   C4B 1981   7.714  -0.991   6.537 -0.0847 -0.1156  0.0342
  130POPC   NC3 1982   0.014   6.073   8.642  0.1233 -0.1829 -0.1063
  130POPC   PO4 1983   0.220   6.458   8.444  0.1028 -0.5023 -0.0283
  130POPC   GL1 1984   0.163   6.316   8.102 -0.0642 -0.0029  0.0065
  130POPC   GL2 1985   0.403   6.243   8.076 -0.2133  0.2135 -0.1299
  130POPC   C1A 1986  -0.037   6.051   7.799  0.4525 -0.2088 -0.1283
  130POPC   D2A 1987  -0.275   5.711   7.778 -0.0241 -0.3265  0.0501
  130POPC   C3A 1988  -0.281   5.445   7.418  0.0188 -0.0542  0.1767
  130POPC   C4A 1989  -0.236   5.240   6.939 -0.2036  0.0778 -0.0359
  130POPC   C1B 1990   0.761   6.163   7.835  0.0004  0.2305 -0.1377
  130POPC   C2B 1991   1.031   6.326   7.500 -0.0928  0.1654  0.2733
  130POPC   C3B 1992   1.055   6.639   7.163  0.0762  0.3129  0.3006
  130POPC   C4B 1993   1.146   7.001   6.916 -0.1980  0.0365 -0.0414
  131POPC   NC3 1994   5.545   4.529   8.641 -0.1636  0.0689 -0.0378
  131POPC   PO4 1995   5.627   4.087   8.424  0.1332  0.5064 -0.3217
  131POPC   GL1 1996   5.681   4.256   7.975  0.2596  0.2565 -0.0968
  131POPC   GL2 1997   5.426   4.456   7.891 -0.1563  0.2122 -0.1040
  131POPC   C1A 1998   5.689   4.162   7.555 -0.0440 -0.0236 -0.2366
  131POPC   D2A 1999   5.762   4.490   7.209  0.1014  0.0489  0.2425
  131POPC   C3A 2000   6.126   4.429   6.937 -0.2950  0.1703  0.0360
  131POPC   C4A 2001   6.118   4.273   6.539 -0.0970  0.0804 -0.0780
  131POPC   C1B 2002   5.666   4.757   7.747 -0.0440 -0.0763 -0.2298
  131POPC   C2B 2003   5.812   4.932   7.338 -0.0698 -0.3145  0.3184
  131POPC   C3B 2004   5.932   4.922   6.878 -0.0867  0.0863  0.1558
  131POPC   C4B 2005   5.692   5.135   6.533 -0.0395 -0.4791 -0.1051
  132POPC   NC3 2006   6.284   0.703   7.894 -0.2108 -0.0621  0.1738
  132POPC   PO4 2007   5.945   0.499   7.980  0.1315 -0.2394 -0.0394
  132POPC   GL1 2008   5.863   0.543   7.603 -0.3182  0.3240 -0.0403
  132POPC   GL2 2009   6.197   0.508   7.401 -0.4661 -0.1219 -0.0371
  132POPC   C1A 2010   5.756   0.531   7.289  0.0202  0.2420 -0.1605
  132POPC   D2A 2011   5.952   0.291   6.995 -0.0015  0.0975 -0.1731
  132POPC   C3A 2012   5.843  -0.104   6.776  0.1105 -0.0462 -0.1256
  132POPC   C4A 2013   5.846  -0.516   6.666 -0.2137  0.1392  0.0641
  132POPC   C1B 2014   6.202   0.788   7.085 -0.2091  0.0365 -0.0149
  132POPC   C2B 2015   6.230   0.937   6.763 -0.0231 -0.0313 -0.0291
  132POPC   C3B 2016   5.950   1.206   6.620 -0.2740 -0.0744  0.3362
  132POPC   C4B 2017   5.507   1.173   6.542 -0.1452 -0.1827  0.0841
  133POPC   NC3 2018   5.274   3.334   8.615  0.2922 -0.0263 -0.0551
  133POPC   PO4 2019   5.671   3.139   8.795  0.0314 -0.1381  0.0852
  133POPC   GL1 2020   5.711   3.211   8.334 -0.1330 -0.1764 -0.3058
  133POPC   GL2 2021   5.479   3.113   8.078  0.0489 -0.2140  0.0549
  133POPC   C1A 2022   5.905   3.008   8.002  0.0298  0.0755 -0.1927
  133POPC   D2A 2023   6.217   2.749   7.967 -0.0009  0.1855  0.2671
  133POPC   C3A 2024   6.183   2.802   7.569  0.0153  0.0163 -0.1778
  133POPC   C4A 2025   6.313   2.977   7.165  0.1874  0.0611 -0.1508
  133POPC   C1B 2026   5.480   3.035   7.699 -0.2905  0.0604  0.0317
  133POPC   C2B 2027   5.361   3.058   7.287 -0.0394 -0.1652 -0.0870
  133POPC   C3B 2028   5.580   3.066   6.828  0.1083  0.0384 -0.1390
  133POPC   C4B 2029   5.961   2.907   6.626 -0.2945 -0.0554 -0.1279
  134POPC   NC3 2030   5.498   7.106   8.040 -0.0821  0.1663 -0.1655
  134POPC   PO4 2031   5.179   7.484   8.069  0.1058 -0.0030  0.0853
  134POPC   GL1 2032   5.560   7.527   7.756  0.2703  0.0942  0.0783
  134POPC   GL2 2033   5.561   7.819   7.597 -0.2525  0.0736  0.1010
  134POPC   C1A 2034   5.699   7.366   7.376 -0.0244 -0.1131  0.1145
  134POPC   D2A 2035   5.544   7.262   6.945  0.0860  0.2054  0.1115
  134POPC   C3A 2036   5.105   7.279   6.612 -0.1893 -0.2582  0.2409
  134POPC   C4A 2037   4.984   7.355   6.239 -0.0740 -0.4969  0.2407
  134POPC   C1B 2038   5.241   7.627   7.313  0.0983 -0.3947 -0.0282
  134POPC   C2B 2039   5.032   7.757   6.889  0.4742  0.1155 -0.1811
  134POPC   C3B 2040   4.822   7.780   6.514  0.0309  0.0419 -0.0627
  134POPC   C4B 2041   4.505   7.935   6.231 -0.1752  0.3192 -0.2631
  135POPC   NC3 2042   0.558   6.815   8.613  0.0547 -0.2153  0.0928
  135POPC   PO4 2043   0.330   7.091   8.788 -0.0633  0.0523  0.0914
  135POPC   GL1 2044   0.392   7.283   8.380  0.0015 -0.0218  0.1777
  135POPC   GL2 2045   0.751   7.251   8.383  0.0293  0.3316 -0.2906
  135POPC   C1A 2046   0.040   7.608   8.205  0.0546  0.1014  0.2156
  135POPC   D2A 2047   0.168   8.033   8.190  0.1879  0.0097  0.0310
  135POPC   C3A 2048   0.052   8.250   7.818  0.0412  0.0747  0.1449
  135POPC   C4A 2049  -0.020   8.563   7.520 -0.1588 -0.1119 -0.2295
  135POPC   C1B 2050   0.607   7.253   7.917 -0.1962 -0.4779  0.3374
  135POPC   C2B 2051   0.458   7.293   7.442 -0.0050 -0.4042 -0.0711
  135POPC   C3B 2052   0.175   7.233   7.211 -0.1506  0.1835 -0.2669
  135POPC   C4B 2053  -0.203   7.364   7.384  0.0664 -0.1080 -0.0489
  136POPC   NC3 2054   1.845   7.283   8.730  0.1047 -0.2004 -0.2200
  136POPC   PO4 2055   2.118   7.746   8.751 -0.2294 -0.2284 -0.0381
  136POPC   GL1 2056   1.940   7.555   8.335  0.0707  0.0079  0.1578
  136POPC   GL2 2057   2.069   7.211   8.236 -0.1399  0.0377  0.2147
  136POPC   C1A 2058   1.836   7.635   7.866 -0.1454  0.1906 -0.1242
  136POPC   D2A 2059   1.838   7.887   7.488  0.0581  0.1544  0.0536
  136POPC   C3A 2060   1.806   7.742   7.185 -0.1405  0.0364 -0.0425
  136POPC   C4A 2061   1.823   7.771   6.799  0.0642  0.0069  0.2191
  136POPC   C1B 2062   2.118   7.207   7.773 -0.2768 -0.0661  0.1550
  136POPC   C2B 2063   2.188   7.524   7.473 -0.0763 -0.3626  0.0493
  136POPC   C3B 2064   2.153   7.386   7.010 -0.0043  0.0702 -0.0037
  136POPC   C4B 2065   2.463   7.440   6.606  0.0214 -0.2378  0.2421
  137POPC   NC3 2066   7.813   5.391   7.708 -0.2320 -0.0527 -0.0086
  137POPC   PO4 2067   7.689   5.647   8.054  0.0425 -0.2738 -0.2859
  137POPC   GL1 2068   7.366   5.622   7.755 -0.0605  0.3511 -0.3636
  137POPC   GL2 2069   7.101   5.402   7.920 -0.4153 -0.1296 -0.3880
  137POPC   C1A 2070   7.279   5.423   7.420  0.3084  0.0057  0.3470
  137POPC   D2A 2071   7.274   5.331   6.935 -0.2157  0.1351  0.1374
  137POPC   C3A 2072   7.449   5.742   6.704  0.1627 -0.1275 -0.1427
  137POPC   C4A 2073   7.601   6.049   7.018  0.1965 -0.1021 -0.0393
  137POPC   C1B 2074   6.832   5.596   7.605  0.0792 -0.1184  0.3041
  137POPC   C2B 2075   6.879   5.520   7.140 -0.1940 -0.2628 -0.0148
  137POPC   C3B 2076   6.742   5.228   6.874  0.0534  0.1037 -0.2512
  137POPC   C4B 2077   7.016   4.887   6.755  0.1804  0.0337  0.0898
  138POPC   NC3 2078   0.879   9.920   9.554 -0.6280 -0.0829 -0.1015
  138POPC   PO4 2079   0.510   9.983   9.264  0.0183 -0.2156 -0.2674
  138POPC   GL1 2080   0.695  10.314   8.999  0.2149  0.0884  0.0395
  138POPC   GL2 2081   0.610  10.191   8.621 -0.1383  0.1481  0.3542
  138POPC   C1A 2082   1.034  10.618   8.716 -0.0881 -0.0173  0.1567
  138POPC   D2A 2083   0.821  10.977   8.779  0.1091  0.0859 -0.0427
  138POPC   C3A 2084   0.794  11.245   8.449 -0.1087  0.0468 -0.0725
  138POPC   C4A 2085   0.755  10.915   8.168  0.1110 -0.0010 -0.2281
  138POPC   C1B 2086   0.861  10.334   8.250 -0.2596 -0.0566  0.1215
  138POPC   C2B 2087   1.046  10.484   8.026 -0.1748 -0.1593 -0.4484
  138POPC   C3B 2088   1.135  10.811   7.774  0.0247  0.2178  0.3002
  138POPC   C4B 2089   1.578  10.916   7.643  0.0193 -0.4061  0.3007
  139POPC   NC3 2090   4.166   5.235   8.658 -0.1660 -0.1839  0.0192
  139POPC   PO4 2091   3.694   4.969   8.537  0.0740  0.1204 -0.2393
  139POPC   GL1 2092   3.879   5.148   8.180  0.1253 -0.0367  0.1567
  139POPC   GL2 2093   3.546   5.297   8.054  0.1641 -0.2722  0.1045
  139POPC   C1A 2094   4.172   5.119   7.802  0.0566 -0.1108  0.0876
  139POPC   D2A 2095   4.338   5.135   7.488 -0.1636  0.1240  0.2283
  139POPC   C3A 2096   4.528   5.343   7.181  0.2026 -0.2293 -0.2320
  139POPC   C4A 2097   4.744   5.606   6.970 -0.0342  0.1922  0.0988
  139POPC   C1B 2098   3.381   5.406   7.675 -0.1399  0.0568  0.0064
  139POPC   C2B 2099   3.207   5.384   7.237 -0.2792 -0.1133  0.0953
  139POPC   C3B 2100   3.402   5.424   6.769  0.0327 -0.1968  0.1617
  139POPC   C4B 2101   3.335   5.586   6.339  0.0980  0.0800 -0.0187
  140POPC   NC3 2102   6.035   2.821   8.858  0.1946 -0.0468  0.0708
  140POPC   PO4 2103   5.714   2.461   8.727  0.2606 -0.1186  0.1958
  140POPC   GL1 2104   5.712   2.341   8.379  0.1403  0.0905 -0.0413
  140POPC   GL2 2105   5.388   2.210   8.177 -0.0121 -0.3004 -0.2541
  140POPC   C1A 2106   5.625   2.596   7.959 -0.0684  0.2825  0.3077
  140POPC   D2A 2107   5.634   2.577   7.569  0.3312  0.1856 -0.0553
  140POPC   C3A 2108   5.157   2.609   7.432  0.1481 -0.1497 -0.0872
  140POPC   C4A 2109   4.948   2.382   7.164 -0.1760 -0.1009  0.0987
  140POPC   C1B 2110   5.252   2.256   7.777 -0.0106 -0.0973  0.3895
  140POPC   C2B 2111   5.363   2.158   7.411 -0.0507  0.1299 -0.2589
  140POPC   C3B 2112   5.339   1.968   7.029  0.2564 -0.1652  0.2278
  140POPC   C4B 2113   5.591   2.056   6.644 -0.1295 -0.2029 -0.1528
  141POPC   NC3 2114   1.522   8.244   9.155 -0.2441 -0.0981  0.1036
  141POPC   PO4 2115   1.112   8.345   9.206 -0.1387  0.1592 -0.5815
  141POPC   GL1 2116   1.066   8.691   8.930 -0.1909 -0.0814 -0.1583
  141POPC   GL2 2117   0.882   8.524   8.665  0.2551  0.0861  0.2652
  141POPC   C1A 2118   1.109   8.959   8.531  0.2664  0.3527  0.1638
  141POPC   D2A 2119   1.253   9.060   8.119  0.0663  0.1166 -0.0184
  141POPC   C3A 2120   1.409   9.576   8.093 -0.2408 -0.1112 -0.0290
  141POPC   C4A 2121   1.258   9.967   8.244  0.0029 -0.1306 -0.3248
  141POPC   C1B 2122   1.306   8.460   8.554  0.1439  0.1920  0.1326
  141POPC   C2B 2123   1.562   8.607   8.169  0.0265  0.1737  0.0344
  141POPC   C3B 2124   1.396   8.772   7.742  0.1458 -0.1116  0.1478
  141POPC   C4B 2125   1.282   9.022   7.412  0.3273 -0.1150 -0.0270
  142POPC   NC3 2126   9.188   5.475   8.417  0.3934  0.0639 -0.0511
  142POPC   PO4 2127   9.146   5.835   8.210  0.1097 -0.2535 -0.0588
  142POPC   GL1 2128   9.124   5.792   7.817 -0.0456 -0.0492 -0.0016
  142POPC   GL2 2129   8.962   6.026   7.637 -0.1058 -0.3531 -0.2048
  142POPC   C1A 2130   9.225   5.732   7.310  0.0531  0.2727 -0.0623
  142POPC   D2A 2131   9.279   5.836   6.874 -0.2829  0.3186  0.0436
  142POPC   C3A 2132   9.600   6.183   6.750  0.0470 -0.0009 -0.0299
  142POPC   C4A 2133   9.853   6.432   6.651  0.0613  0.1856  0.0136
  142POPC   C1B 2134   9.037   6.232   7.329  0.1286 -0.0604 -0.0299
  142POPC   C2B 2135   9.351   6.420   7.168  0.3425  0.0794 -0.2259
  142POPC   C3B 2136   9.812   6.459   7.236  0.0618  0.0070  0.2287
  142POPC   C4B 2137  10.100   6.753   7.424  0.1731  0.3420 -0.2784
  143POPC   NC3 2138   1.601   5.077   8.883  0.3027 -0.1599  0.3552
  143POPC   PO4 2139   1.132   5.209   8.945 -0.0054  0.1195 -0.3427
  143POPC   GL1 2140   1.223   5.354   8.541 -0.2599 -0.1897  0.3014
  143POPC   GL2 2141   1.369   5.676   8.461 -0.0589  0.0665  0.1506
  143POPC   C1A 2142   1.501   5.215   8.071  0.1007 -0.0437  0.1931
  143POPC   D2A 2143   1.797   5.397   7.898  0.2037 -0.1920 -0.0164
  143POPC   C3A 2144   1.924   5.310   7.451  0.0048 -0.1394 -0.1924
  143POPC   C4A 2145   1.689   5.523   7.079 -0.0629 -0.3998  0.2022
  143POPC   C1B 2146   1.413   5.722   7.990 -0.0463 -0.1371  0.1278
  143POPC   C2B 2147   1.197   5.854   7.501 -0.0688  0.1817  0.0557
  143POPC   C3B 2148   1.125   5.553   7.224  0.0855  0.0007  0.0995
  143POPC   C4B 2149   1.270   5.321   6.965 -0.2146 -0.4578  0.1583
  144POPC   NC3 2150   1.812   1.758   9.671 -0.0662 -0.2550 -0.1602
  144POPC   PO4 2151   1.563   1.985   9.382 -0.0730 -0.1461 -0.1702
  144POPC   GL1 2152   1.424   1.777   8.961 -0.3766 -0.3037 -0.4007
  144POPC   GL2 2153   1.634   1.912   8.742  0.1006 -0.1747  0.2666
  144POPC   C1A 2154   1.190   1.398   8.743 -0.1760  0.3386 -0.1524
  144POPC   D2A 2155   1.288   1.107   8.451  0.0200 -0.1057 -0.2161
  144POPC   C3A 2156   1.502   1.255   8.030 -0.0073  0.0148 -0.1911
  144POPC   C4A 2157   1.765   1.627   7.968  0.0852  0.0616  0.1472
  144POPC   C1B 2158   1.396   1.761   8.436  0.3553  0.1660 -0.0673
  144POPC   C2B 2159   1.072   1.607   8.170  0.0107  0.0485  0.0156
  144POPC   C3B 2160   0.999   1.356   7.868  0.3200 -0.0493 -0.0504
  144POPC   C4B 2161   0.785   1.064   7.430 -0.0545  0.0845 -0.1994
  145POPC   NC3 2162   3.854   7.187   9.007  0.3658  0.1068 -0.0021
  145POPC   PO4 2163   3.746   7.289   8.577  0.0338 -0.0894 -0.4033
  145POPC   GL1 2164   3.495   7.476   8.271 -0.0663  0.2200 -0.1972
  145POPC   GL2 2165   3.482   7.823   8.191 -0.0328  0.5123  0.0468
  145POPC   C1A 2166   3.668   7.552   7.802 -0.0717 -0.2213  0.1330
  145POPC   D2A 2167   3.592   7.721   7.364  0.2352  0.2150 -0.4829
  145POPC   C3A 2168   3.516   7.884   6.926 -0.0797 -0.0399 -0.0119
  145POPC   C4A 2169   3.302   8.195   6.832  0.3732  0.2648  0.1441
  145POPC   C1B 2170   3.503   8.017   7.832  0.0994  0.0229 -0.3780
  145POPC   C2B 2171   3.748   8.194   7.535  0.0178 -0.0241 -0.1902
  145POPC   C3B 2172   3.818   8.244   7.197 -0.0152 -0.2413 -0.0960
  145POPC   C4B 2173   3.842   8.291   6.683 -0.3962  0.4667 -0.1455
  146POPC   NC3 2174   4.466   6.192   8.481 -0.0774 -0.0071 -0.0210
  146POPC   PO4 2175   4.882   5.881   8.503 -0.3825  0.0419 -0.1667
  146POPC   GL1 2176   4.765   6.096   8.076 -0.3958  0.0385 -0.0672
  146POPC   GL2 2177   4.442   6.045   7.995 -0.0668  0.1375  0.1663
  146POPC   C1A 2178   4.838   6.408   7.624 -0.0908  0.0081  0.1575
  146POPC   D2A 2179   5.204   6.697   7.408  0.2455 -0.0346 -0.1862
  146POPC   C3A 2180   5.174   7.116   7.428 -0.1330 -0.2899 -0.2312
  146POPC   C4A 2181   4.934   7.279   7.120 -0.2121  0.1133  0.3315
  146POPC   C1B 2182   4.336   6.308   7.620 -0.0522  0.1649 -0.1709
  146POPC   C2B 2183   4.473   6.343   7.282 -0.0964 -0.2676  0.0237
  146POPC   C3B 2184   4.811   6.594   7.138 -0.0029  0.0538 -0.0933
  146POPC   C4B 2185   5.125   6.824   6.872 -0.4458 -0.4240  0.0469
  147POPC   NC3 2186   7.278   5.593   8.388 -0.2190  0.1138  0.3206
  147POPC   PO4 2187   7.169   5.114   8.313 -0.1692  0.5814  0.1536
  147POPC   GL1 2188   6.883   4.892   8.096  0.3800  0.1357 -0.0149
  147POPC   GL2 2189   7.052   4.915   7.782  0.2958 -0.0542  0.1012
  147POPC   C1A 2190   6.768   4.528   7.774 -0.0954 -0.1594 -0.0682
  147POPC   D2A 2191   6.831   4.033   7.765  0.1256  0.0116  0.0095
  147POPC   C3A 2192   6.592   3.756   7.414 -0.1638 -0.3443 -0.0879
  147POPC   C4A 2193   6.500   3.484   7.105  0.3836 -0.2883  0.4048
  147POPC   C1B 2194   7.416   4.814   7.565  0.0352 -0.3607 -0.2566
  147POPC   C2B 2195   7.585   4.990   7.163 -0.1256 -0.2303 -0.1025
  147POPC   C3B 2196   7.581   5.027   6.670 -0.1906 -0.0895  0.0211
  147POPC   C4B 2197   7.591   5.115   6.237 -0.1919 -0.2251  0.0687
  148POPC   NC3 2198   3.555   5.540   8.493 -0.4417 -0.1407 -0.0750
  148POPC   PO4 2199   3.929   5.589   8.455  0.0187 -0.2142  0.0554
  148POPC   GL1 2200   3.923   5.602   8.070 -0.0818 -0.1803  0.1838
  148POPC   GL2 2201   4.289   5.576   7.963  0.0532  0.1064  0.3708
  148POPC   C1A 2202   3.904   5.537   7.666 -0.1642  0.0730  0.1916
  148POPC   D2A 2203   3.950   5.431   7.225 -0.0772 -0.0352  0.0327
  148POPC   C3A 2204   3.867   5.563   6.853 -0.0752 -0.0297 -0.0251
  148POPC   C4A 2205   3.789   5.734   6.431 -0.0132 -0.0501  0.1383
  148POPC   C1B 2206   4.360   5.755   7.557 -0.2225 -0.0115  0.5142
  148POPC   C2B 2207   4.341   5.810   7.042  0.0024 -0.2779 -0.1288
  148POPC   C3B 2208   4.340   5.707   6.717  0.1260  0.1073 -0.1206
  148POPC   C4B 2209   4.229   5.460   6.317  0.1044 -0.0080 -0.1688
  149POPC   NC3 2210   6.319   1.600   8.228 -0.0138  0.2377 -0.3130
  149POPC   PO4 2211   6.701   1.421   8.139  0.0091 -0.0303 -0.1671
  149POPC   GL1 2212   6.592   1.716   7.844  0.2363  0.0258 -0.1097
  149POPC   GL2 2213   6.362   2.002   7.886 -0.0855  0.4918 -0.1090
  149POPC   C1A 2214   6.783   1.929   7.475  0.0438 -0.1254 -0.0450
  149POPC   D2A 2215   6.731   1.785   7.044  0.1431 -0.0024 -0.1044
  149POPC   C3A 2216   6.485   2.095   6.761 -0.1641  0.0141  0.1601
  149POPC   C4A 2217   6.043   2.409   6.737 -0.1126  0.0364  0.0070
  149POPC   C1B 2218   6.467   2.416   7.607 -0.0326  0.1746  0.4655
  149POPC   C2B 2219   6.690   2.759   7.449 -0.0531  0.4560 -0.1498
  149POPC   C3B 2220   6.872   2.952   7.038  0.1822  0.1884 -0.0970
  149POPC   C4B 2221   6.829   3.237   6.829  0.0064 -0.3113 -0.0616
  150POPC   NC3 2222   5.149   8.494   4.573 -0.2763 -0.0776 -0.2748
  150POPC   PO4 2223   5.276   8.989   4.372 -0.0994  0.0060 -0.0591
  150POPC   GL1 2224   5.423   9.050   4.739 -0.1565  0.2171  0.2029
  150POPC   GL2 2225   5.624   9.037   4.732  0.5209 -0.1499 -0.0702
  150POPC   C1A 2226   5.563   9.126   5.145  0.4005 -0.3505 -0.3040
  150POPC   D2A 2227   5.684   9.162   5.579  0.2158 -0.2585 -0.1111
  150POPC   C3A 2228   6.114   8.937   5.666  0.2870 -0.0805 -0.0098
  150POPC   C4A 2229   6.615   8.883   5.691  0.0223  0.0729  0.0401
  150POPC   C1B 2230   6.033   9.060   5.061 -0.1176 -0.0115  0.1299
  150POPC   C2B 2231   6.208   8.746   5.237  0.1419  0.2732 -0.0988
  150POPC   C3B 2232   6.265   8.498   5.544 -0.2623  0.0829 -0.0735
  150POPC   C4B 2233   6.231   8.102   5.743 -0.2442 -0.3326 -0.0204
  151POPC   NC3 2234   6.674   2.883   4.085  0.2582  0.2800  0.1194
  151POPC   PO4 2235   6.959   2.736   4.342  0.0106  0.0893  0.2880
  151POPC   GL1 2236   6.895   2.826   4.845  0.1763 -0.0733 -0.1177
  151POPC   GL2 2237   6.744   2.963   4.936 -0.1009 -0.0203  0.0897
  151POPC   C1A 2238   6.974   2.916   5.349  0.2144  0.2789 -0.0455
  151POPC   D2A 2239   6.951   3.078   5.678  0.1354 -0.2641  0.1470
  151POPC   C3A 2240   7.214   2.893   5.996  0.0879 -0.1515 -0.0299
  151POPC   C4A 2241   7.400   2.523   6.298 -0.2233  0.0242  0.0150
  151POPC   C1B 2242   6.466   3.016   5.324 -0.0536 -0.1464  0.1954
  151POPC   C2B 2243   6.441   3.020   5.740 -0.1447  0.0114 -0.0556
  151POPC   C3B 2244   6.156   2.800   5.941 -0.0207  0.0619  0.0443
  151POPC   C4B 2245   6.160   2.509   6.236  0.0945  0.1310 -0.0908
  152POPC   NC3 2246   5.060   9.416   3.724 -0.0548  0.0587 -0.2406
  152POPC   PO4 2247   4.993   9.331   4.150 -0.2232  0.0883  0.2779
  152POPC   GL1 2248   4.785   9.209   4.590  0.0762  0.2465  0.0552
  152POPC   GL2 2249   4.893   8.960   4.708 -0.1523  0.1134  0.2148
  152POPC   C1A 2250   4.583   9.395   4.944  0.0545 -0.1502 -0.4011
  152POPC   D2A 2251   4.323   9.593   5.288 -0.0822 -0.0161  0.1232
  152POPC   C3A 2252   3.923   9.700   5.189  0.3496 -0.3505  0.1074
  152POPC   C4A 2253   3.680   9.952   4.930  0.1788  0.3725 -0.0909
  152POPC   C1B 2254   4.648   8.829   5.063  0.2462 -0.1803 -0.1213
  152POPC   C2B 2255   4.449   8.841   5.559 -0.0032 -0.1845 -0.0038
  152POPC   C3B 2256   3.967   8.849   5.727 -0.1072  0.2274  0.0705
  152POPC   C4B 2257   3.853   9.126   6.044  0.2320  0.0806  0.3850
  153POPC   NC3 2258   7.279   5.325   4.207  0.1064  0.2458  0.2136
  153POPC   PO4 2259   7.009   5.401   4.496  0.1513  0.2133 -0.0728
  153POPC   GL1 2260   7.032   5.241   4.866 -0.0953  0.0953  0.1248
  153POPC   GL2 2261   6.778   4.983   4.970  0.0384  0.0156  0.0043
  153POPC   C1A 2262   6.908   5.395   5.279 -0.0208  0.0011 -0.1601
  153POPC   D2A 2263   6.865   5.334   5.690  0.2347 -0.1456 -0.0298
  153POPC   C3A 2264   6.772   5.668   6.018  0.3381 -0.0848  0.0443
  153POPC   C4A 2265   6.583   5.924   6.355 -0.1659 -0.2116 -0.1008
  153POPC   C1B 2266   6.910   4.901   5.359 -0.0324 -0.1181  0.2793
  153POPC   C2B 2267   6.894   4.847   5.742 -0.2254  0.2283  0.1047
  153POPC   C3B 2268   7.066   5.039   6.191 -0.0057  0.1624 -0.2018
  153POPC   C4B 2269   7.119   5.425   6.435 -0.1924  0.1704  0.1746
  154POPC   NC3 2270   8.262   4.281   4.212 -0.1280 -0.0463  0.1871
  154POPC   PO4 2271   8.264   4.734   4.345  0.1159 -0.0570 -0.3395
  154POPC   GL1 2272   8.577   4.638   4.661 -0.0547 -0.3442 -0.2101
  154POPC   GL2 2273   8.410   4.372   4.779 -0.1467  0.0756  0.0914
  154POPC   C1A 2274   8.720   4.863   4.971 -0.2256 -0.1675 -0.1234
  154POPC   D2A 2275   8.754   5.113   5.372 -0.0580  0.0276  0.2914
  154POPC   C3A 2276   8.505   5.467   5.428  0.0230  0.0729 -0.0565
  154POPC   C4A 2277   8.279   5.578   5.703 -0.0290 -0.0273  0.0506
  154POPC   C1B 2278   8.699   4.241   5.003 -0.1605  0.1899  0.1530
  154POPC   C2B 2279   9.060   4.489   5.220 -0.1721 -0.0928 -0.0554
  154POPC   C3B 2280   9.182   4.493   5.580  0.1608 -0.0051 -0.1473
  154POPC   C4B 2281   9.238   4.383   6.013  0.0089  0.1250 -0.1639
  155POPC   NC3 2282   5.174   3.783   4.027  0.0018  0.3909 -0.0933
  155POPC   PO4 2283   4.947   3.476   4.398 -0.1438 -0.1771  0.1328
  155POPC   GL1 2284   4.860   3.420   4.805  0.2089 -0.1107 -0.1253
  155POPC   GL2 2285   4.645   3.618   4.825 -0.0186 -0.2672  0.1264
  155POPC   C1A 2286   4.852   3.102   5.132 -0.0068  0.1592  0.1024
  155POPC   D2A 2287   4.864   2.673   5.188 -0.1831 -0.1333  0.1337
  155POPC   C3A 2288   4.940   2.509   5.656 -0.1566 -0.3247 -0.0149
  155POPC   C4A 2289   5.264   2.241   6.044 -0.1346 -0.0550 -0.0877
  155POPC   C1B 2290   4.855   3.690   5.224 -0.1098 -0.0920 -0.2522
  155POPC   C2B 2291   4.931   3.553   5.637 -0.0756 -0.1948 -0.0048
  155POPC   C3B 2292   4.923   3.366   6.053  0.1269  0.0678  0.3969
  155POPC   C4B 2293   5.062   3.293   6.475 -0.2076  0.1319 -0.2702
  156POPC   NC3 2294   3.771   3.005   4.907 -0.1488  0.2356 -0.1843
  156POPC   PO4 2295   3.809   3.464   5.048  0.1653 -0.1431  0.0098
  156POPC   GL1 2296   3.843   3.256   5.417 -0.1981 -0.2825  0.1125
  156POPC   GL2 2297   3.941   2.888   5.562 -0.2019 -0.0698  0.2636
  156POPC   C1A 2298   3.872   3.490   5.768  0.0258  0.1135  0.0437
  156POPC   D2A 2299   3.996   3.402   6.235  0.0007  0.3638  0.0436
  156POPC   C3A 2300   3.995   3.002   6.414 -0.0979  0.0237  0.1196
  156POPC   C4A 2301   4.196   2.984   6.732 -0.0013  0.0820  0.0017
  156POPC   C1B 2302   4.151   3.003   5.870  0.0136 -0.3303  0.2197
  156POPC   C2B 2303   4.407   3.134   6.216 -0.5119  0.4322  0.2215
  156POPC   C3B 2304   4.691   2.825   6.468 -0.4008  0.3199 -0.0895
  156POPC   C4B 2305   4.572   2.606   6.896  0.1733  0.3665 -0.1648
  157POPC   NC3 2306   7.613   0.184   4.619  0.0566 -0.3419  0.3111
  157POPC   PO4 2307   7.949   0.218   4.419  0.1027  0.1069  0.1282
  157POPC   GL1 2308   8.094   0.401   4.725  0.1543 -0.0004 -0.0338
  157POPC   GL2 2309   8.298   0.102   4.741 -0.2085 -0.3179  0.0870
  157POPC   C1A 2310   8.433   0.838   4.835 -0.3060 -0.1014  0.2590
  157POPC   D2A 2311   8.829   0.810   5.056  0.1253 -0.1357 -0.0775
  157POPC   C3A 2312   8.920   0.943   5.465 -0.0678 -0.0566 -0.2140
  157POPC   C4A 2313   9.187   0.890   5.866  0.0692 -0.0507 -0.0213
  157POPC   C1B 2314   8.413  -0.192   5.079  0.0043 -0.3546 -0.0689
  157POPC   C2B 2315   8.513  -0.078   5.454 -0.0172  0.2851 -0.2065
  157POPC   C3B 2316   8.699   0.034   5.855 -0.0054 -0.1892 -0.4777
  157POPC   C4B 2317   8.655   0.093   6.362 -0.1637  0.4298  0.2410
  158POPC   NC3 2318   9.931   9.208   3.361 -0.1290 -0.0775  0.0837
  158POPC   PO4 2319   9.540   8.976   3.627 -0.0458  0.1243 -0.0739
  158POPC   GL1 2320   9.374   9.136   3.877  0.0376 -0.0632  0.2813
  158POPC   GL2 2321   9.272   8.858   4.049 -0.1616 -0.1472  0.3927
  158POPC   C1A 2322   9.562   9.320   4.274 -0.0412 -0.0127 -0.0187
  158POPC   D2A 2323   9.723   9.396   4.684  0.0890 -0.1674  0.0130
  158POPC   C3A 2324  10.082   9.771   4.811  0.0018  0.0866 -0.2667
  158POPC   C4A 2325  10.078  10.039   5.210  0.0258  0.0659 -0.0638
  158POPC   C1B 2326   9.540   8.748   4.369  0.1366 -0.1311 -0.2759
  158POPC   C2B 2327   9.845   8.478   4.627  0.2806 -0.0049  0.3053
  158POPC   C3B 2328  10.139   8.366   4.929  0.1414 -0.0611  0.0403
  158POPC   C4B 2329  10.395   8.178   5.202 -0.1265 -0.2686  0.0366
  159POPC   NC3 2330   6.737   0.899   4.518 -0.2262 -0.0676 -0.1678
  159POPC   PO4 2331   7.130   1.097   4.374 -0.0989 -0.1119 -0.3574
  159POPC   GL1 2332   7.308   1.024   4.805  0.2505  0.0162 -0.0841
  159POPC   GL2 2333   6.994   0.972   5.012  0.0247  0.5932 -0.0894
  159POPC   C1A 2334   7.498   0.959   5.225 -0.3593  0.3226 -0.0969
  159POPC   D2A 2335   7.565   0.841   5.646 -0.1117  0.1990  0.2258
  159POPC   C3A 2336   7.510   0.426   5.892  0.0749 -0.2389  0.0472
  159POPC   C4A 2337   7.737   0.162   6.182 -0.1226  0.1039  0.1452
  159POPC   C1B 2338   6.944   1.002   5.426  0.0001 -0.1391  0.2041
  159POPC   C2B 2339   6.635   0.955   5.868  0.1763 -0.0114  0.0742
  159POPC   C3B 2340   6.245   0.969   6.266  0.2135 -0.0649 -0.1514
  159POPC   C4B 2341   6.058   0.538   6.516 -0.4413  0.4296  0.0440
  160POPC   NC3 2342   2.600   3.828   4.838 -0.1514  0.1427 -0.3715
  160POPC   PO4 2343   2.802   4.143   5.026 -0.0955  0.1910 -0.1430
  160POPC   GL1 2344   2.668   4.143   5.419  0.1434  0.0241 -0.2382
  160POPC   GL2 2345   2.573   4.482   5.447  0.0807 -0.4366 -0.0470
  160POPC   C1A 2346   2.784   4.087   5.774  0.0872  0.1569  0.1005
  160POPC   D2A 2347   2.738   4.216   6.230  0.1746  0.1933 -0.4460
  160POPC   C3A 2348   2.395   4.352   6.268  0.3259 -0.1026 -0.0103
  160POPC   C4A 2349   1.970   4.095   6.292  0.1529  0.0421  0.0546
  160POPC   C1B 2350   2.542   4.676   5.837 -0.1134 -0.1142  0.1671
  160POPC   C2B 2351   2.715   4.877   6.186 -0.4805  0.0463 -0.2003
  160POPC   C3B 2352   2.906   5.041   6.471 -0.0464  0.0224 -0.2033
  160POPC   C4B 2353   3.107   5.044   6.858 -0.2278  0.2554 -0.0208
  161POPC   NC3 2354   3.443   3.948   4.874  0.1535 -0.1412 -0.2674
  161POPC   PO4 2355   3.353   4.151   5.294  0.0627  0.1696  0.2646
  161POPC   GL1 2356   3.509   3.911   5.598 -0.0488 -0.0226  0.2255
  161POPC   GL2 2357   3.560   3.681   5.365  0.0692  0.1922 -0.1281
  161POPC   C1A 2358   3.756   4.039   5.935  0.3642  0.0869 -0.1852
  161POPC   D2A 2359   4.108   3.841   6.128  0.3159  0.2999 -0.0592
  161POPC   C3A 2360   4.170   3.892   6.514 -0.0746 -0.0570  0.0144
  161POPC   C4A 2361   4.226   3.664   6.870  0.1093 -0.1226 -0.1467
  161POPC   C1B 2362   3.353   3.336   5.620 -0.1454  0.4545  0.0245
  161POPC   C2B 2363   3.210   3.121   5.999  0.0396 -0.0634 -0.4577
  161POPC   C3B 2364   3.415   2.851   6.323  0.2547  0.2129  0.0182
  161POPC   C4B 2365   3.609   2.885   6.728 -0.0449 -0.0562  0.0123
  162POPC   NC3 2366   9.192   7.860   4.166  0.0984 -0.2106  0.0044
  162POPC   PO4 2367   9.103   8.298   4.100  0.3132 -0.1684  0.3883
  162POPC   GL1 2368   9.136   8.274   4.610 -0.1119 -0.1242 -0.0911
  162POPC   GL2 2369   8.921   8.506   4.841 -0.0138  0.0457 -0.0727
  162POPC   C1A 2370   9.414   8.478   4.925  0.0253  0.1953 -0.3663
  162POPC   D2A 2371   9.768   8.622   5.088  0.0901  0.0811  0.2247
  162POPC   C3A 2372   9.928   8.937   4.824  0.1043 -0.0169  0.0307
  162POPC   C4A 2373  10.223   9.333   4.772  0.0461  0.1087  0.1452
  162POPC   C1B 2374   8.945   8.543   5.280 -0.0201 -0.0859 -0.1551
  162POPC   C2B 2375   8.989   8.659   5.806 -0.2666  0.0137 -0.1001
  162POPC   C3B 2376   9.102   8.597   6.236  0.0455 -0.2812  0.1447
  162POPC   C4B 2377   9.016   8.853   6.526 -0.0306  0.0148  0.2517
  163POPC   NC3 2378   3.121   5.428   4.919  0.0218 -0.0522 -0.0418
  163POPC   PO4 2379   2.760   5.628   4.890  0.2132 -0.0772 -0.3834
  163POPC   GL1 2380   2.603   5.518   5.330 -0.3190 -0.0500 -0.2929
  163POPC   GL2 2381   2.441   5.906   5.487 -0.0561  0.0688 -0.1543
  163POPC   C1A 2382   2.623   5.488   5.769  0.0262  0.1111 -0.0216
  163POPC   D2A 2383   2.758   5.364   6.112  0.2101  0.0404 -0.3019
  163POPC   C3A 2384   3.142   5.235   6.052 -0.1629 -0.1137  0.1770
  163POPC   C4A 2385   3.505   4.985   5.909 -0.2059  0.1146 -0.0308
  163POPC   C1B 2386   2.190   6.286   5.673 -0.1556  0.3609  0.2499
  163POPC   C2B 2387   2.230   6.561   6.057 -0.1029 -0.2684 -0.2204
  163POPC   C3B 2388   2.147   6.687   6.522 -0.0084  0.0913 -0.1825
  163POPC   C4B 2389   2.198   6.893   6.818 -0.2691  0.1406 -0.4731
  164POPC   NC3 2390   5.563   7.538   4.097  0.1774  0.1358 -0.1459
  164POPC   PO4 2391   5.272   7.605   4.435 -0.2651  0.2936  0.2206
  164POPC   GL1 2392   5.196   7.569   4.797 -0.0298 -0.1371  0.2957
  164POPC   GL2 2393   5.612   7.575   4.930  0.1532 -0.0726  0.0510
  164POPC   C1A 2394   5.002   7.845   4.961 -0.1208 -0.1876  0.1475
  164POPC   D2A 2395   4.660   7.885   4.945  0.2712 -0.2750  0.0096
  164POPC   C3A 2396   4.456   7.756   5.307 -0.0409  0.2340  0.2465
  164POPC   C4A 2397   4.560   7.669   5.744  0.0043  0.0228 -0.1071
  164POPC   C1B 2398   5.395   7.514   5.302 -0.0195  0.1036 -0.1635
  164POPC   C2B 2399   5.279   7.741   5.684  0.2173  0.1937 -0.1323
  164POPC   C3B 2400   4.978   7.855   5.909 -0.1144 -0.2540 -0.1189
  164POPC   C4B 2401   5.018   8.191   6.275 -0.3739 -0.2228 -0.1416
  165POPC   NC3 2402   5.530   1.184   4.131  0.1921 -0.0300  0.1606
  165POPC   PO4 2403   5.891   1.310   4.137  0.0161 -0.3017 -0.4138
  165POPC   GL1 2404   5.990   1.247   4.582  0.0285  0.0585  0.0379
  165POPC   GL2 2405   6.293   1.052   4.610  0.0957 -0.0592 -0.0495
  165POPC   C1A 2406   5.939   1.277   5.023 -0.3236  0.0176 -0.0480
  165POPC   D2A 2407   5.993   0.982   5.351 -0.2467  0.1360 -0.0206
  165POPC   C3A 2408   5.736   0.888   5.701 -0.0172  0.0741  0.2329
  165POPC   C4A 2409   5.744   0.908   6.176 -0.3090 -0.1458  0.0023
  165POPC   C1B 2410   6.421   0.876   5.114  0.0130 -0.0191 -0.3238
  165POPC   C2B 2411   6.441   1.082   5.472  0.0670 -0.1005  0.2955
  165POPC   C3B 2412   6.239   1.286   5.782 -0.1153 -0.1688  0.1092
  165POPC   C4B 2413   6.184   1.435   6.215  0.1557 -0.0473 -0.2765
  166POPC   NC3 2414   6.001   8.677   4.639  0.2647  0.2369  0.0778
  166POPC   PO4 2415   5.614   8.611   4.470 -0.1826 -0.1167 -0.1024
  166POPC   GL1 2416   5.695   8.644   4.979 -0.0659 -0.1578  0.1026
  166POPC   GL2 2417   5.307   8.652   5.111  0.2731  0.0568  0.0514
  166POPC   C1A 2418   5.756   8.619   5.488  0.1204 -0.1126 -0.2203
  166POPC   D2A 2419   5.766   8.383   6.003  0.0959 -0.1629 -0.0256
  166POPC   C3A 2420   5.542   8.430   6.422 -0.2658 -0.2144  0.2426
  166POPC   C4A 2421   5.353   8.299   6.717  0.0389 -0.0875  0.2620
  166POPC   C1B 2422   5.212   8.844   5.492 -0.1877  0.0599  0.3003
  166POPC   C2B 2423   5.120   8.976   5.767 -0.2214  0.0709 -0.1930
  166POPC   C3B 2424   4.835   9.172   5.965 -0.0951 -0.2976 -0.2226
  166POPC   C4B 2425   4.598   9.514   6.109 -0.2878 -0.3627  0.2692
  167POPC   NC3 2426   3.239   8.382   3.562 -0.0097 -0.0941 -0.1196
  167POPC   PO4 2427   2.871   8.164   3.620 -0.0114 -0.2677  0.0587
  167POPC   GL1 2428   2.813   8.526   3.899  0.1913  0.1879 -0.1656
  167POPC   GL2 2429   2.747   8.975   3.829 -0.2371 -0.3737 -0.1193
  167POPC   C1A 2430   2.658   8.745   4.282 -0.0728 -0.1117 -0.1456
  167POPC   D2A 2431   2.669   8.905   4.801 -0.0288 -0.1429  0.1808
  167POPC   C3A 2432   2.974   9.187   4.990  0.1126  0.2156 -0.1250
  167POPC   C4A 2433   3.217   9.310   5.379 -0.2190  0.1460  0.2679
  167POPC   C1B 2434   3.023   9.159   4.220  0.0436  0.2013  0.2882
  167POPC   C2B 2435   3.166   9.033   4.562 -0.2509  0.1759  0.0146
  167POPC   C3B 2436   3.155   8.684   4.868  0.1205 -0.1514 -0.0687
  167POPC   C4B 2437   3.153   8.318   5.046 -0.2112 -0.2291  0.4750
  168POPC   NC3 2438   0.844   6.972   4.424  0.0118 -0.0886  0.0079
  168POPC   PO4 2439   0.514   6.712   4.483  0.0488  0.0760  0.1850
  168POPC   GL1 2440   0.594   6.678   4.950  0.2232  0.0661 -0.0671
  168POPC   GL2 2441   0.911   6.570   5.135  0.1223 -0.0166 -0.1909
  168POPC   C1A 2442   0.439   6.637   5.292  0.1913  0.2589  0.0248
  168POPC   D2A 2443   0.425   6.740   5.774  0.1501  0.0864 -0.1040
  168POPC   C3A 2444   0.690   6.822   6.197  0.1949  0.1150  0.2538
  168POPC   C4A 2445   0.668   6.966   6.567  0.3665 -0.2857 -0.3391
  168POPC   C1B 2446   1.300   6.551   5.521  0.4011  0.1457  0.2646
  168POPC   C2B 2447   1.610   6.694   5.719  0.0848 -0.0426  0.4293
  168POPC   C3B 2448   1.924   6.944   5.957 -0.0155  0.0376  0.3619
  168POPC   C4B 2449   2.249   7.103   6.262 -0.0109 -0.4883 -0.0235
  169POPC   NC3 2450   6.904   7.709   4.337  0.1518  0.0512 -0.0008
  169POPC   PO4 2451   6.427   7.686   4.387  0.1167  0.2330 -0.0085
  169POPC   GL1 2452   6.554   7.418   4.828 -0.2773 -0.0394 -0.1101
  169POPC   GL2 2453   6.234   7.358   4.982  0.1068 -0.1767 -0.0295
  169POPC   C1A 2454   6.905   7.546   5.086 -0.0198  0.0848 -0.0773
  169POPC   D2A 2455   7.216   7.794   5.272  0.2902  0.0661 -0.2650
  169POPC   C3A 2456   7.646   7.981   5.460  0.0684  0.1497  0.0258
  169POPC   C4A 2457   7.950   7.976   5.889 -0.2433 -0.1893 -0.0515
  169POPC   C1B 2458   6.405   7.238   5.392 -0.1103  0.2053 -0.3751
  169POPC   C2B 2459   6.124   6.921   5.621 -0.0707  0.4060  0.0037
  169POPC   C3B 2460   5.767   6.813   5.848 -0.0682 -0.0430 -0.4076
  169POPC   C4B 2461   5.703   6.605   6.317 -0.2475 -0.2199 -0.0947
  170POPC   NC3 2462   4.679   8.924   4.198 -0.1628  0.1299 -0.0265
  170POPC   PO4 2463   4.688   8.536   4.481 -0.0363  0.3000  0.2648
  170POPC   GL1 2464   4.586   8.412   4.775 -0.1543  0.1305 -0.0653
  170POPC   GL2 2465   4.924   8.329   5.030  0.0708 -0.5270  0.4077
  170POPC   C1A 2466   4.487   8.360   5.137 -0.0418 -0.0047 -0.2174
  170POPC   D2A 2467   4.471   8.189   5.532  0.2359  0.1925  0.0211
  170POPC   C3A 2468   4.318   8.435   5.862 -0.0973  0.2248  0.0544
  170POPC   C4A 2469   4.387   8.903   6.049  0.1093 -0.2856  0.3292
  170POPC   C1B 2470   4.870   8.530   5.420  0.1073 -0.1779 -0.3129
  170POPC   C2B 2471   4.791   8.515   5.929  0.1589  0.1317  0.3449
  170POPC   C3B 2472   4.862   8.689   6.303 -0.1899 -0.1239  0.1143
  170POPC   C4B 2473   4.743   9.085   6.454  0.0557  0.2083  0.0783
  171POPC   NC3 2474   8.436   1.436   3.676 -0.1630 -0.2348  0.2994
  171POPC   PO4 2475   8.868   1.532   3.631  0.4145  0.0434  0.0257
  171POPC   GL1 2476   8.813   1.662   4.093  0.0760 -0.1729 -0.0153
  171POPC   GL2 2477   8.968   1.968   4.281 -0.3423 -0.2081  0.1357
  171POPC   C1A 2478   9.104   1.491   4.478 -0.2838 -0.1092  0.0650
  171POPC   D2A 2479   9.532   1.177   4.618  0.1245 -0.0462  0.0686
  171POPC   C3A 2480   9.893   1.381   4.711 -0.0965 -0.1512 -0.0226
  171POPC   C4A 2481  10.207   1.248   4.695 -0.0163  0.0570 -0.2731
  171POPC   C1B 2482   8.904   1.909   4.688  0.0734 -0.2791  0.1965
  171POPC   C2B 2483   8.807   2.172   4.985  0.0938 -0.0483  0.3079
  171POPC   C3B 2484   8.959   2.427   5.268 -0.0861 -0.2522  0.1826
  171POPC   C4B 2485   9.116   2.782   5.377  0.1555 -0.0854 -0.0225
  172POPC   NC3 2486   1.499   1.940   3.662  0.1346 -0.1389  0.1764
  172POPC   PO4 2487   1.715   1.541   3.523  0.3867  0.0254 -0.3669
  172POPC   GL1 2488   1.832   1.608   3.948  0.0091  0.1002 -0.0000
  172POPC   GL2 2489   1.591   1.675   4.046 -0.1126  0.0475 -0.0861
  172POPC   C1A 2490   2.128   1.622   4.390 -0.2350 -0.2146 -0.0013
  172POPC   D2A 2491   2.231   1.441   4.826  0.0665  0.1892  0.3431
  172POPC   C3A 2492   2.155   1.046   5.037 -0.0642 -0.0939 -0.0962
  172POPC   C4A 2493   2.125   0.897   5.474 -0.0506  0.2569  0.1071
  172POPC   C1B 2494   1.417   1.433   4.366 -0.1843 -0.1509  0.1228
  172POPC   C2B 2495   1.322   1.138   4.782  0.3111 -0.1779 -0.0445
  172POPC   C3B 2496   1.364   0.701   4.763  0.0834  0.4260 -0.0530
  172POPC   C4B 2497   1.667   0.295   4.701  0.1821 -0.1503 -0.2323
  173POPC   NC3 2498   9.763   5.960   4.619 -0.0130  0.0995 -0.1852
  173POPC   PO4 2499   9.476   5.586   4.655 -0.3656 -0.0548  0.0879
  173POPC   GL1 2500   9.699   5.400   5.043 -0.1727  0.2554 -0.0735
  173POPC   GL2 2501   9.978   5.671   5.023 -0.3058  0.3884  0.1728
  173POPC   C1A 2502   9.622   5.624   5.431  0.1607  0.3199  0.0542
  173POPC   D2A 2503   9.435   5.711   5.836 -0.0910 -0.0525  0.3316
  173POPC   C3A 2504   9.107   5.581   6.222  0.1411 -0.2037 -0.2284
  173POPC   C4A 2505   8.930   5.653   6.527  0.1050 -0.2401  0.0276
  173POPC   C1B 2506  10.026   5.974   5.463  0.0115  0.0939 -0.3857
  173POPC   C2B 2507  10.203   6.264   5.768 -0.0721 -0.0151  0.0220
  173POPC   C3B 2508  10.270   6.310   6.176  0.1204  0.1120  0.1178
  173POPC   C4B 2509  10.340   6.426   6.594  0.1339  0.1559 -0.2223
  174POPC   NC3 2510   8.730   0.031   3.415 -0.3752  0.2501 -0.1024
  174POPC   PO4 2511   8.638  -0.047   3.812 -0.2336 -0.3350  0.1393
  174POPC   GL1 2512   8.755  -0.124   4.192  0.2318 -0.0579  0.1651
  174POPC   GL2 2513   8.990   0.123   4.164 -0.0535  0.0410  0.2106
  174POPC   C1A 2514   8.717  -0.182   4.577 -0.1164 -0.1436  0.0865
  174POPC   D2A 2515   8.891  -0.080   4.988 -0.0715  0.2734  0.1313
  174POPC   C3A 2516   8.873  -0.407   5.383  0.0603  0.1212  0.2624
  174POPC   C4A 2517   8.950  -0.442   5.818 -0.1489  0.0542  0.2386
  174POPC   C1B 2518   9.066   0.171   4.606  0.2405 -0.0167  0.1179
  174POPC   C2B 2519   9.179   0.573   4.825  0.1129 -0.0925 -0.1321
  174POPC   C3B 2520   9.554   0.766   4.978  0.0805  0.2364  0.0585
  174POPC   C4B 2521   9.910   0.984   5.101 -0.3734 -0.3425 -0.0565
  175POPC   NC3 2522   8.134   2.842   4.592  0.1745  0.1187  0.0960
  175POPC   PO4 2523   8.303   2.549   4.227 -0.0341 -0.2762  0.1736
  175POPC   GL1 2524   8.345   2.351   4.633 -0.1706  0.0935 -0.3242
  175POPC   GL2 2525   8.420   2.020   4.567 -0.0620 -0.0186 -0.0022
  175POPC   C1A 2526   8.253   2.338   5.098 -0.1338 -0.3320 -0.1322
  175POPC   D2A 2527   7.985   1.994   5.368  0.1046 -0.3586  0.4686
  175POPC   C3A 2528   8.141   1.575   5.660  0.0172 -0.0540 -0.4027
  175POPC   C4A 2529   8.196   1.229   5.949 -0.4845  0.2099  0.1179
  175POPC   C1B 2530   8.426   1.840   5.068  0.0495 -0.3307  0.0843
  175POPC   C2B 2531   8.551   1.863   5.480 -0.0869  0.0702 -0.1021
  175POPC   C3B 2532   8.979   1.733   5.607 -0.0016 -0.3248  0.1199
  175POPC   C4B 2533   9.311   1.407   5.554 -0.3773  0.1071  0.1297
  176POPC   NC3 2534   1.709   3.514   4.729  0.0241  0.1659  0.0761
  176POPC   PO4 2535   1.843   3.239   4.460  0.1600  0.0750  0.1656
  176POPC   GL1 2536   1.904   3.030   4.829  0.2279  0.1889  0.2633
  176POPC   GL2 2537   1.938   2.724   4.794  0.1529  0.2029 -0.2632
  176POPC   C1A 2538   2.149   2.935   5.196  0.0341 -0.0626  0.1073
  176POPC   D2A 2539   2.425   3.001   5.581 -0.1163 -0.1893  0.2543
  176POPC   C3A 2540   2.416   2.724   5.803 -0.1413  0.0260 -0.1198
  176POPC   C4A 2541   2.358   2.482   6.084  0.3953  0.2040 -0.0277
  176POPC   C1B 2542   1.577   2.614   4.996  0.1384 -0.6812 -0.1905
  176POPC   C2B 2543   1.652   2.510   5.472  0.0829 -0.3460  0.0011
  176POPC   C3B 2544   1.869   2.651   5.840 -0.0065  0.1451  0.2706
  176POPC   C4B 2545   1.959   2.912   6.146  0.2871 -0.1188 -0.4369
  177POPC   NC3 2546   4.686   0.963   3.922 -0.0474  0.1900 -0.1193
  177POPC   PO4 2547   4.541   0.674   4.153  0.0535 -0.0603  0.0451
  177POPC   GL1 2548   4.282   0.780   4.411  0.2923 -0.0011 -0.0925
  177POPC   GL2 2549   4.293   1.149   4.374 -0.0283 -0.0485 -0.2706
  177POPC   C1A 2550   4.404   0.924   4.831 -0.2306  0.1221 -0.2882
  177POPC   D2A 2551   4.630   0.854   5.260  0.1762 -0.0087  0.0461
  177POPC   C3A 2552   4.812   1.214   5.605  0.1141  0.1189  0.0717
  177POPC   C4A 2553   4.944   1.494   5.937  0.0544 -0.1338 -0.4632
  177POPC   C1B 2554   3.919   1.294   4.546  0.2936  0.0468 -0.0135
  177POPC   C2B 2555   3.606   1.468   4.785  0.0707 -0.0562  0.2164
  177POPC   C3B 2556   3.466   1.561   5.172  0.0920  0.0629  0.0066
  177POPC   C4B 2557   3.255   1.457   5.509 -0.2235  0.1718 -0.2652
  178POPC   NC3 2558   7.396   7.793   4.668 -0.2506 -0.0706  0.5664
  178POPC   PO4 2559   7.349   7.401   4.497  0.0048  0.1345 -0.2414
  178POPC   GL1 2560   7.631   7.336   4.823  0.1641  0.0893  0.2969
  178POPC   GL2 2561   8.026   7.332   4.881 -0.3169 -0.1007 -0.2552
  178POPC   C1A 2562   7.629   7.508   5.252  0.1046  0.1594  0.0054
  178POPC   D2A 2563   7.796   7.565   5.611 -0.0149 -0.1023 -0.0447
  178POPC   C3A 2564   7.971   7.227   5.816 -0.0765 -0.0823  0.1030
  178POPC   C4A 2565   8.113   6.878   5.687  0.2219 -0.0191  0.0239
  178POPC   C1B 2566   8.077   7.329   5.342  0.0992 -0.1469  0.2239
  178POPC   C2B 2567   8.394   7.403   5.608 -0.1590  0.1795  0.2592
  178POPC   C3B 2568   8.765   7.392   5.959  0.0089  0.1351  0.2094
  178POPC   C4B 2569   8.910   7.589   6.357  0.0172 -0.0557 -0.3241
  179POPC   NC3 2570   5.952   9.773   3.974 -0.1205  0.0328 -0.1251
  179POPC   PO4 2571   5.666   9.843   4.264  0.0093  0.2709  0.0478
  179POPC   GL1 2572   5.587   9.797   4.755 -0.2842  0.1314 -0.0559
  179POPC   GL2 2573   5.664   9.558   4.946 -0.2205 -0.2449 -0.3169
  179POPC   C1A 2574   5.469  10.058   5.178 -0.0932 -0.0727 -0.1292
  179POPC   D2A 2575   5.201  10.123   5.493  0.1257  0.2016  0.1023
  179POPC   C3A 2576   5.360   9.984   5.823 -0.0683  0.0573 -0.2657
  179POPC   C4A 2577   5.568   9.639   5.853  0.1238 -0.0546 -0.0681
  179POPC   C1B 2578   5.505   9.588   5.340  0.1923  0.0870 -0.0391
  179POPC   C2B 2579   5.232   9.501   5.570 -0.0178  0.0488  0.2147
  179POPC   C3B 2580   5.021   9.665   5.911 -0.1153 -0.0751  0.1229
  179POPC   C4B 2581   4.938   9.902   6.185 -0.2096  0.1505 -0.0700
  180POPC   NC3 2582   6.318   0.519   4.615 -0.1834  0.0506 -0.0083
  180POPC   PO4 2583   6.698   0.345   4.741  0.0798  0.0670 -0.1695
  180POPC   GL1 2584   6.875   0.334   5.150  0.0704 -0.1337 -0.0876
  180POPC   GL2 2585   6.650   0.428   5.328 -0.1189 -0.0994  0.1648
  180POPC   C1A 2586   7.165   0.546   5.500  0.0156  0.0083 -0.0510
  180POPC   D2A 2587   7.149   0.816   5.846 -0.0691 -0.0910  0.0389
  180POPC   C3A 2588   7.129   1.167   6.056  0.0263  0.2083  0.0335
  180POPC   C4A 2589   7.218   1.368   6.431 -0.1119  0.0342 -0.1061
  180POPC   C1B 2590   6.725   0.401   5.722  0.1842 -0.2245 -0.1395
  180POPC   C2B 2591   7.035   0.345   5.939  0.1278  0.0170 -0.0312
  180POPC   C3B 2592   7.025   0.049   6.145 -0.0464 -0.0154  0.0369
  180POPC   C4B 2593   7.266  -0.180   6.450 -0.1587  0.0969  0.0407
  181POPC   NC3 2594   7.979   9.383   4.064  0.1885  0.3032 -0.0308
  181POPC   PO4 2595   7.624   9.072   4.236  0.0038 -0.3643 -0.2897
  181POPC   GL1 2596   7.825   9.173   4.572 -0.1540  0.1456 -0.0867
  181POPC   GL2 2597   7.550   9.111   4.860 -0.0990  0.2094 -0.1130
  181POPC   C1A 2598   7.984   9.521   4.956 -0.0200  0.0319  0.3167
  181POPC   D2A 2599   7.860   9.975   5.037  0.0954 -0.3450  0.0970
  181POPC   C3A 2600   8.164  10.160   5.242 -0.1462  0.0782 -0.4251
  181POPC   C4A 2601   8.328  10.269   5.632  0.0461  0.0820 -0.1018
  181POPC   C1B 2602   7.283   9.134   5.067  0.0965 -0.0663  0.2909
  181POPC   C2B 2603   7.025   8.786   5.231 -0.0449 -0.0712 -0.0935
  181POPC   C3B 2604   6.783   8.511   5.431 -0.1678  0.3332 -0.2651
  181POPC   C4B 2605   6.681   8.393   5.857  0.0617  0.0651  0.1047
  182POPC   NC3 2606   2.506   5.116   5.015  0.2583 -0.0132 -0.1805
  182POPC   PO4 2607   2.871   4.997   5.219 -0.1844 -0.2441 -0.2139
  182POPC   GL1 2608   2.974   5.137   5.608  0.0406  0.2722 -0.2452
  182POPC   GL2 2609   3.082   4.835   5.716 -0.2918 -0.0489 -0.0880
  182POPC   C1A 2610   3.141   5.610   5.716  0.0302  0.1416  0.1019
  182POPC   D2A 2611   3.030   5.992   6.018 -0.1546 -0.0321  0.3400
  182POPC   C3A 2612   2.853   5.760   6.419 -0.1101 -0.0208  0.0462
  182POPC   C4A 2613   2.945   5.572   6.664  0.1116 -0.3073  0.0241
  182POPC   C1B 2614   3.065   4.438   5.908 -0.0210 -0.0418  0.0464
  182POPC   C2B 2615   3.221   3.954   6.005  0.0606  0.2525 -0.1535
  182POPC   C3B 2616   3.447   3.599   6.028 -0.1384 -0.2167  0.1832
  182POPC   C4B 2617   3.683   3.106   5.948  0.3015 -0.0254 -0.0754
  183POPC   NC3 2618   8.161   6.793   4.228  0.0165  0.0072  0.0137
  183POPC   PO4 2619   8.075   6.482   4.526 -0.0802 -0.2247  0.0778
  183POPC   GL1 2620   8.273   6.381   4.892  0.1379 -0.2797 -0.0530
  183POPC   GL2 2621   8.069   6.399   5.108 -0.0744  0.1228  0.2216
  183POPC   C1A 2622   8.477   6.483   5.317 -0.1457 -0.1055 -0.0966
  183POPC   D2A 2623   8.547   6.595   5.746 -0.1256 -0.0248 -0.0867
  183POPC   C3A 2624   8.176   6.585   6.073  0.1288  0.1179 -0.2514
  183POPC   C4A 2625   8.196   6.684   6.442  0.1555 -0.2375 -0.1454
  183POPC   C1B 2626   7.865   6.382   5.605  0.1769 -0.1780  0.1375
  183POPC   C2B 2627   7.672   6.695   5.938 -0.0376 -0.0000 -0.0704
  183POPC   C3B 2628   7.703   6.644   6.444 -0.3009 -0.2067  0.0114
  183POPC   C4B 2629   7.910   6.772   6.844  0.0661  0.0358 -0.2867
  184POPC   NC3 2630   3.567   9.603   3.572  0.0439 -0.1114 -0.1294
  184POPC   PO4 2631   3.552   9.140   3.730  0.0543 -0.2328 -0.1008
  184POPC   GL1 2632   3.681   9.023   4.155  0.1186  0.0994  0.2893
  184POPC   GL2 2633   3.767   8.758   4.233 -0.0345  0.2397 -0.0279
  184POPC   C1A 2634   3.615   9.290   4.369 -0.4589 -0.1764  0.0229
  184POPC   D2A 2635   3.729   9.422   4.784 -0.2139  0.3759 -0.0652
  184POPC   C3A 2636   4.030   9.274   4.949 -0.3880 -0.0366 -0.2059
  184POPC   C4A 2637   4.211   9.125   5.248  0.0531 -0.1354 -0.0882
  184POPC   C1B 2638   3.371   8.568   4.445  0.3012 -0.0598 -0.0823
  184POPC   C2B 2639   2.956   8.411   4.484 -0.2539 -0.2453 -0.0717
  184POPC   C3B 2640   2.652   8.265   4.757 -0.0855  0.1550  0.0149
  184POPC   C4B 2641   2.573   7.913   5.007 -0.1176  0.1095  0.1577
  185POPC   NC3 2642   0.764   6.211   4.667 -0.1199  0.0152 -0.0466
  185POPC   PO4 2643   1.139   6.082   4.679 -0.0910 -0.1439 -0.1655
  185POPC   GL1 2644   1.030   6.027   5.150 -0.1460 -0.1216  0.2927
  185POPC   GL2 2645   1.238   5.965   5.483  0.0647  0.3002  0.0170
  185POPC   C1A 2646   0.822   6.285   5.513 -0.0308 -0.0256 -0.2651
  185POPC   D2A 2647   0.743   6.421   5.935 -0.0635  0.1930 -0.2649
  185POPC   C3A 2648   0.888   6.386   6.343 -0.0604 -0.1083  0.2185
  185POPC   C4A 2649   0.855   6.550   6.729  0.0886  0.0183  0.3272
  185POPC   C1B 2650   1.027   5.915   5.844 -0.4970 -0.0857 -0.0769
  185POPC   C2B 2651   0.934   5.475   6.071  0.0660 -0.1780  0.0616
  185POPC   C3B 2652   0.789   5.144   6.382  0.1136  0.2064 -0.1315
  185POPC   C4B 2653   0.726   4.836   6.618  0.3328 -0.3704 -0.2090
  186POPC   NC3 2654   9.176   3.716   4.511 -0.4668  0.1405  0.3050
  186POPC   PO4 2655   9.054   3.211   4.640 -0.1634  0.1525 -0.1083
  186POPC   GL1 2656   8.983   3.536   4.912  0.3879  0.4999  0.1532
  186POPC   GL2 2657   9.129   3.903   4.958  0.0742 -0.1081 -0.2827
  186POPC   C1A 2658   8.661   3.673   5.266 -0.0438 -0.0976 -0.2540
  186POPC   D2A 2659   8.573   4.086   5.553 -0.1470  0.1631  0.1220
  186POPC   C3A 2660   8.660   4.394   5.897  0.2565 -0.0391  0.2134
  186POPC   C4A 2661   8.850   4.489   6.368  0.0759 -0.0433 -0.0925
  186POPC   C1B 2662   9.025   3.999   5.400  0.1320 -0.1825  0.2465
  186POPC   C2B 2663   9.000   3.932   5.806 -0.0143  0.0086 -0.6228
  186POPC   C3B 2664   8.847   3.754   6.191  0.1193 -0.1187  0.1654
  186POPC   C4B 2665   8.510   3.567   6.436 -0.0803 -0.0369  0.1962
  187POPC   NC3 2666   0.123   7.899   3.755 -0.1307 -0.0943  0.2206
  187POPC   PO4 2667  -0.158   7.714   4.070  0.0754  0.1054  0.4264
  187POPC   GL1 2668  -0.258   7.781   4.539  0.0448 -0.0294  0.3700
  187POPC   GL2 2669  -0.388   7.934   4.669 -0.0858  0.2409  0.0007
  187POPC   C1A 2670  -0.067   7.435   4.887  0.0951 -0.4303  0.1877
  187POPC   D2A 2671   0.122   7.540   5.353  0.2798  0.0126  0.0723
  187POPC   C3A 2672   0.146   7.581   5.764  0.2544 -0.0300  0.0152
  187POPC   C4A 2673   0.119   7.847   6.144 -0.1051 -0.2821  0.4894
  187POPC   C1B 2674  -0.247   8.070   5.034  0.0288  0.0922 -0.0829
  187POPC   C2B 2675   0.031   8.041   5.385 -0.5233  0.2681  0.0151
  187POPC   C3B 2676   0.254   8.118   5.715  0.0464  0.1206 -0.0422
  187POPC   C4B 2677   0.558   8.231   5.965 -0.1458  0.1042 -0.0524
  188POPC   NC3 2678   1.560   4.450   4.665  0.0058  0.0311 -0.0202
  188POPC   PO4 2679   1.304   4.430   5.009 -0.0133 -0.0290  0.2129
  188POPC   GL1 2680   1.558   4.425   5.436  0.1058 -0.0501 -0.3320
  188POPC   GL2 2681   1.431   4.736   5.555 -0.1141 -0.0087  0.1501
  188POPC   C1A 2682   1.592   4.240   5.814 -0.0813  0.2438 -0.5282
  188POPC   D2A 2683   1.611   3.908   6.087  0.1179 -0.1008  0.1253
  188POPC   C3A 2684   1.481   3.823   6.575  0.1453 -0.3371  0.1480
  188POPC   C4A 2685   1.245   3.940   6.947  0.1406 -0.2243 -0.0288
  188POPC   C1B 2686   1.410   4.626   6.024 -0.1976  0.0264 -0.1298
  188POPC   C2B 2687   1.188   4.698   6.410 -0.3648  0.0358  0.0862
  188POPC   C3B 2688   1.119   4.836   6.897 -0.1404 -0.0668  0.1099
  188POPC   C4B 2689   1.034   4.832   7.305  0.1615  0.0525  0.2629
  189POPC   NC3 2690   0.514   0.139   2.659  0.1841  0.1202  0.2461
  189POPC   PO4 2691   0.908   0.265   2.755 -0.0609 -0.1660 -0.0716
  189POPC   GL1 2692   1.026   0.222   3.218  0.2284 -0.1857  0.2339
  189POPC   GL2 2693   1.133   0.504   3.361 -0.0261  0.3147  0.0473
  189POPC   C1A 2694   0.674   0.054   3.408 -0.0851 -0.1082  0.0100
  189POPC   D2A 2695   0.343   0.341   3.547  0.1904  0.2157  0.5678
  189POPC   C3A 2696   0.081   0.169   3.917  0.0218  0.3525 -0.0917
  189POPC   C4A 2697  -0.201   0.311   4.233 -0.1961 -0.2992 -0.0855
  189POPC   C1B 2698   0.838   0.452   3.642  0.0713  0.3006  0.1621
  189POPC   C2B 2699   0.592   0.257   4.005  0.0817 -0.3788  0.2004
  189POPC   C3B 2700   0.742   0.273   4.483 -0.0730  0.3031  0.1271
  189POPC   C4B 2701   0.876   0.478   4.785 -0.1165  0.0184 -0.0261
  190POPC   NC3 2702   4.893   1.576   3.642 -0.0979  0.0581 -0.3951
  190POPC   PO4 2703   5.052   1.353   3.997 -0.0893 -0.0889 -0.1093
  190POPC   GL1 2704   5.259   1.461   4.429  0.1254  0.2163 -0.0430
  190POPC   GL2 2705   5.522   1.601   4.434 -0.0013  0.1591 -0.0755
  190POPC   C1A 2706   4.982   1.516   4.735 -0.1629 -0.1393  0.3982
  190POPC   D2A 2707   4.789   1.271   4.953  0.5229 -0.0549  0.1872
  190POPC   C3A 2708   4.469   1.327   5.323 -0.0114  0.0182 -0.1993
  190POPC   C4A 2709   4.124   1.113   5.516 -0.1941 -0.0781 -0.0225
  190POPC   C1B 2710   5.545   1.466   4.856  0.0486  0.0142  0.1669
  190POPC   C2B 2711   5.249   1.252   5.166 -0.1558  0.0855 -0.1351
  190POPC   C3B 2712   5.297   1.136   5.611  0.0984 -0.1539 -0.4041
  190POPC   C4B 2713   5.289   1.095   6.045 -0.0815  0.0832  0.1120
  191POPC   NC3 2714   4.272   0.062   3.172  0.0385  0.0820  0.2051
  191POPC   PO4 2715   4.036  -0.125   3.550  0.0414  0.2486 -0.0454
  191POPC   GL1 2716   3.833  -0.021   3.865 -0.3706  0.2967  0.1342
  191POPC   GL2 2717   3.839  -0.351   3.998  0.0022 -0.1868 -0.1293
  191POPC   C1A 2718   3.856   0.115   4.304  0.2432  0.0719  0.0636
  191POPC   D2A 2719   4.035   0.295   4.648  0.2531 -0.0468  0.3872
  191POPC   C3A 2720   4.077   0.243   5.066  0.0657 -0.0084 -0.0955
  191POPC   C4A 2721   4.106   0.655   5.239 -0.1112 -0.2526 -0.0982
  191POPC   C1B 2722   4.064  -0.345   4.361 -0.3286  0.1312 -0.1271
  191POPC   C2B 2723   4.148  -0.205   4.740  0.0998  0.1313  0.0715
  191POPC   C3B 2724   4.544  -0.008   4.992  0.0198  0.0686  0.3000
  191POPC   C4B 2725   4.474   0.442   4.878 -0.1410 -0.0299  0.2235
  192POPC   NC3 2726   5.764   4.484   4.696  0.3539  0.0419  0.2546
  192POPC   PO4 2727   5.356   4.280   4.536  0.0353 -0.0560 -0.1075
  192POPC   GL1 2728   5.501   4.149   4.956  0.1558 -0.0037 -0.0773
  192POPC   GL2 2729   5.422   3.689   5.007 -0.1409  0.2652  0.1061
  192POPC   C1A 2730   5.263   3.953   5.338  0.2634  0.3285  0.1620
  192POPC   D2A 2731   5.506   3.709   5.515  0.0908 -0.1189  0.2051
  192POPC   C3A 2732   5.414   3.314   5.757 -0.0048  0.2346 -0.0531
  192POPC   C4A 2733   5.396   3.423   6.068  0.1080  0.2807 -0.0525
  192POPC   C1B 2734   5.229   3.344   5.276 -0.3569 -0.0754  0.1696
  192POPC   C2B 2735   5.165   2.906   5.522 -0.0004 -0.1979 -0.0396
  192POPC   C3B 2736   5.209   2.814   5.921  0.4512  0.0454 -0.1296
  192POPC   C4B 2737   5.233   2.662   6.281  0.0159 -0.3241 -0.2333
  193POPC   NC3 2738   0.428   6.258   4.228 -0.2429  0.1133 -0.0436
  193POPC   PO4 2739   0.145   6.335   4.617 -0.0505  0.0700 -0.0833
  193POPC   GL1 2740   0.107   6.556   4.994  0.1675  0.1258  0.1382
  193POPC   GL2 2741  -0.037   6.839   4.995 -0.0635  0.1673  0.1133
  193POPC   C1A 2742  -0.066   6.491   5.375 -0.1734  0.0460  0.3323
  193POPC   D2A 2743  -0.103   6.648   5.802  0.0934 -0.2442 -0.0216
  193POPC   C3A 2744  -0.240   6.357   6.174  0.0731  0.0884  0.1939
  193POPC   C4A 2745   0.058   6.004   6.448 -0.0295 -0.1640  0.0034
  193POPC   C1B 2746  -0.076   7.117   5.259 -0.2378  0.1310 -0.0218
  193POPC   C2B 2747  -0.148   7.139   5.689  0.0268  0.2092 -0.1847
  193POPC   C3B 2748  -0.071   7.303   6.112  0.0105 -0.1196  0.2242
  193POPC   C4B 2749  -0.162   7.602   6.416  0.0266 -0.3776  0.2827
  194POPC   NC3 2750   1.677   6.697   4.792 -0.0067  0.0603  0.3171
  194POPC   PO4 2751   2.115   6.466   4.776  0.1402 -0.2683  0.2436
  194POPC   GL1 2752   2.198   6.552   5.166 -0.0704 -0.1529  0.1799
  194POPC   GL2 2753   1.895   6.523   5.319  0.3389  0.0789 -0.0849
  194POPC   C1A 2754   2.357   6.749   5.582 -0.1018 -0.0663  0.0144
  194POPC   D2A 2755   2.549   6.936   5.920  0.0856  0.0329  0.2177
  194POPC   C3A 2756   2.635   7.348   6.120  0.0116  0.2626  0.1817
  194POPC   C4A 2757   2.657   7.764   6.254  0.1436  0.2423  0.0785
  194POPC   C1B 2758   1.957   7.031   5.363 -0.1527  0.0855 -0.1637
  194POPC   C2B 2759   1.796   7.433   5.487  0.0607 -0.2570 -0.1106
  194POPC   C3B 2760   1.520   7.747   5.285  0.0262 -0.3602 -0.3278
  194POPC   C4B 2761   1.583   7.827   4.903 -0.0469 -0.1093 -0.1230
  195POPC   NC3 2762   3.713   0.750   3.764  0.3215 -0.4334 -0.0999
  195POPC   PO4 2763   3.419   0.396   3.626 -0.0061  0.2075  0.3497
  195POPC   GL1 2764   3.440   0.354   4.088 -0.0332  0.0650 -0.2842
  195POPC   GL2 2765   3.405   0.647   4.195 -0.2608  0.2773 -0.1838
  195POPC   C1A 2766   3.445   0.292   4.560  0.0316 -0.1107 -0.0677
  195POPC   D2A 2767   3.464   0.583   4.888 -0.1309  0.3470 -0.2193
  195POPC   C3A 2768   3.554   0.521   5.342  0.1347  0.2072 -0.0250
  195POPC   C4A 2769   3.391   0.495   5.729 -0.1071  0.2866 -0.2925
  195POPC   C1B 2770   3.761   0.629   4.462 -0.1947 -0.3379  0.1252
  195POPC   C2B 2771   3.932   0.907   4.853 -0.2965 -0.0029  0.1219
  195POPC   C3B 2772   3.657   1.049   5.149 -0.0788  0.4823 -0.0996
  195POPC   C4B 2773   3.600   1.000   5.655  0.0996 -0.1660 -0.0148
  196POPC   NC3 2774   2.808   7.034   4.541 -0.2586 -0.0403 -0.1123
  196POPC   PO4 2775   3.237   6.781   4.650 -0.3754  0.0682  0.0732
  196POPC   GL1 2776   3.199   7.101   4.964  0.2507 -0.0514 -0.0281
  196POPC   GL2 2777   2.843   7.062   5.043 -0.0349  0.2128  0.0359
  196POPC   C1A 2778   3.361   7.309   5.391 -0.4713 -0.2007  0.1994
  196POPC   D2A 2779   3.624   7.601   5.357  0.2968 -0.4076  0.0134
  196POPC   C3A 2780   3.486   7.995   5.389 -0.2614 -0.1012  0.0215
  196POPC   C4A 2781   3.194   8.286   5.641 -0.1971  0.2720  0.0536
  196POPC   C1B 2782   2.435   7.246   5.330 -0.2544 -0.0561 -0.0168
  196POPC   C2B 2783   2.206   7.320   5.752 -0.0719  0.0704 -0.1403
  196POPC   C3B 2784   2.189   7.655   6.166  0.1339  0.0979 -0.0920
  196POPC   C4B 2785   2.228   7.837   6.559  0.1383 -0.0689  0.2359
  197POPC   NC3 2786   7.961   0.702   4.128 -0.2581  0.1331  0.3695
  197POPC   PO4 2787   7.686   0.630   4.468  0.1782 -0.2521  0.0787
  197POPC   GL1 2788   7.674   0.587   4.883 -0.1414  0.1024 -0.0162
  197POPC   GL2 2789   7.324   0.543   5.031  0.3184 -0.3109  0.0333
  197POPC   C1A 2790   8.034   0.737   5.167  0.1393 -0.1178 -0.0228
  197POPC   D2A 2791   8.375   0.736   5.349  0.0067 -0.0503 -0.2681
  197POPC   C3A 2792   8.551   0.766   5.805  0.2229 -0.1069 -0.1580
  197POPC   C4A 2793   8.804   0.996   6.207 -0.0344 -0.1682 -0.3000
  197POPC   C1B 2794   7.687   0.440   5.324 -0.0507  0.0377  0.4630
  197POPC   C2B 2795   7.795   0.057   5.599  0.0158  0.1583 -0.0826
  197POPC   C3B 2796   8.113  -0.088   5.915 -0.1675  0.0353  0.2076
  197POPC   C4B 2797   8.407  -0.528   5.884  0.2999  0.0676  0.3435
  198POPC   NC3 2798   2.496   6.199   4.886  0.1542  0.0098  0.0967
  198POPC   PO4 2799   2.555   6.681   4.812 -0.1687 -0.1281  0.0922
  198POPC   GL1 2800   2.713   6.544   5.143  0.0335  0.0506 -0.2072
  198POPC   GL2 2801   2.746   6.321   5.384 -0.0082  0.1362 -0.2276
  198POPC   C1A 2802   2.908   6.751   5.521  0.1424 -0.1434 -0.4075
  198POPC   D2A 2803   3.378   6.830   5.524  0.2964 -0.0524  0.2277
  198POPC   C3A 2804   3.671   6.690   5.745 -0.0749 -0.0125 -0.2093
  198POPC   C4A 2805   3.688   6.471   6.083  0.0037  0.2392 -0.1777
  198POPC   C1B 2806   2.740   6.336   5.786  0.2403 -0.0124 -0.1157
  198POPC   C2B 2807   2.776   6.303   6.335  0.1504  0.3047 -0.0927
  198POPC   C3B 2808   2.911   6.121   6.742 -0.2576 -0.0509  0.1126
  198POPC   C4B 2809   2.862   5.856   7.062  0.1225 -0.0562 -0.2718
  199POPC   NC3 2810   8.544   8.294   3.976 -0.0307  0.1620 -0.2325
  199POPC   PO4 2811   8.407   8.666   3.824 -0.0011  0.0923 -0.2759
  199POPC   GL1 2812   8.594   8.807   4.230  0.1814 -0.1389 -0.0882
  199POPC   GL2 2813   8.836   8.675   4.285 -0.0798  0.1662  0.2235
  199POPC   C1A 2814   8.397   8.771   4.636 -0.0178  0.1041 -0.0650
  199POPC   D2A 2815   8.536   8.871   5.100 -0.0759 -0.1556  0.1177
  199POPC   C3A 2816   8.316   9.291   5.379 -0.0843  0.1583 -0.0268
  199POPC   C4A 2817   8.100   9.580   5.469 -0.2331 -0.3363 -0.0646
  199POPC   C1B 2818   9.030   8.932   4.598  0.2047 -0.0295  0.1440
  199POPC   C2B 2819   9.414   9.057   4.864 -0.0949  0.2607  0.1513
  199POPC   C3B 2820   9.647   9.086   5.203 -0.0803 -0.1743 -0.1559
  199POPC   C4B 2821   9.789   9.076   5.483 -0.1417  0.4560  0.1786
  200POPC   NC3 2822   4.084   4.512   4.979  0.1296 -0.3901  0.1724
  200POPC   PO4 2823   3.656   4.606   5.101  0.1411 -0.0477 -0.0794
  200POPC   GL1 2824   3.924   4.874   5.367 -0.1060 -0.1128 -0.0223
  200POPC   GL2 2825   4.147   5.033   5.240  0.1043 -0.3357  0.2096
  200POPC   C1A 2826   4.055   5.010   5.861 -0.1670  0.2399  0.2329
  200POPC   D2A 2827   4.382   4.852   6.112  0.0984  0.1229  0.1038
  200POPC   C3A 2828   4.611   5.014   6.448 -0.0452  0.0993  0.0922
  200POPC   C4A 2829   4.793   5.312   6.544 -0.0345  0.1449  0.0601
  200POPC   C1B 2830   4.433   4.798   5.470 -0.2709 -0.3080  0.2283
  200POPC   C2B 2831   4.759   4.612   5.768  0.3717 -0.0425  0.1690
  200POPC   C3B 2832   4.884   4.300   6.185  0.1241  0.1042 -0.1666
  200POPC   C4B 2833   4.629   4.176   6.504  0.3280 -0.0451 -0.1254
  201POPC   NC3 2834   2.077   8.153   4.294 -0.2366  0.0189  0.2564
  201POPC   PO4 2835   2.108   8.464   4.030 -0.2197  0.2012 -0.0591
  201POPC   GL1 2836   1.872   8.642   4.345 -0.2981 -0.0392 -0.1891
  201POPC   GL2 2837   1.647   8.453   4.549 -0.0558  0.0918  0.1723
  201POPC   C1A 2838   1.752   8.938   4.497 -0.1723  0.2564 -0.1202
  201POPC   D2A 2839   1.753   8.997   4.881  0.1074 -0.0282 -0.2157
  201POPC   C3A 2840   2.113   9.168   5.086  0.2309 -0.0887 -0.0603
  201POPC   C4A 2841   2.567   9.175   5.301 -0.2647 -0.3000  0.1879
  201POPC   C1B 2842   1.774   8.499   4.983  0.3111  0.1765  0.0262
  201POPC   C2B 2843   1.793   8.182   5.315  0.1421 -0.2085 -0.0628
  201POPC   C3B 2844   1.535   8.164   5.719 -0.2488 -0.0924  0.0199
  201POPC   C4B 2845   1.186   8.255   6.065  0.1594 -0.0722 -0.4194
  202POPC   NC3 2846   7.476   2.636   4.103  0.2348  0.2610  0.0229
  202POPC   PO4 2847   7.707   2.489   4.454  0.3571  0.0935 -0.2840
  202POPC   GL1 2848   7.853   2.320   4.769 -0.1503  0.2051 -0.1108
  202POPC   GL2 2849   7.992   1.976   4.806  0.1030  0.1130  0.1737
  202POPC   C1A 2850   7.747   2.442   5.234  0.0161 -0.0252 -0.1239
  202POPC   D2A 2851   7.933   2.426   5.651 -0.0276  0.0761  0.1258
  202POPC   C3A 2852   8.204   2.131   5.932  0.4880  0.1052  0.3267
  202POPC   C4A 2853   8.449   1.873   5.935 -0.4690  0.1812  0.0422
  202POPC   C1B 2854   7.797   1.659   5.052  0.0403 -0.2295  0.1205
  202POPC   C2B 2855   7.602   1.672   5.385 -0.0505  0.0553  0.1064
  202POPC   C3B 2856   7.801   1.885   5.789 -0.0586  0.0999 -0.4599
  202POPC   C4B 2857   7.655   2.259   5.994 -0.3246 -0.0789  0.1383
  203POPC   NC3 2858   0.966   1.971   3.073  0.1571  0.1472 -0.0398
  203POPC   PO4 2859   0.734   1.851   3.438  0.1001 -0.0181  0.0084
  203POPC   GL1 2860   0.882   1.751   3.831 -0.0240 -0.0543  0.0701
  203POPC   GL2 2861   0.855   2.044   4.069  0.2700 -0.0223  0.2089
  203POPC   C1A 2862   1.143   1.399   3.907 -0.0429 -0.1247  0.1130
  203POPC   D2A 2863   1.069   1.112   4.279  0.0579  0.1744 -0.3498
  203POPC   C3A 2864   1.478   0.907   4.315 -0.0605 -0.0157 -0.3288
  203POPC   C4A 2865   1.843   0.855   4.673 -0.1492  0.2957  0.0269
  203POPC   C1B 2866   1.105   1.864   4.430  0.1009 -0.0019  0.2288
  203POPC   C2B 2867   1.132   1.768   4.827  0.1819 -0.1235 -0.1434
  203POPC   C3B 2868   1.253   1.603   5.301  0.2097 -0.1321  0.0334
  203POPC   C4B 2869   1.143   1.839   5.709  0.1469  0.0207 -0.1431
  204POPC   NC3 2870   4.799   6.163   4.357  0.1466 -0.1605 -0.1819
  204POPC   PO4 2871   4.667   5.878   4.531 -0.3678  0.0330 -0.0197
  204POPC   GL1 2872   4.835   6.064   4.843 -0.1702 -0.0768 -0.0516
  204POPC   GL2 2873   5.184   6.035   4.775 -0.0099  0.0074 -0.0805
  204POPC   C1A 2874   4.964   5.815   5.184  0.3124 -0.0664  0.0664
  204POPC   D2A 2875   4.583   5.684   5.523  0.2147  0.3381 -0.1733
  204POPC   C3A 2876   4.451   5.239   5.767 -0.2471 -0.1364 -0.0466
  204POPC   C4A 2877   4.789   5.029   5.956  0.0863  0.2055 -0.2428
  204POPC   C1B 2878   5.268   6.191   5.046  0.0141  0.2791  0.0573
  204POPC   C2B 2879   5.367   6.364   5.412  0.1076  0.2116 -0.2294
  204POPC   C3B 2880   5.322   6.567   5.800 -0.1429  0.1445 -0.0326
  204POPC   C4B 2881   5.198   6.418   6.105 -0.2181 -0.2975 -0.2441
  205POPC   NC3 2882   2.909   9.076   3.094  0.1779  0.2301  0.0349
  205POPC   PO4 2883   2.878   9.444   3.334 -0.0432  0.2701 -0.0546
  205POPC   GL1 2884   2.698   9.659   3.687 -0.2270  0.0695 -0.0308
  205POPC   GL2 2885   2.616   9.471   3.921  0.3845 -0.1983 -0.1036
  205POPC   C1A 2886   2.602  10.013   4.009  0.1311  0.3657  0.1290
  205POPC   D2A 2887   2.500   9.998   4.442  0.3255  0.0129 -0.0633
  205POPC   C3A 2888   2.817  10.072   4.711 -0.0656  0.0955  0.0876
  205POPC   C4A 2889   3.203  10.091   5.002 -0.0583  0.0751  0.1526
  205POPC   C1B 2890   2.262   9.626   4.257  0.1165  0.2493  0.3803
  205POPC   C2B 2891   2.063  10.044   4.207 -0.0357 -0.0912 -0.1546
  205POPC   C3B 2892   1.729  10.370   4.161  0.1420  0.2623  0.0898
  205POPC   C4B 2893   1.507  10.590   3.857  0.1150  0.3979 -0.1343
  206POPC   NC3 2894   1.806   1.048   3.404 -0.1594 -0.1852  0.0475
  206POPC   PO4 2895   2.282   0.925   3.340 -0.1521  0.0678  0.2631
  206POPC   GL1 2896   2.488   0.733   3.683  0.1609  0.2018 -0.0340
  206POPC   GL2 2897   2.463   0.977   3.981 -0.1779  0.0162  0.0062
  206POPC   C1A 2898   2.432   0.515   4.174  0.0908  0.1148  0.0562
  206POPC   D2A 2899   2.127   0.491   4.546  0.0489  0.3442 -0.3161
  206POPC   C3A 2900   2.129   0.208   4.841  0.2258  0.3156 -0.3684
  206POPC   C4A 2901   2.271  -0.223   4.865  0.1294  0.1520 -0.0234
  206POPC   C1B 2902   2.842   0.776   4.156  0.1814 -0.0589 -0.5652
  206POPC   C2B 2903   2.964   0.336   4.204 -0.2141  0.2066  0.2220
  206POPC   C3B 2904   2.869  -0.225   4.268 -0.3615 -0.0468  0.0587
  206POPC   C4B 2905   2.660  -0.548   4.493 -0.2074  0.0165  0.0359
  207POPC   NC3 2906   7.382   3.401   4.470  0.0050 -0.3144 -0.4089
  207POPC   PO4 2907   7.100   3.733   4.559 -0.2285  0.1164 -0.1278
  207POPC   GL1 2908   7.191   3.962   4.854  0.3473 -0.1080  0.0573
  207POPC   GL2 2909   7.004   4.002   4.995  0.1811  0.1850 -0.0392
  207POPC   C1A 2910   7.386   4.166   5.273 -0.4304  0.0530 -0.0697
  207POPC   D2A 2911   7.655   4.289   5.687 -0.0913 -0.2414  0.0786
  207POPC   C3A 2912   7.588   4.614   5.793  0.0658  0.2694 -0.3003
  207POPC   C4A 2913   7.372   4.994   5.743  0.2030  0.1459  0.0419
  207POPC   C1B 2914   6.994   3.839   5.423 -0.2691 -0.0009 -0.0459
  207POPC   C2B 2915   7.270   3.921   5.797  0.1701  0.1545 -0.1204
  207POPC   C3B 2916   7.377   4.185   6.119  0.0708  0.2338  0.2766
  207POPC   C4B 2917   7.446   4.034   6.594  0.3044  0.1312  0.2240
  208POPC   NC3 2918   5.973   6.689   3.886 -0.1579  0.0759  0.1117
  208POPC   PO4 2919   5.764   6.538   4.157  0.0614 -0.1450 -0.0174
  208POPC   GL1 2920   5.693   6.674   4.575  0.1526  0.1756 -0.1525
  208POPC   GL2 2921   5.938   6.872   4.723 -0.2645  0.1695 -0.0005
  208POPC   C1A 2922   5.645   6.490   4.984 -0.0067 -0.2676 -0.0637
  208POPC   D2A 2923   5.805   6.618   5.395 -0.0368  0.0460 -0.1713
  208POPC   C3A 2924   5.703   6.288   5.817 -0.0057  0.0592 -0.0562
  208POPC   C4A 2925   5.850   6.001   6.135 -0.1857 -0.1231  0.2766
  208POPC   C1B 2926   5.625   7.042   5.132 -0.1478  0.1864 -0.0404
  208POPC   C2B 2927   5.425   6.973   5.504 -0.2418 -0.0208 -0.2009
  208POPC   C3B 2928   5.351   7.271   5.823 -0.1683 -0.0876  0.3194
  208POPC   C4B 2929   5.532   7.496   6.177  0.1948  0.1341 -0.3174
  209POPC   NC3 2930   6.228   3.596   4.395  0.3223 -0.1006 -0.1909
  209POPC   PO4 2931   6.630   3.627   4.376  0.0796  0.0666  0.2646
  209POPC   GL1 2932   6.556   3.863   4.758 -0.3055  0.1855  0.1150
  209POPC   GL2 2933   6.708   3.631   4.912 -0.0965 -0.2204  0.0402
  209POPC   C1A 2934   6.488   3.984   5.152 -0.2060 -0.2418 -0.0457
  209POPC   D2A 2935   6.399   3.977   5.621 -0.1445 -0.4561 -0.0867
  209POPC   C3A 2936   6.741   3.941   5.896  0.0559  0.1600 -0.1773
  209POPC   C4A 2937   7.038   3.920   6.350  0.1151 -0.1181  0.3683
  209POPC   C1B 2938   6.502   3.515   5.263  0.0828 -0.1000 -0.1071
  209POPC   C2B 2939   6.608   3.481   5.696 -0.1328  0.2084  0.5040
  209POPC   C3B 2940   6.384   3.627   6.072  0.0689 -0.2776 -0.1269
  209POPC   C4B 2941   6.529   3.874   6.427  0.0805 -0.1343  0.0846
  210POPC   NC3 2942   7.172   6.210   4.253  0.0984  0.1882  0.0192
  210POPC   PO4 2943   6.806   6.417   4.260 -0.0639  0.1595 -0.0071
  210POPC   GL1 2944   6.460   6.354   4.633  0.2237  0.1285  0.3678
  210POPC   GL2 2945   6.580   6.155   4.958 -0.1396  0.0234  0.0149
  210POPC   C1A 2946   6.107   6.351   4.972  0.0700  0.2557 -0.1403
  210POPC   D2A 2947   5.981   6.143   5.324  0.0740  0.0153 -0.1836
  210POPC   C3A 2948   6.210   5.994   5.774  0.0661 -0.2891  0.2989
  210POPC   C4A 2949   6.648   6.210   5.928  0.1456  0.1237  0.0504
  210POPC   C1B 2950   6.456   5.929   5.254 -0.1423  0.2109  0.0768
  210POPC   C2B 2951   6.502   5.670   5.554  0.3758  0.0691 -0.1958
  210POPC   C3B 2952   6.391   5.358   5.902 -0.3131  0.1732 -0.2871
  210POPC   C4B 2953   6.017   5.153   6.137  0.3877 -0.1430  0.3713
  211POPC   NC3 2954   1.612   8.064   4.256 -0.0282 -0.2299  0.0035
  211POPC   PO4 2955   1.889   7.710   4.277 -0.1500  0.2370 -0.1136
  211POPC   GL1 2956   1.973   7.726   4.638  0.1313 -0.1152 -0.2051
  211POPC   GL2 2957   1.967   8.067   4.776 -0.2094  0.0567  0.3204
  211POPC   C1A 2958   2.040   7.577   5.009  0.0556  0.0639  0.0858
  211POPC   D2A 2959   2.237   7.734   5.388  0.1273 -0.0472 -0.1353
  211POPC   C3A 2960   1.935   7.899   5.722  0.0578 -0.0378 -0.0548
  211POPC   C4A 2961   1.528   7.671   5.829 -0.0318  0.0163 -0.1446
  211POPC   C1B 2962   2.229   8.209   5.111  0.2410  0.1570 -0.1646
  211POPC   C2B 2963   2.418   8.244   5.468  0.0149 -0.0952  0.1866
  211POPC   C3B 2964   2.708   8.450   5.764 -0.0272 -0.2261 -0.3405
  211POPC   C4B 2965   2.750   8.600   6.156 -0.3862  0.4206 -0.1246
  212POPC   NC3 2966   5.332   2.514   3.909 -0.2175 -0.0756  0.2374
  212POPC   PO4 2967   5.784   2.327   4.089 -0.2262 -0.0614  0.0614
  212POPC   GL1 2968   5.818   2.140   4.499  0.2204 -0.1897  0.1861
  212POPC   GL2 2969   5.522   2.082   4.690  0.0693 -0.0505 -0.0464
  212POPC   C1A 2970   5.934   1.820   4.799 -0.2195  0.3061 -0.1252
  212POPC   D2A 2971   6.393   1.509   4.874  0.1111  0.1016 -0.1037
  212POPC   C3A 2972   6.706   1.448   5.318  0.2309 -0.3483 -0.3854
  212POPC   C4A 2973   6.779   1.484   5.730  0.0035  0.1138  0.4253
  212POPC   C1B 2974   5.590   2.025   5.132  0.0104 -0.0299 -0.2540
  212POPC   C2B 2975   5.696   2.327   5.534  0.1256  0.5383  0.0421
  212POPC   C3B 2976   5.678   2.491   5.974  0.2986  0.1098  0.0862
  212POPC   C4B 2977   5.676   2.494   6.413  0.0950  0.2717 -0.0519
  213POPC   NC3 2978   1.738   5.675   4.763 -0.0803  0.1861  0.0614
  213POPC   PO4 2979   1.474   5.785   5.112  0.1446  0.3430  0.2472
  213POPC   GL1 2980   1.866   5.671   5.333  0.0662  0.2187  0.1525
  213POPC   GL2 2981   1.935   5.869   5.467 -0.2622 -0.0442  0.0014
  213POPC   C1A 2982   2.054   5.404   5.699  0.1629 -0.0678  0.0611
  213POPC   D2A 2983   2.268   5.184   6.085  0.2177 -0.2427  0.1142
  213POPC   C3A 2984   2.330   5.463   6.382  0.2273  0.0300 -0.1910
  213POPC   C4A 2985   2.026   5.521   6.741  0.1752  0.0168 -0.1438
  213POPC   C1B 2986   2.112   5.871   5.951  0.3472  0.0261 -0.0946
  213POPC   C2B 2987   2.366   6.004   6.217 -0.2065  0.2290 -0.1880
  213POPC   C3B 2988   2.359   6.238   6.686  0.2574  0.0696 -0.0878
  213POPC   C4B 2989   2.509   6.167   7.103  0.2246  0.2356  0.1524
  214POPC   NC3 2990   8.045   2.100   4.246 -0.2412 -0.2797  0.4198
  214POPC   PO4 2991   8.357   1.656   4.249 -0.1234  0.0399 -0.3452
  214POPC   GL1 2992   8.418   1.485   4.689  0.2168 -0.3517  0.0316
  214POPC   GL2 2993   8.701   1.314   4.712  0.0076 -0.2701 -0.2229
  214POPC   C1A 2994   8.161   1.352   5.120  0.2239  0.1791 -0.1315
  214POPC   D2A 2995   7.979   1.142   5.461 -0.0264  0.1943  0.1653
  214POPC   C3A 2996   8.063   0.696   5.725  0.2779  0.1444  0.0537
  214POPC   C4A 2997   8.284   0.387   6.139  0.5000  0.1131 -0.3050
  214POPC   C1B 2998   8.692   1.398   5.157  0.0031  0.0195 -0.2608
  214POPC   C2B 2999   8.470   1.210   5.488  0.0184  0.0063 -0.2388
  214POPC   C3B 3000   8.741   1.261   5.827 -0.0601  0.3379 -0.0451
  214POPC   C4B 3001   9.164   1.389   6.065  0.0282  0.1169 -0.2345
  215POPC   NC3 3002   9.078   9.203   3.410 -0.1779  0.1170  0.0681
  215POPC   PO4 3003   9.018   9.537   3.577 -0.0501 -0.0737 -0.0868
  215POPC   GL1 3004   9.124   9.549   3.935 -0.2701 -0.0987 -0.3893
  215POPC   GL2 3005   9.030   9.290   4.214 -0.1189 -0.2411  0.0469
  215POPC   C1A 3006   9.370   9.846   4.161  0.1601 -0.0596 -0.3801
  215POPC   D2A 3007   9.562   9.858   4.518 -0.0139 -0.3197 -0.2911
  215POPC   C3A 3008   9.943   9.733   4.373 -0.0134  0.1585  0.0296
  215POPC   C4A 3009  10.109   9.329   4.307 -0.0949  0.0929 -0.1752
  215POPC   C1B 3010   9.144   9.508   4.582 -0.0960 -0.2340  0.2552
  215POPC   C2B 3011   9.306   9.556   5.028  0.0554 -0.4281  0.0511
  215POPC   C3B 3012   9.719   9.637   5.182  0.1216 -0.0657  0.1869
  215POPC   C4B 3013  10.128   9.463   5.256 -0.0221 -0.0588  0.0422
  216POPC   NC3 3014   4.578   7.191   4.275  0.1387 -0.0195  0.0767
  216POPC   PO4 3015   4.849   7.487   4.044 -0.2156 -0.0580 -0.0707
  216POPC   GL1 3016   4.730   7.605   4.521  0.2140 -0.3117  0.1543
  216POPC   GL2 3017   4.301   7.597   4.663 -0.2277  0.2635  0.0087
  216POPC   C1A 3018   4.658   7.396   4.990 -0.0811 -0.2298 -0.1062
  216POPC   D2A 3019   4.627   7.051   5.291  0.0565 -0.3587  0.1083
  216POPC   C3A 3020   4.555   7.153   5.699 -0.0115 -0.0282 -0.2920
  216POPC   C4A 3021   4.619   7.023   6.212 -0.0488  0.1389  0.0240
  216POPC   C1B 3022   4.101   7.461   5.113  0.0710  0.0969 -0.2617
  216POPC   C2B 3023   4.202   7.420   5.521  0.0913 -0.0281 -0.1923
  216POPC   C3B 3024   4.150   7.389   5.932  0.1094 -0.1827 -0.1583
  216POPC   C4B 3025   4.151   7.530   6.350  0.1875 -0.0664 -0.2018
  217POPC   NC3 3026   0.181   1.214   3.102 -0.1827 -0.0241  0.0275
  217POPC   PO4 3027  -0.286   1.437   3.329 -0.1282 -0.2232  0.1294
  217POPC   GL1 3028  -0.489   1.296   3.849 -0.1187  0.1466  0.0879
  217POPC   GL2 3029  -0.649   1.637   3.969 -0.2069 -0.1580 -0.1048
  217POPC   C1A 3030  -0.700   1.036   4.203  0.0610 -0.1345  0.0365
  217POPC   D2A 3031  -0.906   0.977   4.612  0.2269  0.1919  0.1294
  217POPC   C3A 3032  -0.800   1.252   4.958  0.2424 -0.2397 -0.1553
  217POPC   C4A 3033  -0.783   1.667   5.108  0.0417 -0.1390 -0.2031
  217POPC   C1B 3034  -0.481   1.854   4.328 -0.0927 -0.3287  0.2003
  217POPC   C2B 3035  -0.300   1.755   4.834  0.3825 -0.1939 -0.0776
  217POPC   C3B 3036  -0.315   1.378   5.139 -0.1704 -0.2209 -0.0106
  217POPC   C4B 3037  -0.452   1.017   5.387 -0.0669  0.2482  0.1745
  218POPC   NC3 3038   6.177   8.134   4.339  0.0684 -0.2661 -0.1473
  218POPC   PO4 3039   6.385   8.599   4.416 -0.1999  0.1911 -0.0320
  218POPC   GL1 3040   6.237   8.313   4.820  0.3893  0.0391  0.0388
  218POPC   GL2 3041   6.219   7.888   4.799 -0.1183 -0.4197  0.2002
  218POPC   C1A 3042   6.527   8.191   5.123  0.3488 -0.4518  0.0303
  218POPC   D2A 3043   6.737   7.856   5.452  0.0107 -0.1643  0.1387
  218POPC   C3A 3044   6.641   7.807   5.965 -0.0080 -0.4438 -0.1863
  218POPC   C4A 3045   6.566   8.016   6.277  0.1660 -0.1261 -0.2707
  218POPC   C1B 3046   6.175   7.836   5.333 -0.1389  0.0509 -0.0820
  218POPC   C2B 3047   6.239   7.612   5.742 -0.1272  0.1563  0.2348
  218POPC   C3B 3048   6.451   7.196   5.912 -0.3918 -0.0014  0.0109
  218POPC   C4B 3049   6.543   6.728   6.086  0.1863  0.0663 -0.2034
  219POPC   NC3 3050   3.671   5.078   4.877  0.2010  0.2349  0.3253
  219POPC   PO4 3051   3.936   5.246   4.504  0.1818 -0.4212  0.1177
  219POPC   GL1 3052   3.997   5.442   5.040 -0.2148 -0.0972 -0.0259
  219POPC   GL2 3053   3.682   5.481   5.189  0.0610  0.5602  0.0824
  219POPC   C1A 3054   4.146   5.481   5.438 -0.6059  0.2769 -0.1954
  219POPC   D2A 3055   4.064   5.771   5.676  0.1770 -0.2091 -0.1415
  219POPC   C3A 3056   4.419   5.803   5.995 -0.1369 -0.0762 -0.1568
  219POPC   C4A 3057   4.703   5.596   6.116 -0.0530  0.0437 -0.0252
  219POPC   C1B 3058   3.693   5.391   5.623 -0.1176  0.0849 -0.1228
  219POPC   C2B 3059   3.834   5.444   6.052 -0.0078  0.1675  0.0616
  219POPC   C3B 3060   3.689   5.261   6.362 -0.5187 -0.0479  0.0764
  219POPC   C4B 3061   3.987   4.916   6.395  0.1821 -0.2870 -0.2459
  220POPC   NC3 3062   5.546   0.652   4.412  0.0257  0.2320 -0.0789
  220POPC   PO4 3063   5.150   0.793   4.215 -0.0901  0.1613  0.1076
  220POPC   GL1 3064   4.911   0.728   4.518 -0.3399 -0.3121  0.0009
  220POPC   GL2 3065   4.924   0.378   4.608 -0.1515  0.3193 -0.2468
  220POPC   C1A 3066   5.017   0.863   4.913  0.1576  0.0270  0.0553
  220POPC   D2A 3067   5.137   0.651   5.348  0.0362 -0.0321 -0.2888
  220POPC   C3A 3068   4.858   0.734   5.718  0.0531  0.1643  0.1026
  220POPC   C4A 3069   4.834   0.911   6.173  0.1685  0.0389  0.1660
  220POPC   C1B 3070   4.972   0.299   5.069 -0.0958  0.2395  0.1615
  220POPC   C2B 3071   4.655   0.346   5.397 -0.1434  0.0399 -0.1466
  220POPC   C3B 3072   4.348   0.669   5.723  0.2996  0.2047 -0.1948
  220POPC   C4B 3073   3.875   0.589   5.758  0.0593  0.2556  0.2265
  221POPC   NC3 3074   4.155   3.853   4.897  0.0778  0.1362 -0.0867
  221POPC   PO4 3075   4.472   4.215   4.816 -0.0534  0.0150 -0.2027
  221POPC   GL1 3076   4.458   4.046   5.277  0.1427  0.1063  0.0223
  221POPC   GL2 3077   4.613   4.320   5.372  0.1835  0.0087  0.2231
  221POPC   C1A 3078   4.179   4.142   5.592 -0.2494 -0.0157 -0.0993
  221POPC   D2A 3079   4.073   4.494   5.798  0.1662  0.3084 -0.0131
  221POPC   C3A 3080   3.717   4.505   6.205  0.2451 -0.0468  0.4981
  221POPC   C4A 3081   3.229   4.729   6.258 -0.1150 -0.2249 -0.2947
  221POPC   C1B 3082   4.909   4.154   5.631  0.1382  0.0267  0.1845
  221POPC   C2B 3083   5.190   3.874   5.920 -0.0326 -0.0669 -0.1715
  221POPC   C3B 3084   5.062   3.762   6.295  0.4688 -0.2462  0.1655
  221POPC   C4B 3085   4.892   3.750   6.678  0.3743 -0.1648  0.3079
  222POPC   NC3 3086   7.052   0.076   4.531  0.1893  0.2541 -0.3070
  222POPC   PO4 3087   6.648  -0.041   4.379  0.5491  0.0744  0.0038
  222POPC   GL1 3088   6.683  -0.106   4.913  0.1977  0.0296 -0.2497
  222POPC   GL2 3089   6.898  -0.339   5.006 -0.3443  0.0859  0.1790
  222POPC   C1A 3090   6.687  -0.097   5.322  0.1400 -0.0648 -0.3818
  222POPC   D2A 3091   6.847  -0.221   5.692  0.2611  0.3105  0.0686
  222POPC   C3A 3092   6.982  -0.511   6.010 -0.1599 -0.0040 -0.1913
  222POPC   C4A 3093   6.974  -0.594   6.441 -0.2320  0.5106  0.1838
  222POPC   C1B 3094   6.940  -0.625   5.418  0.2054  0.0803 -0.0549
  222POPC   C2B 3095   7.078  -0.948   5.685 -0.0388  0.0337 -0.1492
  222POPC   C3B 3096   7.095  -1.305   6.006 -0.1550 -0.1875 -0.0630
  222POPC   C4B 3097   6.809  -1.469   6.377 -0.0856 -0.1496 -0.0293
  223POPC   NC3 3098   8.569   3.543   3.785 -0.2647  0.2481  0.3887
  223POPC   PO4 3099   8.731   3.561   4.246 -0.0418  0.1601  0.0716
  223POPC   GL1 3100   8.517   3.583   4.679  0.0428  0.0190 -0.0689
  223POPC   GL2 3101   8.510   3.809   4.833 -0.1331 -0.0206  0.1051
  223POPC   C1A 3102   8.151   3.452   5.038 -0.0104 -0.1270  0.2433
  223POPC   D2A 3103   8.231   3.622   5.546 -0.1106  0.0920 -0.0475
  223POPC   C3A 3104   8.268   3.367   5.938  0.1089  0.2557  0.4465
  223POPC   C4A 3105   8.201   3.161   6.338  0.0602 -0.2177 -0.0483
  223POPC   C1B 3106   8.274   3.959   5.164 -0.1029  0.3247  0.0567
  223POPC   C2B 3107   8.049   4.083   5.503  0.3613  0.0763  0.1201
  223POPC   C3B 3108   7.892   3.891   5.890  0.0331 -0.1866  0.0205
  223POPC   C4B 3109   7.999   3.771   6.250  0.0894 -0.2882 -0.0310
  224POPC   NC3 3110   0.565   2.790   4.666 -0.2138 -0.1086 -0.0017
  224POPC   PO4 3111   0.477   3.318   4.707 -0.0124  0.0669 -0.0473
  224POPC   GL1 3112   0.679   3.194   5.055 -0.0131 -0.1326  0.2229
  224POPC   GL2 3113   0.574   2.841   5.184  0.4187  0.0961  0.1170
  224POPC   C1A 3114   1.006   3.081   5.320  0.0501 -0.2095 -0.3224
  224POPC   D2A 3115   1.084   2.611   5.441  0.1243 -0.1510  0.0902
  224POPC   C3A 3116   1.208   2.345   5.667 -0.1324  0.1456 -0.1089
  224POPC   C4A 3117   1.442   2.387   5.941  0.3297 -0.0518  0.2282
  224POPC   C1B 3118   0.682   2.878   5.609  0.1415  0.0406 -0.0137
  224POPC   C2B 3119   0.809   2.676   5.882 -0.2517 -0.2032 -0.0416
  224POPC   C3B 3120   0.684   2.467   6.165  0.2113  0.1278  0.1130
  224POPC   C4B 3121   0.897   2.377   6.630 -0.0375 -0.1851 -0.0228
  225POPC   NC3 3122   0.831   5.197   4.863  0.2046  0.1150  0.3244
  225POPC   PO4 3123   0.490   5.360   4.904 -0.1530 -0.1385 -0.0761
  225POPC   GL1 3124   0.503   5.569   5.249  0.0557  0.2587 -0.2856
  225POPC   GL2 3125   0.314   5.430   5.469  0.3095 -0.0058  0.1156
  225POPC   C1A 3126   0.564   5.790   5.784 -0.2483 -0.0308  0.1851
  225POPC   D2A 3127   0.676   5.855   6.239  0.0218 -0.0934 -0.0522
  225POPC   C3A 3128   1.082   5.886   6.390  0.1606 -0.0454 -0.3612
  225POPC   C4A 3129   1.395   6.149   6.609  0.0942 -0.1435 -0.0138
  225POPC   C1B 3130   0.048   5.490   5.831  0.1389 -0.2131  0.2329
  225POPC   C2B 3131  -0.165   5.574   6.249 -0.0088 -0.1177  0.1589
  225POPC   C3B 3132  -0.429   5.844   6.406  0.2206  0.1498  0.1364
  225POPC   C4B 3133  -0.736   6.124   6.046  0.4090 -0.1647  0.0601
  226POPC   NC3 3134   3.075   3.079   4.773  0.0673 -0.2486  0.2070
  226POPC   PO4 3135   3.178   2.630   4.748 -0.1951  0.1737 -0.1523
  226POPC   GL1 3136   3.301   2.543   5.143 -0.0458  0.0947  0.0230
  226POPC   GL2 3137   3.507   2.758   5.317  0.1891 -0.0727  0.0988
  226POPC   C1A 3138   3.288   2.399   5.574  0.0860  0.2986  0.2451
  226POPC   D2A 3139   3.416   2.663   5.864  0.2089 -0.0005  0.1539
  226POPC   C3A 3140   3.843   2.546   6.034  0.3071 -0.0221  0.2615
  226POPC   C4A 3141   3.879   2.322   6.351  0.0645 -0.2730 -0.3007
  226POPC   C1B 3142   3.088   2.888   5.506  0.1205  0.2267 -0.0734
  226POPC   C2B 3143   2.804   2.947   5.952 -0.0046 -0.1657  0.1943
  226POPC   C3B 3144   2.941   2.670   6.303 -0.0008 -0.1418  0.1410
  226POPC   C4B 3145   3.043   2.308   6.382  0.0012  0.0995 -0.2964
  227POPC   NC3 3146   3.066   6.330   4.553  0.0570 -0.0539  0.1845
  227POPC   PO4 3147   3.194   5.942   4.749  0.0536  0.1774  0.1499
  227POPC   GL1 3148   3.306   5.883   5.203 -0.1491 -0.1670 -0.0422
  227POPC   GL2 3149   3.073   5.989   5.387  0.1472  0.0059 -0.0034
  227POPC   C1A 3150   3.552   5.887   5.537 -0.2575  0.2077 -0.0129
  227POPC   D2A 3151   3.541   5.906   5.997 -0.0613 -0.1903 -0.0778
  227POPC   C3A 3152   3.980   6.081   6.108  0.3428  0.3067 -0.0859
  227POPC   C4A 3153   4.114   6.568   6.378 -0.4157 -0.2291 -0.0446
  227POPC   C1B 3154   3.260   6.342   5.681  0.1454 -0.0380 -0.1624
  227POPC   C2B 3155   3.138   6.554   5.996 -0.0832 -0.1558 -0.0942
  227POPC   C3B 3156   2.914   6.794   6.266 -0.0967 -0.1861 -0.2835
  227POPC   C4B 3157   2.614   6.987   6.555 -0.1870  0.0092  0.6317
  228POPC   NC3 3158   9.148   2.825   4.367 -0.1664  0.0093  0.4086
  228POPC   PO4 3159   9.119   2.686   4.706 -0.2535 -0.0774  0.0826
  228POPC   GL1 3160   8.799   2.832   4.914  0.0682 -0.0409  0.1684
  228POPC   GL2 3161   8.652   3.134   4.983  0.0854 -0.1085  0.2766
  228POPC   C1A 3162   8.473   2.757   5.254 -0.0995 -0.0265 -0.1052
  228POPC   D2A 3163   8.521   2.393   5.493 -0.0197  0.0445 -0.1530
  228POPC   C3A 3164   8.840   2.193   5.730  0.1693  0.2198  0.1377
  228POPC   C4A 3165   8.971   2.164   6.175 -0.2262 -0.1100 -0.1517
  228POPC   C1B 3166   8.628   3.158   5.463  0.0219 -0.0150  0.0990
  228POPC   C2B 3167   8.619   2.889   5.712 -0.1654  0.4350 -0.0665
  228POPC   C3B 3168   8.489   2.582   6.040  0.1485  0.0612  0.0626
  228POPC   C4B 3169   8.248   2.667   6.480  0.2466 -0.0195 -0.4625
  229POPC   NC3 3170   1.677   4.809   5.067  0.2176  0.2232  0.0688
  229POPC   PO4 3171   1.573   5.224   4.888  0.0328 -0.0172  0.0188
  229POPC   GL1 3172   1.541   5.302   5.391  0.2894  0.0742 -0.2111
  229POPC   GL2 3173   1.488   5.554   5.666  0.1526 -0.2706 -0.2909
  229POPC   C1A 3174   1.090   5.174   5.631 -0.0533  0.1377  0.1251
  229POPC   D2A 3175   1.096   5.009   6.000 -0.0166 -0.3831 -0.1692
  229POPC   C3A 3176   1.316   5.280   6.337 -0.1444  0.4761 -0.1033
  229POPC   C4A 3177   1.502   5.654   6.567 -0.3242  0.1089 -0.1299
  229POPC   C1B 3178   1.568   5.958   5.866 -0.3280  0.0212  0.0628
  229POPC   C2B 3179   1.379   6.259   5.986 -0.0198 -0.3182  0.1779
  229POPC   C3B 3180   1.192   6.675   6.001 -0.0640  0.3068  0.0804
  229POPC   C4B 3181   1.128   6.914   6.353  0.0151  0.0178  0.1585
  230POPC   NC3 3182   0.439   7.160   3.947  0.0295 -0.0198 -0.0352
  230POPC   PO4 3183   0.404   7.176   4.363  0.0128 -0.3172  0.0220
  230POPC   GL1 3184   0.575   7.176   4.829 -0.0262  0.0776  0.0308
  230POPC   GL2 3185   0.813   7.360   4.891 -0.1377 -0.1795 -0.0203
  230POPC   C1A 3186   0.474   7.120   5.231  0.0269  0.0480  0.2474
  230POPC   D2A 3187   0.515   7.212   5.598 -0.1559 -0.0612 -0.0031
  230POPC   C3A 3188   0.394   7.196   6.010  0.1695  0.1058 -0.3137
  230POPC   C4A 3189   0.136   6.897   6.272 -0.0704 -0.1017  0.2570
  230POPC   C1B 3190   1.081   7.555   5.151  0.1327  0.2151  0.5044
  230POPC   C2B 3191   0.996   7.489   5.616 -0.1659 -0.1245 -0.1239
  230POPC   C3B 3192   0.998   7.600   5.986  0.0549 -0.2620 -0.0995
  230POPC   C4B 3193   1.197   7.815   6.301  0.0056  0.0605  0.2815
  231POPC   NC3 3194   4.005   9.194   3.737 -0.1013 -0.1123 -0.0193
  231POPC   PO4 3195   4.253   9.085   3.993 -0.1292 -0.1124 -0.1494
  231POPC   GL1 3196   4.133   9.050   4.491 -0.1045 -0.2591  0.0740
  231POPC   GL2 3197   4.328   8.891   4.694  0.1252 -0.0254 -0.2514
  231POPC   C1A 3198   3.732   8.920   4.693  0.0713 -0.2108  0.1338
  231POPC   D2A 3199   3.535   8.990   5.100 -0.1384 -0.3355  0.1513
  231POPC   C3A 3200   3.748   9.153   5.375 -0.0888  0.1077 -0.2438
  231POPC   C4A 3201   3.760   9.456   5.586 -0.2138  0.1288  0.0880
  231POPC   C1B 3202   4.085   8.666   5.039  0.1144 -0.0104  0.1409
  231POPC   C2B 3203   4.064   8.454   5.399  0.1896  0.0163  0.4237
  231POPC   C3B 3204   3.755   8.304   5.719  0.3427  0.1586  0.2996
  231POPC   C4B 3205   3.604   7.854   5.861  0.2849  0.1830 -0.0666
  232POPC   NC3 3206   3.943   6.343   4.364  0.2382  0.2544 -0.2151
  232POPC   PO4 3207   3.874   6.727   4.608  0.0622  0.0222 -0.1601
  232POPC   GL1 3208   4.113   6.916   4.900 -0.3930  0.2651  0.0954
  232POPC   GL2 3209   4.379   7.048   4.767  0.0419 -0.0334 -0.1049
  232POPC   C1A 3210   3.971   6.988   5.422 -0.0739  0.1740 -0.0900
  232POPC   D2A 3211   3.676   7.222   5.790 -0.1848  0.0793  0.0724
  232POPC   C3A 3212   3.665   7.445   6.201 -0.2298  0.0358  0.1264
  232POPC   C4A 3213   3.593   7.847   6.401 -0.0749  0.0570  0.0877
  232POPC   C1B 3214   4.583   6.666   4.923  0.0795  0.0154 -0.2069
  232POPC   C2B 3215   4.772   6.323   5.323  0.1880  0.1372 -0.0896
  232POPC   C3B 3216   4.875   6.141   5.681 -0.3115  0.1015  0.0475
  232POPC   C4B 3217   4.840   6.068   6.105  0.1733 -0.0970 -0.3243
  233POPC   NC3 3218   7.836   5.282   4.175  0.2727  0.0489  0.3282
  233POPC   PO4 3219   7.989   5.678   4.423  0.1224  0.1104  0.1815
  233POPC   GL1 3220   7.834   5.966   4.699  0.2172 -0.3150  0.0196
  233POPC   GL2 3221   7.523   6.216   4.719  0.2896 -0.1351 -0.2544
  233POPC   C1A 3222   7.850   5.923   5.196  0.1492  0.2220  0.2066
  233POPC   D2A 3223   7.768   5.734   5.653 -0.0105 -0.0420 -0.0144
  233POPC   C3A 3224   8.023   5.931   5.940 -0.2155 -0.0035 -0.1231
  233POPC   C4A 3225   8.414   6.156   6.074 -0.2424 -0.1373 -0.2217
  233POPC   C1B 3226   7.586   6.358   5.104 -0.0843  0.1951  0.4164
  233POPC   C2B 3227   7.431   6.573   5.506  0.2477 -0.0717  0.3170
  233POPC   C3B 3228   7.134   6.836   5.851 -0.2318 -0.0812 -0.2005
  233POPC   C4B 3229   6.972   7.233   6.113 -0.1018  0.0485  0.0748
  234POPC   NC3 3230   7.394   1.505   4.488 -0.2644 -0.2354  0.1383
  234POPC   PO4 3231   7.572   1.989   4.510 -0.0250  0.0873  0.0050
  234POPC   GL1 3232   7.504   2.044   4.998  0.1551 -0.4572 -0.0217
  234POPC   GL2 3233   7.323   1.804   4.916  0.1973  0.0974 -0.1626
  234POPC   C1A 3234   7.454   2.122   5.523  0.4883  0.0508 -0.0323
  234POPC   D2A 3235   7.218   2.468   5.757 -0.0279 -0.3842 -0.3558
  234POPC   C3A 3236   6.971   2.236   6.039 -0.0480  0.0998  0.1838
  234POPC   C4A 3237   6.877   2.221   6.498  0.0674  0.1575  0.3939
  234POPC   C1B 3238   7.135   1.406   5.127 -0.0043 -0.2155 -0.0431
  234POPC   C2B 3239   7.281   1.296   5.573 -0.0548 -0.1049 -0.0623
  234POPC   C3B 3240   7.637   1.414   5.827  0.0280  0.1677  0.0759
  234POPC   C4B 3241   7.678   1.408   6.248 -0.1767  0.2835  0.0391
  235POPC   NC3 3242   9.001   2.101   3.787  0.1691 -0.2057 -0.1906
  235POPC   PO4 3243   9.180   2.350   3.964 -0.1787  0.0778  0.0341
  235POPC   GL1 3244   9.296   2.295   4.481 -0.1517  0.0970  0.0379
  235POPC   GL2 3245   9.605   2.203   4.623 -0.0568  0.1439  0.3911
  235POPC   C1A 3246   9.315   2.151   4.971 -0.0388 -0.0820 -0.0179
  235POPC   D2A 3247   9.362   2.113   5.388  0.1691 -0.0048  0.3135
  235POPC   C3A 3248   9.647   1.770   5.367 -0.0898  0.0956  0.1677
  235POPC   C4A 3249   9.779   1.393   5.703 -0.1052  0.0470  0.0428
  235POPC   C1B 3250   9.860   2.143   5.011  0.0476 -0.2384 -0.0328
  235POPC   C2B 3251  10.164   1.868   5.093 -0.1439  0.1601  0.0735
  235POPC   C3B 3252  10.257   1.454   5.174 -0.2371 -0.0534  0.1691
  235POPC   C4B 3253  10.323   1.166   5.501 -0.0787  0.1949  0.0889
  236POPC   NC3 3254   9.213   4.792   4.160  0.4068 -0.1605 -0.2614
  236POPC   PO4 3255   9.127   4.801   4.530 -0.2542 -0.2945 -0.2662
  236POPC   GL1 3256   9.324   4.769   4.914  0.0023 -0.1313  0.1783
  236POPC   GL2 3257   9.455   4.397   4.881 -0.1343  0.3089  0.0045
  236POPC   C1A 3258   9.400   5.061   5.265  0.1298  0.1943  0.1317
  236POPC   D2A 3259   9.759   5.104   5.467 -0.2803  0.0570  0.3474
  236POPC   C3A 3260  10.097   4.961   5.631 -0.3094  0.0475  0.1721
  236POPC   C4A 3261  10.514   5.119   5.833 -0.0428 -0.2630  0.2495
  236POPC   C1B 3262   9.626   4.505   5.243 -0.1653 -0.1014 -0.1896
  236POPC   C2B 3263   9.647   4.646   5.586 -0.0289 -0.0451  0.0916
  236POPC   C3B 3264   9.365   4.855   5.816  0.0883  0.3195  0.1754
  236POPC   C4B 3265   9.216   5.237   5.661  0.2324  0.0286  0.2005
  237POPC   NC3 3266   9.104   7.022   4.391  0.0535  0.4319  0.3645
  237POPC   PO4 3267   8.745   7.067   4.626 -0.0133  0.1093  0.2907
  237POPC   GL1 3268   8.807   7.349   4.993 -0.3093 -0.1269  0.0400
  237POPC   GL2 3269   8.579   7.572   5.065  0.0869  0.0477 -0.2514
  237POPC   C1A 3270   9.005   7.546   5.374 -0.0332 -0.0937  0.3762
  237POPC   D2A 3271   9.056   7.760   5.895 -0.0720 -0.0216 -0.0296
  237POPC   C3A 3272   9.335   7.418   6.083 -0.3756 -0.0613 -0.0345
  237POPC   C4A 3273   9.417   6.984   6.131 -0.0518 -0.1017  0.2644
  237POPC   C1B 3274   8.649   7.882   5.237  0.2496  0.2329  0.0616
  237POPC   C2B 3275   8.969   8.092   5.543 -0.1727  0.0730  0.0977
  237POPC   C3B 3276   9.259   8.275   5.876 -0.0473 -0.0805  0.1138
  237POPC   C4B 3277   9.518   8.322   6.223 -0.1087 -0.0182  0.0560
  238POPC   NC3 3278   0.069   5.070   4.905 -0.1270 -0.0405 -0.2086
  238POPC   PO4 3279   0.424   4.857   4.832  0.2374  0.1696  0.1411
  238POPC   GL1 3280   0.179   4.644   5.165 -0.2324 -0.0871 -0.0218
  238POPC   GL2 3281   0.477   4.560   5.332 -0.0647 -0.0144 -0.2120
  238POPC   C1A 3282   0.060   4.282   5.528  0.3042  0.2470 -0.3218
  238POPC   D2A 3283  -0.270   4.115   5.787 -0.0776  0.0327 -0.0432
  238POPC   C3A 3284  -0.151   4.055   6.174 -0.0614  0.3955 -0.2140
  238POPC   C4A 3285   0.015   3.814   6.487 -0.1702  0.2114  0.0678
  238POPC   C1B 3286   0.352   4.570   5.801 -0.1852  0.0967  0.1386
  238POPC   C2B 3287   0.034   4.524   6.099 -0.0780 -0.0714 -0.1329
  238POPC   C3B 3288  -0.373   4.635   6.327  0.3138 -0.1651  0.1426
  238POPC   C4B 3289  -0.653   4.840   6.439  0.1696 -0.0544  0.1508
  239POPC   NC3 3290   2.039   0.291   2.885  0.2770  0.1265 -0.2711
  239POPC   PO4 3291   1.881   0.614   3.137  0.0528 -0.1819 -0.2058
  239POPC   GL1 3292   1.855   0.342   3.498  0.0103 -0.4776  0.2502
  239POPC   GL2 3293   2.005   0.501   3.763  0.1946  0.0691 -0.0508
  239POPC   C1A 3294   1.393   0.225   3.610 -0.1230  0.1408  0.0179
  239POPC   D2A 3295   1.067   0.090   3.878 -0.0274  0.0381 -0.1001
  239POPC   C3A 3296   0.775  -0.285   3.741 -0.1741 -0.0505  0.0760
  239POPC   C4A 3297   0.606  -0.511   3.465  0.1607 -0.2293 -0.0677
  239POPC   C1B 3298   1.955   0.875   4.011  0.0125  0.3782 -0.3340
  239POPC   C2B 3299   1.947   1.199   4.336  0.0504 -0.0801  0.0986
  239POPC   C3B 3300   1.777   1.340   4.730  0.3098  0.0238  0.4101
  239POPC   C4B 3301   1.763   1.496   5.134 -0.0646  0.1733  0.2390
  240POPC   NC3 3302   4.313   5.532   4.592 -0.0011 -0.2379  0.2234
  240POPC   PO4 3303   4.006   5.754   4.494 -0.0098  0.0417 -0.2373
  240POPC   GL1 3304   4.090   5.960   4.912 -0.0750 -0.0412  0.0796
  240POPC   GL2 3305   4.034   6.389   5.011  0.0097 -0.1215  0.2136
  240POPC   C1A 3306   4.324   6.074   5.254  0.2436  0.0082 -0.0497
  240POPC   D2A 3307   4.361   6.591   5.404  0.0650  0.2059 -0.2814
  240POPC   C3A 3308   4.162   6.694   5.822 -0.1309 -0.2635  0.1409
  240POPC   C4A 3309   3.932   6.924   6.119 -0.2185 -0.1247 -0.1008
  240POPC   C1B 3310   3.749   6.332   5.375  0.1381  0.0607  0.1042
  240POPC   C2B 3311   3.942   6.223   5.678  0.3135 -0.1069  0.1450
  240POPC   C3B 3312   4.356   6.216   5.782  0.2644 -0.3103  0.1193
  240POPC   C4B 3313   4.620   6.504   5.966 -0.0338 -0.0397 -0.1298
  241POPC   NC3 3314   9.754   3.636   4.149  0.0261 -0.0534 -0.1902
  241POPC   PO4 3315   9.603   3.898   4.398 -0.1900 -0.0973  0.0636
  241POPC   GL1 3316   9.594   3.839   4.818 -0.1469 -0.1553 -0.4082
  241POPC   GL2 3317   9.515   3.414   4.784 -0.2708 -0.3358  0.0743
  241POPC   C1A 3318   9.549   3.984   5.275 -0.3743 -0.0890 -0.0274
  241POPC   D2A 3319   9.461   3.711   5.624  0.1218  0.3514 -0.0376
  241POPC   C3A 3320   9.764   3.550   5.986 -0.0741  0.0307 -0.1342
  241POPC   C4A 3321   9.904   3.272   6.319  0.3269  0.2840 -0.1326
  241POPC   C1B 3322   9.436   3.531   5.172 -0.2093 -0.0989 -0.0280
  241POPC   C2B 3323   9.084   3.484   5.438 -0.3421  0.2418 -0.1191
  241POPC   C3B 3324   8.721   3.540   5.752 -0.1585 -0.1332  0.1295
  241POPC   C4B 3325   8.391   3.896   5.951 -0.0610  0.1336 -0.0114
  242POPC   NC3 3326   7.362   8.560   4.046  0.0927  0.2333 -0.1703
  242POPC   PO4 3327   7.256   8.196   4.368 -0.2045 -0.0221  0.3180
  242POPC   GL1 3328   7.363   8.333   4.813  0.0298  0.1459  0.0639
  242POPC   GL2 3329   7.460   8.594   4.906 -0.1787 -0.1993 -0.0951
  242POPC   C1A 3330   7.248   8.325   5.262 -0.1726  0.0947  0.1273
  242POPC   D2A 3331   7.333   8.502   5.588  0.0646  0.2224  0.0207
  242POPC   C3A 3332   7.505   8.264   5.904  0.1331  0.0100  0.0887
  242POPC   C4A 3333   7.647   8.066   6.240  0.0678 -0.1133 -0.1583
  242POPC   C1B 3334   7.784   8.506   5.130  0.0437 -0.1020 -0.0854
  242POPC   C2B 3335   7.926   8.539   5.566  0.0704  0.3021 -0.0815
  242POPC   C3B 3336   8.203   8.822   5.581 -0.0470  0.0517  0.5828
  242POPC   C4B 3337   8.677   9.029   5.633  0.0931  0.0865  0.0310
  243POPC   NC3 3338   4.677   7.145   3.698  0.0757  0.3051  0.1506
  243POPC   PO4 3339   4.775   6.793   4.012 -0.1268  0.0211  0.3574
  243POPC   GL1 3340   4.774   6.801   4.451 -0.2309  0.0691 -0.0159
  243POPC   GL2 3341   5.060   6.532   4.614  0.1433 -0.2021 -0.0688
  243POPC   C1A 3342   4.992   7.076   4.820 -0.4240 -0.3016  0.0018
  243POPC   D2A 3343   5.086   7.153   5.174 -0.0017 -0.0546  0.1174
  243POPC   C3A 3344   4.908   7.493   5.449 -0.1163 -0.2596  0.2993
  243POPC   C4A 3345   4.910   7.998   5.390  0.0935 -0.1035 -0.1459
  243POPC   C1B 3346   5.142   6.670   5.041  0.0461  0.1057  0.0012
  243POPC   C2B 3347   5.009   6.730   5.438 -0.0054 -0.1339  0.1517
  243POPC   C3B 3348   4.979   6.920   5.880  0.1280  0.0222 -0.2611
  243POPC   C4B 3349   5.244   6.893   6.332 -0.0391  0.3276  0.2939
  244POPC   NC3 3350   0.634   2.531   3.823  0.1879 -0.0096 -0.0358
  244POPC   PO4 3351   0.505   2.461   4.264  0.0451 -0.0888 -0.0861
  244POPC   GL1 3352   0.484   2.103   4.402 -0.2719 -0.0747  0.0575
  244POPC   GL2 3353   0.462   2.268   4.727  0.0509  0.0216 -0.2783
  244POPC   C1A 3354   0.535   1.733   4.718 -0.3329 -0.1531 -0.0268
  244POPC   D2A 3355   0.761   1.699   5.144 -0.3719  0.1290 -0.0810
  244POPC   C3A 3356   0.622   1.869   5.449 -0.2173 -0.3168 -0.1111
  244POPC   C4A 3357   0.311   1.623   5.730  0.0257  0.0043  0.0229
  244POPC   C1B 3358   0.640   2.260   5.086 -0.0678 -0.3335 -0.0548
  244POPC   C2B 3359   0.619   2.390   5.497 -0.0110  0.2447  0.0769
  244POPC   C3B 3360   0.297   2.519   5.840  0.0504  0.0113  0.0969
  244POPC   C4B 3361  -0.007   2.555   5.929 -0.1845 -0.3210 -0.0407
  245POPC   NC3 3362   3.313   1.511   3.776 -0.0095  0.2867  0.0440
  245POPC   PO4 3363   3.777   1.332   3.806 -0.0917  0.0062 -0.0772
  245POPC   GL1 3364   3.555   1.222   4.202  0.0683  0.1134 -0.2238
  245POPC   GL2 3365   3.482   1.510   4.319  0.1084  0.0862 -0.0388
  245POPC   C1A 3366   3.238   1.015   4.495 -0.0172 -0.0338 -0.0593
  245POPC   D2A 3367   3.011   0.651   4.636 -0.2602 -0.0847 -0.3664
  245POPC   C3A 3368   3.014   0.649   5.106 -0.0428  0.0424  0.3482
  245POPC   C4A 3369   2.920   0.361   5.402  0.0517 -0.1020 -0.1655
  245POPC   C1B 3370   3.115   1.658   4.698 -0.0295  0.0114 -0.1954
  245POPC   C2B 3371   2.950   1.581   5.161 -0.1496 -0.0943 -0.1364
  245POPC   C3B 3372   2.710   1.532   5.506  0.0303 -0.2677  0.1728
  245POPC   C4B 3373   2.754   1.622   6.013 -0.0076 -0.1103  0.0957
  246POPC   NC3 3374   1.371   6.881   4.339  0.4051  0.1225  0.0421
  246POPC   PO4 3375   1.149   6.603   4.654  0.0308  0.0587 -0.3011
  246POPC   GL1 3376   1.141   6.938   4.866 -0.2226  0.0060  0.1925
  246POPC   GL2 3377   1.379   6.844   5.183  0.0345 -0.3395 -0.2080
  246POPC   C1A 3378   0.917   7.062   5.312 -0.0409  0.3431  0.0829
  246POPC   D2A 3379   0.966   6.942   5.706  0.0509  0.1719  0.4404
  246POPC   C3A 3380   0.889   7.140   5.951  0.1173  0.1316  0.3313
  246POPC   C4A 3381   0.905   7.343   6.396  0.0328 -0.1077  0.0309
  246POPC   C1B 3382   1.450   7.133   5.612 -0.0926 -0.0813  0.2503
  246POPC   C2B 3383   1.470   7.102   6.043  0.1333 -0.1013  0.0111
  246POPC   C3B 3384   1.688   6.859   6.375 -0.0948 -0.1417 -0.1017
  246POPC   C4B 3385   1.738   6.438   6.254 -0.1963 -0.0778  0.1121
  247POPC   NC3 3386   7.246   4.066   3.950 -0.0790 -0.0381  0.3133
  247POPC   PO4 3387   7.475   4.316   4.125 -0.1769 -0.0043 -0.0853
  247POPC   GL1 3388   7.352   4.496   4.512 -0.1493  0.2300 -0.0206
  247POPC   GL2 3389   7.452   4.419   4.751  0.1180  0.1224 -0.0549
  247POPC   C1A 3390   6.997   4.456   4.858 -0.0755 -0.0420 -0.0438
  247POPC   D2A 3391   6.864   4.384   5.377 -0.1606  0.2407  0.1199
  247POPC   C3A 3392   6.583   4.453   5.713 -0.0790  0.2970 -0.0572
  247POPC   C4A 3393   6.463   4.399   6.148  0.0918  0.2009 -0.2716
  247POPC   C1B 3394   7.357   4.743   5.062  0.1298  0.0671 -0.5421
  247POPC   C2B 3395   7.299   4.643   5.388 -0.2769  0.0917 -0.0475
  247POPC   C3B 3396   7.138   4.396   5.763  0.1950  0.1933 -0.0191
  247POPC   C4B 3397   6.958   4.439   6.185  0.0507 -0.0556  0.0475
  248POPC   NC3 3398   8.401   5.887   4.015 -0.1156  0.0488 -0.1259
  248POPC   PO4 3399   8.394   5.490   4.164 -0.0442 -0.1547  0.1673
  248POPC   GL1 3400   8.456   5.626   4.631 -0.3129 -0.1404  0.2379
  248POPC   GL2 3401   8.204   5.671   4.879  0.1443  0.0993  0.3817
  248POPC   C1A 3402   8.695   5.489   4.968 -0.1405 -0.1964 -0.0454
  248POPC   D2A 3403   8.974   5.547   5.241  0.0959 -0.0816 -0.0260
  248POPC   C3A 3404   8.912   5.676   5.664 -0.2779  0.3032 -0.0763
  248POPC   C4A 3405   8.718   5.815   5.998  0.0830 -0.0183  0.1048
  248POPC   C1B 3406   8.013   5.432   5.284 -0.1706  0.1673  0.2348
  248POPC   C2B 3407   7.886   5.204   5.687  0.0477  0.2204  0.0148
  248POPC   C3B 3408   8.000   4.971   5.967  0.2120  0.1988 -0.0784
  248POPC   C4B 3409   7.877   4.728   6.281  0.0870 -0.1815 -0.1341
  249POPC   NC3 3410   5.179   9.794   4.150  0.4152  0.2149 -0.2161
  249POPC   PO4 3411   4.895   9.786   4.466  0.0055  0.3727  0.0746
  249POPC   GL1 3412   5.131   9.691   4.863  0.0036  0.1385 -0.2089
  249POPC   GL2 3413   5.184   9.429   4.945 -0.1621  0.2000 -0.1485
  249POPC   C1A 3414   4.873   9.759   5.316 -0.0588  0.2282  0.1030
  249POPC   D2A 3415   4.644   9.877   5.659 -0.2763  0.1142  0.3146
  249POPC   C3A 3416   4.629  10.231   5.947 -0.2523  0.0080  0.0366
  249POPC   C4A 3417   4.209  10.355   6.152 -0.0269 -0.5047 -0.0994
  249POPC   C1B 3418   4.869   9.202   5.257 -0.3139  0.0598 -0.0501
  249POPC   C2B 3419   4.648   9.341   5.547  0.0736  0.2391  0.0514
  249POPC   C3B 3420   4.240   9.363   5.795  0.3702  0.3541  0.2323
  249POPC   C4B 3421   4.070   9.693   6.141  0.1231 -0.3743  0.4622
  250POPC   NC3 3422   6.378   4.092   4.405 -0.2234 -0.1745  0.0350
  250POPC   PO4 3423   5.946   4.021   4.494 -0.0873  0.0197 -0.2027
  250POPC   GL1 3424   6.014   3.926   4.882  0.0709 -0.2135  0.0295
  250POPC   GL2 3425   6.059   4.245   5.014 -0.0080 -0.0386  0.0074
  250POPC   C1A 3426   6.051   3.756   5.268 -0.1099  0.0218  0.0816
  250POPC   D2A 3427   5.987   3.685   5.688 -0.0909  0.1905 -0.1125
  250POPC   C3A 3428   5.943   3.370   6.025 -0.1772  0.0405  0.1665
  250POPC   C4A 3429   6.228   3.209   6.249  0.0020 -0.0366  0.0423
  250POPC   C1B 3430   5.791   4.179   5.393  0.3482  0.0208 -0.3151
  250POPC   C2B 3431   5.641   4.077   5.827 -0.3384 -0.1991  0.4676
  250POPC   C3B 3432   5.589   3.878   6.261  0.0307 -0.0626 -0.1106
  250POPC   C4B 3433   5.395   3.732   6.618 -0.0301  0.0671  0.0787
  251POPC   NC3 3434   4.069   1.706   3.981 -0.0551 -0.2987 -0.0190
  251POPC   PO4 3435   4.381   2.034   4.180  0.2303  0.0203 -0.1993
  251POPC   GL1 3436   4.360   2.153   4.642  0.0542 -0.1401 -0.1756
  251POPC   GL2 3437   4.596   1.930   4.817  0.4193 -0.2367 -0.3983
  251POPC   C1A 3438   4.466   2.416   5.053  0.1961 -0.3951  0.1423
  251POPC   D2A 3439   4.317   2.397   5.422 -0.1757  0.3171 -0.1896
  251POPC   C3A 3440   4.278   2.511   5.780 -0.0169  0.3415  0.1141
  251POPC   C4A 3441   4.308   2.638   6.195  0.3205  0.1789  0.1011
  251POPC   C1B 3442   4.782   2.036   5.222  0.1520  0.3266 -0.1761
  251POPC   C2B 3443   4.673   2.046   5.735 -0.1405  0.1535 -0.0327
  251POPC   C3B 3444   4.762   1.980   6.231 -0.2830 -0.2138  0.1331
  251POPC   C4B 3445   5.119   1.880   6.562  0.1670 -0.0734 -0.1833
  252POPC   NC3 3446   6.665   8.983   4.407  0.1217  0.1543 -0.3785
  252POPC   PO4 3447   6.768   9.459   4.513  0.0790  0.0056  0.1010
  252POPC   GL1 3448   6.448   9.437   4.846 -0.1142 -0.1200  0.0704
  252POPC   GL2 3449   6.183   9.558   4.996  0.0087  0.0540  0.1930
  252POPC   C1A 3450   6.457   9.230   5.270 -0.2030  0.0645 -0.3306
  252POPC   D2A 3451   6.438   9.424   5.706 -0.3282  0.2970 -0.0714
  252POPC   C3A 3452   6.025   9.495   5.925 -0.0479  0.0862  0.1119
  252POPC   C4A 3453   5.799   9.340   6.172 -0.3544 -0.3917 -0.2790
  252POPC   C1B 3454   6.045   9.592   5.351 -0.1728  0.0559 -0.3143
  252POPC   C2B 3455   5.804   9.966   5.539  0.1276 -0.1218  0.0468
  252POPC   C3B 3456   5.642  10.391   5.538 -0.0120 -0.0502 -0.2280
  252POPC   C4B 3457   5.576  10.756   5.210  0.0415 -0.1241 -0.1635
  253POPC   NC3 3458   2.488   3.244   4.248  0.2813 -0.1888  0.1906
  253POPC   PO4 3459   2.646   3.385   4.682  0.4233  0.0744  0.2614
  253POPC   GL1 3460   2.736   3.374   5.021  0.1733  0.1140 -0.2022
  253POPC   GL2 3461   2.461   3.412   5.235  0.0903 -0.3021  0.0302
  253POPC   C1A 3462   2.870   3.355   5.474  0.1986  0.3670 -0.3056
  253POPC   D2A 3463   2.951   3.571   5.746 -0.2476 -0.0555 -0.2124
  253POPC   C3A 3464   2.868   3.519   6.205  0.1977  0.0496  0.0411
  253POPC   C4A 3465   3.030   3.311   6.479  0.1196  0.0122 -0.0060
  253POPC   C1B 3466   2.363   3.507   5.644 -0.1460  0.1379  0.1379
  253POPC   C2B 3467   2.325   3.331   5.999 -0.1009  0.3633  0.0253
  253POPC   C3B 3468   2.409   2.990   6.384  0.1648 -0.0111  0.0972
  253POPC   C4B 3469   2.275   2.675   6.549  0.0624 -0.0678 -0.2310
  254POPC   NC3 3470   7.208   9.314   4.090 -0.0982  0.1445 -0.2162
  254POPC   PO4 3471   7.405   9.656   4.363 -0.0982  0.2156  0.0489
  254POPC   GL1 3472   7.516   9.637   4.784  0.2393 -0.2794 -0.0529
  254POPC   GL2 3473   7.229   9.967   5.033 -0.4149  0.5966 -0.0362
  254POPC   C1A 3474   7.529   9.504   5.286 -0.0786  0.0246  0.2466
  254POPC   D2A 3475   7.469   9.379   5.684  0.1717  0.3694 -0.1297
  254POPC   C3A 3476   7.863   9.243   5.836  0.0522  0.2250  0.3239
  254POPC   C4A 3477   8.055   8.947   6.126 -0.0766 -0.1372 -0.0474
  254POPC   C1B 3478   7.290   9.921   5.507 -0.3612  0.0266  0.0478
  254POPC   C2B 3479   7.424   9.791   5.893 -0.2513 -0.0979 -0.1473
  254POPC   C3B 3480   7.744   9.613   6.138  0.0470 -0.2354  0.1588
  254POPC   C4B 3481   8.160   9.391   6.310  0.1415 -0.1985  0.0971
  255POPC   NC3 3482   7.872   6.142   4.174 -0.0915 -0.0885 -0.2035
  255POPC   PO4 3483   7.559   5.773   4.177  0.1454 -0.1542  0.1623
  255POPC   GL1 3484   7.488   5.636   4.568 -0.1843  0.0246  0.3822
  255POPC   GL2 3485   7.709   5.381   4.675  0.1318 -0.1198 -0.0496
  255POPC   C1A 3486   7.333   5.700   5.059 -0.0161 -0.0377  0.3190
  255POPC   D2A 3487   7.404   6.042   5.460  0.1427  0.1047 -0.0661
  255POPC   C3A 3488   7.560   6.141   5.937 -0.2479 -0.1323  0.3529
  255POPC   C4A 3489   7.658   6.100   6.386 -0.3100 -0.0848 -0.2005
  255POPC   C1B 3490   7.653   5.248   5.036  0.1940 -0.0334  0.1926
  255POPC   C2B 3491   7.504   5.369   5.375 -0.1346  0.0240 -0.1610
  255POPC   C3B 3492   7.322   5.552   5.767 -0.1655 -0.1624  0.0781
  255POPC   C4B 3493   7.544   5.659   6.111 -0.0703 -0.2799  0.1455
  256POPC   NC3 3494   4.462   3.355   4.366 -0.0401 -0.4333  0.0246
  256POPC   PO4 3495   4.140   3.217   4.685  0.0337 -0.0529  0.5618
  256POPC   GL1 3496   4.335   3.300   5.083 -0.1019 -0.1756  0.0390
  256POPC   GL2 3497   4.269   2.955   5.141 -0.1800 -0.1106  0.2866
  256POPC   C1A 3498   4.393   3.426   5.483 -0.0380 -0.0085 -0.0170
  256POPC   D2A 3499   4.439   3.488   5.904  0.0961  0.0352 -0.0593
  256POPC   C3A 3500   4.661   3.842   5.957  0.2649  0.2196 -0.0486
  256POPC   C4A 3501   4.456   4.211   5.974  0.3134 -0.1533  0.0864
  256POPC   C1B 3502   4.501   2.950   5.488  0.3250 -0.1349  0.1959
  256POPC   C2B 3503   4.705   2.844   5.901 -0.0346 -0.3325 -0.0811
  256POPC   C3B 3504   4.848   2.459   6.111  0.2287  0.1087 -0.0107
  256POPC   C4B 3505   4.915   2.389   6.588  0.3560  0.3108  0.0553
  257POPC   NC3 3506   7.255   2.413   4.648 -0.1931  0.0146 -0.1430
  257POPC   PO4 3507   7.371   2.910   4.529 -0.2752 -0.0617  0.0331
  257POPC   GL1 3508   7.334   3.025   4.954 -0.0943  0.3494  0.3245
  257POPC   GL2 3509   7.150   3.329   4.943 -0.0829  0.1410 -0.0740
  257POPC   C1A 3510   7.442   2.930   5.383 -0.0408  0.4019 -0.0010
  257POPC   D2A 3511   7.670   2.978   5.820  0.1012 -0.1042 -0.1255
  257POPC   C3A 3512   7.677   3.374   6.018  0.1285 -0.1517 -0.2610
  257POPC   C4A 3513   7.484   3.666   6.233  0.0475  0.0180  0.0414
  257POPC   C1B 3514   7.328   3.395   5.246  0.3346 -0.3066 -0.0464
  257POPC   C2B 3515   7.341   3.370   5.691  0.1336  0.1484  0.1245
  257POPC   C3B 3516   7.087   3.502   5.972 -0.0517  0.0087  0.2084
  257POPC   C4B 3517   6.720   3.303   6.207  0.2793 -0.1420 -0.1431
  258POPC   NC3 3518   9.021   7.181   3.956 -0.1184  0.3653 -0.0741
  258POPC   PO4 3519   8.923   7.476   4.244 -0.0198 -0.3224  0.1088
  258POPC   GL1 3520   8.998   7.685   4.661 -0.3682  0.2237  0.1385
  258POPC   GL2 3521   8.786   7.960   4.747  0.2388 -0.2960  0.2393
  258POPC   C1A 3522   9.336   7.639   4.945 -0.1280 -0.1113  0.0717
  258POPC   D2A 3523   9.569   7.636   5.341 -0.1190 -0.3762 -0.0541
  258POPC   C3A 3524   9.418   7.831   5.621  0.0111 -0.2415 -0.0220
  258POPC   C4A 3525   9.539   7.881   5.979 -0.1410  0.0691 -0.0927
  258POPC   C1B 3526   9.120   8.070   5.088 -0.2201  0.0219  0.2729
  258POPC   C2B 3527   9.383   8.301   5.341 -0.2361 -0.0425 -0.2338
  258POPC   C3B 3528   9.728   8.248   5.732  0.3878 -0.4595 -0.0244
  258POPC   C4B 3529   9.996   8.391   6.090  0.1186  0.3657 -0.0816
  259POPC   NC3 3530   5.126   5.154   4.555 -0.1585  0.0286 -0.0517
  259POPC   PO4 3531   4.708   5.041   4.618 -0.2075  0.1631  0.2143
  259POPC   GL1 3532   5.046   4.898   4.965 -0.0009 -0.0375 -0.0343
  259POPC   GL2 3533   5.269   4.586   4.969 -0.1944 -0.3552  0.2430
  259POPC   C1A 3534   4.959   4.829   5.425  0.3005 -0.5278  0.1195
  259POPC   D2A 3535   5.272   4.934   5.784  0.0676 -0.0448  0.2342
  259POPC   C3A 3536   5.538   5.227   5.691  0.5845 -0.0478 -0.2701
  259POPC   C4A 3537   5.921   5.172   5.586  0.1592 -0.2812  0.0057
  259POPC   C1B 3538   5.242   4.484   5.340  0.2295  0.0394  0.0168
  259POPC   C2B 3539   5.262   4.354   5.821 -0.2558 -0.2347 -0.0960
  259POPC   C3B 3540   5.528   4.434   6.181  0.3504 -0.0126  0.0722
  259POPC   C4B 3541   5.660   4.617   6.552 -0.0333  0.1414  0.1580
  260POPC   NC3 3542   2.298   4.235   5.049  0.3338 -0.1155  0.1080
  260POPC   PO4 3543   2.185   4.670   5.064 -0.2960  0.1998 -0.1791
  260POPC   GL1 3544   2.011   4.674   5.389 -0.1728  0.2965 -0.5085
  260POPC   GL2 3545   2.048   4.318   5.454  0.0045  0.2049 -0.3625
  260POPC   C1A 3546   1.877   4.844   5.780 -0.1317  0.0749  0.2339
  260POPC   D2A 3547   1.584   5.108   5.910  0.2585  0.1166 -0.4359
  260POPC   C3A 3548   1.838   5.400   6.180 -0.0733 -0.0175  0.0004
  260POPC   C4A 3549   1.934   5.880   6.448  0.3118 -0.1946 -0.1668
  260POPC   C1B 3550   2.020   4.409   5.903  0.0266  0.0662 -0.1157
  260POPC   C2B 3551   1.879   4.643   6.250  0.0713  0.2368 -0.0270
  260POPC   C3B 3552   1.674   4.879   6.424  0.0227  0.0155  0.1490
  260POPC   C4B 3553   1.648   5.166   6.702  0.2547 -0.4071 -0.1749
  261POPC   NC3 3554   3.487   2.408   4.161 -0.0456 -0.0405  0.4454
  261POPC   PO4 3555   3.659   1.973   4.152 -0.2454  0.1494 -0.0023
  261POPC   GL1 3556   3.950   1.883   4.563 -0.2294 -0.0822  0.2429
  261POPC   GL2 3557   4.278   1.659   4.494 -0.1474  0.2270 -0.3064
  261POPC   C1A 3558   4.043   1.956   4.979  0.1028  0.0897 -0.0388
  261POPC   D2A 3559   4.376   1.794   5.299 -0.2812 -0.1049 -0.0006
  261POPC   C3A 3560   4.413   1.621   5.734  0.2237  0.2918 -0.1689
  261POPC   C4A 3561   4.439   1.238   5.928 -0.0411  0.2766 -0.2415
  261POPC   C1B 3562   4.239   1.507   4.878  0.2081 -0.0463  0.0115
  261POPC   C2B 3563   3.995   1.488   5.222  0.2609  0.0511  0.0617
  261POPC   C3B 3564   3.863   1.490   5.691  0.4290  0.0498  0.2071
  261POPC   C4B 3565   3.396   1.542   5.981 -0.0180 -0.1261  0.1371
  262POPC   NC3 3566   1.806   2.655   3.086 -0.0416 -0.0910  0.4494
  262POPC   PO4 3567   1.702   2.322   3.359 -0.1926 -0.0027  0.0156
  262POPC   GL1 3568   1.642   2.443   3.782 -0.2109 -0.0835 -0.1316
  262POPC   GL2 3569   1.864   2.187   3.930  0.3137 -0.2703 -0.1415
  262POPC   C1A 3570   1.705   2.544   4.229 -0.0070 -0.1256 -0.1988
  262POPC   D2A 3571   1.479   2.291   4.662  0.1559  0.4848  0.3714
  262POPC   C3A 3572   1.124   2.278   4.992 -0.0331  0.0416 -0.0747
  262POPC   C4A 3573   1.099   2.078   5.236  0.0948 -0.0475 -0.1406
  262POPC   C1B 3574   1.793   1.975   4.360 -0.0730  0.2121 -0.0151
  262POPC   C2B 3575   1.629   1.838   4.847 -0.0047  0.1621  0.2370
  262POPC   C3B 3576   1.714   2.118   5.098 -0.0756  0.0253 -0.4549
  262POPC   C4B 3577   1.631   1.969   5.558  0.1747 -0.0536  0.1060
  263POPC   NC3 3578   6.641   1.900   4.484  0.0947  0.2208 -0.0299
  263POPC   PO4 3579   7.039   1.882   4.527  0.3456  0.0400 -0.1212
  263POPC   GL1 3580   6.842   1.951   4.976  0.2575 -0.0919  0.1029
  263POPC   GL2 3581   6.543   1.925   5.033  0.0105  0.0592  0.0579
  263POPC   C1A 3582   6.994   1.863   5.318 -0.3711  0.0289  0.1323
  263POPC   D2A 3583   7.271   1.745   5.795  0.1995 -0.0282 -0.1017
  263POPC   C3A 3584   6.982   1.733   6.159 -0.1849  0.0882 -0.2079
  263POPC   C4A 3585   6.802   1.712   6.547 -0.1441  0.1037  0.1728
  263POPC   C1B 3586   6.395   1.863   5.480  0.1678  0.0287  0.4130
  263POPC   C2B 3587   6.621   1.914   5.890  0.0199  0.1627 -0.4665
  263POPC   C3B 3588   6.453   2.040   6.205  0.2052  0.0214  0.1657
  263POPC   C4B 3589   6.075   1.976   6.458 -0.0967 -0.1115  0.3435
  264POPC   NC3 3590   1.837   8.477   3.531 -0.2022 -0.0230  0.0025
  264POPC   PO4 3591   1.580   8.429   3.817 -0.2316 -0.3237 -0.0189
  264POPC   GL1 3592   1.139   8.290   4.095 -0.0128  0.0461  0.0195
  264POPC   GL2 3593   1.042   8.243   4.504  0.1325 -0.1210 -0.2101
  264POPC   C1A 3594   0.664   8.213   4.155  0.2695  0.1903 -0.0395
  264POPC   D2A 3595   0.509   8.372   4.544  0.2448 -0.0759  0.1157
  264POPC   C3A 3596   0.760   8.447   4.941 -0.1415  0.0221  0.1773
  264POPC   C4A 3597   0.929   8.878   5.114  0.0475 -0.0261 -0.1894
  264POPC   C1B 3598   1.344   8.298   4.859 -0.2742  0.2746 -0.3648
  264POPC   C2B 3599   1.346   8.547   5.191  0.1551 -0.1390 -0.1678
  264POPC   C3B 3600   1.642   8.609   5.589  0.1271  0.3118  0.2472
  264POPC   C4B 3601   1.826   8.472   5.976  0.2774 -0.1841  0.1254
  265POPC   NC3 3602   6.526   5.288   4.564  0.3808 -0.1689  0.1816
  265POPC   PO4 3603   6.325   4.819   4.618  0.0118 -0.0412  0.1146
  265POPC   GL1 3604   6.262   4.863   4.960 -0.2538  0.0152  0.0956
  265POPC   GL2 3605   5.920   4.801   5.046 -0.2688  0.2412 -0.0194
  265POPC   C1A 3606   6.429   4.998   5.397 -0.4060 -0.1088  0.2749
  265POPC   D2A 3607   6.284   4.883   5.842 -0.0636 -0.0483  0.3098
  265POPC   C3A 3608   6.570   4.900   6.155 -0.0357  0.3427  0.4612
  265POPC   C4A 3609   6.494   4.878   6.668 -0.0661  0.3623 -0.0515
  265POPC   C1B 3610   6.126   4.567   5.467  0.0792 -0.0315 -0.0726
  265POPC   C2B 3611   6.095   4.359   5.815  0.1097 -0.1162  0.0227
  265POPC   C3B 3612   6.084   4.033   6.082 -0.1622  0.1411  0.4222
  265POPC   C4B 3613   6.041   3.746   6.446  0.1407  0.0780 -0.1152
  266POPC   NC3 3614   1.202   9.793   2.803 -0.0146 -0.1576 -0.2231
  266POPC   PO4 3615   1.515   9.501   3.080 -0.2178 -0.3245  0.1076
  266POPC   GL1 3616   1.603   9.501   3.578  0.0191  0.0417 -0.2775
  266POPC   GL2 3617   1.384   9.698   3.771  0.1565  0.0205 -0.0049
  266POPC   C1A 3618   1.711   9.306   4.012  0.2972 -0.1037 -0.2752
  266POPC   D2A 3619   1.438   9.327   4.452  0.1739 -0.1208  0.5334
  266POPC   C3A 3620   1.150   8.975   4.370 -0.2782 -0.1189 -0.0855
  266POPC   C4A 3621   0.922   8.725   4.558 -0.0242  0.2011 -0.4438
  266POPC   C1B 3622   1.142   9.549   4.083  0.0376  0.0978 -0.1084
  266POPC   C2B 3623   1.095   9.772   4.478  0.4660  0.3797  0.1803
  266POPC   C3B 3624   1.241   9.910   4.837  0.2032 -0.0360 -0.3487
  266POPC   C4B 3625   1.450  10.195   5.133 -0.1116  0.0714  0.1165
  267POPC   NC3 3626   4.012   2.425   4.274 -0.1044  0.1451 -0.1903
  267POPC   PO4 3627   3.701   2.665   4.523  0.1123  0.1427  0.0131
  267POPC   GL1 3628   3.742   2.312   4.767  0.1055 -0.1095 -0.0081
  267POPC   GL2 3629   3.909   2.468   5.035  0.3286 -0.0277 -0.0239
  267POPC   C1A 3630   3.587   2.105   5.124  0.0782 -0.2340 -0.0504
  267POPC   D2A 3631   3.468   1.899   5.572  0.2024  0.1187  0.1209
  267POPC   C3A 3632   3.534   2.051   5.981  0.1439  0.0897  0.0270
  267POPC   C4A 3633   3.753   1.817   6.177 -0.0038  0.2358  0.0881
  267POPC   C1B 3634   3.836   2.378   5.501 -0.2579 -0.0153 -0.1334
  267POPC   C2B 3635   4.038   2.082   5.813 -0.2548  0.1053  0.1003
  267POPC   C3B 3636   4.253   1.924   6.201 -0.0715  0.1072 -0.1884
  267POPC   C4B 3637   4.471   1.471   6.398 -0.0587 -0.0148 -0.1158
  268POPC   NC3 3638   5.183   5.687   4.434 -0.0693 -0.2326  0.2833
  268POPC   PO4 3639   5.691   5.815   4.493 -0.4017 -0.3305  0.0197
  268POPC   GL1 3640   5.667   5.937   4.856  0.0630  0.0792 -0.5036
  268POPC   GL2 3641   6.071   5.803   4.925 -0.4469 -0.1731  0.2205
  268POPC   C1A 3642   5.543   5.796   5.359 -0.0253 -0.1306  0.0845
  268POPC   D2A 3643   5.220   5.752   5.648  0.0328  0.3701  0.1660
  268POPC   C3A 3644   5.309   5.918   6.027  0.1288  0.1898  0.0092
  268POPC   C4A 3645   5.324   6.008   6.444 -0.1412 -0.0185 -0.1665
  268POPC   C1B 3646   5.997   5.610   5.397 -0.1162 -0.2182  0.1493
  268POPC   C2B 3647   5.752   5.672   5.794  0.2644  0.0150 -0.1728
  268POPC   C3B 3648   5.655   5.577   6.244  0.1010  0.1157 -0.0345
  268POPC   C4B 3649   5.756   5.723   6.677 -0.0201  0.0120  0.0961
  269POPC   NC3 3650   5.973   5.431   4.046 -0.1610  0.0084 -0.1713
  269POPC   PO4 3651   5.598   5.371   4.339 -0.0170 -0.0322 -0.0617
  269POPC   GL1 3652   5.544   5.464   4.779 -0.0374 -0.0295 -0.3298
  269POPC   GL2 3653   5.771   5.345   5.052  0.0391 -0.0558  0.0606
  269POPC   C1A 3654   5.262   5.398   5.165  0.0417  0.0197  0.1417
  269POPC   D2A 3655   5.003   5.321   5.542 -0.0907 -0.0063  0.1048
  269POPC   C3A 3656   5.178   5.336   6.039  0.0342 -0.2876 -0.0011
  269POPC   C4A 3657   5.263   5.455   6.465 -0.2149 -0.2259  0.0745
  269POPC   C1B 3658   5.486   4.959   5.249  0.0339  0.4229  0.1856
  269POPC   C2B 3659   5.605   4.650   5.591 -0.1871  0.2139  0.1027
  269POPC   C3B 3660   5.793   4.760   5.900  0.0386 -0.0702 -0.0203
  269POPC   C4B 3661   6.078   4.739   6.330  0.1178  0.0446 -0.0736
  270POPC   NC3 3662   0.950   3.639   4.891  0.0654  0.1745  0.1380
  270POPC   PO4 3663   1.062   3.223   4.705 -0.0814  0.3382  0.2813
  270POPC   GL1 3664   1.318   3.205   5.033 -0.0358  0.3969  0.0898
  270POPC   GL2 3665   1.391   3.446   5.169  0.0405 -0.1508 -0.4752
  270POPC   C1A 3666   1.489   3.009   5.320  0.1139  0.0355 -0.1857
  270POPC   D2A 3667   1.489   2.949   5.705  0.1115  0.0318 -0.0700
  270POPC   C3A 3668   1.246   3.108   5.943 -0.0344 -0.0691  0.0660
  270POPC   C4A 3669   0.884   3.309   5.882  0.0869  0.0614  0.0757
  270POPC   C1B 3670   1.350   3.472   5.577 -0.2302 -0.0192 -0.0114
  270POPC   C2B 3671   1.299   3.638   5.889  0.1606  0.2396  0.1077
  270POPC   C3B 3672   1.002   3.445   6.331 -0.0271 -0.3205  0.1535
  270POPC   C4B 3673   1.058   3.483   6.704  0.0231  0.0474 -0.0805
  271POPC   NC3 3674   0.865   4.625   4.978  0.0920  0.0576 -0.0984
  271POPC   PO4 3675   0.916   4.157   4.895 -0.2649  0.3723 -0.0364
  271POPC   GL1 3676   1.009   4.378   5.400  0.0944  0.0570 -0.1571
  271POPC   GL2 3677   1.151   4.249   5.634  0.2258 -0.2021 -0.0390
  271POPC   C1A 3678   0.902   4.681   5.654 -0.0984  0.2423  0.0818
  271POPC   D2A 3679   0.704   4.704   6.099  0.1100  0.0768  0.1449
  271POPC   C3A 3680   0.367   4.936   6.239  0.1672  0.1024  0.1825
  271POPC   C4A 3681   0.110   5.166   6.567  0.0260  0.0296  0.2186
  271POPC   C1B 3682   1.160   4.154   6.067 -0.1585  0.2124  0.0152
  271POPC   C2B 3683   1.478   4.300   6.350  0.2588  0.0347  0.2373
  271POPC   C3B 3684   1.667   4.571   6.767  0.1482 -0.0297 -0.1006
  271POPC   C4B 3685   2.083   4.550   6.744  0.2774  0.1435  0.0841
  272POPC   NC3 3686   8.200   5.188   4.581 -0.0150 -0.2732  0.0378
  272POPC   PO4 3687   7.808   4.914   4.454 -0.1282 -0.0932  0.0561
  272POPC   GL1 3688   7.817   4.722   4.828 -0.0354 -0.2244 -0.0268
  272POPC   GL2 3689   8.138   4.788   4.961  0.0416  0.1106  0.0224
  272POPC   C1A 3690   7.815   4.846   5.317  0.3411 -0.1336  0.3259
  272POPC   D2A 3691   8.166   4.630   5.648  0.0561  0.1683 -0.1189
  272POPC   C3A 3692   8.059   4.397   5.969  0.1080  0.1351  0.1754
  272POPC   C4A 3693   7.841   4.229   6.356  0.2410 -0.0748  0.3812
  272POPC   C1B 3694   8.308   5.007   5.360  0.3417 -0.0181  0.2114
  272POPC   C2B 3695   8.416   5.068   5.762 -0.0872 -0.1906  0.2022
  272POPC   C3B 3696   8.469   4.842   6.112  0.1379  0.0635 -0.0201
  272POPC   C4B 3697   8.346   4.541   6.468  0.0136  0.0133  0.1055
  273POPC   NC3 3698   5.779   3.068   4.567 -0.1570  0.0240  0.1099
  273POPC   PO4 3699   5.982   2.676   4.553 -0.1027  0.1981  0.1906
  273POPC   GL1 3700   5.989   2.475   4.970 -0.1762  0.1520  0.0270
  273POPC   GL2 3701   6.350   2.607   5.013  0.0270  0.2116 -0.2686
  273POPC   C1A 3702   6.085   2.160   5.156 -0.0640 -0.0300  0.1251
  273POPC   D2A 3703   5.923   1.813   5.412  0.0202 -0.0533  0.0187
  273POPC   C3A 3704   5.674   1.862   5.742  0.1851 -0.1202  0.1232
  273POPC   C4A 3705   5.725   1.985   6.124  0.2485 -0.0378  0.0044
  273POPC   C1B 3706   6.559   2.275   5.323  0.3959  0.0370 -0.0165
  273POPC   C2B 3707   6.732   2.261   5.585 -0.1545  0.2423  0.2207
  273POPC   C3B 3708   6.657   2.522   5.850 -0.0599 -0.0494  0.2190
  273POPC   C4B 3709   6.590   2.741   6.266  0.1163  0.0668 -0.0877
  274POPC   NC3 3710   0.488   3.861   4.730  0.1872 -0.2540 -0.1986
  274POPC   PO4 3711   0.098   3.644   4.691  0.3431 -0.0615 -0.0389
  274POPC   GL1 3712   0.082   3.414   5.033  0.1803  0.2844 -0.0279
  274POPC   GL2 3713   0.068   3.072   5.044  0.1365  0.2275  0.1201
  274POPC   C1A 3714   0.389   3.252   5.404  0.1571 -0.0533 -0.0749
  274POPC   D2A 3715   0.379   3.594   5.827 -0.0122  0.4049  0.0204
  274POPC   C3A 3716   0.489   3.466   6.276  0.1788 -0.0283  0.1084
  274POPC   C4A 3717   0.451   3.276   6.688 -0.1170 -0.1987  0.0762
  274POPC   C1B 3718   0.053   2.868   5.497 -0.1351 -0.1588  0.3452
  274POPC   C2B 3719   0.280   2.965   5.937  0.0183 -0.0521 -0.0787
  274POPC   C3B 3720   0.573   2.995   6.254  0.2187  0.1275  0.4213
  274POPC   C4B 3721   0.982   2.932   6.459  0.1688 -0.0517  0.2593
  275POPC   NC3 3722   2.488   0.151   2.760 -0.2658  0.1885  0.1792
  275POPC   PO4 3723   2.199  -0.166   3.024 -0.1445  0.2789  0.0121
  275POPC   GL1 3724   2.109  -0.196   3.469  0.1454  0.0425  0.1730
  275POPC   GL2 3725   2.196   0.026   3.659 -0.1063  0.4444 -0.0489
  275POPC   C1A 3726   2.129  -0.465   3.828  0.0207 -0.0849  0.2770
  275POPC   D2A 3727   2.330  -0.810   4.105  0.1695 -0.1621 -0.2240
  275POPC   C3A 3728   2.265  -0.922   4.535 -0.1030 -0.0654 -0.1139
  275POPC   C4A 3729   2.231  -1.400   4.766  0.0970  0.2994  0.1219
  275POPC   C1B 3730   1.803  -0.028   3.851  0.3102 -0.0737  0.2978
  275POPC   C2B 3731   1.605  -0.134   4.187 -0.0753 -0.1256  0.2512
  275POPC   C3B 3732   1.738  -0.205   4.580 -0.2228 -0.1672  0.1277
  275POPC   C4B 3733   1.898  -0.459   4.613 -0.2200 -0.0149  0.3189
  276POPC   NC3 3734   5.398   3.772   4.538  0.3101  0.1353  0.4998
  276POPC   PO4 3735   5.780   3.553   4.668 -0.1282  0.2163  0.0158
  276POPC   GL1 3736   5.812   3.357   5.102 -0.3862  0.0882 -0.2169
  276POPC   GL2 3737   5.641   3.045   5.082  0.4744 -0.2841 -0.0349
  276POPC   C1A 3738   5.846   3.273   5.519 -0.3452  0.1379  0.0649
  276POPC   D2A 3739   5.716   2.861   5.666  0.3038 -0.4265  0.2877
  276POPC   C3A 3740   5.645   2.974   6.182 -0.0840  0.0233  0.0339
  276POPC   C4A 3741   5.746   3.354   6.472 -0.0688  0.0556  0.2052
  276POPC   C1B 3742   5.983   2.893   5.169 -0.2122 -0.1327 -0.3378
  276POPC   C2B 3743   6.191   2.600   5.464  0.3410  0.1358 -0.0958
  276POPC   C3B 3744   6.180   2.303   5.769  0.0215 -0.1320 -0.1283
  276POPC   C4B 3745   6.130   1.809   5.910  0.0043  0.0002 -0.1053
  277POPC   NC3 3746   9.199   9.935   3.227 -0.1397 -0.2212  0.1129
  277POPC   PO4 3747   9.017  10.336   3.254  0.5312 -0.2259  0.0861
  277POPC   GL1 3748   9.399  10.383   3.449  0.1617  0.1926 -0.0204
  277POPC   GL2 3749   9.359  10.691   3.693 -0.4058  0.2506  0.1137
  277POPC   C1A 3750   9.827  10.475   3.604  0.0433 -0.2251  0.2956
  277POPC   D2A 3751  10.160  10.679   3.812  0.0257 -0.0263 -0.3354
  277POPC   C3A 3752  10.153  10.581   4.181  0.1306  0.2374  0.1762
  277POPC   C4A 3753  10.140  10.166   4.453  0.0291 -0.1450  0.1843
  277POPC   C1B 3754   9.724  10.753   4.086  0.0784  0.1368 -0.1585
  277POPC   C2B 3755   9.848  11.146   4.226  0.1526  0.1934 -0.2054
  277POPC   C3B 3756  10.141  11.455   4.281  0.1219  0.0770 -0.0694
  277POPC   C4B 3757  10.016  11.800   4.567  0.0305  0.2811  0.0755
  278POPC   NC3 3758   8.545   7.512   4.613  0.3658  0.0151  0.2692
  278POPC   PO4 3759   8.269   7.827   4.606  0.1049  0.1813  0.1974
  278POPC   GL1 3760   8.116   7.968   4.986  0.2002  0.2118  0.0487
  278POPC   GL2 3761   7.817   7.869   4.983 -0.3079 -0.1168  0.2225
  278POPC   C1A 3762   8.286   8.249   5.193  0.0112 -0.0316 -0.2013
  278POPC   D2A 3763   8.548   8.326   5.631  0.5092 -0.1179  0.3569
  278POPC   C3A 3764   8.187   8.513   5.998  0.1703  0.3490 -0.1696
  278POPC   C4A 3765   7.766   8.572   6.271  0.4726  0.1383 -0.0654
  278POPC   C1B 3766   8.164   7.850   5.449 -0.1924 -0.2037 -0.3308
  278POPC   C2B 3767   8.455   7.841   5.784 -0.0947  0.0238  0.0321
  278POPC   C3B 3768   8.665   8.022   6.119  0.0514  0.1369 -0.0204
  278POPC   C4B 3769   8.972   8.111   6.300  0.1567  0.1066  0.0759
  279POPC   NC3 3770   0.081   0.361   2.720  0.0403  0.0565 -0.1619
  279POPC   PO4 3771  -0.283   0.162   3.045  0.3407  0.0198 -0.0844
  279POPC   GL1 3772  -0.183   0.029   3.429  0.2453 -0.2529 -0.2195
  279POPC   GL2 3773   0.066  -0.193   3.522  0.1198 -0.2119  0.0185
  279POPC   C1A 3774  -0.230  -0.234   3.868  0.0714  0.1440 -0.1121
  279POPC   D2A 3775  -0.033  -0.697   3.853 -0.3117 -0.2707  0.0115
  279POPC   C3A 3776   0.380  -0.833   3.935 -0.1259  0.2505 -0.0076
  279POPC   C4A 3777   0.696  -1.237   4.042 -0.5732  0.2233 -0.0541
  279POPC   C1B 3778   0.324  -0.298   3.923  0.2813 -0.0998 -0.0849
  279POPC   C2B 3779   0.611  -0.226   4.286  0.2101  0.2470  0.0334
  279POPC   C3B 3780   0.580  -0.163   4.643  0.2708  0.0070  0.0434
  279POPC   C4B 3781   0.550  -0.148   5.087 -0.0359 -0.1476 -0.0104
  280POPC   NC3 3782   4.138   8.650   3.845  0.1638 -0.5593  0.2350
  280POPC   PO4 3783   4.237   8.618   4.237  0.0321  0.1257  0.0900
  280POPC   GL1 3784   4.059   8.422   4.523  0.0921  0.0873  0.0340
  280POPC   GL2 3785   3.724   8.360   4.780  0.1124 -0.1185  0.0893
  280POPC   C1A 3786   4.123   8.060   4.785 -0.2404  0.0397  0.0384
  280POPC   D2A 3787   3.940   7.933   5.169  0.3426  0.1061 -0.1728
  280POPC   C3A 3788   4.059   7.882   5.635  0.2290 -0.2169  0.3416
  280POPC   C4A 3789   3.984   8.029   6.113 -0.0286 -0.0796  0.2024
  280POPC   C1B 3790   3.556   8.467   5.277  0.3574 -0.0582  0.3204
  280POPC   C2B 3791   3.453   8.750   5.519 -0.3129 -0.2526  0.0704
  280POPC   C3B 3792   3.379   9.131   5.785 -0.3999  0.0924  0.1539
  280POPC   C4B 3793   3.581   9.595   6.076 -0.0324 -0.1349 -0.0471
  281POPC   NC3 3794   8.838   9.096   3.864 -0.3882  0.1321 -0.1379
  281POPC   PO4 3795   8.459   9.354   3.946 -0.2515  0.1417 -0.0207
  281POPC   GL1 3796   8.376   9.377   4.357  0.1830  0.4181  0.1534
  281POPC   GL2 3797   8.632   9.264   4.481 -0.1577  0.0034  0.1756
  281POPC   C1A 3798   8.326   9.254   4.839 -0.0633  0.3758  0.0600
  281POPC   D2A 3799   8.046   8.947   5.067  0.0319  0.1222 -0.0556
  281POPC   C3A 3800   7.649   8.898   5.406  0.1627  0.0020  0.0575
  281POPC   C4A 3801   7.610   8.826   5.828 -0.2654 -0.3044  0.2686
  281POPC   C1B 3802   8.859   9.256   4.904  0.0746 -0.0348 -0.2339
  281POPC   C2B 3803   9.085   9.080   5.221 -0.1251  0.1587  0.0443
  281POPC   C3B 3804   9.376   8.793   5.423  0.1617  0.0882 -0.1534
  281POPC   C4B 3805   9.538   8.820   5.891  0.1806 -0.0078 -0.4036
  282POPC   NC3 3806   9.916   6.823   4.506 -0.0040  0.0493  0.0376
  282POPC   PO4 3807   9.532   6.823   4.363 -0.1015  0.2068 -0.2011
  282POPC   GL1 3808   9.443   6.895   4.793  0.2449  0.0739 -0.1158
  282POPC   GL2 3809   9.113   6.780   4.811 -0.1011 -0.0300  0.0390
  282POPC   C1A 3810   9.350   7.167   5.127 -0.0083 -0.0554  0.0659
  282POPC   D2A 3811   9.290   7.167   5.607  0.2335  0.1880 -0.1198
  282POPC   C3A 3812   8.863   6.984   5.771  0.1275 -0.0956  0.1838
  282POPC   C4A 3813   8.490   6.966   6.012 -0.0330  0.2627 -0.4726
  282POPC   C1B 3814   8.941   6.855   5.250 -0.0611 -0.0771 -0.0619
  282POPC   C2B 3815   8.528   6.987   5.393 -0.0560  0.1024  0.2214
  282POPC   C3B 3816   8.215   6.878   5.178 -0.1730 -0.3550  0.0699
  282POPC   C4B 3817   7.818   6.888   5.301 -0.0482  0.2034 -0.0549
  283POPC   NC3 3818   2.228   3.630   4.423  0.0093  0.1462 -0.2085
  283POPC   PO4 3819   2.092   3.921   4.769 -0.0838 -0.5132 -0.0954
  283POPC   GL1 3820   2.026   3.794   5.163  0.0177 -0.1824  0.0983
  283POPC   GL2 3821   2.191   3.843   5.403 -0.1680 -0.2422 -0.0856
  283POPC   C1A 3822   1.873   3.385   5.375  0.2214  0.4710  0.1768
  283POPC   D2A 3823   1.933   3.205   5.714 -0.0271 -0.1645  0.0934
  283POPC   C3A 3824   1.713   3.290   5.995  0.3706 -0.1289 -0.1263
  283POPC   C4A 3825   1.469   3.354   6.313 -0.0205  0.2013 -0.1085
  283POPC   C1B 3826   2.299   3.994   5.752 -0.3121  0.1322  0.2416
  283POPC   C2B 3827   2.458   3.843   6.087 -0.0732  0.1238  0.0175
  283POPC   C3B 3828   2.588   3.713   6.585  0.0048  0.0233  0.6837
  283POPC   C4B 3829   2.515   3.630   7.072 -0.2013 -0.0965 -0.0371
  284POPC   NC3 3830   5.979   7.445   4.566  0.1985 -0.0072  0.0520
  284POPC   PO4 3831   5.803   7.840   4.431  0.3911  0.0792  0.2596
  284POPC   GL1 3832   5.707   8.152   4.757 -0.1066  0.2203 -0.1396
  284POPC   GL2 3833   5.394   8.112   4.794 -0.4111  0.3120  0.0298
  284POPC   C1A 3834   5.958   8.218   5.217 -0.1135  0.0726  0.3666
  284POPC   D2A 3835   5.783   8.085   5.562 -0.0918 -0.0210  0.1409
  284POPC   C3A 3836   5.755   7.681   5.652  0.2450  0.1355  0.4276
  284POPC   C4A 3837   5.881   7.331   5.514 -0.1542 -0.0931 -0.0316
  284POPC   C1B 3838   5.420   8.103   5.186  0.0262  0.2068 -0.2902
  284POPC   C2B 3839   5.272   8.196   5.639 -0.0446 -0.0010  0.0935
  284POPC   C3B 3840   5.265   8.532   6.040 -0.3512 -0.0775  0.3187
  284POPC   C4B 3841   5.668   8.843   5.967  0.7019  0.0466 -0.0656
  285POPC   NC3 3842   2.678   2.677   3.668  0.0014 -0.0131 -0.2334
  285POPC   PO4 3843   2.700   2.783   4.099  0.1837 -0.2055  0.0459
  285POPC   GL1 3844   2.674   2.738   4.572  0.3248  0.0168 -0.2565
  285POPC   GL2 3845   2.436   2.937   4.749 -0.0404  0.1480 -0.0354
  285POPC   C1A 3846   2.559   2.312   4.798 -0.1645 -0.1303 -0.1014
  285POPC   D2A 3847   2.954   2.118   4.855  0.2324  0.3520 -0.1165
  285POPC   C3A 3848   3.087   2.088   5.226 -0.2853  0.1375  0.1145
  285POPC   C4A 3849   2.932   1.972   5.648 -0.1101  0.0791 -0.0775
  285POPC   C1B 3850   2.655   2.830   5.141  0.2378 -0.1670 -0.0355
  285POPC   C2B 3851   2.717   2.488   5.277 -0.1559  0.0870  0.1007
  285POPC   C3B 3852   2.506   2.331   5.527 -0.2181 -0.3596  0.0329
  285POPC   C4B 3853   2.113   2.193   5.746  0.0853 -0.0665 -0.2172
  286POPC   NC3 3854   0.934   8.227   3.401 -0.0714 -0.1160 -0.1722
  286POPC   PO4 3855   0.599   7.976   3.382 -0.1277 -0.3610  0.0436
  286POPC   GL1 3856   0.559   7.741   3.883  0.0443  0.2509  0.0525
  286POPC   GL2 3857   0.321   7.620   4.165 -0.0934 -0.1460 -0.0115
  286POPC   C1A 3858   0.974   7.850   4.128 -0.1989 -0.3729 -0.2207
  286POPC   D2A 3859   1.213   7.824   4.459  0.0391  0.2277 -0.1245
  286POPC   C3A 3860   1.272   7.471   4.717 -0.1352 -0.3335  0.0788
  286POPC   C4A 3861   1.585   7.309   5.050  0.1601  0.1915 -0.0811
  286POPC   C1B 3862   0.616   7.756   4.463  0.0301  0.0351 -0.0299
  286POPC   C2B 3863   0.810   7.948   4.835 -0.0089  0.1954  0.0567
  286POPC   C3B 3864   1.017   8.071   5.279 -0.2696 -0.0276 -0.1679
  286POPC   C4B 3865   0.993   8.038   5.620  0.0443 -0.1579  0.0137
  287POPC   NC3 3866   7.847   4.422   4.436 -0.1395 -0.0438  0.2360
  287POPC   PO4 3867   8.029   4.053   4.623 -0.0314  0.0085  0.2705
  287POPC   GL1 3868   7.814   4.075   5.037 -0.2889  0.0801 -0.4052
  287POPC   GL2 3869   7.919   4.304   5.078  0.0772 -0.2355 -0.0910
  287POPC   C1A 3870   7.698   3.710   5.390 -0.3168  0.0598  0.0397
  287POPC   D2A 3871   7.795   3.279   5.418  0.4138  0.0594  0.0206
  287POPC   C3A 3872   8.050   3.089   5.442 -0.0039 -0.1326  0.1603
  287POPC   C4A 3873   8.149   2.905   5.831  0.3117 -0.1106  0.0190
  287POPC   C1B 3874   8.305   4.450   5.248  0.3821 -0.0298  0.0998
  287POPC   C2B 3875   8.637   4.629   5.464 -0.0898  0.1716  0.3008
  287POPC   C3B 3876   8.833   4.868   5.747 -0.2493 -0.1034  0.3230
  287POPC   C4B 3877   8.817   5.236   6.034 -0.1245 -0.0378 -0.2331
  288POPC   NC3 3878   1.060   4.392   4.488 -0.0392  0.1049 -0.3705
  288POPC   PO4 3879   1.398   4.020   4.783 -0.0914  0.2934 -0.1894
  288POPC   GL1 3880   1.377   3.951   5.237 -0.2545 -0.0514  0.2181
  288POPC   GL2 3881   1.073   3.853   5.347 -0.1328  0.0970  0.1980
  288POPC   C1A 3882   1.694   3.855   5.462  0.1757 -0.1999 -0.0142
  288POPC   D2A 3883   1.945   3.695   5.862 -0.2997  0.1762 -0.0442
  288POPC   C3A 3884   1.991   3.566   6.301 -0.1589 -0.1258 -0.0522
  288POPC   C4A 3885   2.021   3.766   6.740 -0.0351  0.3319  0.1917
  288POPC   C1B 3886   0.846   3.755   5.625 -0.0158 -0.0593  0.1742
  288POPC   C2B 3887   0.790   3.759   6.044  0.0429 -0.1668  0.0499
  288POPC   C3B 3888   0.746   3.847   6.518  0.0692 -0.0441 -0.1185
  288POPC   C4B 3889   0.434   3.809   6.695 -0.0259  0.3814  0.0570
  289POPC   NC3 3890   8.448   0.314   4.214 -0.3754 -0.2233 -0.2092
  289POPC   PO4 3891   8.430   0.707   4.025 -0.4883 -0.0190  0.0794
  289POPC   GL1 3892   8.884   0.706   4.179  0.0748  0.0279  0.0663
  289POPC   GL2 3893   8.776   0.579   4.498 -0.0607 -0.0724  0.1344
  289POPC   C1A 3894   9.304   0.538   4.151  0.1866  0.2209  0.0724
  289POPC   D2A 3895   9.540   0.661   4.520  0.0866  0.4309 -0.1824
  289POPC   C3A 3896   9.729   0.386   4.725 -0.0595 -0.0119  0.0082
  289POPC   C4A 3897   9.603   0.192   4.993 -0.0990 -0.0767  0.2692
  289POPC   C1B 3898   8.713   0.354   4.907  0.0543 -0.2496 -0.0071
  289POPC   C2B 3899   8.794   0.407   5.450  0.0776  0.1929  0.2091
  289POPC   C3B 3900   9.124   0.066   5.658  0.0945 -0.0787  0.0296
  289POPC   C4B 3901   9.184  -0.073   6.110 -0.5197 -0.0118 -0.1947
  290POPC   NC3 3902   8.840   5.703   4.172  0.3723  0.3770 -0.1958
  290POPC   PO4 3903   8.733   6.124   4.297 -0.0114 -0.0490  0.1572
  290POPC   GL1 3904   8.697   6.095   4.815 -0.2364  0.1057 -0.0818
  290POPC   GL2 3905   8.808   6.359   5.024 -0.0516  0.1299 -0.1478
  290POPC   C1A 3906   8.559   5.937   5.135  0.4225 -0.1556 -0.3489
  290POPC   D2A 3907   8.499   5.994   5.601  0.1901  0.2735 -0.3101
  290POPC   C3A 3908   8.904   6.272   5.707  0.1080 -0.2193 -0.2122
  290POPC   C4A 3909   9.196   6.646   5.631  0.4749 -0.4685 -0.0691
  290POPC   C1B 3910   8.947   6.161   5.253 -0.1151 -0.1983 -0.1055
  290POPC   C2B 3911   9.232   5.975   5.392 -0.0011 -0.0971  0.1015
  290POPC   C3B 3912   9.551   6.138   5.630  0.0852 -0.1985  0.3612
  290POPC   C4B 3913   9.906   5.971   5.917  0.1944  0.2295  0.1195
  291POPC   NC3 3914   0.064   3.123   4.566  0.0663  0.3187  0.0465
  291POPC   PO4 3915  -0.355   2.910   4.549 -0.1282 -0.0473 -0.1298
  291POPC   GL1 3916  -0.243   2.666   4.864 -0.0583 -0.0598  0.0312
  291POPC   GL2 3917   0.103   2.603   4.867 -0.2436  0.0610  0.0600
  291POPC   C1A 3918  -0.309   2.603   5.262 -0.0279 -0.0589  0.0450
  291POPC   D2A 3919  -0.461   2.693   5.686 -0.0754 -0.0640 -0.2087
  291POPC   C3A 3920  -0.499   2.271   5.913 -0.2445  0.1945  0.1614
  291POPC   C4A 3921  -0.583   1.817   6.002  0.0366 -0.7469 -0.0966
  291POPC   C1B 3922   0.175   2.471   5.266 -0.1926  0.3291 -0.0580
  291POPC   C2B 3923   0.187   2.134   5.534  0.3054 -0.1054 -0.0746
  291POPC   C3B 3924  -0.058   1.944   5.847  0.0772 -0.1973 -0.4049
  291POPC   C4B 3925  -0.067   1.724   6.227 -0.1645  0.0319  0.5273
  292POPC   NC3 3926   2.536   1.588   3.468  0.4467 -0.1554  0.3570
  292POPC   PO4 3927   2.941   1.840   3.576  0.2017 -0.0516 -0.0016
  292POPC   GL1 3928   2.826   1.544   3.926  0.0642  0.2210 -0.0546
  292POPC   GL2 3929   2.490   1.557   3.985  0.0356 -0.1022 -0.0734
  292POPC   C1A 3930   2.924   1.346   4.295 -0.0791  0.0554  0.2034
  292POPC   D2A 3931   2.770   1.118   4.710  0.1826  0.5204 -0.1777
  292POPC   C3A 3932   2.618   1.217   5.133 -0.0996  0.2350 -0.1776
  292POPC   C4A 3933   2.599   1.090   5.647 -0.4796  0.0443  0.0536
  292POPC   C1B 3934   2.446   1.253   4.388  0.0973 -0.1227 -0.0390
  292POPC   C2B 3935   2.341   0.904   4.518  0.1562  0.0888 -0.0679
  292POPC   C3B 3936   2.515   0.718   4.879 -0.0312  0.1405  0.0325
  292POPC   C4B 3937   2.524   0.663   5.320  0.1747  0.1407  0.0676
  293POPC   NC3 3938   1.172   1.287   2.767 -0.3262 -0.3311 -0.0462
  293POPC   PO4 3939   0.861   1.419   3.087  0.1450  0.3682 -0.1054
  293POPC   GL1 3940   0.736   1.251   3.386 -0.0449  0.0126  0.2434
  293POPC   GL2 3941   0.522   1.427   3.669 -0.1165  0.0527  0.0903
  293POPC   C1A 3942   0.874   0.949   3.682  0.1640  0.4251  0.0657
  293POPC   D2A 3943   0.728   0.799   3.956  0.0675  0.0287 -0.1094
  293POPC   C3A 3944   1.037   0.588   4.131  0.1475  0.3259 -0.1915
  293POPC   C4A 3945   1.272   0.325   4.404  0.0595  0.1242 -0.0335
  293POPC   C1B 3946   0.412   1.188   3.984  0.0447 -0.0356  0.0128
  293POPC   C2B 3947   0.541   1.045   4.382  0.0823 -0.1340  0.2424
  293POPC   C3B 3948   0.616   0.894   4.649 -0.2717 -0.0435  0.2365
  293POPC   C4B 3949   0.522   0.967   5.045  0.0609 -0.1590  0.1905
  294POPC   NC3 3950   1.992   1.946   3.269 -0.1251  0.1051 -0.1958
  294POPC   PO4 3951   2.146   1.883   3.642  0.0312 -0.2077 -0.2448
  294POPC   GL1 3952   2.342   2.076   4.026 -0.0219  0.2269 -0.3202
  294POPC   GL2 3953   2.379   2.401   4.175 -0.0726  0.1045  0.4011
  294POPC   C1A 3954   2.497   2.008   4.425  0.5360 -0.1654 -0.0285
  294POPC   D2A 3955   2.606   1.791   4.770  0.3860  0.0744  0.0082
  294POPC   C3A 3956   2.619   1.986   5.237  0.1159 -0.2328  0.0241
  294POPC   C4A 3957   2.239   2.418   5.120  0.2841 -0.1717  0.2365
  294POPC   C1B 3958   2.123   2.311   4.591  0.0832  0.2118 -0.2562
  294POPC   C2B 3959   2.184   1.968   4.914 -0.1042 -0.1801  0.0520
  294POPC   C3B 3960   2.108   1.753   5.335  0.3469  0.0244  0.0132
  294POPC   C4B 3961   2.209   1.363   5.481  0.0555  0.0792 -0.2050
  295POPC   NC3 3962   4.453   2.991   3.538 -0.0079  0.2050  0.2089
  295POPC   PO4 3963   4.712   2.681   3.901 -0.1607  0.1290  0.2626
  295POPC   GL1 3964   4.798   2.440   4.333  0.1139  0.1649  0.0003
  295POPC   GL2 3965   4.845   2.209   4.470 -0.0410  0.1001  0.0792
  295POPC   C1A 3966   4.996   2.578   4.735 -0.1690  0.1403 -0.0530
  295POPC   D2A 3967   5.295   2.428   5.080 -0.0204  0.0295 -0.1450
  295POPC   C3A 3968   5.235   2.153   5.480  0.0474 -0.0854 -0.4813
  295POPC   C4A 3969   5.140   1.791   5.640 -0.1266 -0.0729  0.0667
  295POPC   C1B 3970   5.042   2.067   4.815  0.0705  0.3515 -0.2221
  295POPC   C2B 3971   5.211   1.759   5.104  0.0208  0.0254  0.0624
  295POPC   C3B 3972   5.576   1.531   5.401  0.1335  0.2964  0.0470
  295POPC   C4B 3973   5.820   1.372   5.614  0.0527  0.1315  0.0851
  296POPC   NC3 3974   3.574   7.556   4.398  0.0269  0.0383  0.2169
  296POPC   PO4 3975   3.528   7.727   4.828  0.2262  0.0008  0.0625
  296POPC   GL1 3976   3.131   7.618   5.119  0.0614 -0.2041  0.0244
  296POPC   GL2 3977   2.853   7.525   5.145 -0.0637  0.0023 -0.1867
  296POPC   C1A 3978   3.141   7.694   5.664  0.1998 -0.0693 -0.0426
  296POPC   D2A 3979   3.095   7.637   6.033  0.2024 -0.1987 -0.4457
  296POPC   C3A 3980   3.031   7.278   6.408 -0.2091  0.0842  0.0114
  296POPC   C4A 3981   3.111   6.974   6.689 -0.0473  0.0285 -0.1747
  296POPC   C1B 3982   2.878   7.216   5.544 -0.0167 -0.0048 -0.2588
  296POPC   C2B 3983   3.147   7.091   5.859  0.0325 -0.1212 -0.1402
  296POPC   C3B 3984   3.425   6.923   6.222  0.2142 -0.0544  0.3207
  296POPC   C4B 3985   3.652   7.030   6.659  0.0242  0.2660 -0.0143
  297POPC   NC3 3986   0.058   4.160   4.646  0.0978  0.2528 -0.1167
  297POPC   PO4 3987   0.469   4.326   4.914  0.1659  0.0143  0.1324
  297POPC   GL1 3988   0.590   4.070   5.285 -0.2371  0.3814  0.2275
  297POPC   GL2 3989   0.516   3.724   5.284  0.0984  0.1110  0.2195
  297POPC   C1A 3990   0.453   4.054   5.673  0.2260 -0.0773  0.0627
  297POPC   D2A 3991   0.408   4.041   6.120  0.0860  0.0252  0.1364
  297POPC   C3A 3992   0.576   4.365   6.408 -0.0749 -0.2812 -0.3840
  297POPC   C4A 3993   0.386   4.389   6.854  0.3876  0.0547 -0.0668
  297POPC   C1B 3994   0.076   3.721   5.480  0.0057  0.2090 -0.2605
  297POPC   C2B 3995  -0.142   3.369   5.511 -0.2378 -0.1976  0.0772
  297POPC   C3B 3996  -0.451   3.165   5.565 -0.2451  0.0078  0.1048
  297POPC   C4B 3997  -0.839   3.116   5.758  0.0082 -0.3334 -0.2984
  298POPC   NC3 3998   6.147   9.826   4.606 -0.0844 -0.0702 -0.0437
  298POPC   PO4 3999   5.860  10.189   4.555  0.0186 -0.0132 -0.2948
  298POPC   GL1 4000   5.918  10.136   4.991  0.2035  0.0685 -0.1451
  298POPC   GL2 4001   6.232  10.014   5.122 -0.3831  0.1735 -0.0256
  298POPC   C1A 4002   6.103  10.428   5.297  0.2353 -0.1879  0.2035
  298POPC   D2A 4003   6.284  10.566   5.664  0.1921 -0.0978 -0.0130
  298POPC   C3A 4004   5.993  10.468   5.948 -0.3155  0.1010 -0.1932
  298POPC   C4A 4005   5.585  10.278   6.205  0.0961 -0.0867 -0.1509
  298POPC   C1B 4006   6.341  10.033   5.620  0.0532  0.0426  0.3022
  298POPC   C2B 4007   6.196   9.937   6.028  0.1093 -0.0418  0.1089
  298POPC   C3B 4008   5.878   9.804   6.233  0.2387  0.0344  0.2196
  298POPC   C4B 4009   5.464   9.758   6.317  0.4390 -0.1394  0.0149
  299POPC   NC3 4010   6.731   6.034   3.900  0.0108  0.2338 -0.0446
  299POPC   PO4 4011   6.722   5.935   4.327 -0.1847  0.0154  0.1871
  299POPC   GL1 4012   7.048   6.056   4.726  0.0463  0.1332  0.0065
  299POPC   GL2 4013   7.082   6.391   4.932  0.0793 -0.0972 -0.0164
  299POPC   C1A 4014   6.993   5.971   5.168  0.2116 -0.4454 -0.0016
  299POPC   D2A 4015   6.882   5.907   5.565 -0.0857  0.2341 -0.4442
  299POPC   C3A 4016   7.082   6.354   5.782 -0.1869 -0.1818 -0.0368
  299POPC   C4A 4017   7.265   6.453   6.246 -0.1311 -0.1250 -0.0305
  299POPC   C1B 4018   6.803   6.467   5.362 -0.2594 -0.1755  0.0242
  299POPC   C2B 4019   6.701   6.867   5.614 -0.2804  0.1015  0.1697
  299POPC   C3B 4020   6.880   7.325   5.592  0.1461 -0.0736  0.2989
  299POPC   C4B 4021   7.285   7.614   5.805  0.2303 -0.4076  0.3177
  300POPC   NC3 4022   6.276   6.693   4.314  0.1503  0.0073 -0.0461
  300POPC   PO4 4023   6.333   7.156   4.379  0.1722 -0.3015 -0.0285
  300POPC   GL1 4024   6.453   6.933   4.721  0.1737 -0.1802  0.0999
  300POPC   GL2 4025   6.800   6.762   4.758 -0.2162 -0.0021 -0.1082
  300POPC   C1A 4026   6.387   6.719   5.188  0.1835 -0.0150  0.2287
  300POPC   D2A 4027   6.342   6.411   5.564 -0.3103 -0.3840  0.1551
  300POPC   C3A 4028   6.145   6.481   5.984  0.0601 -0.2173 -0.3355
  300POPC   C4A 4029   6.184   6.435   6.437 -0.1399 -0.0558 -0.1060
  300POPC   C1B 4030   6.901   6.939   5.111  0.1087 -0.0917 -0.0229
  300POPC   C2B 4031   7.288   7.213   5.276  0.0102  0.1215 -0.0234
  300POPC   C3B 4032   7.475   7.207   5.704  0.2144 -0.3635  0.1742
  300POPC   C4B 4033   7.481   7.114   6.207 -0.0751 -0.0746  0.1235
  301POPC   NC3 4034   9.425   8.186   3.314  0.1898  0.1875  0.0939
  301POPC   PO4 4035   9.864   8.277   3.488 -0.2728  0.0331 -0.3053
  301POPC   GL1 4036   9.888   8.349   3.913  0.0380 -0.1164 -0.1859
  301POPC   GL2 4037  10.035   8.152   4.239 -0.1476 -0.2909  0.0014
  301POPC   C1A 4038  10.034   8.717   4.226  0.1656  0.1630 -0.3726
  301POPC   D2A 4039  10.343   8.941   4.394  0.0456 -0.0769  0.1854
  301POPC   C3A 4040  10.432   8.896   4.823 -0.0337  0.1254 -0.0058
  301POPC   C4A 4041  10.433   9.050   5.274  0.1678 -0.1740  0.1576
  301POPC   C1B 4042  10.131   7.937   4.650 -0.2029 -0.1679 -0.0976
  301POPC   C2B 4043  10.310   7.698   4.932  0.1017  0.4262  0.0404
  301POPC   C3B 4044  10.539   7.640   5.353  0.1957 -0.2317 -0.0790
  301POPC   C4B 4045  10.525   7.765   5.785  0.2710  0.0822  0.2652
  302W        W 4046   4.172   0.877  12.371  0.3827  0.1484  0.1811
  303W        W 4047   4.741   9.810   9.753  0.2680  0.2365  0.0652
  304W        W 4048   9.622   5.431  12.319  0.0988 -0.1623 -0.0933
  305W        W 4049   2.375   7.931  11.741  0.1913  0.4308  0.4162
  306W        W 4050   1.887   0.865  12.010 -0.2598  0.2416  0.0140
  307W        W 4051   3.211   0.841   3.806 -0.1073 -0.0579  0.0166
  308W        W 4052   9.280   9.660   0.316  0.0232 -0.0446 -0.0054
  309W        W 4053   5.036   8.294   9.782  0.3565  0.0709  0.0013
  310W        W 4054   2.536   5.111  10.911  0.4029 -0.0200 -0.0645
  311W        W 4055   6.077   6.091   9.300 -0.2248  0.2275  0.0632
  312W        W 4056   8.380   9.359  10.079 -0.0535 -0.2172 -0.2100
  313W        W 4057   7.994   5.308   1.697 -0.2876 -0.1658 -0.1918
  314W        W 4058   6.445   7.757  10.535 -0.0112  0.2238  0.1883
  315W        W 4059   2.095   2.196  12.256 -0.2324  0.0902  0.1454
  316W        W 4060   8.352   2.834   2.630 -0.1798 -0.0374 -0.0324
  317W        W 4061   8.343   0.075  10.678  0.0573  0.0881  0.0908
  318W        W 4062   6.001   1.218   2.436  0.0087  0.0967 -0.1514
  319W        W 4063   8.566   1.270  10.675 -0.2594 -0.2184 -0.2367
  320W        W 4064   8.611   1.061   9.636 -0.0046 -0.0901 -0.0989
  321W        W 4065   7.139   9.608   8.527  0.2447 -0.3265 -0.1484
  322W        W 4066   7.285   4.338   2.559 -0.0201  0.0387 -0.0259
  323W        W 4067   8.927   5.427  10.887  0.2021 -0.3230  0.1510
  324W        W 4068   8.528   1.378  11.153 -0.0553 -0.3182  0.2267
  325W        W 4069   1.052   6.176   9.851 -0.1252  0.0682  0.0736
  326W        W 4070   0.520   0.798   9.089 -0.3245  0.0910  0.2580
  327W        W 4071   8.870   9.494   1.091  0.0312 -0.0684 -0.1885
  328W        W 4072   7.356   6.695   7.701  0.1824  0.3109  0.1971
  329W        W 4073   3.036   6.986   0.895 -0.0023 -0.1385  0.0376
  330W        W 4074   7.672   2.450   1.817 -0.1017  0.2689  0.3305
  331W        W 4075   3.612   6.023   9.481  0.2759  0.2093 -0.1416
  332W        W 4076   6.038   2.507  12.723  0.0406  0.0541 -0.2277
  333W        W 4077   7.127   1.015   0.733 -0.3086 -0.3104 -0.0049
  334W        W 4078   2.739   0.651   0.956  0.2439  0.1286 -0.0018
  335W        W 4079   3.266   3.473   0.947 -0.1130 -0.2186 -0.1831
  336W        W 4080   0.136   2.307  10.451  0.0841 -0.2617 -0.1227
  337W        W 4081   6.301   8.375   0.135  0.1595 -0.1796  0.4218
  338W        W 4082   5.191   5.582   0.580 -0.1330 -0.0039 -0.1409
  339W        W 4083   5.548   4.581  11.824  0.0763  0.0675 -0.0037
  340W        W 4084   2.396   1.799   2.956  0.1560  0.2446 -0.3310
  341W        W 4085   5.044   6.303   3.891  0.2232 -0.1992  0.2772
  342W        W 4086   3.887   4.176   4.605  0.4488 -0.1602 -0.0887
  343W        W 4087   5.603   5.715  12.575 -0.0162  0.2683 -0.0908
  344W        W 4088   6.921   5.076   9.543  0.1113 -0.0131  0.0721
  345W        W 4089   6.106   1.872   1.377  0.1521  0.1021 -0.1452
  346W        W 4090   4.587   0.137   2.167 -0.3166  0.1841  0.0786
  347W        W 4091   9.533   0.839   8.808  0.1162  0.2643  0.0306
  348W        W 4092   0.019   9.735   2.698 -0.2655 -0.0912 -0.2057
  349W        W 4093   0.249   9.086  11.035 -0.0521 -0.2280  0.0040
  350W        W 4094   6.944   1.101   8.578  0.0236  0.1577  0.1058
  351W        W 4095   2.176   9.142   0.098  0.1760 -0.0763  0.1687
  352W        W 4096   8.218   1.023   4.474 -0.2864  0.1019  0.1123
  353W        W 4097   4.686   8.634   2.909 -0.0315 -0.1444 -0.0993
  354W        W 4098   9.111   6.922  11.068 -0.1262 -0.1350 -0.0653
  355W        W 4099   2.591   0.731   0.359 -0.3111  0.4545  0.2938
  356W        W 4100   5.132   8.226   1.146 -0.3470 -0.1091 -0.1309
  357W        W 4101   3.883   3.568   9.320 -0.2800  0.2137  0.0134
  358W        W 4102   8.423   9.827   0.510  0.0798  0.2937 -0.2560
  359W        W 4103   5.135   5.267   9.000  0.1073 -0.1832  0.1788
  360W        W 4104   2.147   9.893   0.809  0.0664  0.1420 -0.1457
  361W        W 4105   7.727   1.112  12.516 -0.1119  0.1308  0.1022
  362W        W 4106   0.207   0.209   1.648 -0.0541 -0.1829 -0.0990
  363W        W 4107   3.311   3.439   2.746  0.1529  0.0690  0.2097
  364W        W 4108   0.253   4.216  10.711  0.1522  0.0480 -0.1870
  365W        W 4109   1.676   7.696   1.475  0.1222 -0.0921 -0.5321
  366W        W 4110   9.702   2.201   2.883  0.2783 -0.0564  0.0382
  367W        W 4111   4.644   7.874   0.612 -0.1268 -0.0343  0.0604
  368W        W 4112   0.882   7.217   2.345  0.0545  0.0528  0.0882
  369W        W 4113   7.906   5.894  11.375  0.0090  0.1042 -0.3021
  370W        W 4114   3.710   7.770  11.947 -0.1798 -0.2202 -0.1766
  371W        W 4115   0.416   5.602  10.541  0.0600 -0.3175  0.2178
  372W        W 4116   4.006   4.492   4.106  0.2222  0.1111 -0.0751
  373W        W 4117   7.941   8.981  11.953 -0.2126 -0.2665  0.3470
  374W        W 4118   3.805   9.663  10.885  0.2647 -0.0092 -0.1256
  375W        W 4119   8.939   8.368  12.599  0.0849 -0.1038  0.0136
  376W        W 4120   7.244   3.041   4.068 -0.1456  0.0569  0.0308
  377W        W 4121   8.946   5.462  12.686  0.0064 -0.1897 -0.2329
  378W        W 4122   0.107   7.930   3.101 -0.3769  0.2330 -0.1093
  379W        W 4123   3.698   8.230  11.131  0.0896 -0.0052 -0.3743
  380W        W 4124   0.653   1.026   1.606  0.1546 -0.0214  0.2044
  381W        W 4125   9.430   8.482   0.463  0.1625  0.0929  0.0436
  382W        W 4126   8.621   7.077  11.867 -0.3318  0.1878  0.0257
  383W        W 4127   0.304   4.388   2.645 -0.2156 -0.1428 -0.0981
  384W        W 4128   8.134   2.490   3.124  0.0373  0.3293 -0.3374
  385W        W 4129   8.006   3.144   0.103 -0.0157  0.3747 -0.2989
  386W        W 4130   3.447   3.262   1.349 -0.4274  0.0958 -0.4106
  387W        W 4131   3.778   2.626  12.437 -0.1069 -0.1973 -0.1440
  388W        W 4132   8.142   8.303   3.081  0.5109 -0.0044 -0.0360
  389W        W 4133   1.826   4.380  11.791  0.1262  0.0526  0.0227
  390W        W 4134   4.618   3.297   1.704  0.0241  0.3610  0.2997
  391W        W 4135   3.643   8.951   2.793 -0.0444  0.0312 -0.3808
  392W        W 4136   1.555   1.976  10.200  0.0596 -0.0699 -0.0601
  393W        W 4137   4.506   4.543  11.159  0.0304  0.0888 -0.0857
  394W        W 4138   6.467   0.271  10.628  0.1582  0.2101  0.2195
  395W        W 4139   2.784   6.249   0.124 -0.1849 -0.1797  0.2313
  396W        W 4140   5.185   4.069   3.666  0.1822 -0.2396  0.0813
  397W        W 4141   4.634   3.978   3.582  0.2170 -0.1217  0.1379
  398W        W 4142   4.684   5.198   9.347  0.0163  0.0339 -0.1529
  399W        W 4143   1.376   7.626   2.481  0.0307 -0.0363 -0.1040
  400W        W 4144   6.210   1.666   4.424  0.2177 -0.1328  0.0127
  401W        W 4145   1.490   7.459   0.971 -0.1720 -0.1866  0.1623
  402W        W 4146   4.151   2.049   3.388  0.4018 -0.0370  0.0295
  403W        W 4147   5.667   4.228   3.579  0.1843  0.2090  0.1633
  404W        W 4148   4.715   3.400   8.692 -0.2786 -0.2286  0.2674
  405W        W 4149   3.359   5.690   3.305 -0.0164  0.2811  0.0269
  406W        W 4150   2.546   4.572   2.134 -0.1847  0.2443 -0.0672
  407W        W 4151   0.756   5.092  11.372  0.1485 -0.1618 -0.2600
  408W        W 4152   1.626   8.944   3.450  0.0258 -0.1481  0.0746
  409W        W 4153   5.572   0.475   2.324 -0.4719 -0.2512  0.3538
  410W        W 4154   4.686   6.935  10.129  0.4656  0.5100 -0.0629
  411W        W 4155   6.036   6.001  12.416  0.0836  0.0841 -0.2196
  412W        W 4156   7.889   3.964   1.378 -0.0782 -0.0035  0.1527
  413W        W 4157   2.371   4.749   0.757  0.3401  0.0242 -0.0723
  414W        W 4158   9.922   6.238   9.132 -0.0256 -0.0059  0.0267
  415W        W 4159   6.068   8.256  12.439  0.1337 -0.1862  0.0561
  416W        W 4160   5.232   7.182   3.851 -0.0503 -0.2044 -0.1246
  417W        W 4161   4.119   7.960  11.151 -0.1417 -0.0018 -0.0194
  418W        W 4162   0.251   4.547  12.378 -0.1270  0.0996  0.0862
  419W        W 4163   0.030   0.907   2.130 -0.3167  0.1923 -0.0044
  420W        W 4164   6.216   1.128   0.699 -0.0209  0.2168  0.2467
  421W        W 4165   6.117   6.812  12.546 -0.1432  0.0225  0.2186
  422W        W 4166   5.159   1.816   1.670  0.0896  0.0050  0.1680
  423W        W 4167   7.842   0.536   3.207  0.2281 -0.1086  0.0181
  424W        W 4168   7.035   5.059  12.090 -0.0372  0.1132 -0.2410
  425W        W 4169   7.397   6.593   2.878  0.1609  0.4151 -0.0419
  426W        W 4170   6.542   8.270   9.268  0.4166 -0.1820 -0.0659
  427W        W 4171   3.144   1.346   0.769  0.2098 -0.0977 -0.3883
  428W        W 4172   6.300   9.711   8.454 -0.0959  0.0641  0.2529
  429W        W 4173   7.098   6.124   3.563  0.0331  0.1336  0.1819
  430W        W 4174   6.835   5.229  10.048  0.0456  0.0004 -0.0101
  431W        W 4175   2.735   3.334   0.189 -0.1939  0.3040 -0.0390
  432W        W 4176   0.084   8.885   2.317 -0.0850  0.0769  0.1397
  433W        W 4177   5.005   4.930   1.129 -0.1818  0.0495  0.1080
  434W        W 4178   2.686   5.156  12.800  0.2026  0.0661 -0.0374
  435W        W 4179   6.359   0.170   2.864 -0.1770 -0.3095 -0.3019
  436W        W 4180   2.665   9.095   1.165  0.0245  0.1776  0.1635
  437W        W 4181   5.647   9.263   0.005  0.3510 -0.2639  0.0991
  438W        W 4182   2.665   2.454   0.307 -0.1276 -0.0241  0.0625
  439W        W 4183   4.773   0.855   0.912  0.0452 -0.2438  0.0573
  440W        W 4184   3.264   6.198   0.426  0.1065 -0.2455  0.0767
  441W        W 4185   2.231   7.269  10.885  0.0727  0.1557  0.1167
  442W        W 4186   4.731   5.659   9.478 -0.1274 -0.2919 -0.0325
  443W        W 4187   3.293   4.969   0.000  0.2498  0.1290  0.0755
  444W        W 4188   6.786   4.972   1.313  0.0180 -0.0833  0.1213
  445W        W 4189   6.765   5.676   4.887  0.1513 -0.1214  0.1812
  446W        W 4190   7.928   6.451  12.814  0.2547  0.1986  0.4667
  447W        W 4191   9.353   1.853   3.016 -0.0227  0.3765  0.0515
  448W        W 4192   5.600   9.920   1.061 -0.1430  0.0640  0.0472
  449W        W 4193   5.790   3.926  11.997 -0.1099 -0.0774  0.6126
  450W        W 4194   3.302   4.731  10.541 -0.0339  0.2653  0.0102
  451W        W 4195   7.978   3.159  11.073 -0.0955 -0.0984 -0.1085
  452W        W 4196   3.488   5.902   0.027 -0.1610 -0.1473  0.2201
  453W        W 4197   7.209   4.618   9.619 -0.0399 -0.1045 -0.2149
  454W        W 4198   9.269   6.130   4.837  0.1641 -0.1728 -0.3772
  455W        W 4199   5.939   9.372  10.483 -0.1149  0.0605  0.1159
  456W        W 4200   3.701   1.465   2.676  0.0449 -0.3713  0.0420
  457W        W 4201   3.764   3.306   2.176  0.0564 -0.1206 -0.0737
  458W        W 4202   6.476   3.570   9.151  0.0325 -0.2807  0.0201
  459W        W 4203   3.098   4.536   3.568 -0.1148 -0.2849  0.0839
  460W        W 4204   6.508   6.663   8.706  0.0281 -0.0707 -0.1139
  461W        W 4205   6.659   5.042  11.769  0.2108  0.2528  0.0385
  462W        W 4206   7.695   3.505   0.369 -0.0229  0.0369 -0.0074
  463W        W 4207   8.667   6.947   1.563 -0.1189 -0.1033 -0.1578
  464W        W 4208   3.200   2.378  10.989 -0.0031 -0.1778  0.0433
  465W        W 4209   4.481   2.618  12.303 -0.0357 -0.2450 -0.0614
  466W        W 4210   8.134   0.723   0.833  0.0057  0.0887  0.0854
  467W        W 4211   5.286   5.358  10.075 -0.1583  0.4909  0.2762
  468W        W 4212   4.128   2.634   1.844  0.0668 -0.1617  0.1431
  469W        W 4213   0.396   8.287   3.663  0.1916 -0.2711 -0.0545
  470W        W 4214   8.353   4.758   9.824 -0.1498  0.0650  0.0332
  471W        W 4215   7.892   9.423   2.593 -0.3445  0.0050 -0.3351
  472W        W 4216   5.513   4.764  10.490  0.0030  0.2875  0.0496
  473W        W 4217   5.899   9.657  12.600 -0.0374 -0.2254  0.0588
  474W        W 4218   1.999   9.926  11.019  0.0679 -0.0446  0.4520
  475W        W 4219   9.369   3.905   9.720  0.1588  0.0960  0.3285
  476W        W 4220   3.900   8.221  11.621  0.2545  0.1208 -0.1272
  477W        W 4221   9.746   9.394   9.348 -0.1011  0.1163 -0.1277
  478W        W 4222   1.837   1.272  12.369 -0.0920 -0.1073 -0.2331
  479W        W 4223   6.977   7.180   9.326  0.0328  0.2249  0.2666
  480W        W 4224   2.701   9.631  11.076  0.2537  0.2729 -0.1625
  481W        W 4225   3.274   8.920   0.045  0.0363 -0.1079  0.1059
  482W        W 4226   9.896   4.636   4.664  0.0296 -0.2373 -0.3511
  483W        W 4227   2.470   9.463  12.122  0.0495 -0.4029 -0.1269
  484W        W 4228   5.315   7.868   3.307  0.0684  0.2243 -0.1102
  485W        W 4229   7.856   7.959  10.486 -0.0182  0.0222 -0.0152
  486W        W 4230   6.515   8.873   8.545 -0.1353  0.3064  0.1967
  487W        W 4231   5.687   8.023  11.986  0.1813  0.1159 -0.0529
  488W        W 4232   7.837   4.988  11.606  0.0273 -0.2965 -0.0931
  489W        W 4233   0.448   0.838   3.363 -0.1381 -0.2972  0.0785
  490W        W 4234   3.491   3.549   3.451 -0.0096 -0.0824 -0.2603
  491W        W 4235   4.730   8.975   3.721 -0.2427 -0.0998  0.1374
  492W        W 4236   0.865   4.531  11.774  0.3042  0.0664 -0.3166
  493W        W 4237   7.667   3.416   9.417 -0.2931 -0.0711  0.0107
  494W        W 4238   3.184   7.389  12.696  0.1064  0.2760  0.2753
  495W        W 4239   2.363   2.348   9.864 -0.1695 -0.0745  0.0358
  496W        W 4240   2.072   6.065   3.217 -0.0356  0.1483 -0.2314
  497W        W 4241   5.978   9.716   2.802  0.0720 -0.1625 -0.0217
  498W        W 4242   4.941   0.631   0.409  0.2431 -0.0119 -0.0297
  499W        W 4243   0.988   4.544   2.064 -0.0971  0.0006 -0.1758
  500W        W 4244   4.252   1.712   1.508  0.0280 -0.1042 -0.1202
  501W        W 4245   8.120   3.704   9.206 -0.3478 -0.3958  0.3660
  502W        W 4246   7.658   1.188  12.046 -0.1272 -0.0815 -0.1568
  503W        W 4247   4.261   0.676  11.234  0.1369 -0.0337  0.0584
  504W        W 4248   4.317   5.005   4.243  0.1881  0.7339  0.1802
  505W        W 4249   7.527   4.111   2.953 -0.1964  0.2939 -0.2862
  506W        W 4250   1.474   0.908  12.309  0.0653 -0.0641  0.0222
  507W        W 4251   7.922   3.467  11.745  0.1328  0.0981 -0.0323
  508W        W 4252   7.389   8.739   2.042 -0.2123  0.2321 -0.0912
  509W        W 4253   2.488   1.832   9.041  0.1571 -0.1740  0.0957
  510W        W 4254   6.773   7.085   8.405 -0.2442  0.0392 -0.1037
  511W        W 4255   2.423   0.667   2.922  0.0313 -0.1795 -0.1441
  512W        W 4256   9.290   7.359   0.393  0.2399 -0.0775 -0.1273
  513W        W 4257   4.044   5.424   0.526 -0.1217 -0.2221 -0.3169
  514W        W 4258   3.746   1.857   9.237 -0.1166 -0.1733 -0.2247
  515W        W 4259   2.583   1.221   1.242 -0.2075 -0.2324 -0.1085
  516W        W 4260   1.855   4.312   1.593 -0.2815  0.0218  0.2748
  517W        W 4261   8.141   4.244   1.002 -0.1673  0.1552  0.1994
  518W        W 4262   5.868   6.013   4.071 -0.0266 -0.1744 -0.1562
  519W        W 4263   2.456   8.199   2.236  0.0676  0.2283  0.2331
  520W        W 4264   3.392   6.029   4.297  0.1891  0.1574  0.2487
  521W        W 4265   4.785   8.559   0.957  0.1257 -0.5719 -0.3171
  522W        W 4266   0.756   2.962   0.428  0.0377 -0.0638 -0.1703
  523W        W 4267   4.181   0.625   3.113  0.3079 -0.3389 -0.0322
  524W        W 4268   2.119   1.223  12.775  0.0245 -0.1978  0.1697
  525W        W 4269   5.775   3.819   1.032 -0.3598  0.3477 -0.1800
  526W        W 4270   8.396   5.232  10.943 -0.2078  0.1599 -0.0649
  527W        W 4271   6.383   1.042   2.701  0.0665  0.0573  0.3386
  528W        W 4272   6.925   2.820  12.064 -0.1389 -0.0736 -0.0997
  529W        W 4273   3.447   6.842   1.089  0.0003  0.2977  0.0871
  530W        W 4274   3.464   7.826  10.723  0.1445  0.1238 -0.1661
  531W        W 4275   6.377   7.957   8.225 -0.0529  0.0287  0.0831
  532W        W 4276   3.041   5.988  12.629  0.3130  0.2744  0.3233
  533W        W 4277   3.015   2.299   1.675 -0.0775  0.0594  0.0426
  534W        W 4278   9.558   2.383  10.951  0.1467  0.1608  0.0042
  535W        W 4279   2.703   3.798   4.337 -0.2002  0.0762  0.3923
  536W        W 4280   3.188   9.922   3.413  0.0687  0.4179  0.1372
  537W        W 4281   0.577   8.729   1.881 -0.0468  0.1140  0.3173
  538W        W 4282   6.062   2.286   3.628 -0.1905  0.3017 -0.1285
  539W        W 4283   7.047   4.604  11.285 -0.4809 -0.2148  0.1878
  540W        W 4284   2.974   7.786  10.526 -0.1614 -0.1201  0.0060
  541W        W 4285   0.438   5.520   1.940  0.1189 -0.1566  0.0387
  542W        W 4286   9.005   2.912   3.054 -0.0479  0.1828 -0.1753
  543W        W 4287   5.263   4.859  11.535 -0.0246  0.1642  0.1562
  544W        W 4288   7.214   8.774   9.785  0.3873  0.1959 -0.0274
  545W        W 4289   9.405   0.867  10.228 -0.0196  0.1546  0.0781
  546W        W 4290   2.131   8.674  10.350  0.2394  0.0074 -0.4039
  547W        W 4291   0.776   3.604  12.394  0.1767 -0.0028  0.1935
  548W        W 4292   9.210   2.725   2.207  0.5150  0.2792  0.1580
  549W        W 4293   4.352   4.697   3.780 -0.2053 -0.0570 -0.2758
  550W        W 4294   6.421   2.139   0.061  0.3164 -0.1015 -0.1557
  551W        W 4295   7.766   7.961   1.430 -0.1444  0.0745 -0.2351
  552W        W 4296   4.353   2.164   8.677 -0.1767 -0.1425 -0.0597
  553W        W 4297   0.196   2.675   3.890 -0.0616 -0.1785 -0.2284
  554W        W 4298   3.961   7.835  12.794 -0.1946  0.0872  0.0856
  555W        W 4299   7.451   4.816   0.239 -0.0221  0.2394 -0.1734
  556W        W 4300   1.429   4.995  12.565 -0.1091  0.0943  0.0607
  557W        W 4301   5.519   0.023   3.191 -0.2202  0.0197  0.1057
  558W        W 4302   1.199   3.092   0.177 -0.2062 -0.2514  0.4478
  559W        W 4303   2.001   7.750   0.157  0.3062  0.0968  0.0100
  560W        W 4304   4.292   4.841  11.973 -0.3171 -0.0677 -0.2121
  561W        W 4305   5.001   8.403   0.090  0.3446 -0.0671 -0.1410
  562W        W 4306   3.291   0.528  10.756  0.0818  0.3172 -0.1347
  563W        W 4307   3.695   2.331   9.966 -0.1473  0.0968 -0.0396
  564W        W 4308   2.052   9.461  11.317  0.2754  0.1498  0.1497
  565W        W 4309   8.138   8.936   4.199  0.0014  0.1369 -0.4184
  566W        W 4310   4.130   6.980   8.639  0.0257  0.4823  0.0955
  567W        W 4311   5.386   7.554  11.241  0.1123  0.0327 -0.0385
  568W        W 4312   5.187   4.903  12.033  0.2595 -0.0779 -0.1062
  569W        W 4313   0.071   8.171  11.983 -0.1299 -0.0382  0.1634
  570W        W 4314   6.794   0.078  11.512 -0.2536  0.2445 -0.4141
  571W        W 4315   7.554   0.933   3.183  0.0296 -0.1094  0.2343
  572W        W 4316   6.891   7.006   3.618 -0.0125 -0.1523  0.1939
  573W        W 4317   0.294   3.872  10.232  0.0164 -0.0942 -0.1148
  574W        W 4318   3.934   2.728   9.008 -0.3640 -0.0452 -0.0394
  575W        W 4319   2.558   7.439   4.782 -0.1287 -0.0285 -0.0238
  576W        W 4320   9.908   7.345   3.757 -0.1482 -0.2226 -0.0500
  577W        W 4321   8.508   7.958   2.909  0.0850  0.1624 -0.2178
  578W        W 4322   9.506   3.158   2.131  0.0246 -0.1332 -0.2146
  579W        W 4323   3.959   8.883  11.291 -0.0504 -0.0852 -0.1313
  580W        W 4324   8.832   0.643   2.361  0.1735  0.0908  0.1431
  581W        W 4325   2.482   7.785   8.360 -0.2024 -0.4485 -0.2542
  582W        W 4326   7.757   8.164  12.347  0.0402  0.1370 -0.0328
  583W        W 4327   9.642   0.367  12.557 -0.1311  0.1477  0.1253
  584W        W 4328   6.454   8.560  10.214 -0.0443 -0.2790 -0.4407
  585W        W 4329   2.793   4.063   3.665  0.3014  0.0645  0.0330
  586W        W 4330   1.362   4.359   2.438  0.1333  0.0273  0.0232
  587W        W 4331   4.241   4.389   2.376 -0.1803 -0.1060 -0.0203
  588W        W 4332   2.129   5.468   1.816  0.0057  0.0070  0.2262
  589W        W 4333   1.105   7.942   2.736 -0.1805  0.0181 -0.0325
  590W        W 4334   9.812   7.361  11.490 -0.1234 -0.0509 -0.0365
  591W        W 4335   3.640   0.845   9.900 -0.2097 -0.1715  0.0204
  592W        W 4336   0.641   8.004   0.152 -0.4637 -0.1136 -0.1303
  593W        W 4337   5.933   6.984  10.851 -0.2334 -0.0010 -0.0297
  594W        W 4338   1.659   3.882   2.155 -0.1527 -0.2463 -0.0837
  595W        W 4339   8.782   6.392  12.795  0.0795  0.1027 -0.2776
  596W        W 4340   5.653   5.550   0.933 -0.0837 -0.2224 -0.2117
  597W        W 4341   3.340   4.063   3.737  0.4022 -0.1693 -0.0504
  598W        W 4342   3.968   4.221   1.044 -0.2684 -0.1614  0.0823
  599W        W 4343   7.229   5.983   0.495  0.1437  0.0815  0.1488
  600W        W 4344   9.065   0.367   2.720  0.0927  0.2697  0.0544
  601W        W 4345   4.179   6.435   9.463  0.0382 -0.2531  0.0052
  602W        W 4346   6.742   7.443   7.733 -0.0829  0.0028  0.0229
  603W        W 4347   5.818   0.335   3.909  0.2339 -0.1614 -0.1791
  604W        W 4348   3.893   3.452  12.266  0.1198 -0.1865  0.2360
  605W        W 4349   3.218   1.076  11.087 -0.2300 -0.2965 -0.1923
  606W        W 4350   0.371   1.562  12.761 -0.1215  0.1528  0.1937
  607W        W 4351   2.434   2.738   2.254 -0.1289  0.0668  0.1941
  608W        W 4352   3.333   5.786   0.743 -0.4002  0.3986  0.0057
  609W        W 4353   9.490   5.199  12.801  0.1881 -0.1500  0.2260
  610W        W 4354   5.449   0.684   9.109 -0.0903  0.0777 -0.3896
  611W        W 4355   2.239   7.816   3.001 -0.2066 -0.3267 -0.0702
  612W        W 4356   0.571   2.985   2.784  0.0174  0.3069  0.1744
  613W        W 4357   4.800   0.377   1.256 -0.0866  0.2435 -0.1605
  614W        W 4358   6.379   9.737  12.730 -0.0963 -0.0441  0.0902
  615W        W 4359   4.307   4.452  12.443  0.1479 -0.1722  0.0452
  616W        W 4360   3.206   6.045  11.578 -0.3333 -0.1775  0.0338
  617W        W 4361   4.018   2.240   9.133  0.1437 -0.1055 -0.0303
  618W        W 4362   4.080   1.139  10.539 -0.2394  0.2559 -0.0211
  619W        W 4363   4.279   6.784   4.381  0.1302  0.1071 -0.1072
  620W        W 4364   2.978   2.139   9.366 -0.1059 -0.1242  0.0669
  621W        W 4365   9.642   8.940   0.706  0.1674  0.2440 -0.1035
  622W        W 4366   1.585   5.226   2.495 -0.2378  0.1936  0.3756
  623W        W 4367   7.847   7.684   3.816  0.1116 -0.0457  0.0852
  624W        W 4368   8.701   5.554  11.284  0.0197  0.1312 -0.2677
  625W        W 4369   3.987   1.497  12.369  0.1753 -0.1859  0.3359
  626W        W 4370   4.671   2.199  12.568  0.0153 -0.1469  0.1806
  627W        W 4371   4.895   9.425   8.852 -0.1029 -0.2384  0.3064
  628W        W 4372   5.391   8.989   2.262 -0.0706 -0.0498 -0.0590
  629W        W 4373   9.089   7.943   2.367  0.3444 -0.0488 -0.0724
  630W        W 4374   4.972   2.138   9.384 -0.2199 -0.0544 -0.1245
  631W        W 4375   2.214   2.441  10.399 -0.0883 -0.3169  0.3944
  632W        W 4376   1.322   0.771  10.397  0.1262  0.0399 -0.0167
  633W        W 4377   9.364   4.701  10.876  0.0147 -0.1364  0.0432
  634W        W 4378   2.021   0.164  12.755 -0.0617  0.1468 -0.2310
  635W        W 4379   0.441   3.004   4.232  0.0146  0.3786  0.4130
  636W        W 4380   1.430   8.309   0.594 -0.1788 -0.1659  0.2077
  637W        W 4381   5.601   0.874   3.360 -0.0755 -0.0795  0.2181
  638W        W 4382   1.481   9.761  11.047  0.2804 -0.0453 -0.0643
  639W        W 4383   0.781   6.273  10.553 -0.5202 -0.1837  0.0947
  640W        W 4384   0.769   0.470   1.756  0.3141  0.2134 -0.1176
  641W        W 4385   8.330   3.227   8.233  0.2764  0.3292  0.0841
  642W        W 4386   5.361   1.159   0.580  0.2344  0.1776  0.3961
  643W        W 4387   1.690   2.586   0.439  0.0379 -0.0759 -0.3208
  644W        W 4388   9.480   2.952  11.168 -0.2857  0.0303  0.0584
  645W        W 4389   0.042   0.355   8.489  0.2536  0.0136  0.0971
  646W        W 4390   4.594   9.855  11.867 -0.2055  0.3195 -0.1363
  647W        W 4391   8.803   7.283  12.447 -0.4138 -0.2110 -0.2484
  648W        W 4392   7.698   3.488   1.459  0.1988 -0.2329  0.0165
  649W        W 4393   4.993   0.065   0.315 -0.0048  0.0856  0.3672
  650W        W 4394   3.326   4.494  12.616 -0.0625  0.1650  0.0835
  651W        W 4395   4.412   3.221  10.702  0.1125 -0.1138  0.0862
  652W        W 4396   6.852   7.285   0.677 -0.2711  0.0579  0.1158
  653W        W 4397   3.612   8.824   9.811  0.0766  0.1453 -0.1739
  654W        W 4398   3.098   9.893  12.106 -0.1482 -0.3637  0.4403
  655W        W 4399   4.677   8.433   1.926  0.0880 -0.0348  0.0479
  656W        W 4400   8.332   7.833   8.796 -0.2301  0.4656 -0.0567
  657W        W 4401   2.898   8.039   9.532 -0.3141 -0.0099 -0.0117
  658W        W 4402   6.684   5.847   0.307 -0.0058  0.0643 -0.0454
  659W        W 4403   7.953   5.756   1.020 -0.0594 -0.1663 -0.0431
  660W        W 4404   9.719   8.103   0.196 -0.1069 -0.1506  0.0786
  661W        W 4405   3.291   5.761   3.848  0.0503  0.1912 -0.0096
  662W        W 4406   1.434   4.246  12.804  0.0891  0.1951  0.1744
  663W        W 4407   3.098   8.647   1.827  0.0657  0.3076  0.1114
  664W        W 4408   3.764   0.215  12.743  0.0900 -0.0770  0.0483
  665W        W 4409   6.498   9.491  10.891 -0.1859 -0.2731 -0.1346
  666W        W 4410   0.760   4.842   4.446  0.0037 -0.1842 -0.0577
  667W        W 4411   2.589   1.252  10.270 -0.0309  0.1206  0.0254
  668W        W 4412   5.286   6.103  12.401  0.1439 -0.1501  0.1999
  669W        W 4413   9.358   3.006   5.040  0.0145 -0.0253 -0.1287
  670W        W 4414   7.796   4.425   3.224 -0.1237 -0.0195 -0.1557
  671W        W 4415   6.059   8.661  10.550 -0.0684  0.1964  0.0578
  672W        W 4416   4.114   1.406   2.984  0.1286  0.2582  0.0431
  673W        W 4417   5.900   0.230   2.608 -0.1768 -0.0801  0.0815
  674W        W 4418   1.211   6.495  10.361  0.2539  0.1431 -0.1234
  675W        W 4419   2.859   0.885  10.761  0.2875  0.0342 -0.1924
  676W        W 4420   3.759   7.207  12.695 -0.1099 -0.0605  0.1152
  677W        W 4421   2.419   3.695  10.671  0.0219 -0.1410  0.1300
  678W        W 4422   1.828   5.020   0.067  0.3401 -0.1117  0.1902
  679W        W 4423   8.553   2.071   4.075 -0.0787  0.0543  0.0535
  680W        W 4424   0.396   9.666   2.348 -0.2186  0.2538 -0.0575
  681W        W 4425   6.576   7.664   3.424 -0.3920 -0.1222  0.0519
  682W        W 4426   3.492   8.599  10.432  0.1158 -0.2647 -0.3690
  683W        W 4427   8.283   1.797   1.319 -0.1290 -0.3941  0.2564
  684W        W 4428   3.860   5.957   4.000 -0.0398 -0.4043  0.3206
  685W        W 4429   0.576   6.867   9.233 -0.2092 -0.1087  0.0393
  686W        W 4430   0.446   7.329   2.059  0.1040  0.4309 -0.2376
  687W        W 4431   3.080   9.581  11.410 -0.1560 -0.1237  0.1528
  688W        W 4432   9.248   8.837  10.232  0.2548 -0.0452  0.1959
  689W        W 4433   9.899   3.909  11.000  0.2570  0.0528 -0.0951
  690W        W 4434   2.217   8.856   1.483  0.2931 -0.0504 -0.0265
  691W        W 4435   8.290   3.279   4.377  0.0643  0.1864  0.2839
  692W        W 4436   2.758   1.723   0.367  0.0888  0.0089  0.3233
  693W        W 4437   9.495   9.106   0.199  0.1488 -0.1239  0.1105
  694W        W 4438   2.694   8.052   0.434  0.1591 -0.0247  0.0182
  695W        W 4439   8.191   4.134   2.258 -0.0619  0.0105  0.2036
  696W        W 4440   7.777   2.732   3.326 -0.2124 -0.2039  0.2819
  697W        W 4441   0.024   5.114   3.271  0.0105  0.0114 -0.0770
  698W        W 4442   4.917   8.044   4.556 -0.2110 -0.0578 -0.1047
  699W        W 4443   9.908   2.456   3.273  0.4929  0.0606 -0.1570
  700W        W 4444   1.026   2.496   4.218  0.1409  0.2945 -0.1251
  701W        W 4445   3.128   6.498   0.865  0.2028  0.3050  0.0386
  702W        W 4446   2.759   1.213  11.829  0.1440  0.2793  0.2769
  703W        W 4447   1.913   7.055  10.545 -0.0887  0.1356  0.0065
  704W        W 4448   2.548   2.156   3.510  0.0617 -0.1891 -0.1114
  705W        W 4449   0.474   8.120   0.620 -0.0178 -0.1674 -0.0955
  706W        W 4450   9.900   3.997   8.445  0.1800  0.0034 -0.1125
  707W        W 4451   6.146   4.613   1.807  0.2329 -0.2498 -0.2640
  708W        W 4452   2.435   1.609  12.831  0.0634  0.1755 -0.1075
  709W        W 4453   6.621   3.520   8.621  0.1310  0.1974 -0.3667
  710W        W 4454   1.145   1.025  12.665 -0.0992 -0.1169 -0.4515
  711W        W 4455   2.537   8.166   1.226  0.1444 -0.1699  0.2089
  712W        W 4456   2.978   7.624   0.220  0.0593  0.1071  0.2735
  713W        W 4457   9.037   8.375  12.033  0.0642  0.2179 -0.1667
  714W        W 4458   7.806   1.542  12.776  0.1165  0.0737  0.0023
  715W        W 4459   6.256   9.224  12.674 -0.0992 -0.3941 -0.1066
  716W        W 4460   9.438   6.598  10.861 -0.0220 -0.2762  0.1791
  717W        W 4461   0.299   1.692   3.357  0.3918 -0.0014  0.1911
  718W        W 4462   7.649   2.442   8.773  0.1512 -0.0190  0.2072
  719W        W 4463   1.545   9.351   1.241 -0.1546  0.1071  0.2724
  720W        W 4464   5.354   1.743   7.948 -0.2305  0.0971  0.0467
  721W        W 4465   6.724   1.287   8.996  0.0147 -0.4233  0.0455
  722W        W 4466   7.681   8.584   4.452 -0.1018 -0.1951 -0.1793
  723W        W 4467   6.589   2.546   2.320  0.1299 -0.2666 -0.2902
  724W        W 4468   8.809   0.176   9.665  0.0635  0.0472  0.0366
  725W        W 4469   0.034   6.147   9.654  0.1136  0.0442 -0.2234
  726W        W 4470   8.566   1.155   4.149 -0.1664  0.3119  0.1843
  727W        W 4471   2.991   3.133   3.823  0.1209 -0.0322 -0.0582
  728W        W 4472   5.939   0.031   3.487  0.5481 -0.0493 -0.1141
  729W        W 4473   8.048   6.399   9.620 -0.1891  0.2308 -0.1424
  730W        W 4474   0.832   7.119   1.755  0.0254  0.1600  0.0861
  731W        W 4475   6.580   0.363   3.271  0.1419  0.0755 -0.0178
  732W        W 4476   8.926   2.888   0.787  0.0060 -0.0826 -0.5248
  733W        W 4477   0.221   7.232  11.854  0.1392  0.2770 -0.0210
  734W        W 4478   1.078   7.599   2.013  0.3098  0.2455  0.0035
  735W        W 4479   6.853   9.404  10.339  0.0387  0.4441  0.0860
  736W        W 4480   8.303   2.867   0.485  0.1388 -0.0098 -0.0899
  737W        W 4481   6.078   7.528   2.453  0.1125 -0.0258  0.1647
  738W        W 4482   6.422   1.574   2.690  0.1062  0.2888  0.1449
  739W        W 4483   0.535   3.174   3.339  0.2878 -0.1579 -0.0271
  740W        W 4484   6.523   1.255   0.335  0.3384 -0.0713  0.1300
  741W        W 4485   2.975   5.612  10.131  0.3554  0.4129  0.2498
  742W        W 4486   9.627   1.201   2.824  0.3889  0.2539  0.0711
  743W        W 4487   1.666   6.393   3.118  0.0533 -0.2576  0.0881
  744W        W 4488   8.279   7.565   2.236  0.0416 -0.1215 -0.0720
  745W        W 4489   6.813   1.329  10.894 -0.1315  0.0104 -0.1783
  746W        W 4490   9.082   4.210  10.940  0.1393 -0.1021 -0.2912
  747W        W 4491   7.344   1.255  11.078  0.1544  0.3078 -0.0172
  748W        W 4492   3.959   0.366   3.448 -0.0218  0.0409  0.0278
  749W        W 4493   7.304   3.269   2.205  0.2597 -0.2143  0.0461
  750W        W 4494   0.738   0.929   0.518 -0.2068  0.0073  0.0195
  751W        W 4495   3.816   8.144  10.664  0.4301 -0.0378  0.1161
  752W        W 4496   6.000   3.788   9.074  0.3162 -0.1898 -0.2145
  753W        W 4497   0.684   5.618  12.149  0.0872 -0.1111 -0.1184
  754W        W 4498   2.342   4.073   9.577  0.3808 -0.0105  0.0020
  755W        W 4499   7.181   9.330   9.025  0.4943  0.0164 -0.1051
  756W        W 4500   2.195   2.304  10.994  0.0479  0.1208 -0.2593
  757W        W 4501   7.324   5.144   0.559  0.0865  0.2322 -0.0450
  758W        W 4502   7.745   3.186  10.656 -0.1077 -0.0230  0.2378
  759W        W 4503   4.989   8.162  11.964 -0.1775  0.5646 -0.0530
  760W        W 4504   4.869   2.676   3.378  0.0779 -0.0339 -0.1533
  761W        W 4505   6.118   0.679   2.911  0.0276 -0.0504 -0.2982
  762W        W 4506   3.050   6.945   2.381 -0.1628  0.0098  0.1188
  763W        W 4507   0.313   4.591   1.261  0.0199  0.1517  0.0358
  764W        W 4508   5.398   0.530   4.879 -0.3385  0.2768  0.2032
  765W        W 4509   0.101   1.478   2.044  0.2372 -0.0006  0.0735
  766W        W 4510   2.931   7.283   3.322 -0.2087 -0.1017 -0.1874
  767W        W 4511   8.475   9.362   8.513  0.2127 -0.2963  0.1346
  768W        W 4512   8.615   0.044  10.207  0.2556  0.1405 -0.2020
  769W        W 4513   1.537   6.007   9.974  0.0710 -0.0960 -0.0001
  770W        W 4514   7.363   5.016   4.635  0.0873  0.0852 -0.0356
  771W        W 4515   6.767   8.918   1.097 -0.1295 -0.1827  0.0676
  772W        W 4516   8.248   0.169   0.934  0.0001 -0.4020 -0.3419
  773W        W 4517   5.296   2.065  10.856 -0.1636  0.2237  0.3188
  774W        W 4518   2.009   3.453  10.450 -0.1286 -0.0247 -0.1362
  775W        W 4519   2.586   6.540   0.851 -0.0110  0.0600 -0.0294
  776W        W 4520   2.472   3.394  10.214  0.0471  0.0221 -0.1862
  777W        W 4521   7.626   5.094   8.504 -0.1276  0.4874  0.0093
  778W        W 4522   6.160   3.751   0.613 -0.1463  0.0160  0.1978
  779W        W 4523   4.436   2.723   3.129 -0.2008 -0.0509  0.1530
  780W        W 4524   9.721   2.823   2.521 -0.2599  0.1000 -0.0205
  781W        W 4525   9.643   5.929   8.237 -0.2296 -0.0940 -0.1106
  782W        W 4526   7.030   1.481   9.846  0.0577  0.2142 -0.4857
  783W        W 4527   9.194   1.060   1.652 -0.0242  0.0361  0.0955
  784W        W 4528   5.910   8.127   9.556  0.0016  0.1957 -0.0957
  785W        W 4529   8.647   0.762   8.767 -0.1399 -0.1319  0.0702
  786W        W 4530   1.005   5.246   3.454  0.0817  0.1989  0.2228
  787W        W 4531   8.704   3.197   2.641  0.1191  0.1605 -0.1793
  788W        W 4532   9.027   1.056  12.542 -0.0819 -0.0346 -0.1000
  789W        W 4533   7.765   7.000   4.447  0.1255  0.1412  0.0305
  790W        W 4534   6.341   0.595   1.986 -0.0057 -0.1987 -0.0871
  791W        W 4535   3.594   6.420   0.182 -0.0200 -0.0680 -0.0633
  792W        W 4536   8.391   3.678  10.892  0.1960 -0.1198 -0.1442
  793W        W 4537   8.948   2.351   9.989  0.0707  0.1031 -0.1767
  794W        W 4538   2.920   1.888   3.088  0.6632 -0.1583  0.3654
  795W        W 4539   9.717   8.231   9.393  0.1145  0.0535  0.0822
  796W        W 4540   2.578   7.034   9.871  0.1891 -0.2712 -0.1247
  797W        W 4541   4.321   8.541   3.341  0.2916  0.2862  0.2353
  798W        W 4542   9.114   8.381   9.827  0.2986  0.1112 -0.0995
  799W        W 4543   5.668   2.722   9.710  0.1146  0.1067  0.0418
  800W        W 4544   8.959   1.360  12.079 -0.0091  0.3586 -0.1007
  801W        W 4545   6.043   6.257   7.982  0.1561  0.1486  0.0563
  802W        W 4546   6.151   9.369   1.636  0.0886 -0.2145  0.0222
  803W        W 4547   5.747   8.083   3.073  0.0718  0.0793 -0.3066
  804W        W 4548   0.489   8.929  10.460  0.1602 -0.1467 -0.1531
  805W        W 4549   4.373   3.322   9.498  0.0199  0.0197 -0.0714
  806W        W 4550   7.518   4.516  10.018  0.0116  0.4147  0.2535
  807W        W 4551   4.189   1.339   1.853 -0.0390  0.1177 -0.3149
  808W        W 4552   5.906   9.694   2.024 -0.4170  0.0761  0.2948
  809W        W 4553   5.700   3.342  10.543 -0.4006  0.0673 -0.0002
  810W        W 4554   8.045   5.236   1.190 -0.2101  0.3061 -0.1716
  811W        W 4555   4.011   2.208  12.255 -0.1769  0.1037 -0.0104
  812W        W 4556   1.245   0.665  10.898 -0.1481 -0.1091 -0.0281
  813W        W 4557   2.295   9.517   9.235 -0.1602 -0.2991  0.2290
  814W        W 4558   5.412   8.463   2.557 -0.1564  0.2192 -0.0483
  815W        W 4559   6.859   6.658  10.927 -0.1164 -0.1970 -0.0832
  816W        W 4560   1.400   8.504   3.325 -0.1005  0.1852  0.1687
  817W        W 4561   1.708   4.276   2.857 -0.2225  0.0274 -0.1136
  818W        W 4562   2.157   4.548   4.179 -0.0572 -0.1147 -0.0279
  819W        W 4563   8.700   0.875  10.975 -0.0580  0.0089  0.1721
  820W        W 4564   5.474   3.156  11.732 -0.1232 -0.2865 -0.3332
  821W        W 4565   8.113   8.460   4.214 -0.3196  0.0129 -0.1826
  822W        W 4566   8.037   7.585   9.678 -0.3110  0.0021  0.0945
  823W        W 4567   9.421   2.335   9.993 -0.4727 -0.0971  0.1316
  824W        W 4568   7.980   5.741   3.840  0.2214 -0.0923 -0.3535
  825W        W 4569   7.966   9.181   8.720 -0.3070 -0.2760 -0.1214
  826W        W 4570   8.561   9.164   1.919 -0.0086 -0.0799  0.0320
  827W        W 4571   9.067   2.159   0.638  0.0391 -0.2772 -0.2252
  828W        W 4572   7.465   2.662   9.728 -0.1498 -0.1695  0.1141
  829W        W 4573   7.552   5.147  10.789  0.1421 -0.0932  0.2502
  830W        W 4574   7.041   7.047  12.506 -0.0586 -0.0490 -0.0060
  831W        W 4575   1.029   4.618  12.694 -0.0536  0.1803  0.0415
  832W        W 4576   3.669   0.858  10.399  0.1133  0.0749 -0.1212
  833W        W 4577   6.964   8.710  11.006 -0.1947  0.2046  0.0800
  834W        W 4578   5.425   1.017  11.905 -0.0110  0.1908  0.2459
  835W        W 4579   5.575   0.012   2.193  0.1516  0.1123 -0.2695
  836W        W 4580   6.236   0.914   1.165 -0.1541 -0.1177 -0.0381
  837W        W 4581   3.512   7.395   1.677  0.0189 -0.2617 -0.0681
  838W        W 4582   4.603   5.045   3.379  0.3244  0.3211  0.2221
  839W        W 4583   3.006   3.658   3.861  0.2644 -0.0640 -0.0709
  840W        W 4584   2.288   2.343  11.642 -0.5025  0.0777 -0.2211
  841W        W 4585   0.192   9.701   8.319  0.4627 -0.0354 -0.0897
  842W        W 4586   3.432   2.301   1.381  0.0951  0.0600 -0.0440
  843W        W 4587   6.460   4.782   0.166  0.0909 -0.0907  0.0681
  844W        W 4588   7.223   0.376   8.620 -0.1090  0.4012  0.0294
  845W        W 4589   0.825   5.283   1.631 -0.4931  0.2061  0.0026
  846W        W 4590   0.228   7.652  11.151 -0.0333 -0.2561 -0.0439
  847W        W 4591   0.590   8.749   2.401 -0.1046  0.0447 -0.0732
  848W        W 4592   0.665   4.118   1.127 -0.1007 -0.4521 -0.3578
  849W        W 4593   6.261   5.820   3.835 -0.1700 -0.2861  0.0183
  850W        W 4594   6.964   8.625   2.405  0.3745  0.0023  0.2272
  851W        W 4595   8.441   9.183  11.088 -0.0256 -0.2669  0.0370
  852W        W 4596   7.033   2.476  12.472 -0.0812  0.1348 -0.0454
  853W        W 4597   3.495   7.189  12.231 -0.3496  0.0188  0.4903
  854W        W 4598   9.093   7.319   8.204 -0.1501 -0.1563  0.1488
  855W        W 4599   3.447   7.854   2.641  0.0618 -0.0260 -0.0189
  856W        W 4600   9.140   0.153   1.184  0.5658 -0.2484  0.1737
  857W        W 4601   2.408   3.102   1.313 -0.0698  0.1942 -0.3160
  858W        W 4602   3.197   5.227   3.202  0.1234  0.1232  0.0695
  859W        W 4603   3.523   7.452   2.183  0.1574 -0.0206  0.1209
  860W        W 4604   9.432   5.582  11.750 -0.1679  0.0414  0.0450
  861W        W 4605   1.553   1.185   3.813  0.1462 -0.2629  0.1673
  862W        W 4606   2.475   6.606  12.356 -0.3125  0.1062  0.1788
  863W        W 4607   8.792   9.363  12.267 -0.1922 -0.0627 -0.0616
  864W        W 4608   7.831   2.466  10.635  0.0508  0.0315  0.1474
  865W        W 4609   6.933   6.581   3.818  0.1316 -0.0700  0.2892
  866W        W 4610   1.280   3.600   3.075  0.2448 -0.2384  0.4211
  867W        W 4611   1.962   0.887   1.882 -0.2917  0.0226 -0.1098
  868W        W 4612   4.901   5.690   2.138 -0.1239  0.0258  0.4009
  869W        W 4613   7.784   1.656  10.474 -0.0357  0.4011  0.1369
  870W        W 4614   6.707   8.092  12.148 -0.1108  0.3507 -0.1284
  871W        W 4615   7.223   2.609   1.586  0.2323 -0.0744  0.1324
  872W        W 4616   7.954   0.470   1.265  0.2891 -0.1499 -0.3276
  873W        W 4617   7.490   7.290   2.434  0.0374  0.2009 -0.1818
  874W        W 4618   7.070   7.293  11.872  0.3194  0.1111 -0.1614
  875W        W 4619   4.444   4.733   9.440  0.0317 -0.1535  0.0955
  876W        W 4620   3.699   6.997   1.481 -0.3342  0.1297  0.1845
  877W        W 4621   2.609   2.885  12.380  0.0522  0.0593 -0.0774
  878W        W 4622   9.677   3.130  11.783 -0.1984  0.1924 -0.1186
  879W        W 4623   1.977   2.666   9.983 -0.1829  0.3658 -0.2050
  880W        W 4624   8.137   0.569  11.919 -0.3213 -0.0950  0.1243
  881W        W 4625   7.720   1.997   1.439 -0.2459  0.0777 -0.0190
  882W        W 4626   9.118   5.847   2.546  0.4025  0.1688 -0.2334
  883W        W 4627   1.587   8.159  11.274  0.0694  0.2408  0.2559
  884W        W 4628   1.406   3.305  11.408 -0.0060 -0.0226 -0.0721
  885W        W 4629   3.280   0.515   2.213 -0.1002 -0.0569  0.5059
  886W        W 4630   5.766   2.693  12.049  0.2329  0.0163 -0.1261
  887W        W 4631   4.194   1.489  11.573  0.0237  0.0560 -0.2732
  888W        W 4632   1.140   9.662   3.308  0.0194 -0.1091  0.0900
  889W        W 4633   3.538   1.395  11.291 -0.3161 -0.0909  0.1194
  890W        W 4634   5.666   6.097   2.389  0.0253 -0.0601  0.0085
  891W        W 4635   4.262   8.440  11.315  0.2017 -0.0188 -0.1584
  892W        W 4636   7.792   7.992   3.372  0.2446 -0.2681 -0.2333
  893W        W 4637   6.228   2.478   2.657 -0.0179  0.2051  0.1420
  894W        W 4638   0.965   8.845   9.377  0.2400  0.0519 -0.0539
  895W        W 4639   8.299   5.271   2.525 -0.3133 -0.1237 -0.0354
  896W        W 4640   4.962   9.875   1.429  0.1976 -0.2947  0.0723
  897W        W 4641   9.165   5.310   4.343 -0.1071  0.0727  0.2169
  898W        W 4642   0.954   0.688   0.099  0.1049 -0.0065 -0.5609
  899W        W 4643   0.433   6.657  10.652  0.1741  0.0047 -0.2044
  900W        W 4644   0.648   4.335   3.005  0.6127 -0.4363 -0.1565
  901W        W 4645   1.206   0.299   0.248  0.2081 -0.0669 -0.0311
  902W        W 4646   1.278   1.606   0.960  0.2798  0.2112  0.0230
  903W        W 4647   5.828   1.774  11.565 -0.1737  0.1487  0.0020
  904W        W 4648   7.601   6.243  10.622  0.0328 -0.2233 -0.1171
  905W        W 4649   1.034   2.475  10.051 -0.0697 -0.0160 -0.4262
  906W        W 4650   9.027   8.643   0.711 -0.0660 -0.0730 -0.0160
  907W        W 4651   6.336   4.085   2.587 -0.2408  0.0881  0.1071
  908W        W 4652   8.728   1.431   0.990 -0.2056 -0.2136  0.3155
  909W        W 4653   2.127   9.731   2.064  0.0716  0.1717  0.1254
  910W        W 4654   6.863   9.799  10.749 -0.0872  0.2216 -0.2165
  911W        W 4655   2.862   0.334   3.589  0.0635  0.0702  0.0077
  912W        W 4656   3.156   8.112  12.244  0.2143 -0.3197  0.0720
  913W        W 4657   6.031   8.135  10.735 -0.1149 -0.3083 -0.3841
  914W        W 4658   4.900   9.739  11.479 -0.0486 -0.1814 -0.0262
  915W        W 4659   6.029   6.697   0.177 -0.0973  0.0753  0.0667
  916W        W 4660   6.662   7.311   9.703  0.0716 -0.0498  0.1396
  917W        W 4661   5.111   9.353   2.830  0.0970 -0.2608 -0.1489
  918W        W 4662   3.715   9.534   1.893 -0.0938 -0.2687  0.0075
  919W        W 4663   1.799   7.072   9.610  0.1057 -0.0296 -0.0086
  920W        W 4664   4.691   7.587  11.812 -0.0742  0.1443  0.0711
  921W        W 4665   6.691   6.540   3.368 -0.1393  0.0287 -0.1340
  922W        W 4666   4.994   6.437   0.811  0.4232  0.2036  0.3275
  923W        W 4667   1.452   2.829   4.508  0.1233 -0.2542  0.2152
  924W        W 4668   7.644   4.426  11.352  0.0487 -0.0705 -0.0232
  925W        W 4669   8.695   9.668   0.011 -0.0411 -0.1985 -0.1102
  926W        W 4670   1.362   3.270   2.698 -0.1292  0.2749 -0.0130
  927W        W 4671   9.479   1.112  12.122 -0.0281  0.1874 -0.0896
  928W        W 4672   8.859   0.203   1.674 -0.2507  0.0652  0.2998
  929W        W 4673   7.349   8.022   1.192 -0.0479  0.0568 -0.3728
  930W        W 4674   3.947   1.439   1.160  0.1187  0.0934  0.0164
  931W        W 4675   7.143   5.972   2.108 -0.0110  0.0293 -0.0956
  932W        W 4676   7.434   2.898   1.235  0.1446  0.1791  0.1553
  933W        W 4677   2.313   4.860   9.990  0.1494  0.0974  0.1273
  934W        W 4678   5.339   2.021   4.194  0.1473 -0.2060  0.0655
  935W        W 4679   5.248   2.806  11.090 -0.1635 -0.1705  0.0474
  936W        W 4680   6.000   7.840   1.668 -0.2498  0.2185 -0.0459
  937W        W 4681   7.629   6.774   9.713  0.1266 -0.0354 -0.1846
  938W        W 4682   9.172   3.345   9.695 -0.2050 -0.1200  0.1157
  939W        W 4683   7.332   8.497   0.720  0.1981 -0.1866 -0.1350
  940W        W 4684   9.624   9.852  11.407  0.1389  0.2214  0.2737
  941W        W 4685   8.154   4.082   8.791 -0.1297 -0.3679  0.3134
  942W        W 4686   3.768   8.220   0.692  0.1794 -0.0000 -0.0768
  943W        W 4687   7.994   7.831   2.941  0.0340  0.1886  0.1089
  944W        W 4688   7.342   5.862   9.820 -0.0006  0.1889  0.1545
  945W        W 4689   1.300   7.691   9.865 -0.0832  0.0635  0.3986
  946W        W 4690   9.923   9.632   1.359  0.2182  0.1485 -0.0237
  947W        W 4691   5.635   5.179   3.743  0.1194 -0.0354  0.0421
  948W        W 4692   8.925   7.491  11.947  0.0506 -0.0990 -0.1301
  949W        W 4693   3.084   3.701   5.225  0.2609 -0.0127 -0.0648
  950W        W 4694   6.402   0.995  10.190  0.1366 -0.1295 -0.0839
  951W        W 4695   4.004   6.810  12.189 -0.0769 -0.0132  0.0602
  952W        W 4696   1.236   2.120   9.774 -0.1506 -0.1914  0.0666
  953W        W 4697   9.381   6.397   8.912  0.0665  0.0919  0.0584
  954W        W 4698   2.568   8.370   9.817 -0.0382 -0.0242 -0.0229
  955W        W 4699   8.674   2.317  12.820  0.2288  0.0882  0.4709
  956W        W 4700   2.204   6.435   8.415  0.2459 -0.2297  0.0796
  957W        W 4701   8.788   5.187   4.570  0.2200 -0.1122 -0.0026
  958W        W 4702   8.893   1.909   3.271  0.3391 -0.1968 -0.3213
  959W        W 4703   1.744   3.114  12.194  0.0865 -0.0967  0.0191
  960W        W 4704   5.997   6.460   2.162 -0.2850  0.0666  0.0866
  961W        W 4705   7.949   4.050  10.134 -0.0072  0.3401 -0.0987
  962W        W 4706   3.960   7.263   1.923  0.0102  0.0084  0.3121
  963W        W 4707   7.338   7.314  11.462 -0.2658  0.0209 -0.1757
  964W        W 4708   8.507   5.338   9.227 -0.1845 -0.0690 -0.1282
  965W        W 4709   4.656   2.220  11.416  0.0278 -0.2116  0.0571
  966W        W 4710   8.993   1.385   9.730 -0.0573  0.0816  0.2315
  967W        W 4711   7.676   9.484  10.274 -0.1458  0.2251 -0.3385
  968W        W 4712   5.979   5.453   0.142 -0.0476  0.2293  0.2783
  969W        W 4713   1.338   7.308   0.496 -0.1845 -0.0369  0.0978
  970W        W 4714   5.506   8.982   2.791 -0.2079 -0.0842  0.0731
  971W        W 4715   5.153   5.862  10.356 -0.0977  0.3353  0.2758
  972W        W 4716   2.274   6.879  12.846 -0.0777 -0.1292  0.2841
  973W        W 4717   7.844   6.439  11.636 -0.0163  0.0477 -0.0911
  974W        W 4718   8.306   2.722  11.490  0.0830  0.2613 -0.3221
  975W        W 4719   8.155   9.560  11.157  0.2835 -0.0590  0.2138
  976W        W 4720   7.697   0.088   3.355  0.1047  0.2070 -0.0338
  977W        W 4721   5.388   6.185   9.284 -0.0698  0.0148  0.0467
  978W        W 4722   2.926   3.776   8.547  0.2237 -0.1155  0.1350
  979W        W 4723   6.540   5.311  12.194  0.0936 -0.0241  0.0094
  980W        W 4724   9.378   0.436  10.399 -0.3230  0.1378  0.3074
  981W        W 4725   2.213   3.510  11.515  0.0358 -0.2868  0.3168
  982W        W 4726   8.443   2.857   9.135 -0.0490 -0.0843 -0.0757
  983W        W 4727   1.497   7.303  11.597 -0.0917  0.0328 -0.1250
  984W        W 4728   4.084   5.950   9.319 -0.2125  0.0683  0.2071
  985W        W 4729   8.422   6.655  12.095 -0.0543 -0.3774 -0.0116
  986W        W 4730   3.409   3.844   3.037 -0.1171 -0.2152 -0.0547
  987W        W 4731   2.514   7.296   3.639  0.0719 -0.3061  0.0496
  988W        W 4732   4.650   0.606  11.567 -0.0649  0.0838 -0.4433
  989W        W 4733   1.644   1.980   0.956  0.0367 -0.1106  0.0106
  990W        W 4734   6.925   2.907   1.937 -0.1904 -0.0690  0.0493
  991W        W 4735   9.360   6.042   4.327  0.1975  0.0728  0.0304
  992W        W 4736   0.124   5.545   2.352  0.0034 -0.1341 -0.1804
  993W        W 4737   6.493   4.199   1.737 -0.1975 -0.2557 -0.0125
  994W        W 4738   5.222   8.509  10.651 -0.2893 -0.3526 -0.2167
  995W        W 4739   4.643   8.127   1.265  0.0460 -0.1884  0.2333
  996W        W 4740   8.459   2.275   1.326 -0.1905  0.0599 -0.0032
  997W        W 4741   0.866   2.629   0.815  0.2115  0.1576 -0.0044
  998W        W 4742   9.613   3.777  12.499  0.0196 -0.0597 -0.1017
  999W        W 4743   6.962   3.689   8.938  0.0806 -0.1923  0.1174
 1000W        W 4744   7.050   8.191  10.961 -0.1016  0.1106 -0.0862
 1001W        W 4745   7.640   8.658   9.980 -0.0949  0.1079  0.1717
 1002W        W 4746   5.086   4.919   8.635  0.3801  0.1243 -0.3435
 1003W        W 4747   9.751   0.609   9.973 -0.2366 -0.0496  0.1120
 1004W        W 4748   3.300   4.053   9.693  0.1869 -0.0840  0.3559
 1005W        W 4749   6.592   8.640   2.060 -0.0276 -0.1161  0.4109
 1006W        W 4750   8.384   9.112  12.149  0.2542  0.1616  0.0188
 1007W        W 4751   6.214   4.174  12.494  0.1311  0.1287  0.1511
 1008W        W 4752   0.180   5.601   8.899 -0.2763 -0.1576 -0.0633
 1009W        W 4753   9.715   1.990   9.677 -0.1206  0.1225 -0.2801
 1010W        W 4754   1.039   7.497  10.782  0.2755 -0.1133 -0.2986
 1011W        W 4755   8.377   0.844   2.490  0.1055  0.3462 -0.1332
 1012W        W 4756   9.196   3.437  12.712  0.3936  0.0984  0.0752
 1013W        W 4757   5.944   9.267   2.776  0.0735 -0.3066 -0.3989
 1014W        W 4758   4.178   1.793   2.043 -0.4228  0.0596  0.0415
 1015W        W 4759   3.341   5.713   9.776  0.0438 -0.1974  0.2065
 1016W        W 4760   1.455   8.306  10.038 -0.3237 -0.1548  0.1012
 1017W        W 4761   2.230   9.453  10.803 -0.3339  0.0184  0.0441
 1018W        W 4762   4.450   5.667   8.489 -0.0675  0.0901  0.1804
 1019W        W 4763   8.386   7.971   1.966 -0.1618  0.2770  0.3931
 1020W        W 4764   5.810   2.439   1.185 -0.0842  0.0061  0.2605
 1021W        W 4765   8.352   4.470   9.050  0.4335 -0.0522 -0.2090
 1022W        W 4766   4.567   8.506  12.725  0.0071  0.0815 -0.1260
 1023W        W 4767   4.522   1.903   2.360 -0.0332  0.0815 -0.0697
 1024W        W 4768   3.899   3.184   3.698  0.2107  0.0872  0.2066
 1025W        W 4769   7.184   9.896   8.940  0.3980  0.0780  0.1529
 1026W        W 4770   5.165   2.601   2.018  0.0598 -0.0210 -0.0417
 1027W        W 4771   5.069   4.370  12.076  0.1017  0.0727  0.1959
 1028W        W 4772   0.181   6.704   2.303 -0.3705  0.1659 -0.3378
 1029W        W 4773   9.878   8.011  10.944 -0.0259 -0.1873 -0.1135
 1030W        W 4774   9.714   9.911   0.321  0.2678 -0.0865  0.0394
 1031W        W 4775   9.510   3.136   3.111  0.1688  0.0503 -0.1662
 1032W        W 4776   0.747   3.002  11.809 -0.3017  0.1572  0.0409
 1033W        W 4777   7.281   2.958  11.693 -0.1003 -0.3397  0.0022
 1034W        W 4778   5.961   5.119   1.873  0.2054 -0.1081 -0.1402
 1035W        W 4779   5.762   3.604   9.604  0.1948 -0.1109  0.3500
 1036W        W 4780   4.214   8.178   2.165 -0.0116  0.1167 -0.0038
 1037W        W 4781   9.263   9.327   9.382  0.2068  0.2331 -0.5185
 1038W        W 4782   5.824   6.027   1.835  0.2756 -0.1155 -0.3549
 1039W        W 4783   4.031   7.692  11.531  0.4136  0.1520 -0.0293
 1040W        W 4784   2.939   8.692  11.631  0.2473  0.3110  0.3387
 1041W        W 4785   4.783   4.057   2.754  0.3854 -0.0840 -0.0089
 1042W        W 4786   8.698   7.234   3.075  0.2307  0.0715 -0.1107
 1043W        W 4787   7.035   0.500   0.621  0.4665 -0.1987 -0.2003
 1044W        W 4788   8.779   5.048   0.603  0.2149  0.0202 -0.1212
 1045W        W 4789   9.127   3.610   3.838  0.2267 -0.1003 -0.0222
 1046W        W 4790   1.383   6.306   8.995  0.1452 -0.1058 -0.1034
 1047W        W 4791   5.458   8.595  12.101  0.2768 -0.0375 -0.2008
 1048W        W 4792   8.616   8.832   0.355  0.0280 -0.0034 -0.0673
 1049W        W 4793   1.025   8.968   1.694  0.1640 -0.2157 -0.1360
 1050W        W 4794   2.378   5.896  11.789  0.1511  0.0437  0.0091
 1051W        W 4795   3.160   0.457   1.664 -0.0398  0.3838 -0.1378
 1052W        W 4796   3.305   5.036  11.345  0.0059 -0.0179 -0.1635
 1053W        W 4797   9.919   9.848  12.655 -0.1310  0.0928 -0.0785
 1054W        W 4798   6.516   9.742  10.449 -0.0837 -0.1915 -0.0446
 1055W        W 4799   5.717   7.371   9.018 -0.0700 -0.0973 -0.3341
 1056W        W 4800   5.180   1.830   3.341  0.0715  0.0396  0.0988
 1057W        W 4801   5.886   6.923   0.634 -0.0124 -0.3341 -0.0714
 1058W        W 4802   6.045   9.814   0.257  0.0492 -0.0300 -0.0376
 1059W        W 4803   3.235   5.600  11.394 -0.0818 -0.0768  0.2982
 1060W        W 4804   8.757   1.542   0.091  0.1038  0.0432  0.3618
 1061W        W 4805   5.927   8.357   9.983  0.2428  0.0496  0.0823
 1062W        W 4806   6.064   4.191   1.517  0.1395 -0.1759 -0.4008
 1063W        W 4807   2.189   0.871  11.076 -0.1141 -0.0278  0.2202
 1064W        W 4808   2.019   5.128  11.885  0.0589 -0.1652  0.0908
 1065W        W 4809   0.102   1.592  11.870  0.0859 -0.1033 -0.2423
 1066W        W 4810   3.338   0.082   9.322 -0.0338 -0.1301  0.0383
 1067W        W 4811   1.016   5.655   2.939  0.1179  0.0273 -0.1938
 1068W        W 4812   1.489   1.975   3.078  0.1718 -0.0472 -0.0638
 1069W        W 4813   3.247   1.457   1.852 -0.0147 -0.2691  0.3161
 1070W        W 4814   6.319   8.227   1.691 -0.0628 -0.0014 -0.0413
 1071W        W 4815   0.206   2.472   2.806 -0.0932 -0.0494  0.0590
 1072W        W 4816   0.503   0.554   1.299 -0.1268 -0.2011 -0.5322
 1073W        W 4817   5.799   3.899  12.554 -0.0121 -0.0550 -0.0605
 1074W        W 4818   1.987   1.152  10.681 -0.3244 -0.1149  0.0449
 1075W        W 4819   1.266   7.461  10.314  0.0207  0.2887  0.0067
 1076W        W 4820   3.139   8.554  10.006  0.0483 -0.0948  0.0726
 1077W        W 4821   7.687   6.664   2.465  0.0777  0.1208 -0.3053
 1078W        W 4822   7.566   0.667   8.495  0.2352 -0.2117  0.0573
 1079W        W 4823   9.146   6.741   2.302 -0.1630 -0.3291 -0.2904
 1080W        W 4824   5.624   0.921   1.417 -0.5918 -0.5464 -0.1014
 1081W        W 4825   9.141   0.559   8.845  0.0980  0.2228 -0.2614
 1082W        W 4826   6.914   6.755   1.319 -0.1840  0.0196  0.2238
 1083W        W 4827   6.771   6.308   0.531  0.1383 -0.1487 -0.2215
 1084W        W 4828   3.357   2.277   9.008 -0.0620 -0.0216 -0.1421
 1085W        W 4829   4.678   6.636  12.794  0.2554 -0.1055  0.0125
 1086W        W 4830   4.799   3.974   4.494  0.1489  0.3416  0.0394
 1087W        W 4831   2.199   1.406   1.030  0.0871  0.0196 -0.3031
 1088W        W 4832   7.629   7.046   7.944 -0.1414  0.3317 -0.1564
 1089W        W 4833   3.682   7.223   4.824  0.0201  0.1010 -0.0825
 1090W        W 4834   7.308   9.472  10.653  0.2504  0.0677 -0.0239
 1091W        W 4835   6.118   2.347   9.351  0.2001  0.1450  0.1338
 1092W        W 4836   8.565   0.685  11.823 -0.2802  0.2578 -0.0655
 1093W        W 4837   4.922   4.670   2.876 -0.0914  0.1531  0.1304
 1094W        W 4838   6.125   4.441   3.590  0.1181  0.1263  0.2035
 1095W        W 4839   3.367   4.343  12.162  0.0815 -0.0502 -0.3708
 1096W        W 4840   5.244   9.493   0.459  0.0700  0.0924  0.3721
 1097W        W 4841   7.517   1.713  11.004  0.0115  0.0530  0.3353
 1098W        W 4842   0.877   1.373   9.832  0.1472  0.1610  0.2253
 1099W        W 4843   8.563   4.147   8.258  0.2103 -0.0631  0.0532
 1100W        W 4844   2.813   5.250  11.454 -0.0078 -0.1196  0.0104
 1101W        W 4845   9.178   6.476   2.762  0.4670 -0.0957 -0.1250
 1102W        W 4846   1.238   3.734   9.947  0.0025  0.1118  0.1861
 1103W        W 4847   7.916   2.587  12.817 -0.0304  0.0190 -0.0958
 1104W        W 4848   4.614   0.434   3.205  0.1577 -0.0020  0.0716
 1105W        W 4849   7.702   3.959   3.554 -0.1709 -0.2675  0.0644
 1106W        W 4850   5.774   5.584   9.967  0.2720  0.0950 -0.0436
 1107W        W 4851   4.007   6.512  10.034  0.0943 -0.1129  0.2692
 1108W        W 4852   6.434   4.583   9.026  0.2957 -0.1965  0.2772
 1109W        W 4853   4.811   4.473   3.693 -0.3504 -0.1345 -0.2703
 1110W        W 4854   6.587   4.247   1.150  0.2862 -0.0999 -0.1820
 1111W        W 4855   7.348   1.104   8.954  0.0381 -0.1727  0.2265
 1112W        W 4856   6.063   0.698   4.250  0.1088  0.1160  0.2445
 1113W        W 4857   0.286   3.213  11.649  0.0681  0.1476 -0.1616
 1114W        W 4858   0.134   2.276   0.421 -0.2633  0.2436 -0.0005
 1115W        W 4859   8.088   8.400   4.713 -0.1026  0.0997 -0.2348
 1116W        W 4860   1.563   2.814  11.354  0.1019  0.2273 -0.2980
 1117W        W 4861   5.178   9.640  10.762 -0.3764 -0.2797  0.1038
 1118W        W 4862   6.977   4.675  10.134 -0.0291 -0.0111 -0.0751
 1119W        W 4863   7.613   7.265  10.997 -0.3369 -0.0549  0.1997
 1120W        W 4864   7.807   8.824   3.838  0.0490 -0.3588 -0.1803
 1121W        W 4865   9.270   7.705   3.433  0.2504 -0.0162  0.2884
 1122W        W 4866   9.458   6.214   3.664 -0.0566  0.0198  0.0289
 1123W        W 4867   2.954   4.473   1.814 -0.0375  0.0278  0.0055
 1124W        W 4868   3.519   2.186   0.668  0.0405  0.0677 -0.1798
 1125W        W 4869   4.077   0.804  10.144  0.0073 -0.0635 -0.1229
 1126W        W 4870   1.022   8.116  11.426 -0.2351  0.1031  0.0359
 1127W        W 4871   3.939   7.643  10.695 -0.0437  0.0780 -0.1269
 1128W        W 4872   6.216   7.381   9.172  0.1787 -0.2157 -0.2631
 1129W        W 4873   7.291   4.648   0.667  0.1257  0.2644  0.1449
 1130W        W 4874   3.057   7.700   1.652 -0.1871 -0.1080  0.0211
 1131W        W 4875   6.434   2.670   9.090 -0.0664 -0.1185  0.0984
 1132W        W 4876   3.187   6.351   5.095  0.1428  0.2493  0.2080
 1133W        W 4877   7.419   2.354   7.833 -0.4381 -0.0797 -0.2922
 1134W        W 4878   7.503   1.358   0.399 -0.1056 -0.1273 -0.0925
 1135W        W 4879   1.080   4.533   1.049  0.0990 -0.0383  0.3793
 1136W        W 4880   8.027   1.050   2.082 -0.1077 -0.1857 -0.0725
 1137W        W 4881   9.518   8.423  10.248 -0.1020 -0.2375  0.1189
 1138W        W 4882   9.455   0.387  11.463 -0.0318  0.2197 -0.1714
 1139W        W 4883   8.108   6.920   9.658 -0.2140  0.0028  0.0731
 1140W        W 4884   2.199   7.344   4.389  0.1510 -0.0662  0.1657
 1141W        W 4885   8.524   7.399  11.401 -0.2720  0.5217 -0.1876
 1142W        W 4886   8.462   5.184   0.930 -0.0998 -0.0582  0.1339
 1143W        W 4887   3.126   3.000   9.460  0.5036  0.0037 -0.1496
 1144W        W 4888   0.988   8.021  10.119 -0.0680  0.0391 -0.1605
 1145W        W 4889   9.762   4.950   9.937  0.0680  0.1082  0.1502
 1146W        W 4890   3.273   2.851  11.112 -0.1499 -0.1329 -0.0363
 1147W        W 4891   5.578   3.143   9.452 -0.3096  0.1609 -0.1829
 1148W        W 4892   9.699   7.415   0.773 -0.2292 -0.3856  0.2173
 1149W        W 4893   2.253   4.919   9.266  0.1529 -0.0802 -0.0652
 1150W        W 4894   4.494   6.878  12.124 -0.2826  0.1331 -0.0042
 1151W        W 4895   3.621   0.575   1.842 -0.0063  0.1148  0.2502
 1152W        W 4896   5.765   8.844   3.700  0.0230 -0.3941 -0.2365
 1153W        W 4897   0.957   8.428   1.938  0.1618  0.1592  0.0279
 1154W        W 4898   5.893   7.793  12.450  0.1098 -0.1327  0.2973
 1155W        W 4899   8.210   5.394  11.404 -0.1636  0.0518 -0.1470
 1156W        W 4900   2.875   2.953  11.408 -0.0302  0.1966 -0.0646
 1157W        W 4901   7.235   6.341  11.000  0.3349  0.0042 -0.3037
 1158W        W 4902   1.688   8.161   0.077  0.3707  0.2331 -0.3153
 1159W        W 4903   7.716   5.581   8.587  0.0822 -0.0955  0.3515
 1160W        W 4904   0.541   9.128   0.196 -0.2296 -0.1195 -0.1043
 1161W        W 4905   6.090   3.288   9.261 -0.1781  0.2538  0.2236
 1162W        W 4906   9.416   2.207  10.504  0.2073 -0.2897  0.1133
 1163W        W 4907   0.479   4.251   0.409  0.0406  0.0583 -0.0340
 1164W        W 4908   2.899   0.339   2.993 -0.0893  0.0835 -0.3969
 1165W        W 4909   1.180   4.931  10.307  0.0102  0.1547  0.0989
 1166W        W 4910   4.990   1.058   1.974  0.1460  0.1130 -0.2076
 1167W        W 4911   8.673   7.877   1.441  0.2176  0.0021  0.0488
 1168W        W 4912   0.840   9.531  12.181  0.2349 -0.1489 -0.0902
 1169W        W 4913   0.733   7.950  10.595  0.1383  0.1092 -0.0841
 1170W        W 4914   3.218   5.165   1.725  0.1604  0.2917 -0.0344
 1171W        W 4915   2.716   0.405  10.524 -0.1200  0.0361 -0.0548
 1172W        W 4916   3.130   7.423   4.595 -0.0577 -0.1481  0.2278
 1173W        W 4917   2.744   8.822   9.603 -0.4015 -0.1423 -0.0913
 1174W        W 4918   6.895   3.580   8.163 -0.0331 -0.3890  0.2177
 1175W        W 4919   2.359   4.903   4.596  0.0406  0.1457 -0.1015
 1176W        W 4920   7.469   0.457   2.909  0.2702 -0.0631  0.2752
 1177W        W 4921   4.208   2.014  10.925  0.0887  0.0364  0.1804
 1178W        W 4922   0.270   1.823   1.073 -0.1703 -0.1596  0.2741
 1179W        W 4923   6.592   8.061   0.373 -0.0412 -0.0404 -0.1728
 1180W        W 4924   3.238   9.420  12.825  0.1946 -0.2312  0.1083
 1181W        W 4925   3.339   4.718   1.953 -0.2734 -0.0870  0.1983
 1182W        W 4926   1.899   2.854   2.018  0.0459  0.0278  0.0259
 1183W        W 4927   1.804   7.735   2.651 -0.2688  0.1383  0.2350
 1184W        W 4928   9.409   4.413   3.858 -0.1446  0.1765  0.2214
 1185W        W 4929   6.470   2.715   4.536  0.0082  0.1435 -0.0451
 1186W        W 4930   7.276   4.005   8.760  0.1167  0.0002  0.1095
 1187W        W 4931   6.212   3.661   3.779 -0.0890 -0.0753  0.0945
 1188W        W 4932   5.026   3.842  12.148  0.0354 -0.2401 -0.1116
 1189W        W 4933   5.318   0.541   9.798  0.0022 -0.2242 -0.2642
 1190W        W 4934   0.037   2.971  11.257 -0.3169 -0.2319  0.1455
 1191W        W 4935   5.510   8.572   9.626  0.0631 -0.1464 -0.0920
 1192W        W 4936   4.921   0.831   3.278  0.0934  0.0893 -0.0199
 1193W        W 4937   1.022   3.956  11.981 -0.1579  0.0303 -0.0635
 1194W        W 4938   2.470   4.287   0.983 -0.3143  0.3003 -0.0111
 1195W        W 4939   1.861   7.247   1.766  0.0325 -0.0315 -0.0761
 1196W        W 4940   5.233   3.644   9.459 -0.0188 -0.0203  0.0536
 1197W        W 4941   6.239   5.195  12.618  0.1952  0.0338  0.3055
 1198W        W 4942   5.779   3.081  12.690  0.4775  0.0600 -0.0150
 1199W        W 4943   3.629   6.700  10.899 -0.0136 -0.0223  0.2060
 1200W        W 4944   8.227   3.397   2.732 -0.0277  0.0097  0.2297
 1201W        W 4945   3.425   2.696   0.006 -0.1995 -0.0623 -0.0985
 1202W        W 4946   1.603   5.474  12.182 -0.1751  0.0636 -0.0121
 1203W        W 4947   3.915   5.312  10.505 -0.2388 -0.2639 -0.0790
 1204W        W 4948   1.902   3.368  12.617 -0.1496 -0.1729 -0.1193
 1205W        W 4949   7.745   4.104  12.854 -0.1515 -0.2568 -0.3329
 1206W        W 4950   5.486   2.347  11.258  0.2684  0.1002  0.3989
 1207W        W 4951   0.732   4.725  10.165  0.1123 -0.2719  0.0939
 1208W        W 4952   6.483   0.099  11.102 -0.0010 -0.1652 -0.1755
 1209W        W 4953   0.733   6.563   0.157 -0.0481 -0.1784 -0.1333
 1210W        W 4954   8.878   2.292   2.295 -0.1772 -0.2526  0.0089
 1211W        W 4955   8.244   8.320  10.138 -0.2859 -0.0575  0.1320
 1212W        W 4956   2.417   6.402   9.952  0.2093  0.1004 -0.1501
 1213W        W 4957   8.906   4.203   0.290 -0.1207 -0.0090  0.0195
 1214W        W 4958   6.014   9.128   0.764 -0.0595  0.1962 -0.2734
 1215W        W 4959   6.076   5.486  12.068  0.2272 -0.2711 -0.0616
 1216W        W 4960   3.239   8.238  10.683 -0.0986  0.0332  0.0153
 1217W        W 4961   8.225   7.276   0.915 -0.0316  0.3564 -0.2053
 1218W        W 4962   5.901   5.374   3.296 -0.0715  0.0414 -0.0632
 1219W        W 4963   9.408   3.921  11.227 -0.0425  0.0601  0.2368
 1220W        W 4964   4.867   4.476  11.568 -0.0429 -0.0245  0.1303
 1221W        W 4965   0.332   0.697   1.780  0.0411 -0.0323  0.0008
 1222W        W 4966   1.120   2.556  11.881 -0.0132 -0.1697 -0.3741
 1223W        W 4967   6.713   0.861   1.791 -0.2550 -0.0539 -0.0283
 1224W        W 4968   5.595   9.371   4.061  0.1633  0.3069 -0.0721
 1225W        W 4969   2.446   8.366   9.334  0.0721  0.0072  0.1363
 1226W        W 4970   3.682   3.478   0.764  0.1917 -0.0130 -0.0266
 1227W        W 4971   4.792   5.255   2.446 -0.1112 -0.0391  0.0995
 1228W        W 4972   9.688   3.383   1.263 -0.0741 -0.2079  0.2051
 1229W        W 4973   5.596   7.385   0.793 -0.0585 -0.1669  0.1130
 1230W        W 4974   3.614   7.284   0.343 -0.0118 -0.0566  0.2210
 1231W        W 4975   0.699   5.037   5.301  0.1541  0.1020  0.1772
 1232W        W 4976   2.077   7.438   9.158  0.3543 -0.1104 -0.2530
 1233W        W 4977   9.167   2.763   8.551 -0.2762 -0.2403 -0.1986
 1234W        W 4978   9.725   5.230   2.806  0.0499  0.1426  0.1813
 1235W        W 4979   1.455   4.490  10.165  0.0656  0.1664 -0.0738
 1236W        W 4980   1.538   2.487   9.399 -0.0502  0.1507 -0.0043
 1237W        W 4981   4.617   4.762   2.374  0.1622 -0.1461  0.3604
 1238W        W 4982   3.057   4.918  10.099 -0.0118  0.1540 -0.0845
 1239W        W 4983   7.922   4.668  10.265 -0.0533  0.0366  0.4820
 1240W        W 4984   8.756   8.315   0.449 -0.0177 -0.4758  0.2406
 1241W        W 4985   3.972   8.037   2.658  0.0007 -0.2026 -0.0308
 1242W        W 4986   1.660   0.172   1.977  0.1015  0.1603  0.1905
 1243W        W 4987   2.168   4.461   3.056  0.0993  0.1323 -0.0360
 1244W        W 4988   7.305   1.195  12.807 -0.0805 -0.0822  0.0604
 1245W        W 4989   1.486   5.310   3.426  0.0052 -0.2594 -0.0814
 1246W        W 4990   7.897   0.489   9.230  0.1963 -0.2109 -0.0667
 1247W        W 4991   2.512   2.295   1.614  0.1370 -0.0556  0.0671
 1248W        W 4992   8.490   4.739   7.496 -0.3873  0.2698  0.1279
 1249W        W 4993   1.007   1.679   0.564  0.1445  0.3667  0.3507
 1250W        W 4994   0.631   2.712  10.196 -0.2081 -0.0957 -0.0973
 1251W        W 4995   1.124   6.337  11.855  0.0694 -0.1106  0.0263
 1252W        W 4996   4.254   4.136   1.712  0.0616  0.0751 -0.0512
 1253W        W 4997   8.488   6.388  10.250  0.0239 -0.2664  0.0223
 1254W        W 4998   5.127   3.574   1.593 -0.1466 -0.0621 -0.0133
 1255W        W 4999   0.193   2.686   1.122 -0.2616  0.2143  0.1905
 1256W        W 5000   7.966   4.413   9.807 -0.0451 -0.3011  0.0009
 1257W        W 5001   0.760   0.287  11.474 -0.1253  0.1025 -0.0940
 1258W        W 5002   2.256   1.550  10.426 -0.3862  0.1509  0.2175
 1259W        W 5003   0.003   8.664   1.612 -0.0715  0.1058  0.2803
 1260W        W 5004   6.826   4.002   2.368  0.0724 -0.1470 -0.0183
 1261W        W 5005   8.433   9.536   3.412 -0.0951 -0.2478  0.0450
 1262W        W 5006   7.833   7.705   9.212  0.1164  0.0332  0.0138
 1263W        W 5007   7.115   6.504   2.046  0.2675  0.0265  0.0997
 1264W        W 5008   6.653   7.111  12.089  0.4110 -0.1837  0.3821
 1265W        W 5009   2.761   7.709  11.532 -0.1677  0.1084 -0.0076
 1266W        W 5010   4.847   0.709   2.762  0.2784  0.1205 -0.4460
 1267W        W 5011   5.066   8.250   3.616 -0.0242 -0.0092  0.0458
 1268W        W 5012   6.612   1.431  11.399 -0.0395  0.0741 -0.0816
 1269W        W 5013   6.827   5.535   3.632  0.1686 -0.0657 -0.1472
 1270W        W 5014   3.000   6.340   9.955 -0.3369 -0.0297 -0.0844
 1271W        W 5015   6.263   8.117  11.901 -0.0558 -0.1238  0.0092
 1272W        W 5016   2.676   1.183  12.658  0.0563  0.1771 -0.2214
 1273W        W 5017   0.365   7.954  12.489 -0.3796 -0.0393  0.1040
 1274W        W 5018   5.794   4.371   3.120 -0.1356 -0.0612 -0.0257
 1275W        W 5019   5.186   9.021  10.825  0.0554 -0.2636 -0.0747
 1276W        W 5020   2.077   1.831   1.813 -0.3001 -0.1195  0.0450
 1277W        W 5021   8.890   5.977  10.098 -0.0672 -0.2598  0.0116
 1278W        W 5022   5.670   0.842   2.649  0.0966 -0.3056 -0.1562
 1279W        W 5023   5.699   4.804   3.429 -0.1503  0.2636 -0.1540
 1280W        W 5024   7.734   9.818   4.021  0.0989 -0.2551 -0.0077
 1281W        W 5025   5.517   8.080   9.886  0.0446  0.0029 -0.1429
 1282W        W 5026   4.928   8.999   9.720 -0.0524 -0.0153  0.1435
 1283W        W 5027   2.194   2.795   0.967  0.0810 -0.1077 -0.1985
 1284W        W 5028   7.360   0.919   1.167 -0.2439 -0.0569  0.3819
 1285W        W 5029   3.105   7.138   1.508  0.2268  0.1369 -0.1330
 1286W        W 5030   6.466   0.843   8.878 -0.2425 -0.0249  0.0770
 1287W        W 5031   8.405   4.221   0.409 -0.0508  0.0691 -0.1426
 1288W        W 5032   6.446   5.270  10.664  0.0739  0.1991 -0.1407
 1289W        W 5033   0.735   3.845   8.966  0.1485 -0.1249 -0.0085
 1290W        W 5034   0.050   3.371   3.314  0.1001  0.3561 -0.1406
 1291W        W 5035   3.035   6.985  12.392  0.2741  0.1194 -0.1352
 1292W        W 5036   5.523   4.222   0.269  0.1483 -0.1365  0.0364
 1293W        W 5037   4.879   6.706   3.122  0.0090 -0.1870  0.3135
 1294W        W 5038   6.209   2.724   3.496  0.3317 -0.1788  0.0957
 1295W        W 5039   8.820   5.195  12.029 -0.2877 -0.2623  0.0838
 1296W        W 5040   1.164   4.900  11.570 -0.1589  0.2007 -0.1146
 1297W        W 5041   7.895   2.274   9.744 -0.3861  0.1736 -0.0689
 1298W        W 5042   6.265   9.017  12.184 -0.2384  0.0251  0.0169
 1299W        W 5043   6.456   5.807  12.361  0.0537 -0.0054 -0.1213
 1300W        W 5044   4.778   3.437   9.173 -0.1865 -0.0448  0.0801
 1301W        W 5045   3.208   0.045   9.853  0.1746 -0.0547 -0.0344
 1302W        W 5046   7.582   9.306  12.806  0.1588  0.1324  0.3453
 1303W        W 5047   2.773   8.246  10.892 -0.2044  0.0642 -0.3344
 1304W        W 5048   0.165   6.615   0.165  0.0793  0.1810  0.0319
 1305W        W 5049   6.023   4.304   8.764  0.0742 -0.2480  0.1121
 1306W        W 5050   8.593   5.104  12.589  0.1565  0.0706 -0.1916
 1307W        W 5051   2.128   5.447   3.159  0.1227  0.0079  0.0040
 1308W        W 5052   6.565   8.994   2.402 -0.0581 -0.1356 -0.0562
 1309W        W 5053   4.260   0.350   1.458  0.1407  0.0718 -0.0364
 1310W        W 5054   4.710   6.867   2.646 -0.0240  0.0714 -0.0987
 1311W        W 5055   8.392   9.571   1.697  0.0953  0.0087  0.2384
 1312W        W 5056   1.589   6.658   9.371 -0.2575  0.1864  0.3728
 1313W        W 5057   8.686   8.074   9.990 -0.6165  0.2142 -0.2499
 1314W        W 5058   2.375   9.051   9.395 -0.2265  0.3204 -0.0414
 1315W        W 5059   9.556   3.484  11.055  0.3385  0.2919  0.0918
 1316W        W 5060   6.166   9.737   8.929  0.1003 -0.0930  0.4944
 1317W        W 5061   5.686   6.261   8.333  0.2493 -0.4102  0.0464
 1318W        W 5062   1.813   3.937  10.850 -0.0254  0.1541 -0.0472
 1319W        W 5063   3.014   2.964   0.119  0.5521  0.1466 -0.1257
 1320W        W 5064   9.395   7.219   1.665  0.1098  0.3396 -0.5119
 1321W        W 5065   5.324   4.016  12.652 -0.0809  0.0499 -0.2070
 1322W        W 5066   4.993   1.781   2.274  0.0017 -0.2263 -0.0782
 1323W        W 5067   6.693   8.169   4.420 -0.2112  0.1644  0.1045
 1324W        W 5068   5.199   6.613  11.056  0.0379 -0.3228 -0.3295
 1325W        W 5069   3.131   6.175   2.354  0.5626  0.0608 -0.1924
 1326W        W 5070   2.649   5.503   1.763 -0.0704 -0.0879  0.0877
 1327W        W 5071   7.832   8.500  10.448 -0.1149 -0.0949  0.0853
 1328W        W 5072   5.255   7.860   0.007  0.0991  0.1739 -0.1072
 1329W        W 5073   4.750   3.904  10.054 -0.0996 -0.1014 -0.2077
 1330W        W 5074   2.783   4.689  12.185  0.0093  0.0059 -0.1384
 1331W        W 5075   3.856   9.827  11.404  0.0687 -0.1817  0.1662
 1332W        W 5076   5.235   6.791   2.167 -0.0301 -0.0805  0.2402
 1333W        W 5077   7.354   7.524   9.277 -0.1983 -0.1482 -0.3716
 1334W        W 5078   7.610   8.743  11.657 -0.0045 -0.0665  0.0128
 1335W        W 5079   9.560   9.865  10.091  0.1062  0.2708 -0.2661
 1336W        W 5080   4.497   9.448   4.267 -0.1402  0.0352 -0.0169
 1337W        W 5081   3.083   0.833  11.674  0.0732 -0.1459 -0.3260
 1338W        W 5082   6.682   5.989  11.778 -0.2760  0.2035  0.0090
 1339W        W 5083   4.362   9.507   9.809 -0.3312 -0.0789 -0.0435
 1340W        W 5084   9.313   4.375   9.517 -0.2424 -0.0789 -0.1496
 1341W        W 5085   3.156   9.309   2.656  0.1419  0.1043 -0.1932
 1342W        W 5086   4.451   9.653   0.332 -0.3304  0.0499  0.1353
 1343W        W 5087   2.370   0.870   1.558  0.0007  0.2531  0.1971
 1344W        W 5088   2.802   8.285  10.331  0.0191  0.1729  0.2208
 1345W        W 5089   4.985   4.957   0.196 -0.1572 -0.0694  0.1438
 1346W        W 5090   8.288   4.580   8.487  0.3043  0.0584  0.0589
 1347W        W 5091   3.143   4.754   1.461  0.0061  0.0719  0.0351
 1348W        W 5092   1.945   6.817   8.668 -0.1878 -0.2319 -0.1779
 1349W        W 5093   9.243   5.194  11.348  0.2799 -0.2590 -0.0197
 1350W        W 5094   5.313   1.101   2.938  0.1645  0.1168 -0.1806
 1351W        W 5095   2.911   3.979   0.835 -0.1212  0.2307 -0.1161
 1352W        W 5096   6.937   4.224   4.433  0.0982  0.4815 -0.0937
 1353W        W 5097   2.180   9.066  12.239 -0.0173 -0.0531  0.1839
 1354W        W 5098   0.468   8.563   0.350  0.1238 -0.2500 -0.2489
 1355W        W 5099   8.788   4.643  12.511  0.1937 -0.1287  0.1861
 1356W        W 5100   0.469   8.262   2.451 -0.0757 -0.0603  0.2892
 1357W        W 5101   6.909   5.302  10.907  0.1375 -0.0008  0.0308
 1358W        W 5102   3.685   5.512   9.494 -0.0328 -0.0304  0.0797
 1359W        W 5103   6.579   7.898   3.952  0.3340  0.0460 -0.3337
 1360W        W 5104   8.530   5.036   8.380  0.3611  0.0146  0.0979
 1361W        W 5105   2.755   4.686   9.178 -0.2561 -0.1470 -0.0934
 1362W        W 5106   2.528   2.777   2.769 -0.1929 -0.0197 -0.1234
 1363W        W 5107   6.463   4.283   0.108  0.1274  0.0786 -0.0883
 1364W        W 5108   6.658   0.797   7.554 -0.0283  0.3284  0.0460
 1365W        W 5109   1.278   6.127  12.372 -0.0566  0.3175  0.0505
 1366W        W 5110   0.163   6.829   9.705 -0.1483 -0.1957  0.0308
 1367W        W 5111   0.446   4.163   3.684  0.3537 -0.2775 -0.0611
 1368W        W 5112   7.760   3.611  10.139  0.3312 -0.0086  0.0340
 1369W        W 5113   1.797   0.523   1.592 -0.2619 -0.2291  0.0583
 1370W        W 5114   3.833   5.583   0.918 -0.0494  0.2037 -0.0507
 1371W        W 5115   1.648   0.320  10.274 -0.1840  0.3068 -0.0275
 1372W        W 5116   4.474   6.079   9.596  0.0215  0.2553  0.3296
 1373W        W 5117   3.430   6.885   3.824  0.0090 -0.0859  0.0957
 1374W        W 5118   7.943   2.804   3.883 -0.0104  0.0411  0.0407
 1375W        W 5119   6.201   0.647  11.944 -0.2299  0.0154  0.1409
 1376W        W 5120   4.884   4.209   4.103 -0.1245 -0.2048 -0.0528
 1377W        W 5121   7.980   2.776   8.957 -0.1401  0.1535 -0.1613
 1378W        W 5122   0.859   7.708  12.325 -0.2609 -0.0286 -0.1481
 1379W        W 5123   9.672   2.604   9.596 -0.0453  0.1149  0.0860
 1380W        W 5124   1.182   9.782   0.650 -0.1698 -0.2006 -0.1908
 1381W        W 5125   5.395   7.224   2.293 -0.1748 -0.5403  0.1462
 1382W        W 5126   0.811   9.825   0.303  0.0363  0.0119 -0.0222
 1383W        W 5127   9.882   4.205   8.959  0.0364  0.0196 -0.0262
 1384W        W 5128   4.678   1.706  10.261 -0.2744  0.1423  0.0922
 1385W        W 5129   7.986   7.686  10.889  0.0948  0.0920  0.1762
 1386W        W 5130   1.448   3.229  10.044  0.0644 -0.0272 -0.1178
 1387W        W 5131   2.483   2.456  12.689 -0.0306 -0.2133  0.1386
 1388W        W 5132   5.182   7.489   2.881 -0.1258 -0.1753  0.4868
 1389W        W 5133   7.666   0.191   2.327  0.0974  0.2036  0.3686
 1390W        W 5134   3.174   4.336  10.229  0.1112 -0.1631  0.2811
 1391W        W 5135   7.327   5.520  10.670 -0.0528 -0.0954 -0.0519
 1392W        W 5136   2.398   9.292   2.206 -0.1913 -0.2271  0.2441
 1393W        W 5137   0.832   1.812   1.203 -0.3334  0.2997 -0.0489
 1394W        W 5138   8.886   2.833   1.332 -0.3104 -0.0368  0.1278
 1395W        W 5139   3.810   4.150   5.133 -0.0765 -0.0945  0.2555
 1396W        W 5140   8.368   1.834   9.046  0.3286  0.0156  0.0113
 1397W        W 5141   4.441   1.175   0.703 -0.2025  0.1028 -0.3811
 1398W        W 5142   1.340   6.832   2.030 -0.1534 -0.0682 -0.1920
 1399W        W 5143   9.558   8.570   8.302  0.0285  0.0189  0.1461
 1400W        W 5144   8.237   2.091  12.340  0.1380 -0.0739  0.1676
 1401W        W 5145   9.332   7.388  12.754  0.3092  0.3732 -0.0414
 1402W        W 5146   2.518   8.575   2.746  0.0793  0.1148 -0.0986
 1403W        W 5147   9.158   2.212   9.560  0.0867 -0.2092  0.0779
 1404W        W 5148   5.787   6.375   0.545 -0.0360  0.1600 -0.4551
 1405W        W 5149   3.656   1.101  12.303  0.1021  0.2821  0.1610
 1406W        W 5150   4.944   1.289  12.459 -0.2920 -0.0415  0.2244
 1407W        W 5151   6.090   4.117   3.957 -0.1909 -0.1683  0.1728
 1408W        W 5152   1.324   7.273   1.735 -0.1024 -0.0817  0.2907
 1409W        W 5153   3.240   5.726   2.693  0.0462  0.1252 -0.2199
 1410W        W 5154   4.784   9.893   3.395 -0.1791  0.1203  0.1747
 1411W        W 5155   8.720   8.835   2.304  0.1366  0.0234 -0.2192
 1412W        W 5156   9.461   5.698   2.218 -0.2645  0.0585 -0.1320
 1413W        W 5157   4.661   6.437   3.625 -0.0732  0.0515  0.0974
 1414W        W 5158   1.889   8.186  11.714  0.0136 -0.5454 -0.1627
 1415W        W 5159   1.971   9.121  10.106 -0.1308  0.2537 -0.1946
 1416W        W 5160   2.670   9.567  10.495  0.3246 -0.2736 -0.1310
 1417W        W 5161   4.825   9.153  12.331 -0.1583 -0.0609 -0.1989
 1418W        W 5162   7.808   8.553   2.295  0.0256 -0.0339  0.0804
 1419W        W 5163   8.586   3.214   3.105  0.0580 -0.1483 -0.1586
 1420W        W 5164   4.052   3.488  10.419  0.1047  0.0894  0.2039
 1421W        W 5165   9.786   6.097   5.123  0.0341  0.0301  0.3039
 1422W        W 5166   5.210   2.541   0.041  0.1239 -0.1408 -0.0226
 1423W        W 5167   2.498   2.861   0.138  0.1529  0.1850  0.1239
 1424W        W 5168   7.017   0.796   8.976 -0.2067  0.1235 -0.2746
 1425W        W 5169   7.962   2.498   1.392  0.2964  0.0848  0.0682
 1426W        W 5170   7.807   3.855   1.894 -0.0618 -0.3340 -0.2254
 1427W        W 5171   2.579   6.941  11.046  0.0468  0.2505  0.0531
 1428W        W 5172   4.952   0.969   9.062  0.2069  0.3392  0.2166
 1429W        W 5173   7.344   3.812   9.387 -0.0500 -0.1214 -0.0876
 1430W        W 5174   0.330   8.435  12.349 -0.2243  0.0086  0.0058
 1431W        W 5175   6.761   8.108   2.572 -0.0539 -0.0603  0.1463
 1432W        W 5176   8.096   8.336   3.742 -0.0672 -0.0634 -0.1889
 1433W        W 5177   3.640   0.723   3.212  0.3245 -0.1990 -0.1195
 1434W        W 5178   8.231   8.827   2.188  0.2205 -0.0465 -0.2355
 1435W        W 5179   2.542   3.198   3.671 -0.2704 -0.1545  0.0792
 1436W        W 5180   2.024   1.986  10.089  0.1614 -0.3087  0.0954
 1437W        W 5181   4.219   3.398   2.407  0.1277  0.1667  0.1373
 1438W        W 5182   6.396   7.052  10.525  0.3148  0.0349 -0.2049
 1439W        W 5183   1.400   2.155   4.145  0.2593  0.1847  0.1485
 1440W        W 5184   3.590   8.666   0.394  0.0290 -0.2727 -0.0894
 1441W        W 5185   0.403   0.623  11.346 -0.1162 -0.0383  0.0715
 1442W        W 5186   3.370   8.194   9.732 -0.2143  0.0202 -0.0028
 1443W        W 5187   7.484   8.208  11.858  0.0728  0.2878 -0.6218
 1444W        W 5188   4.692   2.485   1.023 -0.0892 -0.0784  0.1367
 1445W        W 5189   9.124   2.117   8.825  0.0485  0.2528  0.1328
 1446W        W 5190   9.565   8.386  10.729 -0.2649  0.1930  0.1476
 1447W        W 5191   5.455   4.169   0.889 -0.1743 -0.1492  0.4893
 1448W        W 5192   4.625   7.177   0.178 -0.1683  0.1877  0.2060
 1449W        W 5193   4.207   0.391  12.749 -0.1608  0.1959  0.1601
 1450W        W 5194   9.491   7.993   3.761 -0.2772  0.3097 -0.8263
 1451W        W 5195   0.479   6.516  12.053 -0.0120 -0.2613  0.0256
 1452W        W 5196   2.410   9.248   3.471  0.0581 -0.0950 -0.0669
 1453W        W 5197   6.298   1.467   1.699 -0.0643 -0.0126 -0.2008
 1454W        W 5198   5.377   6.731   0.668 -0.1168  0.0108  0.3803
 1455W        W 5199   9.531   6.843   2.641  0.0061 -0.0249 -0.1048
 1456W        W 5200   9.127   7.507   2.994  0.0333  0.0108  0.1899
 1457W        W 5201   5.379   6.644   3.079  0.2877 -0.0650  0.1038
 1458W        W 5202   0.811   3.813   1.514 -0.0324 -0.3279 -0.3102
 1459W        W 5203   0.694   4.687  12.322 -0.0437 -0.1432 -0.4021
 1460W        W 5204   3.126   1.191   9.428  0.2111 -0.2032  0.2837
 1461W        W 5205   2.299   7.695   0.577 -0.2767  0.0051  0.0780
 1462W        W 5206   9.892   8.704  12.563  0.0231  0.1460 -0.1908
 1463W        W 5207   0.522   8.447  10.108  0.1439 -0.3644  0.0190
 1464W        W 5208   6.794   6.199  11.303  0.0812  0.1927  0.1411
 1465W        W 5209   7.543   9.133   2.790  0.4904 -0.2299 -0.2690
 1466W        W 5210   8.101   5.540   8.950  0.0066  0.0746 -0.1151
 1467W        W 5211   8.400   9.187   9.016  0.1514 -0.1988  0.1849
 1468W        W 5212   4.922   7.598  11.058  0.0716  0.0679 -0.0035
 1469W        W 5213   2.933   0.133  10.915  0.0089  0.1648  0.0474
 1470W        W 5214   5.186   5.910   0.999  0.3471 -0.4989  0.0360
 1471W        W 5215   7.177   5.719   0.014  0.2820  0.0128 -0.0614
 1472W        W 5216   5.566   3.575   9.098 -0.1400 -0.0044  0.1231
 1473W        W 5217   5.641   2.249   1.681 -0.1861 -0.1823 -0.3580
 1474W        W 5218   8.728   6.338   8.846  0.0064 -0.2968 -0.0836
 1475W        W 5219   0.287   4.633   9.146  0.3381 -0.0436 -0.0106
 1476W        W 5220   2.179   6.949   2.512  0.2763  0.2303 -0.0608
 1477W        W 5221   5.039   0.225  11.710  0.0241 -0.0804 -0.3371
 1478W        W 5222   0.484   4.627   2.254 -0.1119  0.3554 -0.1404
 1479W        W 5223   8.098   0.067  12.024 -0.1396 -0.0318 -0.0207
 1480W        W 5224   9.251   5.788   3.443 -0.0133 -0.2094 -0.3008
 1481W        W 5225   5.942   2.730  11.250  0.0497 -0.2097  0.5181
 1482W        W 5226   7.621   9.924   0.871 -0.1357 -0.2220 -0.1081
 1483W        W 5227   7.454   0.031  10.696  0.0155  0.1161  0.1532
 1484W        W 5228   6.289   5.864   0.017  0.0617 -0.0779  0.1472
 1485W        W 5229   3.928   0.427  10.424  0.2806  0.0122 -0.0698
 1486W        W 5230   5.619   3.171   0.909  0.3537  0.1442 -0.0478
 1487W        W 5231   1.118   0.199  11.080  0.0746 -0.0498 -0.2541
 1488W        W 5232   6.900   8.104   0.774  0.0672 -0.1207  0.2936
 1489W        W 5233   1.392   3.364  12.577  0.0708 -0.0233 -0.2119
 1490W        W 5234   2.930   0.794   1.409 -0.0871  0.0610 -0.1009
 1491W        W 5235   6.317   7.803   9.440 -0.1607 -0.1482  0.2113
 1492W        W 5236   8.159   5.845   7.940  0.0166  0.2832 -0.1079
 1493W        W 5237   9.788   9.240   1.669  0.1016 -0.1369  0.3129
 1494W        W 5238   5.616   6.917   8.975  0.2601  0.0810 -0.0719
 1495W        W 5239   9.280   0.337  10.940 -0.0288 -0.0461  0.2549
 1496W        W 5240   1.195   4.843   2.603  0.1588 -0.1060 -0.1659
 1497W        W 5241   9.227   4.916   2.815  0.2511 -0.1726  0.1565
 1498W        W 5242   5.520   3.450   3.144 -0.4106 -0.2743 -0.2013
 1499W        W 5243   8.705   3.384   8.529  0.0610  0.0136 -0.2600
 1500W        W 5244   6.447   2.948   0.585  0.2649  0.1595  0.0595
 1501W        W 5245   5.277   1.495   2.029  0.1649  0.1262  0.0922
 1502W        W 5246   6.716   3.184   0.189 -0.0096  0.0271  0.0602
 1503W        W 5247   4.235   3.991   0.672  0.2479 -0.1011 -0.0329
 1504W        W 5248   4.519   0.247   0.270  0.1717  0.3313  0.0856
 1505W        W 5249   3.336   5.728  10.848  0.1444 -0.1508 -0.1233
 1506W        W 5250   9.102   7.265   3.485  0.0761  0.0353 -0.3932
 1507W        W 5251   4.579   5.044   2.817 -0.1040  0.2000 -0.2263
 1508W        W 5252   3.341   8.179   1.722  0.3239 -0.0935 -0.2825
 1509W        W 5253   5.058   7.744   9.741 -0.0027  0.0482 -0.1518
 1510W        W 5254   8.385   9.442   0.969  0.1244 -0.1489 -0.0834
 1511W        W 5255   8.640   5.747   9.615  0.0638 -0.4605 -0.0350
 1512W        W 5256   2.293   5.379   9.597 -0.1065 -0.0275 -0.2070
 1513W        W 5257   6.798   9.572   3.196  0.0385  0.1972  0.1771
 1514W        W 5258   5.459   7.618  10.088 -0.0290  0.2679 -0.0286
 1515W        W 5259   6.503   6.638  11.268 -0.1463  0.2054 -0.0314
 1516W        W 5260   0.226   3.627   1.684  0.1195 -0.2039  0.0806
 1517W        W 5261   5.725   4.360  12.604 -0.0561 -0.2561  0.4321
 1518W        W 5262   5.851   0.259  12.693  0.2862 -0.1916  0.1973
 1519W        W 5263   4.360   8.404  10.831 -0.1925  0.0580 -0.0965
 1520W        W 5264   4.169   9.272  10.719 -0.0931  0.1453 -0.1502
 1521W        W 5265   5.130   7.831   0.635  0.0314 -0.2529  0.3944
 1522W        W 5266   4.618   0.381   9.338 -0.3636  0.0989 -0.2665
 1523W        W 5267   8.958   4.777   9.582 -0.1232  0.0842 -0.0589
 1524W        W 5268   1.604   7.146   1.367  0.2957  0.0071  0.4405
 1525W        W 5269   6.905   1.674   1.419  0.0407 -0.0731 -0.0944
 1526W        W 5270   7.521   2.511  12.527 -0.0659 -0.2727  0.0768
 1527W        W 5271   2.587   3.455   8.849  0.0219  0.4668  0.1509
 1528W        W 5272   2.797   5.809   8.403  0.1649 -0.2028 -0.1175
 1529W        W 5273   2.880   7.922   0.859  0.2048  0.1098  0.0803
 1530W        W 5274   0.549   6.892  12.740  0.0746 -0.1083 -0.3465
 1531W        W 5275   4.368   3.695   9.175 -0.2021 -0.0473  0.1476
 1532W        W 5276   4.930   9.132   2.313 -0.0476 -0.0619 -0.1775
 1533W        W 5277   5.846   7.815   9.172  0.0444 -0.0249 -0.0442
 1534W        W 5278   8.077   3.648   2.237 -0.0519  0.1736  0.0229
 1535W        W 5279   6.934   2.182   0.867 -0.0815  0.0526 -0.1337
 1536W        W 5280   5.991   0.544   8.983  0.3122  0.0551 -0.0867
 1537W        W 5281   8.802   6.452  11.157 -0.2379  0.1840  0.2885
 1538W        W 5282   5.231   9.514  11.758 -0.2039  0.1906 -0.2165
 1539W        W 5283   7.882   6.171   1.571 -0.2281 -0.1715 -0.2389
 1540W        W 5284   5.359   2.085   1.239  0.1016  0.1089  0.1979
 1541W        W 5285   4.769   6.632   2.133 -0.1634 -0.1859 -0.4464
 1542W        W 5286   4.367   6.067  11.890 -0.1022 -0.3715  0.1960
 1543W        W 5287   7.843   3.581   4.400  0.2146 -0.0064 -0.2719
 1544W        W 5288   0.544   7.069   0.420 -0.3276 -0.2217 -0.0893
 1545W        W 5289   6.958   0.401  10.681 -0.2815 -0.1756 -0.0767
 1546W        W 5290   7.020   1.405  11.749  0.1053 -0.0614  0.1613
 1547W        W 5291   9.044   4.305   4.618 -0.0617 -0.3332 -0.0283
 1548W        W 5292   1.574   8.126   1.211 -0.2731  0.0105 -0.0531
 1549W        W 5293   9.615   2.227   8.664  0.1146 -0.0157 -0.2428
 1550W        W 5294   3.329   2.154   3.719  0.0498  0.3046 -0.0629
 1551W        W 5295   7.842   5.081   0.497  0.3532  0.0859  0.1468
 1552W        W 5296   4.629   3.487   3.494 -0.0110 -0.0664  0.4344
 1553W        W 5297   3.793   1.631   1.678 -0.0285  0.1039  0.1970
 1554W        W 5298   5.662   2.193  11.773 -0.0957 -0.3249  0.0722
 1555W        W 5299   3.605   1.330  10.757  0.2511  0.3767 -0.1088
 1556W        W 5300   7.527   4.472   3.661 -0.1047 -0.1220  0.2555
 1557W        W 5301   8.940   9.781  12.047  0.0554 -0.0093  0.1595
 1558W        W 5302   7.791   7.710   8.692  0.1455 -0.4052 -0.0104
 1559W        W 5303   4.982   9.489   9.372  0.0536 -0.3492 -0.2126
 1560W        W 5304   3.457   3.057   3.611  0.2081  0.0703 -0.4173
 1561W        W 5305   9.295   0.253   9.283  0.0933 -0.2230  0.0396
 1562W        W 5306   5.939   2.156   0.298 -0.1755 -0.2418  0.0779
 1563W        W 5307   0.392   5.978  11.912  0.3188 -0.3395  0.0759
 1564W        W 5308   6.443   5.529  11.741 -0.3967 -0.3421  0.1698
 1565W        W 5309   5.290   5.245   2.384  0.0900 -0.1290  0.1338
 1566W        W 5310   7.189   8.463  10.178 -0.3139 -0.0115 -0.1216
 1567W        W 5311   4.431   2.738  10.475 -0.0704 -0.4652  0.0351
 1568W        W 5312   5.680   8.203  10.399 -0.0881  0.3792 -0.0338
 1569W        W 5313   3.726   3.570   1.636 -0.0568  0.1279 -0.3048
 1570W        W 5314   6.366   0.724   3.761  0.1309 -0.0896  0.2104
 1571W        W 5315   8.234   7.963  12.533  0.1380 -0.0700 -0.4313
 1572W        W 5316   0.776   6.845  11.288 -0.0445  0.1344  0.1420
 1573W        W 5317   6.385   3.489  12.693 -0.0195  0.0359  0.3512
 1574W        W 5318   3.165   2.483   1.003 -0.2469 -0.0946  0.3246
 1575W        W 5319   3.571   4.101  11.113 -0.1405  0.1656  0.1634
 1576W        W 5320   8.523   4.086   1.847 -0.0753 -0.0993  0.2832
 1577W        W 5321   1.497   8.620   2.423  0.1322  0.0942  0.0517
 1578W        W 5322   3.094   7.135   0.359  0.1343  0.0235 -0.0571
 1579W        W 5323   7.677   7.169   1.132 -0.2908 -0.0329  0.4365
 1580W        W 5324   0.711   8.209   9.714  0.2021 -0.1912  0.1229
 1581W        W 5325   9.912   8.059   1.484  0.0549 -0.0794  0.0388
 1582W        W 5326   2.419   8.423   1.636  0.1677 -0.0262 -0.3120
 1583W        W 5327   4.898   0.443  12.699 -0.2714 -0.2019  0.1497
 1584W        W 5328   1.803   5.371  11.126  0.0635  0.3353 -0.0968
 1585W        W 5329   3.484   1.666  10.348 -0.0360  0.1253 -0.0593
 1586W        W 5330   8.136   6.322   1.955 -0.0328 -0.1297 -0.3586
 1587W        W 5331   8.664   0.433   1.165  0.0921  0.1612 -0.3581
 1588W        W 5332   9.558   4.703  12.466 -0.1406  0.1486  0.0345
 1589W        W 5333   4.779   5.833   8.981  0.0844  0.1186 -0.0039
 1590W        W 5334   0.119   7.061  10.506 -0.1935 -0.0475  0.0705
 1591W        W 5335   1.652   1.256   2.609  0.1877  0.1826  0.2187
 1592W        W 5336   9.532   1.086   0.965 -0.2206 -0.0563 -0.1687
 1593W        W 5337   2.485   8.543   0.435 -0.1591 -0.0703 -0.0788
 1594W        W 5338   7.914   6.781  12.138  0.2666 -0.1069 -0.0817
 1595W        W 5339   1.542   1.424   3.073  0.3021 -0.3932  0.4077
 1596W        W 5340   6.445   0.608  11.146 -0.0533  0.3762 -0.3532
 1597W        W 5341   6.947   5.509   0.541  0.1276 -0.0747  0.1942
 1598W        W 5342   1.633   6.745  10.315  0.3076  0.2875  0.2568
 1599W        W 5343   4.528   3.620   2.049 -0.0476 -0.1419 -0.0391
 1600W        W 5344   1.123   1.278   0.216  0.2542  0.4093 -0.2079
 1601W        W 5345   3.478   6.515   2.426  0.2773 -0.2558 -0.1035
 1602W        W 5346   3.752   4.991   4.088 -0.0108  0.1985 -0.0428
 1603W        W 5347   8.318   8.750   1.707 -0.1402 -0.2107  0.0541
 1604W        W 5348   9.674   2.741   8.671  0.1516  0.1167 -0.1185
 1605W        W 5349   5.973   3.718   1.802 -0.2588 -0.2393  0.1537
 1606W        W 5350   5.547   6.662   0.153 -0.1262 -0.0461  0.0351
 1607W        W 5351   1.734   4.127   1.103  0.0469  0.0938  0.1491
 1608W        W 5352   3.382   2.807  10.332 -0.0666 -0.2767 -0.4277
 1609W        W 5353   8.906   8.387   8.935 -0.1691 -0.1749 -0.3231
 1610W        W 5354   0.146   9.133   0.517  0.1262 -0.0300 -0.2549
 1611W        W 5355   8.607   4.842   1.272  0.0215 -0.3818  0.0836
 1612W        W 5356   0.964   2.109   0.830  0.0816  0.1655 -0.0021
 1613W        W 5357   6.754   6.118   2.399 -0.0675  0.2926 -0.1348
 1614W        W 5358   9.805   7.461  12.472 -0.0957 -0.0128  0.1116
 1615W        W 5359   7.551   9.318  11.740  0.0817  0.0296 -0.0552
 1616W        W 5360   5.217   6.536  12.636  0.0444  0.1752 -0.1375
 1617W        W 5361   7.422   6.973   9.210  0.1172 -0.0027 -0.3047
 1618W        W 5362   7.383   6.833  10.726  0.0130 -0.0071 -0.0213
 1619W        W 5363   8.152   9.157   3.618 -0.0465  0.0067 -0.1756
 1620W        W 5364   8.394   6.834   3.770  0.0892  0.2616 -0.2043
 1621W        W 5365   6.066   8.579   0.980  0.1004 -0.0573  0.0502
 1622W        W 5366   2.982   2.744   1.935 -0.0072  0.0840 -0.2097
 1623W        W 5367   0.981   9.305   0.424 -0.0860  0.2582  0.0415
 1624W        W 5368   8.108   9.716   8.553  0.1417 -0.1561  0.1305
 1625W        W 5369   2.840   5.575  10.971  0.1362  0.0943  0.1131
 1626W        W 5370   0.771   3.233   3.899  0.0264  0.0336  0.0866
 1627W        W 5371   4.958   3.674   3.162  0.3511  0.1726  0.1764
 1628W        W 5372   1.133   7.673   1.247 -0.0882 -0.3071  0.0022
 1629W        W 5373   3.044   6.852  10.073  0.4122  0.0921 -0.0232
 1630W        W 5374   7.426   2.172   9.618 -0.0803  0.0185  0.1016
 1631W        W 5375   4.503   7.622  11.370  0.0271  0.1601  0.0168
 1632W        W 5376   4.623   9.679   2.714 -0.2326 -0.1161 -0.3306
 1633W        W 5377   3.491   7.690   0.072  0.1733 -0.2208 -0.0199
 1634W        W 5378   6.373   6.340   2.632  0.4190  0.1967 -0.2866
 1635W        W 5379   7.197   6.315   0.921  0.1169  0.3409  0.0096
 1636W        W 5380   5.492   4.797   0.082  0.0633  0.1776  0.0284
 1637W        W 5381   9.059   7.035  11.502  0.2471 -0.0056 -0.1751
 1638W        W 5382   7.172   2.136   9.160  0.1261  0.0047  0.0719
 1639W        W 5383   4.225   4.803  10.467 -0.1857 -0.0089 -0.2995
 1640W        W 5384   1.040   3.562   8.153 -0.3173  0.0180  0.1673
 1641W        W 5385   0.613   7.971   1.269 -0.0101  0.2175  0.0760
 1642W        W 5386   0.304   0.518  10.680 -0.0442  0.0040 -0.0049
 1643W        W 5387   9.611   1.232  11.123  0.1173 -0.1167  0.0554
 1644W        W 5388   2.951   0.794  12.847  0.4963 -0.0791 -0.0152
 1645W        W 5389   5.295   8.805   8.464  0.3458 -0.2595 -0.2589
 1646W        W 5390   3.243   5.243  11.826  0.3736  0.0392 -0.1272
 1647W        W 5391   7.621   5.399   0.097  0.0403 -0.0974  0.0590
 1648W        W 5392   2.326   4.391   9.192 -0.0879  0.1503 -0.0614
 1649W        W 5393   8.689   6.453   0.907  0.2583  0.2391 -0.0457
 1650W        W 5394   9.207   4.598  12.804  0.2493 -0.0181 -0.1372
 1651W        W 5395   4.014   3.970  12.275  0.2745  0.0921  0.3662
 1652W        W 5396   7.388   3.756   1.119 -0.0918 -0.0128  0.0762
 1653W        W 5397   9.326   2.931  12.126  0.2055 -0.0351 -0.1159
 1654W        W 5398   9.366   7.182  10.150  0.0028 -0.1814 -0.0163
 1655W        W 5399   4.386   6.900   9.098 -0.1125  0.2491 -0.1131
 1656W        W 5400   5.282   9.594   0.965  0.0347 -0.1371  0.1824
 1657W        W 5401   7.666   5.497   9.799  0.3505 -0.1334  0.0877
 1658W        W 5402   6.877   3.950   8.500  0.3543 -0.3325 -0.0386
 1659W        W 5403   1.467   8.487  11.723  0.0215  0.1935 -0.3584
 1660W        W 5404   9.728   0.710  11.206 -0.2579 -0.3786  0.3195
 1661W        W 5405   8.921   1.671  10.888 -0.1081  0.1712  0.1205
 1662W        W 5406   5.214   0.675   8.280 -0.2174  0.1156  0.2718
 1663W        W 5407   3.835   5.003  11.219  0.0204 -0.2939  0.0179
 1664W        W 5408   6.923   8.803  11.483 -0.1883  0.1941  0.2006
 1665W        W 5409   7.867   1.186  11.292 -0.4694  0.0304 -0.0366
 1666W        W 5410   5.663   5.507   8.993 -0.1782 -0.1559 -0.1137
 1667W        W 5411   0.257   8.631   2.721 -0.3158  0.0757 -0.0009
 1668W        W 5412   1.595   2.476   2.303 -0.0862 -0.0761  0.1026
 1669W        W 5413   5.151   1.414   9.511  0.2460 -0.0615  0.1025
 1670W        W 5414   7.874   2.991  11.501 -0.0394 -0.2358 -0.0700
 1671W        W 5415   4.665   2.909   4.709 -0.1232  0.1884 -0.2232
 1672W        W 5416   0.520   2.851  11.363 -0.1226 -0.2512 -0.0757
 1673W        W 5417   5.955   8.987  11.342  0.1569  0.3834  0.1275
 1674W        W 5418   4.329   1.718   9.423  0.0430 -0.0824 -0.2206
 1675W        W 5419   8.244   1.395   7.699  0.1178  0.0280  0.0805
 1676W        W 5420   6.085   5.164   9.666  0.2101  0.0078  0.0630
 1677W        W 5421   7.298   8.971   3.675 -0.0540 -0.0981 -0.0587
 1678W        W 5422   2.391   2.998  11.650 -0.0542  0.1531 -0.0033
 1679W        W 5423   1.444   2.435   0.837  0.2309 -0.2217  0.1248
 1680W        W 5424   3.637   6.498   9.641 -0.2130 -0.0403  0.2709
 1681W        W 5425   3.265   1.955   9.809  0.1858  0.1240 -0.0711
 1682W        W 5426   2.865   8.736  11.133  0.0956  0.1154  0.3288
 1683W        W 5427   4.940   6.014  11.679 -0.0799  0.1523  0.0289
 1684W        W 5428   4.896   8.864  12.795  0.3913  0.2201 -0.2750
 1685W        W 5429   7.352   8.797   1.140 -0.2179  0.3868  0.3670
 1686W        W 5430   5.241   3.399  10.272 -0.2028 -0.2136  0.1264
 1687W        W 5431   3.796   4.217   2.524 -0.1392  0.5111  0.1469
 1688W        W 5432   3.477   9.225  12.081 -0.1609 -0.1220 -0.1071
 1689W        W 5433   5.744   3.643  10.982  0.0296 -0.0219 -0.0470
 1690W        W 5434   0.263   7.749  10.637  0.1108  0.1110 -0.1000
 1691W        W 5435   3.712   8.385  10.020 -0.5536  0.0533 -0.4477
 1692W        W 5436   7.512   7.649  11.761 -0.0042 -0.0213  0.1663
 1693W        W 5437   7.005   3.414  10.835 -0.0713 -0.1715  0.2563
 1694W        W 5438   0.090   6.734  12.555 -0.1970  0.1615  0.3496
 1695W        W 5439   5.297   5.969   8.813  0.2151  0.0096 -0.1215
 1696W        W 5440   5.239   4.575   0.647  0.0080  0.0572 -0.2233
 1697W        W 5441   4.431   8.379   0.523  0.0275 -0.0711 -0.2411
 1698W        W 5442   1.529   4.543   0.738 -0.2533 -0.2408 -0.1265
 1699W        W 5443   4.249   0.494   1.925  0.0722 -0.1027 -0.1881
 1700W        W 5444   1.482   5.822   0.441 -0.0110 -0.0037  0.0601
 1701W        W 5445   8.487   3.743   2.459 -0.1522  0.5650 -0.0454
 1702W        W 5446   5.389   9.242  12.134 -0.0044 -0.0742 -0.2303
 1703W        W 5447   7.723   1.128   8.538  0.0416 -0.1210 -0.0917
 1704W        W 5448   9.297   0.528   1.614 -0.0525  0.1515  0.2902
 1705W        W 5449   6.565   3.722   1.625 -0.1788 -0.2208  0.0949
 1706W        W 5450   1.971   5.794   2.817 -0.3267 -0.3056  0.0002
 1707W        W 5451   8.183   4.868   1.628 -0.1098 -0.0243  0.5526
 1708W        W 5452   9.127   3.608   2.012 -0.1334  0.1229  0.1851
 1709W        W 5453   3.198   1.427   8.931 -0.1041  0.0966 -0.1054
 1710W        W 5454   1.652   1.920   1.511 -0.0897  0.0425 -0.1980
 1711W        W 5455   7.683   8.450   0.273  0.1093  0.1839  0.0073
 1712W        W 5456   4.727   1.661   9.753  0.2141 -0.1440  0.1074
 1713W        W 5457   7.583   4.299  11.820 -0.1172 -0.0560 -0.1124
 1714W        W 5458   5.452   3.089  12.202  0.1232 -0.0963  0.0537
 1715W        W 5459   9.345   4.769   1.576 -0.0280  0.1814 -0.1332
 1716W        W 5460   3.716   8.264   1.215  0.0232  0.2076 -0.0831
 1717W        W 5461   4.077   8.395   0.097  0.0676 -0.3160 -0.4045
 1718W        W 5462   3.495   3.095   0.442  0.0468  0.1752 -0.0262
 1719W        W 5463   5.203   0.766   1.510  0.0480  0.2384  0.2370
 1720W        W 5464   4.382   9.025   3.429  0.2976 -0.0035 -0.2898
 1721W        W 5465   0.608   3.747   2.007  0.3594 -0.3852  0.2032
 1722W        W 5466   1.776   7.120   2.887  0.1421 -0.0985  0.1222
 1723W        W 5467   9.878   3.463   2.706  0.1915  0.0300  0.3077
 1724W        W 5468   6.984   3.048   0.940  0.3191  0.0042  0.1389
 1725W        W 5469   8.728   5.440   2.715 -0.0603  0.0916  0.0342
 1726W        W 5470   1.067   2.744   4.950  0.0567 -0.2715 -0.1287
 1727W        W 5471   8.922   3.629  11.373  0.2260  0.0227  0.0052
 1728W        W 5472   7.685   8.507   3.516  0.2445 -0.1199  0.1076
 1729W        W 5473   0.536   5.068   3.467 -0.1944  0.0802 -0.0870
 1730W        W 5474   7.376   0.031   3.700  0.0100  0.0183 -0.2322
 1731W        W 5475   9.522   3.059  10.026  0.2475 -0.1468  0.1582
 1732W        W 5476   2.521   1.036   2.532 -0.1605  0.0365  0.0643
 1733W        W 5477   4.806   4.439   9.231 -0.0339 -0.1017  0.2112
 1734W        W 5478   2.561   6.361   1.946 -0.2019 -0.0137  0.1294
 1735W        W 5479   2.408   3.325  12.641  0.0650  0.0040 -0.1492
 1736W        W 5480   8.483   1.476   9.860 -0.0161  0.1717 -0.0635
 1737W        W 5481   9.716   1.073  11.632  0.0552  0.3187 -0.0364
 1738W        W 5482   4.876   2.501   9.063  0.1596 -0.3057  0.1006
 1739W        W 5483   4.848   3.688  12.587 -0.1371 -0.0347  0.2048
 1740W        W 5484   6.495   5.314   0.308  0.1686  0.1483  0.4236
 1741W        W 5485   4.566   9.037   2.004  0.0602 -0.2790  0.0241
 1742W        W 5486   9.758   3.202   8.742 -0.3172 -0.0134 -0.2704
 1743W        W 5487   3.974   5.759  12.007 -0.1738  0.2659  0.1217
 1744W        W 5488   4.990   2.542   1.490 -0.0264 -0.2238 -0.2023
 1745W        W 5489   0.869   7.361   9.270  0.3264  0.1015 -0.0847
 1746W        W 5490   4.496   3.933   3.116  0.2176  0.3266  0.1235
 1747W        W 5491   5.989   6.789  10.365 -0.2386 -0.0096  0.2732
 1748W        W 5492   7.781   6.403   8.610  0.1469  0.1513 -0.2448
 1749W        W 5493   5.961   1.696   2.693  0.4998  0.0117 -0.1029
 1750W        W 5494   3.678   7.930   2.187 -0.1542  0.0258  0.0999
 1751W        W 5495   7.092   0.003   0.562  0.1030  0.3673  0.1104
 1752W        W 5496   8.725   5.723  12.234 -0.2208 -0.0410 -0.3359
 1753W        W 5497   5.380   9.517   8.692  0.0387  0.1462  0.2461
 1754W        W 5498   7.496   0.480   0.952 -0.1536  0.0484 -0.0080
 1755W        W 5499   8.952   4.912  11.029 -0.2305  0.2418 -0.2658
 1756W        W 5500   3.836   9.251   1.519 -0.2887  0.1153  0.1213
 1757W        W 5501   8.231   3.014   3.448 -0.0025  0.0032 -0.1332
 1758W        W 5502   5.796   0.498  11.672  0.0909 -0.0827 -0.0807
 1759W        W 5503   8.736   4.145  12.553 -0.0932  0.1604  0.0016
 1760W        W 5504   3.180   7.696   9.894 -0.2704  0.0061  0.1168
 1761W        W 5505   3.525   2.248   9.544  0.1692  0.0392  0.3859
 1762W        W 5506   8.546   5.370   0.219  0.0323 -0.0346 -0.0104
 1763W        W 5507   2.973   7.902   4.669 -0.0820  0.0790 -0.0882
 1764W        W 5508   4.270   7.137   2.898  0.2210  0.0096 -0.0859
 1765W        W 5509   8.300   1.891  10.006  0.1699  0.0061 -0.3730
 1766W        W 5510   9.016   8.927   9.150  0.0887 -0.0812 -0.0849
 1767W        W 5511   4.383   5.965   3.115 -0.0709  0.1899 -0.1281
 1768W        W 5512   8.914   7.704   3.769  0.0018  0.2741 -0.2712
 1769W        W 5513   8.037   4.167   9.360 -0.1241 -0.1341 -0.1277
 1770W        W 5514   4.537   8.737   9.579  0.3377  0.1351  0.0981
 1771W        W 5515   8.597   8.208  12.238 -0.1080  0.1594 -0.2506
 1772W        W 5516   2.296   1.529   2.482  0.2089  0.2224 -0.2857
 1773W        W 5517   4.296   5.425  11.115 -0.1690 -0.1785 -0.2414
 1774W        W 5518   8.493   0.451   0.603 -0.0292  0.2815 -0.2095
 1775W        W 5519   0.085   4.238  11.890  0.3427 -0.0300 -0.1162
 1776W        W 5520   9.933   6.251   2.374  0.1245 -0.0188  0.0484
 1777W        W 5521   9.369   3.034   0.210  0.2299  0.2249  0.0403
 1778W        W 5522   0.044   1.177   3.626  0.2633  0.0345 -0.0252
 1779W        W 5523   4.912   5.441   1.026  0.0028  0.0373  0.3076
 1780W        W 5524   8.380   3.020   3.941 -0.1856 -0.0585  0.1712
 1781W        W 5525   7.830   6.943   0.655 -0.5911 -0.0915  0.2067
 1782W        W 5526   3.641   5.849  12.426 -0.1774 -0.0797  0.0054
 1783W        W 5527   0.482   5.905   8.516  0.2341 -0.1525  0.0325
 1784W        W 5528   9.487   8.957  12.159  0.0990  0.0958  0.1968
 1785W        W 5529   9.492   4.433  11.908 -0.1091  0.1121 -0.2460
 1786W        W 5530   0.311   8.345   3.179  0.1089  0.2370  0.1433
 1787W        W 5531   6.246   4.691  12.547  0.0538 -0.1685  0.2093
 1788W        W 5532   7.441   6.004   8.809  0.1768  0.0310 -0.0411
 1789W        W 5533   6.433   5.811   0.725  0.2188 -0.3331 -0.0479
 1790W        W 5534   1.408   1.119   1.291  0.0305 -0.2637  0.1847
 1791W        W 5535   5.329   2.595  10.534  0.0426 -0.1119  0.1896
 1792W        W 5536   9.300   5.134   0.533  0.2078 -0.1301  0.2799
 1793W        W 5537   4.142   5.456   4.115  0.2812 -0.1813 -0.3316
 1794W        W 5538   5.427   4.697   2.464 -0.3148  0.1533 -0.0762
 1795W        W 5539   9.469   0.423   8.439 -0.0178  0.1924 -0.1982
 1796W        W 5540   7.248   7.904   8.583 -0.2142  0.1924 -0.4506
 1797W        W 5541   7.173   9.837  11.192  0.1215  0.0099 -0.2574
 1798W        W 5542   0.945   2.077  11.949 -0.0132 -0.3591 -0.1079
 1799W        W 5543   1.730   0.485   0.202 -0.0805 -0.2703  0.0551
 1800W        W 5544   6.607   7.414   4.001  0.1867  0.2841 -0.1141
 1801W        W 5545   0.111   0.282  11.233 -0.0099  0.0598  0.2242
 1802W        W 5546   1.964   3.161  10.005  0.2872 -0.3962  0.0584
 1803W        W 5547   6.356   6.624  10.774  0.1486 -0.1982 -0.0892
 1804W        W 5548   8.095   3.234  10.257  0.0017  0.0361  0.1141
 1805W        W 5549   9.913   5.772  11.669  0.1715 -0.1558  0.0698
 1806W        W 5550   6.162   7.415   9.703  0.3195  0.2192 -0.1274
 1807W        W 5551   3.810   8.368   9.508  0.2100  0.0877  0.2151
 1808W        W 5552   7.795   2.463  11.689 -0.2458 -0.2342 -0.0458
 1809W        W 5553   7.206   9.710   2.053  0.0750 -0.0143  0.0035
 1810W        W 5554   8.977   4.132  11.413  0.0183  0.0158 -0.1524
 1811W        W 5555   8.261   4.729   0.488 -0.0833  0.1086  0.2291
 1812W        W 5556   7.862   7.281   8.388 -0.0029 -0.1859  0.0660
 1813W        W 5557   7.693   9.149   0.478 -0.2043  0.1913 -0.2393
 1814W        W 5558   0.911   9.664   9.977  0.2839  0.0552 -0.1448
 1815W        W 5559   8.290   6.066   4.492 -0.0016 -0.0417 -0.0637
 1816W        W 5560   5.446   1.536  10.824  0.0416  0.1393  0.2006
 1817W        W 5561   1.047   1.328   1.839  0.2993 -0.3637 -0.3322
 1818W        W 5562   4.501   5.203   8.259  0.1886 -0.1002  0.3667
 1819W        W 5563   0.592   6.075   0.159 -0.2437 -0.1559 -0.0390
 1820W        W 5564   9.726   5.688   3.198  0.1055  0.0575 -0.1768
 1821W        W 5565   1.821   4.331   3.386  0.3882 -0.0441 -0.0359
 1822W        W 5566   7.697   9.078   0.963 -0.1506  0.3560 -0.0587
 1823W        W 5567   6.833   6.942   7.774 -0.1834 -0.1714 -0.1999
 1824W        W 5568   0.138   7.560   8.679  0.2625  0.0420  0.0800
 1825W        W 5569   5.947   8.553   4.075  0.0438  0.0735 -0.3246
 1826W        W 5570   4.793   1.911  12.122 -0.0656 -0.0994  0.1782
 1827W        W 5571   1.645   9.926   3.281  0.1089 -0.0504  0.2028
 1828W        W 5572   0.667   6.820   2.228  0.2532  0.0396 -0.0319
 1829W        W 5573   0.938   8.534  11.594  0.3857  0.1350 -0.2652
 1830W        W 5574   5.386   6.886  10.633 -0.0105  0.1139  0.0496
 1831W        W 5575   3.635   4.406  10.668 -0.3904 -0.0409  0.4895
 1832W        W 5576   9.816   4.229   9.480 -0.2043 -0.2847 -0.0479
 1833W        W 5577   5.599   1.696   1.683 -0.3039 -0.0631  0.0296
 1834W        W 5578   6.613   0.985   9.352 -0.2395 -0.0854  0.0162
 1835W        W 5579   7.593   3.207  12.230 -0.0278  0.0382 -0.1072
 1836W        W 5580   7.146   9.246   1.039  0.0831  0.1644 -0.3217
 1837W        W 5581   2.707   9.524   0.846  0.3124  0.2197  0.0019
 1838W        W 5582   2.567   6.053  10.266  0.0953  0.2425 -0.0029
 1839W        W 5583   9.191   4.021  12.777 -0.3564  0.0911  0.0191
 1840W        W 5584   2.166   7.614   1.730  0.0893 -0.0868  0.0298
 1841W        W 5585   8.559   4.138  10.769 -0.0770 -0.1670 -0.1244
 1842W        W 5586   1.353   4.095   0.778  0.1902 -0.0543 -0.0299
 1843W        W 5587   0.998   5.778   0.271 -0.1878 -0.1295 -0.2749
 1844W        W 5588   3.808   5.412  11.542 -0.0680  0.1245  0.4411
 1845W        W 5589   2.307   6.853   4.417 -0.2480  0.2623  0.1817
 1846W        W 5590   4.266   5.618   2.751 -0.1454  0.0303  0.0012
 1847W        W 5591   3.057   5.594   4.361 -0.0927  0.0487  0.0125
 1848W        W 5592   8.177   5.145  10.171 -0.1587 -0.2212  0.1576
 1849W        W 5593   2.019   3.681   1.864 -0.3376  0.0798 -0.0942
 1850W        W 5594   8.830   0.787   1.595  0.3030 -0.0329 -0.1068
 1851W        W 5595   4.970   4.133   4.998 -0.1559  0.3716  0.0968
 1852W        W 5596   8.146   9.928   2.448  0.1907  0.1239 -0.1673
 1853W        W 5597   9.602   5.573   4.179 -0.0125 -0.0911  0.3423
 1854W        W 5598   3.112   4.889   8.904 -0.0174  0.2101  0.0495
 1855W        W 5599   7.361   0.801   4.061  0.0321 -0.3044 -0.0012
 1856W        W 5600   1.231   1.677  10.021 -0.4732 -0.1349 -0.1247
 1857W        W 5601   4.908   8.119  12.507 -0.0097  0.0481  0.0207
 1858W        W 5602   5.814   0.990  12.219 -0.0459  0.1408 -0.0871
 1859W        W 5603   9.364   5.676  10.758  0.2223 -0.1007  0.1609
 1860W        W 5604   8.907   0.108   0.314 -0.1364 -0.1277  0.0990
 1861W        W 5605   3.542   4.483   1.169 -0.0162  0.2509  0.0339
 1862W        W 5606   8.716   2.755   9.918 -0.1459  0.0902  0.0695
 1863W        W 5607   1.846   5.688   9.834  0.0034 -0.0123  0.3176
 1864W        W 5608   0.579   6.669   3.987  0.3382  0.1819  0.1337
 1865W        W 5609   8.770   2.614  12.409  0.0766  0.1092 -0.0958
 1866W        W 5610   6.405   6.798   0.468  0.0281 -0.1227  0.2092
 1867W        W 5611   1.797   7.227  11.133  0.1074  0.1405  0.0497
 1868W        W 5612   7.042   1.384   1.090 -0.1444  0.3092  0.0986
 1869W        W 5613   2.897   5.677   3.522 -0.0725 -0.0515  0.4381
 1870W        W 5614   4.010   1.660  10.411 -0.4458 -0.0905 -0.1557
 1871W        W 5615   8.958   5.074   8.630 -0.5369 -0.2545  0.0084
 1872W        W 5616   5.816   6.012  11.429 -0.0282  0.1312 -0.1213
 1873W        W 5617   0.243   9.801  10.153 -0.2091  0.1838  0.0005
 1874W        W 5618   4.862   7.606  12.710 -0.0714  0.0980 -0.3537
 1875W        W 5619   0.972   6.064   8.926 -0.0838 -0.3308  0.0556
 1876W        W 5620   2.983   6.689   1.312  0.1477  0.1568  0.1415
 1877W        W 5621   4.164   3.015  12.469 -0.2411  0.0418  0.2544
 1878W        W 5622   2.213   6.172  12.234  0.3384  0.3018 -0.1384
 1879W        W 5623   7.535   6.458  12.518 -0.1171  0.0687  0.0894
 1880W        W 5624   3.626   6.089   2.578 -0.1939  0.0982  0.0136
 1881W        W 5625   6.846   5.599  11.422 -0.1970  0.0781 -0.0327
 1882W        W 5626   7.883   6.913  12.666  0.2830  0.0725 -0.3701
 1883W        W 5627   6.267   8.092  10.250  0.0197  0.0727 -0.0671
 1884W        W 5628   1.588   0.084   0.967 -0.1220 -0.0876  0.0687
 1885W        W 5629   2.165   6.825   1.268 -0.0739 -0.2649  0.0489
 1886W        W 5630   0.030   8.785  10.640 -0.1195 -0.0104  0.3300
 1887W        W 5631   8.020   6.305  12.309  0.4295  0.0455  0.1517
 1888W        W 5632   8.569   3.981   9.132  0.1410 -0.0573  0.1352
 1889W        W 5633   5.478   9.917   2.670 -0.0623 -0.3615 -0.0311
 1890W        W 5634   3.608   4.753   0.733 -0.3176 -0.1741 -0.1995
 1891W        W 5635   4.722   4.920   1.545  0.0043  0.0597 -0.1844
 1892W        W 5636   8.223   0.239   0.155 -0.0433 -0.5095 -0.0697
 1893W        W 5637   4.906   7.708   1.072  0.4607 -0.0534 -0.0582
 1894W        W 5638   2.096   6.972  10.001  0.0629  0.1331 -0.1422
 1895W        W 5639   6.857   4.920   8.685 -0.0266 -0.1718  0.0417
 1896W        W 5640   7.046   9.773   1.063  0.2443  0.0217  0.0670
 1897W        W 5641   8.424   1.850  12.719  0.1088 -0.3332 -0.3076
 1898W        W 5642   4.275   2.371  11.879  0.0498 -0.2096  0.0661
 1899W        W 5643   5.527   8.528   3.025 -0.0475  0.2227  0.2061
 1900W        W 5644   9.231   8.031  11.695  0.0748  0.0985 -0.1582
 1901W        W 5645   9.568   6.116  12.547 -0.0656  0.1564 -0.0075
 1902W        W 5646   3.549   0.087  12.228 -0.0887 -0.0025  0.0633
 1903W        W 5647   6.896   3.171   4.472  0.2453 -0.0796 -0.4830
 1904W        W 5648   5.368   1.749   2.585 -0.2203  0.2210  0.3424
 1905W        W 5649   2.845   3.377  12.355 -0.2627 -0.0879  0.2840
 1906W        W 5650   9.207   2.434  12.044 -0.0723  0.2422 -0.2409
 1907W        W 5651   6.610   5.654   2.510  0.4431 -0.1469  0.2970
 1908W        W 5652   3.843   9.619  12.046  0.1277 -0.1593  0.0553
 1909W        W 5653   9.614   1.252   2.260 -0.1273 -0.3740 -0.5715
 1910W        W 5654   8.606   1.234   3.222  0.0965  0.2783  0.0578
 1911W        W 5655   6.567   6.270  12.255 -0.1891  0.0461  0.1763
 1912W        W 5656   1.943   8.700  11.902 -0.0338  0.1921  0.2075
 1913W        W 5657   6.495   6.569   1.536  0.3223  0.2131 -0.1828
 1914W        W 5658   2.588   5.672  11.399 -0.2850 -0.2083 -0.0406
 1915W        W 5659   5.565   8.354   0.838  0.0848  0.0278 -0.1583
 1916W        W 5660   8.245   1.336   0.074 -0.1155 -0.0046 -0.2004
 1917W        W 5661   0.324   3.462   4.232  0.4452 -0.0575  0.1056
 1918W        W 5662   4.449   9.067  10.017 -0.2281 -0.2602 -0.2289
 1919W        W 5663   2.278   2.726   9.138  0.3064  0.0108  0.1426
 1920W        W 5664   0.090   6.104  12.852  0.1377 -0.1645 -0.0483
 1921W        W 5665   3.511   3.248   4.509  0.1956 -0.1296  0.2619
 1922W        W 5666   6.003   0.508   3.426 -0.1303 -0.4452  0.1687
 1923W        W 5667   8.076   3.404   1.158 -0.2225  0.0403  0.3052
 1924W        W 5668   6.232   0.559  10.302  0.3505 -0.0770  0.2307
 1925W        W 5669   1.081   8.877   2.224  0.0681 -0.1590  0.1746
 1926W        W 5670   1.241   8.072  12.445  0.1093  0.1657 -0.1468
 1927W        W 5671   4.153   3.751   3.455 -0.1800  0.1918 -0.3482
 1928W        W 5672   6.475   2.131  10.476 -0.0939  0.0820 -0.0014
 1929W        W 5673   5.673   5.743   0.413  0.0529 -0.0473  0.1540
 1930W        W 5674   7.880   8.631   8.608  0.1623  0.0733  0.1966
 1931W        W 5675   7.734   3.097   2.438  0.0175  0.0093 -0.2430
 1932W        W 5676   9.143   8.173   0.796 -0.1109  0.0065 -0.1316
 1933W        W 5677   5.717   5.220  11.348 -0.1807 -0.2814  0.1235
 1934W        W 5678   6.791   6.586   2.726  0.0217 -0.3275  0.0839
 1935W        W 5679   4.196   3.855   2.686 -0.1178  0.3677 -0.0432
 1936W        W 5680   8.424   9.480  10.658 -0.0077  0.1243 -0.1321
 1937W        W 5681   5.977   5.456   8.168  0.1964  0.1138  0.1404
 1938W        W 5682   4.327   7.157  10.489  0.2328  0.1354 -0.1992
 1939W        W 5683   3.291   1.695   2.808 -0.4536  0.1441  0.1011
 1940W        W 5684   0.582   0.467   0.845 -0.1148 -0.0653  0.1980
 1941W        W 5685   4.016   9.737   2.762 -0.0841 -0.0473 -0.0258
 1942W        W 5686   0.873   2.957   9.868 -0.1707 -0.2104  0.1217
 1943W        W 5687   8.239   6.430   8.951 -0.0505 -0.2350  0.1576
 1944W        W 5688   7.361   1.591   1.837  0.4206 -0.0444  0.0235
 1945W        W 5689   0.144   6.053   2.928  0.0101  0.1298  0.2046
 1946W        W 5690   6.489   2.907   9.894  0.0510 -0.1265  0.1375
 1947W        W 5691   7.930   2.341   2.252 -0.1911  0.1581 -0.0599
 1948W        W 5692   6.316   3.803   1.174 -0.0710  0.1094  0.0011
 1949W        W 5693   2.564   4.767   1.231  0.1985  0.0407  0.3610
 1950W        W 5694   0.030   2.337   9.964  0.0140  0.0153 -0.0515
 1951W        W 5695   4.637   5.795  10.392 -0.2788  0.1278  0.2681
 1952W        W 5696   3.661   9.262   9.382  0.1675  0.2665 -0.2101
 1953W        W 5697   7.010   9.366  11.071  0.3448  0.1495  0.1631
 1954W        W 5698   7.124   5.870   2.634  0.1856  0.0696 -0.2457
 1955W        W 5699   5.112   3.983  10.413  0.1417  0.0975  0.4956
 1956W        W 5700   4.553   3.550  11.977  0.1356 -0.1717  0.2500
 1957W        W 5701   4.269   7.130   0.920  0.2030 -0.1404  0.3476
 1958W        W 5702   4.576   6.649   8.727  0.2645  0.1356  0.0577
 1959W        W 5703   3.756   9.925   3.166 -0.0181  0.0936  0.0057
 1960W        W 5704   8.908   3.126   1.784 -0.1516 -0.3503  0.3030
 1961W        W 5705   4.735   5.404   9.993  0.3557 -0.0679  0.3967
 1962W        W 5706   1.243   4.520   2.961  0.0768 -0.2478 -0.4398
 1963W        W 5707   2.377   9.221   2.958  0.1095  0.4755 -0.0956
 1964W        W 5708   5.139   3.859   8.970  0.0400 -0.1113  0.4163
 1965W        W 5709   2.393   8.449  11.603  0.2602 -0.0374 -0.0441
 1966W        W 5710   6.609   8.958   1.613  0.0157  0.0656  0.0707
 1967W        W 5711   4.440   3.387  10.102  0.2069  0.0233 -0.1224
 1968W        W 5712   5.369   6.521  12.184  0.1194 -0.1268  0.1477
 1969W        W 5713   0.935   5.474  10.327 -0.1826  0.1139 -0.1267
 1970W        W 5714   0.506   4.755   0.335  0.0686  0.0053  0.1481
 1971W        W 5715   9.305   4.239  12.355  0.2934 -0.0853 -0.0535
 1972W        W 5716   2.714   2.675   1.343 -0.1170  0.2614 -0.1280
 1973W        W 5717   6.219   6.815  11.873  0.0224 -0.0367 -0.1077
 1974W        W 5718   9.335   2.533   2.706  0.1131 -0.1041  0.4171
 1975W        W 5719   1.643   4.844   2.817 -0.0130 -0.0399  0.1143
 1976W        W 5720   4.462   1.428  12.123 -0.2869 -0.0255 -0.4111
 1977W        W 5721   8.382   4.714  11.398 -0.0730  0.0165  0.2762
 1978W        W 5722   5.141   0.159   1.004 -0.2393  0.4505  0.0123
 1979W        W 5723   6.642   9.066  11.828 -0.4581 -0.2684 -0.1198
 1980W        W 5724   1.232   5.911  10.358  0.0751  0.1187 -0.1476
 1981W        W 5725   6.258   1.485   3.141 -0.0612  0.0437 -0.3716
 1982W        W 5726   8.586   6.369   0.412  0.3529 -0.1185 -0.1932
 1983W        W 5727   2.615   4.637   3.868  0.0163 -0.3698  0.0198
 1984W        W 5728   3.422   2.000   3.273 -0.1314  0.2774  0.1087
 1985W        W 5729   5.799   1.707  12.605 -0.2831 -0.1651 -0.0409
 1986W        W 5730   5.797   5.144   2.301  0.1429  0.2733  0.0535
 1987W        W 5731   1.048   5.275   4.266  0.2886 -0.2754  0.3977
 1988W        W 5732   3.367   2.011   4.589 -0.1062 -0.1499 -0.1040
 1989W        W 5733   9.697   3.664  11.545 -0.4373  0.2248 -0.1090
 1990W        W 5734   8.315   3.203   2.278 -0.1804 -0.0065  0.2083
 1991W        W 5735   0.546   0.507  12.785 -0.1264  0.0780 -0.1142
 1992W        W 5736   0.028   6.717   4.050 -0.3150 -0.0391  0.0724
 1993W        W 5737   5.832   2.985   3.073 -0.2265 -0.1569 -0.2642
 1994W        W 5738   5.548   6.550  10.265  0.2290  0.0774 -0.1207
 1995W        W 5739   0.779   8.474  10.513  0.2905  0.0665  0.2896
 1996W        W 5740   3.953   7.944   4.373 -0.2381 -0.0283  0.2478
 1997W        W 5741   4.161   4.590  11.513 -0.0272  0.2061 -0.0078
 1998W        W 5742   3.944   7.057   9.530  0.1101  0.0327 -0.2412
 1999W        W 5743   3.290   9.704  10.853 -0.1284  0.2257  0.0150
 2000W        W 5744   5.117   4.472   1.963 -0.2228 -0.1540 -0.0722
 2001W        W 5745   6.069   8.564  11.058  0.0100  0.1025  0.2973
 2002W        W 5746   5.033   4.336   9.937  0.3936 -0.0074 -0.1694
 2003W        W 5747   3.813   3.995   9.588 -0.1913 -0.2080  0.1227
 2004W        W 5748   1.367   0.534  12.720  0.2995 -0.0256 -0.1342
 2005W        W 5749   7.419   2.043   2.089  0.0402  0.0862 -0.1295
 2006W        W 5750   7.472   1.477  11.471 -0.2822  0.1215 -0.3448
 2007W        W 5751   5.334   6.032  10.796 -0.2511 -0.0017  0.3940
 2008W        W 5752   4.664   9.473  12.766  0.0690 -0.0663  0.1100
 2009W        W 5753   9.130   4.098   2.547 -0.0546 -0.0338  0.0870
 2010W        W 5754   8.294   5.680   8.429  0.1162 -0.0408  0.1073
 2011W        W 5755   6.865   3.762   3.607 -0.1299  0.3644  0.1777
 2012W        W 5756   1.088   8.795  12.615 -0.3658  0.1098 -0.0554
 2013W        W 5757   3.164   6.887  11.072 -0.0854  0.3725  0.3383
 2014W        W 5758   7.891   2.129  10.279 -0.0670  0.3434 -0.1351
 2015W        W 5759   7.669   5.298  10.298  0.0350 -0.0661  0.1584
 2016W        W 5760   6.416   6.145   8.882 -0.2828 -0.0773  0.1546
 2017W        W 5761   3.387   1.554  12.340  0.3507  0.0247 -0.5258
 2018W        W 5762   8.433   4.206   2.903  0.2383  0.2918  0.0707
 2019W        W 5763   9.025   2.613   3.572 -0.2415  0.0254  0.3517
 2020W        W 5764   0.431   5.875   0.627  0.1665  0.0283  0.3578
 2021W        W 5765   0.833   5.732   4.827  0.0452 -0.1771 -0.1203
 2022W        W 5766   0.532   0.986  12.378 -0.1950  0.1352 -0.1555
 2023W        W 5767   9.471   3.013   0.835  0.1558 -0.0112  0.0385
 2024W        W 5768   2.479   7.128   9.346  0.0117  0.1569  0.1658
 2025W        W 5769   8.645   2.434  11.240  0.0989 -0.1614  0.2747
 2026W        W 5770   2.278   1.135  12.221 -0.1616  0.1660 -0.0002
 2027W        W 5771   0.596   3.561   9.360 -0.0972 -0.0676  0.0264
 2028W        W 5772   3.598   0.948   9.318 -0.0639  0.2147  0.1345
 2029W        W 5773   2.554   4.083   3.092 -0.0149  0.1177 -0.0287
 2030W        W 5774   4.895   2.913   0.781  0.1838 -0.0315  0.3110
 2031W        W 5775   9.890   1.558  10.737 -0.0715 -0.0416 -0.2353
 2032W        W 5776   8.717   8.214  10.747 -0.2451 -0.0571 -0.3695
 2033W        W 5777   2.626   5.428   0.361  0.3936  0.0271 -0.2090
 2034W        W 5778   6.188   5.476   2.356 -0.2959  0.0134  0.1201
 2035W        W 5779   8.008   4.929  11.125  0.0614  0.2547  0.3504
 2036W        W 5780   4.855   2.002   1.244 -0.0107 -0.2437  0.0075
 2037W        W 5781   4.725   3.008   9.914 -0.1718 -0.1023  0.0413
 2038W        W 5782   7.561   5.308   1.080  0.0249 -0.2243 -0.0660
 2039W        W 5783   9.441   2.529  12.503 -0.2241  0.1977 -0.0274
 2040W        W 5784   2.002   2.438   9.465  0.0979 -0.0369 -0.1452
 2041W        W 5785   3.024   6.227   1.676 -0.1197 -0.1376 -0.1956
 2042W        W 5786   9.029   3.268  12.276 -0.0607 -0.1639 -0.0312
 2043W        W 5787   0.370   2.725   0.670 -0.0847  0.3007  0.2397
 2044W        W 5788   5.177   4.722   1.530  0.2509  0.0346  0.3490
 2045W        W 5789   4.409   6.667  10.495  0.2916  0.2897 -0.1014
 2046W        W 5790   5.020   6.815   7.877 -0.0417 -0.1646  0.1544
 2047W        W 5791   5.393   7.769  10.666  0.1932  0.2541  0.2025
 2048W        W 5792   6.834   1.830  10.200 -0.2059 -0.2246  0.1483
 2049W        W 5793   2.696   7.896  10.003  0.1319  0.0320 -0.0644
 2050W        W 5794   6.224   1.505   1.015  0.0475 -0.1063 -0.1101
 2051W        W 5795   7.675   9.145  10.857 -0.1419 -0.3095 -0.0839
 2052W        W 5796   3.605   4.988   1.273 -0.3696  0.2540  0.0555
 2053W        W 5797   8.179   6.081  11.863  0.0717 -0.0459 -0.2130
 2054W        W 5798   3.836   2.363   3.162 -0.1908  0.0425  0.1253
 2055W        W 5799   6.282   4.180   9.288  0.2566 -0.0039 -0.1571
 2056W        W 5800   4.661   9.559   8.018 -0.1915 -0.0118 -0.1201
 2057W        W 5801   2.152   1.239   3.736 -0.0647  0.0119 -0.0909
 2058W        W 5802   4.501   1.260   8.639  0.1936 -0.1342 -0.0422
 2059W        W 5803   2.381   8.735  12.671  0.0530 -0.2470  0.1021
 2060W        W 5804   2.031   2.593   2.519 -0.0362  0.1680  0.2669
 2061W        W 5805   2.334   3.199  12.147  0.1503  0.1529 -0.0175
 2062W        W 5806   8.391   7.806  10.638 -0.1922 -0.0162  0.2690
 2063W        W 5807   2.479   5.387   4.519  0.1182  0.0327 -0.1200
 2064W        W 5808   4.154   0.008  10.609 -0.0598  0.1244 -0.2938
 2065W        W 5809   8.410   2.463   1.951 -0.1036  0.1885 -0.1423
 2066W        W 5810   5.691   0.112   9.813  0.0615  0.3646  0.1906
 2067W        W 5811   7.370   8.120  10.504  0.0056  0.0570  0.0111
 2068W        W 5812   9.556   2.094  12.245  0.1408  0.0143  0.0901
 2069W        W 5813   1.327   2.457  12.462  0.0683 -0.1961  0.1130
 2070W        W 5814   4.295   6.764   3.797 -0.1334  0.0121  0.0245
 2071W        W 5815   7.388   3.559   9.823 -0.1887 -0.1135 -0.1981
 2072W        W 5816   9.433   3.528   0.873  0.0936  0.1726  0.3530
 2073W        W 5817   9.932   4.631  11.589  0.0058  0.0604 -0.0468
 2074W        W 5818   2.088   8.092   1.917  0.0711  0.1377 -0.0115
 2075W        W 5819   2.986   8.153   1.335  0.0965 -0.1771 -0.2195
 2076W        W 5820   4.352   6.379   1.902  0.1696 -0.1024 -0.0249
 2077W        W 5821   3.505   3.314   9.562 -0.0269  0.4288 -0.0961
 2078W        W 5822   9.314   2.207  11.666  0.1938  0.4385  0.0172
 2079W        W 5823   8.387   3.198   1.765 -0.0929  0.0600 -0.1568
 2080W        W 5824   2.962   0.849  10.256 -0.2725 -0.3266 -0.2589
 2081W        W 5825   9.372   3.052   1.643 -0.3196  0.1440 -0.1334
 2082W        W 5826   2.649   5.034   4.129  0.2137 -0.3187  0.1121
 2083W        W 5827   3.195   3.438   0.314  0.1291  0.1771  0.0722
 2084W        W 5828   2.879   2.197  11.350 -0.0088  0.1938  0.2890
 2085W        W 5829   6.565   8.519   0.827  0.3454  0.5042  0.1144
 2086W        W 5830   4.366   7.534  12.646  0.2491 -0.1901  0.1149
 2087W        W 5831   9.681   4.220  11.505 -0.2065 -0.1339 -0.0316
 2088W        W 5832   8.265   8.396   2.610 -0.3773  0.2916 -0.0129
 2089W        W 5833   9.870   4.235  10.332 -0.0438 -0.0698  0.1436
 2090W        W 5834   9.841   7.110   1.189 -0.1728 -0.1460  0.4060
 2091W        W 5835   7.913   2.832   0.974  0.0496 -0.2837 -0.1923
 2092W        W 5836   9.829   8.070  10.395 -0.2444  0.1016 -0.2568
 2093W        W 5837   7.524   9.446   3.712  0.2526 -0.5484 -0.0752
 2094W        W 5838   1.338   1.404  12.152  0.0362 -0.4132  0.4150
 2095W        W 5839   3.013   4.213   4.603  0.2328  0.1844  0.0569
 2096W        W 5840   5.543   3.822   2.723  0.1470  0.3461 -0.3661
 2097W        W 5841   0.936   0.476   9.581 -0.3066 -0.3053 -0.1078
 2098W        W 5842   2.349   9.072  10.478  0.0048 -0.1839  0.0171
 2099W        W 5843   2.525   8.216  12.478  0.0226  0.3099  0.1410
 2100W        W 5844   1.206   3.082   8.065 -0.3342 -0.0719 -0.2194
 2101W        W 5845   5.857   5.026   0.960  0.0659  0.2185  0.0476
 2102W        W 5846   9.535   8.523   8.942  0.0382 -0.1056  0.0547
 2103W        W 5847   9.616   9.320   1.080  0.4100 -0.0657  0.1600
 2104W        W 5848   9.908   3.610   2.147 -0.3086 -0.1026  0.0815
 2105W        W 5849   7.255   8.464  11.368  0.1308 -0.0283  0.2532
 2106W        W 5850   3.697   2.558   3.630 -0.3131  0.1629 -0.0585
 2107W        W 5851   3.250   8.373  12.732  0.0502  0.2506  0.2041
 2108W        W 5852   7.609   5.989  11.777 -0.4622 -0.0721  0.0858
 2109W        W 5853   1.631   4.248   0.374 -0.2457 -0.3283 -0.3822
 2110W        W 5854   9.403   6.521   4.044  0.0104 -0.0610 -0.0681
 2111W        W 5855   7.459   2.207  12.013  0.0858  0.0048 -0.0796
 2112W        W 5856   3.157   4.898   9.437 -0.1521 -0.0792  0.0665
 2113W        W 5857   9.121   3.761   8.466  0.0702  0.1666 -0.2486
 2114W        W 5858   3.658   8.745   9.178  0.1558  0.0347  0.1460
 2115W        W 5859   4.855   6.386  12.304  0.3542 -0.5544 -0.1503
 2116W        W 5860   5.188   2.083  12.394 -0.4292 -0.0746 -0.0528
 2117W        W 5861   6.864   4.616   0.970 -0.1205 -0.0938  0.2303
 2118W        W 5862   7.546   4.310   9.438  0.1514 -0.3667 -0.3189
 2119W        W 5863   5.408   5.824   4.012  0.1227 -0.0667 -0.0763
 2120W        W 5864   6.419   0.540   1.517  0.0308 -0.0108 -0.0239
 2121W        W 5865   0.621   5.910   2.902  0.1346  0.2396 -0.1121
 2122W        W 5866   7.763   1.470   8.950 -0.0434 -0.2417  0.0482
 2123W        W 5867   1.835   7.505   0.537  0.2498 -0.3790  0.3499
 2124W        W 5868   5.884   3.425   4.102 -0.0527 -0.2412  0.0529
 2125W        W 5869   2.256   1.423   9.252  0.0289 -0.1338 -0.4801
 2126W        W 5870   2.200   8.191  12.104 -0.2112  0.0296  0.0876
 2127W        W 5871   0.620   2.487  11.886  0.1424 -0.1639 -0.0519
 2128W        W 5872   1.583   3.567   1.081 -0.1735  0.2747  0.3035
 2129W        W 5873   9.130   0.847   1.107 -0.1588 -0.1899 -0.0399
 2130W        W 5874   6.485   2.514   9.612  0.1364  0.0036  0.2584
 2131W        W 5875   6.255   3.984  10.224  0.4488  0.1296 -0.1383
 2132W        W 5876   5.236   3.628  10.820  0.0033 -0.0178 -0.1762
 2133W        W 5877   9.444   3.660   3.346 -0.0470  0.0281 -0.2430
 2134W        W 5878   9.432   0.675  11.850  0.0843  0.2788 -0.1477
 2135W        W 5879   8.375   2.562  11.965  0.1302  0.1003 -0.0442
 2136W        W 5880   0.408   9.826  11.318 -0.3619  0.2359 -0.0053
 2137W        W 5881   0.743   0.717   2.570 -0.0505  0.2683  0.0872
 2138W        W 5882   3.687   8.554  12.645 -0.1037  0.2094  0.0087
 2139W        W 5883   0.913   4.360   1.465  0.2664  0.0893 -0.2683
 2140W        W 5884   3.672   9.674   0.044  0.1108  0.1058  0.2198
 2141W        W 5885   5.581   5.188  12.546  0.0786  0.0379  0.1902
 2142W        W 5886   7.819   8.275  11.466  0.1928  0.1480  0.1304
 2143W        W 5887   0.679   6.206   3.824 -0.1442 -0.0318  0.1043
 2144W        W 5888   4.572   1.760   8.437 -0.2869  0.1184  0.1406
 2145W        W 5889   9.400   5.947   9.149 -0.0848  0.0506 -0.4974
 2146W        W 5890   6.015   6.431   8.804 -0.0522 -0.0359 -0.0533
 2147W        W 5891   2.020   1.009   2.378 -0.2266 -0.1272 -0.0219
 2148W        W 5892   4.143   2.824  10.993  0.2393 -0.0081 -0.2337
 2149W        W 5893   2.392   0.349   3.342  0.0165 -0.0464  0.3184
 2150W        W 5894   9.107   0.246   2.210 -0.0135  0.1118 -0.2596
 2151W        W 5895   2.759   8.673   1.397 -0.4647 -0.1466 -0.0092
 2152W        W 5896   1.034   7.216   1.266  0.3747  0.1010  0.0515
 2153W        W 5897   3.786   4.773  12.185 -0.1687 -0.4156  0.0047
 2154W        W 5898   2.136   0.494  11.447 -0.1603 -0.1665 -0.1024
 2155W        W 5899   4.759   3.588  10.518  0.2221 -0.3251 -0.2350
 2156W        W 5900   6.817   6.915   1.843 -0.0163  0.1256  0.0780
 2157W        W 5901   6.245   0.182   4.229 -0.1403 -0.1804  0.5301
 2158W        W 5902   2.994   9.049   1.577 -0.2122 -0.1907 -0.4120
 2159W        W 5903   0.846   1.305   9.275  0.0459  0.0506 -0.4273
 2160W        W 5904   1.546   0.069  12.806 -0.0216  0.3407  0.0726
 2161W        W 5905   2.575   4.454   3.411  0.1157 -0.1462 -0.0388
 2162W        W 5906   6.150   2.813   9.472  0.0064 -0.2373  0.0618
 2163W        W 5907   3.500   1.247   1.099 -0.2686  0.2093 -0.2342
 2164W        W 5908   6.675   3.659  10.434  0.0230 -0.0166 -0.2633
 2165W        W 5909   8.325   0.242   1.550 -0.0776  0.0152 -0.3795
 2166W        W 5910   2.830   1.223   9.812 -0.2248 -0.0410 -0.0006
 2167W        W 5911   3.252   2.037  10.630  0.1541  0.0744 -0.2394
 2168W        W 5912   5.741   3.501   1.415 -0.2460  0.1751  0.2383
 2169W        W 5913   1.081   6.758   8.522 -0.2899  0.0154 -0.0189
 2170W        W 5914   5.569   7.515  12.714 -0.0540  0.1246  0.0428
 2171W        W 5915   2.585   8.794  10.144 -0.2343  0.1391 -0.0173
 2172W        W 5916   1.245   8.437   2.878 -0.0353  0.0800  0.0438
 2173W        W 5917   4.366   9.474  10.331 -0.0473  0.0641  0.0720
 2174W        W 5918   5.019   3.430   0.142 -0.0095  0.0103  0.0458
 2175W        W 5919   3.411   7.506  10.322  0.1852 -0.3295 -0.0182
 2176W        W 5920   9.354   0.728   0.587 -0.4329 -0.0451  0.3792
 2177W        W 5921   2.015   4.570   2.040 -0.0329 -0.2189  0.4086
 2178W        W 5922   6.177   5.955  11.914  0.1290 -0.2072  0.0887
 2179W        W 5923   0.024   8.242   9.928  0.3199  0.3109 -0.3918
 2180W        W 5924   4.627   3.620   2.644 -0.0953 -0.2990 -0.0581
 2181W        W 5925   6.918   4.468   8.337 -0.0640 -0.1194 -0.0680
 2182W        W 5926   0.978   1.505  12.469 -0.0317 -0.0871 -0.0848
 2183W        W 5927   7.152   5.938  10.399 -0.1933 -0.1082 -0.0101
 2184W        W 5928   7.455   2.702  12.073  0.0505 -0.1412 -0.2716
 2185W        W 5929   2.795   8.616   2.225  0.3541 -0.0873 -0.1165
 2186W        W 5930   3.265   3.990  10.660 -0.2715 -0.1222 -0.1289
 2187W        W 5931   6.138   7.510   3.516 -0.2414  0.5077  0.0028
 2188W        W 5932   7.444   6.745   0.983  0.2399  0.1838 -0.0446
 2189W        W 5933   1.738   4.715   2.377  0.2414  0.4529  0.0419
 2190W        W 5934   4.542   7.862   2.479 -0.1338 -0.0408 -0.2458
 2191W        W 5935   1.773   6.608   2.628 -0.2313 -0.1237 -0.2875
 2192W        W 5936   6.193   7.687   3.074 -0.3131  0.0865  0.0085
 2193W        W 5937   3.055   2.629  10.557  0.2069  0.3841 -0.1127
 2194W        W 5938   5.470   9.217   9.455 -0.0858  0.0736  0.0785
 2195W        W 5939   3.507   5.429   0.235 -0.1264 -0.0763 -0.1701
 2196W        W 5940   9.621   3.980   0.736  0.2379  0.0275  0.0666
 2197W        W 5941   9.230   6.732   3.651 -0.2499 -0.1352  0.0727
 2198W        W 5942   2.281   7.979   9.739 -0.1994  0.1519 -0.2894
 2199W        W 5943   0.226   2.197   1.379 -0.0440 -0.0336 -0.1773
 2200W        W 5944   1.832   7.049   0.890  0.1371  0.1073 -0.0583
 2201W        W 5945   5.461   9.172   0.823  0.2249 -0.3377 -0.2408
 2202W        W 5946   4.243   8.988   1.585  0.1635  0.0688 -0.3751
 2203W        W 5947   0.996   4.538   0.417  0.0567  0.2136 -0.1024
 2204W        W 5948   3.450   7.016   3.322  0.1247  0.1745  0.0755
 2205W        W 5949   3.567   8.045   3.113 -0.1804 -0.1460  0.1266
 2206W        W 5950   6.993   0.361   1.114 -0.0456  0.0187 -0.0522
 2207W        W 5951   9.903   0.507  11.733 -0.0706 -0.0575  0.1640
 2208W        W 5952   0.926   5.517  11.118  0.2703  0.2688  0.2598
 2209W        W 5953   3.469   9.678  11.729 -0.1550 -0.4521 -0.2807
 2210W        W 5954   4.067   1.883   2.520 -0.0422 -0.0437 -0.1220
 2211W        W 5955   6.692   8.695   9.528 -0.0898 -0.0940 -0.0222
 2212W        W 5956   3.406   5.027   3.630  0.0351 -0.2013  0.2064
 2213W        W 5957   5.860   4.016   9.945 -0.0051  0.0695  0.4891
 2214W        W 5958   6.452   3.033   1.067  0.0095 -0.1003  0.1257
 2215W        W 5959   9.422   7.980   9.757  0.2767  0.0661 -0.1338
 2216W        W 5960   3.201   2.563   0.492  0.3315 -0.3090  0.0926
 2217W        W 5961   3.950   3.960  10.755  0.1015 -0.0304  0.0832
 2218W        W 5962   6.241   8.734   0.505 -0.0844  0.3006  0.1361
 2219W        W 5963   3.811   6.731  12.603  0.3931  0.1926 -0.1866
 2220W        W 5964   0.358   0.885  11.839  0.1283 -0.1244 -0.0769
 2221W        W 5965   7.884   1.531  11.764  0.3389 -0.1885 -0.0148
 2222W        W 5966   4.521   8.838   9.083 -0.0271  0.1173  0.0116
 2223W        W 5967   9.416   4.058  10.205  0.1386 -0.2095  0.1784
 2224W        W 5968   5.908   4.623   2.216 -0.1436  0.1541 -0.0315
 2225W        W 5969   8.069   5.283   9.469 -0.1924 -0.0633 -0.0225
 2226W        W 5970   4.891   7.474   9.356  0.0941 -0.2245  0.0140
 2227W        W 5971   3.969   5.772   3.458 -0.2596  0.1516  0.0831
 2228W        W 5972   7.090   5.497   1.240 -0.0002 -0.3418 -0.0181
 2229W        W 5973   4.977   1.175   1.282  0.4301  0.1205  0.3585
 2230W        W 5974   6.824   4.397   2.698 -0.1013 -0.1161 -0.2098
 2231W        W 5975   9.064   3.762  12.314  0.2388  0.0614  0.0005
 2232W        W 5976   5.267   3.250   9.785 -0.0885 -0.1076  0.1600
 2233W        W 5977   8.664   4.227   2.447 -0.0418 -0.1227  0.0290
 2234W        W 5978   3.403   0.081  11.183  0.1770  0.1667 -0.0501
 2235W        W 5979   1.966   5.334   9.080  0.1698  0.1047  0.1489
 2236W        W 5980   1.299   2.913  12.270 -0.0076 -0.0942  0.0004
 2237W        W 5981   2.146   6.999   4.903 -0.1863  0.0597 -0.0548
 2238W        W 5982   5.583   2.895   1.999 -0.0118 -0.1142  0.2110
 2239W        W 5983   9.706   2.823  10.748  0.0808  0.0633  0.2953
 2240W        W 5984   9.201   9.325  11.988 -0.0577 -0.0965  0.1552
 2241W        W 5985   0.152   5.009   1.064 -0.2171  0.1122  0.0148
 2242W        W 5986   3.251   3.234  11.645  0.0511 -0.3044  0.3606
 2243W        W 5987   0.907   2.821  10.846 -0.0564  0.0690 -0.1633
 2244W        W 5988   9.498   7.043   3.907  0.2541  0.2116  0.1519
 2245W        W 5989   7.396   4.516  12.681  0.2572 -0.0062  0.1781
 2246W        W 5990   7.555   4.611   2.795 -0.0186 -0.3283  0.1034
 2247W        W 5991   1.889   1.049   1.409 -0.0971 -0.1573 -0.1366
 2248W        W 5992   5.281   8.469  11.668  0.2716  0.0324  0.0168
 2249W        W 5993   6.006   0.482   9.834  0.0729  0.1142  0.0825
 2250W        W 5994   1.905   8.520   0.484  0.2401  0.0296  0.1270
 2251W        W 5995   3.027   2.123  12.339 -0.1114 -0.1092 -0.3847
 2252W        W 5996   6.027   3.192  10.988  0.2707 -0.0742 -0.0042
 2253W        W 5997   3.630   9.169  10.727  0.0396  0.3363 -0.3805
 2254W        W 5998   6.440   3.307  12.201  0.1373  0.0864  0.1113
 2255W        W 5999   6.858   2.569   2.745 -0.2994  0.1575  0.0883
 2256W        W 6000   6.774   2.701  11.597 -0.0959 -0.1429 -0.1463
 2257W        W 6001   9.393   0.621   2.973  0.2593 -0.0150 -0.2083
 2258W        W 6002   5.961   8.945  10.160 -0.1563  0.0273  0.0527
 2259W        W 6003   1.911   8.627   0.008 -0.0895 -0.2688  0.2936
 2260W        W 6004   2.701   1.264   1.756 -0.3163  0.1117  0.0231
 2261W        W 6005   3.500   9.565   0.519  0.0527  0.1105  0.1537
 2262W        W 6006   5.827   5.567  11.640 -0.3892  0.0241 -0.2940
 2263W        W 6007   2.700   5.645   1.299  0.0496  0.2693 -0.1860
 2264W        W 6008   4.524   9.734   9.288  0.2007 -0.0465  0.0602
 2265W        W 6009   2.330   5.443   0.917  0.0489  0.2802  0.3843
 2266W        W 6010   7.224   0.460  12.206 -0.0369 -0.1517 -0.1955
 2267W        W 6011   0.474   8.677  10.928  0.0116  0.0423 -0.0138
 2268W        W 6012   9.468   5.826   1.623 -0.1848  0.0225  0.0921
 2269W        W 6013   3.368   8.778  11.005 -0.3384 -0.2385  0.0813
 2270W        W 6014   0.731   5.964   1.963 -0.1195  0.1351  0.0797
 2271W        W 6015   0.905   7.956   2.269  0.2784 -0.3612  0.0714
 2272W        W 6016   2.864   5.045   4.626 -0.1300 -0.1086 -0.3519
 2273W        W 6017   7.270   3.765   2.195  0.3355  0.0716 -0.0274
 2274W        W 6018   0.671   2.459  11.058 -0.2428 -0.1032  0.4767
 2275W        W 6019   0.803   0.594  11.018  0.2715  0.1349 -0.0800
 2276W        W 6020   0.527   9.183   2.640  0.0277  0.0064  0.0782
 2277W        W 6021   6.041   0.945   9.268 -0.0795  0.0189  0.2344
 2278W        W 6022   8.665   9.548  11.332 -0.2313 -0.2233 -0.3687
 2279W        W 6023   2.769   5.715   0.761  0.0809  0.0746  0.4000
 2280W        W 6024   2.610   6.942   3.269  0.0085 -0.3370  0.4843
 2281W        W 6025   6.226   2.268   8.259  0.1099 -0.1289 -0.0121
 2282W        W 6026   1.862   5.519   0.362 -0.1787 -0.1064 -0.0870
 2283W        W 6027   1.465   2.709   1.800  0.1906 -0.2789  0.1322
 2284W        W 6028   9.150   5.041  12.482 -0.1967 -0.2685  0.0104
 2285W        W 6029   1.411   7.938  10.352 -0.0124 -0.0394 -0.0050
 2286W        W 6030   1.462   4.436   1.308 -0.1894 -0.2488 -0.1104
 2287W        W 6031   5.464   3.238  11.129  0.0617 -0.3417  0.2544
 2288W        W 6032   8.603   6.354   3.670 -0.3444  0.5670 -0.0690
 2289W        W 6033   0.878   7.325   0.709 -0.1386 -0.2992  0.2012
 2290W        W 6034   4.082   1.294  11.047  0.2056  0.0164  0.1730
 2291W        W 6035   8.818   7.497   9.387  0.4918 -0.0123  0.1406
 2292W        W 6036   1.183   8.163   0.974  0.1759 -0.0947  0.1405
 2293W        W 6037   2.336   5.070  10.457 -0.0945 -0.0306 -0.1641
 2294W        W 6038   3.363   0.668   2.650  0.1062  0.1967  0.0151
 2295W        W 6039   0.100   2.807   9.335  0.2908  0.0823 -0.0909
 2296W        W 6040   9.122   4.565   8.643  0.2602  0.0201  0.0303
 2297W        W 6041   7.592   0.363   8.019 -0.1179  0.1180  0.1864
 2298W        W 6042   5.522   1.791   9.434  0.1110 -0.2119 -0.0806
 2299W        W 6043   6.113   6.916   8.967 -0.1388 -0.1009 -0.0102
 2300W        W 6044   8.928   6.087   9.311  0.1192  0.0364  0.2739
 2301W        W 6045   0.895   9.374  11.667 -0.1235 -0.1628 -0.1707
 2302W        W 6046   1.073   9.865  11.871  0.1662 -0.2964 -0.0618
 2303W        W 6047   7.816   4.942   9.838 -0.1497 -0.0310  0.0842
 2304W        W 6048   6.985   3.188   3.687 -0.2446  0.0397 -0.1653
 2305W        W 6049   9.697   2.297   1.243  0.3190 -0.1002  0.0232
 2306W        W 6050   8.419   8.056   7.994  0.1839  0.2822 -0.2571
 2307W        W 6051   6.083   0.099  10.259  0.3054  0.2842 -0.0292
 2308W        W 6052   4.320   5.924   0.596 -0.1513  0.3299  0.2241
 2309W        W 6053   9.191   3.161   3.467 -0.3297 -0.1577  0.4233
 2310W        W 6054   7.081   8.961   0.661  0.0447 -0.1029 -0.0454
 2311W        W 6055   4.802   5.924   9.936  0.0635 -0.0243 -0.2617
 2312W        W 6056   7.692   6.575   0.320 -0.2605 -0.4150  0.3101
 2313W        W 6057   5.922   6.999   1.541 -0.0473  0.0877  0.0330
 2314W        W 6058   0.032   1.219   0.147 -0.1414 -0.0565  0.2003
 2315W        W 6059   3.808   3.688   3.885 -0.0887 -0.1654  0.0570
 2316W        W 6060   3.553   5.835   8.862 -0.1072 -0.5015  0.0293
 2317W        W 6061   3.996   7.720   8.993 -0.2164  0.2416 -0.1198
 2318W        W 6062   2.699   9.150  10.853  0.0793  0.0108 -0.0641
 2319W        W 6063   4.669   0.824  12.425 -0.0494 -0.4640 -0.1744
 2320W        W 6064   4.003   1.153  11.942  0.4280  0.0789 -0.0136
 2321W        W 6065   7.105   6.377   0.013 -0.0098 -0.0942  0.1137
 2322W        W 6066   7.182   5.471   2.220  0.0555 -0.0959  0.0757
 2323W        W 6067   7.440   9.594   2.481  0.1116  0.0437 -0.2834
 2324W        W 6068   2.462   0.480   9.511  0.1645 -0.0324 -0.0557
 2325W        W 6069   9.087   3.607   1.464 -0.3225 -0.0432  0.1091
 2326W        W 6070   1.662   6.221  10.452 -0.2352 -0.0845 -0.1868
 2327W        W 6071   9.484   4.670  11.309 -0.1282  0.1216 -0.1611
 2328W        W 6072   7.715   0.827   8.050  0.0782  0.1198 -0.3101
 2329W        W 6073   7.567   4.743   9.189 -0.0691  0.2098 -0.1936
 2330W        W 6074   9.513   4.374   2.961  0.3029 -0.1459  0.4399
 2331W        W 6075   5.932   7.131   3.196  0.0735 -0.3420  0.4395
 2332W        W 6076   3.313   3.517   2.172  0.0059  0.1927  0.0956
 2333W        W 6077   4.303   0.138   9.665 -0.0532  0.4605 -0.1683
 2334W        W 6078   5.108   7.488   1.960 -0.1883  0.2022 -0.0914
 2335W        W 6079   4.223   8.958   2.957  0.2620  0.0115 -0.1938
 2336W        W 6080   2.040   1.629  10.959  0.1026  0.4652 -0.3204
 2337W        W 6081   9.834   5.009   1.571 -0.0561  0.0024  0.3449
 2338W        W 6082   4.755   9.741   3.925 -0.0227 -0.3048 -0.2617
 2339W        W 6083   8.657   1.586   9.341  0.1255  0.3367 -0.0513
 2340W        W 6084   0.520   3.879  11.055  0.1347  0.2950  0.1378
 2341W        W 6085   7.067   4.067  12.501  0.1992 -0.0018  0.0029
 2342W        W 6086   9.855   7.280   4.323 -0.1249 -0.2465 -0.1344
 2343W        W 6087   5.172   9.401   1.525  0.2446 -0.1647 -0.2103
 2344W        W 6088   0.489   3.392  10.175 -0.1456 -0.2012 -0.3148
 2345W        W 6089   5.985   2.892   1.226 -0.0754 -0.0592  0.3458
 2346W        W 6090   9.629   4.311  12.796  0.3435  0.1165 -0.1170
 2347W        W 6091   0.433   8.451   1.415 -0.2087  0.2767  0.2418
 2348W        W 6092   7.616   8.163  11.049  0.1146 -0.0187 -0.0911
 2349W        W 6093   6.555   9.861   0.334 -0.2560 -0.0339 -0.2685
 2350W        W 6094   4.428   2.770  12.858 -0.0667 -0.2281  0.1316
 2351W        W 6095   3.865   4.687   4.545 -0.1825 -0.2436 -0.0147
 2352W        W 6096   9.482   4.532   9.013  0.1992  0.1251  0.0702
 2353W        W 6097   6.987   7.137  11.065  0.2893 -0.1726 -0.1663
 2354W        W 6098   0.537   8.091  11.555 -0.0598 -0.3616  0.1640
 2355W        W 6099   7.401   8.084   3.684 -0.0623  0.2189  0.0686
 2356W        W 6100   6.946   5.513  11.942  0.4199 -0.3567 -0.0560
 2357W        W 6101   2.194   0.584   2.508  0.0582 -0.3527 -0.1227
 2358W        W 6102   1.131   3.327   3.527  0.0734 -0.1586  0.0387
 2359W        W 6103   6.697   3.089  12.559 -0.2643 -0.0949  0.1678
 2360W        W 6104   5.705   7.561   3.075  0.0571 -0.0553  0.1162
 2361W        W 6105   2.124   4.592  10.464 -0.2590  0.1426 -0.0487
 2362W        W 6106   2.775   6.844   1.783  0.1887 -0.1104 -0.2216
 2363W        W 6107   1.288   2.078   0.453 -0.0295  0.2823  0.0082
 2364W        W 6108   1.411   8.775  10.808  0.3135 -0.1834 -0.1809
 2365W        W 6109   1.407   8.611   0.191 -0.3855 -0.1801  0.1054
 2366W        W 6110   6.212   5.565   2.826 -0.0706  0.1323 -0.1222
 2367W        W 6111   7.245   9.167   2.351  0.2713 -0.3644 -0.0980
 2368W        W 6112   8.839   4.738  10.069 -0.0425  0.1026  0.2050
 2369W        W 6113   7.971   4.386   1.784 -0.1409 -0.0942  0.0604
 2370W        W 6114   8.658   4.032   4.384  0.0484 -0.1571  0.2207
 2371W        W 6115   3.823   3.099   1.013  0.1064 -0.2535 -0.0156
 2372W        W 6116   0.803   4.274  10.863  0.1008  0.1884  0.2021
 2373W        W 6117   4.926   8.597   1.527 -0.0759 -0.2443  0.0082
 2374W        W 6118   3.977   4.952   9.642 -0.0644 -0.0061 -0.1399
 2375W        W 6119   0.360   9.445  10.659  0.1160 -0.2881 -0.0859
 2376W        W 6120   4.826   4.681  12.442 -0.0004  0.0416  0.0399
 2377W        W 6121   2.574   5.984  10.892  0.0534 -0.1111 -0.3470
 2378W        W 6122   7.883   9.121  11.397  0.1989  0.0833 -0.0473
 2379W        W 6123   4.607   4.870   7.808 -0.0269 -0.1174 -0.2757
 2380W        W 6124   3.746   3.655   2.587  0.2002 -0.2030 -0.1817
 2381W        W 6125   3.021   1.665  10.128  0.0108  0.0327 -0.0286
 2382W        W 6126   7.183   3.807   2.676 -0.0753 -0.3175 -0.2999
 2383W        W 6127   8.109   8.256  10.911 -0.0155  0.0004  0.0040
 2384W        W 6128   8.319   3.160  11.766  0.3172  0.0385 -0.1172
 2385W        W 6129   1.313   4.342  10.702 -0.0602  0.0936 -0.2293
 2386W        W 6130   3.846   0.351   2.846 -0.0157  0.2556 -0.0589
 2387W        W 6131   2.649   8.109   4.116 -0.1075 -0.4124 -0.1433
 2388W        W 6132   4.045   0.406   3.970  0.0545  0.0560  0.2420
 2389W        W 6133   0.753   9.163   9.902 -0.2167 -0.0799 -0.3453
 2390W        W 6134   7.292   5.662   3.657  0.2178 -0.0738  0.0713
 2391W        W 6135   8.143   0.376  11.426 -0.1308  0.2375 -0.0692
 2392W        W 6136   6.511   1.917   9.498  0.1245  0.1479  0.0234
 2393W        W 6137   4.086   3.354  11.840 -0.0626 -0.1837 -0.1021
 2394W        W 6138   3.234   9.411   0.978  0.1390  0.4025 -0.1513
 2395W        W 6139   3.732   1.623   2.172  0.3136 -0.2929 -0.2040
 2396W        W 6140   4.289   0.199  11.491 -0.1293 -0.1184  0.1931
 2397W        W 6141   8.280   2.404  10.256  0.1348 -0.0144  0.0438
 2398W        W 6142   5.187   0.093  11.205  0.1188 -0.0131  0.0990
 2399W        W 6143   2.056   7.685  10.996 -0.0780  0.1114  0.2359
 2400W        W 6144   7.849   3.271   8.913  0.0758 -0.0315 -0.2206
 2401W        W 6145   0.299   3.233   0.431  0.2453 -0.1951 -0.1133
 2402W        W 6146   1.271   3.985   1.218 -0.0462 -0.1901  0.1047
 2403W        W 6147   2.238   9.511  10.288  0.1369 -0.3957 -0.0114
 2404W        W 6148   7.703   2.203   8.330 -0.0982  0.2956 -0.1311
 2405W        W 6149   1.171   5.297   9.424  0.1876 -0.0497 -0.1290
 2406W        W 6150   2.467   5.840   3.081 -0.0158 -0.0446  0.1900
 2407W        W 6151   1.493   5.689   8.974 -0.0231 -0.0196  0.0735
 2408W        W 6152   4.173   1.374   2.344 -0.0446  0.2488  0.0792
 2409W        W 6153   8.775   4.135   1.275 -0.3266  0.1649 -0.0980
 2410W        W 6154   9.867   7.040   1.983 -0.0361  0.2076  0.1000
 2411W        W 6155   2.218   7.298   3.111 -0.0232  0.3707  0.0409
 2412W        W 6156   2.368   4.979   3.576 -0.1302  0.0316  0.1969
 2413W        W 6157   4.455   8.768  10.516 -0.3236  0.1321  0.0899
 2414W        W 6158   5.673   3.610   0.623  0.0856 -0.0074 -0.0293
 2415W        W 6159   2.239   5.989   9.603 -0.1703  0.2103  0.1689
 2416W        W 6160   6.921   8.367   9.822 -0.0096 -0.1005  0.1824
 2417W        W 6161   4.916   5.388  12.049  0.0262 -0.0886 -0.0031
 2418W        W 6162   9.160   8.165  10.988  0.1238  0.0760  0.0342
 2419W        W 6163   1.091   6.784  12.745 -0.2907  0.2492  0.0939
 2420W        W 6164   6.055   7.589   4.055  0.1601  0.2524 -0.1479
 2421W        W 6165   5.898   2.995   0.512 -0.2960  0.1021  0.0917
 2422W        W 6166   5.880   9.484   4.511  0.1158 -0.0742  0.3188
 2423W        W 6167   3.430   6.460  11.342 -0.1083 -0.4654  0.2402
 2424W        W 6168   7.973   9.476   0.690  0.2830  0.0994  0.0322
 2425W        W 6169   3.260   7.403   3.662  0.2178 -0.0353 -0.0927
 2426W        W 6170   2.733   1.688  10.551 -0.3320 -0.4441 -0.4455
 2427W        W 6171   1.836   8.530  10.853 -0.2793 -0.1805 -0.2856
 2428W        W 6172   5.520   1.025   1.954 -0.1809  0.5087 -0.0523
 2429W        W 6173   5.759   4.532   4.218 -0.2289 -0.0716 -0.0951
 2430W        W 6174   6.974   2.734   9.966 -0.2647 -0.0065  0.0368
 2431W        W 6175   3.945   1.075  11.463 -0.0768  0.1045  0.2208
 2432W        W 6176   1.236   0.195  12.285  0.0502  0.0356 -0.0101
 2433W        W 6177   9.447   7.807   0.562 -0.0657 -0.0315 -0.1910
 2434W        W 6178   2.434   2.812   1.747 -0.2373 -0.1505 -0.1240
 2435W        W 6179   9.360   7.547   9.113  0.0188 -0.0063 -0.0464
 2436W        W 6180   1.170   2.544  11.222 -0.0278 -0.1928 -0.0214
 2437W        W 6181   3.878   5.499   9.011 -0.0771 -0.2806  0.2152
 2438W        W 6182   1.871   5.110   2.062 -0.4659 -0.0143  0.0483
 2439W        W 6183   3.431   6.846   0.537 -0.0954  0.1416  0.4164
 2440W        W 6184   6.930   0.266   0.176 -0.0044 -0.0200 -0.0561
 2441W        W 6185   4.942   4.374   2.401  0.3130 -0.0008  0.0855
 2442W        W 6186   1.095   3.303  10.871 -0.0281  0.1684 -0.5379
 2443W        W 6187   2.067   3.331   3.942 -0.0765 -0.0442  0.2160
 2444W        W 6188   5.020   1.302   2.572 -0.1224  0.0327 -0.1665
 2445W        W 6189   7.310   0.866   0.321  0.0348  0.4092 -0.2572
 2446W        W 6190   5.970   4.107  10.576 -0.0745  0.0290 -0.1293
 2447W        W 6191   2.226   4.017  10.330 -0.0660  0.2797 -0.1073
 2448W        W 6192   4.011   7.691   3.672 -0.1112  0.0079 -0.2115
 2449W        W 6193   8.480   3.796  10.198 -0.1673  0.1791 -0.1914
 2450W        W 6194   2.399   0.396   1.386  0.1274 -0.0721  0.2455
 2451W        W 6195   5.268   2.746   8.878 -0.2126 -0.1282  0.0874
 2452W        W 6196   0.795   6.678   9.678  0.1414 -0.1235 -0.0240
 2453W        W 6197   6.297   9.567  12.202  0.0849  0.4518  0.2233
 2454W        W 6198   0.502   6.826   3.008 -0.2342  0.0065 -0.3388
 2455W        W 6199   9.401   5.219   1.839  0.1335 -0.4315  0.2591
 2456W        W 6200   9.334   0.695  12.333 -0.1270  0.2041  0.3583
 2457W        W 6201   1.043   5.543   5.300  0.2407  0.0381  0.2340
 2458W        W 6202   3.965   9.457  12.473  0.0689  0.1691  0.3030
 2459W        W 6203   1.740   4.363   3.909 -0.0757 -0.2155 -0.1568
 2460W        W 6204   7.177   5.993   1.351 -0.1317 -0.0152  0.2082
 2461W        W 6205   4.847   4.246   3.207 -0.2177 -0.3748 -0.0356
 2462W        W 6206   9.540   7.005  11.664  0.1712  0.0613  0.1211
 2463W        W 6207   8.354   4.483   7.928 -0.0839 -0.0471  0.0078
 2464W        W 6208   2.159   4.608  11.375  0.0409  0.0314 -0.0089
 2465W        W 6209   8.039   4.201   8.255 -0.1452  0.0015 -0.1048
 2466W        W 6210   0.495   8.718  12.726  0.1075  0.1661  0.1836
 2467W        W 6211   4.018   9.338  11.182  0.1009 -0.1867 -0.0668
 2468W        W 6212   2.312   7.158   0.768  0.0207 -0.3587 -0.0604
 2469W        W 6213   0.603   6.194   9.719 -0.0787  0.0951  0.2214
 2470W        W 6214   9.099   2.498   0.034  0.0183  0.2972 -0.3530
 2471W        W 6215   3.177   2.660  12.140 -0.1569  0.1208 -0.1566
 2472W        W 6216   0.387   1.877  10.363  0.0521 -0.2501  0.1025
 2473W        W 6217   1.135   3.052   1.554 -0.0546  0.2330 -0.1132
 2474W        W 6218   7.916   9.669   4.493  0.1403  0.1120 -0.0374
 2475W        W 6219   6.241   5.428   9.241 -0.0297 -0.0406 -0.0268
 2476W        W 6220   5.343   0.509  11.940 -0.1613 -0.0534 -0.1076
 2477W        W 6221   0.326   5.413  11.247  0.1425  0.0470  0.0647
 2478W        W 6222   5.155   7.271   0.813 -0.1343  0.0568  0.2843
 2479W        W 6223   4.586   3.201  11.655  0.0670  0.0605  0.1298
 2480W        W 6224   4.442   4.232  11.577 -0.2942  0.1248 -0.0348
 2481W        W 6225   8.101   9.154  10.481  0.0020 -0.0097  0.0566
 2482W        W 6226   5.860   4.180   2.552  0.0467 -0.0022  0.0411
 2483W        W 6227   4.817   7.209   9.749  0.2156  0.1630 -0.0392
 2484W        W 6228   6.774   0.847   0.253 -0.0357 -0.0643 -0.0739
 2485W        W 6229   1.648   5.020   0.569 -0.0704 -0.0813 -0.4431
 2486W        W 6230   8.213   6.622   2.383 -0.0355  0.0478 -0.0687
 2487W        W 6231   4.094   8.755   2.539  0.0073 -0.1716  0.0193
 2488W        W 6232   2.268   5.994   0.762 -0.1274 -0.1069 -0.0950
 2489W        W 6233   4.825   6.402  10.153 -0.0818 -0.0981 -0.0640
 2490W        W 6234   4.392   6.089  10.116  0.0306 -0.1069 -0.0306
 2491W        W 6235   3.693   4.109   4.139  0.1435 -0.2054 -0.3189
 2492W        W 6236   6.602   2.103  12.261  0.0539 -0.2578 -0.1473
 2493W        W 6237   9.269   9.512   8.535  0.2716  0.0366 -0.1950
 2494W        W 6238   5.309   2.115   2.854  0.1786 -0.1110 -0.2812
 2495W        W 6239   1.269   0.834   2.521  0.1054  0.0308  0.0443
 2496W        W 6240   4.880   0.463   3.623 -0.1126  0.0450  0.2453
 2497W        W 6241   9.059   6.495   0.563  0.3822 -0.3702 -0.0919
 2498W        W 6242   6.695   6.894   4.144  0.2400 -0.1946  0.2289
 2499W        W 6243   7.598   7.666   8.222  0.1631  0.1886 -0.1306
 2500W        W 6244   4.156   5.042   1.491 -0.1663 -0.1965  0.1121
 2501W        W 6245   1.298   0.939  11.813  0.3740 -0.0754  0.4277
 2502W        W 6246   6.802   5.302   9.119 -0.1219 -0.1318 -0.0907
 2503W        W 6247   0.036   2.940   9.861 -0.0833 -0.2054  0.2050
 2504W        W 6248   2.938   5.220  10.498  0.2097  0.0531  0.3556
 2505W        W 6249   6.017   5.276   4.639 -0.1472  0.0761 -0.1369
 2506W        W 6250   1.816   6.049   0.015 -0.0747 -0.1277 -0.3753
 2507W        W 6251   7.259   9.532  12.589  0.0094 -0.0777  0.0845
 2508W        W 6252   7.809   4.879   1.971  0.1325 -0.0972  0.3782
 2509W        W 6253   9.108   3.219   1.158 -0.0188  0.4443 -0.0148
 2510W        W 6254   3.874   6.848  10.439  0.0123 -0.2551  0.1355
 2511W        W 6255   2.375   6.290   9.211  0.0073 -0.2923 -0.0211
 2512W        W 6256   2.911   0.158   2.094 -0.1237  0.0673  0.1145
 2513W        W 6257   0.648   2.832   1.186 -0.1123 -0.3043  0.1258
 2514W        W 6258   1.398   9.384  11.931  0.0044  0.0881  0.0500
 2515W        W 6259   9.423   3.236  10.573 -0.2803  0.3538  0.0021
 2516W        W 6260   2.584   6.384   4.381 -0.1692  0.1700 -0.0736
 2517W        W 6261   6.826   0.282  12.499 -0.0304  0.0732 -0.2272
 2518W        W 6262   3.577   7.336  11.721  0.0166 -0.1813  0.1732
 2519W        W 6263   6.952   3.949   1.415  0.2535 -0.1024  0.0307
 2520W        W 6264   3.720   3.541   0.252  0.4309  0.1463 -0.1987
 2521W        W 6265   4.940   8.304   0.575  0.0417  0.0247 -0.1289
 2522W        W 6266   8.300   6.904   4.684  0.0777  0.2329 -0.3460
 2523W        W 6267   6.857   0.992  11.377 -0.0993 -0.0365  0.3160
 2524W        W 6268   2.471   1.828   2.121  0.0818  0.2180 -0.3286
 2525W        W 6269   8.173   8.891   7.821 -0.1618 -0.0400  0.2112
 2526W        W 6270   5.106   3.421   2.703 -0.2332  0.0026 -0.1461
 2527W        W 6271   8.515   4.024  11.249  0.2576  0.2172 -0.1893
 2528W        W 6272   3.847   5.032   2.300 -0.2454  0.1764  0.2715
 2529W        W 6273   4.485   0.689   0.560 -0.2043 -0.2435  0.2031
 2530W        W 6274   0.098   3.711   3.759 -0.0356 -0.1595  0.2495
 2531W        W 6275   6.516   4.403   2.196  0.0941  0.0261 -0.3192
 2532W        W 6276   5.821   1.538   8.905  0.2687  0.0722 -0.1208
 2533W        W 6277   8.345   2.319   9.123  0.0040  0.1391  0.1803
 2534W        W 6278   9.077   8.017   2.932  0.2914  0.2207  0.1817
 2535W        W 6279   3.754   7.722   0.501  0.1058  0.2196 -0.1600
 2536W        W 6280   0.611   4.559   0.808  0.1365  0.0487  0.0748
 2537W        W 6281   1.561   1.340  12.805  0.0949  0.1233  0.0151
 2538W        W 6282   1.798   2.931  10.438 -0.0551 -0.2089  0.0011
 2539W        W 6283   2.617   3.449  11.064  0.0090  0.0637  0.2769
 2540W        W 6284   3.508   5.274   0.716  0.1207 -0.0695  0.1141
 2541W        W 6285   2.917   3.894  10.992 -0.2921 -0.1081 -0.0864
 2542W        W 6286   9.100   9.043   2.085 -0.1351 -0.1394  0.2414
 2543W        W 6287   1.634   2.364  11.058 -0.3745 -0.0007 -0.0072
 2544W        W 6288   9.518   1.678  11.884 -0.2024 -0.0543 -0.0109
 2545W        W 6289   4.395   4.167   3.954 -0.3327 -0.0127  0.0966
 2546W        W 6290   6.688   2.503  10.810 -0.0085 -0.2851 -0.0453
 2547W        W 6291   8.411   0.220   8.450  0.0928 -0.0365 -0.3488
 2548W        W 6292   9.115   2.287   8.339 -0.2187 -0.2491  0.0791
 2549W        W 6293   4.089   5.897   8.807  0.0648 -0.5629  0.1712
 2550W        W 6294   4.711   5.030  11.799  0.0499 -0.2445  0.1217
 2551W        W 6295   1.764   1.670  10.556  0.1615  0.2263 -0.1615
 2552W        W 6296   3.523   3.103   3.137 -0.0167  0.1165  0.3648
 2553W        W 6297   5.961   4.944   0.087  0.0819 -0.0912  0.1114
 2554W        W 6298   7.082   4.565   2.108 -0.0194 -0.1626 -0.0186
 2555W        W 6299   1.885   3.480   2.903  0.1833  0.0090 -0.2414
 2556W        W 6300   6.911   8.017   3.474 -0.1662 -0.1603  0.0761
 2557W        W 6301   3.132   1.805   0.952 -0.2071 -0.1227 -0.1547
 2558W        W 6302   0.086   4.313   3.096  0.2381 -0.0123  0.1198
 2559W        W 6303   6.013   6.620   9.798 -0.0273 -0.0025 -0.3624
 2560W        W 6304   3.858   4.500   2.922 -0.1842 -0.1754 -0.0156
 2561W        W 6305   8.129   7.649   8.120  0.1964  0.1114  0.1646
 2562W        W 6306   1.307   0.451   1.787  0.0296 -0.0457  0.0515
 2563W        W 6307   6.687   6.006   2.899 -0.1796 -0.0054 -0.1363
 2564W        W 6308   2.413   2.350   1.084 -0.1875 -0.3349  0.1440
 2565W        W 6309   1.783   9.829  10.049 -0.2779 -0.1464  0.0425
 2566W        W 6310   9.132   2.911  12.637 -0.1615 -0.1373 -0.0890
 2567W        W 6311   2.227   5.807   1.258 -0.0489  0.0518  0.1852
 2568W        W 6312   5.409   1.681   3.807  0.2709  0.0531  0.0547
 2569W        W 6313   6.202   9.344  11.673  0.0505  0.1920 -0.1260
 2570W        W 6314   3.875   1.262  10.081 -0.2845  0.4150 -0.1868
 2571W        W 6315   1.696   9.866   2.771  0.1443  0.1814 -0.2092
 2572W        W 6316   9.016   1.657   0.541  0.0670 -0.1476 -0.2239
 2573W        W 6317   0.350   6.849   1.828 -0.0438 -0.1183 -0.0461
 2574W        W 6318   3.656   7.538  11.112  0.1203  0.2224 -0.1680
 2575W        W 6319   2.492   6.522  11.824 -0.0112 -0.0800  0.0115
 2576W        W 6320   9.153   9.115   1.150 -0.0689 -0.1022 -0.1917
 2577W        W 6321   8.459   0.131   9.357  0.2802 -0.0057  0.0026
 2578W        W 6322   7.565   3.018  12.742 -0.0045 -0.0975  0.1460
 2579W        W 6323   8.751   6.571   3.029  0.0959  0.1298  0.0460
 2580W        W 6324   6.455   4.191   9.765 -0.3069 -0.2529 -0.0376
 2581W        W 6325   8.964   0.954   2.838  0.0569  0.0517 -0.0274
 2582W        W 6326   9.686   4.791   1.999 -0.1577 -0.1292 -0.0058
 2583W        W 6327   4.720   7.239   1.178 -0.1226  0.2810  0.0092
 2584W        W 6328   3.529   9.449  11.284  0.0476 -0.1234 -0.0176
 2585W        W 6329   3.951   6.535   2.685 -0.2075 -0.0035 -0.2194
 2586W        W 6330   8.748   8.503  10.306  0.1118 -0.2929  0.2922
 2587W        W 6331   5.943   0.553   1.324 -0.2802 -0.2982  0.0310
 2588W        W 6332   2.076   1.026   2.880  0.1550 -0.3437 -0.3178
 2589W        W 6333   7.482   9.750   9.743 -0.2406 -0.3446 -0.1288
 2590W        W 6334   7.617   8.981  10.354  0.2640 -0.4033  0.0041
 2591W        W 6335   0.136   8.769   3.648 -0.2736 -0.1490 -0.1847
 2592W        W 6336   0.688   9.413   0.982 -0.2646 -0.1477 -0.0960
 2593W        W 6337   7.826   7.713   1.927 -0.1071  0.1503  0.3336
 2594W        W 6338   7.058   0.011   1.498  0.0452  0.5299  0.1966
 2595W        W 6339   3.635   3.133   2.591 -0.0858 -0.0537 -0.0659
 2596W        W 6340   4.012   8.750  11.758  0.2369 -0.0018  0.0676
 2597W        W 6341   7.389   4.288   0.325 -0.1180 -0.0873  0.1890
 2598W        W 6342   4.788   4.973  11.249 -0.0390  0.2092 -0.3077
 2599W        W 6343   4.742   5.890   0.875  0.1018  0.0302  0.1551
 2600W        W 6344   1.851   3.200  11.029  0.3109  0.1209  0.2698
 2601W        W 6345   5.085   6.883   1.159  0.1012  0.4826  0.0258
 2602W        W 6346   8.105   1.441  12.200  0.1025 -0.1866 -0.0804
 2603W        W 6347   8.033   5.986  10.781  0.0923  0.0971  0.2110
 2604W        W 6348   5.573   1.314  10.338 -0.2350  0.0637  0.0654
 2605W        W 6349   3.645   1.053   2.399 -0.2207 -0.1114 -0.0529
 2606W        W 6350   3.442   7.427   1.152  0.3532 -0.1430  0.0224
 2607W        W 6351   1.877   7.296   3.900 -0.0267 -0.1644  0.1376
 2608W        W 6352   1.965   4.301  12.712  0.1533 -0.0223  0.0407
 2609W        W 6353   2.563   8.880   1.882 -0.3934  0.1688  0.2234
 2610W        W 6354   4.472   6.816   3.349 -0.0319 -0.0184 -0.1071
 2611W        W 6355   8.270   0.552  10.927  0.1493  0.4552 -0.1005
 2612W        W 6356   2.034   8.760   2.709  0.1235  0.2177  0.4717
 2613W        W 6357   4.078   3.950   9.997 -0.1446  0.0770 -0.0390
 2614W        W 6358   2.081   9.137   1.845 -0.1468 -0.0567 -0.0227
 2615W        W 6359   6.736   2.621   0.914  0.1815 -0.0390  0.0267
 2616W        W 6360   3.514   4.596   5.574  0.1732 -0.0045 -0.3140
 2617W        W 6361   2.510   1.286   3.012  0.3458  0.1456 -0.0770
 2618W        W 6362   9.040   4.956   9.110 -0.4382 -0.0378 -0.0502
 2619W        W 6363   7.445   5.862   0.950 -0.1421  0.2009 -0.0720
 2620W        W 6364   8.340   3.407  12.669 -0.2603 -0.0477 -0.0146
 2621W        W 6365   5.389   5.365   3.281  0.0352  0.1068 -0.3229
 2622W        W 6366   6.446   6.530   3.818  0.0955 -0.1293  0.1827
 2623W        W 6367   1.415   4.719  11.114  0.2833  0.1378 -0.3772
 2624W        W 6368   7.277   7.689  12.737 -0.0090  0.0982 -0.0118
 2625W        W 6369   7.032   0.514   1.591  0.0024  0.3358 -0.2275
 2626W        W 6370   6.095   2.352  12.176 -0.0793 -0.1593 -0.3493
 2627W        W 6371   9.389   1.018   9.682  0.1050  0.3233  0.0673
 2628W        W 6372   6.304   2.097   4.053 -0.0446 -0.1136 -0.0354
 2629W        W 6373   6.974   2.089   8.705  0.0218 -0.2542 -0.2741
 2630W        W 6374   5.611   0.594  10.980  0.0684 -0.0067 -0.0801
 2631W        W 6375   7.735   7.151  10.220  0.0641  0.2514  0.0313
 2632W        W 6376   8.903   2.541   1.806  0.1999 -0.1658  0.2532
 2633W        W 6377   2.963   9.568   1.861  0.0311  0.2813  0.3241
 2634W        W 6378   1.317   3.920   8.425 -0.0498 -0.1653 -0.0011
 2635W        W 6379   5.296   5.773   1.855 -0.0167 -0.1437  0.1662
 2636W        W 6380   7.462   2.375   1.231 -0.2777  0.0061  0.2478
 2637W        W 6381   1.089   8.843   3.224 -0.1178  0.0392  0.2613
 2638W        W 6382   4.408   0.391  10.133  0.1648 -0.0816  0.0677
 2639W        W 6383   6.244   3.801   9.644  0.1092 -0.1730 -0.0063
 2640W        W 6384   1.964   3.267   1.172 -0.1623  0.0567 -0.2137
 2641W        W 6385   6.970   5.109   3.880  0.0585 -0.0153  0.3802
 2642W        W 6386   5.015   4.520  11.005 -0.1395  0.2068 -0.0313
 2643W        W 6387   5.941   8.984   9.669 -0.0197 -0.1981  0.0930
 2644W        W 6388   3.110   4.550   9.765  0.4110 -0.0744  0.2792
 2645W        W 6389   1.658   9.901   0.421  0.1203  0.0117  0.1416
 2646W        W 6390   3.286   1.746   9.300 -0.0441 -0.3834 -0.0523
 2647W        W 6391   3.411   5.242   2.195  0.1263 -0.1947  0.1031
 2648W        W 6392   7.047   5.549   9.554 -0.0267 -0.0636  0.2854
 2649W        W 6393   6.188   5.688   1.191  0.0804  0.2431  0.0680
 2650W        W 6394   5.776   9.597   0.645 -0.0234 -0.1371 -0.1040
 2651W        W 6395   8.403   2.740   1.514 -0.1570 -0.0288  0.2039
 2652W        W 6396   4.457   1.605  11.179  0.1041 -0.0290  0.0542
 2653W        W 6397   7.835   1.040   4.756  0.3943  0.2845 -0.3214
 2654W        W 6398   8.996   0.088  11.267  0.1497 -0.1618  0.0166
 2655W        W 6399   0.571   7.327  11.306 -0.3643  0.2225  0.0024
 2656W        W 6400   8.287   0.538   9.560  0.1372 -0.3082  0.1560
 2657W        W 6401   0.743   3.821  10.070  0.1434  0.1095 -0.0394
 2658W        W 6402   4.847   6.291  11.263  0.2018 -0.1652  0.2989
 2659W        W 6403   7.201   8.995  10.607  0.0903  0.2481 -0.1817
 2660W        W 6404   9.169   8.437   9.358  0.2636 -0.0527  0.1387
 2661W        W 6405   8.482   8.748   2.910  0.0468 -0.0121 -0.0204
 2662W        W 6406   7.303   4.214  10.940 -0.1366  0.1599 -0.3549
 2663W        W 6407   6.665   2.651   0.165 -0.0769 -0.3108  0.0978
 2664W        W 6408   8.341   6.169   8.528 -0.0947  0.2010 -0.1273
 2665W        W 6409   2.018   0.327  11.906 -0.3819  0.0382 -0.1478
 2666W        W 6410   7.458   0.240   1.385  0.4163 -0.2302 -0.1446
 2667W        W 6411   2.177   9.490  12.584  0.1249  0.4044  0.1203
 2668W        W 6412   1.514   0.219  10.735 -0.0286 -0.3439  0.0688
 2669W        W 6413   5.389   4.836   4.187 -0.0860 -0.1561 -0.0513
 2670W        W 6414   6.085   3.769   2.863  0.1565 -0.2248  0.1068
 2671W        W 6415   2.990   6.060  10.599  0.2953  0.0640  0.0912
 2672W        W 6416   9.733   5.106  11.637  0.0068  0.0800 -0.2122
 2673W        W 6417   9.032   5.022   0.095  0.1511 -0.1232  0.2086
 2674W        W 6418   9.323   0.013  11.818  0.0750 -0.0325  0.0452
 2675W        W 6419   7.868   5.867  12.677  0.0712 -0.0898 -0.0638
 2676W        W 6420   0.104   5.830   4.220  0.1702  0.0159  0.1204
 2677W        W 6421   0.582   6.466   3.410 -0.2518 -0.0283 -0.0762
 2678W        W 6422   3.582   6.024   3.584 -0.0447 -0.1211 -0.1585
 2679W        W 6423   5.134   8.527   2.158 -0.2492 -0.2230  0.2352
 2680W        W 6424   2.318   1.595   0.546  0.3081 -0.1375 -0.0382
 2681W        W 6425   5.415   0.031  12.025  0.0003 -0.2873  0.0931
 2682W        W 6426   0.747   9.418   1.509  0.2452  0.1587 -0.0324
 2683W        W 6427   0.978   3.616   1.019  0.2245  0.2656  0.1950
 2684W        W 6428   3.132   4.761   0.406 -0.0008  0.1204 -0.0780
 2685W        W 6429   4.617   6.774   0.989  0.1651  0.1917  0.1809
 2686W        W 6430   3.432   0.862   1.493  0.0461  0.2396 -0.3023
 2687W        W 6431   9.097   9.429   2.944 -0.1371  0.0810  0.0057
 2688W        W 6432   7.274   5.226   8.888 -0.1725 -0.2636  0.2652
 2689W        W 6433   0.167   1.124  11.362  0.4059  0.0993 -0.2193
 2690W        W 6434   3.922   1.029   0.847  0.3663  0.0461 -0.1989
 2691W        W 6435   0.332   0.641   0.406 -0.2051 -0.5210 -0.1230
 2692W        W 6436   0.484   9.749   8.814  0.0772  0.0500  0.0113
 2693W        W 6437   4.156   6.878  10.870  0.2371 -0.0254 -0.0491
 2694W        W 6438   8.870   6.288  10.600  0.0398 -0.3521  0.1907
 2695W        W 6439   1.902   7.271  12.854 -0.0740  0.2981  0.0345
 2696W        W 6440   8.199   1.403   9.222 -0.1440  0.0479  0.0758
 2697W        W 6441   5.679   9.533  11.471 -0.0197 -0.2296 -0.3480
 2698W        W 6442   7.893   2.924  11.965 -0.1492 -0.2395 -0.1911
 2699W        W 6443   3.222   4.339   0.792 -0.0745  0.1123 -0.1514
 2700W        W 6444   1.671   8.044   9.585  0.2711  0.2352 -0.0591
 2701W        W 6445   2.983   8.938  12.039 -0.0278  0.2721 -0.0763
 2702W        W 6446   4.277   9.769  11.098 -0.0166 -0.2880 -0.0991
 2703W        W 6447   9.052   4.636  11.599  0.0094 -0.0091  0.0373
 2704W        W 6448   8.050   9.473  11.756 -0.1240  0.2241 -0.0952
 2705W        W 6449   9.092   4.641   0.460 -0.0688 -0.2187 -0.1220
 2706W        W 6450   7.148   7.151   1.071  0.0027  0.0960 -0.1080
 2707W        W 6451   1.436   5.246   0.167  0.1135  0.0439  0.0500
 2708W        W 6452   0.031   8.470  10.995 -0.0052 -0.0132 -0.1975
 2709W        W 6453   4.225   0.668   2.539  0.1640 -0.0274 -0.1457
 2710W        W 6454   7.309   0.947  10.319 -0.0585  0.0136  0.2789
 2711W        W 6455   4.623   0.790   1.468  0.2716  0.3268 -0.4704
 2712W        W 6456   4.683   3.626   0.687 -0.0602  0.3077 -0.1791
 2713W        W 6457   7.074   6.258   3.058 -0.2996 -0.0142  0.0473
 2714W        W 6458   2.019   2.634  11.405 -0.2799  0.0444  0.1739
 2715W        W 6459   7.868   2.146   0.988  0.0753 -0.2880 -0.2944
 2716W        W 6460   6.252   2.985   2.623  0.1354  0.2213  0.2800
 2717W        W 6461   0.561   5.496   9.930 -0.2233  0.1714  0.2098
 2718W        W 6462   3.054   7.300   2.004  0.0010 -0.1043 -0.0469
 2719W        W 6463   8.340   5.328  12.203  0.1173  0.1386  0.3238
 2720W        W 6464   8.885   9.134  11.319  0.1635  0.2618 -0.0147
 2721W        W 6465   2.325   8.783   2.284  0.0922  0.0112 -0.3570
 2722W        W 6466   5.809   5.419   1.514  0.2639  0.0108 -0.0454
 2723W        W 6467   8.017   6.788   1.073  0.0313  0.1360 -0.2574
 2724W        W 6468   7.767   7.798   0.990  0.0075 -0.0139 -0.0610
 2725W        W 6469   0.329   7.689   9.668 -0.2366 -0.0095  0.0279
 2726W        W 6470   0.276   3.141   1.342  0.1566 -0.3075  0.0275
 2727W        W 6471   2.522   2.001  11.903 -0.1225 -0.1302  0.0875
 2728W        W 6472   3.526   2.621   8.668  0.2990  0.0404  0.3324
 2729W        W 6473   9.210   1.458  12.831  0.2216  0.0494 -0.0679
 2730W        W 6474   6.802   1.011   3.948  0.0693  0.0173 -0.1370
 2731W        W 6475   8.507   3.381  10.500  0.3198 -0.2002 -0.1551
 2732W        W 6476   2.848   8.904   0.678  0.1188  0.0078 -0.0926
 2733W        W 6477   8.604   7.892   4.244 -0.0258 -0.0843  0.2306
 2734W        W 6478   5.290   7.662  11.877 -0.0295  0.0787 -0.0248
 2735W        W 6479   0.053   3.755  12.112  0.1020  0.6066  0.2378
 2736W        W 6480   4.361   6.952   1.938  0.1008  0.0538  0.3250
 2737W        W 6481   1.808   6.150   0.583 -0.1633 -0.2209 -0.0911
 2738W        W 6482   5.923   6.625   2.989  0.1653  0.1657  0.2568
 2739W        W 6483   7.198   7.351   8.423 -0.3102 -0.0907 -0.0185
 2740W        W 6484   1.651   4.564   9.699 -0.2403 -0.2501 -0.1522
 2741W        W 6485   6.651   4.644   3.105 -0.4675 -0.0543  0.2494
 2742W        W 6486   6.414   1.611  12.273 -0.1243  0.0061  0.3410
 2743W        W 6487   9.763   7.700   9.387  0.0046 -0.1109  0.1325
 2744W        W 6488   8.469   1.901   3.551 -0.0785  0.0286  0.4577
 2745W        W 6489   0.926   2.966   4.297 -0.1463 -0.2251  0.2317
 2746W        W 6490   5.892   7.739  10.397 -0.2923  0.0117 -0.0646
 2747W        W 6491   6.357   9.548   4.186  0.2722  0.1354  0.2878
 2748W        W 6492   9.111   4.664  12.151  0.3334 -0.1225  0.3049
 2749W        W 6493   3.095   8.793   2.734  0.2316 -0.1397  0.0205
 2750W        W 6494   4.694   3.819   1.590  0.1171  0.2202 -0.0975
 2751W        W 6495   9.257   6.200   0.065  0.1653 -0.0166  0.1247
 2752W        W 6496   7.996   9.664   0.170 -0.3974 -0.2449 -0.1419
 2753W        W 6497   8.145   3.604   1.632 -0.0079 -0.2579 -0.1040
 2754W        W 6498   9.365   6.272   1.466  0.0027 -0.2481  0.1199
 2755W        W 6499   7.969   5.941   3.154 -0.2465  0.2481 -0.3112
 2756W        W 6500   9.150   1.519   2.644  0.3745  0.2019 -0.0737
 2757W        W 6501   0.289   6.449   9.991 -0.1371  0.0405  0.0323
 2758W        W 6502   9.894   9.189  11.787 -0.0111 -0.0135 -0.3377
 2759W        W 6503   7.648   4.848   0.973  0.1635  0.0399 -0.1794
 2760W        W 6504   3.546   3.585  10.746  0.0065 -0.1184  0.0096
 2761W        W 6505   5.885   0.013  12.204  0.2392  0.0630 -0.1421
 2762W        W 6506   3.049   3.731  11.743  0.1826  0.0743  0.2273
 2763W        W 6507   6.024   2.846  10.248 -0.0486 -0.2066  0.0908
 2764W        W 6508   8.570   5.814  11.770 -0.3948 -0.1309  0.1298
 2765W        W 6509   6.276   0.068   1.759 -0.0196  0.0356 -0.1439
 2766W        W 6510   9.669   6.506   8.364 -0.1584  0.1080 -0.1440
 2767W        W 6511   6.712   9.305   9.240 -0.0510 -0.0074  0.1891
 2768W        W 6512   3.431   0.084   0.382 -0.2544 -0.2261  0.1630
 2769W        W 6513   8.938   9.125   1.617  0.2120 -0.2768 -0.1206
 2770W        W 6514   6.295   4.474  10.161  0.0766  0.0889 -0.1110
 2771W        W 6515   9.398   3.893   2.943  0.1226  0.0629  0.0250
 2772W        W 6516   3.926   2.566   9.553  0.1024 -0.1955  0.1236
 2773W        W 6517   3.387   6.850  12.851  0.1308  0.0467 -0.2664
 2774W        W 6518   2.036   7.368   1.306  0.0324  0.4072 -0.0624
 2775W        W 6519   4.316   1.076   1.232  0.0126 -0.0807 -0.1278
 2776W        W 6520   8.725   6.313   9.687  0.2441 -0.1032  0.0507
 2777W        W 6521   1.107   0.799   0.962  0.3673 -0.2642  0.0659
 2778W        W 6522   1.968   3.487  11.912  0.2022 -0.4616 -0.0789
 2779W        W 6523   4.996   8.897  10.349  0.1377  0.0830 -0.3015
 2780W        W 6524   7.096   8.633   3.280 -0.1216 -0.1633  0.1024
 2781W        W 6525   6.580   3.397   3.933 -0.4003  0.1795 -0.1661
 2782W        W 6526   5.371   0.337   4.064 -0.1331  0.0733  0.1007
 2783W        W 6527   3.203   3.109  12.525 -0.3529 -0.0581 -0.2882
 2784W        W 6528   1.772   5.485   0.868 -0.0370  0.0970  0.0551
 2785W        W 6529   2.734   4.707  10.398 -0.1532 -0.1982  0.0630
 2786W        W 6530   5.969   4.397  12.136  0.0624  0.0706 -0.2286
 2787W        W 6531   5.041   3.935   1.160  0.2647 -0.2592 -0.2656
 2788W        W 6532   3.155   0.890   0.989 -0.1184  0.3749 -0.2254
 2789W        W 6533   2.893   0.930   2.966 -0.0651 -0.0770 -0.3160
 2790W        W 6534   9.604   6.616   2.194  0.1110  0.1741  0.0364
 2791W        W 6535   5.552   7.677   2.641 -0.1950  0.0289 -0.0516
 2792W        W 6536   3.434   3.747   9.355  0.0561  0.2635 -0.1544
 2793W        W 6537   9.635   3.206  12.629 -0.1602 -0.1658 -0.0962
 2794W        W 6538   9.317   9.662   1.346 -0.1174  0.0484 -0.0334
 2795W        W 6539   2.357   4.365  11.718  0.0153 -0.0671  0.1304
 2796W        W 6540   0.164   5.120   0.254  0.1651 -0.0362 -0.3015
 2797W        W 6541   6.006   9.486   3.267 -0.2049  0.1336  0.1269
 2798W        W 6542   8.218   7.652   1.244 -0.1520  0.0012  0.1134
 2799W        W 6543   8.226   5.052   9.007 -0.1408  0.0797  0.3069
 2800W        W 6544   7.833   2.518   0.563 -0.0310 -0.0321 -0.0257
 2801W        W 6545   2.235   1.083   0.562 -0.2450 -0.0296  0.2238
 2802W        W 6546   0.893   2.019  10.899  0.1323 -0.2910 -0.0438
 2803W        W 6547   0.178   7.216  12.797 -0.0987 -0.1232  0.1900
 2804W        W 6548   8.037   6.464  10.677 -0.1003  0.1476  0.0732
 2805W        W 6549   7.481   9.646   9.281 -0.1129 -0.1966  0.2034
 2806W        W 6550   7.038   5.864  10.888 -0.0951  0.2410  0.2190
 2807W        W 6551   5.508   4.241  12.217  0.1866 -0.0281 -0.2748
 2808W        W 6552   0.173   2.362  12.126  0.2325 -0.0009 -0.0864
 2809W        W 6553   6.259   0.526   2.477  0.4026 -0.1803 -0.0645
 2810W        W 6554   2.012   4.571   1.200 -0.2121 -0.1010  0.0133
 2811W        W 6555   4.383   5.475   9.083  0.0791  0.0634  0.0224
 2812W        W 6556   7.896   0.094   0.503  0.3502 -0.0075 -0.3114
 2813W        W 6557   7.105   0.697   2.052 -0.1178  0.1462 -0.2360
 2814W        W 6558   9.034   2.416   3.108 -0.0569  0.1829  0.2137
 2815W        W 6559   3.751   8.697   0.913  0.4263  0.4086  0.1404
 2816W        W 6560   2.882   3.145   1.509 -0.0719  0.1209  0.0581
 2817W        W 6561   7.001   8.437   2.856 -0.2859  0.1766 -0.0649
 2818W        W 6562   7.093   4.737   3.486  0.2105  0.3863  0.4377
 2819W        W 6563   1.294   3.612   4.492 -0.1036  0.2674  0.2625
 2820W        W 6564   6.136   6.386  11.621  0.0301  0.1897  0.1965
 2821W        W 6565   6.796   0.606   8.503 -0.0619 -0.2524  0.0648
 2822W        W 6566   3.563   6.501   3.440 -0.1270 -0.1518  0.1206
 2823W        W 6567   4.793   0.284  10.653  0.3193 -0.0140  0.3616
 2824W        W 6568   5.710   2.893  10.637 -0.1843  0.0660 -0.1322
 2825W        W 6569   1.069   8.911  10.379  0.0235 -0.3390 -0.1747
 2826W        W 6570   6.729   9.498  12.450 -0.1735  0.0029 -0.2106
 2827W        W 6571   8.221   4.735   0.963 -0.0248 -0.1877 -0.1570
 2828W        W 6572   3.965   0.169   1.080 -0.0963 -0.0814 -0.1196
 2829W        W 6573   8.419   6.190   2.347  0.0874  0.1195  0.1118
 2830W        W 6574   1.641   0.372  11.204  0.1495  0.1664  0.0606
 2831W        W 6575   7.696   9.919   2.793 -0.0261 -0.1594  0.0171
 2832W        W 6576   2.446   5.044   5.521 -0.1810 -0.1130  0.1676
 2833W        W 6577   7.446   5.570  12.079  0.0258  0.1383 -0.1879
 2834W        W 6578   6.909   9.170  12.801  0.2143 -0.4369  0.0468
 2835W        W 6579   5.942   2.680   1.661  0.2507 -0.0914 -0.0697
 2836W        W 6580   1.678   5.743   3.242 -0.0327  0.3285 -0.1764
 2837W        W 6581   5.303   7.258   3.326 -0.1713  0.2190 -0.3764
 2838W        W 6582   1.752   7.267   4.583  0.3073  0.0927  0.0353
 2839W        W 6583   4.506   2.105   9.185  0.0345 -0.1724 -0.0785
 2840W        W 6584   0.206   8.700   0.825 -0.3588 -0.1314  0.0295
 2841W        W 6585   5.260   0.542  11.328 -0.0659 -0.2539  0.0502
 2842W        W 6586   4.397   6.911   9.601  0.0279  0.2539  0.1525
 2843W        W 6587   7.814   4.536   0.550 -0.0151 -0.0967 -0.0099
 2844W        W 6588   6.635   1.713  11.807  0.3062  0.2606 -0.0657
 2845W        W 6589   7.486   3.086   1.708  0.0098  0.2013 -0.1210
 2846W        W 6590   4.538   7.707   9.668  0.2663  0.3675  0.0688
 2847W        W 6591   9.637   7.943   1.037 -0.0135 -0.1258  0.1294
 2848W        W 6592   5.619   5.113  10.827 -0.2483 -0.2623 -0.1148
 2849W        W 6593   9.621   5.714   2.722 -0.0076 -0.1962 -0.2897
 2850W        W 6594   5.251   0.631   1.001  0.1533  0.0641 -0.0299
 2851W        W 6595   5.869   6.014  10.870  0.0421 -0.0795 -0.1651
 2852W        W 6596   5.955   7.823   9.927  0.0263 -0.0762 -0.0064
 2853W        W 6597   2.957   3.088   0.578  0.0227 -0.2124  0.0158
 2854W        W 6598   3.957   0.854   8.986  0.0611 -0.1703 -0.1582
 2855W        W 6599   7.722   1.621   3.160  0.1926 -0.0814  0.1225
 2856W        W 6600   8.323   7.203  12.289 -0.1170 -0.1242  0.3204
 2857W        W 6601   1.419   9.221   2.079  0.0883 -0.1109  0.1728
 2858W        W 6602   2.568   5.548  10.453 -0.0009  0.3117  0.1123
 2859W        W 6603   4.787   2.690   2.340  0.0967  0.1618  0.1595
 2860W        W 6604   0.907   1.800  11.464  0.2617 -0.2391 -0.1807
 2861W        W 6605   1.546   9.450   9.870  0.1497 -0.1117 -0.0413
 2862W        W 6606   0.445   3.480   2.360 -0.0030 -0.1667 -0.1078
 2863W        W 6607   4.908   5.823  10.836  0.1752 -0.1055 -0.1522
 2864W        W 6608   6.938   3.706   0.901  0.0339  0.0873  0.0916
 2865W        W 6609   5.685   7.024  12.662 -0.1277 -0.1100 -0.2983
 2866W        W 6610   3.954   4.549  11.062  0.0406  0.0807  0.4117
 2867W        W 6611   8.780   6.804   3.469  0.1830 -0.3699 -0.2099
 2868W        W 6612   6.429   4.038  10.831  0.1595  0.0585 -0.0867
 2869W        W 6613   8.932   5.968   0.489 -0.2507 -0.2018 -0.0514
 2870W        W 6614   9.239   3.852  11.716 -0.1490  0.1928  0.2897
 2871W        W 6615   4.289   4.947  10.937  0.2794 -0.0817 -0.2330
 2872W        W 6616   9.674   5.473  11.300  0.1141 -0.2755  0.0034
 2873W        W 6617   8.499   6.838  10.363  0.1761 -0.1763  0.1166
 2874W        W 6618   5.969   0.312   2.119 -0.1197  0.1310 -0.0821
 2875W        W 6619   6.488   4.293  12.080 -0.0100 -0.1054  0.1913
 2876W        W 6620   4.764   3.525   9.738 -0.1479 -0.0261 -0.1631
 2877W        W 6621   2.261   2.855   3.899 -0.2109  0.1936  0.0493
 2878W        W 6622   6.560   7.763   9.965  0.3236  0.1526  0.0528
 2879W        W 6623   5.390   6.250   4.366  0.1017  0.3298 -0.0690
 2880W        W 6624   6.132   5.684   9.640 -0.1660 -0.0432 -0.3881
 2881W        W 6625   5.750   7.129   3.669 -0.1075  0.0542 -0.1771
 2882W        W 6626   4.108   3.834   2.172 -0.3303  0.2255  0.1291
 2883W        W 6627   7.991   4.398   2.729  0.1781 -0.5395  0.3370
 2884W        W 6628   1.656   3.642  12.269  0.0991  0.0864  0.4366
 2885W        W 6629   0.493   5.164   9.493  0.0895 -0.0543  0.1404
 2886W        W 6630   2.192   6.162  10.625  0.2715  0.0720 -0.1633
 2887W        W 6631   4.245   8.535   0.950  0.0085 -0.1120  0.2315
 2888W        W 6632   5.412   0.035   0.598  0.4020  0.0499  0.0172
 2889W        W 6633   1.119   3.596   0.030  0.0631  0.0275 -0.3683
 2890W        W 6634   7.014   8.455   8.724  0.0109 -0.0493 -0.1104
 2891W        W 6635   4.517   9.625   8.539  0.0326 -0.0279  0.1184
 2892W        W 6636   4.659   3.150  12.681 -0.2699  0.1170  0.1968
 2893W        W 6637   1.108   8.470   1.412  0.3194  0.0788  0.1999
 2894W        W 6638   9.270   6.309   9.886 -0.2096 -0.0031  0.0725
 2895W        W 6639   6.874   9.440   0.675 -0.0977  0.2183  0.0655
 2896W        W 6640   0.359   5.864   4.640  0.1410 -0.3926 -0.4622
 2897W        W 6641   3.948   2.786   0.013 -0.0624 -0.0586  0.1742
 2898W        W 6642   0.535   4.971  12.746  0.0818 -0.3202  0.5143
 2899W        W 6643   3.513   4.631   8.930  0.0087 -0.2331 -0.0650
 2900W        W 6644   9.890   5.969   1.999 -0.0760 -0.6463  0.1271
 2901W        W 6645   0.691   3.647   8.522 -0.0590  0.0101  0.1977
 2902W        W 6646   8.487   4.985   3.450 -0.1401 -0.0315 -0.0426
 2903W        W 6647   0.434   9.605   9.753 -0.2994 -0.0495  0.2503
 2904W        W 6648   7.406   5.169   9.423 -0.1089 -0.1893 -0.2316
 2905W        W 6649   7.431   0.261   4.163 -0.2004  0.1878  0.2115
 2906W        W 6650   6.331   6.055   1.741  0.1323 -0.0233  0.1147
 2907W        W 6651   2.618   4.864   0.344 -0.1060  0.0734 -0.2681
 2908W        W 6652   4.676   9.742  10.818 -0.3831 -0.1193  0.0472
 2909W        W 6653   2.092   8.112  11.255 -0.1477  0.0499  0.1554
 2910W        W 6654   4.148   4.130  11.171 -0.2482 -0.0953 -0.6155
 2911W        W 6655   3.660   2.711   2.821 -0.2255 -0.0808  0.3096
 2912W        W 6656   5.129   6.388  10.533 -0.3005 -0.1044  0.0410
 2913W        W 6657   5.232   0.079   9.720  0.2758  0.0332 -0.0333
 2914W        W 6658   0.741   9.151  12.542 -0.0747 -0.1766  0.2262
 2915W        W 6659   7.348   0.781  11.328  0.1428 -0.0028 -0.0144
 2916W        W 6660   9.768   6.476  11.262  0.1787  0.0387 -0.1400
 2917W        W 6661   8.182   8.746   3.354  0.1082  0.0034 -0.0601
 2918W        W 6662   4.538   1.460   3.934  0.1990 -0.1845  0.0724
 2919W        W 6663   7.813   1.008   0.170  0.2332  0.2001  0.4018
 2920W        W 6664   6.430   8.903  11.262 -0.0447  0.1576  0.0741
 2921W        W 6665   5.373   0.435   0.232  0.0085 -0.2692 -0.0777
 2922W        W 6666   4.185   8.579   1.915  0.0455  0.1409 -0.1429
 2923W        W 6667   4.454   5.830   1.832  0.3246 -0.3797  0.0957
 2924W        W 6668   3.740   8.283   4.026  0.1451 -0.2708  0.3220
 2925W        W 6669   3.792   4.407   2.036 -0.0497 -0.3252 -0.4683
 2926W        W 6670   9.627   5.054   4.088  0.3608 -0.3715  0.5250
 2927W        W 6671   5.240   2.789   9.480  0.0831  0.0207 -0.0447
 2928W        W 6672   2.595   4.577   9.648  0.0874  0.2332  0.1601
 2929W        W 6673   2.762   4.876   3.245 -0.1189 -0.0932  0.1380
 2930W        W 6674   4.352   2.872   2.259  0.1396  0.0411 -0.2065
 2931W        W 6675   4.422   1.691   0.712  0.1462  0.4848 -0.0611
 2932W        W 6676   3.464   3.946   1.135 -0.0521 -0.0826 -0.0415
 2933W        W 6677   1.792   7.293   2.387  0.0243  0.1371 -0.5255
 2934W        W 6678   0.364   4.302  11.456  0.0412 -0.1458  0.0797
 2935W        W 6679   1.793   8.278  10.402 -0.0288 -0.1353 -0.0659
 2936W        W 6680   8.054   0.807   1.665  0.0971 -0.0099  0.0385
 2937W        W 6681   6.526   3.784   0.251  0.0382  0.1746 -0.2009
 2938W        W 6682   6.780   9.198   9.761  0.1499  0.0953  0.0212
 2939W        W 6683   9.485   6.663   3.202 -0.1809  0.1734  0.0588
 2940W        W 6684   4.041   2.077   9.617 -0.2348  0.2336 -0.1860
 2941W        W 6685   5.971   9.443   8.107 -0.6783 -0.1954 -0.0123
 2942W        W 6686   4.985   6.237   9.550  0.1105  0.2884 -0.0444
 2943W        W 6687   7.271   3.961  12.019 -0.1606  0.1489  0.3409
 2944W        W 6688   8.023   2.757  10.085  0.0962 -0.1378 -0.1877
 2945W        W 6689   7.497   5.920   3.303  0.4155 -0.2246 -0.0753
 2946W        W 6690   2.473   4.631  10.813  0.2063  0.1891 -0.1801
 2947W        W 6691   2.995   3.348   4.301  0.1104 -0.2318 -0.0540
 2948W        W 6692   5.002   4.446   0.212  0.0570  0.0736  0.0422
 2949W        W 6693   6.988   5.923  12.277 -0.1169  0.1212 -0.1909
 2950W        W 6694   3.909   4.577   1.586  0.0181 -0.1736  0.0647
 2951W        W 6695   6.878   3.446   2.414 -0.0171 -0.2239  0.0354
 2952W        W 6696   5.886   4.299  11.601 -0.0235 -0.4021 -0.2325
 2953W        W 6697   6.612   7.631  11.865  0.2349 -0.2431 -0.1806
 2954W        W 6698   0.660   2.327   2.009 -0.1522 -0.2108  0.1966
 2955W        W 6699   0.145   1.175   1.664 -0.2072 -0.3445 -0.0269
 2956W        W 6700   1.280   6.178   7.937  0.0518 -0.2718  0.0923
 2957W        W 6701   4.553   1.254   9.497 -0.2253 -0.2476  0.1740
 2958W        W 6702   4.978   6.792  11.992  0.1229 -0.3252 -0.0074
 2959W        W 6703   2.116   5.877   4.501 -0.1292 -0.2169  0.0711
 2960W        W 6704   2.654   9.008  12.417 -0.2651 -0.3239 -0.0204
 2961W        W 6705   5.144   0.956   3.712 -0.7063  0.1024  0.0217
 2962W        W 6706   9.645   6.505   0.008 -0.1323  0.2197  0.0635
 2963W        W 6707   0.587   7.122   9.710 -0.0774  0.0175  0.1470
 2964W        W 6708   0.682   0.331   0.329 -0.1657 -0.2575  0.1572
 2965W        W 6709   1.521   7.880  11.696  0.2895 -0.4741  0.0645
 2966W        W 6710   7.083   1.165   9.398  0.0587 -0.1062  0.3047
 2967W        W 6711   8.119   8.103   8.445 -0.1259 -0.0018  0.1141
 2968W        W 6712   8.510   3.429   9.012 -0.2477 -0.0187 -0.1114
 2969W        W 6713   5.687   0.728  12.672 -0.0480 -0.0438 -0.0717
 2970W        W 6714   9.008   8.026   1.797  0.5561 -0.0424 -0.2263
 2971W        W 6715   8.582   3.350   0.815 -0.2460 -0.0911  0.3021
 2972W        W 6716   8.028   9.180   1.805  0.0197  0.2215  0.0195
 2973W        W 6717   1.454   5.142   9.924 -0.3449  0.1372  0.1839
 2974W        W 6718   5.043   9.619   8.390 -0.1766  0.0841 -0.3288
 2975W        W 6719   7.452   2.687   2.836  0.1812 -0.1717 -0.0169
 2976W        W 6720   4.288   2.867   9.710  0.6242 -0.1127  0.1251
 2977W        W 6721   2.764   6.401   3.794  0.0984 -0.0359  0.0832
 2978W        W 6722   2.790   1.731  11.482 -0.2535 -0.1254  0.1629
 2979W        W 6723   9.581   9.578   3.007  0.3332  0.4097  0.4874
 2980W        W 6724   7.937   0.817  10.428  0.0318 -0.2201  0.0323
 2981W        W 6725   0.940   0.326   1.244 -0.1506 -0.1666  0.0384
 2982W        W 6726   6.588   1.886   1.090  0.0371  0.1250  0.2179
 2983W        W 6727   1.777   6.874  11.589 -0.1165 -0.0520 -0.0466
 2984W        W 6728   7.552   3.635   4.005  0.0868 -0.2500  0.1126
 2985W        W 6729   8.023   7.421  10.489  0.2221 -0.0674 -0.5312
 2986W        W 6730   2.070   5.844   3.645  0.1970  0.0115 -0.1560
 2987W        W 6731   5.483   3.500  12.606 -0.0566 -0.0622  0.0794
 2988W        W 6732   3.654   4.401  11.487 -0.0611  0.2790  0.0374
 2989W        W 6733   1.510   3.423  11.852  0.0499  0.2702  0.0164
 2990W        W 6734   9.149   8.899   9.651  0.2882  0.1069 -0.1855
 2991W        W 6735   6.184   6.341  12.725  0.1075  0.3934 -0.1186
 2992W        W 6736   9.899   6.667  10.834 -0.5388  0.2132  0.0494
 2993W        W 6737   2.416   6.003   4.079 -0.0262 -0.1600  0.1925
 2994W        W 6738   4.098   2.696   3.867  0.1252  0.1595 -0.2494
 2995W        W 6739   5.260   4.437   3.328 -0.0293 -0.0037  0.2147
 2996W        W 6740   6.718   3.449   1.210 -0.0503 -0.0132  0.1290
 2997W        W 6741   7.626   7.305   4.069 -0.1471  0.2213  0.0803
 2998W        W 6742   5.229   2.007  11.875 -0.1406  0.0069 -0.0934
 2999W        W 6743   7.160   5.190  11.633  0.0484 -0.0049  0.2098
 3000W        W 6744   4.008   9.209   0.642  0.1539 -0.1675  0.1756
 3001W        W 6745   4.950   5.348   7.682  0.3047 -0.2189  0.0475
 3002W        W 6746   9.917   0.587   3.128  0.1636  0.1256 -0.0785
 3003W        W 6747   9.052   8.421   2.120  0.0625 -0.1319 -0.0209
 3004W        W 6748   3.853   8.347   3.426 -0.1702  0.1129 -0.2405
 3005W        W 6749   6.105   3.098   3.810  0.0225  0.0236 -0.3399
 3006W        W 6750   3.740   5.465  10.013  0.0677  0.0451 -0.0692
 3007W        W 6751   4.406   2.484  10.066  0.1252  0.1503  0.0778
 3008W        W 6752   7.358   7.576   0.875  0.5007  0.3826  0.0985
 3009W        W 6753   1.476   0.619   0.714 -0.3014 -0.0254  0.2280
 3010W        W 6754   0.912   1.307   2.339 -0.0162  0.3926 -0.1284
 3011W        W 6755   3.001   7.805   8.992 -0.0692 -0.1035 -0.1454
 3012W        W 6756   3.233   7.522   0.685  0.2812  0.1132  0.2748
 3013W        W 6757   1.246   1.656  10.537  0.0499  0.2756  0.2721
 3014W        W 6758   5.186   6.970   2.703  0.1108  0.0477 -0.0616
 3015W        W 6759   6.270   5.379   3.634 -0.3201  0.2096 -0.1140
 3016W        W 6760   2.733   2.583  11.700 -0.3768 -0.0749  0.0894
 3017W        W 6761   2.703   0.145   0.998 -0.3652  0.0585  0.0066
 3018W        W 6762   3.751   3.049  11.671 -0.0731 -0.2402 -0.0847
 3019W        W 6763   8.155   4.288  10.505 -0.2486  0.0184 -0.3436
 3020W        W 6764   3.136   8.191   4.021  0.0905  0.1313  0.0449
 3021W        W 6765   9.859   0.266  10.313 -0.1900  0.2060  0.2020
 3022W        W 6766   5.995   7.259   0.295 -0.2536 -0.0199 -0.3922
 3023W        W 6767   9.653   3.792   0.225  0.1071 -0.0447  0.0746
 3024W        W 6768   9.096   5.981  12.033  0.0438 -0.0832  0.2151
 3025W        W 6769   1.860   3.119  11.561 -0.1160  0.2252 -0.0258
 3026W        W 6770   2.044   3.764   1.097 -0.0010 -0.1841  0.0020
 3027W        W 6771   7.793   3.851   9.599 -0.2216  0.0884 -0.0982
 3028W        W 6772   2.446   5.461   3.609  0.1281 -0.1749  0.5070
 3029W        W 6773   1.159   8.928  11.789  0.0826  0.0062 -0.1450
 3030W        W 6774   9.583   2.046   3.861 -0.1135 -0.1941 -0.0770
 3031W        W 6775   1.264   2.080   1.247  0.0746  0.0217  0.0580
 3032W        W 6776   9.552   7.041  10.602 -0.0278 -0.2418 -0.0598
 3033W        W 6777   3.348   6.269  10.880  0.1215 -0.2530  0.2382
 3034W        W 6778   3.608   1.107   1.931  0.0400  0.4637 -0.0877
 3035W        W 6779   1.583   6.304   4.522  0.0005 -0.0805  0.0711
 3036W        W 6780   7.770   9.174   9.250 -0.3848  0.0007 -0.1703
 3037W        W 6781   9.014   7.856   8.213 -0.1600 -0.2825  0.1091
 3038W        W 6782   4.066   5.270  12.860  0.0280  0.5420 -0.1919
 3039W        W 6783   4.365   0.692   9.750  0.2336  0.0711 -0.1820
 3040W        W 6784   9.460   3.499   9.202 -0.0378  0.1417 -0.2603
 3041W        W 6785   2.504   9.907   1.769 -0.1769  0.0949 -0.0983
 3042W        W 6786   2.615   5.024   8.849  0.2106 -0.1072 -0.0361
 3043W        W 6787   6.435   0.335   8.898  0.1402  0.2835 -0.2225
 3044W        W 6788   1.575   0.487  11.879 -0.2332 -0.0928  0.1270
 3045W        W 6789   3.550   3.865  12.333 -0.2255 -0.1112 -0.3110
 3046W        W 6790   1.345   7.364   4.205  0.2649  0.1908  0.0579
 3047W        W 6791   4.936   2.661   2.876 -0.1557 -0.1368 -0.0740
 3048W        W 6792   4.701   2.433   0.170 -0.1588 -0.1270  0.1354
 3049W        W 6793   9.484   5.408   9.366  0.0873 -0.0652 -0.0422
 3050W        W 6794   6.380   1.131   4.109 -0.4378  0.1492 -0.2385
 3051W        W 6795   2.165   7.780   2.317  0.3563 -0.0099 -0.0313
 3052W        W 6796   5.272   8.985   0.357  0.1741  0.0164  0.0543
 3053W        W 6797   8.868   5.983  11.022  0.0863  0.0472 -0.0788
 3054W        W 6798   9.867   4.904   8.159  0.0097 -0.2143  0.0999
 3055W        W 6799   1.507   6.739  11.116  0.1169 -0.0762  0.1084
 3056W        W 6800   5.277   8.003   2.830  0.2473  0.1398  0.1148
 3057W        W 6801   1.773   8.389   3.011 -0.3444  0.0481  0.0287
 3058W        W 6802   0.416   3.972   4.263  0.3526 -0.1702 -0.0245
 3059W        W 6803   7.419   4.188   1.406 -0.0302  0.3981 -0.1113
 3060W        W 6804   2.179   3.694  12.343  0.3779 -0.0726  0.2358
 3061W        W 6805   0.650   6.765   1.458 -0.3953 -0.1614 -0.0810
 3062W        W 6806   4.897   4.522   4.657 -0.3702 -0.0311 -0.0349
 3063W        W 6807   1.686   7.668  12.573 -0.0158 -0.2846  0.1344
 3064W        W 6808   8.070   9.307  12.699 -0.2042  0.1467  0.1528
 3065W        W 6809   6.586   3.133   8.936 -0.0706  0.1158  0.1855
 3066W        W 6810   2.395   2.058   8.519  0.1364 -0.1059 -0.1686
 3067W        W 6811   5.811   7.007   9.458  0.3304 -0.0066 -0.0782
 3068W        W 6812   5.759   4.527   9.181 -0.2335 -0.2575  0.1577
 3069W        W 6813   3.873   4.735   3.492  0.2498 -0.1510 -0.0875
 3070W        W 6814   7.925   6.894   8.772  0.0805 -0.2073  0.0044
 3071W        W 6815   0.349   0.801   9.842 -0.1557  0.0243  0.0687
 3072W        W 6816   5.415   4.784  11.083  0.3109  0.0310  0.4021
 3073W        W 6817   3.516   0.838   8.822 -0.1398 -0.2254  0.1397
 3074W        W 6818   4.385   3.965  12.702  0.3158 -0.0492  0.0202
 3075W        W 6819   7.833   0.706  11.144 -0.2269 -0.0851  0.1615
 3076W        W 6820   1.784   2.968   9.530  0.1531  0.0674 -0.0447
 3077W        W 6821   3.116   4.319   4.079 -0.1003  0.2764 -0.1534
 3078W        W 6822   4.476   2.342   2.071  0.0971 -0.0277  0.1219
 3079W        W 6823   4.050   6.391  10.750 -0.2619 -0.1721  0.0873
 3080W        W 6824   7.243   5.482  10.106 -0.0890  0.3668 -0.1432
 3081W        W 6825   6.852   3.828  11.127  0.4265 -0.0576 -0.3784
 3082W        W 6826   8.517   7.856   0.397 -0.0804 -0.0668  0.0643
 3083W        W 6827   5.940   6.275   4.549 -0.0932  0.1580 -0.0630
 3084W        W 6828   1.896   4.112  12.283 -0.1809  0.3652  0.2064
 3085W        W 6829   4.673   1.451   2.145  0.0174  0.1219  0.0068
 3086W        W 6830   0.883   6.589   8.961 -0.3655  0.2836 -0.1647
 3087W        W 6831   6.220   5.217   1.342  0.0280  0.0367  0.1038
 3088W        W 6832   6.936   7.476  10.211  0.2021  0.0315 -0.4649
 3089W        W 6833   3.822   9.559  10.306 -0.1576  0.6871  0.0056
 3090W        W 6834   6.094   5.862   3.315  0.1965  0.1353 -0.0268
 3091W        W 6835   7.747   1.795  12.293 -0.1372 -0.2812  0.0665
 3092W        W 6836   8.933   7.850  11.308  0.1255 -0.0681 -0.2321
 3093W        W 6837   0.466   0.215   9.852  0.1003  0.0264 -0.1693
 3094W        W 6838   3.772   5.957  10.775 -0.1950 -0.4960 -0.2249
 3095W        W 6839   9.439   2.021  12.771 -0.5066 -0.5346  0.0291
 3096W        W 6840   5.567   9.468   2.489  0.1638 -0.1271 -0.0859
 3097W        W 6841   4.092   5.883  11.198  0.1397  0.1951  0.2437
 3098W        W 6842   8.971   9.834   9.318  0.0369 -0.0062 -0.3724
 3099W        W 6843   9.808   9.699  10.475  0.1521  0.0828 -0.2079
 3100W        W 6844   3.046   6.666   9.571 -0.0285 -0.3152  0.3550
 3101W        W 6845   2.837   6.614  11.368  0.1357  0.1138  0.1021
 3102W        W 6846   9.863   1.666   3.883 -0.0896  0.0507 -0.1463
 3103W        W 6847   9.156   2.163   7.827  0.0841 -0.1368 -0.4658
 3104W        W 6848   3.329   8.549   1.380  0.0009 -0.0227  0.2564
 3105W        W 6849   3.269   8.080  10.198 -0.3121  0.2184  0.0376
 3106W        W 6850   9.534   8.575   9.716  0.3345 -0.0020 -0.1886
 3107W        W 6851   4.108   5.177   3.673 -0.0425 -0.0962  0.1207
 3108W        W 6852   2.021   4.315   0.710 -0.2420  0.0600 -0.0124
 3109W        W 6853   3.379   2.260   2.853  0.3492  0.0663  0.3272
 3110W        W 6854   2.224   5.737   4.969 -0.0984  0.0606  0.0443
 3111W        W 6855   8.589   6.550   4.563  0.0760  0.0026  0.2914
 3112W        W 6856   1.268   5.524   4.658 -0.2557  0.2088 -0.0194
 3113W        W 6857   3.603   2.621  10.788  0.3109 -0.0364  0.1593
 3114W        W 6858   7.144   8.829   9.134  0.0291  0.0537 -0.1302
 3115W        W 6859   8.712   5.064  11.453  0.1413 -0.4280 -0.2754
 3116W        W 6860   5.591   7.003   1.118  0.0563  0.1082  0.0757
 3117W        W 6861   8.667   4.306   8.685 -0.0783 -0.0363  0.0370
 3118W        W 6862   9.087   8.703   0.177  0.1810 -0.0566 -0.1823
 3119W        W 6863   9.002   4.186   0.780 -0.1190 -0.3388  0.2016
 3120W        W 6864   4.596   7.043   8.409  0.0229 -0.1818 -0.0499
 3121W        W 6865   1.649   5.388   9.473  0.0926 -0.2272 -0.2071
 3122W        W 6866   5.364   8.998   9.928  0.1447 -0.2195 -0.0819
 3123W        W 6867   5.187   1.576  10.243  0.0427 -0.1929  0.2538
 3124W        W 6868   1.812   1.557   2.288  0.1212  0.0733  0.0737
 3125W        W 6869   0.100   4.644   0.034 -0.1152 -0.0646 -0.2703
 3126W        W 6870   2.618   3.760   9.912  0.0719 -0.0666  0.0522
 3127W        W 6871   9.721   0.215  12.079 -0.0190  0.1429 -0.2158
 3128W        W 6872   6.908   2.633   8.975  0.4546  0.1068  0.0678
 3129W        W 6873   2.902   1.863   1.916  0.0782 -0.3702 -0.0747
 3130W        W 6874   1.250   6.385   0.281  0.0310  0.0473  0.0485
 3131W        W 6875   4.142   5.018   9.180  0.1190 -0.0005  0.0582
 3132W        W 6876   2.647   5.053   9.530  0.0575 -0.1890 -0.1635
 3133W        W 6877   1.201   5.046   2.075 -0.1468 -0.1544 -0.1557
 3134W        W 6878   7.363   2.573   9.247 -0.2375 -0.1662  0.0334
 3135W        W 6879   2.795   8.918   0.144 -0.1876 -0.1339 -0.0790
 3136W        W 6880   0.316   9.117   1.521  0.1029 -0.1071 -0.2344
 3137W        W 6881   7.804   6.222   9.183 -0.4127  0.1293 -0.0754
 3138W        W 6882   9.322   3.129   2.658 -0.1094  0.1196  0.2887
 3139W        W 6883   0.384   5.929  10.920  0.1561 -0.0997  0.0451
 3140W        W 6884   3.589   4.186   9.142 -0.2101 -0.0727 -0.2227
 3141W        W 6885   4.408   7.551  10.160 -0.1846 -0.3756 -0.2026
 3142W        W 6886   5.825   0.278  10.658 -0.3986  0.0764  0.1960
 3143W        W 6887   3.385   9.209   1.817 -0.0054  0.2229 -0.2719
 3144W        W 6888   1.182   1.648   3.398  0.0597  0.0176 -0.2791
 3145W        W 6889   3.789   2.640   1.501 -0.0044 -0.3646 -0.2317
 3146W        W 6890   8.886   4.665  10.563 -0.3377  0.2738 -0.0802
 3147W        W 6891   0.931   7.129  10.086 -0.1208 -0.4467 -0.0086
 3148W        W 6892   4.319   4.307   2.834  0.2406 -0.0837  0.0322
 3149W        W 6893   8.216   7.130   3.224  0.4275  0.0275  0.2945
 3150W        W 6894   7.807   7.470   3.335  0.0430 -0.0132  0.0514
 3151W        W 6895   6.234   1.954  10.089 -0.0002  0.0168  0.1660
 3152W        W 6896   8.486   9.218   1.387 -0.0679 -0.1037 -0.0738
 3153W        W 6897   4.097   8.683   9.805  0.3070  0.1253 -0.5527
 3154W        W 6898   8.331   0.257   3.180  0.1041 -0.2405 -0.0034
 3155W        W 6899   4.018   7.838   7.998  0.1008  0.1570 -0.3536
 3156W        W 6900   6.329   6.320   8.383 -0.1564 -0.0970 -0.2815
 3157W        W 6901   1.037   4.931   3.863  0.1449 -0.0370 -0.0176
 3158W        W 6902   7.657   1.530   4.043  0.1290  0.2373 -0.2173
 3159W        W 6903   0.908   2.826   3.490  0.0622  0.0141 -0.2664
 3160W        W 6904   1.817   9.024  10.594  0.1774  0.0279  0.2979
 3161W        W 6905   1.697   5.107   1.653 -0.0423  0.2020 -0.0179
 3162W        W 6906   7.347   3.420   9.013  0.0216  0.1303  0.1380
 3163W        W 6907   6.689   6.678   9.676  0.0004  0.2021  0.0088
 3164W        W 6908   7.118   7.605   2.581  0.0424  0.0254 -0.1178
 3165W        W 6909   6.053   9.477  11.073  0.0573 -0.0608 -0.1759
 3166W        W 6910   5.215   5.438   8.489 -0.0910  0.1985  0.0135
 3167W        W 6911   3.387   9.011   0.666  0.5504  0.3851  0.2273
 3168W        W 6912   3.411   2.571   2.388 -0.2170 -0.0438  0.1119
 3169W        W 6913   3.272   3.827   4.308 -0.1363  0.0651  0.3473
 3170W        W 6914   5.941   6.011   0.885  0.0869 -0.1678 -0.2917
 3171W        W 6915   9.184   2.668  10.755  0.3025 -0.0373 -0.1570
 3172W        W 6916   3.244   8.736   4.004 -0.1427  0.1270 -0.0410
 3173W        W 6917   3.764   7.197  10.785 -0.1031 -0.0348 -0.0559
 3174W        W 6918   2.647   1.009  11.298 -0.1431 -0.3347  0.2526
 3175W        W 6919   5.277   5.883   0.054 -0.0012 -0.0250 -0.5255
 3176W        W 6920   4.207   2.695   4.731  0.2319 -0.0432  0.1641
 3177W        W 6921   6.141   8.671   7.675 -0.2483  0.1264 -0.1018
 3178W        W 6922   7.290   3.720   3.148  0.0208  0.1407 -0.0187
 3179W        W 6923   7.454   2.615   0.227  0.1842 -0.1137  0.4212
 3180W        W 6924   7.573   4.116  12.377 -0.2464  0.1083  0.0800
 3181W        W 6925   9.876   5.663  12.647 -0.0177 -0.3497  0.1638
 3182W        W 6926   6.615   2.060   2.688  0.1451  0.0189 -0.1856
 3183W        W 6927   4.876   6.226   2.891  0.2238  0.0221  0.2774
 3184W        W 6928   4.959   7.345  11.471  0.0117  0.0001  0.0457
 3185W        W 6929   7.085   8.996   2.910 -0.1578 -0.1518 -0.0807
 3186W        W 6930   5.999   4.965   4.267  0.0049 -0.0125  0.1983
 3187W        W 6931   5.708   6.472  12.565 -0.2593 -0.0084  0.2449
 3188W        W 6932   9.414   0.793   9.250  0.1892 -0.1698 -0.3211
 3189W        W 6933   8.813   3.331  11.766  0.0664 -0.0258  0.0605
 3190W        W 6934   0.025   7.699  12.113  0.0682 -0.0506  0.0129
 3191W        W 6935   8.289   3.774   0.742  0.0208 -0.0554 -0.2411
 3192W        W 6936   7.752   1.442   9.436 -0.2043 -0.1008  0.1225
 3193W        W 6937   8.686   2.431   0.466 -0.2006 -0.1340 -0.3955
 3194W        W 6938   4.653   0.231  11.145  0.0853  0.1884  0.1567
 3195W        W 6939   5.715   7.092   8.524 -0.1317 -0.3418  0.1248
 3196W        W 6940   3.020   6.647   0.287 -0.0630  0.1390 -0.2057
 3197W        W 6941   0.263   1.309  10.451 -0.2179 -0.1893  0.0174
 3198W        W 6942   9.529   1.182   8.436  0.2292 -0.1226 -0.1687
 3199W        W 6943   4.574   5.365   1.958  0.2172  0.3692  0.0679
 3200W        W 6944   9.721   0.244  10.790 -0.0946 -0.1727 -0.2809
 3201W        W 6945   1.653   8.222  12.139 -0.1466 -0.0752 -0.1694
 3202W        W 6946   9.379   6.074  11.631 -0.1598  0.0972  0.1129
 3203W        W 6947   5.998   1.229   0.208 -0.2164 -0.2468  0.2087
 3204W        W 6948   2.672   2.309   2.106 -0.3890  0.2998  0.1335
 3205W        W 6949   2.075   5.099   2.592 -0.0014  0.0801  0.1660
 3206W        W 6950   8.056   4.559  11.907  0.1368  0.1059 -0.1311
 3207W        W 6951   3.724   4.993   1.803  0.0879  0.2939  0.3878
 3208W        W 6952   1.993   5.186   5.211 -0.0519 -0.1010 -0.1221
 3209W        W 6953   4.178   8.548  12.426  0.1419 -0.0069 -0.0978
 3210W        W 6954   6.364   4.578   4.116  0.1267 -0.0353  0.2149
 3211W        W 6955   5.346   7.005  12.359 -0.0186 -0.0337 -0.4728
 3212W        W 6956   0.571   3.787   0.792 -0.0329 -0.2902 -0.0220
 3213W        W 6957   4.945   6.361   8.957 -0.1306 -0.2345  0.0381
 3214W        W 6958   9.803   4.629  10.669 -0.1159 -0.1226 -0.1866
 3215W        W 6959   6.426   7.606   1.371  0.0945 -0.1534  0.0027
 3216W        W 6960   9.554   6.396   9.429  0.0231 -0.3626 -0.0313
 3217W        W 6961   7.697   0.529   3.753  0.1061 -0.2878 -0.0320
 3218W        W 6962   2.856   4.239  12.482 -0.1284 -0.1346 -0.2540
 3219W        W 6963   4.206   2.885  11.493  0.1893 -0.0215 -0.0563
 3220W        W 6964   6.922   7.567  11.443  0.1068  0.0177  0.1853
 3221W        W 6965   0.827   3.467   0.445  0.1038  0.0972  0.0503
 3222W        W 6966   9.774   5.770  10.382 -0.0285 -0.0938  0.3323
 3223W        W 6967   1.790   6.402  12.225  0.0521  0.0878 -0.0332
 3224W        W 6968   7.277   0.157   9.410  0.1705  0.0639 -0.2822
 3225W        W 6969   2.873   2.999  10.874  0.1980 -0.3267 -0.2979
 3226W        W 6970   8.038   4.709   9.386 -0.0276  0.0913  0.1274
 3227W        W 6971   6.696   4.896  11.080  0.1069  0.3207  0.3229
 3228W        W 6972   0.319   0.500   9.445  0.0828 -0.1011  0.2046
 3229W        W 6973   7.191   0.440  11.716 -0.4036  0.1416 -0.0334
 3230W        W 6974   9.283   9.881   1.830 -0.0081  0.0469 -0.2300
 3231W        W 6975   5.585   3.034  10.097 -0.2460 -0.1532  0.0878
 3232W        W 6976   4.309   4.347  10.712 -0.2190 -0.0512  0.2067
 3233W        W 6977   3.700   7.506   9.383 -0.2264 -0.0185  0.1845
 3234W        W 6978   5.403   5.495  12.144 -0.0754 -0.0920  0.2674
 3235W        W 6979   4.826   4.109  11.213  0.0628  0.0900 -0.3837
 3236W        W 6980   5.563   4.251  10.304  0.1184  0.0202 -0.0046
 3237W        W 6981   0.958   9.568  12.763  0.4981  0.2743  0.1222
 3238W        W 6982   2.930   4.124   2.737  0.1274 -0.1559 -0.1051
 3239W        W 6983   8.737   2.536  10.413  0.0330 -0.1040 -0.0386
 3240W        W 6984   8.658   5.361   3.709 -0.0680 -0.1771  0.1079
 3241W        W 6985   7.578   1.890   9.194  0.1174 -0.0998 -0.3596
 3242W        W 6986   0.678   8.560   0.922  0.0411 -0.1879 -0.0599
 3243W        W 6987   0.028   8.720  10.034 -0.0186 -0.3160 -0.0284
 3244W        W 6988   5.602   9.625   1.573 -0.0314 -0.1635 -0.1527
 3245W        W 6989   9.511   5.359   8.036  0.1497 -0.0259 -0.4382
 3246W        W 6990   9.493   8.494  12.319  0.1959 -0.0866 -0.0887
 3247W        W 6991   9.058   0.667   9.684 -0.2225  0.2781  0.0681
 3248W        W 6992   4.361   5.907   4.188 -0.1937 -0.0687 -0.0236
 3249W        W 6993   1.733   0.641   2.627  0.1116  0.3468 -0.1913
 3250W        W 6994   8.010   5.807   9.340 -0.0766  0.0789 -0.0329
 3251W        W 6995   6.840   4.858   2.395  0.1378  0.1855 -0.1186
 3252W        W 6996   3.119   7.189   4.073 -0.0518 -0.0619  0.3543
 3253W        W 6997   7.329   1.814  10.123  0.0125 -0.1592  0.1112
 3254W        W 6998   7.369   6.305   1.634  0.0079  0.0534 -0.0802
 3255W        W 6999   5.568   4.078   4.090  0.0829 -0.3848 -0.0511
 3256W        W 7000   9.578   7.251   2.954  0.0278  0.1892  0.0077
 3257W        W 7001   3.300   9.520  10.041 -0.0600 -0.0153 -0.0815
 3258W        W 7002   8.293   7.469   2.764  0.0880  0.1727 -0.1291
 3259W        W 7003   5.672   3.611   8.639  0.2346 -0.0713 -0.0759
 3260W        W 7004   6.227   2.924   0.042 -0.1078  0.1607 -0.3848
 3261W        W 7005   9.771   7.470  10.388 -0.1249  0.0930  0.1253
 3262W        W 7006   8.757   1.105  10.153 -0.1899 -0.0099  0.1712
 3263W        W 7007   5.212   8.623  11.165  0.3682 -0.0861  0.2041
 3264W        W 7008   6.751   5.125   3.369  0.0636  0.1163 -0.2755
 3265W        W 7009   0.984   6.334   9.359 -0.1927 -0.3864  0.0670
 3266W        W 7010   6.464   5.326  11.250  0.1255 -0.3543 -0.1692
 3267W        W 7011   9.657   1.393   1.740  0.3595  0.0383  0.1436
 3268W        W 7012   2.563   6.188   8.152 -0.0048 -0.1433 -0.0819
 3269W        W 7013   6.669   7.581   9.223  0.0650  0.2360  0.1066
 3270W        W 7014   3.580   3.001  12.145 -0.3575  0.3339  0.0594
 3271W        W 7015   7.142   0.647  12.755  0.0295  0.4478  0.0701
 3272W        W 7016   9.887   4.156  12.353 -0.1388 -0.1499 -0.0391
 3273W        W 7017   2.436   5.435   2.743 -0.3663 -0.0557 -0.0600
 3274W        W 7018   7.032   7.902   3.006  0.0391 -0.4284  0.0549
 3275W        W 7019   2.022   8.628   1.839 -0.3626 -0.0658 -0.1731
 3276W        W 7020   6.455   2.783   3.060  0.1100  0.1332  0.1581
 3277W        W 7021   1.666   9.066   0.164  0.1196 -0.1557  0.0876
 3278W        W 7022   8.613   6.645   2.013 -0.0800  0.2933 -0.1846
 3279W        W 7023   1.227   2.548   0.188 -0.1843 -0.3042 -0.1621
 3280W        W 7024   1.230   9.295  11.268 -0.0652 -0.2464  0.2122
 3281W        W 7025   8.369   4.424  12.685 -0.2196 -0.1195  0.0855
 3282W        W 7026   6.329   7.909   8.952 -0.1952  0.0687 -0.0328
 3283W        W 7027   4.456   7.844   9.188 -0.0368 -0.0687  0.0956
 3284W        W 7028   9.693   9.455   0.537  0.1213  0.0351 -0.3718
 3285W        W 7029   1.001   6.994   3.914  0.0164 -0.2454  0.0975
 3286W        W 7030   3.597   7.347   9.851  0.1797 -0.0882  0.0174
 3287W        W 7031   3.466   6.198   9.994  0.1681 -0.0695 -0.0502
 3288W        W 7032   8.665   2.831   2.145 -0.0692  0.1175  0.2323
 3289W        W 7033   2.457   5.361  11.775  0.1312  0.1460  0.0253
 3290W        W 7034   4.516   1.901   3.702  0.1989 -0.1262  0.0895
 3291W        W 7035   6.352   4.599   2.647  0.0873  0.4879 -0.1066
 3292W        W 7036   6.741   0.223   1.870 -0.0401 -0.1593 -0.3028
 3293W        W 7037   9.079   5.646   1.200 -0.1438 -0.3247 -0.0006
 3294W        W 7038   9.778   6.218  10.125  0.0884 -0.2516 -0.2536
 3295W        W 7039   0.367   2.865  10.831 -0.0854 -0.0042 -0.1437
 3296W        W 7040   7.672   0.707  12.147 -0.1196  0.1793  0.1913
 3297W        W 7041   6.062   5.911   8.477 -0.0746  0.3330  0.0965
 3298W        W 7042   2.404   6.404  11.177  0.2030  0.3376 -0.3251
 3299W        W 7043   8.807   2.085  10.325  0.4155  0.1847  0.0763
 3300W        W 7044   4.240   9.612  11.644 -0.0097 -0.1254  0.0703
 3301W        W 7045   4.287   3.442   3.868 -0.0576 -0.1345 -0.2138
 3302W        W 7046   8.989   0.751  10.439  0.4256 -0.0163  0.1295
 3303W        W 7047   1.009   0.855   2.022  0.2701  0.0600 -0.0879
 3304W        W 7048   7.339   8.969  11.209 -0.2965 -0.0795  0.2891
 3305W        W 7049   4.114   2.065  10.103  0.0135  0.4234 -0.2492
 3306W        W 7050   2.325   3.888   0.685  0.2295  0.0354  0.0019
 3307W        W 7051   9.549   8.401  11.235  0.0224 -0.2697  0.0448
 3308W        W 7052   4.584   1.180  10.478 -0.2496  0.0116  0.0550
 3309W        W 7053   0.210   9.200   1.020  0.3154  0.1022  0.0432
 3310W        W 7054   3.150   4.762  11.786 -0.1813 -0.0139  0.0518
 3311W        W 7055   0.846   0.826  11.584 -0.0528 -0.1986  0.0108
 3312W        W 7056   4.690   9.398   1.665 -0.0611  0.0962 -0.1906
 3313W        W 7057   6.103   7.477  10.792  0.1340  0.0427 -0.0743
 3314W        W 7058   9.521   4.034   2.158 -0.1403 -0.0730 -0.2581
 3315W        W 7059   2.807   2.061  12.838  0.3432 -0.0666  0.1274
 3316W        W 7060   6.059   2.454   9.855 -0.1621 -0.2642 -0.2633
 3317W        W 7061   0.080   1.263   2.540 -0.1576 -0.2056 -0.1241
 3318W        W 7062   8.701   5.022   4.046 -0.0654 -0.1288 -0.2521
 3319W        W 7063   2.660   1.471  12.232 -0.1140 -0.0849  0.0280
 3320W        W 7064   7.402   6.814  10.228 -0.0008  0.1161 -0.2021
 3321W        W 7065   3.009   6.688   4.182  0.2100  0.1961 -0.0722
 3322W        W 7066   3.156   6.536  10.455 -0.2807 -0.2355  0.0970
 3323W        W 7067   5.556   0.594   8.685 -0.0953 -0.1664 -0.0612
 3324W        W 7068   6.555   7.520   8.664 -0.3690 -0.1122 -0.2861
 3325W        W 7069   9.779   0.795   1.525 -0.2186  0.0091 -0.0616
 3326W        W 7070   3.995   3.678  12.730 -0.2364 -0.1008 -0.2642
 3327W        W 7071   5.738   1.767   2.225  0.2791  0.1802 -0.1250
 3328W        W 7072   9.145   2.473  11.210  0.2874  0.2680  0.1183
 3329W        W 7073   5.774   2.469   0.648  0.3267 -0.1221 -0.0469
 3330W        W 7074   5.990   2.195  11.380 -0.1233 -0.0910  0.1229
 3331W        W 7075   4.462   5.200  10.461 -0.2547 -0.1528 -0.1444
 3332W        W 7076   4.813   9.495   1.166  0.1789 -0.0824  0.0600
 3333W        W 7077   3.202   9.871   3.901 -0.0947 -0.2409 -0.0397
 3334W        W 7078   0.494   7.539   0.436 -0.0128 -0.1767 -0.1503
 3335W        W 7079   6.650   4.259  11.313 -0.2713  0.0566 -0.2410
 3336W        W 7080   4.833   7.745   1.596 -0.2713  0.3022  0.0575
 3337W        W 7081   4.058   4.404  11.994 -0.0087  0.4786 -0.0522
 3338W        W 7082   7.138   7.295   0.134  0.0941  0.4239 -0.2647
 3339W        W 7083   0.768   3.789  10.607 -0.0932  0.0071 -0.2266
 3340W        W 7084   1.171   4.076   2.821  0.1166  0.0794 -0.2681
 3341W        W 7085   0.678   1.412   0.827 -0.3874  0.2981  0.3501
 3342W        W 7086   2.578   7.761   2.582 -0.1651  0.1794 -0.2434
 3343W        W 7087   4.049   7.980   3.136 -0.0497  0.0045 -0.0343
 3344W        W 7088   9.440   1.538   0.804  0.0292 -0.2534  0.0512
 3345W        W 7089   8.083   6.800  11.248 -0.3191 -0.6149 -0.0002
 3346W        W 7090   5.841   8.860   3.192  0.1323  0.2477  0.0819
 3347W        W 7091   7.880   1.370   2.621  0.1272 -0.0473  0.0125
 3348W        W 7092   3.715   5.506   3.736  0.0454  0.2945 -0.0889
 3349W        W 7093   2.915   5.005   2.162 -0.0123  0.1352  0.2905
 3350W        W 7094   4.297   9.499   1.376  0.1020  0.4483  0.1054
 3351W        W 7095   3.872   0.924   2.854  0.1404  0.0396  0.0295
 3352W        W 7096   0.166   4.023  12.765  0.2143 -0.0329 -0.0399
 3353W        W 7097   3.873   6.876   0.275 -0.0643  0.1056  0.3883
 3354W        W 7098   8.856   1.164   0.361 -0.2145 -0.1040 -0.4027
 3355W        W 7099   8.327   5.243   3.030 -0.0248  0.1204 -0.2089
 3356W        W 7100   8.174   2.330   3.710 -0.1213  0.0830  0.3636
 3357W        W 7101   9.845   6.318   1.045  0.0988  0.0529  0.0953
 3358W        W 7102   8.633   4.573   0.775  0.2316  0.0949  0.1345
 3359W        W 7103   7.310   4.600   1.176  0.2456  0.0508 -0.0321
 3360W        W 7104   0.825   9.510   2.010  0.3303 -0.0217 -0.1394
 3361W        W 7105   8.731   8.305  11.223  0.1685 -0.1004  0.1170
 3362W        W 7106   3.420   6.568   9.227  0.2730 -0.3437  0.1581
 3363W        W 7107   4.832   7.753   3.077  0.2985 -0.0949 -0.2022
 3364W        W 7108   6.349   4.538   0.661 -0.2158 -0.1813 -0.0625
 3365W        W 7109   8.891   3.054  10.557  0.1849  0.2629  0.0134
 3366W        W 7110   7.595   5.513  11.532  0.0311  0.2084  0.0246
 3367W        W 7111   2.610   3.902  11.574 -0.0833 -0.2081 -0.0147
 3368W        W 7112   5.524   6.393   1.984 -0.0927  0.1698 -0.0312
 3369W        W 7113   0.096   4.024   5.132 -0.0773 -0.0802  0.1000
 3370W        W 7114   2.058   4.508   4.655 -0.0438 -0.1126  0.2243
 3371W        W 7115   4.176   9.194   2.338  0.0021  0.0693  0.1106
 3372W        W 7116   9.822   1.981   3.311 -0.0111  0.0009 -0.2690
 3373W        W 7117   0.204   3.268   9.153 -0.5140  0.3035  0.0005
 3374W        W 7118   0.251   4.992   4.419  0.0490 -0.0771  0.1844
 3375W        W 7119   7.262   4.139   3.415 -0.0140 -0.0461 -0.3710
 3376W        W 7120   1.708   5.916  12.392  0.1925  0.1665 -0.0922
 3377W        W 7121   4.012   1.988   0.767 -0.0945  0.0288  0.1338
 3378W        W 7122   2.046   2.975   0.301  0.1495 -0.0568 -0.3042
 3379W        W 7123   7.303   2.685   0.804  0.1824  0.0605 -0.0011
 3380W        W 7124   7.895   4.960   2.500 -0.1611 -0.1341 -0.0934
 3381W        W 7125   9.158   0.784  11.342  0.2560  0.1419 -0.0104
 3382W        W 7126   5.594   7.458  12.188  0.0012  0.2995 -0.2850
 3383W        W 7127   5.609   7.642   0.340  0.3010  0.0025  0.0546
 3384W        W 7128   6.678   1.895   2.137 -0.2751 -0.0636  0.2827
 3385W        W 7129   5.199   3.874   0.607  0.3045  0.1210  0.0800
 3386W        W 7130   4.755   2.888   9.354  0.0898 -0.0229  0.1166
 3387W        W 7131   6.690   4.515   9.402 -0.0433 -0.1089 -0.1381
 3388W        W 7132   5.820   9.224   1.957 -0.1190 -0.2927  0.2764
 3389W        W 7133   5.704   2.425  10.812  0.0556 -0.0382 -0.0861
 3390W        W 7134   8.914   3.656  10.870  0.2770  0.1166 -0.1835
 3391W        W 7135   2.675   4.038   1.796 -0.1622  0.1548  0.0121
 3392W        W 7136   3.636   1.594   0.755 -0.2158 -0.5560 -0.2198
 3393W        W 7137   6.157   2.029  12.519 -0.1452  0.2157 -0.0393
 3394W        W 7138   0.025   5.113   9.227 -0.4880  0.1113  0.1353
 3395W        W 7139   0.378   3.779   3.343 -0.0870 -0.1587 -0.2955
 3396W        W 7140   9.742   2.850   1.287  0.1829 -0.1485  0.1442
 3397W        W 7141   1.020   3.648   2.567  0.5119 -0.0044  0.0148
 3398W        W 7142   5.797   1.412   0.709  0.0018  0.0620  0.3459
 3399W        W 7143   5.295   2.717   8.358 -0.1699 -0.3122  0.2217
 3400W        W 7144   4.259   5.417   9.629 -0.0499  0.3478 -0.0432
 3401W        W 7145   0.010   4.381  11.109 -0.2847 -0.0411  0.2276
 3402W        W 7146   9.881   7.785   2.565 -0.0894  0.1365 -0.0194
 3403W        W 7147   9.713   4.698   3.251 -0.1483 -0.3508 -0.1265
 3404W        W 7148   9.555   2.393   0.219  0.2537 -0.0006 -0.2625
 3405W        W 7149   1.272   7.776   9.237  0.3312  0.0680 -0.2803
 3406W        W 7150   3.082   0.099   2.586  0.1810 -0.1246 -0.0574
 3407W        W 7151   6.125   3.363   8.735 -0.1401 -0.0135 -0.2523
 3408W        W 7152   3.127   4.801   4.023 -0.0152  0.0371 -0.0397
 3409W        W 7153   9.385   2.530   1.626 -0.2585  0.2716  0.0633
 3410W        W 7154   1.119   1.578  11.014  0.1350  0.1772  0.1996
 3411W        W 7155   4.010   3.472  10.942 -0.0124 -0.1932 -0.0601
 3412W        W 7156   4.033   7.159  11.887 -0.2141 -0.1636 -0.1298
 3413W        W 7157   7.394   6.879   4.738  0.0674  0.1612 -0.2656
 3414W        W 7158   6.804   6.650   9.186 -0.0161  0.0882  0.0263
 3415W        W 7159   6.122   6.867  11.422  0.1909  0.0047 -0.2320
 3416W        W 7160   7.960   1.994  10.842 -0.2022 -0.3916 -0.1931
 3417W        W 7161   7.508   7.694  10.706 -0.0666 -0.1133  0.3351
 3418W        W 7162   9.480   7.591   8.404 -0.2195  0.0557  0.0243
 3419W        W 7163   7.515   1.381   0.903  0.3233  0.2411  0.4076
 3420W        W 7164   2.624   6.098  12.467 -0.3240 -0.3039 -0.0168
 3421W        W 7165   2.657   5.902   4.516 -0.2812 -0.2362 -0.3537
 3422W        W 7166   1.192   6.050   3.917  0.1208  0.1804 -0.0881
 3423W        W 7167   2.344   7.438  10.104  0.1689  0.1041  0.0622
 3424W        W 7168   2.319   4.979   2.999  0.2077  0.0990  0.0917
 3425W        W 7169   3.016   3.931   9.091  0.0625  0.0905 -0.2504
 3426W        W 7170   5.594   6.569   2.489 -0.0854 -0.2310  0.1874
 3427W        W 7171   0.739   5.006  11.893  0.0117 -0.0097  0.1842
 3428W        W 7172   5.560   5.693  11.127  0.0756  0.1856  0.3161
 3429W        W 7173   5.121   6.758   3.659  0.2056 -0.4755  0.0124
 3430W        W 7174   5.534   2.669  12.539  0.0198 -0.0398 -0.3490
 3431W        W 7175   2.191   7.419   2.609 -0.1098 -0.0758  0.0702
 3432W        W 7176   3.958   3.178   4.208  0.1543 -0.0872  0.1753
 3433W        W 7177   4.699   9.004   1.354 -0.1425  0.0184 -0.1299
 3434W        W 7178   9.890   0.808  12.151  0.1763 -0.4746 -0.0038
 3435W        W 7179   4.175   7.280   3.356 -0.1178  0.1722 -0.1905
 3436W        W 7180   4.847   3.187   3.192 -0.1609  0.0323 -0.2132
 3437W        W 7181   4.206   7.572   0.674 -0.1345 -0.1073  0.0434
 3438W        W 7182   2.814   4.621   4.386 -0.1047 -0.0846 -0.1299
 3439W        W 7183   5.288   9.319  10.361 -0.0566 -0.3667 -0.1656
 3440W        W 7184   8.286   1.417   2.317  0.0753 -0.0832 -0.2719
 3441W        W 7185   2.922   7.475   1.129 -0.1619  0.2849  0.2243
 3442W        W 7186   2.073   6.783  12.064 -0.0120 -0.1761  0.1596
 3443W        W 7187   6.426   8.256   9.751 -0.2320 -0.0137  0.1691
 3444W        W 7188   6.013   6.221   3.655  0.0606 -0.1418  0.3362
 3445W        W 7189   6.048   3.170   1.678  0.4428  0.2713  0.0231
 3446W        W 7190   5.531   1.316   2.440 -0.1382  0.1087  0.1164
 3447W        W 7191   9.325   1.722  10.454 -0.1331 -0.0622 -0.3004
 3448W        W 7192   1.545   3.371   3.799 -0.0943  0.1081 -0.1134
 3449W        W 7193   6.650   0.676   2.828 -0.1301 -0.2296  0.1427
 3450W        W 7194   8.149   3.434  12.220  0.0165  0.1518  0.2099
 3451W        W 7195   8.153   6.153   3.618  0.3001 -0.1309 -0.2812
 3452W        W 7196   4.309   1.865  11.933  0.0940  0.3015 -0.1733
 3453W        W 7197   7.996   6.963  10.671 -0.1612  0.2519 -0.1271
 3454W        W 7198   1.331   7.182   3.384  0.1274 -0.3109 -0.1756
 3455W        W 7199   4.620   4.481  12.029  0.2727 -0.0017  0.1042
 3456W        W 7200   7.872   2.484  12.210 -0.2199  0.2046 -0.0668
 3457W        W 7201   4.658   7.958   0.114 -0.0045 -0.2203 -0.1260
 3458W        W 7202   9.300   2.665   1.108  0.1291 -0.1841 -0.3949
 3459W        W 7203   6.077   8.098   8.579 -0.4345  0.0562 -0.0654
 3460W        W 7204   3.145   6.646   8.746  0.0917 -0.2970  0.0795
 3461W        W 7205   6.314   9.557   0.681 -0.0518 -0.2058 -0.2699
 3462W        W 7206   3.583   9.924   2.502 -0.1743 -0.0486 -0.0296
 3463W        W 7207   8.392   6.134   9.355  0.0359  0.3180  0.0510
 3464W        W 7208   3.184   2.642   3.782  0.0528  0.0598  0.1916
 3465W        W 7209   5.387   3.845   1.993  0.0063 -0.0530 -0.1626
 3466W        W 7210   6.069   4.906   3.745  0.1044 -0.0866  0.2832
 3467W        W 7211   3.328   0.460  10.086  0.1857  0.1531  0.2902
 3468W        W 7212   1.586   3.821   8.848 -0.1267 -0.0526 -0.1778
 3469W        W 7213   2.741   8.385   0.036 -0.1901  0.2345 -0.0045
 3470W        W 7214   1.443   8.601   1.868  0.2443  0.0871 -0.3391
 3471W        W 7215   2.732   7.446   4.273 -0.0658 -0.1080 -0.2018
 3472W        W 7216   3.542   6.744  10.045 -0.2727 -0.3692 -0.0005
 3473W        W 7217   8.457   9.709   8.921  0.2428  0.1054  0.1351
 3474W        W 7218   4.949   9.051   9.211  0.2263 -0.0018  0.0720
 3475W        W 7219   6.753   1.913   3.906  0.1620  0.1460 -0.0834
 3476W        W 7220   7.989   6.220  10.257  0.2081 -0.1602  0.3588
 3477W        W 7221   6.466   8.389   8.822 -0.2798 -0.2366 -0.0985
 3478W        W 7222   6.840   3.482   1.929 -0.0615  0.2454  0.0233
 3479W        W 7223   5.851   1.190   2.884 -0.2164 -0.3195 -0.3013
 3480W        W 7224   0.063   4.942   3.741 -0.1903 -0.2922 -0.2162
 3481W        W 7225   5.744   8.105   2.486  0.1412  0.1088  0.0343
 3482W        W 7226   1.831   6.908   2.129 -0.1237  0.2029 -0.2438
 3483W        W 7227   8.622   8.435   9.616 -0.3262  0.0810  0.2124
 3484W        W 7228   1.894   5.087  12.396 -0.0843 -0.0588 -0.1760
 3485W        W 7229   9.824   3.940   1.225  0.1720 -0.0611 -0.1812
 3486W        W 7230   5.607   1.694   0.225  0.0397  0.2265  0.0399
 3487W        W 7231   2.578   1.953  12.420 -0.0210  0.2205  0.1764
 3488W        W 7232   0.622   3.581  11.439  0.1717 -0.1846 -0.0208
 3489W        W 7233   6.032   0.774  10.782 -0.0002 -0.0157  0.2517
 3490W        W 7234   5.274   9.851  10.191  0.2830  0.0974  0.2854
 3491W        W 7235   9.615   3.005   9.185 -0.1854  0.3473  0.0871
 3492W        W 7236   8.926   1.993   2.776  0.1472  0.1035  0.1560
 3493W        W 7237   5.359   2.201   0.410 -0.7221  0.0615 -0.2793
 3494W        W 7238   7.072   2.841  12.829  0.0105 -0.2286  0.1840
 3495W        W 7239   0.105   6.286  11.650 -0.1632  0.0417  0.1390
 3496W        W 7240   5.072   0.512   8.815  0.2232  0.0041  0.3455
 3497W        W 7241   2.427   7.153  12.343  0.1115  0.2733 -0.0237
 3498W        W 7242   0.491   9.787   1.276  0.0257 -0.1623 -0.3393
 3499W        W 7243   2.957   9.481  11.855 -0.5820 -0.0287 -0.0717
 3500W        W 7244   1.187   9.381   0.881  0.0720  0.0315 -0.0945
 3501W        W 7245   1.020   3.338  12.048 -0.1265  0.0343 -0.0447
 3502W        W 7246   9.886   6.482   1.845 -0.0137  0.0351 -0.0005
 3503W        W 7247   9.522   9.669   2.271  0.1327 -0.2129 -0.1461
 3504W        W 7248   2.270   5.097  11.427  0.1254 -0.1525 -0.1368
 3505W        W 7249   6.680   5.830   9.304  0.1618  0.2793 -0.3014
 3506W        W 7250   3.937   6.646   1.197 -0.0132 -0.1547 -0.3719
 3507W        W 7251   0.838   8.366  12.788  0.2901 -0.0650 -0.0193
 3508W        W 7252   7.933   4.915   3.017  0.1377  0.0661  0.1327
 3509W        W 7253   5.104   0.396   3.186  0.2968 -0.3265 -0.1463
 3510W        W 7254   4.903   5.460   0.144  0.0070 -0.1483 -0.4107
 3511W        W 7255   8.450   6.518  11.648  0.1871  0.1060  0.0717
 3512W        W 7256   0.096   6.808   9.208 -0.0824 -0.2092  0.2961
 3513W        W 7257   9.609   1.111  12.635  0.3657 -0.0358  0.2946
 3514W        W 7258   5.272   0.800  12.327  0.2060 -0.0589  0.0252
 3515W        W 7259   1.691   3.758  10.302  0.0006  0.0503 -0.0575
 3516W        W 7260   8.545   3.930   3.408 -0.2672  0.1712  0.0395
 3517W        W 7261   7.951   9.667   9.048 -0.0543 -0.2397  0.3179
 3518W        W 7262   6.706   9.549  11.875 -0.3002  0.1857 -0.3339
 3519W        W 7263   9.279   5.023  11.821  0.1275  0.3291 -0.1018
 3520W        W 7264   9.889   5.832   0.634  0.2159 -0.3841  0.0482
 3521W        W 7265   5.590   4.761  12.281  0.1490 -0.2269 -0.3251
 3522W        W 7266   1.674   6.118   2.610 -0.0982 -0.0653  0.0100
 3523W        W 7267   9.209   6.783   9.791  0.1142 -0.1322 -0.1582
 3524W        W 7268   7.111   0.949   3.535  0.4860 -0.1629  0.3691
 3525W        W 7269   9.362   0.288   0.143  0.2818  0.1009  0.2234
 3526W        W 7270   0.916   9.842   2.383  0.2923  0.0362  0.0495
 3527W        W 7271   6.252   7.254   2.824  0.2106  0.0567 -0.2200
 3528W        W 7272   3.756   8.502   2.241  0.2485 -0.1260  0.1329
 3529W        W 7273   0.122   7.117   3.226 -0.3050  0.0062 -0.0246
 3530W        W 7274   3.308   1.824  11.133  0.0096 -0.1456  0.1141
 3531W        W 7275   4.450   6.313   0.852 -0.1254 -0.0238 -0.1023
 3532W        W 7276   5.640   5.744   3.075 -0.1211  0.1450  0.1391
 3533W        W 7277   4.156   3.148   1.922  0.0047 -0.1985  0.0462
 3534W        W 7278   6.435   9.664   9.445  0.2956 -0.1884 -0.1986
 3535W        W 7279   3.229   3.789   1.590 -0.1994  0.0681 -0.0363
 3536W        W 7280   7.262   0.541   2.480 -0.3253 -0.2463 -0.2633
 3537W        W 7281   2.652   0.974   9.426  0.2020  0.1215  0.3647
 3538W        W 7282   0.777   3.808   2.974  0.1322  0.0070 -0.5545
 3539W        W 7283   8.154   0.254   3.735  0.1452 -0.1625 -0.0197
 3540W        W 7284   0.910   4.225  12.378 -0.0471  0.1322 -0.0239
 3541W        W 7285   6.025   7.579   0.977  0.1335  0.0374  0.3972
 3542W        W 7286   7.485   9.773   0.178 -0.2220 -0.0650  0.1062
 3543W        W 7287   0.618   9.918  10.389 -0.2333  0.0008 -0.1493
 3544W        W 7288   6.143   3.757  11.249 -0.2561  0.0553  0.3607
 3545W        W 7289   4.674   7.758  12.262 -0.2028  0.0673 -0.3026
 3546W        W 7290   0.304   8.747  11.389 -0.1940 -0.1602  0.0075
 3547W        W 7291   7.773   7.422   0.645  0.1163 -0.1241  0.1675
 3548W        W 7292   6.578   9.929   1.330 -0.1901  0.1640  0.3817
 3549W        W 7293   6.157   4.835   3.153 -0.1216 -0.2568 -0.1651
 3550W        W 7294   4.233   7.246   3.892  0.2534 -0.1487  0.1644
 3551W        W 7295   1.555   2.431   1.375 -0.1108 -0.0225  0.0226
 3552W        W 7296   6.937   1.568   3.559  0.0829  0.2015 -0.0155
 3553W        W 7297   8.549   8.613  11.897  0.1975  0.0891  0.0913
 3554W        W 7298   8.772   7.691  10.274 -0.1575  0.2758  0.1785
 3555W        W 7299   6.093   7.435  12.699 -0.1618  0.1620  0.0254
 3556W        W 7300   0.644   7.495  12.800 -0.3070  0.3540 -0.1588
 3557W        W 7301   1.247   2.396   3.173  0.1776  0.0956  0.0354
 3558W        W 7302   3.191   9.237  11.049  0.3142 -0.0743  0.2515
 3559W        W 7303   7.930   8.868   2.684 -0.1229 -0.1811 -0.1328
 3560W        W 7304   2.085   7.565   3.561 -0.2735 -0.1253  0.1170
 3561W        W 7305   3.442   4.629  11.083  0.2427 -0.2070 -0.2359
 3562W        W 7306   4.594   8.075   3.396 -0.1751 -0.0689 -0.0197
 3563W        W 7307   3.053   1.483   3.275 -0.2959  0.0001  0.2180
 3564W        W 7308   3.952   0.815   0.422 -0.3258  0.0947  0.3403
 3565W        W 7309   0.827   4.560   8.026  0.2001  0.0616  0.2229
 3566W        W 7310   7.509   1.774   2.682 -0.1398  0.4579 -0.3856
 3567W        W 7311   6.600   0.182  10.139  0.0491 -0.4087  0.1904
 3568W        W 7312   1.316   2.861   0.668 -0.2094 -0.0762 -0.0999
 3569W        W 7313   7.658   6.158   0.642  0.1511  0.0265  0.1912
 3570W        W 7314   7.371   3.801   0.073  0.0330 -0.0010  0.1257
 3571W        W 7315   7.189   2.291  10.055  0.2363 -0.1450 -0.1903
 3572W        W 7316   8.539   8.370   4.484  0.2922  0.0236  0.0152
 3573W        W 7317   0.303   9.464  12.508  0.0682 -0.2657 -0.0626
 3574W        W 7318   3.392   8.852   2.318  0.1725  0.1698 -0.1294
 3575W        W 7319   2.717   6.164  11.568  0.2620 -0.0152  0.0924
 3576W        W 7320   8.807   2.465  11.656  0.1012 -0.1069 -0.1100
 3577W        W 7321   6.216   9.239   9.338 -0.1575 -0.0473  0.0382
 3578W        W 7322   5.643   0.417   0.806 -0.1602 -0.0823 -0.0026
 3579W        W 7323   2.880   8.625   3.262 -0.0511 -0.0433 -0.2812
 3580W        W 7324   9.606   9.562  11.852  0.2419 -0.3000  0.0464
 3581W        W 7325   4.490   1.292  12.624  0.0716 -0.6389  0.1857
 3582W        W 7326   7.876   1.626   1.160  0.1389 -0.2090 -0.0813
 3583W        W 7327   5.861   8.955  11.883  0.5803  0.1391 -0.2074
 3584W        W 7328   4.410   5.533   0.261 -0.1941  0.0515  0.1198
 3585W        W 7329   9.816   4.853  12.084  0.1613  0.0820 -0.2081
 3586W        W 7330   0.252   1.386   9.869 -0.1359 -0.1882  0.0426
 3587W        W 7331   7.592   5.650   1.406 -0.0759  0.2991  0.1266
 3588W        W 7332   1.992   7.660  10.497  0.1126 -0.1425 -0.0685
 3589W        W 7333   4.456   8.001   1.769  0.1073 -0.0260  0.1467
 3590W        W 7334   2.530   6.023   3.586  0.0163 -0.4371  0.0256
 3591W        W 7335   4.661   5.197   5.101 -0.0422 -0.3396  0.1376
 3592W        W 7336   5.397   0.285  12.505  0.2033 -0.0156  0.2931
 3593W        W 7337   6.956   7.196   2.260 -0.1442 -0.0376  0.2069
 3594W        W 7338   2.473   4.321  12.776 -0.0955 -0.0085  0.0438
 3595W        W 7339   3.053   3.869  12.233  0.1628  0.3757  0.2516
 3596W        W 7340   6.003   4.938  10.418  0.2205 -0.0579  0.5415
 3597W        W 7341   3.288   9.163  11.623 -0.2405  0.1456 -0.0638
 3598W        W 7342   8.347   3.856   1.196  0.2168 -0.1690  0.0550
 3599W        W 7343   9.690   6.402   2.823 -0.0224  0.1860  0.1218
 3600W        W 7344   4.464   3.791  10.907 -0.1542  0.1220 -0.6102
 3601W        W 7345   6.641   7.601   2.880 -0.2859 -0.0179  0.0188
 3602W        W 7346   3.786   5.552   2.338  0.1069  0.4370 -0.0985
 3603W        W 7347   9.359   1.482   8.881  0.2575  0.2470 -0.2085
 3604W        W 7348   7.656   0.586  12.652 -0.2060 -0.0621 -0.0433
 3605W        W 7349   7.715   4.989   1.462  0.2307  0.0949  0.0354
 3606W        W 7350   1.323   9.307  10.274 -0.0846  0.0237 -0.0562
 3607W        W 7351   7.883   2.654  11.098  0.0537  0.0785  0.0157
 3608W        W 7352   3.142   7.486   2.557  0.0227 -0.0802 -0.1388
 3609W        W 7353   7.434   8.538  10.769 -0.1617 -0.0229  0.1143
 3610W        W 7354   9.085   9.826   2.605  0.0598  0.2317 -0.3497
 3611W        W 7355   5.167   5.109   0.684 -0.0474  0.0989 -0.1563
 3612W        W 7356   6.344   8.926   3.998  0.0461 -0.2311 -0.0452
 3613W        W 7357   3.019   6.420   8.297  0.5433  0.3116  0.1028
 3614W        W 7358   8.283   6.572   1.550 -0.0493  0.1583  0.3868
 3615W        W 7359   3.132   7.019   2.928 -0.3983 -0.0809  0.0471
 3616W        W 7360   7.539   9.421   8.295 -0.1286  0.0815  0.2551
 3617W        W 7361   8.604   8.843   9.842 -0.0106 -0.1910  0.0246
 3618W        W 7362   5.684   4.651   0.563 -0.1856 -0.0541 -0.1480
 3619W        W 7363   1.700   2.294   2.753  0.0773  0.1248  0.0736
 3620W        W 7364   4.920   0.278  12.239  0.0355  0.0171 -0.3964
 3621W        W 7365   5.376   0.193   4.535  0.2043  0.0819  0.2453
 3622W        W 7366   0.516   1.443  12.214 -0.1227  0.2261  0.2711
 3623W        W 7367   2.284   3.257   1.970  0.3327 -0.2493  0.1335
 3624W        W 7368   7.820   1.866   7.961 -0.0356 -0.1673 -0.3322
 3625W        W 7369   0.858   7.192  12.399 -0.2564  0.2229  0.0183
 3626W        W 7370   6.004   2.470   3.094  0.0924  0.0982 -0.0449
 3627W        W 7371   3.159   7.762  11.816  0.0736 -0.0161  0.2059
 3628W        W 7372   8.654   0.560  10.055 -0.1942 -0.0789 -0.2561
 3629W        W 7373   5.670   0.923   8.355  0.1217  0.0098 -0.0819
 3630W        W 7374   4.236   3.591   1.656 -0.0588 -0.3346  0.1979
 3631W        W 7375   8.884   7.374   0.099 -0.2673 -0.3507 -0.1670
 3632W        W 7376   0.738   3.345   1.414  0.2198 -0.1523 -0.0635
 3633W        W 7377   4.786   2.548   9.743 -0.2088  0.3356 -0.0782
 3634W        W 7378   6.571   3.425   0.718 -0.0768  0.0638 -0.3424
 3635W        W 7379   7.915   3.632  11.140  0.4030 -0.0410 -0.1205
 3636W        W 7380   1.902   0.188   2.414 -0.0152  0.3648 -0.0182
 3637W        W 7381   5.248   1.469  11.666  0.1130 -0.2009 -0.2020
 3638W        W 7382   3.912   6.704   1.846 -0.0320 -0.1949  0.2873
 3639W        W 7383   9.641   0.737   2.564  0.2390 -0.1705 -0.1715
 3640W        W 7384   7.467   6.913  12.305  0.1283  0.0212  0.2086
 3641W        W 7385   8.731   9.265   9.432 -0.0753 -0.0074 -0.1202
 3642W        W 7386   9.434   5.449   0.865 -0.1961  0.0157 -0.1248
 3643W        W 7387   0.297   7.739   9.112 -0.0755  0.3265 -0.1006
 3644W        W 7388   0.901   2.015  10.391 -0.4144  0.0400  0.0803
 3645W        W 7389   0.217   5.421   0.642  0.1438 -0.1881 -0.1174
 3646W        W 7390   9.699   2.592  10.309  0.2493 -0.2616  0.1416
 3647W        W 7391   2.895   7.015  10.549 -0.2525 -0.0423  0.0227
 3648W        W 7392   4.469   5.576   3.622 -0.1668  0.2503  0.0012
 3649W        W 7393   0.834   5.804  12.610  0.3917 -0.0131 -0.1692
 3650W        W 7394   2.413   9.709   1.286 -0.1158  0.0365 -0.1943
 3651W        W 7395   0.593   5.182   3.992  0.2146  0.2311  0.0163
 3652W        W 7396   0.615   5.531   2.480  0.0507  0.0753 -0.2583
 3653W        W 7397   0.836   3.017   9.376  0.3192 -0.1988 -0.2288
 3654W        W 7398   2.096   2.390   2.071 -0.1214 -0.0312 -0.4410
 3655W        W 7399   6.240   3.320   0.322  0.1081  0.2343 -0.0383
 3656W        W 7400   4.057   9.646   2.251  0.1432  0.1716 -0.1237
 3657W        W 7401   1.585   6.404  11.758 -0.1580  0.4487 -0.2290
 3658W        W 7402   0.838   4.569   3.507  0.3668 -0.1106  0.1493
 3659W        W 7403   4.860   7.978   2.079  0.0453  0.0693 -0.0839
 3660W        W 7404   5.107   0.400   9.290  0.0983  0.1029 -0.1313
 3661W        W 7405   4.718   7.224   3.207  0.1070 -0.1189 -0.1376
 3662W        W 7406   2.060   3.935   2.974  0.0394 -0.2198  0.0136
 3663W        W 7407   0.600   4.313  10.347 -0.1839  0.1560 -0.0819
 3664W        W 7408   1.069   5.481  11.647 -0.1625 -0.0629  0.1923
 3665W        W 7409   4.959   9.760   1.945  0.0679  0.3311  0.0595
 3666W        W 7410   0.056   0.110   2.273  0.0144  0.0703  0.2985
 3667W        W 7411   1.755   3.489   9.613  0.0190 -0.1382 -0.0315
 3668W        W 7412   7.653   0.912   0.720  0.1142  0.1624 -0.1928
 3669W        W 7413   8.839   4.465   4.200  0.1237  0.1597 -0.0947
 3670W        W 7414   4.895   2.112  10.590  0.1351 -0.3666  0.5199
 3671W        W 7415   3.204   9.552   9.523 -0.0828  0.0469 -0.1485
 3672W        W 7416   6.366   7.222   0.682 -0.2898  0.0495  0.2463
 3673W        W 7417   2.448   9.493  11.593 -0.4252  0.2521 -0.0141
 3674W        W 7418   1.919   2.954   3.453 -0.2466  0.1285 -0.1389
 3675W        W 7419   6.837   0.576   3.642 -0.1045  0.2984  0.3712
 3676W        W 7420   4.455   9.494   3.169  0.2240  0.0337  0.2932
 3677W        W 7421   5.021   3.518  11.787 -0.0604  0.3238 -0.0127
 3678W        W 7422   7.021   5.775   3.220 -0.3515 -0.2647  0.1203
 3679W        W 7423   9.720   1.926   1.966  0.2166 -0.0610  0.1793
 3680W        W 7424   2.702   6.302   9.564 -0.0149 -0.1761  0.0776
 3681W        W 7425   5.734   2.433   2.152  0.0033  0.1566 -0.2344
 3682W        W 7426   9.826   1.679  10.197  0.2849 -0.0683 -0.1130
 3683W        W 7427   9.193   8.804  11.154  0.0977  0.0446  0.1000
 3684W        W 7428   1.797   9.033  11.144  0.4503 -0.2741 -0.1444
 3685W        W 7429   9.648   7.542   9.878  0.0863 -0.1595  0.0748
 3686W        W 7430   4.578   1.145   3.463  0.0455  0.2780 -0.2144
 3687W        W 7431   6.905   3.163  11.277  0.3044 -0.0445  0.0562
 3688W        W 7432   8.516   9.189   8.031  0.0836  0.1411 -0.1226
 3689W        W 7433   4.473   0.991   2.998 -0.0019 -0.2204  0.1436
 3690W        W 7434   9.777   7.915   8.903 -0.2018  0.2481 -0.0104
 3691W        W 7435   2.219   8.914  10.890 -0.0049 -0.0113 -0.3110
 3692W        W 7436   9.542   4.864   9.428 -0.1405  0.0694 -0.1076
 3693W        W 7437   8.998   3.605   8.979 -0.0260 -0.1096  0.1584
 3694W        W 7438   3.717   9.117   0.252 -0.1028 -0.1946  0.2999
 3695W        W 7439   4.919   2.921   0.240 -0.2701 -0.0094  0.0341
 3696W        W 7440   6.708   4.227  10.351 -0.1266 -0.0808  0.1218
 3697W        W 7441   0.508   7.845  12.024  0.1289 -0.1915  0.0913
 3698W        W 7442   5.246   9.880   9.167 -0.1776 -0.2761  0.2067
 3699W        W 7443   3.064   9.897   0.723  0.1256  0.1393  0.0508
 3700W        W 7444   9.907   7.290   2.490  0.0017  0.2883  0.0804
 3701W        W 7445   6.427   0.439   1.024 -0.1372  0.1759  0.0628
 3702W        W 7446   5.324   9.469   2.032 -0.0448  0.0757  0.0471
 3703W        W 7447   0.558   5.155  10.365 -0.6233 -0.1366 -0.0877
 3704W        W 7448   8.373   8.222  11.634  0.3197 -0.0345 -0.1665
 3705W        W 7449   9.577   3.968  12.040 -0.2760  0.2999 -0.0134
 3706W        W 7450   8.595   1.080   1.936 -0.3051 -0.0785  0.0429
 3707W        W 7451   0.448   1.597  11.131 -0.3094 -0.0328  0.2393
 3708W        W 7452   0.721   2.353   3.335 -0.1162  0.3559 -0.0300
 3709W        W 7453   3.401   4.297   2.844 -0.2628 -0.0809  0.0542
 3710W        W 7454   4.545   2.373   1.565 -0.0177 -0.1150  0.3881
 3711W        W 7455   5.348   2.489  12.119 -0.1162 -0.0686  0.2781
 3712W        W 7456   5.030   7.612   2.405 -0.3067  0.0296 -0.3557
 3713W        W 7457   2.917   5.586  11.792  0.1288  0.1674 -0.2832
 3714W        W 7458   7.912   4.675   8.848 -0.2057  0.2184 -0.0811
 3715W        W 7459   7.677   0.108  10.200 -0.0596  0.1986  0.2372
 3716W        W 7460   6.107   8.998   8.246  0.0248 -0.1089  0.2219
 3717W        W 7461   4.214   7.713  11.969 -0.5143 -0.0744 -0.1765
 3718W        W 7462   2.926   4.278  11.809  0.1859 -0.0963  0.1680
 3719W        W 7463   8.701   2.195  12.126  0.0003  0.0969  0.2099
 3720W        W 7464   0.243   3.044   2.349 -0.1421  0.0549 -0.0786
 3721W        W 7465   7.978   6.712  10.120 -0.1070 -0.1084 -0.1128
 3722W        W 7466   7.346   5.052   9.937  0.2726 -0.0085  0.2057
 3723W        W 7467   7.713   8.382   1.193  0.1654 -0.1396 -0.0984
 3724W        W 7468   8.509   6.734  10.827 -0.2091 -0.0585  0.2557
 3725W        W 7469   9.766   8.906   1.217 -0.0444  0.1420  0.0599
 3726W        W 7470   0.260   8.156   9.482  0.1928 -0.1669 -0.1559
 3727W        W 7471   6.654   8.686   3.053  0.0861  0.1346  0.1208
 3728W        W 7472   0.990   4.353   9.301  0.0687 -0.0304 -0.0544
 3729W        W 7473   4.915   7.999   9.360 -0.0680 -0.1664  0.2280
 3730W        W 7474   2.808   9.526  10.032 -0.0069  0.1306 -0.1120
 3731W        W 7475   2.894   2.279   2.812  0.1748  0.0409  0.0034
 3732W        W 7476   7.445   0.376   0.279  0.0748 -0.0868 -0.3114
 3733W        W 7477   1.910   2.430   0.966 -0.1527 -0.0259  0.0862
 3734W        W 7478   1.504   6.393  12.733 -0.1053  0.0792 -0.0404
 3735W        W 7479   0.580   0.147  10.897 -0.0507 -0.0241 -0.3292
 3736W        W 7480   0.427   5.966  11.398 -0.1837  0.0564  0.0259
 3737W        W 7481   9.625   4.811   0.323  0.1833 -0.1427  0.0250
 3738W        W 7482   3.559   9.126  10.254 -0.4416 -0.2566 -0.0698
 3739W        W 7483   5.536   9.483   3.035 -0.4196  0.0547  0.0973
 3740W        W 7484   9.629   0.293   1.955 -0.1728 -0.1402  0.0231
 3741W        W 7485   2.830   3.204   1.039  0.1137  0.0302  0.0417
 3742W        W 7486   9.214   8.688   3.362  0.0311 -0.1592 -0.2737
 3743W        W 7487   9.396   4.286   0.415  0.1308 -0.1070 -0.1381
 3744W        W 7488   4.521   2.106   9.690 -0.1741  0.0334  0.0749
 3745W        W 7489   3.172   1.042  12.217  0.2793 -0.3475 -0.0100
 3746W        W 7490   0.434   4.510   4.450  0.1595  0.2832  0.0150
 3747W        W 7491   1.155   8.100   9.598  0.0521  0.3857  0.2149
 3748W        W 7492   4.795   4.693   4.179 -0.1136  0.4271 -0.3706
 3749W        W 7493   6.961   9.708   9.519 -0.1502 -0.1189 -0.1083
 3750W        W 7494   7.233   2.102   1.613  0.0386 -0.1569  0.1661
 3751W        W 7495   5.394   8.223   0.399  0.0302  0.0673 -0.0069
 3752W        W 7496   9.901   8.710   3.126 -0.0759  0.0817  0.0046
 3753W        W 7497   2.367   8.608   3.595  0.3100 -0.0108 -0.0409
 3754W        W 7498   2.733   4.103   2.273 -0.2776 -0.0939  0.3025
 3755W        W 7499   0.277   9.492   9.312 -0.1491  0.0454  0.0255
 3756W        W 7500   0.667   9.422  11.050 -0.2109 -0.1444  0.0317
 3757W        W 7501   0.847   5.972   1.069 -0.0300  0.1352 -0.2557
 3758W        W 7502   9.588   0.952   3.299 -0.2186 -0.2230 -0.0747
 3759W        W 7503   9.090   7.374  10.538  0.2498  0.2575 -0.2846
 3760W        W 7504   0.792   1.206  11.155 -0.0984 -0.0456 -0.0241
 3761W        W 7505   0.437   6.939  10.161  0.1461  0.2136  0.1698
 3762W        W 7506   1.445   7.619  12.105  0.0418 -0.0787  0.3701
 3763W        W 7507   4.992   7.579   3.539 -0.4513 -0.0630  0.2685
 3764W        W 7508   3.420   1.134   3.430  0.0723  0.0160  0.0010
 3765W        W 7509   8.151   0.201   8.924  0.0055  0.0029  0.0260
 3766W        W 7510   6.772   9.084  10.711  0.1382  0.1291 -0.1168
 3767W        W 7511   2.915   0.074   1.472  0.3037 -0.2593 -0.0307
 3768W        W 7512   7.173   4.410  10.494  0.1041  0.2809  0.1219
 3769W        W 7513   2.725   3.173   2.077 -0.2906 -0.0522  0.0017
 3770W        W 7514   9.670   5.200   2.307 -0.4250 -0.0317  0.2518
 3771W        W 7515   6.511   0.393   0.510  0.0435  0.0143 -0.2221
 3772W        W 7516   7.344   3.097  10.046 -0.2078  0.2800 -0.1450
 3773W        W 7517   2.082   3.589  11.022 -0.1544  0.0649  0.2283
 3774W        W 7518   0.972   0.360  10.532 -0.1164 -0.3890 -0.1513
 3775W        W 7519   6.862   6.770   0.822  0.1144 -0.1480  0.3511
 3776W        W 7520   7.566   6.074   8.308  0.1742  0.2676  0.0247
 3777W        W 7521   4.552   7.154  11.722  0.2100  0.0294  0.2424
 3778W        W 7522   2.208   8.224   0.205  0.0511  0.0116 -0.0778
 3779W        W 7523   3.495   7.035   4.352 -0.2564 -0.2123  0.1602
 3780W        W 7524   4.584   8.349  12.154  0.2451  0.3246  0.2525
 3781W        W 7525   7.897   4.054   0.478  0.2699 -0.1375 -0.0770
 3782W        W 7526   3.048   2.151  11.793  0.3189 -0.0368  0.1627
 3783W        W 7527   1.237   9.155   8.959 -0.0481  0.1541 -0.3167
 3784W        W 7528   7.675   4.258   8.956 -0.1031  0.0292 -0.0113
 3785W        W 7529   0.418   2.704   3.172 -0.0186  0.0136  0.1113
 3786W        W 7530   6.018   2.031   0.886 -0.3400 -0.0958 -0.0950
 3787W        W 7531   9.385   0.305   9.839 -0.4259  0.1526 -0.0274
 3788W        W 7532   8.304   6.395   2.804  0.1208  0.0822  0.0768
 3789W        W 7533   8.430   1.830   2.587  0.1163  0.1223 -0.1978
 3790W        W 7534   9.242   8.852  12.569 -0.1611 -0.0997 -0.4695
 3791W        W 7535   5.816   7.182   9.955 -0.1108  0.0924 -0.1096
 3792W        W 7536   5.332   0.109   1.765  0.1168  0.0052 -0.0000
 3793W        W 7537   8.892   4.597   2.269 -0.0162 -0.0147  0.2078
 3794W        W 7538   7.396   7.799   2.176 -0.0053 -0.3027 -0.3926
 3795W        W 7539   2.242   2.628  12.052 -0.0795  0.1406  0.2365
 3796W        W 7540   1.667   6.583   1.151  0.0370 -0.0493  0.0040
 3797W        W 7541   0.926   0.917   3.029 -0.0247  0.0300  0.1096
 3798W        W 7542   6.843   2.263  11.420  0.2246  0.4117 -0.0281
 3799W        W 7543   7.761   5.157   9.031 -0.1359  0.0704  0.1420
 3800W        W 7544   1.749   4.133  11.326  0.0846 -0.0051 -0.1082
 3801W        W 7545   2.380   8.530  11.106  0.0602 -0.1429  0.4553
 3802W        W 7546   6.210   1.635   0.557 -0.1220 -0.0351 -0.2031
 3803W        W 7547   2.017   3.421   8.330  0.1378 -0.0652 -0.0890
 3804W        W 7548   0.539   2.648   9.119  0.2034  0.2404 -0.0441
 3805W        W 7549   3.134   1.316  11.523 -0.4614 -0.2686 -0.0237
 3806W        W 7550   4.370   7.651   4.110 -0.1526  0.0169 -0.1233
 3807W        W 7551   1.180   5.984  11.205  0.0690  0.1705 -0.3970
 3808W        W 7552   3.759   5.270   3.304  0.0284  0.1066  0.2586
 3809W        W 7553   3.564   4.376   3.378  0.0004  0.3929  0.1057
 3810W        W 7554   8.875   5.800  10.558 -0.0083  0.0768 -0.0617
 3811W        W 7555   0.839   7.849   0.814 -0.1765  0.2265  0.0744
 3812W        W 7556   4.487   9.217   9.483 -0.2420  0.0694 -0.1149
 3813W        W 7557   8.864   7.077  10.082  0.0739 -0.3681  0.1681
 3814W        W 7558   4.471   1.013  11.844 -0.2158  0.1879  0.2306
 3815W        W 7559   3.190   5.616  12.253 -0.2336 -0.0098  0.1173
 3816W        W 7560   6.512   7.073  11.572  0.1314  0.0101 -0.0349
 3817W        W 7561   0.599   2.837   2.159  0.1996  0.0859 -0.0122
 3818W        W 7562   0.616   3.286   0.036  0.1808  0.2052 -0.0656
 3819W        W 7563   5.698   1.713   1.136  0.5947 -0.1106 -0.2256
 3820W        W 7564   9.309   7.624   2.079 -0.3590  0.1388 -0.1847
 3821W        W 7565   2.182   2.827   4.380  0.0432  0.2185  0.1278
 3822W        W 7566   7.215   7.850   1.692 -0.1241 -0.1123 -0.0171
 3823W        W 7567   6.423   3.866   2.084 -0.1471  0.1782 -0.2026
 3824W        W 7568   0.280   9.089   9.783 -0.1106  0.2119 -0.0169
 3825W        W 7569   1.312   3.832  10.634  0.1548  0.1026  0.2020
 3826W        W 7570   4.180   8.487   9.207  0.0872 -0.1270  0.1656
 3827W        W 7571   1.163   5.673  12.165 -0.3192  0.1757  0.0086
 3828W        W 7572   0.323   6.228   1.580 -0.1160  0.0678  0.0146
 3829W        W 7573   7.569   8.060  12.821  0.1622  0.2813  0.0243
 3830W        W 7574   7.235   3.382   0.709  0.4102  0.0959  0.0638
 3831W        W 7575   2.322   5.703  10.036  0.3338 -0.1278  0.1305
 3832W        W 7576   1.383   9.266  10.777 -0.0319  0.1035 -0.1908
 3833W        W 7577   3.870   7.749   0.975 -0.0828  0.1777  0.0795
 3834W        W 7578   3.074   5.619   8.770 -0.2024 -0.2380  0.1857
 3835W        W 7579   0.738   7.346   3.060 -0.1190  0.2210 -0.3621
 3836W        W 7580   8.011   5.004   7.480  0.0301  0.2117 -0.2173
 3837W        W 7581   6.994   9.692   0.097 -0.0778 -0.3102 -0.1714
 3838W        W 7582   4.856   0.694  12.009  0.1401 -0.0190  0.2019
 3839W        W 7583   6.273   7.427  10.216  0.3534 -0.0025  0.2518
 3840W        W 7584   1.495   9.903   1.444  0.1912 -0.2384 -0.1125
 3841W        W 7585   6.700   1.377   2.359  0.0002 -0.4056  0.0544
 3842W        W 7586   5.499   2.744   1.435 -0.1535  0.0972  0.0657
 3843W        W 7587   2.500   0.025  10.217 -0.3584 -0.1452 -0.3880
 3844W        W 7588   2.084   4.956   8.749 -0.1977 -0.2539  0.0545
 3845W        W 7589   7.868   0.580   0.382 -0.5170 -0.0649 -0.0626
 3846W        W 7590   1.937   2.742  10.912  0.1453 -0.2908 -0.1106
 3847W        W 7591   6.766   2.787   3.483 -0.1699  0.0527 -0.0457
 3848W        W 7592   3.146   5.883   1.181  0.1056 -0.0885 -0.0222
 3849W        W 7593   0.470   7.155   2.617  0.1839  0.3517 -0.1573
 3850W        W 7594   4.094   7.347   0.221  0.0498 -0.2443 -0.0813
 3851W        W 7595   5.809   0.503  12.198  0.1528  0.0400 -0.2147
 3852W        W 7596   0.636   8.031   1.754 -0.0237 -0.0652  0.0746
 3853W        W 7597   6.393   4.934   0.963 -0.0711  0.0339  0.0612
 3854W        W 7598   1.554   6.955   3.867  0.0235  0.1612  0.0891
 3855W        W 7599   6.900   0.308   9.081 -0.1292 -0.1986 -0.0264
 3856W        W 7600   6.047   8.802   0.033  0.0652 -0.1684  0.2212
 3857W        W 7601   9.700   6.005  12.021 -0.0014  0.0219  0.1855
 3858W        W 7602   7.858   1.678   1.846 -0.0123 -0.3560  0.2493
 3859W        W 7603   5.666   5.225   0.497 -0.0839 -0.0589  0.0458
 3860W        W 7604   9.504   3.932   3.875  0.2363  0.1767 -0.0522
 3861W        W 7605   1.412   6.795   2.976 -0.0833  0.3621 -0.0651
 3862W        W 7606   6.320   5.153  10.139 -0.0498  0.2217 -0.0473
 3863W        W 7607   6.340   1.645  12.791  0.0503 -0.0942  0.1277
 3864W        W 7608   7.053   3.962  10.145  0.2556 -0.0459  0.1374
 3865W        W 7609   1.775   2.901   9.040  0.0845  0.0374  0.1795
 3866W        W 7610   6.962   7.982   4.911  0.2016 -0.0467  0.0385
 3867W        W 7611   2.883   9.518   1.319 -0.1121  0.1334  0.3655
 3868W        W 7612   3.008   6.487   2.683 -0.0096  0.0140 -0.1104
 3869W        W 7613   8.624   2.917   8.459 -0.0231  0.1020 -0.0086
 3870W        W 7614   1.316   6.949  10.701  0.0419 -0.3492 -0.0418
 3871W        W 7615   5.255   4.223   2.807  0.1160 -0.3438 -0.0331
 3872W        W 7616   8.111   6.968  11.727 -0.1068  0.0761 -0.0534
 3873W        W 7617   3.355   4.902  12.340  0.1338  0.1068 -0.0790
 3874W        W 7618   7.542   9.120   1.446  0.2338 -0.1077  0.0021
 3875W        W 7619   6.798   8.762   3.762  0.2197 -0.1440  0.0145
 3876W        W 7620   1.519   8.480  12.564 -0.0869  0.2814 -0.0216
 3877W        W 7621   9.501   8.008  12.144 -0.3171 -0.1697 -0.0781
 3878W        W 7622   1.511   6.122   3.558 -0.1991 -0.0213  0.0609
 3879W        W 7623   7.515   2.105  10.655  0.0960  0.0539  0.1718
 3880W        W 7624   1.452   4.895   9.363 -0.0391  0.1012 -0.0326
 3881W        W 7625   2.655   2.424  12.196 -0.2195  0.0186  0.2551
 3882W        W 7626   1.599   7.439  10.702 -0.0374 -0.0900 -0.1790
 3883W        W 7627   4.096   4.566   0.626 -0.1367  0.2310  0.0816
 3884W        W 7628   5.432   7.878   1.274  0.0962 -0.2097 -0.0100
 3885W        W 7629   9.448   7.782  10.730  0.3971  0.3167 -0.0509
 3886W        W 7630   8.872   8.038   9.454  0.0375  0.1890  0.1641
 3887W        W 7631   0.620   8.951  11.785 -0.1599 -0.0035  0.2544
 3888W        W 7632   6.577   9.062   0.649  0.1367  0.1095  0.1973
 3889W        W 7633   1.322   6.988   0.935  0.1621 -0.2274  0.1504
 3890W        W 7634   0.267   1.889   9.833  0.4878 -0.3243  0.0048
 3891W        W 7635   1.268   6.885  11.612 -0.1565  0.1160  0.3695
 3892W        W 7636   8.226   7.488   0.442  0.1842  0.1040  0.0374
 3893W        W 7637   3.855   2.833   2.283  0.3148 -0.1033 -0.2334
 3894W        W 7638   8.273   3.745   4.223 -0.0432 -0.1724  0.2382
 3895W        W 7639   0.138   5.125  10.609  0.0806 -0.0981 -0.1571
 3896W        W 7640   6.191   9.499  10.015  0.1228  0.1804 -0.2478
 3897W        W 7641   4.798   5.872  12.224 -0.1334 -0.1554 -0.0560
 3898W        W 7642   9.428   4.494   2.473 -0.3319 -0.0290  0.0426
 3899W        W 7643   3.489   7.061   2.579 -0.0358  0.3382 -0.0893
 3900W        W 7644   1.685   9.619   1.844 -0.3784 -0.3185  0.1566
 3901W        W 7645   3.631   6.388  10.421 -0.2644 -0.1917 -0.0086
 3902W        W 7646   0.987   6.657  10.839 -0.0660 -0.0168 -0.2873
 3903W        W 7647   5.374   2.566   2.465 -0.0099  0.2191  0.0661
 3904W        W 7648   9.580   6.429   4.691 -0.1190  0.1200  0.1965
 3905W        W 7649   8.697   7.379   1.273  0.3453  0.1045  0.1236
 3906W        W 7650   2.955   6.918   3.646  0.1172  0.2622  0.3865
 3907W        W 7651   9.181   8.763   8.699  0.1141  0.1362  0.0248
 3908W        W 7652   2.955   9.787   0.222  0.5594 -0.1032 -0.0142
 3909W        W 7653   6.754   2.370   4.692 -0.1408  0.1109  0.3545
 3910W        W 7654   7.990   7.090   2.461 -0.1595 -0.1373  0.0268
 3911W        W 7655   1.364   4.129   1.704  0.0697  0.0308 -0.0048
 3912W        W 7656   7.024   6.498  12.410 -0.3444  0.0003 -0.0068
 3913W        W 7657   8.109   8.685  11.567 -0.1235  0.0533  0.2033
 3914W        W 7658   9.406   9.012  10.688 -0.0036 -0.2679 -0.0756
 3915W        W 7659   2.132   5.532  12.127  0.0171 -0.0072 -0.0127
 3916W        W 7660   3.208   7.426  11.409 -0.0925  0.0669  0.0931
 3917W        W 7661   4.269   0.682  10.742  0.3177 -0.0613 -0.2980
 3918W        W 7662   7.508   7.715  12.244 -0.4086  0.2300 -0.2208
 3919W        W 7663   7.182   5.030   0.995 -0.3503  0.0616 -0.2053
 3920W        W 7664   1.770   4.908  11.396 -0.1313  0.1311 -0.0680
 3921W        W 7665   9.436   6.658  10.349  0.5172 -0.1857  0.4158
 3922W        W 7666   4.040   7.242   4.440  0.1060 -0.3357 -0.0879
 3923W        W 7667   8.415   4.329  12.158 -0.1875 -0.1346 -0.3966
 3924W        W 7668   4.169   2.415  11.338  0.1331 -0.0622  0.1796
 3925W        W 7669   1.039   1.305  11.574  0.0481 -0.2117 -0.0401
 3926W        W 7670   4.843   7.010   9.277  0.1341  0.0714  0.4355
 3927W        W 7671   5.156   4.778   9.197  0.2227 -0.0487 -0.0071
 3928W        W 7672   6.435   6.099   9.720 -0.2385  0.0562 -0.0411
 3929W        W 7673   4.796   6.024  12.678 -0.0846  0.3050  0.2893
 3930W        W 7674   2.387   8.761   0.958  0.0796 -0.3738 -0.1429
 3931W        W 7675   2.173   4.481   3.711 -0.1037  0.3514 -0.2053
 3932W        W 7676   0.694   2.108   2.483 -0.2772 -0.1982  0.0975
 3933W        W 7677   3.298   0.040  12.702  0.0526  0.3819  0.3314
 3934W        W 7678   5.696   6.658  11.711 -0.1131  0.0965  0.1862
 3935W        W 7679   8.214   7.119   1.412  0.2654  0.2059  0.2653
 3936W        W 7680   2.305   9.652   2.519 -0.2921  0.0298 -0.0689
 3937W        W 7681   1.442   9.477   0.337  0.0677 -0.0055  0.1759
 3938W        W 7682   3.667   2.896   9.841 -0.0716 -0.4514  0.1714
 3939W        W 7683   6.607   7.936   7.750  0.1875 -0.1621 -0.2062
 3940W        W 7684   4.325   7.280  12.261  0.0432  0.1278  0.0365
 3941W        W 7685   9.261   1.936   1.051  0.0169  0.1073  0.1714
 3942W        W 7686   4.013   5.590   1.423  0.0225 -0.0028 -0.3015
 3943W        W 7687   1.608   7.503   9.519 -0.3019 -0.0266 -0.0078
 3944W        W 7688   5.208   0.842   2.374 -0.2179  0.0445 -0.3122
 3945W        W 7689   1.933   1.253  11.262  0.4248 -0.1632 -0.0128
 3946W        W 7690   8.231   5.505   0.650 -0.2663 -0.1779  0.3465
 3947W        W 7691   6.647   3.712   2.781 -0.0267 -0.1826  0.0742
 3948W        W 7692   2.937   6.025   4.133  0.3243  0.2487  0.0093
 3949W        W 7693   9.553   4.346   4.318  0.1720  0.0175 -0.1512
 3950W        W 7694   2.516   8.619  10.637 -0.0427 -0.1357 -0.0567
 3951W        W 7695   9.340   3.318   4.167  0.0996 -0.1558  0.0226
 3952W        W 7696   5.357   6.379   8.002  0.1763 -0.1328 -0.2895
 3953W        W 7697   3.009   8.786  10.583 -0.1153  0.1047  0.1033
 3954W        W 7698   1.346   0.198   2.417 -0.0298 -0.1220  0.0039
 3955W        W 7699   6.226   9.113   4.566  0.0485  0.1759 -0.0357
 3956W        W 7700   0.099   8.682   9.486  0.4194  0.1742 -0.1257
 3957W        W 7701   8.222   2.222  11.311  0.2080  0.0145 -0.0265
 3958W        W 7702   2.902   1.445   2.743  0.0073  0.0927 -0.1866
 3959W        W 7703   4.674   9.869  10.218  0.0739 -0.0429 -0.0761
 3960W        W 7704   6.447   1.892   3.490  0.1255 -0.3064 -0.2550
 3961W        W 7705   4.833   0.005   8.783  0.0327  0.2190 -0.6213
 3962W        W 7706   3.079   0.522  11.179 -0.0877  0.1162 -0.1452
 3963W        W 7707   9.392   7.402   4.373  0.1288  0.0034 -0.0444
 3964W        W 7708   3.576   0.188   1.420 -0.2123  0.0000 -0.3296
 3965W        W 7709   8.961   4.035   9.386  0.0465  0.0121 -0.1974
 3966W        W 7710   5.687   2.022   3.177 -0.0293 -0.1480 -0.0605
 3967W        W 7711   4.288   9.297   8.253 -0.1615  0.0834 -0.1060
 3968W        W 7712   0.969   3.934   0.497 -0.1706  0.1887 -0.0197
 3969W        W 7713   3.756   6.637  11.713 -0.0249 -0.0293  0.0299
 3970W        W 7714   5.338   0.990  10.044 -0.0191  0.1422  0.2066
 3971W        W 7715   3.424   5.313   8.929 -0.0639  0.4048 -0.2305
 3972W        W 7716   6.203   3.295   8.247 -0.0435  0.3541 -0.0674
 3973W        W 7717   4.974   2.394  11.031  0.4267  0.1523  0.0160
 3974W        W 7718   3.030   0.493   0.592 -0.0387  0.0364 -0.2663
 3975W        W 7719   0.434   7.935  10.153  0.0258  0.0706 -0.4906
 3976W        W 7720   8.809   0.011   0.846 -0.2006  0.2485  0.3731
 3977W        W 7721   0.620   9.764  11.763  0.0023 -0.1555 -0.0991
 3978W        W 7722   1.643   8.655   0.877  0.2193  0.1034 -0.0658
 3979W        W 7723   0.729   8.934   1.244 -0.3335  0.2251 -0.0640
 3980W        W 7724   0.057   7.034   0.386 -0.2358 -0.1158  0.0479
 3981W        W 7725   3.076   6.544   2.062  0.1349 -0.2335  0.1485
 3982W        W 7726   0.069   2.662   4.388  0.1321 -0.1090  0.0655
 3983W        W 7727   3.234   8.312   2.226  0.0036  0.1524  0.1544
 3984W        W 7728   1.950   6.948   9.151  0.0372 -0.1324 -0.0753
 3985W        W 7729   9.242   1.294  10.219  0.0822 -0.1751 -0.0446
 3986W        W 7730   6.736   0.764  12.526 -0.1715  0.2099 -0.2044
 3987W        W 7731   8.984   8.159   3.649  0.0193  0.1376  0.2928
 3988W        W 7732   5.999   8.592   8.606 -0.0261  0.0181  0.1531
 3989W        W 7733   7.928   4.434  12.446  0.1924  0.0039  0.1297
 3990W        W 7734   0.555   3.572  11.947  0.0869 -0.2888 -0.0802
 3991W        W 7735   4.587   4.679   4.987  0.1577  0.3144 -0.1071
 3992W        W 7736   4.899   1.337   0.729 -0.1048  0.3337  0.2737
 3993W        W 7737   6.670   2.452   8.552 -0.0789  0.2118 -0.1558
 3994W        W 7738   1.376   6.630  12.322 -0.0965  0.3488  0.3058
 3995W        W 7739   5.730   4.076   9.460  0.2274  0.1454 -0.3205
 3996W        W 7740   4.504   0.738   0.056  0.0491  0.0676 -0.1436
 3997W        W 7741   1.033   3.093   1.066 -0.1331  0.2975  0.0712
 3998W        W 7742   3.876   8.718  10.773  0.1712  0.1512  0.1097
 3999W        W 7743   2.617   2.119  10.337 -0.1128  0.1950  0.0666
 4000W        W 7744   2.116   0.646  12.486  0.1201  0.0461 -0.1677
 4001W        W 7745   2.362   3.162  10.633 -0.0187  0.4012  0.0041
 4002W        W 7746   2.059   5.031   1.039 -0.4686 -0.2006  0.1676
 4003W        W 7747   8.459   2.372   2.569  0.0385  0.2357 -0.0416
 4004W        W 7748   3.957   5.780   0.050  0.0934  0.0884 -0.0501
 4005W        W 7749   8.765   7.912   8.993  0.0598 -0.3504 -0.1302
 4006W        W 7750   2.140   8.199   2.695 -0.1276 -0.1692 -0.1875
 4007W        W 7751   8.657   2.073   1.783  0.0024  0.0998 -0.1355
 4008W        W 7752   1.293   8.391  10.515 -0.0697  0.0649 -0.0324
 4009W        W 7753   8.851   1.662   8.882 -0.1977  0.0983  0.1874
 4010W        W 7754   9.271   9.341  11.086  0.0065  0.1560 -0.0997
 4011W        W 7755   1.229   9.816   2.005  0.2820 -0.1147  0.1594
 4012W        W 7756   1.184   7.969   1.685  0.1632 -0.1006  0.3938
 4013W        W 7757   6.958   4.615   0.056  0.1682 -0.2255 -0.4026
 4014W        W 7758   6.424   3.751   3.226 -0.1447 -0.1790  0.0426
 4015W        W 7759   5.761   0.808   3.863 -0.1741  0.4125 -0.0882
 4016W        W 7760   2.735   6.171   0.604  0.1049  0.1694  0.1126
 4017W        W 7761   6.097   0.093   9.304  0.5694  0.2177 -0.0510
 4018W        W 7762   5.304   6.724   4.144  0.0819 -0.0310 -0.1265
 4019W        W 7763   3.538   7.824   3.898  0.0693 -0.0770  0.2125
 4020W        W 7764   2.396   6.990  10.431 -0.1297 -0.4077  0.0762
 4021W        W 7765   6.786   8.143  10.240  0.0494  0.0652 -0.1738
 4022W        W 7766   8.355   8.443   8.694 -0.1480  0.2879 -0.0716
 4023W        W 7767   9.510   9.491   3.502  0.0394  0.0596 -0.3804
 4024W        W 7768   9.287   7.312   9.532  0.1535  0.1360  0.0250
 4025W        W 7769   7.141   2.100   2.841  0.0287  0.0782  0.0213
 4026W        W 7770   1.638   7.660   2.074  0.0622 -0.3368 -0.0675
 4027W        W 7771   3.186   8.337  11.190 -0.4454  0.3210 -0.1801
 4028W        W 7772   0.929   4.875   9.269  0.0495  0.1968 -0.3275
 4029W        W 7773   5.479   1.030   4.714  0.1577 -0.0313 -0.4365
 4030W        W 7774   6.769   4.939   0.610 -0.0927 -0.2264  0.1274
 4031W        W 7775   7.990   2.044   3.335 -0.1471  0.0406 -0.0418
 4032W        W 7776   5.394   8.266  12.520 -0.0401  0.0167  0.0192
 4033W        W 7777   5.756   1.973  11.014  0.0287  0.1185 -0.1085
 4034W        W 7778   1.001   3.757  11.092 -0.0096  0.0126 -0.1222
 4035W        W 7779   8.288   8.588  12.359 -0.0951  0.1256  0.1537
 4036W        W 7780   7.597   0.724   2.111 -0.1813  0.0039  0.3293
 4037W        W 7781   5.474   1.527  11.278 -0.0704 -0.0096 -0.0531
 4038W        W 7782   7.511   2.256   2.510  0.1116 -0.1643 -0.1447
 4039W        W 7783   1.168   2.595   9.066  0.1588 -0.4333 -0.1105
 4040W        W 7784   9.230   0.065   8.776  0.2780  0.3987  0.0008
 4041W        W 7785   2.130   2.452   3.544  0.0871 -0.0686  0.2917
 4042W        W 7786   7.016   9.871  10.293 -0.1511  0.3162  0.1068
 4043W        W 7787   5.938   3.153  12.020 -0.1562 -0.0365 -0.0832
 4044W        W 7788   4.995   4.996   2.019 -0.0101  0.0820 -0.1001
 4045W        W 7789   5.699   3.694  11.567 -0.0227  0.0249  0.2778
 4046W        W 7790   5.889   3.176  11.481 -0.2713  0.1471 -0.1250
 4047W        W 7791   4.956   4.761   9.707 -0.1120 -0.1250 -0.1812
 4048W        W 7792   3.782   3.671   4.449  0.2472 -0.3172  0.2215
 4049W        W 7793   7.300   3.530   3.603  0.1275 -0.0589  0.0974
 4050W        W 7794   7.326   4.644   8.092  0.1290 -0.0241  0.0768
 4051W        W 7795   4.307   6.452  12.391  0.2148  0.0413  0.2071
 4052W        W 7796   4.183   4.833   3.120 -0.0798  0.0864 -0.1650
 4053W        W 7797   1.164   3.538   8.676  0.2655  0.6030  0.2434
 4054W        W 7798   7.631   6.122   2.897 -0.1095 -0.0642 -0.2469
 4055W        W 7799   2.152   0.746   0.148 -0.0463  0.0014  0.2118
 4056W        W 7800   6.689   4.404  12.543  0.0318 -0.0050  0.1722
 4057W        W 7801   6.357   8.670  12.542 -0.1842  0.1483 -0.0998
 4058W        W 7802   1.502   4.636   1.910 -0.3538  0.0750 -0.1521
 4059W        W 7803   4.327   5.941  12.445  0.4135 -0.0744 -0.1638
 4060W        W 7804   4.581   8.492  10.024 -0.1084 -0.0809  0.2418
 4061W        W 7805   7.498   8.009   0.606 -0.3003  0.0129 -0.0361
 4062W        W 7806   9.822   5.492   1.864 -0.1752 -0.0331 -0.0602
 4063W        W 7807   3.522   2.561   1.912 -0.1089  0.2492 -0.0609
 4064W        W 7808   6.562   4.830  10.426 -0.4081 -0.0844 -0.0224
 4065W        W 7809   3.345   1.059  12.687 -0.1447  0.0780  0.1842
 4066W        W 7810   8.181   1.009  10.871  0.1349 -0.2137  0.0034
 4067W        W 7811   5.139   0.476  10.263 -0.0686  0.0475 -0.0343
 4068W        W 7812   5.584   7.368  10.856 -0.0995  0.0921 -0.0761
 4069W        W 7813   4.921   4.449   1.052  0.0736  0.1729 -0.2843
 4070W        W 7814   0.434   5.973   2.429 -0.1338  0.0841  0.1591
 4071W        W 7815   0.393   6.465   8.939 -0.4044 -0.2296  0.4153
 4072W        W 7816   6.418   7.127   1.530 -0.0510 -0.1405 -0.2923
 4073W        W 7817   6.533   1.965   1.651  0.1169 -0.0836 -0.4844
 4074W        W 7818   7.194   1.636  10.629 -0.2170  0.1041 -0.0959
 4075W        W 7819   5.105   1.599   0.331  0.1201  0.2213 -0.0164
 4076W        W 7820   5.069   4.233   1.529 -0.0498 -0.0156 -0.4317
 4077W        W 7821   1.311   4.213   3.335 -0.0637 -0.1507 -0.3731
 4078W        W 7822   0.874   3.447   9.727 -0.2784 -0.0480  0.0073
 4079W        W 7823   7.636   2.233  11.136 -0.2248 -0.1767  0.0504
 4080W        W 7824   9.850   2.927   3.430 -0.2768 -0.2100 -0.2956
 4081W        W 7825   5.194   8.074  10.273 -0.2125  0.3127  0.2085
 4082W        W 7826   8.849   3.050   8.912 -0.0193  0.0528  0.2389
 4083W        W 7827   1.387   0.528   9.869  0.0280 -0.2533 -0.3933
 4084W        W 7828   0.100   6.737   0.916 -0.3902  0.2257  0.1612
 4085W        W 7829   6.082   8.018   2.129 -0.2275  0.4502  0.0253
 4086W        W 7830   7.700   1.797   0.667 -0.3055  0.0283 -0.0206
 4087W        W 7831   4.906   0.270   4.126 -0.0168 -0.3127 -0.1312
 4088W        W 7832   4.365   9.531   0.860  0.2568 -0.1068 -0.0774
 4089W        W 7833   1.276   4.222   9.694  0.4663 -0.0733 -0.3169
 4090W        W 7834   3.882   8.897   3.330  0.1549 -0.0031  0.2467
 4091W        W 7835   5.412   6.224  11.246  0.2067  0.1672  0.1400
 4092W        W 7836   3.925   5.891   1.942  0.1004  0.1359 -0.1109
 4093W        W 7837   4.124   3.025  10.178  0.2427 -0.0081  0.1903
 4094W        W 7838   7.302   7.292  10.522  0.1616  0.2164  0.0518
 4095W        W 7839   0.052   2.224   4.200 -0.0368 -0.0252 -0.3232
 4096W        W 7840   1.803   2.758  11.820  0.1331  0.0499  0.1555
 4097W        W 7841   7.899   2.822   8.448  0.1233  0.0084 -0.0935
 4098W        W 7842   3.720   4.763  10.192  0.0244  0.0925  0.0214
 4099W        W 7843   4.752   4.751   0.688  0.1147  0.0334 -0.0488
 4100W        W 7844   8.638   8.717  11.451  0.1048  0.1562 -0.0311
 4101W        W 7845   6.327   3.401  10.121  0.0273  0.0138 -0.2078
 4102W        W 7846   5.169   8.308   8.468 -0.1262 -0.0344  0.1022
 4103W        W 7847   1.592   5.512  10.287 -0.2415 -0.0178 -0.2009
 4104W        W 7848   5.686   2.610   0.193 -0.2018  0.0238  0.0814
 4105W        W 7849   0.791   6.319   2.353  0.1767 -0.0599 -0.2170
 4106W        W 7850   5.809   9.458   1.136  0.3814  0.0779 -0.2114
 4107W        W 7851   7.317   6.612   3.387 -0.0527 -0.1037  0.0341
 4108W        W 7852   6.703   3.951   9.371  0.0962 -0.0397 -0.1675
 4109W        W 7853   7.882   4.029   4.044  0.2038 -0.1594 -0.0101
 4110W        W 7854   7.031   2.801   8.536  0.0339  0.1945  0.0392
 4111W        W 7855   3.714   0.358  11.628 -0.2108  0.3034  0.1275
 4112W        W 7856   3.704   1.823   9.917 -0.2074 -0.1992  0.0877
 4113W        W 7857   6.432   2.740   1.742 -0.0485  0.3198 -0.2503
 4114W        W 7858   4.226   4.962   4.753  0.1058 -0.4307 -0.2486
 4115W        W 7859   4.425   7.693  10.862 -0.0042 -0.1772  0.1840
 4116W        W 7860   1.406   9.001   0.637  0.2318  0.0593  0.0217
 4117W        W 7861   7.508   9.487  11.217  0.0417  0.0456 -0.1350
 4118W        W 7862   3.489   6.650  12.148 -0.2838 -0.0440 -0.0137
 4119W        W 7863   5.690   8.832  10.917 -0.0111  0.1813 -0.1425
 4120W        W 7864   3.954   4.170   3.687 -0.0225  0.5218 -0.2368
 4121W        W 7865   3.804   4.054   1.512 -0.0276  0.2852 -0.1847
 4122W        W 7866   0.241   5.090   2.529  0.2291 -0.2622 -0.2677
 4123W        W 7867   0.048   3.647   0.836 -0.0138  0.2630  0.1238
 4124W        W 7868   7.161   7.335   9.790 -0.0024 -0.0126  0.0676
 4125W        W 7869   5.398   5.436   7.991  0.1480 -0.1516 -0.1969
 4126W        W 7870   3.192   2.859   2.755 -0.0549  0.4019 -0.3493
 4127W        W 7871   8.923   6.567  10.141  0.5988 -0.0180  0.1197
 4128W        W 7872   1.288   2.976  11.797  0.0544 -0.4721  0.0451
 4129W        W 7873   8.245   1.634   3.035  0.0016 -0.1377  0.1035
 4130W        W 7874   2.453   1.831  11.092  0.3985 -0.1845 -0.0216
 4131W        W 7875   9.356   7.535  12.291 -0.3312  0.1805 -0.4615
 4132W        W 7876   6.799   2.137   8.127 -0.0917  0.0427  0.3092
 4133W        W 7877   4.764   1.712  12.607 -0.0305 -0.3076  0.1768
 4134W        W 7878   6.076   0.035   1.237  0.0179 -0.1308  0.1490
 4135W        W 7879   1.110   4.676   9.761 -0.2785 -0.0928 -0.0380
 4136W        W 7880   7.591   7.320  12.640 -0.3420 -0.1807 -0.1142
 4137W        W 7881   4.544   3.996  12.182 -0.0383 -0.0402 -0.1395
 4138W        W 7882   8.587   5.396  10.413  0.0682 -0.0924 -0.1740
 4139W        W 7883   0.758   4.447   8.891  0.3251  0.3035  0.1662
 4140W        W 7884   5.328   3.585   0.998 -0.0855 -0.3477 -0.1287
 4141W        W 7885   8.033   8.569   9.612 -0.0980  0.1474  0.0804
 4142W        W 7886   3.423   3.397   4.014  0.0996 -0.0625 -0.2885
 4143W        W 7887   2.057   3.956   0.213 -0.1264  0.2016 -0.0408
 4144W        W 7888   8.602   2.380   3.522  0.3305  0.0746 -0.3364
 4145W        W 7889   3.852   8.706   1.410 -0.1725 -0.1005 -0.1184
 4146W        W 7890   6.780   0.086   8.551  0.0577  0.1250 -0.3211
 4147W        W 7891   7.618   3.028   0.503  0.1679 -0.0566 -0.1872
 4148W        W 7892   6.649   0.162   9.525  0.2510 -0.2595 -0.0732
 4149W        W 7893   6.113   7.094   1.108  0.1736 -0.3580  0.0923
 4150W        W 7894   7.023   8.150   3.978 -0.0061 -0.1067 -0.0723
 4151W        W 7895   9.446   8.500   3.754  0.3443  0.0826  0.1721
 4152W        W 7896   0.429   2.499  12.567  0.2359 -0.1370 -0.2317
 4153W        W 7897   4.859   2.921   8.723  0.1704 -0.1739  0.2606
 4154W        W 7898   8.243   5.845  12.251 -0.3711  0.0977 -0.2093
 4155W        W 7899   2.452   7.654   1.109 -0.1594 -0.2049  0.0270
 4156W        W 7900   5.286   3.159   4.703  0.0963  0.0230  0.3533
 4157W        W 7901   9.137   1.393   3.118 -0.1461 -0.2235  0.1358
 4158W        W 7902   7.470   4.852   3.239  0.0380  0.0064 -0.0323
 4159W        W 7903   8.168   5.068   3.852  0.2586 -0.0625  0.3482
 4160W        W 7904   5.972   3.730   2.386  0.1081  0.1432  0.1604
 4161W        W 7905   4.868   7.135   2.236  0.2563  0.0206  0.2408
 4162W        W 7906   7.274   3.299   2.726  0.2829  0.0124 -0.2786
 4163W        W 7907   0.715   5.142   2.096  0.0226 -0.0502 -0.1162
 4164W        W 7908   6.797   8.976  12.277  0.0158 -0.0354 -0.2858
 4165W        W 7909   8.509   8.605   0.868 -0.0462  0.0063  0.5090
 4166W        W 7910   9.005   8.873  11.832  0.2523 -0.1505  0.0713
 4167W        W 7911   9.856   2.811   2.043 -0.3256 -0.3976 -0.0173
 4168W        W 7912   9.024   7.892  12.267  0.2622 -0.0668 -0.1164
 4169W        W 7913   4.604   8.680   2.367 -0.0297  0.0616 -0.1197
 4170W        W 7914   8.733   5.045   2.321  0.0575 -0.0174  0.0149
 4171W        W 7915   2.474   7.790   0.060 -0.1471  0.3252  0.0641
 4172W        W 7916   6.253   6.348   3.234 -0.0053 -0.2816  0.4199
 4173W        W 7917   1.850   8.924   2.225 -0.0493  0.2173  0.0103
 4174W        W 7918   4.134   9.868  10.081  0.0331 -0.1054 -0.1015
 4175W        W 7919   7.701   8.192   4.026  0.0587 -0.1069  0.3080
 4176W        W 7920   4.385   3.165   0.973 -0.0702  0.2210  0.0036
 4177W        W 7921   8.753   7.991  11.832 -0.0079 -0.1023 -0.2947
 4178W        W 7922   3.611   4.632   9.660  0.1548  0.2362  0.3544
 4179W        W 7923   6.664   3.218   2.785 -0.1058 -0.1911 -0.1674
 4180W        W 7924   3.280   6.207   7.918 -0.0530  0.1053  0.3122
 4181W        W 7925   0.625   3.707   3.838 -0.0061  0.1248  0.0494
 4182W        W 7926   1.473   3.338  10.546 -0.2091 -0.0541  0.0981
 4183W        W 7927   9.068   0.059  10.489  0.1473 -0.4266 -0.1838
 4184W        W 7928   3.003   4.428  10.884 -0.0082 -0.1964 -0.4260
 4185W        W 7929   7.758   6.375   3.351  0.1413 -0.1030  0.2496
 4186W        W 7930   5.703   6.208   3.256  0.2021  0.1775  0.0097
 4187W        W 7931   5.670   9.759  10.478 -0.2352  0.2842  0.0909
 4188W        W 7932   0.760   1.530  10.566 -0.2535 -0.3820  0.0402
 4189W        W 7933   7.677   3.592   2.565 -0.1042  0.2755 -0.3184
 4190W        W 7934   4.285   0.088   0.724  0.0091  0.0240 -0.0184
 4191W        W 7935   6.357   0.997  11.600 -0.3036  0.0349 -0.1407
 4192W        W 7936   8.441   9.637  12.086  0.1662  0.4694  0.2920
 4193W        W 7937   0.313   5.260   1.568  0.0638  0.0005  0.1046
 4194W        W 7938   3.090   7.212   9.739  0.0521 -0.1114  0.2478
 4195W        W 7939   5.490   3.411   2.360 -0.2651 -0.5322 -0.1093
 4196W        W 7940   0.394   4.425   8.219 -0.0485  0.2350 -0.3648
 4197W        W 7941   6.236   2.080   2.385 -0.0185  0.0400 -0.0875
 4198W        W 7942   4.925   2.223   2.561  0.1542 -0.0005  0.2072
 4199W        W 7943   2.486   1.323  10.860 -0.0059 -0.1660  0.1308
 4200W        W 7944   6.433   5.098   4.090 -0.4298 -0.0349  0.2033
 4201W        W 7945   0.349   5.018   9.944  0.3425  0.0162  0.1609
 4202W        W 7946   6.119   3.593  11.799  0.0332 -0.2209 -0.1096
 4203W        W 7947   8.285   9.785  12.589  0.3068 -0.1446  0.2215
 4204W        W 7948   3.265   3.179  10.694 -0.1185  0.4507  0.0672
 4205W        W 7949   0.251   5.047   1.987  0.0221 -0.1031  0.0786
 4206W        W 7950   0.726   6.243  11.066 -0.0637 -0.3360 -0.1038
 4207W        W 7951   6.909   7.346   1.536 -0.2732 -0.0499  0.0726
 4208W        W 7952   5.485   8.463   3.933 -0.3399  0.0972 -0.2573
 4209W        W 7953   8.626   0.219  12.735  0.0432 -0.0757 -0.3035
 4210W        W 7954   1.520   9.173   2.537  0.0953  0.2419 -0.2073
 4211W        W 7955   6.066   8.479   3.536 -0.2199 -0.0867  0.0477
 4212W        W 7956   2.624   5.478   2.266  0.0570 -0.0874  0.1718
 4213W        W 7957   9.338   8.044   9.150  0.2165 -0.0230 -0.1165
 4214W        W 7958   7.948   4.802   3.507  0.1071  0.1839 -0.3256
 4215W        W 7959   3.926   0.387   9.884  0.1910  0.2061 -0.1217
 4216W        W 7960   1.593   5.792  11.315 -0.0293 -0.1353 -0.1138
 4217W        W 7961   5.104   1.153  10.478  0.1939  0.1264  0.2835
 4218W        W 7962   8.785   5.861   3.703  0.2163  0.2805  0.2919
 4219W        W 7963   3.346   3.208   5.177 -0.2999 -0.2625  0.0169
 4220W        W 7964   0.160   5.541   3.531  0.0065 -0.0449  0.2530
 4221W        W 7965   7.108   6.980   8.796 -0.0874 -0.0318 -0.0201
 4222W        W 7966   7.306   0.173  12.642 -0.1735 -0.1785  0.1395
 4223W        W 7967   3.352   7.451   3.013 -0.2727 -0.1426 -0.3149
 4224W        W 7968   1.447   3.898   3.695 -0.1381 -0.2652  0.3322
 4225W        W 7969   4.169   1.618   0.002  0.0254  0.0935  0.5048
 4226W        W 7970   3.043   1.321  10.523  0.0829 -0.3275 -0.2880
 4227W        W 7971   8.985   0.425  11.718  0.0580 -0.0430 -0.0201
 4228W        W 7972   8.337   8.625  10.584  0.4079  0.1996  0.0764
 4229W        W 7973   7.820   4.480   1.317  0.0028 -0.0895 -0.1633
 4230W        W 7974   4.736   9.264  10.673 -0.2333  0.0213  0.3473
 4231W        W 7975   4.716   5.315   8.750  0.3713 -0.1540 -0.2598
 4232W        W 7976   2.127   4.699  12.041 -0.1581 -0.1336  0.2236
 4233W        W 7977   2.120   6.657   9.482 -0.0261  0.0285 -0.1903
 4234W        W 7978   2.738   2.678   9.596 -0.0022 -0.3550 -0.1218
 4235W        W 7979   7.438   8.195   3.099  0.0502 -0.0107 -0.0947
 4236W        W 7980   9.588   2.426   2.213 -0.2091 -0.0783  0.2631
 4237W        W 7981   6.965   5.392   2.805  0.1368 -0.0267 -0.0889
 4238W        W 7982   0.885   2.250  12.662 -0.1395  0.0638  0.1935
 4239W        W 7983   0.191   3.239   3.775 -0.2911  0.2329 -0.2736
 4240W        W 7984   1.434   6.982   2.502  0.2538 -0.3233 -0.0474
 4241W        W 7985   0.969   0.771  10.026 -0.1758 -0.1381 -0.3801
 4242W        W 7986   6.931   6.203   8.976  0.1409  0.0174  0.2463
 4243W        W 7987   8.938   3.617   2.593  0.1665 -0.1386 -0.1335
 4244W        W 7988   1.349   4.476  11.589  0.0376  0.2548 -0.1201
 4245W        W 7989   1.575   4.826  11.884  0.2704 -0.0260  0.1032
 4246W        W 7990   5.724   8.767   0.601 -0.0277  0.0501 -0.2289
 4247W        W 7991   8.962   6.592   1.317  0.2797 -0.3244  0.0119
 4248W        W 7992   6.135   5.106  11.624 -0.0296 -0.1832  0.3425
 4249W        W 7993   8.625   7.161   2.354 -0.0129 -0.0302 -0.2297
 4250W        W 7994   2.698   0.512   2.481 -0.0780 -0.0294 -0.0316
 4251W        W 7995   3.483   9.568  12.432  0.2154  0.0514  0.1617
 4252W        W 7996   5.392   6.170   2.787 -0.0356  0.1479  0.0548
 4253W        W 7997   8.128   0.691  12.834  0.2188 -0.0055 -0.4546
 4254W        W 7998   0.919   5.144   9.841 -0.2644 -0.2848  0.2333
 4255W        W 7999   9.102   7.685   8.709  0.2510 -0.3719  0.2410
 4256W        W 8000   5.108   7.121  11.018 -0.0109  0.0139 -0.0998
 4257W        W 8001   7.643   0.154   8.848 -0.0099  0.2761 -0.0565
 4258W        W 8002   3.327   5.217   4.478 -0.0147  0.2454  0.1094
 4259W        W 8003   5.761   9.463   9.049  0.2228 -0.2794 -0.1046
 4260W        W 8004   2.496   4.829  11.764  0.0079  0.3082  0.3854
 4261W        W 8005   1.586   8.872  12.188 -0.3213 -0.1914 -0.0931
 4262W        W 8006   8.063   8.756   9.118 -0.3209  0.0475  0.2802
 4263W        W 8007   0.573   0.454   3.138  0.1433 -0.0273 -0.0500
 4264W        W 8008   3.285   2.793   1.538 -0.0690  0.1179  0.0985
 4265W        W 8009   8.590   9.360   2.941  0.2758 -0.1184 -0.2165
 4266W        W 8010   7.582   6.111   0.144 -0.1831  0.0454  0.1795
 4267W        W 8011   4.793   4.227  12.609 -0.1936 -0.1473  0.4557
 4268W        W 8012   0.332   2.135   3.144 -0.1204 -0.2196  0.2792
 4269W        W 8013   7.644   9.240  12.241 -0.1700 -0.1883  0.3483
 4270W        W 8014   1.986   9.277   9.657  0.1652 -0.2438  0.3084
 4271W        W 8015   7.807   0.962   1.191 -0.0621  0.0578 -0.0125
 4272W        W 8016   2.444   7.896  10.499 -0.1573  0.0003 -0.1164
 4273W        W 8017   7.351   7.086   0.552  0.0001  0.1742 -0.0092
 4274W        W 8018   8.728   8.756  10.928 -0.2100  0.0193  0.2378
 4275W        W 8019   6.542   7.185   3.270  0.0051  0.0608  0.0308
 4276W        W 8020   2.142   0.212   0.366  0.4023 -0.1795  0.0943
 4277W        W 8021   3.374   5.419   1.340 -0.1617 -0.1089  0.1448
 4278W        W 8022   8.152   3.852  12.446  0.1076 -0.3257 -0.2512
 4279W        W 8023   8.311   6.365   4.080  0.2366 -0.0012 -0.0354
 4280W        W 8024   9.716   1.739   1.196 -0.1159 -0.2688  0.0910
 4281W        W 8025   3.336   9.865   1.807  0.3172  0.0548 -0.3513
 4282W        W 8026   3.713   1.847   3.637 -0.1062 -0.0642 -0.1872
 4283W        W 8027   4.193   3.892   4.254  0.2778  0.0234 -0.0230
 4284W        W 8028   0.107   2.482  11.044 -0.0931  0.0413  0.0589
 4285W        W 8029   7.882   0.315  10.634  0.4384 -0.0054  0.0102
 4286W        W 8030   0.739   9.904   0.820  0.0336  0.1164 -0.0874
 4287W        W 8031   4.736   3.201   3.919  0.2044 -0.1054  0.0081
 4288W        W 8032   4.948   3.607  11.256  0.0132 -0.1751  0.0604
 4289W        W 8033   4.737   7.172   8.855  0.3101 -0.3648  0.2727
 4290W        W 8034   3.858   4.049   3.086  0.0539  0.3025 -0.2334
 4291W        W 8035   8.407   8.269   9.209  0.0358 -0.0821  0.4245
 4292W        W 8036   3.373   5.177  10.811  0.1219 -0.2633 -0.0656
 4293W        W 8037   9.177   9.570  11.516 -0.0301 -0.1529  0.0717
 4294W        W 8038   2.370   1.387   9.806 -0.0422 -0.1640  0.0142
 4295W        W 8039   9.913   0.075   9.809 -0.0670  0.0150 -0.2468
 4296W        W 8040   5.770   6.145   0.114  0.0374 -0.0570 -0.0149
 4297W        W 8041   7.753   3.070   9.783  0.0577  0.2261 -0.0759
 4298W        W 8042   5.510   4.362   9.822  0.1190  0.0214 -0.1302
 4299W        W 8043   6.315   6.190  11.107  0.1487 -0.0337  0.1843
 4300W        W 8044   8.175   0.446  12.415  0.0631  0.0096 -0.0237
 4301W        W 8045   0.160   4.477   1.789  0.2461 -0.1687 -0.1639
 4302W        W 8046   2.969   4.931  10.955 -0.1135  0.3661 -0.0174
 4303W        W 8047   0.468   1.444   1.322 -0.0169  0.0021 -0.4092
 4304W        W 8048   0.623   1.875   1.634 -0.3060 -0.3075  0.0695
 4305W        W 8049   2.178   7.594  12.432  0.1292  0.0151  0.0621
 4306W        W 8050   0.293   1.182   9.309 -0.1496 -0.3520 -0.0661
 4307W        W 8051   7.195   5.289   3.216 -0.1588  0.1863 -0.0591
 4308W        W 8052   0.686   0.046  12.322  0.0942  0.2794  0.0161
 4309W        W 8053   4.250   1.968  11.462 -0.0561 -0.1624 -0.0539
 4310W        W 8054   5.090   6.820   8.780 -0.2354 -0.0765 -0.1818
 4311W        W 8055   7.947   1.197   3.148 -0.1332 -0.1024 -0.2386
 4312W        W 8056   5.790   7.260  10.426 -0.1609  0.1443  0.1229
 4313W        W 8057   7.514   9.010   8.839  0.1272  0.1502 -0.1115
 4314W        W 8058   7.746   1.677   8.465 -0.1245  0.3355  0.1355
 4315W        W 8059   4.370   9.885   1.775  0.3204 -0.1430 -0.1304
 4316W        W 8060   3.477   4.044  11.786  0.1558  0.1382  0.2784
 4317W        W 8061   7.644   5.827  10.325  0.2476 -0.2473  0.0619
 4318W        W 8062   0.956   1.709   2.627 -0.2745 -0.0136 -0.0380
 4319W        W 8063   8.789   9.496   0.565  0.1479 -0.2614  0.0920
 4320W        W 8064   5.763   1.906  10.537  0.0936  0.2581  0.1014
 4321W        W 8065   7.067   1.172   1.585 -0.1741  0.1649  0.2680
 4322W        W 8066   2.188   1.595  12.429 -0.0082 -0.1996  0.0079
 4323W        W 8067   2.745   1.397   2.252 -0.2352  0.0769 -0.0768
 4324W        W 8068   4.184   2.339  12.708  0.0458 -0.2556  0.0958
 4325W        W 8069   5.019   2.045   0.069  0.2234  0.3845 -0.2835
 4326W        W 8070   0.756   7.732  11.131 -0.2411  0.3567 -0.2365
 4327W        W 8071   7.470   5.145   2.818  0.0244  0.0772 -0.0872
 4328W        W 8072   3.768   5.928   0.501  0.1505  0.1148  0.2229
 4329W        W 8073   8.244   4.831  12.400 -0.0859 -0.1378  0.0185
 4330W        W 8074   3.424   4.342   1.655  0.1192  0.1742  0.0851
 4331W        W 8075   5.351   5.640   1.366 -0.0088 -0.2075 -0.3064
 4332W        W 8076   3.653   8.181   0.206  0.0755  0.2317 -0.3947
 4333W        W 8077   9.007   6.881  10.544 -0.2788 -0.1284  0.0654
 4334W        W 8078   3.128   3.574   4.786  0.1176  0.2873  0.1306
 4335W        W 8079   4.434   8.539   1.416 -0.2863 -0.2928  0.0277
 4336W        W 8080   0.926   2.555   9.532  0.3127  0.0738 -0.0642
 4337W        W 8081   5.444   3.744   0.165  0.1982 -0.0832 -0.1645
 4338W        W 8082   1.329   8.756  11.287 -0.0559  0.1768 -0.1491
 4339W        W 8083   8.980   4.014   3.135  0.3411  0.0106  0.0503
 4340W        W 8084   0.712   4.016   2.502 -0.0276 -0.2242  0.5651
 4341W        W 8085   1.958   5.515   2.344 -0.0150  0.2229  0.0361
 4342W        W 8086   3.535   5.350  12.616  0.0929 -0.0301 -0.0867
 4343W        W 8087   7.105   0.795   3.050 -0.2827  0.1069 -0.0335
 4344W        W 8088   5.120   3.345   0.585  0.0405  0.0949  0.2782
 4345W        W 8089   1.383   7.220  12.475  0.1604 -0.1113 -0.0083
 4346W        W 8090   2.642   3.055   9.283 -0.0059 -0.1732  0.0043
 4347W        W 8091   3.923   6.274  12.046 -0.3921  0.0860 -0.0202
 4348W        W 8092   6.451   4.116   3.588 -0.0324  0.0177  0.0027
 4349W        W 8093   4.578   1.527   0.215  0.0144 -0.2876 -0.2354
 4350W        W 8094   6.914   8.596   4.269 -0.0978  0.2001 -0.0151
 4351W        W 8095   8.628   2.751  10.865  0.0551 -0.3245  0.0237
 4352W        W 8096   8.284   7.512  11.851 -0.1110 -0.3367 -0.0226
 4353W        W 8097   4.033   4.637   8.706 -0.0237  0.1254  0.1095
 4354W        W 8098   1.311   4.544   3.747  0.3891 -0.1125 -0.0845
 4355W        W 8099   5.696   9.054   8.619 -0.2966 -0.1186 -0.2835
 4356W        W 8100   0.874   4.421   2.598  0.0177 -0.5601  0.1232
 4357W        W 8101   9.873   9.891   9.294 -0.0469 -0.0351  0.0609
 4358W        W 8102   5.283   9.368  11.234 -0.1117 -0.3088 -0.1897
 4359W        W 8103   6.958   1.978   9.739 -0.1614 -0.0126 -0.1593
 4360W        W 8104   5.630   8.364   8.347 -0.1377  0.1134 -0.2524
 4361W        W 8105   0.985   6.447   4.242 -0.0192  0.1925  0.0415
 4362W        W 8106   5.363   2.087   2.191 -0.2519  0.0107  0.0451
 4363W        W 8107   7.994   3.014  12.476 -0.2000  0.2221 -0.1417
 4364W        W 8108   9.694   6.642   9.846 -0.3099  0.1646  0.0513
 4365W        W 8109   4.931   4.001   1.971 -0.0138 -0.2831  0.1689
 4366W        W 8110   8.994   1.121   9.257 -0.0976 -0.0839  0.2746
 4367W        W 8111   4.950   3.059   8.267 -0.0493 -0.1139  0.3179
 4368W        W 8112   7.881   7.595   4.353 -0.1669 -0.3655 -0.1991
 4369W        W 8113   9.146   2.706   9.229 -0.1833 -0.0835  0.3766
 4370W        W 8114   4.995   8.888  11.913  0.1286 -0.3680  0.3086
 4371W        W 8115   4.112   2.939   2.733  0.0124 -0.3024  0.0972
 4372W        W 8116   2.335   3.004  11.182 -0.0782  0.0292  0.4290
 4373W        W 8117   5.871   4.724   2.730 -0.0005  0.0523 -0.2694
 4374W        W 8118   9.301   6.314   8.017  0.1332  0.0035  0.0571
 4375W        W 8119   1.437   5.238   3.940 -0.1014  0.3845 -0.0706
 4376W        W 8120   0.967   8.582   9.944 -0.1558  0.4346 -0.0052
 4377W        W 8121   5.539   4.976   4.765  0.1490  0.1690 -0.0685
 4378W        W 8122   5.454   6.393   1.062  0.0953  0.0930 -0.0030
 4379W        W 8123   5.471   4.372  11.308 -0.0658 -0.1009  0.0485
 4380W        W 8124   6.722   9.260   4.032 -0.0910 -0.1940  0.1931
 4381W        W 8125   3.640   5.022   9.207  0.1473  0.2222 -0.3820
 4382W        W 8126   5.549   8.942  10.456 -0.5250 -0.2947 -0.2151
 4383W        W 8127   1.642   3.335   0.217  0.3877  0.0676 -0.2792
 4384W        W 8128   8.140   3.815   3.659 -0.1246  0.1493 -0.0559
 4385W        W 8129   7.136   7.240   4.101 -0.1840  0.0982 -0.0140
 4386W        W 8130   8.726   6.662   2.496  0.1548 -0.2664  0.0555
 4387W        W 8131   4.545   9.513   2.208  0.1946 -0.0483  0.0707
 4388W        W 8132   8.117   2.101   1.705 -0.0435 -0.0566  0.0170
 4389W        W 8133   7.385   8.292   9.703 -0.0409 -0.0068  0.0383
 4390W        W 8134   9.582   8.619   2.125  0.2331 -0.3228  0.0216
 4391W        W 8135   7.312   1.239   3.907  0.1676  0.0208  0.2333
 4392W        W 8136   1.372   2.735   2.689  0.1398  0.1764  0.0402
 4393W        W 8137   6.333   0.548   9.317 -0.2281 -0.1716  0.1654
 4394W        W 8138   7.294   8.124   2.541  0.1259 -0.3850  0.0186
 4395W        W 8139   4.568   4.475   1.493 -0.1854  0.0463 -0.0736
 4396W        W 8140   9.521   7.479   1.260 -0.2740 -0.0148  0.0125
 4397W        W 8141   2.549   0.423  12.688 -0.0480  0.1308  0.0970
 4398W        W 8142   8.927   9.433   8.175 -0.0105 -0.2104  0.0209
 4399W        W 8143   1.502   6.250   1.731 -0.0603  0.0050 -0.1042
 4400W        W 8144   9.458   7.771   1.645 -0.1527 -0.2637  0.1750
 4401W        W 8145   1.502   0.933   1.730 -0.1100  0.0049 -0.0952
 4402W        W 8146   4.600   0.260   2.671 -0.1885  0.1904  0.0480
 4403W        W 8147   6.344   3.492   2.512 -0.1424  0.3703  0.4644
 4404W        W 8148   0.469   5.047   8.966 -0.3824 -0.2771  0.1217
 4405W        W 8149   4.325   4.238   9.262 -0.3245  0.2178 -0.0366
 4406W        W 8150   3.325   0.341  11.894  0.2139 -0.3276 -0.3202
 4407W        W 8151   0.150   6.623   1.382  0.1993  0.0139 -0.0144
 4408W        W 8152   0.413   3.187   9.654  0.2070  0.1660  0.2965
 4409W        W 8153   4.526   8.208   9.584 -0.5058 -0.0399  0.0927
 4410W        W 8154   0.231   7.719  11.643  0.0523  0.0052  0.1196
 4411W        W 8155   1.652   8.157   1.724  0.4483  0.0286  0.1284
 4412W        W 8156   3.387   6.363  12.543  0.0047  0.0009 -0.2510
 4413W        W 8157   3.980   4.128   8.864  0.0304 -0.1822 -0.0085
 4414W        W 8158   9.520   3.417  12.190  0.0489 -0.2078  0.5546
 4415W        W 8159   1.891   1.943  11.815 -0.1657  0.1801  0.2990
 4416W        W 8160   8.350   1.609   1.862 -0.2820 -0.1995  0.2745
 4417W        W 8161   6.353   1.103  11.110 -0.5342  0.4156  0.0693
 4418W        W 8162   8.906   3.142   3.992 -0.0019  0.0598 -0.0606
 4419W        W 8163   3.491   0.727  11.430 -0.0289  0.0284  0.1635
 4420W        W 8164   7.578   8.699   3.018  0.0334 -0.0881 -0.0070
 4421W        W 8165   2.381   4.180  12.224  0.1462 -0.0700  0.0517
 4422W        W 8166   6.061   9.288   0.297  0.0907 -0.2757 -0.0845
 4423W        W 8167   5.299   2.187   8.687 -0.4462 -0.0990 -0.0869
 4424W        W 8168   6.925   1.077   2.659 -0.1766  0.2248  0.0885
 4425W        W 8169   5.115   5.772  11.266 -0.1297 -0.3844  0.1189
 4426W        W 8170   5.225   8.706   0.779 -0.1792 -0.0809  0.0600
 4427W        W 8171   0.747   1.812   9.968  0.1243  0.0457 -0.0189
 4428W        W 8172   4.794   3.958  11.721  0.1465  0.0680 -0.5148
 4429W        W 8173   7.012   9.740   4.095  0.0092  0.0918 -0.1919
 4430W        W 8174   0.286   6.001   3.444 -0.2396  0.1068  0.2310
 4431W        W 8175   1.650   0.885   9.420  0.1179  0.0634 -0.0903
 4432W        W 8176   4.753   6.695   1.585  0.5976 -0.0958 -0.3166
 4433W        W 8177   1.325   4.854   3.404  0.0545 -0.3125  0.3992
 4434W        W 8178   5.404   1.762   8.948  0.1427 -0.0138 -0.2896
 4435W        W 8179   1.158   9.113  12.233  0.1866  0.2031 -0.1859
 4436W        W 8180   2.561   7.064   4.059  0.1379 -0.2020  0.0491
 4437W        W 8181   1.175   5.842   1.670  0.0170  0.0567  0.0798
 4438W        W 8182   1.266   4.887   8.446  0.1755  0.0222  0.0980
 4439W        W 8183   6.899   6.932  10.542 -0.2084 -0.1554  0.0591
 4440W        W 8184   9.637   0.352   8.884 -0.3158  0.1577  0.1748
 4441W        W 8185   5.750   5.584   2.531 -0.4228  0.3527 -0.2818
 4442W        W 8186   1.676   6.257  11.251  0.2527 -0.3282  0.2114
 4443W        W 8187   2.611   1.722   0.905 -0.2986 -0.2370  0.1182
 4444W        W 8188   7.537   5.080   7.934 -0.0656 -0.0850 -0.4465
 4445W        W 8189   0.245   7.252   0.838 -0.3198 -0.1288 -0.1334
 4446W        W 8190   1.905   2.001  11.327  0.1444  0.1625 -0.1046
 4447W        W 8191   1.884   0.682   9.919 -0.3620 -0.1633  0.1105
 4448W        W 8192   8.392   6.010   0.706  0.0789 -0.3158  0.2545
 4449W        W 8193   2.652   4.952   1.696 -0.1030 -0.1200  0.2308
 4450W        W 8194   6.617   7.081   8.998  0.2506 -0.0928  0.4123
 4451W        W 8195   4.047   6.346   0.501  0.1216 -0.2721 -0.0242
 4452W        W 8196   1.905   9.447   2.682 -0.3784  0.9147  0.1455
 4453W        W 8197   9.012   0.877  11.975  0.4363  0.0681  0.0965
 4454W        W 8198   0.137   9.578   0.209  0.1819 -0.0244  0.6583
 4455W        W 8199   4.527   0.907   1.945 -0.5113  0.3565 -0.4233
 4456W        W 8200   9.083   0.963   3.315  0.4671  0.2483 -0.0783
 4457W        W 8201   9.334   3.731  10.680 -0.1678  0.1147 -0.1977
 4458W        W 8202   0.739   7.610   2.613 -0.1122 -0.5896 -0.3275
 4459W        W 8203   6.238   2.607   4.069  0.0867  0.1399 -0.4170
 4460W        W 8204   3.969   3.696  11.389  0.0901  0.4137 -0.1764
 4461W        W 8205   8.627   6.179   1.405 -0.1136  0.2684 -0.1255
 4462W        W 8206   8.075   5.556   0.180 -0.0170 -0.0524  0.3584
 4463W        W 8207   5.205   6.451  11.710  0.0908  0.1254  0.3411
 4464W        W 8208   0.984   6.461   1.881 -0.2317  0.1431  0.0697
 4465W        W 8209   8.520   1.733  12.062 -0.2643 -0.2264 -0.0415
 4466W        W 8210   8.029   7.157   3.845 -0.1567 -0.3044 -0.1761
 4467W        W 8211   6.607   8.017   2.138 -0.0166  0.1053 -0.1696
 4468W        W 8212   3.070   7.839  11.066  0.0895 -0.0653 -0.2032
 4469W        W 8213   0.542   4.116  11.904 -0.2221  0.0407 -0.0271
 4470W        W 8214   0.209   4.190   0.828 -0.2050 -0.3368 -0.0410
 4471W        W 8215   3.447   2.248  11.511  0.1390 -0.1876  0.0373
 4472W        W 8216   8.324   6.697   8.545 -0.0253  0.3410 -0.0365
 4473W        W 8217   4.566   8.340   8.515  0.4019 -0.0260  0.1874
 4474W        W 8218   6.620   7.707  11.029  0.1327 -0.0233 -0.1460
 4475W        W 8219   2.211   1.348   2.041  0.1350 -0.2205 -0.0192
 4476W        W 8220   2.157   3.175   9.224 -0.1813 -0.0382  0.0171
 4477W        W 8221   0.207   8.107   1.018 -0.0340 -0.1302 -0.4266
 4478W        W 8222   3.604   1.522   3.192 -0.0021 -0.0187  0.0870
 4479W        W 8223   9.473   1.792   0.346 -0.1027 -0.3723  0.0821
 4480W        W 8224   6.493   4.362   4.804 -0.0237 -0.1612 -0.4130
 4481W        W 8225   8.658   3.845  11.734 -0.1969 -0.0156 -0.1641
 4482W        W 8226   7.970   1.737  11.301  0.0755  0.3738  0.1423
 4483W        W 8227   2.907   5.136   1.309 -0.2266  0.0858  0.0940
 4484W        W 8228   5.642   9.117   1.469  0.1062 -0.0044  0.1473
 4485W        W 8229   6.898   6.262   9.495  0.0243  0.0303 -0.1136
 4486W        W 8230   8.454   6.245  10.836 -0.0646 -0.1354  0.1170
 4487W        W 8231   3.398   5.026   5.327 -0.1402  0.4558 -0.0232
 4488W        W 8232   9.283   2.709  11.603 -0.2010 -0.2581  0.1691
 4489W        W 8233   9.904   6.661  10.312  0.0349  0.1325 -0.0637
 4490W        W 8234   8.985   5.549   9.074 -0.0168 -0.3887  0.3709
 4491W        W 8235   0.872   2.588   2.530 -0.1062  0.2102  0.2831
 4492W        W 8236   8.695   6.078   2.734  0.0613  0.0056  0.0124
 4493W        W 8237   3.606   8.672   3.683  0.0417 -0.0769 -0.0136
 4494W        W 8238   4.026   3.756   5.405  0.1070  0.0412 -0.3519
 4495W        W 8239   4.401   6.371   4.090 -0.0203  0.1757 -0.2058
 4496W        W 8240   7.979   2.993   1.518  0.1285 -0.2148  0.1198
 4497W        W 8241   2.880   3.652   2.969  0.2176  0.2319 -0.4167
 4498W        W 8242   7.957   3.788  10.590  0.1750  0.1243  0.0717
 4499W        W 8243   8.078   5.237   8.511 -0.2846  0.2308  0.2752
 4500W        W 8244   0.343   4.240   8.706 -0.1480 -0.0432  0.0573
 4501W        W 8245   1.439   2.815   3.409 -0.3549 -0.2046  0.0840
 4502W        W 8246   0.758   6.139  12.273  0.2339 -0.1106  0.0201
 4503W        W 8247   7.662   2.977   9.232 -0.0417  0.1882  0.0318
 4504W        W 8248   2.348   3.431   9.684  0.1009 -0.0181  0.0495
 4505W        W 8249   7.978   9.615   9.819 -0.2741 -0.2112 -0.1160
 4506W        W 8250   8.509   8.778   9.254  0.1526  0.1406  0.0092
 4507W        W 8251   7.309   1.847   1.127  0.3051  0.0330  0.3211
 4508W        W 8252   0.227   2.514  11.566  0.2263  0.2270 -0.0448
 4509W        W 8253   1.762   4.211  10.455 -0.0674  0.0066 -0.2528
 4510W        W 8254   5.935   8.420   1.480 -0.0993  0.0576 -0.0364
 4511W        W 8255   6.204   3.110   4.380  0.2303  0.4192  0.2112
 4512W        W 8256   1.521   1.657   0.350 -0.1370  0.2484 -0.3314
 4513W        W 8257   8.569   7.966   2.450 -0.0807  0.1375 -0.2042
 4514W        W 8258   9.625   6.826   1.490 -0.1960 -0.0911  0.1496
 4515W        W 8259   5.211   1.625  12.223 -0.1038  0.0337  0.1904
 4516W        W 8260   2.044   8.858   3.250 -0.0568  0.0934 -0.1655
 4517W        W 8261   4.020   8.880  12.765 -0.1954 -0.1624  0.1407
 4518W        W 8262   8.063   4.009   3.205 -0.0920  0.2089 -0.2318
 4519W        W 8263   1.346   2.772   9.806 -0.1717  0.2374 -0.3258
 4520W        W 8264   7.333   5.468  11.150  0.1481 -0.0272  0.1362
 4521W        W 8265   6.597   6.036   3.410 -0.1488  0.2125 -0.1825
 4522W        W 8266   9.178   7.009  12.006  0.1734 -0.0819  0.0661
 4523W        W 8267   7.984   8.180   8.905 -0.2864  0.1071 -0.1371
 4524W        W 8268   5.142   3.097   1.206 -0.2492 -0.1858 -0.2098
 4525W        W 8269   7.420   7.764   4.116  0.3808  0.2926 -0.0209
 4526W        W 8270   2.848   2.282   3.889 -0.3093  0.1764  0.0711
 4527W        W 8271   4.720   5.479   3.060  0.0850  0.0235  0.0204
 4528W        W 8272   1.321   6.004   2.155 -0.0628 -0.2033  0.1748
 4529W        W 8273   9.452   9.792  10.953 -0.0664 -0.0202  0.2145
 4530W        W 8274   0.094   5.350   3.988  0.0342  0.1729  0.0231
 4531W        W 8275   9.322   0.143   0.634  0.0326 -0.0123  0.1891
 4532W        W 8276   7.674   0.225  12.331  0.2704  0.1193 -0.1756
 4533W        W 8277   7.035   3.578   4.074 -0.2538 -0.1674  0.0568
 4534W        W 8278   4.689   4.669  10.664  0.0603 -0.1327  0.1697
 4535W        W 8279   4.211   1.637   9.883 -0.0303 -0.1867  0.0835
 4536W        W 8280   1.093   7.588  11.554 -0.0243  0.2220 -0.1667
 4537W        W 8281   6.512   3.205   3.442  0.2653  0.0784 -0.0414
 4538W        W 8282   4.255   0.236   8.414  0.5026  0.1026 -0.1044
 4539W        W 8283   6.319   3.164  10.581  0.2212  0.1804  0.1839
 4540W        W 8284   1.383   3.974  11.593 -0.0763 -0.0796 -0.1349
 4541W        W 8285   6.515   8.571  12.011 -0.2201  0.0450 -0.0415
 4542W        W 8286   1.395   7.812   0.655 -0.0335  0.0993 -0.2108
 4543W        W 8287   0.845   2.667  12.301 -0.1551 -0.1809  0.0694
 4544W        W 8288   5.601   6.081  10.397  0.0590 -0.1331  0.1162
 4545W        W 8289   3.752   1.748  10.877  0.0159 -0.4666 -0.0056
 4546W        W 8290   9.802   2.022  10.779  0.0740  0.0139  0.1716
 4547W        W 8291   0.821   8.993  11.327  0.0645 -0.0584 -0.0775
 4548W        W 8292   4.263   5.347   3.172 -0.0817  0.2752  0.4845
 4549W        W 8293   7.387   3.418  11.818 -0.1755  0.1025 -0.1595
 4550W        W 8294   7.503   7.738   2.832 -0.3069 -0.2900  0.4625
 4551W        W 8295   0.754   8.518   2.927  0.1841 -0.2749 -0.0151
 4552W        W 8296   7.882   7.207   9.288 -0.2618 -0.1047 -0.0515
 4553W        W 8297   5.546   6.247   3.786  0.1071  0.0257 -0.2510
 4554W        W 8298   3.611   0.040  10.118 -0.5012  0.0511 -0.1341
 4555W        W 8299   9.686   8.698   2.665 -0.1709 -0.0039  0.3124
 4556W        W 8300   6.878   1.402   4.747  0.1565  0.2973 -0.1089
 4557W        W 8301   4.166   8.128   1.373  0.0440 -0.1066 -0.3563
 4558W        W 8302   2.887   6.059  11.997  0.0927 -0.0360 -0.1723
 4559W        W 8303   6.240   7.898   0.008 -0.1818 -0.2053  0.2461
 4560W        W 8304   6.887   3.466   3.190 -0.0013 -0.1464 -0.1019
 4561W        W 8305   7.760   6.636   1.548  0.2451  0.0253  0.0219
 4562W        W 8306   9.020   7.655   9.777  0.3254  0.1937 -0.0368
 4563W        W 8307   5.925   8.597   2.636  0.0532 -0.2209 -0.1846
 4564W        W 8308   5.296   7.173   9.297  0.0979  0.3190 -0.0553
 4565W        W 8309   8.556   5.194   9.731 -0.0996 -0.3077  0.1529
 4566W        W 8310   4.369   7.161   2.369 -0.4460  0.1885 -0.2897
 4567W        W 8311   0.972   8.438   2.449  0.0358 -0.0100 -0.3527
 4568W        W 8312   6.142   4.985  12.099 -0.3228 -0.0384 -0.2664
 4569W        W 8313   4.215   3.842  11.839  0.3106  0.1677  0.3220
 4570W        W 8314   8.997   5.102   3.236 -0.3131 -0.3517 -0.1176
 4571W        W 8315   3.503   4.444   0.345 -0.1023  0.0102 -0.0410
 4572W        W 8316   6.107   1.887  11.976 -0.2300  0.0720 -0.2603
 4573W        W 8317   4.712   9.354  11.832  0.0643  0.4885 -0.0737
 4574W        W 8318   7.555   7.848   9.599 -0.0220  0.1318  0.1066
 4575W        W 8319   8.985   0.465   0.798  0.1132  0.3985  0.0939
 4576W        W 8320   6.407   6.991   9.416  0.2358 -0.1567  0.1795
 4577W        W 8321   2.377   7.313   0.235  0.1160 -0.0841  0.2007
 4578W        W 8322   4.807   8.660   3.372  0.1305  0.1582  0.0855
 4579W        W 8323   2.603   3.704  12.090 -0.0298 -0.2668  0.2043
 4580W        W 8324   8.656   4.827   2.939  0.1639  0.3423 -0.1840
 4581W        W 8325   0.022   6.764  11.949 -0.0097 -0.3665  0.2013
 4582W        W 8326   4.921   1.887   0.714  0.1108 -0.0812 -0.0929
 4583W        W 8327   1.131   1.801   1.617  0.2247  0.2210  0.0990
 4584W        W 8328   2.410   7.838   4.519  0.0333 -0.1427  0.1077
 4585W        W 8329   0.283   5.894  10.013  0.1486  0.1569 -0.0727
 4586W        W 8330   6.541   2.359   3.721  0.3006 -0.1199 -0.3727
 4587W        W 8331   5.800   2.243   2.630 -0.2836 -0.1866  0.2708
 4588W        W 8332   4.407   6.474   2.993  0.3813 -0.0907  0.0067
 4589W        W 8333   9.251   4.980   9.993 -0.1684  0.1530 -0.1580
 4590W        W 8334   5.996   0.314  11.101  0.0349 -0.1128 -0.0556
 4591W        W 8335   1.369   8.146   2.157  0.0553 -0.0587 -0.1788
 4592W        W 8336   1.058   7.968  11.897  0.1032 -0.2515  0.0454
 4593W        W 8337   8.760   3.078   9.514 -0.1369 -0.0736  0.3260
 4594W        W 8338   4.800   9.205   3.275 -0.1882  0.1461 -0.2653
 4595W        W 8339   6.507   3.977   8.863 -0.1895  0.0511 -0.0283
 4596W        W 8340   6.351   3.810  12.176  0.1943 -0.4350 -0.0639
 4597W        W 8341   4.825   2.542  10.328  0.1525  0.1943  0.0810
 4598W        W 8342   8.329   5.638   3.442 -0.0997 -0.1397  0.1295
 4599W        W 8343   7.339   8.852   0.171  0.0763 -0.1493  0.0487
 4600W        W 8344   0.606   1.440   0.355  0.1233 -0.1564  0.0308
 4601W        W 8345   3.194   7.455   9.327  0.2359 -0.1441  0.1571
 4602W        W 8346   0.260   8.320   1.913 -0.0249  0.0594 -0.2331
 4603W        W 8347   7.832   6.703   9.214  0.0328 -0.0716 -0.0724
 4604W        W 8348   7.925   8.222   0.761  0.1898 -0.2171 -0.1217
 4605W        W 8349   8.807   8.680   1.796 -0.1164 -0.0855  0.0103
 4606W        W 8350   7.055   5.204   0.090 -0.0902 -0.0992  0.0399
 4607W        W 8351   7.303   8.945  12.465  0.2060  0.2649  0.1558
 4608W        W 8352   2.367   6.469   3.441 -0.0764 -0.1288  0.1493
 4609W        W 8353   8.695   7.361   0.555  0.0265 -0.0908 -0.4959
 4610W        W 8354   7.743   6.280  11.083 -0.1443 -0.3740 -0.1111
 4611W        W 8355   1.896   8.404   2.252 -0.0166 -0.3266  0.0294
 4612W        W 8356   0.627   8.980   0.719 -0.0871  0.4832  0.3715
 4613W        W 8357   9.553   7.806   2.973  0.1190  0.0423 -0.0159
 4614W        W 8358   7.020   2.417   5.138  0.3133  0.0652 -0.2024
 4615W        W 8359   2.782   4.463   0.672 -0.4317 -0.1363  0.0114
 4616W        W 8360   1.423   4.689   0.186 -0.1777  0.0691 -0.1830
 4617W        W 8361   7.725   8.316   9.337 -0.0050 -0.0626 -0.1927
 4618W        W 8362   9.724   7.245  12.026 -0.0415  0.1216 -0.5448
 4619W        W 8363   5.191   9.614   3.313 -0.2393 -0.1780 -0.0517
 4620W        W 8364   0.824   7.724   9.715  0.0850  0.0821 -0.0343
 4621W        W 8365   5.875   2.792   8.393  0.0411  0.1312  0.0719
 4622W        W 8366   7.127   7.600  11.022 -0.0498  0.3378 -0.1846
 4623W        W 8367   6.338   1.599   3.918  0.2672 -0.1037 -0.0458
 4624W        W 8368   0.910   1.590  11.963 -0.0584 -0.3803  0.3700
 4625W        W 8369   8.020   3.367   3.935 -0.0883  0.3264  0.1386
 4626W        W 8370   3.189   1.525   8.441  0.0192 -0.2095 -0.1333
 4627W        W 8371   7.758   9.854  11.500  0.1719 -0.1881  0.1495
 4628W        W 8372   0.694   7.415  11.908 -0.1255  0.5500  0.1012
 4629W        W 8373   2.643   7.347   1.650 -0.0450  0.1262 -0.0491
 4630W        W 8374   8.933   3.710   0.987  0.1878  0.3293  0.3288
 4631W        W 8375   9.041   2.247   1.400 -0.0942  0.0828 -0.2203
 4632W        W 8376   2.727   6.906  11.993  0.1886 -0.1404  0.1252
 4633W        W 8377   6.869   6.195   1.685  0.1994  0.1130  0.0102
 4634W        W 8378   9.812   7.567   2.065  0.0832 -0.5370 -0.1503
 4635W        W 8379   7.045   0.872  10.914  0.0515 -0.0893 -0.2396
 4636W        W 8380   6.963   2.879   0.505 -0.1149  0.1351  0.0845
 4637W        W 8381   2.272   9.287   0.969  0.0985 -0.1706  0.1065
 4638W        W 8382   0.999   0.477  11.875 -0.0902  0.2737  0.0319
 4639W        W 8383   6.154   2.900  12.371  0.3097  0.0427 -0.1439
 4640W        W 8384   9.212   3.830   0.485  0.2660 -0.0909 -0.3259
 4641W        W 8385   6.635   6.772   2.324 -0.1625 -0.1496 -0.0278
 4642W        W 8386   8.403   6.874   0.671 -0.0325 -0.1655 -0.1295
 4643W        W 8387   0.902   5.874   8.204  0.0493  0.3857 -0.0751
 4644W        W 8388   9.562   8.829   9.298 -0.5960  0.0458  0.2133
 4645W        W 8389   2.381   6.009   8.774 -0.0866  0.0771 -0.0738
 4646W        W 8390   8.253   1.274   1.025  0.2127  0.0843 -0.0314
 4647W        W 8391   4.147   6.526   0.029 -0.1272  0.1310  0.1026
 4648W        W 8392   1.685   8.589   1.426 -0.1176 -0.1432 -0.0778
 4649W        W 8393   4.732   0.300   0.757 -0.2086 -0.1830  0.1380
 4650W        W 8394   8.433   4.804  10.357 -0.0112 -0.1268 -0.1623
 4651W        W 8395   7.210   0.918   9.860 -0.1934 -0.0460 -0.0034
 4652W        W 8396   8.580   0.944  12.851 -0.3913  0.1908  0.2280
 4653W        W 8397   2.126   5.806   9.105  0.1807 -0.1425 -0.2810
 4654W        W 8398   2.409   1.427  11.332 -0.0679 -0.1376 -0.2929
 4655W        W 8399   2.236   7.259   2.081 -0.2176  0.0019 -0.0583
 4656W        W 8400   3.690   7.024  11.343  0.2099 -0.0358 -0.1192
 4657W        W 8401   6.324   7.210   7.471 -0.1420  0.0175  0.2805
 4658W        W 8402   1.206   5.128  11.999 -0.1151 -0.0181 -0.4148
 4659W        W 8403   8.496   8.408   2.078  0.5376 -0.3540  0.0091
 4660W        W 8404   4.792   7.135   1.742 -0.0427 -0.0345  0.2209
 4661W        W 8405   5.166   0.081   3.706 -0.0790  0.0868  0.0331
 4662W        W 8406   7.667   7.713  11.265  0.2301  0.3664 -0.1918
 4663W        W 8407   9.032   5.185   1.492  0.1053  0.2254 -0.0828
 4664W        W 8408   7.626   4.256   0.910 -0.1387 -0.0897  0.1274
 4665W        W 8409   6.599   0.773  10.686 -0.0890 -0.0186 -0.1180
 4666W        W 8410   5.065   5.170   2.842 -0.0733 -0.1061 -0.0308
 4667W        W 8411   5.466   3.564  12.039  0.0289  0.0331  0.0615
 4668W        W 8412   5.883   1.064  11.696 -0.4499  0.0194 -0.0887
 4669W        W 8413   2.303   6.641  10.748 -0.0052 -0.0315 -0.3809
 4670W        W 8414   0.096   7.818   0.576  0.1897 -0.1226  0.0059
 4671W        W 8415   1.585   4.729  10.587 -0.1263 -0.3653  0.1746
 4672W        W 8416   0.395   7.859   2.167 -0.2554  0.3773 -0.3254
 4673W        W 8417   7.277   1.665   9.507 -0.5258  0.0334  0.2500
 4674W        W 8418   1.443   3.860   9.394  0.1444 -0.0335  0.2038
 4675W        W 8419   8.311   0.909  10.012  0.0075  0.0605 -0.2660
 4676W        W 8420   5.697   7.033   2.793  0.2156 -0.0432 -0.0526
 4677W        W 8421   7.555   3.632   4.867  0.0887 -0.0866 -0.2749
 4678W        W 8422   0.490   1.933  11.773 -0.0441  0.0390  0.0912
 4679W        W 8423   9.556   5.217   8.922  0.0464 -0.2726 -0.3969
 4680W        W 8424   0.556   5.408   1.082 -0.0540  0.0723 -0.0524
 4681W        W 8425   9.218   8.111   0.252  0.0335  0.0218 -0.2550
 4682W        W 8426   1.784   2.180  10.591  0.2116  0.2384  0.4926
 4683W        W 8427   2.166   8.722   9.794  0.0025  0.0915  0.2060
 4684W        W 8428   0.878   9.932   1.644 -0.2936 -0.3665 -0.0099
 4685W        W 8429   9.758   7.453  10.966  0.1717  0.3170 -0.0729
 4686W        W 8430   7.014   6.806  12.022  0.0449 -0.2547  0.3856
 4687W        W 8431   8.900   9.730  10.828 -0.0178  0.3886  0.1515
 4688W        W 8432   3.468   7.021   1.990  0.0193  0.0830 -0.1577
 4689W        W 8433   9.002   1.966  11.298 -0.1054 -0.0596  0.1081
 4690W        W 8434   8.082   0.406   2.744  0.1181  0.1619  0.1334
 4691W        W 8435   6.558   9.362   0.259  0.0457  0.2447 -0.3888
 4692W        W 8436   8.058   0.485   2.142  0.1121  0.2369  0.4443
 4693W        W 8437   2.932   6.527  12.585  0.1007 -0.4169  0.1719
 4694W        W 8438   1.313   6.070   3.014  0.0042 -0.1692  0.0144
 4695W        W 8439   1.776   2.980   0.714  0.1236  0.0941  0.0352
 4696W        W 8440   2.537   8.999  11.828  0.0852 -0.2110 -0.0171
 4697W        W 8441   8.920   8.644   3.731  0.1535  0.0757 -0.3442
 4698W        W 8442   5.763   6.541   9.274 -0.1147  0.4173 -0.0650
 4699W        W 8443   1.489   3.567  11.017 -0.2212 -0.1935 -0.0061
 4700W        W 8444   8.243   3.500   3.308 -0.0353  0.0454 -0.0080
 4701W        W 8445   2.737   2.228  10.818  0.1684  0.5808  0.1994
 4702W        W 8446   1.737   4.930   4.438 -0.0115  0.3019 -0.1732
 4703W        W 8447   9.019   9.537   2.180 -0.2218 -0.3964 -0.0620
 4704W        W 8448   4.548   5.050  12.832  0.0246 -0.2464  0.2597
 4705W        W 8449   9.867   2.260  12.600  0.0453  0.1521 -0.2065
 4706W        W 8450   4.258   8.042   0.883  0.0014  0.1120 -0.0669
 4707W        W 8451   0.597   2.387  10.562 -0.0983  0.0263 -0.0269
 4708W        W 8452   3.462   8.378   2.688 -0.0348 -0.1487 -0.2658
 4709W        W 8453   4.244   2.662   1.333  0.0592  0.0208  0.3134
 4710W        W 8454   7.440   4.080   9.872  0.1870  0.2302 -0.0342
 4711W        W 8455   4.686   2.920   1.308 -0.1207  0.2279  0.0135
 4712W        W 8456   7.335   2.527  10.820  0.5388 -0.1011  0.2259
 4713W        W 8457   1.915   7.342  11.828 -0.4892 -0.0772 -0.1561
 4714W        W 8458   2.103   3.747   9.954  0.3359  0.0229  0.0341
 4715W        W 8459   0.034   1.592   9.474  0.1311  0.3139 -0.2671
 4716W        W 8460   7.147   2.104  11.049  0.0684 -0.2624 -0.2623
 4717W        W 8461   4.789   6.973  12.468 -0.3981 -0.1994  0.2389
 4718W        W 8462   3.775   0.542   2.322  0.0459  0.1256 -0.0630
 4719W        W 8463   7.656   4.046   2.419  0.4013 -0.1947  0.0260
 4720W        W 8464   6.137   8.978   1.238  0.1865  0.0197 -0.1206
 4721W        W 8465   5.649   1.975  12.213  0.1207  0.0950 -0.3231
 4722W        W 8466   1.778   3.663  11.430  0.0247 -0.1718  0.2663
 4723W        W 8467   3.560   1.244   0.398  0.0672  0.0264  0.0835
 4724W        W 8468   7.318   1.888   3.238 -0.2137 -0.0972  0.0746
 4725W        W 8469   9.399   5.709  12.750 -0.2753 -0.3744  0.3098
 4726W        W 8470   5.623   6.438  10.810  0.1621 -0.1973 -0.1055
 4727W        W 8471   9.614   4.452   9.952  0.0626 -0.2274 -0.0914
 4728W        W 8472   2.035   0.052  10.421  0.1903  0.0732  0.2018
 4729W        W 8473   8.761   9.361  11.772  0.0807 -0.4270  0.1006
 4730W        W 8474   9.402   9.407   9.865 -0.1616  0.0592  0.0768
 4731W        W 8475   2.882   8.525  12.436  0.1514  0.0843  0.1135
 4732W        W 8476   3.242   3.300   1.779  0.1909  0.3465  0.1214
 4733W        W 8477   0.559   1.230   2.747 -0.3274 -0.1568  0.0088
 4734W        W 8478   3.218   3.158   9.943 -0.1285 -0.2482 -0.2077
 4735W        W 8479   9.857   4.421   2.258  0.0547 -0.1529 -0.1192
 4736W        W 8480   2.994   0.322   0.108  0.3085 -0.2862  0.2097
 4737W        W 8481   2.439   0.158   2.214  0.0291  0.0950 -0.1440
 4738W        W 8482   0.957   4.592  11.240 -0.3140 -0.1196 -0.0695
 4739W        W 8483   8.490   2.962  10.301 -0.2195  0.2944  0.0980
 4740W        W 8484   5.572   6.905  11.268 -0.2063 -0.1456 -0.0577
 4741W        W 8485   4.442   6.211   9.014  0.2155 -0.1278 -0.0457
 4742W        W 8486   5.233   7.790  12.386 -0.1260  0.0834  0.0625
 4743W        W 8487   7.916   3.116   7.954  0.1154  0.3457  0.3646
 4744W        W 8488   3.135   7.712   4.191 -0.4049 -0.1121  0.0349
 4745W        W 8489   5.062   6.526   2.518  0.1347  0.1427 -0.0435
 4746W        W 8490   8.080   2.702   9.461 -0.0768  0.1073  0.1349
 4747W        W 8491   6.076   8.957   2.281 -0.0614 -0.2490  0.2989
 4748W        W 8492   2.681   7.505  12.597 -0.1797  0.5219  0.0265
 4749W        W 8493   0.851   1.732   9.023 -0.1204  0.0425 -0.0165
 4750W        W 8494   2.685   8.746   9.116 -0.1600 -0.0343 -0.0355
 4751W        W 8495   7.423   8.734   2.557  0.1335  0.0146  0.1676
 4752W        W 8496   5.357   1.289   1.537  0.3002 -0.0951 -0.1529
 4753W        W 8497   4.404   3.087   8.987  0.1783  0.0297 -0.0454
 4754W        W 8498   0.609   5.436   4.399  0.0805 -0.0450 -0.0899
 4755W        W 8499   8.070   4.297   3.681  0.3128  0.1259  0.2428
 4756W        W 8500   7.460   6.937   1.991  0.2954  0.1060 -0.1546
 4757W        W 8501   4.806   9.732   0.762 -0.0911 -0.0309  0.0839
 4758W        W 8502   8.317   2.004   2.159  0.0802 -0.0238  0.2044
 4759W        W 8503   2.799   9.298   9.059 -0.0183 -0.1375  0.2370
 4760W        W 8504   8.518   1.873  11.291 -0.2929  0.5034  0.1739
 4761W        W 8505   4.968   2.438   0.585 -0.2755 -0.2197  0.1677
 4762W        W 8506   9.754   0.692  10.642 -0.0174  0.0989 -0.0656
 4763W        W 8507   4.514   5.632   5.023  0.0393  0.1604 -0.4412
 4764W        W 8508   2.794   4.065  10.495  0.1448 -0.1898 -0.1586
 4765W        W 8509   3.683   3.180  12.730 -0.0260  0.1247  0.2208
 4766W        W 8510   1.110   2.678   2.124 -0.1104 -0.0667  0.1637
 4767W        W 8511   5.623   0.084  11.536  0.0437  0.2573  0.0880
 4768W        W 8512   0.409   3.454   2.906  0.0908  0.0859  0.1684
 4769W        W 8513   7.751   3.100   4.266 -0.2831  0.2229  0.1324
 4770W        W 8514   0.211   9.699   0.887 -0.0351 -0.0188  0.1199
 4771W        W 8515   8.413   7.241   9.418 -0.1163 -0.0506  0.3606
 4772W        W 8516   0.325   3.536  12.530  0.3487  0.2243  0.0907
 4773W        W 8517   4.332   9.304   8.923 -0.2854  0.1125  0.0623
 4774W        W 8518   1.784   5.508  12.720  0.0718  0.1298  0.1018
 4775W        W 8519   6.047   5.488   8.718 -0.1958 -0.0279 -0.0153
 4776W        W 8520   2.635   5.621  12.308  0.2657 -0.1166  0.2258
 4777W        W 8521   0.614   6.913   0.977  0.1438 -0.3133  0.1286
 4778W        W 8522   8.649   4.624   0.173  0.0336  0.1484  0.0752
 4779W        W 8523   3.451   5.090   2.693  0.1630 -0.0646 -0.4581
 4780W        W 8524   3.000   6.013  11.123  0.0103 -0.0243  0.0132
 4781W        W 8525   4.830   2.797  10.793 -0.0243  0.2711 -0.0191
 4782W        W 8526   1.386   5.713   2.568 -0.4904 -0.1838 -0.2015
 4783W        W 8527   5.180   1.621   1.159 -0.0173 -0.1587  0.0704
 4784W        W 8528   0.186   0.890  10.281  0.0585 -0.0091 -0.2695
 4785W        W 8529   7.894   5.518  11.030 -0.2359 -0.0857 -0.0461
 4786W        W 8530   3.056   9.050  10.153  0.2371  0.0012 -0.2420
 4787W        W 8531   7.285   9.815   3.165  0.0706  0.1135  0.1510
 4788W        W 8532   9.058   1.241  11.151 -0.1064 -0.1262 -0.0406
 4789W        W 8533   0.429   5.430  12.581  0.0171  0.0323  0.2081
 4790W        W 8534   5.847   9.139  12.373 -0.2965 -0.1720 -0.0033
 4791W        W 8535   2.658   2.865   8.817 -0.1527  0.1813  0.3270
 4792W        W 8536   4.043   3.386   8.839  0.1478 -0.0054  0.0006
 4793W        W 8537   9.211   6.014   8.686  0.1512  0.0567  0.1417
 4794W        W 8538   6.154   7.599  11.914 -0.1529  0.0291  0.0523
 4795W        W 8539   4.438   0.358  12.219  0.2561 -0.0711 -0.1210
 4796W        W 8540   5.854   0.341   0.337  0.0481 -0.2538 -0.0505
 4797W        W 8541   4.594   3.063  12.126 -0.0884 -0.0203 -0.1200
 4798W        W 8542   3.946   2.219   2.116 -0.0282 -0.1604  0.0226
 4799W        W 8543   7.389   3.207   3.220 -0.1098 -0.0236 -0.1888
 4800W        W 8544   2.323   4.195  10.785 -0.0800  0.2025  0.1921
 4801W        W 8545   4.009   2.219   3.810 -0.2458  0.4300 -0.0877
 4802W        W 8546   3.361   0.336   3.066  0.3736  0.5106 -0.0644
 4803W        W 8547   8.392   9.090  11.603  0.2101 -0.2786  0.0146
 4804W        W 8548   3.156   9.417   3.779 -0.1008  0.0735  0.1282
 4805W        W 8549   7.330   1.334   2.896 -0.0454 -0.1345 -0.0942
 4806W        W 8550   1.407   3.778   0.370  0.1967  0.3208 -0.0783
 4807W        W 8551   2.593   7.402  10.623  0.1859  0.1249  0.0160
 4808W        W 8552   7.951   7.298  11.405  0.2257 -0.1987 -0.2289
 4809W        W 8553   3.028   4.255   1.293 -0.0168  0.1026  0.0338
 4810W        W 8554   0.969   4.170   0.047 -0.0010 -0.1037 -0.1219
 4811W        W 8555   5.201   3.019   2.296  0.1045 -0.0156  0.3055
 4812W        W 8556   3.872   3.029   9.382  0.1581 -0.0198  0.3333
 4813W        W 8557   8.978   4.109   2.097  0.0507  0.0316  0.2472
 4814W        W 8558   9.704   3.337   0.456  0.1348 -0.0727 -0.2780
 4815W        W 8559   6.018   0.786  11.263  0.2596 -0.1214 -0.2121
 4816W        W 8560   4.200   6.106   2.599  0.3638 -0.0076 -0.0812
 4817W        W 8561   0.293   7.436  10.105 -0.1730  0.1812 -0.2274
 4818W        W 8562   8.176   5.743   1.507 -0.1385  0.1751  0.0829
 4819W        W 8563   8.549   3.197  11.138 -0.1232 -0.1974  0.1465
 4820W        W 8564   7.714   9.165   9.860  0.0483  0.1937  0.1521
 4821W        W 8565   6.969   2.432   9.577 -0.0506  0.0860 -0.0712
 4822W        W 8566   7.238   9.334  10.050 -0.1280 -0.0062 -0.1657
 4823W        W 8567   3.354   3.591  12.709 -0.0112 -0.0799 -0.2723
 4824W        W 8568   9.270   3.302   8.613 -0.3344 -0.1275  0.2332
 4825W        W 8569   4.445   1.176   9.981 -0.4640 -0.2292  0.1077
 4826W        W 8570   6.334   7.560  11.424  0.3517 -0.1062  0.3831
 4827W        W 8571   6.494   0.575   9.791 -0.4725  0.1343  0.0820
 4828W        W 8572   9.702   9.032   9.744  0.1802  0.0844  0.0371
 4829W        W 8573   2.081   1.458   3.224 -0.4069 -0.2546 -0.1562
 4830W        W 8574   8.292   9.567   9.400  0.0370  0.1010  0.5942
 4831W        W 8575   3.165   5.745   1.651  0.3272  0.1490 -0.0805
 4832W        W 8576   4.071   6.430   8.737 -0.0496 -0.0066 -0.1058
 4833W        W 8577   6.753   2.974  10.817  0.0124  0.1410 -0.1793
 4834W        W 8578   9.563   8.226   4.282  0.1278  0.0506 -0.2097
 4835W        W 8579   5.026   9.926   2.894 -0.1189  0.2090  0.2593
 4836W        W 8580   5.998   4.207   1.999  0.4500 -0.0106  0.1008
 4837W        W 8581   3.968   2.819   3.280  0.1046  0.2769  0.2281
 4838W        W 8582   3.189   5.300   4.000  0.1014 -0.1122 -0.0107
 4839W        W 8583   7.609   9.724  12.050 -0.0070  0.0657 -0.1926
 4840W        W 8584   8.321   3.029   9.775 -0.0157  0.0813  0.1003
 4841W        W 8585   4.468   3.868   1.096  0.0963  0.0042 -0.2279
 4842W        W 8586   9.486   8.329   1.584 -0.0647 -0.1373 -0.2477
 4843W        W 8587   6.638   0.517   4.231 -0.0879 -0.0082  0.1034
 4844W        W 8588   6.725   2.948   9.391 -0.0171  0.1747  0.2905
 4845W        W 8589   9.672   5.373   3.704 -0.2348 -0.1235  0.0799
 4846W        W 8590   2.030   6.799  11.161  0.1311  0.4174  0.0091
 4847W        W 8591   7.277   1.706   0.073 -0.2702 -0.0256  0.0333
 4848W        W 8592   6.206   2.299   8.799  0.0222  0.4711 -0.4102
 4849W        W 8593   3.928   6.337   2.245  0.3237 -0.1453  0.2569
 4850W        W 8594   6.533   8.885   0.139 -0.2186  0.2145  0.1917
 4851W        W 8595   6.759   0.810   1.238  0.3600  0.1110  0.1626
 4852W        W 8596   7.921   7.631  12.830 -0.2187 -0.3105  0.1171
 4853W        W 8597   7.518   3.387  11.362 -0.0038 -0.0628  0.2103
 4854W        W 8598   1.395   0.846   0.268  0.3521 -0.0526  0.0199
 4855W        W 8599   5.242   8.948   3.803  0.0646 -0.2509  0.0721
 4856W        W 8600   6.830   8.397   1.654  0.2312  0.1056  0.1399
 4857W        W 8601   5.304   2.238   9.777 -0.0739 -0.0502 -0.1807
 4858W        W 8602   2.844   0.456  11.950  0.1925  0.0711 -0.1975
 4859W        W 8603   6.785   4.435  10.807  0.1140  0.0042  0.0284
 4860W        W 8604   0.886   3.166   2.383 -0.2814 -0.1785 -0.1834
 4861W        W 8605   3.270   6.346   3.860 -0.0433  0.3027  0.1506
 4862W        W 8606   9.220   1.447   1.270 -0.2058  0.1918  0.0823
 4863W        W 8607   4.180   8.162   3.842  0.1065  0.0057  0.1240
 4864W        W 8608   4.391   3.800   9.653 -0.0202  0.1833 -0.0414
 4865W        W 8609   2.718   9.358   9.570  0.0549  0.2603 -0.0295
 4866W        W 8610   5.960   8.053   1.144 -0.1087  0.0544 -0.0617
 4867W        W 8611   3.692   9.228   2.331 -0.2045  0.0014 -0.3374
 4868W        W 8612   4.886   2.382  11.995 -0.0174 -0.2832 -0.2245
 4869W        W 8613   7.519   3.994  10.415  0.2610  0.2206  0.0819
 4870W        W 8614   9.848   3.798   3.107  0.0418 -0.1834  0.1706
 4871W        W 8615   1.171   7.985  10.919  0.1365 -0.3846 -0.2976
 4872W        W 8616   1.886   6.452   3.596  0.0794 -0.0783 -0.0891
 4873W        W 8617   6.746   8.833   7.566  0.1479  0.1393 -0.1716
 4874W        W 8618   8.627   1.262   1.423  0.1719 -0.1323  0.0906
 4875W        W 8619   4.301   9.822   4.028  0.0773 -0.2670 -0.2124
 4876W        W 8620   9.007   4.530   1.160  0.3586  0.0254  0.0517
 4877W        W 8621   9.169   6.983   3.051  0.3417  0.2212 -0.0077
 4878W        W 8622   1.322   5.391   1.540 -0.1794  0.0050  0.2881
 4879W        W 8623   7.011   2.278   2.387 -0.1308  0.1242  0.0646
 4880W        W 8624   3.603   6.686   5.052 -0.3617 -0.0244  0.0290
 4881W        W 8625   9.601   1.275   9.295 -0.0867  0.1702 -0.0960
 4882W        W 8626   7.476   7.956   9.023 -0.3692 -0.2825  0.2146
 4883W        W 8627   3.255   8.053   0.521 -0.1536  0.0086 -0.2863
 4884W        W 8628   7.839   7.667   2.463  0.0345  0.1111  0.0975
 4885W        W 8629   9.000   6.982   0.728 -0.0753 -0.3001 -0.0648
 4886W        W 8630   0.178   2.020   8.608  0.0590  0.0542 -0.0222
 4887W        W 8631   5.329   1.062  10.921  0.2523 -0.0416  0.0356
 4888W        W 8632   9.779   9.756   1.875  0.1181  0.0467  0.1729
 4889W        W 8633   4.894   5.790   3.968  0.3336 -0.2332 -0.0553
 4890W        W 8634   4.528   7.715   7.914  0.3275  0.2028 -0.1639
 4891W        W 8635   8.315   1.483  11.582 -0.1066  0.1282 -0.1034
 4892W        W 8636   0.174   9.267  10.232  0.1888 -0.0154 -0.0470
 4893W        W 8637   6.573   8.375   3.469 -0.0980 -0.0238  0.0349
 4894W        W 8638   6.254   5.701   4.443  0.3529  0.0183 -0.1035
 4895W        W 8639   9.361   7.914  12.610 -0.2819 -0.1913 -0.0322
 4896W        W 8640   9.373   5.862   0.603  0.1268 -0.2957 -0.2762
 4897W        W 8641   1.844   6.500  10.844 -0.2365  0.1665 -0.0048
 4898W        W 8642   6.252   1.613   2.204  0.2006 -0.1410  0.0552
 4899W        W 8643   4.864   5.985   0.370  0.2014 -0.0815  0.1959
 4900W        W 8644   2.224   7.447   9.630  0.1085  0.2126 -0.0469
 4901W        W 8645   8.147   8.250   1.254 -0.0111 -0.4349  0.3568
 4902W        W 8646   9.302   9.305  12.449 -0.0354  0.2636 -0.3454
 4903W        W 8647   6.248   7.095   3.839 -0.1920 -0.2364  0.0716
 4904W        W 8648   7.016   4.588   4.088 -0.0954 -0.0910  0.2739
 4905W        W 8649   8.736   3.685  12.817 -0.1591  0.2648 -0.0957
 4906W        W 8650   0.857   5.207  12.418  0.1984 -0.1616 -0.0192
 4907W        W 8651   6.071   5.507  10.937  0.3491 -0.1154  0.1106
 4908W        W 8652   6.842   4.427   8.857  0.1575  0.1570 -0.1430
 4909W        W 8653   0.110   1.846  12.303  0.3596  0.2039 -0.0600
 4910W        W 8654   7.274   3.114   9.548  0.3133  0.0588 -0.1267
 4911W        W 8655   3.892   8.510   2.919  0.0296  0.2027  0.2307
 4912W        W 8656   4.362   6.396   1.382  0.0917 -0.0432 -0.1647
 4913W        W 8657   7.937   2.617   2.682 -0.1711  0.3221  0.0200
 4914W        W 8658   2.998   0.347  12.461  0.1899 -0.0164  0.1866
 4915W        W 8659   4.516   2.701   0.632  0.2509 -0.1698 -0.2772
 4916W        W 8660   5.561   3.790  10.456 -0.0432 -0.0092 -0.1022
 4917W        W 8661   0.243   8.271  12.859  0.1799 -0.0106 -0.1687
 4918W        W 8662   9.194   5.255   4.832  0.2381  0.1123  0.1259
 4919W        W 8663   6.975   7.825  10.591 -0.0056  0.0412  0.0501
 4920W        W 8664   3.073   1.396   0.189  0.2661  0.3224  0.1579
 4921W        W 8665   2.842   3.761   1.312  0.0730  0.1339  0.3124
 4922W        W 8666   3.520   9.889   0.936 -0.1748  0.2214  0.2278
 4923W        W 8667   0.802   4.278   9.850 -0.0064  0.1052  0.0101
 4924W        W 8668   0.038   1.630   0.613  0.3167  0.1681 -0.2692
 4925W        W 8669   4.352   7.628   2.877 -0.0046 -0.0335 -0.2495
 4926W        W 8670   9.537   4.200  10.795 -0.0643 -0.1485 -0.1380
 4927W        W 8671   2.949   2.649   9.166 -0.1583 -0.0942 -0.2779
 4928W        W 8672   4.113   7.333  11.097 -0.3722 -0.4110 -0.2274
 4929W        W 8673   3.230   2.969   8.895  0.0646  0.0029  0.0089
 4930W        W 8674   3.702   4.050   0.672 -0.2144  0.0875 -0.1042
 4931W        W 8675   6.587   3.986   0.724 -0.1280  0.1174 -0.0512
 4932W        W 8676   2.038   6.614   0.737  0.1213 -0.0615  0.1406
 4933W        W 8677   2.372   5.044   2.134 -0.0871  0.0253 -0.2035
 4934W        W 8678   8.621   0.600   2.843  0.1571 -0.2880  0.0399
 4935W        W 8679   1.154   7.277  11.961 -0.0932  0.3762  0.1135
 4936W        W 8680   6.383   1.872  11.394  0.3118 -0.3695  0.0023
 4937W        W 8681   7.221   6.559   0.454  0.0052 -0.1281 -0.1878
 4938W        W 8682   4.250   5.710  10.704 -0.1048 -0.4259  0.0772
 4939W        W 8683   4.338   2.843   4.280  0.1681  0.1936 -0.0411
 4940W        W 8684   0.129   4.654  10.194 -0.0509  0.2172  0.0836
 4941W        W 8685   8.562   8.349   1.568 -0.1656 -0.0046 -0.1212
 4942W        W 8686   2.451   2.708   3.266 -0.0388  0.2983 -0.0135
 4943W        W 8687   4.816   9.400  10.095 -0.1266 -0.2311 -0.3076
 4944W        W 8688   7.380   0.993   2.491  0.1295  0.0874  0.1095
 4945W        W 8689   9.700   2.043   0.768 -0.1962 -0.2539 -0.0585
 4946W        W 8690   0.545   6.592   0.621 -0.1229 -0.1034 -0.0524
 4947W        W 8691   2.481   9.590   0.433  0.2357  0.0150  0.1103
 4948W        W 8692   6.260   5.749  11.355  0.0711  0.4091 -0.1558
 4949W        W 8693   2.098   8.423   1.203 -0.0547 -0.0008  0.2315
 4950W        W 8694   5.693   6.198  11.967 -0.5321 -0.1226 -0.0308
 4951W        W 8695   6.374   0.046   2.264 -0.2234  0.0305 -0.1511
 4952W        W 8696   8.851   2.837  11.947  0.1470  0.2028 -0.0086
 4953W        W 8697   4.118   9.834   0.052 -0.1376 -0.0518 -0.2414
 4954W        W 8698   3.123   9.343  10.545  0.1901  0.0514  0.2013
 4955W        W 8699   0.767   6.993  10.553 -0.0551 -0.0199 -0.0086
 4956W        W 8700   7.592   1.366   2.242  0.3501  0.0948  0.0680
 4957W        W 8701   4.748   1.194   4.348 -0.0299 -0.0697  0.1140
 4958W        W 8702   2.791   7.058  12.837  0.3501  0.0149  0.0648
 4959W        W 8703   5.828   4.762  11.434  0.0270  0.1808  0.1525
 4960W        W 8704   8.675   9.005  10.371  0.2092  0.1735 -0.0476
 4961W        W 8705   2.348   5.902   0.266 -0.2373 -0.2882  0.1185
 4962W        W 8706   4.780   1.137  10.955  0.2434  0.1223 -0.1999
 4963W        W 8707   9.656   1.176  10.544  0.0828  0.2579 -0.1122
 4964W        W 8708   6.854   4.371   0.490  0.2008 -0.0069 -0.3555
 4965W        W 8709   6.766   9.856   2.737 -0.1495  0.0933  0.4650
 4966W        W 8710   8.393   5.836  10.352 -0.2370 -0.0091 -0.0727
 4967W        W 8711   8.675   7.404   8.845 -0.2182 -0.2761 -0.0285
 4968W        W 8712   1.290   3.226   9.527 -0.2231  0.0352  0.1592
 4969W        W 8713   9.868   1.600  11.391  0.2244  0.3268 -0.2334
 4970W        W 8714   7.032   5.437  12.442 -0.1061  0.1181  0.1026
 4971W        W 8715   4.907   8.717   7.683 -0.0610  0.5830  0.1137
 4972W        W 8716   8.876   5.516   9.985  0.1049 -0.0192  0.2659
 4973W        W 8717   0.831   2.753  12.827 -0.0012  0.2592  0.0294
 4974W        W 8718   3.954   9.227   9.813 -0.0890 -0.2454 -0.0040
 4975W        W 8719   4.971   2.818  12.410 -0.1312 -0.0184  0.0799
 4976W        W 8720   3.653   0.737  11.914  0.1339  0.1217 -0.1139
 4977W        W 8721   6.833   5.737   8.103  0.1070  0.5311 -0.0232
 4978W        W 8722   3.344   5.754   2.181 -0.0247  0.1303  0.1587
 4979W        W 8723   0.623   2.432   0.308  0.2062 -0.1074  0.2754
 4980W        W 8724   0.468   6.867  11.640  0.0926 -0.2145  0.1124
 4981W        W 8725   0.181   7.728   0.041  0.0938 -0.0135  0.1456
 4982W        W 8726   2.528   0.520  11.021  0.2330 -0.0241  0.4589
 4983W        W 8727   4.049   5.250  11.946  0.4258  0.0060  0.1275
 4984W        W 8728   2.377   0.695  11.907  0.0782 -0.0799  0.1688
 4985W        W 8729   6.968   3.649   0.364 -0.0542 -0.0979 -0.0873
 4986W        W 8730   9.451   8.131   2.039 -0.1113 -0.0994 -0.0707
 4987W        W 8731   6.492   9.381   3.575  0.0156  0.0257 -0.2447
 4988W        W 8732   8.373   2.426   9.804  0.2964 -0.0074 -0.4906
 4989W        W 8733   5.691   5.070  10.056 -0.0524  0.0278  0.1328
 4990W        W 8734   5.475   0.439   3.559  0.1568  0.1242 -0.1007
 4991W        W 8735   8.905   4.021  10.301 -0.2149 -0.6663 -0.3275
 4992W        W 8736   2.772   3.079  10.397 -0.2351 -0.1005  0.0936
 4993W        W 8737   8.672   1.945   0.944  0.1290 -0.0722 -0.0733
 4994W        W 8738   5.731   5.900   1.331  0.1501 -0.0225  0.0917
 4995W        W 8739   7.284   9.303   3.263 -0.1398 -0.2411  0.2582
 4996W        W 8740   3.179   9.698   2.940  0.3553 -0.0758  0.0565
 4997W        W 8741   0.659   8.065   2.891  0.0517  0.3841  0.0427
 4998W        W 8742   5.845   1.215  10.958 -0.2057  0.0508  0.0070
 4999W        W 8743   0.542   1.419  11.668  0.2271  0.4175 -0.0446
 5000W        W 8744   1.527   9.254   9.394 -0.1735  0.2750 -0.1392
 5001W        W 8745   5.445   0.986   9.557  0.0507  0.1704  0.0580
 5002W        W 8746   9.478   8.229   2.507 -0.1538  0.0318  0.2268
 5003W        W 8747   0.317   7.500   3.450  0.0704 -0.3060 -0.0695
 5004W        W 8748   8.556   6.178   3.223  0.3008 -0.1606  0.2417
 5005W        W 8749   7.028   2.944   3.054 -0.3998  0.1727 -0.2541
 5006W        W 8750   2.348   7.413  11.403 -0.2170  0.2031 -0.0935
 5007W        W 8751   3.723   2.336   0.055  0.0897  0.2723  0.1414
 5008W        W 8752   5.917   0.240   8.593  0.0931 -0.4518  0.2374
 5009W        W 8753   4.300   5.058  11.489  0.0819 -0.0266 -0.1956
 5010W        W 8754   8.370   6.920   8.990 -0.0320  0.2469 -0.0649
 5011W        W 8755   4.342   6.840   0.471  0.2165  0.1594  0.1480
 5012W        W 8756   8.571   3.539   9.481 -0.1071 -0.1162 -0.2932
 5013W        W 8757   0.856   5.746   9.575 -0.2014  0.3096  0.1664
 5014W        W 8758   1.595   7.246   9.980 -0.0682 -0.3624 -0.2170
 5015W        W 8759   3.833   6.875   2.327  0.0737 -0.2813 -0.2959
 5016W        W 8760   5.446   5.049   1.765 -0.0547  0.0825 -0.3389
 5017W        W 8761   1.307   8.037   3.623  0.1581  0.2742 -0.0206
 5018W        W 8762   9.520   8.507  12.821 -0.1857 -0.0177  0.3220
 5019W        W 8763   8.805   1.259   2.395 -0.0906 -0.1301  0.0919
 5020W        W 8764   6.099   2.591  11.690 -0.0363  0.1384 -0.0070
 5021W        W 8765   5.903   3.564   0.053 -0.1922  0.1929  0.2349
 5022W        W 8766   6.853   2.869   1.417 -0.0463 -0.1235 -0.1430
 5023W        W 8767   7.197   9.309   0.289 -0.0994  0.1951  0.0052
 5024W        W 8768   8.173   0.019   1.968 -0.1281 -0.2300 -0.0070
 5025W        W 8769   3.499   5.082   9.823  0.0760 -0.0755  0.1438
 5026W        W 8770   2.754   3.576   0.621 -0.2291  0.2570 -0.0219
 5027W        W 8771   4.934   6.699   9.726  0.3483  0.1435 -0.0116
 5028W        W 8772   6.673   2.379   4.224  0.1087 -0.0258 -0.0208
 5029W        W 8773   1.997   1.867   9.148  0.2586 -0.0171  0.0798
 5030W        W 8774   6.954   0.625   9.479  0.0014  0.2450  0.0383
 5031W        W 8775   8.459   1.520   8.117 -0.2286 -0.1223 -0.3203
 5032W        W 8776   6.786   5.566  10.428 -0.0371  0.1169  0.1372
 5033W        W 8777   0.471   3.195   1.818 -0.0050 -0.2213  0.0542
 5034W        W 8778   4.955   3.961   0.130 -0.1378  0.1193 -0.1193
 5035W        W 8779   9.070   5.179  10.443 -0.0093  0.1391  0.1730
 5036W        W 8780   8.700   4.441   3.382 -0.1712  0.0303  0.2808
 5037W        W 8781   9.315   4.014   1.142 -0.1758 -0.0176  0.0654
 5038W        W 8782   8.722   0.357  10.754  0.1479 -0.1309 -0.1339
 5039W        W 8783   3.794   2.118  10.483 -0.0847 -0.0551  0.2813
 5040W        W 8784   7.336   3.604  12.406 -0.4173 -0.0837 -0.0310
 5041W        W 8785   3.601   0.065  10.608 -0.4125 -0.0661  0.0208
 5042W        W 8786   4.372   5.516   0.923  0.2904 -0.0444  0.3658
 5043W        W 8787   0.028   6.907  11.465  0.1515  0.1809  0.2386
 5044W        W 8788   0.193   5.538  12.137  0.0445  0.0342 -0.0377
 5045W        W 8789   6.862   9.186   1.960  0.0513  0.1427 -0.1753
 5046W        W 8790   7.605   8.230   1.978 -0.0010  0.1523 -0.0502
 5047W        W 8791   5.426   5.848  11.682 -0.0786  0.1367 -0.0702
 5048W        W 8792   3.807   8.881   1.893  0.1138  0.2043 -0.1321
 5049W        W 8793   3.168   8.938   3.521 -0.0661  0.3330 -0.0624
 5050W        W 8794   1.187   6.442  11.309 -0.2660  0.2096 -0.1081
 5051W        W 8795   2.695   7.824  12.158  0.1791 -0.0534 -0.1250
 5052W        W 8796   9.436   6.566   5.157  0.0919  0.0461 -0.1361
 5053W        W 8797   0.347   0.548   2.365  0.2733  0.0019  0.0800
 5054W        W 8798   9.807   8.274   0.665 -0.1064  0.0955  0.0202
 5055W        W 8799   2.145   6.348   2.809  0.0269  0.1762 -0.0479
 5056W        W 8800   2.397   0.146  12.231  0.2411 -0.0083 -0.3047
 5057W        W 8801   7.062   3.920  10.649  0.0150 -0.0623 -0.1355
 5058W        W 8802   9.017   6.591   9.295  0.0466 -0.2842 -0.2441
 5059W        W 8803   6.555   5.538   3.223 -0.1549 -0.3162 -0.0153
 5060W        W 8804   8.578   3.376   9.976 -0.0275  0.1807  0.0080
 5061W        W 8805   8.273   4.521   3.225  0.1215  0.2763  0.0360
 5062W        W 8806   9.881   7.367   1.619 -0.0028 -0.0726 -0.1968
 5063W        W 8807   1.686   3.789   3.251  0.0603  0.2160 -0.4594
 5064W        W 8808   8.580   3.547  12.117  0.0601  0.0948  0.4821
 5065W        W 8809   2.560   1.782  10.008  0.2311 -0.0059  0.0632
 5066W        W 8810   7.953   1.274   9.958  0.0670  0.0502 -0.0329
 5067W        W 8811   8.388   2.832  12.836 -0.0363  0.0624  0.0680
 5068W        W 8812   6.086   3.373   0.958  0.1854  0.0561  0.2314
 5069W        W 8813   6.773   1.334   3.117 -0.2296 -0.2635 -0.0668
 5070W        W 8814   2.185   4.032  11.259 -0.2344 -0.1865 -0.1337
 5071W        W 8815   0.243   2.050   2.606 -0.3238  0.2412  0.2162
 5072W        W 8816   5.375   2.992   2.785 -0.0751 -0.3151  0.3063
 5073W        W 8817   2.063   2.046  12.703 -0.1813 -0.0496  0.3024
 5074W        W 8818   0.706   5.113   0.618 -0.1608 -0.0299 -0.1762
 5075W        W 8819   9.531   5.366   9.923  0.0328 -0.0312 -0.0260
 5076W        W 8820   6.720   7.383  10.669  0.0765  0.1920 -0.0355
 5077W        W 8821   1.117   1.245  10.231 -0.3226  0.1362 -0.1091
 5078W        W 8822   9.300   3.297  11.523 -0.2152 -0.3508  0.1997
 5079W        W 8823   0.450   9.885  12.810  0.0486 -0.1692  0.0034
 5080W        W 8824   5.127   8.163   1.669  0.0312  0.0985 -0.0992
 5081W        W 8825   7.359   3.716   1.689 -0.2884  0.2251 -0.1596
 5082W        W 8826   4.458   8.096   4.325  0.1521  0.1413  0.0842
 5083W        W 8827   6.800   1.842   0.257  0.0616 -0.1687 -0.0018
 5084W        W 8828   8.660   3.394   1.364 -0.0560 -0.1734 -0.0535
 5085W        W 8829   1.014   6.535   0.985  0.1121 -0.1020  0.1259
 5086W        W 8830   7.004   7.595   3.738  0.3804 -0.0700  0.1553
 5087W        W 8831   2.635   9.916  11.861 -0.0455  0.2877  0.1385
 5088W        W 8832   7.696   1.113   4.297  0.0241 -0.3889  0.3723
 5089W        W 8833   4.355   2.243  10.510 -0.2543  0.2968  0.2774
 5090W        W 8834   6.627   9.610   1.705 -0.0512 -0.1504  0.0523
 5091W        W 8835   0.910   5.948  11.605  0.0278 -0.0501  0.2457
 5092W        W 8836   0.199   6.389   3.736  0.2377  0.3835 -0.1862
 5093W        W 8837   8.718   1.581   2.836 -0.0867 -0.1138  0.1224
 5094W        W 8838   5.216   6.649   9.267  0.0955  0.0226 -0.0733
 5095W        W 8839   0.901   1.757   2.115 -0.2636 -0.0361  0.0056
 5096W        W 8840   6.122   8.855   9.006  0.1029  0.4203  0.0846
 5097W        W 8841   0.907   1.118  12.105 -0.0801  0.2714  0.0318
 5098W        W 8842   4.741   5.313   0.586 -0.0341  0.1697 -0.1013
 5099W        W 8843   0.505   5.730   3.919 -0.1377  0.3351 -0.0469
 5100W        W 8844   7.955   9.862   1.221  0.3182  0.0212 -0.1453
 5101W        W 8845   3.930   6.462  11.253 -0.0747 -0.1054  0.3672
 5102W        W 8846   4.301   6.663   2.341 -0.2677  0.2849  0.0263
 5103W        W 8847   8.740   6.897   0.178 -0.2954  0.1351  0.2055
 5104W        W 8848   5.541   7.162   4.549 -0.2371 -0.1992 -0.0073
 5105W        W 8849   9.715   6.638   3.653  0.5045  0.3079  0.0092
 5106W        W 8850   4.392   9.105  12.529  0.1928 -0.0823  0.1195
 5107W        W 8851   0.469   1.578   2.408 -0.0161 -0.0775 -0.1256
 5108W        W 8852   8.449   8.220   0.028  0.0464  0.1660 -0.2239
 5109W        W 8853   3.191   2.236   2.142 -0.2025 -0.1469 -0.0848
 5110W        W 8854   7.338   9.248   9.526  0.3585 -0.0225  0.3896
 5111W        W 8855   5.059   3.086  11.442 -0.0548 -0.0660 -0.0708
 5112W        W 8856   8.594   7.680  12.244  0.1946  0.3582  0.0548
 5113W        W 8857   4.801   2.171   3.200  0.1411  0.3284  0.0975
 5114W        W 8858   6.696   0.545  11.575 -0.0348  0.0140 -0.1239
 5115W        W 8859   5.182   6.928  10.134  0.0371  0.0380  0.0940
 5116W        W 8860   7.409   4.871   4.071 -0.1635  0.4002  0.1412
 5117W        W 8861   8.558   1.934   0.408 -0.1435 -0.0314 -0.2075
 5118W        W 8862   0.223   7.098  11.009 -0.0486  0.2482 -0.0131
 5119W        W 8863   7.779   7.292   1.649  0.0880  0.3833 -0.1169
 5120W        W 8864   5.483   7.156   0.376  0.1418  0.3077 -0.0436
 5121W        W 8865   2.093   5.015   4.098 -0.0699  0.3628 -0.0311
 5122W        W 8866   0.005   9.365   2.330  0.2642 -0.0067  0.0232
 5123W        W 8867   1.467   0.552   1.175 -0.4209 -0.0041  0.0192
 5124W        W 8868   5.937   4.219   0.634  0.1323  0.0014 -0.3832
 5125W        W 8869   1.348   1.840  11.810 -0.2657  0.0514 -0.0801
 5126W        W 8870   8.459   5.263   1.505 -0.0531  0.0546  0.0745
 5127W        W 8871   4.126   3.193   1.450 -0.0056 -0.2039  0.1378
 5128W        W 8872   3.471   8.066   4.449 -0.1147 -0.0527  0.0040
 5129W        W 8873   0.709   9.781   3.004 -0.2941 -0.0558  0.0877
 5130W        W 8874   7.434   1.979   8.746  0.3415  0.0709 -0.3321
 5131W        W 8875   5.758   0.907   0.909  0.0612  0.0840  0.1543
 5132W        W 8876   3.490   1.975   1.840 -0.1433 -0.1054 -0.0829
 5133W        W 8877   0.560   5.735   1.467  0.0180  0.0200  0.1150
 5134W        W 8878   6.401   3.008  11.807  0.1629 -0.3908 -0.0682
 5135W        W 8879   6.116   0.613   0.710  0.0597 -0.2308  0.1438
 5136W        W 8880   8.515   8.308   3.467  0.3016 -0.0546  0.3457
 5137W        W 8881   6.067   0.744   8.536 -0.0920  0.1121 -0.3673
 5138W        W 8882   9.642   5.960   0.201  0.2784 -0.1109 -0.0372
 5139W        W 8883   9.809   3.720  10.549  0.1262  0.0003  0.1933
 5140W        W 8884   7.565   5.164   3.657  0.1551  0.0303 -0.4214
 5141W        W 8885   6.364   3.097  11.311 -0.1270  0.0028  0.1748
 5142W        W 8886   5.526   2.594   2.979 -0.0175 -0.2052 -0.3179
 5143W        W 8887   2.851   3.204   2.622  0.1378  0.1279  0.2649
 5144W        W 8888   7.333   6.506   9.133  0.2356  0.2280  0.0029
 5145W        W 8889   2.077   6.545  10.339 -0.0815 -0.1962  0.1792
 5146W        W 8890   8.764   6.640   4.098  0.2851  0.3134 -0.0000
 5147W        W 8891   8.098   7.797  11.505 -0.2277 -0.1059  0.5377
 5148W        W 8892   9.299   8.453   2.944 -0.0308  0.1068 -0.3579
 5149W        W 8893   2.540   5.970   1.625  0.0217 -0.1686  0.2442
 5150W        W 8894   2.762   3.162   9.803 -0.0391  0.2314 -0.0759
 5151W        W 8895   0.645   1.933  12.361 -0.2585 -0.2052  0.0428
 5152W        W 8896   4.474   0.155   4.391 -0.0358  0.1076  0.0541
 5153W        W 8897   5.227   9.510   9.815 -0.3644  0.0812 -0.0204
 5154W        W 8898   6.251   2.212  10.956 -0.2030  0.1291  0.2964
 5155W        W 8899   8.554   0.144  11.748  0.1608  0.1074  0.2229
 5156W        W 8900   0.908   0.385   2.247  0.3140 -0.0361  0.1692
 5157W        W 8901   6.669   1.376   0.793  0.2875 -0.0154  0.4075
 5158W        W 8902   5.302   6.613   1.590 -0.1995  0.1083 -0.0063
 5159W        W 8903   9.810   0.907   0.562  0.1121 -0.0750 -0.2181
 5160W        W 8904   8.676   1.951   9.636  0.0745 -0.0392 -0.1524
 5161W        W 8905   5.058   7.154   4.361 -0.0705  0.1408  0.0832
 5162W        W 8906   4.964   5.435   3.565 -0.0665 -0.0074 -0.0049
 5163W        W 8907   8.896   2.979  11.432 -0.1308  0.1850 -0.0453
 5164W        W 8908   4.925   7.923  11.500  0.1623 -0.1884  0.0986
 5165W        W 8909   4.144   0.002  12.422 -0.1405 -0.2572 -0.0283
 5166W        W 8910   8.708   0.006   2.924 -0.1918  0.0227  0.0125
 5167W        W 8911   5.490   2.677   4.503 -0.1362  0.1562  0.1084
 5168W        W 8912   0.068   0.739   1.019  0.2430 -0.2268 -0.1110
 5169W        W 8913   1.443   1.144  11.354  0.0212 -0.1232  0.5049
 5170W        W 8914   2.851   7.423  10.209 -0.3396  0.0906 -0.2843
 5171W        W 8915   5.350   5.862   3.524  0.2417 -0.2368 -0.1124
 5172W        W 8916   1.195   5.726   3.436 -0.4806 -0.0147  0.0232
 5173W        W 8917   7.807   0.112  12.790 -0.1475  0.0477 -0.1059
 5174W        W 8918   7.143   0.594   4.486 -0.0082 -0.0418 -0.2057
 5175W        W 8919   9.877   1.645   2.934 -0.0379 -0.2743  0.0643
 5176W        W 8920   6.743   6.078  12.701 -0.0646 -0.2448 -0.0322
 5177W        W 8921   0.115   1.744   1.600  0.0594  0.4291  0.1021
 5178W        W 8922   1.220   3.577   1.431  0.1562 -0.1601 -0.2223
 5179W        W 8923   5.526   2.728  11.584  0.0483 -0.1816 -0.4205
 5180W        W 8924   2.506   5.448   9.158 -0.3210 -0.2322 -0.0248
 5181W        W 8925   7.078   4.181   0.938  0.0077  0.1049 -0.2421
 5182W        W 8926   4.934   9.161   0.785 -0.3690 -0.3358 -0.1356
 5183W        W 8927   8.205   8.772  11.035 -0.0947  0.1490  0.0114
 5184W        W 8928   6.573   1.429  10.069  0.3284  0.0632  0.0046
 5185W        W 8929   6.477   7.189  11.069  0.3988 -0.1510 -0.0505
 5186W        W 8930   4.621   1.841   1.817  0.2837 -0.3124  0.2990
 5187W        W 8931   1.879   5.908   2.037 -0.3990  0.1828  0.0712
 5188W        W 8932   4.804   3.899   9.346 -0.2453  0.0971  0.0465
 5189W        W 8933   8.248   2.293   0.324  0.4211 -0.2141  0.0178
 5190W        W 8934   0.534   9.504   0.521  0.0380  0.2000 -0.3081
 5191W        W 8935   9.840   5.710   9.273 -0.0167  0.1858  0.0771
 5192W        W 8936   7.834   0.401   9.843 -0.0004  0.1076 -0.2944
 5193W        W 8937   7.957   9.608   3.582 -0.1611  0.1583 -0.2504
 5194W        W 8938   5.747   8.643  12.505  0.0720  0.0545  0.0714
 5195W        W 8939   7.510   8.424   8.915 -0.0541 -0.0971  0.3001
 5196W        W 8940   9.759   5.944  11.255 -0.5242  0.1143  0.0347
 5197W        W 8941   9.616   2.084  11.297 -0.0511  0.1103 -0.1954
 5198W        W 8942   0.718   4.884   1.245  0.0367 -0.0199  0.2010
 5199W        W 8943   2.247   6.881   1.752 -0.2423 -0.3621  0.1682
 5200W        W 8944   4.844   6.329   1.251 -0.1455  0.0725  0.0700
 5201W        W 8945   4.545   3.680   0.220  0.4619 -0.0241 -0.1470
 5202W        W 8946   4.540   6.625  11.017 -0.1027 -0.0615  0.2746
 5203W        W 8947   6.234   8.150   0.763  0.1386  0.0302 -0.1184
 5204W        W 8948   4.255   6.960   1.409 -0.0470  0.0559  0.3406
 5205W        W 8949   4.404   8.030  11.632  0.0965  0.0921 -0.1544
 5206W        W 8950   0.811   9.378  10.414 -0.1736  0.0071  0.1006
 5207W        W 8951   2.246   2.333   2.976 -0.0669  0.0077 -0.1986
 5208W        W 8952   8.367   7.751   9.257  0.1874  0.1954  0.0159
 5209W        W 8953   2.923   1.486  11.031 -0.0314 -0.0085  0.0100
 5210W        W 8954   1.535   7.641  11.190 -0.1508 -0.0755 -0.0073
 5211W        W 8955   4.057   5.079   0.865 -0.1752  0.4497  0.0871
 5212W        W 8956   1.294   6.162   1.273 -0.0546  0.3347 -0.1159
 5213W        W 8957   5.520   5.591  10.614 -0.1582  0.1983  0.2215
 5214W        W 8958   8.981   7.563   1.672  0.0252 -0.1480 -0.0942
 5215W        W 8959   5.984   6.045   2.838 -0.2016 -0.0542  0.0839
 5216W        W 8960   1.228   2.212   2.671 -0.0899  0.0760  0.2112
 5217W        W 8961   2.654   7.718   2.031  0.0311 -0.1804 -0.0453
 5218W        W 8962   4.708   7.370   2.653 -0.2282  0.0677 -0.2497
 5219W        W 8963   4.688   9.354  11.118  0.0922  0.1470 -0.1710
 5220W        W 8964   0.506   3.191   0.883  0.1246  0.1192 -0.4071
 5221W        W 8965   6.012   1.931   1.855 -0.2416 -0.0601  0.1010
 5222W        W 8966   2.069   5.241   4.724 -0.0437 -0.2917 -0.1580
 5223W        W 8967   1.454   6.429   4.026 -0.1764 -0.0946  0.0615
 5224W        W 8968   3.956   1.114   3.322 -0.4070  0.1534  0.2061
 5225W        W 8969   3.903   0.746  12.754  0.2638 -0.3486 -0.2656
 5226W        W 8970   5.840   6.484  11.225  0.0188 -0.0053  0.1137
 5227W        W 8971   0.178   2.970  10.366 -0.1527 -0.2960 -0.0964
 5228W        W 8972   2.403   2.886  10.144  0.1077 -0.0787  0.0209
 5229W        W 8973   4.557   3.185   0.400  0.1441  0.0088 -0.3843
 5230W        W 8974   9.376   9.113   8.340  0.0159 -0.1079 -0.0578
 5231W        W 8975   0.259   3.913   2.704  0.1684 -0.1332 -0.0031
 5232W        W 8976   7.792   3.584  12.733 -0.3525  0.3722 -0.1804
 5233W        W 8977   2.993   0.387   9.549 -0.0243  0.1676 -0.0433
 5234W        W 8978   7.810   3.333   1.936 -0.0984 -0.1590  0.2005
 5235W        W 8979   7.146   2.441   3.258  0.0421  0.0312 -0.2155
 5236W        W 8980   2.948   2.327   3.365 -0.1887  0.1463 -0.2289
 5237W        W 8981   5.670   8.824   1.109  0.0932  0.2451  0.1653
 5238W        W 8982   8.047   8.097   2.286  0.2330 -0.0528 -0.1057
 5239W        W 8983   5.269   5.794   9.706  0.1171  0.0818 -0.0172
 5240W        W 8984   6.275   1.028   9.752 -0.1653 -0.0507  0.2831
 5241W        W 8985   9.858   4.260   0.396  0.1230 -0.0641  0.0524
 5242W        W 8986   8.752   7.585   2.672  0.2085 -0.1272  0.3866
 5243W        W 8987   5.580   2.113   3.669 -0.2454  0.1797  0.0288
 5244W        W 8988   5.306   6.155   1.478  0.1121  0.0684 -0.1240
 5245W        W 8989   2.709   9.572   2.786 -0.0331 -0.1535  0.1595
 5246W        W 8990   1.449   5.858   4.308  0.0876  0.0663  0.0368
 5247W        W 8991   6.134   9.853  10.740 -0.2044 -0.0128 -0.1094
 5248W        W 8992   3.721   1.899  12.526 -0.3022 -0.1439  0.1689
 5249W        W 8993   3.044   3.812  10.158  0.1121  0.2753  0.1961
 5250W        W 8994   5.600   8.725   1.865 -0.1433  0.1908 -0.0524
 5251W        W 8995   3.055   5.335   9.730 -0.1166  0.3555  0.1831
 5252W        W 8996   9.680   4.439   1.261 -0.1511 -0.1165  0.0209
 5253W        W 8997   4.386   3.258  11.226 -0.1707  0.1917 -0.2311
 5254W        W 8998   8.602   1.310  12.512  0.0760  0.4225  0.0526
 5255W        W 8999   8.193   1.769   0.814  0.0433 -0.4209  0.1616
 5256W        W 9000   7.041   6.456  10.539 -0.1967  0.1320  0.0397
 5257W        W 9001   0.971   3.089  11.293 -0.0939 -0.3519  0.0088
 5258W        W 9002   0.286   7.306   9.374  0.0176  0.2588 -0.1718
 5259W        W 9003   5.495   9.232   3.483 -0.0656 -0.2206 -0.0704
 5260W        W 9004   1.023   8.447  10.989 -0.0925  0.0763  0.0475
 5261W        W 9005   0.153   7.616   1.173 -0.0980  0.0406  0.5885
 5262W        W 9006   6.605   6.084  10.233 -0.1771 -0.0508  0.0109
 5263W        W 9007   3.585   3.992  12.844 -0.1920 -0.3567 -0.0513
 5264W        W 9008   6.635   2.325   3.254  0.0392 -0.1866  0.0907
 5265W        W 9009   4.414   4.384   0.935  0.0537 -0.2435 -0.1628
 5266W        W 9010   4.145   4.932  12.427 -0.2485 -0.1883 -0.1172
 5267W        W 9011   0.669   5.507   9.147 -0.5019 -0.0488  0.0040
 5268W        W 9012   0.387   3.638   1.233 -0.1879 -0.0332 -0.0597
 5269W        W 9013   5.879   7.304  11.270 -0.1945  0.2360 -0.0141
 5270W        W 9014   8.609   5.850   0.156  0.2045 -0.0338 -0.1864
 5271W        W 9015   7.910   5.377  12.481 -0.1379  0.1564  0.2529
 5272W        W 9016   2.781   5.910   2.071  0.0007 -0.3112  0.2328
 5273W        W 9017   8.562   9.858   1.276 -0.3274  0.2207  0.3439
 5274W        W 9018   6.753   8.007   8.574 -0.5560 -0.0571 -0.0510
 5275W        W 9019   6.852   7.216   4.529 -0.1051  0.2149 -0.0566
 5276W        W 9020   1.429   2.917  10.848 -0.3841  0.3282 -0.0749
 5277W        W 9021   1.594   9.915  11.907 -0.0507  0.1634 -0.3654
 5278W        W 9022   9.643   0.182   1.422 -0.1829  0.1092  0.2380
 5279W        W 9023   7.821   0.288   1.733  0.0029  0.0285  0.0946
 5280W        W 9024   1.681   3.802   1.508 -0.0361  0.3565  0.0415
 5281W        W 9025   2.261   2.618   8.619  0.1759 -0.0840  0.1189
 5282W        W 9026   6.208   0.736  12.598 -0.0679 -0.1926  0.2543
 5283W        W 9027   6.904   6.903  10.061 -0.0089 -0.2749 -0.1820
 5284W        W 9028   0.469   1.079   2.204  0.2043 -0.0974  0.4004
 5285W        W 9029   7.086   7.855  11.966 -0.0852  0.0090  0.2550
 5286W        W 9030   6.952   7.916   9.035 -0.1927 -0.2097  0.0766
 5287W        W 9031   1.963   6.980   0.431 -0.2675 -0.1989 -0.0915
 5288W        W 9032   6.597   6.529   0.070  0.2312  0.0181  0.3186
 5289W        W 9033   5.546   3.233   0.273  0.1095  0.1311 -0.3074
 5290W        W 9034   7.829   2.381   9.252  0.1450  0.2275  0.1899
 5291W        W 9035   4.571   1.077   2.441 -0.1057 -0.0798  0.4259
 5292W        W 9036   4.629   4.276   9.678  0.0901  0.1824  0.1006
 5293W        W 9037   4.792   0.686  11.096  0.2672 -0.3218 -0.2860
 5294W        W 9038   4.062   5.351   1.943 -0.1799 -0.0635 -0.0619
 5295W        W 9039   2.090   3.755   9.286  0.1870 -0.1683  0.0922
 5296W        W 9040   2.808   1.106   3.510  0.1651 -0.1171 -0.1469
 5297W        W 9041   6.520   4.753   3.673 -0.0894 -0.1013  0.1526
 5298W        W 9042   2.799   8.416   0.809  0.0554 -0.2395 -0.1027
 5299W        W 9043   1.514   2.512  10.183  0.0380 -0.1430 -0.1651
 5300W        W 9044   0.795   3.524   4.358 -0.0618 -0.1977 -0.2774
 5301W        W 9045   3.112   0.051  10.405  0.0562 -0.0076  0.1789
 5302W        W 9046   6.289   9.399   2.087 -0.0404 -0.1146  0.2261
 5303W        W 9047   7.528   6.432  12.041  0.1584  0.0262  0.2059
 5304W        W 9048   8.963   5.266   9.476  0.0964 -0.2661  0.0246
 5305W        W 9049   9.563   4.127   3.399  0.1079  0.0383 -0.2638
 5306W        W 9050   0.126   0.973  10.893 -0.2007 -0.1929 -0.1120
 5307W        W 9051   1.828   1.535   0.723 -0.0831 -0.1522  0.1112
 5308W        W 9052   4.435   0.823   9.223  0.1676  0.0640 -0.0247
 5309W        W 9053   7.415   2.984  10.981 -0.1117  0.1279  0.2470
 5310W        W 9054   0.003   1.857   0.143  0.3218 -0.2122 -0.1625
 5311W        W 9055   4.635   6.408   0.369  0.2988 -0.0425  0.0189
 5312W        W 9056   5.750   6.652   3.448 -0.0812 -0.0869  0.1326
 5313W        W 9057   9.422   7.193   2.260 -0.0400  0.0294  0.0715
 5314W        W 9058   6.503   6.385   2.063  0.0096 -0.2641 -0.1319
 5315W        W 9059   8.848   3.067   8.059  0.0304 -0.0041  0.1278
 5316W        W 9060   7.209   3.027  10.572 -0.2038  0.2268  0.1177
 5317W        W 9061   0.661   7.081   3.514 -0.0782 -0.1784 -0.0949
 5318W        W 9062   1.631   3.439   9.163  0.0812 -0.1332  0.2521
 5319W        W 9063   1.564   8.159   2.617  0.0754  0.1505  0.2236
 5320W        W 9064   7.910   5.444   2.761 -0.2375  0.0700  0.2750
 5321W        W 9065   2.641   9.385  12.848 -0.0835 -0.0175 -0.3367
 5322W        W 9066   3.078   9.301  12.393  0.0946 -0.3094  0.1356
 5323W        W 9067   0.961   3.166  12.500 -0.0284  0.2180 -0.1442
 5324W        W 9068   7.769   4.912  12.617  0.1348 -0.1536  0.2305
 5325W        W 9069   7.107   1.743   2.261 -0.1121  0.4048 -0.4985
 5326W        W 9070   1.282   6.138   0.772 -0.2521  0.3035  0.0216
 5327W        W 9071   4.821   0.283   1.772  0.1500  0.0592 -0.1541
 5328W        W 9072   7.329   4.197   8.333 -0.1770 -0.0876 -0.2172
 5329W        W 9073   5.683   0.360   9.362  0.0725 -0.3066 -0.0214
 5330W        W 9074   4.244   6.558  11.830  0.2897  0.0991 -0.2134
 5331W        W 9075   3.514   1.649   0.007  0.0874  0.0310  0.3011
 5332W        W 9076   1.239   2.085  11.297  0.1101  0.0455  0.0190
 5333W        W 9077   7.227   1.609   8.960  0.1492  0.1156 -0.1415
 5334W        W 9078   5.275   6.224  10.023 -0.2640  0.2130  0.3759
 5335W        W 9079   5.500   8.604   0.095 -0.0534 -0.3126 -0.3686
 5336W        W 9080   7.855   1.860   2.310 -0.0646  0.5645  0.1509
 5337W        W 9081   3.979   7.380   1.297  0.1591 -0.0946 -0.0493
 5338W        W 9082   4.485   6.162  10.865  0.0640  0.2821  0.0324
 5339W        W 9083   9.607   9.546  12.833 -0.0259  0.2329  0.0122
 5340W        W 9084   2.321   1.827   9.568 -0.2724 -0.2066 -0.0109
 5341W        W 9085   0.845   2.658   8.693 -0.3282  0.0264 -0.1885
 5342W        W 9086   6.018   6.023  10.025  0.2144 -0.0841 -0.0399
 5343W        W 9087   3.493   6.160   1.843 -0.0306  0.1253 -0.1947
 5344W        W 9088   3.147   4.385   9.290 -0.3340  0.0005 -0.0425
 5345W        W 9089   2.405   0.113  10.739  0.1012  0.1766 -0.1386
 5346W        W 9090   3.978   3.710   1.166 -0.0582 -0.3660  0.0311
 5347W        W 9091   5.021   5.440  10.545 -0.2259  0.0692  0.0630
 5348W        W 9092   8.945   6.609  11.826  0.1003 -0.0022 -0.2118
 5349W        W 9093   9.014   5.965  12.529 -0.1236  0.0798  0.0068
 5350W        W 9094   7.563   4.658  12.186 -0.0031 -0.1481 -0.0814
 5351W        W 9095   9.248   4.073   1.612  0.1307  0.2852 -0.0267
 5352W        W 9096   8.445   2.121  11.731 -0.1433  0.1235  0.0400
 5353W        W 9097   4.043   0.814   1.598  0.0241  0.3229 -0.1091
 5354W        W 9098   3.619   5.913   1.393  0.0353 -0.2781 -0.3041
 5355W        W 9099   9.467   5.204  10.874  0.2142  0.0515  0.0117
 5356W        W 9100   0.212   7.495   2.876  0.0150  0.2084  0.1844
 5357W        W 9101   7.364   6.835  12.831 -0.2165 -0.2460  0.0039
 5358W        W 9102   1.404   4.110   4.217  0.2971 -0.0065  0.1322
 5359W        W 9103   7.283   0.877  11.858 -0.0250  0.0318  0.1670
 5360W        W 9104   5.474   4.649   1.065  0.0677  0.0221  0.0300
 5361W        W 9105   6.263   8.883   2.830  0.1320  0.0039 -0.1605
 5362W        W 9106   1.540   1.668  11.351 -0.0741  0.0888 -0.3175
 5363W        W 9107   2.385   0.829  10.620  0.2267  0.0598 -0.5064
 5364W        W 9108   2.588   6.880   0.440  0.0252  0.0505  0.1899
 5365W        W 9109   3.261   2.261  10.174 -0.1696  0.4015  0.0790
 5366W        W 9110   8.301   5.004  11.787 -0.1848 -0.1054 -0.1829
 5367W        W 9111   2.468   8.089   8.719 -0.2090 -0.0414  0.0433
 5368W        W 9112   7.339   3.765  11.143  0.1029 -0.1139 -0.1406
 5369W        W 9113   6.014   6.475   1.667  0.5144 -0.2748 -0.1919
 5370W        W 9114   1.679   4.546  12.379  0.0507 -0.0491  0.1233
 5371W        W 9115   7.864   0.854   2.633 -0.1050  0.2523 -0.2067
 5372W        W 9116   7.168   4.477   3.071  0.0084  0.3122 -0.0108
 5373W        W 9117   2.396   4.494   1.662 -0.1128  0.0330  0.0474
 5374W        W 9118   7.925   1.442   3.561  0.1319 -0.0236  0.1637
 5375W        W 9119   7.254   7.956  11.393  0.0777  0.1830 -0.1566
 5376W        W 9120   0.129   9.727  12.130  0.3057 -0.4194  0.1601
 5377W        W 9121   8.279   2.451   0.876  0.2493  0.0547  0.0998
 5378W        W 9122   6.863   0.672  10.179  0.0329 -0.2424 -0.1844
 5379W        W 9123   7.140   1.725   0.590 -0.1675  0.0370  0.0413
 5380W        W 9124   4.148   7.015  10.044 -0.2512  0.1981  0.1918
 5381W        W 9125   0.002   3.462  10.118  0.0732  0.6607  0.1441
 5382W        W 9126   7.296   5.946   9.272 -0.1797 -0.1737  0.0935
 5383W        W 9127   9.575   4.894   1.181 -0.2865  0.0355  0.1783
 5384W        W 9128   2.678   4.286   8.308 -0.2095 -0.1769 -0.0273
 5385W        W 9129   5.970   1.277  12.591 -0.0823  0.4211 -0.1109
 5386W        W 9130   9.643   2.569  11.956 -0.3077 -0.1441  0.2950
 5387W        W 9131   6.594   9.553  11.394  0.3178 -0.1934  0.1153
 5388W        W 9132   5.105   0.906  12.778 -0.1155  0.2587  0.1400
 5389W        W 9133   5.226   3.560   3.560  0.1441 -0.0580  0.0497
 5390W        W 9134   6.599   6.763  12.471 -0.1432  0.2095  0.0119
 5391W        W 9135   4.376   2.579   9.246  0.1979 -0.0628 -0.1759
 5392W        W 9136   3.596   2.899   4.062 -0.3922  0.1249  0.1311
 5393W        W 9137   4.899   6.914   0.524  0.2304 -0.3620  0.0414
 5394W        W 9138   0.288   2.802   0.060  0.0788 -0.2900 -0.2004
 5395W        W 9139   8.558   1.224   8.938  0.2035 -0.1777  0.1060
 5396W        W 9140   4.884   3.220  10.993  0.1911  0.0484  0.0948
 5397W        W 9141   7.351   7.505   1.367 -0.3849  0.0171  0.2259
 5398W        W 9142   3.644   2.576   0.995  0.0871  0.1610  0.0224
 5399W        W 9143   9.783   9.352  12.337 -0.0947 -0.0432  0.0224
 5400W        W 9144   6.724   8.571   4.828  0.0975 -0.0570 -0.1732
 5401W        W 9145   7.556   6.144   7.783 -0.0209 -0.2287 -0.1636
 5402W        W 9146   3.555   0.445   0.781  0.1020 -0.0959  0.1220
 5403W        W 9147   7.378   4.598   1.679  0.3093 -0.2394 -0.2208
 5404W        W 9148   6.031   9.286   3.774  0.1600  0.0926  0.0686
 5405W        W 9149   3.594   5.354  12.131 -0.1536 -0.2142 -0.3168
 5406W        W 9150   9.260   4.929   2.247 -0.2832  0.1847 -0.0739
 5407W        W 9151   8.515   9.743   8.120 -0.1428 -0.1420  0.0620
 5408W        W 9152   1.260   8.915   1.237  0.1617  0.3050 -0.1959
 5409W        W 9153   9.806   2.339   1.759 -0.0383  0.2730 -0.1294
 5410W        W 9154   7.131   3.158  12.330 -0.0152 -0.2222 -0.0883
 5411W        W 9155   6.047   2.316  10.382  0.1487 -0.0745 -0.5307
 5412W        W 9156   1.266   2.344  10.597  0.3112 -0.2797 -0.0957
 5413W        W 9157   1.877   3.329   2.244  0.0802 -0.1397  0.0504
 5414W        W 9158   6.733   7.908   1.662  0.1960  0.0986  0.1965
 5415W        W 9159   3.065   1.297   1.369  0.0287  0.1970 -0.2332
 5416W        W 9160   1.394   5.889  11.755  0.0644  0.0281  0.3538
 5417W        W 9161   0.002   4.601   4.160 -0.4926 -0.2393  0.0136
 5418W        W 9162   6.639   9.879   8.018  0.1471  0.2273 -0.0505
 5419W        W 9163   7.837   1.773   9.839 -0.1354 -0.0977  0.2071
 5420W        W 9164   4.681   8.272  10.438  0.0571 -0.0994 -0.2119
 5421W        W 9165   2.485   8.656  12.173  0.0620 -0.0746  0.2585
 5422W        W 9166   3.099   8.486   0.356 -0.5977 -0.0790 -0.0511
 5423W        W 9167   0.242   4.032   2.188 -0.0776 -0.3810  0.1588
 5424W        W 9168   9.195   2.070   1.944  0.1465  0.0339  0.0444
 5425W        W 9169   4.652   7.371   0.678  0.0376  0.2765 -0.0327
 5426W        W 9170   1.282   4.844   4.649  0.3133  0.0882  0.1005
 5427W        W 9171   8.960   7.794   0.537 -0.1715  0.1422  0.1671
 5428W        W 9172   3.994   4.700   1.101  0.1494  0.2005 -0.1216
 5429W        W 9173   0.012   5.469   1.089  0.0257 -0.2969 -0.3720
 5430W        W 9174   0.104   0.029  11.695 -0.0130 -0.0577 -0.0257
 5431W        W 9175   6.796   8.492   0.356  0.1328  0.0590 -0.0574
 5432W        W 9176   0.303   3.729   9.735 -0.0948  0.1256  0.0953
 5433W        W 9177   3.490   2.051  12.057 -0.0054  0.0916  0.3840
 5434W        W 9178   0.716   4.954   2.586 -0.0588 -0.0114 -0.0210
 5435W        W 9179   8.215   8.426   0.438  0.1988  0.0403 -0.1415
 5436W        W 9180   1.131   8.671   3.698 -0.0309  0.0816  0.0858
 5437W        W 9181   7.781   8.704   1.741  0.2189 -0.2970  0.0791
 5438W        W 9182   3.344   7.201   8.835  0.3081  0.0598 -0.2280
 5439W        W 9183   8.196   5.554   9.921  0.0621 -0.3414 -0.1589
 5440W        W 9184   2.277   2.912   9.641  0.1447 -0.0484 -0.2870
 5441W        W 9185   1.560   1.196  10.516  0.0112 -0.1811  0.0456
 5442W        W 9186   2.040   4.883  10.945 -0.1150 -0.1433  0.0157
 5443W        W 9187   0.621   5.411   0.164  0.1504  0.0066  0.1629
 5444W        W 9188   5.527   3.939   1.486  0.1346  0.0394  0.1886
 5445W        W 9189   3.784   0.632   1.178 -0.0911 -0.0913  0.0822
 5446W        W 9190   8.811   1.623  11.613 -0.0702  0.0473  0.0769
 5447W        W 9191   3.745   8.246   8.816  0.2765  0.0824  0.0248
 5448W        W 9192   7.636   8.190   8.509 -0.0467 -0.1891 -0.1159
 5449W        W 9193   8.988   9.241   0.145  0.0398  0.0095 -0.1876
 5450W        W 9194   4.342   2.076   1.138 -0.2099  0.0623  0.1522
 5451W        W 9195   6.922   4.267   9.810 -0.1678  0.1486 -0.0135
 5452W        W 9196   6.171   4.978   0.545 -0.1564 -0.2731  0.0667
 5453W        W 9197   7.785   3.523   3.031  0.3018  0.2244 -0.3452
 5454W        W 9198   7.548   1.031  10.688 -0.1208 -0.0408  0.2048
 5455W        W 9199   6.967   4.098   1.877 -0.0647 -0.1701 -0.0629
 5456W        W 9200   6.139   6.212   1.291  0.0591  0.1216 -0.3161
 5457W        W 9201   1.275   7.358   2.884  0.0118  0.0471 -0.0392
 5458W        W 9202   5.462   8.514   1.465  0.0887  0.1373 -0.0591
 5459W        W 9203   5.171   0.586   1.987  0.0919 -0.2324 -0.0725
 5460W        W 9204   7.075   8.514  12.201  0.0659 -0.1389  0.2431
 5461W        W 9205   6.145   8.436   8.153 -0.2002 -0.1816  0.0566
 5462W        W 9206   4.652   3.758   4.037 -0.2662  0.1115 -0.0357
 5463W        W 9207   0.326   9.566   1.811 -0.0582  0.0604  0.0840
 5464W        W 9208   3.693   2.672  11.323 -0.3520 -0.0982  0.1042
 5465W        W 9209   2.644   6.535  10.393 -0.0858  0.2982 -0.0255
 5466W        W 9210   1.368   5.389   0.629  0.1728 -0.1613  0.1388
 5467W        W 9211   9.816   4.081   1.737 -0.0615  0.2953 -0.0337
 5468W        W 9212   5.032   5.385   1.652 -0.0936  0.0646  0.2091
 5469W        W 9213   0.931   4.776  10.725  0.1944 -0.1522 -0.1020
 5470W        W 9214   9.342   9.410   1.781  0.0895  0.2671  0.0607
 5471W        W 9215   0.955   8.839   0.356  0.0520  0.1031  0.2834
 5472W        W 9216   7.606   1.852   3.652  0.1220  0.3957  0.0065
 5473W        W 9217   4.694   1.397   1.621  0.2183 -0.2537  0.2231
 5474W        W 9218   8.930   0.432   3.743  0.1527  0.0393  0.2443
 5475W        W 9219   0.460   1.707   2.898 -0.1928 -0.4432  0.0877
 5476W        W 9220   3.585   5.640   4.732  0.1002 -0.0021  0.1392
 5477W        W 9221   7.451   9.260   1.927 -0.0117  0.4418  0.4819
 5478W        W 9222   7.581   5.760   2.438 -0.1795 -0.2679  0.2406
 5479W        W 9223   9.257   5.635  10.240 -0.1414 -0.0453 -0.0229
 5480W        W 9224   9.150   9.153   0.627 -0.1809 -0.3240 -0.2238
 5481W        W 9225   7.851   7.356   2.886  0.2056  0.0376  0.0520
 5482W        W 9226   0.195   2.823  11.967 -0.1462 -0.1669  0.0335
 5483W        W 9227   9.762   4.717   8.638 -0.0399 -0.3592 -0.0432
 5484W        W 9228   0.545   7.372  10.803 -0.1022 -0.1969 -0.1748
 5485W        W 9229   0.006   5.860   1.507 -0.0799 -0.0822 -0.1538
 5486W        W 9230   4.776   5.744   2.610  0.3576 -0.0621 -0.0877
 5487W        W 9231   5.423   5.374   0.116  0.4933  0.0765 -0.3896
 5488W        W 9232   5.741   4.507  10.797  0.1974  0.3324  0.1003
 5489W        W 9233   2.240   5.365   0.026  0.2688  0.0399  0.0942
 5490W        W 9234   8.349   3.972   9.703 -0.1152  0.0343 -0.1243
 5491W        W 9235   5.684   6.180   9.720 -0.0216  0.1676  0.3682
 5492W        W 9236   5.095   0.665  10.693 -0.0962  0.1587  0.0377
 5493W        W 9237   1.941   2.756   1.467  0.1248 -0.4015 -0.0250
 5494W        W 9238   8.788   2.079   9.187  0.2626  0.2412 -0.1242
 5495W        W 9239   6.504   1.142  12.721 -0.2820 -0.2567  0.3585
 5496W        W 9240   7.365   7.264   3.543 -0.1110  0.4347 -0.2289
 5497W        W 9241   6.512   1.978   8.526 -0.1780 -0.4641  0.3315
 5498W        W 9242   1.532   5.359  11.693  0.3724  0.1380  0.1086
 5499W        W 9243   1.034   6.527   3.686 -0.0589 -0.1013 -0.0619
 5500W        W 9244   4.932   7.265  12.105 -0.2005 -0.0980  0.0794
 5501W        W 9245   4.944   1.518   8.763  0.0027 -0.0631  0.3280
 5502W        W 9246   6.824   8.892  10.182 -0.1064 -0.1208  0.0399
 5503W        W 9247   1.910   7.709  11.477  0.0613 -0.0485  0.0114
 5504W        W 9248   6.238   3.362   4.825  0.0911  0.0743  0.0662
 5505W        W 9249   7.788   7.316  11.971  0.1560 -0.0962 -0.1943
 5506W        W 9250   4.845   1.744   4.230  0.0358  0.2764  0.1503
 5507W        W 9251   9.113   6.434   4.460 -0.3989 -0.1967 -0.0577
 5508W        W 9252   1.614   9.003  11.591  0.1020 -0.1656 -0.2222
 5509W        W 9253   1.205   6.470   2.592 -0.4497 -0.0868 -0.1555
 5510W        W 9254   2.679   2.721   0.833 -0.3278  0.2129 -0.1423
 5511W        W 9255   6.695   8.400  11.216  0.0789  0.1375  0.1768
 5512W        W 9256   1.216   5.152   3.025  0.0870 -0.1315 -0.1469
 5513W        W 9257   5.160   2.934   3.747  0.0444 -0.1662  0.1101
 5514W        W 9258   9.889   0.957   9.612 -0.0477  0.2201  0.2219
 5515W        W 9259   4.597   4.405   2.010 -0.2990  0.1228  0.0153
 5516W        W 9260   4.483   4.339   0.368 -0.0983  0.0218  0.3128
 5517W        W 9261   7.848   6.670   2.919  0.0555 -0.1042 -0.2944
 5518W        W 9262   4.074   7.444   9.791  0.0597 -0.0885  0.1697
 5519W        W 9263   3.622   6.176   4.793  0.1359  0.2754 -0.1470
 5520W        W 9264   5.375   3.893  11.248  0.2168  0.2565  0.3382
 5521W        W 9265   5.064   0.981  11.497  0.2790 -0.1292 -0.2621
 5522W        W 9266   6.398   1.102  12.200  0.0277  0.0483 -0.1282
 5523W        W 9267   3.341   1.209  10.102  0.2973 -0.0551  0.1323
 5524W        W 9268   9.619   5.159  10.360 -0.2917 -0.1015 -0.0252
 5525W        W 9269   9.571   5.885   1.088  0.0222 -0.0974  0.0306
 5526W        W 9270   9.464   3.572   2.469 -0.0898 -0.1711  0.0719
 5527W        W 9271   4.583   0.040  12.680  0.2091  0.2790  0.0421
 5528W        W 9272   3.655   3.573  11.809  0.0628  0.2101 -0.2743
 5529W        W 9273   2.629   4.285  10.061 -0.0927  0.2549  0.0738
 5530W        W 9274   6.171   9.073  10.847  0.2980 -0.0392 -0.0272
 5531W        W 9275   6.154   2.668  10.751 -0.2399  0.1424  0.1020
 5532W        W 9276   6.672   9.490   1.157  0.2052  0.1223  0.3308
 5533W        W 9277   3.660   2.557  11.876 -0.0847  0.0464 -0.2272
 5534W        W 9278   9.256   6.486  11.424  0.0021  0.0994  0.2696
 5535W        W 9279   2.403   3.604   2.813 -0.2180 -0.1380 -0.2468
 5536W        W 9280   4.573   1.511   2.682  0.1603 -0.2628  0.1024
 5537W        W 9281   8.072   6.484   0.661 -0.2578  0.1924  0.1065
 5538W        W 9282   8.087   8.825  10.133 -0.1185  0.0856  0.1700
 5539W        W 9283   5.757   9.475  11.997  0.1140  0.0318  0.0532
 5540W        W 9284   7.852   5.076  12.112  0.0255  0.0249  0.0548
 5541W        W 9285   3.953   9.788   1.533 -0.1208 -0.2518 -0.2383
 5542W        W 9286   0.333   4.590   3.384  0.0069 -0.0562  0.0905
 5543W        W 9287   6.133   2.728   2.132 -0.0979  0.0618  0.0176
 5544W        W 9288   8.375   5.950  11.335 -0.0234  0.0573 -0.3537
 5545W        W 9289   0.095   8.160  11.391  0.0165 -0.0427 -0.4010
 5546W        W 9290   2.495   0.080  11.355  0.1118 -0.2444  0.0714
 5547W        W 9291   4.396   6.324   4.629 -0.0218 -0.0139  0.3360
 5548W        W 9292   2.115   3.462   0.204  0.1000 -0.0755 -0.1346
 5549W        W 9293   9.748   7.606   3.397  0.2988 -0.1314 -0.3041
 5550W        W 9294   6.812   2.342   1.379 -0.1240 -0.1733 -0.0420
 5551W        W 9295   7.623   2.177   3.987  0.3525  0.1144 -0.1098
 5552W        W 9296   6.955   1.326  10.308 -0.1852 -0.0743 -0.0959
 5553W        W 9297   4.929   5.515   4.820  0.1275 -0.1551 -0.1175
 5554W        W 9298   9.182   0.217  12.249  0.1390 -0.0831 -0.2671
 5555W        W 9299   2.173   8.195  10.791 -0.0253  0.0976  0.3122
 5556W        W 9300   6.990   0.292   3.981 -0.2320 -0.1649  0.0477
 5557W        W 9301   0.845   6.285   1.450 -0.1557 -0.0659 -0.1851
 5558W        W 9302   0.403   1.880   3.939 -0.1077 -0.3005  0.0888
 5559W        W 9303   4.645   4.096   8.882  0.1714  0.0829  0.1146
 5560W        W 9304   3.636   3.274  10.203 -0.1733 -0.0725 -0.0700
 5561W        W 9305   2.889   8.186   2.555 -0.0162 -0.0936  0.3824
 5562W        W 9306   5.657   9.803  10.985 -0.1265  0.0898  0.4140
 5563W        W 9307   6.137   4.987  11.040 -0.0211 -0.2163 -0.2202
 5564W        W 9308   4.180   6.892  11.394 -0.0304 -0.2533 -0.0576
 5565W        W 9309   1.972   8.561  12.398  0.2629 -0.0652  0.1508
 5566W        W 9310   3.314   1.738   0.446 -0.1080 -0.2668 -0.0230
 5567W        W 9311   6.947   7.670   2.075 -0.2059 -0.1063  0.1821
 5568W        W 9312   7.685   0.842  10.015 -0.1071 -0.0984 -0.3281
 5569W        W 9313   5.607   8.310  10.907  0.0632 -0.3172  0.1912
 5570W        W 9314   3.651   4.283  10.001  0.1057 -0.0132 -0.1128
 5571W        W 9315   5.922   1.315   1.314 -0.2558  0.0747  0.1183
 5572W        W 9316   5.610   7.619   9.584 -0.0022  0.0475  0.3425
 5573W        W 9317   5.549   7.575   8.475  0.0786 -0.1660 -0.0159
 5574W        W 9318   8.125   7.380   8.850  0.0022  0.2430  0.1446
 5575W        W 9319   6.484   3.092   2.106  0.0827  0.1885 -0.4022
 5576W        W 9320   9.116   8.595  10.677  0.3414  0.1289  0.0047
 5577W        W 9321   9.439   4.186   8.612 -0.1004 -0.2971 -0.0178
 5578W        W 9322   8.127   6.110   0.315 -0.1080  0.1526  0.3013
 5579W        W 9323   5.644   7.874   0.782 -0.0250 -0.1277  0.0074
 5580W        W 9324   8.234   9.839   4.104  0.3108 -0.3793  0.0069
 5581W        W 9325   6.440   9.258   3.068 -0.2854 -0.0832  0.3074
 5582W        W 9326   6.414   5.111   8.835 -0.1135  0.4793  0.1770
 5583W        W 9327   7.949   1.499   4.506 -0.0347  0.0669 -0.3629
 5584W        W 9328   6.888   5.919   0.913  0.0482 -0.2542 -0.0060
 5585W        W 9329   5.585   1.881   0.712  0.2124  0.0110 -0.3835
 5586W        W 9330   1.203   9.183  12.839 -0.1672 -0.1316  0.0571
 5587W        W 9331   5.887   8.306   0.416 -0.1848  0.1941 -0.0720
 5588W        W 9332   9.638   9.180  10.232 -0.0002  0.0876  0.0531
 5589W        W 9333   7.152   9.835  12.248 -0.0325 -0.0987  0.1176
 5590W        W 9334   6.173   8.646   9.439  0.1041 -0.0346  0.0963
 5591W        W 9335   9.720   1.592  12.693 -0.2228  0.0671  0.3964
 5592W        W 9336   7.576   9.537   1.184  0.1849 -0.0329 -0.4746
 5593W        W 9337   1.752   6.153   9.356  0.1788 -0.0237  0.0266
 5594W        W 9338   0.903   8.314   0.522  0.2245 -0.0083  0.1437
 5595W        W 9339   1.000   5.610   3.862 -0.0261  0.1944  0.0730
 5596W        W 9340   3.090   7.523   8.572  0.3343 -0.0930 -0.2713
 5597W        W 9341   1.635   6.437   2.208  0.3206 -0.2825 -0.1433
 5598W        W 9342   6.706   7.760  12.786 -0.2491  0.0586  0.0595
 5599W        W 9343   0.457   2.664   9.746 -0.1088 -0.0257  0.1199
 5600W        W 9344   7.092   8.202   2.055 -0.1380  0.1149  0.4023
 5601W        W 9345   0.635   2.169   9.548  0.4933  0.1244  0.0022
 5602W        W 9346   6.862   4.846   4.509 -0.1387 -0.1980  0.1085
 5603W        W 9347   4.375   7.398   1.637 -0.0526  0.1626  0.1442
 5604W        W 9348   9.907   8.696  12.067  0.0382  0.0206 -0.1077
 5605W        W 9349   6.084   6.459  12.180  0.0616 -0.2961 -0.2451
 5606W        W 9350   6.772   0.334   2.453 -0.2395 -0.0824 -0.1194
 5607W        W 9351   4.454   2.480   2.619  0.3060 -0.4442  0.0705
 5608W        W 9352   9.613   9.080   2.091 -0.2698 -0.1533 -0.0720
 5609W        W 9353   1.997   9.513   0.398 -0.1493 -0.1213 -0.2918
 5610W        W 9354   2.298   8.186   0.805  0.0569  0.1200  0.1132
 5611W        W 9355   8.446   7.828  11.161 -0.0300  0.3903 -0.0804
 5612W        W 9356   2.311   8.229  10.197 -0.0593  0.0701  0.1064
 5613W        W 9357   3.333   8.782  12.363  0.0854 -0.1525  0.2668
 5614W        W 9358   1.688   5.337   2.933  0.0499  0.0056 -0.1163
 5615W        W 9359   1.887   5.897  11.884  0.6097 -0.2788 -0.1463
 5616W        W 9360   5.759   1.055   8.895 -0.2587  0.0394  0.1326
 5617W        W 9361   8.353   7.197   8.480 -0.1659  0.2083  0.2261
 5618W        W 9362   8.865   3.518   3.412  0.0028  0.1532 -0.1053
 5619W        W 9363   6.899   3.268   9.848 -0.2107  0.0722  0.1986
 5620W        W 9364   8.040   5.514  10.533  0.1409 -0.0041 -0.3080
 5621W        W 9365   4.420   0.214   3.664  0.3376  0.0819 -0.2193
 5622W        W 9366   8.360   9.133   2.564 -0.2649 -0.0395  0.0681
 5623W        W 9367   2.288   5.876   2.450  0.1613  0.0717 -0.1246
 5624W        W 9368   4.817   4.142   0.679 -0.2149 -0.2201 -0.2474
 5625W        W 9369   7.022   7.719   0.457 -0.0359  0.2076  0.0301
 5626W        W 9370   2.052   2.511   0.061 -0.0944  0.2309  0.2098
 5627W        W 9371   6.656   8.418   8.337  0.2901 -0.3021  0.1941
 5628W        W 9372   9.729   7.462   0.259  0.0447 -0.1577  0.0009
 5629W        W 9373   5.112   3.889   2.444  0.2011  0.1052 -0.1872
 5630W        W 9374   3.601   0.477   9.094 -0.1166  0.3007 -0.2239
 5631W        W 9375   4.753   8.404  11.577 -0.0842  0.1816  0.0373
 5632W        W 9376   0.447   4.680  10.650 -0.0895 -0.3332  0.0238
 5633W        W 9377   2.598   7.025   1.279 -0.1114 -0.0851  0.0414
 5634W        W 9378   5.966   7.347   1.913  0.0489  0.2328 -0.0034
 5635W        W 9379   3.487   5.704  11.809  0.3220 -0.1075 -0.0463
 5636W        W 9380   8.464   5.712  10.843  0.2673  0.1317  0.2179
 5637W        W 9381   7.854   8.887   0.119 -0.2627 -0.0572  0.0796
 5638W        W 9382   1.135   2.652   1.220  0.0174 -0.2045 -0.2667
 5639W        W 9383   8.184   9.010   0.679 -0.2044 -0.0381  0.0053
 5640W        W 9384   6.435   1.231   7.799  0.1283  0.4846  0.0561
 5641W        W 9385   2.041   2.293   1.568  0.4395  0.0325 -0.1392
 5642W        W 9386   4.574   8.456   3.851 -0.2129 -0.0181  0.1559
 5643W        W 9387   9.672   9.863   0.947 -0.1524  0.0849 -0.0116
 5644W        W 9388   0.240   2.492   2.208  0.1015  0.1038 -0.3770
 5645W        W 9389   1.971   9.363   3.183  0.2073 -0.1640 -0.0051
 5646W        W 9390   4.673   5.413   4.294 -0.2018  0.0586 -0.2004
 5647W        W 9391   3.156   6.183   9.529 -0.0923  0.1291 -0.0230
 5648W        W 9392   8.344   7.539   4.104  0.0106 -0.1070 -0.1392
 5649W        W 9393   7.924   8.840  12.483  0.0191  0.4358 -0.1902
 5650W        W 9394   7.083   8.070  12.483  0.1485  0.2323 -0.1226
 5651W        W 9395   5.541   0.826  10.556  0.0175  0.0460  0.3003
 5652W        W 9396   0.439   4.074  12.361 -0.1505 -0.0045  0.1526
 5653W        W 9397   5.800   3.347   2.714  0.2133 -0.0086 -0.1172
 5654W        W 9398   8.514   6.748   9.898 -0.0432  0.0645 -0.2204
 5655W        W 9399   1.187   5.235  10.668  0.0924  0.0801 -0.0731
 5656W        W 9400   3.730   2.221  11.124  0.0157  0.3655  0.2566
 5657W        W 9401   6.954   6.842  11.462  0.1865 -0.0281  0.1430
 5658W        W 9402   0.487   3.032  12.399  0.2318  0.4139  0.0284
 5659W        W 9403   4.500   2.393   3.513  0.0270  0.1356  0.0179
 5660W        W 9404   1.951   0.637   0.587 -0.1847  0.2222 -0.0553
 5661W        W 9405   0.566   8.695   9.638 -0.3424 -0.2275  0.3862
 5662W        W 9406   6.820   0.838  11.996  0.3268  0.0760  0.2353
 5663W        W 9407   9.355   1.826   1.562  0.0010 -0.0325  0.3602
 5664W        W 9408   5.679   9.528  10.006 -0.1216 -0.3762 -0.1936
 5665W        W 9409   3.744   6.248   9.087 -0.1057 -0.0666  0.4169
 5666W        W 9410   0.974   3.423  10.262 -0.2684 -0.1095 -0.2581
 5667W        W 9411   8.319   0.910   0.445 -0.0841 -0.0584 -0.2181
 5668W        W 9412   8.600   8.649  12.758  0.0548 -0.3042  0.5225
 5669W        W 9413   1.999   4.702   0.358 -0.3455  0.1226 -0.0871
 5670W        W 9414   8.309   3.559  11.445 -0.0282  0.2041 -0.0573
 5671W        W 9415   4.586   1.564   1.157 -0.0694  0.0595  0.0509
 5672W        W 9416   1.206   5.024   5.185 -0.0568  0.1636  0.3559
 5673W        W 9417   7.164   3.345   1.408 -0.1240  0.2459  0.1882
 5674W        W 9418   9.810   3.017   4.111 -0.3469 -0.3777  0.2686
 5675W        W 9419   6.626   8.873   9.050 -0.0982  0.0381 -0.0379
 5676W        W 9420   2.964   5.292   2.627 -0.0530  0.1038 -0.0288
 5677W        W 9421   8.021   1.296   1.533 -0.3263  0.0752  0.2444
 5678W        W 9422   7.431   2.219   0.733  0.0285 -0.0099  0.2502
 5679W        W 9423   3.436   2.595   3.233 -0.0616 -0.2870  0.3113
 5680W        W 9424   8.456   1.767  10.715 -0.0444  0.2563 -0.0936
 5681W        W 9425   8.135   1.111   8.743  0.0846 -0.2500 -0.1843
 5682W        W 9426   6.592   5.735  10.971  0.3473 -0.0618  0.1676
 5683W        W 9427   6.472   3.478  10.965 -0.0567 -0.1484 -0.1005
 5684W        W 9428   3.105   3.318  11.129 -0.2111  0.1657 -0.0153
 5685W        W 9429   1.155   3.983   2.190  0.1220 -0.1650  0.2114
 5686W        W 9430   9.701   3.989   2.589 -0.2208  0.0928 -0.4423
 5687W        W 9431   9.870   8.610   0.315 -0.0487  0.0189  0.0011
 5688W        W 9432   6.013   8.537  12.079 -0.1037 -0.1339 -0.2443
 5689W        W 9433   4.824   1.650   9.259 -0.6442 -0.0181  0.2248
 5690W        W 9434   3.703   8.076  12.448 -0.0704  0.4818  0.0351
 5691W        W 9435   7.374   2.860   3.610 -0.3323  0.0484  0.1361
 5692W        W 9436   7.327   0.455  10.292  0.1695 -0.0920 -0.0940
 5693W        W 9437   7.062   7.477   8.873  0.0237  0.2428  0.0530
 5694W        W 9438   1.803   3.013   2.659  0.0150 -0.1439  0.0932
 5695W        W 9439   9.305   1.701   3.495 -0.1483  0.0495 -0.0738
 5696W        W 9440   2.831   2.182   9.826 -0.0363 -0.0410 -0.1087
 5697W        W 9441   4.207   3.268   0.073 -0.0630 -0.1496  0.2349
 5698W        W 9442   9.614   5.679   8.744 -0.3715 -0.1028  0.1279
 5699W        W 9443   2.122   4.872   1.614 -0.0556  0.1705 -0.2512
 5700W        W 9444   0.015   2.743  12.412  0.0059  0.1388 -0.1992
 5701W        W 9445   1.823   5.875  10.805 -0.3406  0.0243  0.0370
 5702W        W 9446   0.635   3.788   0.042 -0.2287  0.2430  0.0702
 5703W        W 9447   8.180   5.108   0.013  0.1936 -0.0060  0.0813
 5704W        W 9448   7.967   4.598   0.061 -0.2684  0.0269  0.1464
 5705W        W 9449   1.094   9.216   3.556  0.3119  0.2337  0.0357
 5706W        W 9450   3.470   6.507   4.338 -0.0137  0.0879  0.3931
 5707W        W 9451   5.818   0.137   1.686 -0.2515 -0.1889  0.2465
 5708W        W 9452   0.290   1.153   0.624 -0.2488  0.0664 -0.2386
 5709W        W 9453   8.394   4.405   1.472  0.0667  0.0495  0.2984
 5710W        W 9454   6.783   5.766   9.895 -0.1788  0.0200 -0.0787
 5711W        W 9455   1.314   5.892   9.384  0.2508  0.1601 -0.0833
 5712W        W 9456   8.307   0.793   3.153  0.0004  0.3438 -0.0378
 5713W        W 9457   5.475   4.929   8.221 -0.0708 -0.0868  0.1310
 5714W        W 9458   4.592   7.154  11.086  0.0507 -0.1360 -0.1161
 5715W        W 9459   7.086   9.428   1.509 -0.3397 -0.1588  0.0004
 5716W        W 9460   7.724   8.123  10.051  0.1860  0.1383 -0.3051
 5717W        W 9461   7.547   9.771   1.692 -0.1282  0.0315 -0.1214
 5718W        W 9462   9.234   2.639   0.513 -0.2096  0.1049 -0.0433
 5719W        W 9463   0.940   5.058   0.185 -0.1513 -0.2517  0.1086
 5720W        W 9464   0.640   7.508   1.125  0.0083  0.1043 -0.1173
 5721W        W 9465   5.285   5.731   2.610  0.1828  0.0289 -0.0745
 5722W        W 9466   6.432   6.734   1.099 -0.1751  0.1474  0.1074
 5723W        W 9467   4.631   3.109   2.783 -0.0648  0.1989  0.3211
 5724W        W 9468   9.170   5.537  12.183  0.0267  0.0986 -0.0053
 5725W        W 9469   5.569   3.220   3.699  0.2245 -0.0573  0.0613
 5726W        W 9470   0.712   0.954   9.580  0.0272  0.2047  0.3970
 5727W        W 9471   2.816   1.892   2.491 -0.1763 -0.0131 -0.1233
 5728W        W 9472   1.908   5.019   9.667 -0.3016  0.0373  0.1032
 5729W        W 9473   6.063   1.500  10.256  0.0400  0.1748 -0.1712
 5730W        W 9474   5.066   7.082   8.322  0.2922  0.2171 -0.0801
 5731W        W 9475   6.560   7.547   2.422  0.1358 -0.1355  0.0222
 5732W        W 9476   7.306   4.711  10.860 -0.2245 -0.1003  0.1223
 5733W        W 9477   9.153   9.800  12.713  0.0846 -0.3932  0.2954
 5734W        W 9478   9.421   6.203   1.968 -0.0279 -0.0836  0.2429
 5735W        W 9479   2.354   1.500  11.883  0.0521 -0.1088 -0.0496
 5736W        W 9480   3.368   3.946   2.517 -0.1054 -0.1081  0.1832
 5737W        W 9481   2.004   3.750   2.494  0.1966 -0.1286  0.3086
 5738W        W 9482   5.903   0.807   2.192 -0.2838  0.0704  0.2268
 5739W        W 9483   4.776   1.984  11.039  0.0650  0.0459 -0.2854
 5740W        W 9484   0.913   3.983   4.273  0.0847 -0.0598 -0.0849
 5741W        W 9485   4.009   6.063   8.314 -0.1544 -0.1562 -0.0489
 5742W        W 9486   6.246   0.044   9.811  0.3809  0.0633  0.5631
 5743W        W 9487   7.742   9.013   3.386 -0.2788 -0.2093  0.2548
 5744W        W 9488   2.033   9.418   1.463  0.2576  0.0371 -0.1353
 5745W        W 9489   5.833   9.641   8.567  0.1402  0.0571 -0.2392
 5746W        W 9490   7.002   2.616  10.457 -0.0329 -0.0860 -0.1807
 5747W        W 9491   6.716   4.005   3.996 -0.0852 -0.1995  0.1159
 5748W        W 9492   0.545   0.501  10.248  0.0138  0.1378  0.1095
 5749W        W 9493   2.209   1.970  10.628  0.0001  0.1512 -0.0476
 5750W        W 9494   5.179   2.687  10.035  0.3770 -0.0983  0.2199
 5751W        W 9495   2.449   9.020   0.467  0.1266 -0.3924 -0.1912
 5752W        W 9496   3.888   6.714   9.206  0.1860 -0.0055 -0.2698
 5753W        W 9497   7.931   2.108  12.733  0.4758 -0.1662  0.1177
 5754W        W 9498   3.221   4.110   2.082  0.0372 -0.2885 -0.0843
 5755W        W 9499   2.817   8.284   9.010  0.1340  0.1993 -0.5124
 5756W        W 9500   1.424   1.706   2.578  0.2567  0.1205 -0.1018
 5757W        W 9501   2.297   0.827   1.067  0.1102 -0.1937 -0.1083
 5758W        W 9502   8.780   8.761   1.307 -0.1167 -0.3947  0.4914
 5759W        W 9503   7.139   6.831   4.339  0.2048  0.1001  0.0000
 5760W        W 9504   3.102   8.894   1.091 -0.3955  0.1310 -0.1469
 5761W        W 9505   5.691   5.043  11.844 -0.0289  0.1337 -0.1732
 5762W        W 9506   5.539   8.360   3.499  0.1901 -0.1805  0.3570
 5763W        W 9507   5.860   7.792  11.088  0.2861  0.0037  0.0615
 5764W        W 9508   6.545   8.233  12.602  0.1072  0.3145 -0.0422
 5765W        W 9509   5.110   4.952  10.707 -0.0909  0.0657  0.0414
 5766W        W 9510   2.646   3.630   3.435  0.3849 -0.0031  0.0221
 5767W        W 9511   4.976   6.831  11.453 -0.1207  0.0595 -0.2410
 5768W        W 9512   2.475   3.544   1.590  0.0630  0.1563  0.1975
 5769W        W 9513   7.774   4.526  10.746 -0.0733  0.3491 -0.0177
 5770W        W 9514   3.850   8.223   1.795  0.1777  0.1372  0.0467
 5771W        W 9515   5.724   7.633  11.627  0.0494  0.1486  0.2656
 5772W        W 9516   0.639   1.082  12.822 -0.2165  0.0288 -0.0170
 5773W        W 9517   8.335   0.802   9.162  0.0466  0.1157  0.0927
 5774W        W 9518   2.872   3.626   1.925 -0.5224  0.1590  0.0848
 5775W        W 9519   7.896   4.676   4.006  0.0291 -0.0700  0.0659
 5776W        W 9520   4.977   9.660  12.217  0.0230 -0.4252  0.0645
 5777W        W 9521   7.492   0.693   1.587  0.1157  0.0704 -0.0646
 5778W        W 9522   3.477   0.564   0.251  0.0162  0.1973 -0.1554
 5779W        W 9523   5.355   4.837   3.061 -0.6457 -0.1371 -0.2439
 5780W        W 9524   4.755   5.346  10.928 -0.1837  0.1718  0.2948
 5781W        W 9525   0.230   4.797   2.984 -0.1764  0.0253 -0.2144
 5782W        W 9526   5.152   7.791   8.583 -0.0253 -0.0748 -0.1535
 5783W        W 9527   1.200   2.843   3.890  0.0525 -0.0086  0.0687
 5784W        W 9528   6.069   0.933   1.662 -0.1624  0.2279 -0.0016
 5785W        W 9529   3.881   7.795   8.494  0.2663  0.1017  0.1131
 5786W        W 9530   8.074   4.003  12.011 -0.1697  0.0380 -0.1463
 5787W        W 9531   6.992   0.311   2.982 -0.1149 -0.0104  0.1569
 5788W        W 9532   6.245   2.051   3.005  0.2098  0.3479 -0.0954
 5789W        W 9533   8.042   3.884   2.690  0.2088 -0.0420 -0.0148
 5790W        W 9534   8.759   5.490   8.177 -0.2733  0.0773 -0.0128
 5791W        W 9535   7.980   5.569  11.842 -0.1518  0.1808 -0.2601
 5792W        W 9536   8.117   9.860  10.233 -0.0052  0.0618 -0.1107
 5793W        W 9537   3.575   2.387   8.185 -0.2011 -0.0591 -0.1333
 5794W        W 9538   0.312   0.852   2.792  0.0243 -0.3611 -0.1565
 5795W        W 9539   6.948   6.898   3.089 -0.1192  0.1539  0.2635
 5796W        W 9540   9.779   5.083   0.687 -0.1664  0.0280 -0.4668
 5797W        W 9541   1.755   0.835  11.538 -0.1127  0.0974  0.2739
 5798W        W 9542   5.877   1.382   1.921 -0.2202 -0.0215  0.0775
 5799W        W 9543   1.847   4.670   9.183  0.2091 -0.1065  0.0724
 5800W        W 9544   0.655   3.123  10.558 -0.0833  0.0311  0.1952
 5801W        W 9545   5.760   6.006   8.928 -0.0877  0.4842  0.3047
 5802W        W 9546   6.827   2.398   1.881 -0.3125  0.0887  0.1265
 5803W        W 9547   7.932   0.028   9.462  0.2111  0.1175 -0.0253
 5804W        W 9548   2.352   4.153   2.606  0.0850  0.2199 -0.0996
 5805W        W 9549   9.617   5.044   4.585 -0.1549 -0.2688 -0.0100
 5806W        W 9550   4.172   3.816   7.997 -0.1160 -0.2825  0.0203
 5807W        W 9551   7.099   8.883   1.530 -0.3829 -0.0559 -0.0489
 5808W        W 9552   7.622   3.264   0.940  0.2346 -0.0451 -0.3262
 5809W        W 9553   6.308   5.805  10.590 -0.2697  0.3277 -0.1143
 5810W        W 9554   9.834   2.061  11.785  0.1618  0.1756 -0.1095
 5811W        W 9555   2.963   9.305   0.423 -0.2075 -0.2237  0.1036
 5812W        W 9556   8.630   7.277   3.636  0.1398  0.1910 -0.1694
 5813W        W 9557   9.470   5.255   3.212 -0.2118 -0.0309 -0.0897
 5814W        W 9558   5.682   2.699   9.206 -0.0902 -0.1671  0.1714
 5815W        W 9559   0.961   6.177   3.362 -0.1537  0.1568 -0.1116
 5816W        W 9560   2.346   0.411   0.792 -0.0475 -0.2877  0.1063
 5817W        W 9561   2.148   0.397   1.966  0.3649 -0.1826  0.1459
 5818W        W 9562   8.069   5.825   2.148 -0.1909 -0.0667  0.1768
 5819W        W 9563   8.599   7.105   4.133 -0.0700 -0.0192 -0.1569
 5820W        W 9564   7.561   8.774   9.402 -0.1137  0.2095  0.0590
 5821W        W 9565   1.769   5.884   1.557  0.0893 -0.0765  0.0825
 5822W        W 9566   7.146   3.469  10.277  0.0475 -0.0243 -0.1206
 5823W        W 9567   6.423   2.219  11.748  0.0466  0.0840 -0.1376
 5824W        W 9568   0.491   8.174  11.044 -0.0795 -0.0560  0.4335
 5825W        W 9569   5.051   5.131  12.515  0.0608  0.0754  0.1056
 5826W        W 9570   8.081   1.808   3.835 -0.0632 -0.2332  0.0325
 5827W        W 9571   5.725   2.804   4.049 -0.3908 -0.0852  0.4167
 5828W        W 9572   8.896   1.727  12.478 -0.0499  0.0230 -0.3416
 5829W        W 9573   8.682   2.092   8.622  0.2029  0.0048  0.0957
 5830W        W 9574   1.755   4.849   3.754  0.0238  0.0790 -0.1142
 5831W        W 9575   8.069   2.766   2.025  0.3195 -0.0265  0.1232
 5832W        W 9576   9.326   9.497  10.546  0.2891 -0.0271  0.0512
 5833W        W 9577   6.608   9.798   3.791 -0.1519  0.1373 -0.0482
 5834W        W 9578   5.057   8.311   3.102  0.2349 -0.2947  0.1944
 5835W        W 9579   5.631   5.214   8.576 -0.0627 -0.1613 -0.1127
 5836W        W 9580   0.588   5.539  11.656 -0.2509  0.1545 -0.2334
 5837W        W 9581   4.015   3.412   9.851  0.0903 -0.1325  0.1349
 5838W        W 9582   7.822   5.829   7.525  0.1288 -0.1842 -0.1348
 5839W        W 9583   4.884   7.830  10.608  0.1714 -0.0623  0.0476
 5840W        W 9584   3.262   8.241  11.693 -0.0019  0.1729 -0.1108
 5841W        W 9585   5.310   2.095  10.283 -0.0719  0.1527  0.2496
 5842W        W 9586   8.537   0.580   3.520 -0.0621  0.2190 -0.1501
 5843W        W 9587   4.927   2.163   1.944 -0.0971  0.0863  0.1633
 5844W        W 9588   5.238   0.404   2.704 -0.0140 -0.1510  0.1126
 5845W        W 9589   3.222   2.886   8.353 -0.0240 -0.1965  0.2565
 5846W        W 9590   3.973   9.728   0.497  0.1745  0.1239 -0.3089
 5847W        W 9591   1.540   1.882  10.927  0.0484  0.0226 -0.0141
 5848W        W 9592   2.790   7.105  11.535  0.1664  0.0616  0.1059
 5849W        W 9593   4.631   2.734  11.801  0.0735 -0.3714 -0.1578
 5850W        W 9594   1.247   8.029   8.792 -0.1001 -0.0595 -0.0809
 5851W        W 9595   2.587   1.218   0.300 -0.0429  0.1455 -0.2796
 5852W        W 9596   7.741   9.556   3.112  0.0788 -0.0275  0.0843
 5853W        W 9597   4.986   3.287  12.260  0.1446 -0.2449  0.0476
 5854W        W 9598   6.664   7.214   1.131  0.1780 -0.1042 -0.1893
 5855W        W 9599   5.902   9.615   9.571  0.3100  0.3950 -0.0165
 5856W        W 9600   5.957   3.908   3.363 -0.2880  0.0061  0.1684
 5857W        W 9601   4.223   4.666   0.042 -0.3083 -0.1051 -0.0824
 5858W        W 9602   5.229   2.374   3.380 -0.2845 -0.0032 -0.1425
 5859W        W 9603   8.297   7.619   3.274 -0.3088 -0.1114 -0.1924
 5860W        W 9604   9.101   5.535   0.343  0.1411 -0.2136  0.0466
 5861W        W 9605   4.068   0.934   2.128  0.2880  0.1611  0.0582
 5862W        W 9606   9.855   2.804   0.441 -0.0578  0.1974  0.0100
 5863W        W 9607   0.054   3.484   0.082 -0.1268  0.2134  0.0677
 5864W        W 9608   0.824   4.803   3.073 -0.2436 -0.1898 -0.0062
 5865W        W 9609   4.686   7.264   7.964 -0.2440 -0.0697  0.1464
 5866W        W 9610   6.482   8.592   1.321 -0.0172  0.0273  0.1213
 5867W        W 9611   2.648   3.247   3.152 -0.0369  0.0197 -0.2602
 5868W        W 9612   9.822   8.154  12.470 -0.0161 -0.0472  0.1512
 5869W        W 9613   3.085   0.151  11.538  0.1842 -0.1638 -0.2011
 5870W        W 9614   5.540   1.206   0.050  0.0120  0.2390 -0.3165
 5871W        W 9615   8.831   7.031   9.069 -0.4101  0.0478  0.0635
 5872W        W 9616   4.284   5.584  11.593  0.3749  0.1702 -0.0835
 5873W        W 9617   1.414   5.597  10.873 -0.0697  0.1699 -0.0885
 5874W        W 9618   3.876   6.222  12.602 -0.2767  0.1135 -0.0362
 5875W        W 9619   2.114   2.924  12.546 -0.0782 -0.0380  0.0083
 5876W        W 9620   0.821   9.309   3.051 -0.0755  0.1553 -0.2366
 5877W        W 9621   6.022   5.462  10.400 -0.3421  0.0892  0.0129
 5878W        W 9622   4.513   4.937   1.073 -0.0252  0.0775 -0.2420
 5879W        W 9623   4.890   6.799  10.628  0.0906  0.3950 -0.0711
 5880W        W 9624   2.005   1.650   0.169 -0.0538  0.0880  0.1073
 5881W        W 9625   5.853   8.029   3.935 -0.0860  0.1043  0.0313
 5882W        W 9626   2.513   6.528   1.484  0.0369 -0.4780 -0.0593
 5883W        W 9627   4.353   5.894   1.275  0.1023  0.1448  0.0494
 5884W        W 9628   3.403   1.701   1.377 -0.1398  0.1353  0.0264
 5885W        W 9629   3.388   2.304  12.544 -0.0144  0.0393  0.0937
 5886W        W 9630   5.432   3.946   3.238  0.3120 -0.3866 -0.0717
 5887W        W 9631   8.236   5.762   2.611 -0.4143  0.0150  0.2495
 5888W        W 9632   1.823   6.776   4.232 -0.0333  0.2487 -0.0224
 5889W        W 9633   0.138   8.421   9.038  0.0360 -0.3338 -0.0777
 5890W        W 9634   7.781   0.960   9.139  0.1020  0.0934  0.0542
 5891W        W 9635   8.904   2.227  10.851  0.2213 -0.0762  0.1924
 5892W        W 9636   8.203   3.778   0.187 -0.0930 -0.3155 -0.0015
 5893W        W 9637   3.020   6.587   3.195  0.2251  0.1683 -0.4082
 5894W        W 9638   2.411   4.405   0.397  0.0547 -0.1766  0.1118
 5895W        W 9639   0.933   3.913   9.497  0.2264 -0.0979 -0.4497
 5896W        W 9640   2.219   4.601   2.564 -0.4345  0.1198  0.4866
 5897W        W 9641   9.140   6.398  12.291 -0.1796  0.3511  0.0666
 5898W        W 9642   5.474   6.484   8.839 -0.0262  0.1724  0.2111
 5899W        W 9643   6.669   9.666   9.933 -0.1385 -0.1580  0.1071
 5900W        W 9644   9.440   4.872   3.626 -0.4406  0.1474  0.1694
 5901W        W 9645   2.166   0.861   9.548  0.0107 -0.0703 -0.3590
 5902W        W 9646   7.230   3.228   0.228  0.0119 -0.4113  0.1467
 5903W        W 9647   4.373   3.883  10.373 -0.0035 -0.2024 -0.1007
 5904W        W 9648   9.493   9.676   9.030  0.0976  0.2968  0.2427
 5905W        W 9649   5.793   8.065   0.019  0.2355  0.1983 -0.0851
 5906W        W 9650   1.771   3.815   0.681 -0.1969 -0.3181 -0.2063
 5907W        W 9651   2.601   7.814   1.546 -0.1865  0.0243 -0.2835
 5908W        W 9652   7.358   8.387   1.570 -0.1029 -0.0682  0.0921
 5909W        W 9653   2.998   5.800   0.283 -0.3340  0.1882 -0.2255
 5910W        W 9654   4.438   2.620   8.775  0.2658 -0.0745  0.0935
 5911W        W 9655   2.792   9.620   2.298  0.1180  0.1324 -0.0999
 5912W        W 9656   1.721   1.794  12.480 -0.2302 -0.3450 -0.2102
 5913W        W 9657   9.868   7.101  10.052  0.0481  0.4124  0.0021
 5914W        W 9658   3.662   3.168  11.168  0.0252  0.1294  0.1319
 5915W        W 9659   6.671   1.461   9.558 -0.0715  0.0999 -0.0946
 5916W        W 9660   6.676   5.523   4.075  0.0997  0.1478  0.0656
 5917W        W 9661   9.924   4.155   4.042 -0.0521  0.0473 -0.1681
 5918W        W 9662   8.470   3.348   0.289  0.2358  0.1476 -0.0555
 5919W        W 9663   5.975   8.071  11.508  0.4500  0.2605 -0.1136
 5920W        W 9664   1.027   9.743   1.190 -0.2519  0.0622  0.0986
 5921W        W 9665   5.680   1.482  11.933  0.2239 -0.1840 -0.1351
 5922W        W 9666   0.511   8.965   3.140  0.1412 -0.0001  0.3781
 5923W        W 9667   7.530   6.294  10.100 -0.0954  0.3473 -0.0533
 5924W        W 9668   3.480   0.551  12.436  0.3261 -0.2932 -0.3427
 5925W        W 9669   6.952   3.515  12.743  0.0210 -0.3174 -0.2465
 5926W        W 9670   3.033   7.322  12.028 -0.0922  0.2777  0.0090
 5927W        W 9671   1.061   5.317   2.560 -0.0687  0.0012 -0.1095
 5928W        W 9672   2.099   3.965  11.778 -0.1660  0.1845 -0.4340
 5929W        W 9673   6.527   3.540  11.466  0.0031  0.0936  0.0050
 5930W        W 9674   8.824   2.510   8.905  0.0809  0.0735 -0.1649
 5931W        W 9675   3.244   7.826   3.433 -0.0822 -0.0676 -0.0077
 5932W        W 9676   9.133   5.273   3.809  0.3766 -0.0938 -0.0533
 5933W        W 9677   0.621   8.720   3.559 -0.0111  0.0734 -0.0368
 5934W        W 9678   4.345   4.968   0.423 -0.1818 -0.2650 -0.1544
 5935W        W 9679   3.278   2.115   8.500 -0.2806 -0.3594 -0.2824
 5936W        W 9680   5.073   5.627  12.535 -0.2159 -0.0918 -0.0547
 5937W        W 9681   3.430   7.007  10.463  0.1958 -0.1214  0.2944
 5938W        W 9682   5.526   4.977   8.975  0.0074  0.0342 -0.0704
 5939W        W 9683   9.187   5.565   2.960 -0.1066 -0.1502  0.0422
 5940W        W 9684   7.048   2.597   3.843  0.2551  0.3105 -0.0635
 5941W        W 9685   6.399   2.863   8.437 -0.0206  0.0768 -0.2365
 5942W        W 9686   7.839   3.161   4.761  0.2557  0.0301  0.0089
 5943W        W 9687   7.904   9.677  10.637  0.0821  0.1841  0.0498
 5944W        W 9688   9.248   5.744   3.925 -0.5663  0.1914  0.2398
 5945W        W 9689   7.762   9.679  12.521  0.2767  0.0774  0.1264
 5946W        W 9690   8.607   9.597   2.523 -0.2184  0.0155 -0.1374
 5947W        W 9691   8.866   0.623   0.335 -0.0073  0.1075  0.0007
 5948W        W 9692   7.459   2.947   8.726  0.0289  0.1064  0.0237
 5949W        W 9693   0.985   8.918   2.726  0.0208 -0.2046 -0.1195
 5950W        W 9694   9.040   2.200  12.438  0.1484  0.0761 -0.1069
 5951W        W 9695   2.705   1.660   1.407  0.0202  0.0476 -0.3331
 5952W        W 9696   0.402   6.463   2.675  0.0064  0.0675  0.0558
 5953W        W 9697   1.417   6.359   5.036 -0.0573  0.0658  0.2234
 5954W        W 9698   5.184   8.996   1.252 -0.0374 -0.2409  0.1964
 5955W        W 9699   7.441   6.911  11.762  0.2254 -0.3019 -0.0462
 5956W        W 9700   7.598   6.563   4.280 -0.0105  0.0212  0.1062
 5957W        W 9701   4.962   1.606  10.681  0.3490  0.0142 -0.3206
 5958W        W 9702   8.595   0.214   2.426 -0.1825  0.2279 -0.1207
 5959W        W 9703   2.841   6.478   9.084  0.4207  0.2093  0.0141
 5960W        W 9704   8.723   2.627   3.940  0.0077 -0.2676 -0.1532
 5961W        W 9705   3.119   5.427  12.747  0.3955  0.2707 -0.1568
 5962W        W 9706   5.503   6.741   9.755 -0.0149  0.0669  0.1369
 5963W        W 9707   4.903   8.303   2.582  0.1100 -0.0262  0.2417
 5964W        W 9708   7.421   4.986   2.335  0.2307  0.2911 -0.1051
 5965W        W 9709   4.991   1.430  11.255 -0.1388  0.0194  0.1028
 5966W        W 9710   1.754   6.774   1.652  0.3207 -0.0514 -0.0159
 5967W        W 9711   2.079   3.444   0.734  0.1201 -0.1661 -0.0037
 5968W        W 9712   4.237   1.157   0.213 -0.0801  0.3423  0.1300
 5969W        W 9713   2.756   5.924   9.167 -0.0506  0.4843  0.1780
 5970W        W 9714   0.760   2.316   1.298 -0.0930 -0.1879  0.0553
 5971W        W 9715   1.353   0.006   9.805  0.0837 -0.0643  0.0506
 5972W        W 9716   4.118   5.153  10.090  0.1170 -0.0129 -0.1068
 5973W        W 9717   1.635   9.062   1.638 -0.0550 -0.1810  0.0042
 5974W        W 9718   4.633   2.808  11.275 -0.0095  0.0121 -0.1728
 5975W        W 9719   2.596   6.354   3.023 -0.1955 -0.2095  0.0759
 5976W        W 9720   0.265   6.822   3.568 -0.0484  0.2797 -0.4054
 5977W        W 9721   8.471   0.812  10.476  0.4515 -0.0362  0.0640
 5978W        W 9722   3.697   7.842   1.449 -0.1970  0.3760 -0.0143
 5979W        W 9723   1.595   7.595   3.597 -0.1501  0.1283 -0.0168
 5980W        W 9724   8.823   9.495  10.384 -0.0573 -0.0949  0.2208
 5981W        W 9725   1.363   0.084  11.500  0.3056 -0.2297 -0.1720
 5982W        W 9726   9.458   7.854  11.270  0.1743  0.0603 -0.1728
 5983W        W 9727   9.071   4.077   8.917 -0.1370  0.0975 -0.0087
 5984W        W 9728   6.000   4.513   0.233  0.1209  0.1209 -0.1866
 5985W        W 9729   8.077   8.286   1.745 -0.2147 -0.3779  0.0615
 5986W        W 9730   3.255   5.716   9.269  0.1537 -0.0779  0.0942
 5987W        W 9731   5.533   9.721   3.735  0.1981 -0.2793 -0.0710
 5988W        W 9732   5.958   3.258   2.213 -0.0788 -0.0825 -0.0050
 5989W        W 9733   9.335   0.853  10.819 -0.0524  0.2735 -0.1236
 5990W        W 9734   0.588   4.704   9.604  0.0047 -0.1841 -0.2289
 5991W        W 9735   6.537   4.794   9.835  0.2125  0.1842  0.0192
 5992W        W 9736   7.721   5.467   3.250  0.2792  0.2470 -0.0843
 5993W        W 9737   3.585   6.408   0.784  0.2679  0.1132 -0.0280
 5994W        W 9738   9.196   4.506   3.307 -0.0724  0.1806 -0.1890
 5995W        W 9739   7.208   0.069   2.531  0.2439  0.0807  0.0210
 5996W        W 9740   8.635   0.902   0.818  0.1204  0.0703 -0.0467
 5997W        W 9741   0.864   1.798   0.090 -0.1455 -0.4039 -0.1049
 5998W        W 9742   2.222   2.006   0.810 -0.1347 -0.0266  0.3499
 5999W        W 9743   4.796   1.056   0.286  0.0079 -0.0828 -0.2338
 6000W        W 9744   8.256   6.611   3.306  0.1125 -0.0437  0.2074
 6001W        W 9745   4.962   8.631  12.347 -0.1298  0.1439  0.0230
 6002W        W 9746   4.243   7.959  10.474 -0.3314 -0.1304 -0.1268
 6003W        W 9747   7.513   6.869   8.514  0.1035  0.1592  0.0687
 6004W        W 9748   6.568   7.270  12.535 -0.0771 -0.0345 -0.0240
 6005W        W 9749   9.179   7.890   1.243 -0.1701 -0.0112  0.0871
 6006W        W 9750   5.288   2.562   1.038  0.1294  0.0482  0.1616
 6007W        W 9751   2.761   2.600  10.146  0.3221 -0.0458  0.0490
 6008W        W 9752   1.856   8.046   0.534 -0.1864 -0.1305  0.0518
 6009W        W 9753   8.611   9.665   9.782 -0.2794 -0.2972  0.2701
 6010W        W 9754   1.839   6.096   4.971  0.2322  0.2381 -0.3561
 6011W        W 9755   8.462   4.255  10.108 -0.0368  0.1475  0.4120
 6012W        W 9756   2.242   4.832  12.709 -0.0101 -0.0355  0.1074
 6013W        W 9757   1.830   1.395  11.834  0.0808 -0.2348  0.0326
 6014W        W 9758   5.050   8.879   2.682 -0.1427 -0.1557  0.1761
 6015W        W 9759   3.790   0.161   2.027  0.0290 -0.1211  0.1258
 6016W        W 9760   0.853   6.218   0.560  0.0561 -0.1213  0.1141
 6017W        W 9761   6.179   8.744   1.768  0.0307 -0.0543  0.2539
 6018W        W 9762   7.125   9.341  12.150 -0.0092 -0.0527 -0.2738
 6019W        W 9763   4.464   9.039   0.694 -0.2335 -0.0837 -0.0054
 6020W        W 9764   6.256   4.548  10.666  0.0563  0.0855  0.1625
 6021W        W 9765   5.523   9.814   0.031 -0.0265 -0.0557 -0.1281
 6022W        W 9766   5.425   3.318   4.218 -0.0603 -0.0056  0.4500
 6023W        W 9767   4.390   8.863  11.077 -0.2981  0.0430 -0.1072
 6024W        W 9768   0.462   6.352   1.050 -0.1636 -0.2152 -0.0015
 6025W        W 9769   3.655   3.932  10.338  0.3413  0.2014  0.1880
 6026W        W 9770   5.106   8.189  11.011 -0.1034 -0.1510  0.0442
 6027W        W 9771   3.135   0.876   1.886 -0.2516  0.0227  0.1354
 6028W        W 9772   7.851   5.974   9.812 -0.0018  0.1039  0.1947
 6029W        W 9773   6.836   9.097   4.910  0.0114 -0.0090 -0.0999
 6030W        W 9774   4.824   3.105  10.383 -0.1199  0.3417  0.2628
 6031W        W 9775   6.273   6.824   1.923  0.0235  0.0974 -0.1887
 6032W        W 9776   6.657   1.854  11.009  0.1531 -0.4601  0.1294
 6033W        W 9777   7.443   7.212   3.012  0.4588  0.0562  0.0567
 6034W        W 9778   0.120   2.293   9.440 -0.1949  0.0391 -0.0974
 6035W        W 9779   0.009   3.258  10.800  0.2371  0.0145 -0.0304
 6036W        W 9780   7.684   7.297   9.761 -0.0193 -0.2880  0.1551
 6037W        W 9781   1.029   0.773   1.439 -0.1692  0.0306  0.2827
 6038W        W 9782   6.094   4.647   9.557  0.2281 -0.0582  0.0969
 6039W        W 9783   6.161   1.688  10.922 -0.0188 -0.0446 -0.1678
 6040W        W 9784   7.031   9.522   3.641 -0.1408 -0.3732 -0.0539
 6041W        W 9785   4.197   5.629  10.202  0.0773  0.0951  0.0780
 6042W        W 9786   9.504   5.085   8.474  0.0549 -0.2532  0.0033
 6043W        W 9787   9.398   7.585   2.584  0.0245  0.1828 -0.0583
 6044W        W 9788   2.846   9.757  12.595  0.1153 -0.0333 -0.0251
 6045W        W 9789   1.881   7.734   0.968  0.1799 -0.0197 -0.0805
 6046W        W 9790   4.814   8.767   0.437 -0.2702 -0.2118  0.0531
 6047W        W 9791   8.829   2.429   0.978  0.0054 -0.1936 -0.0954
 6048W        W 9792   6.925   7.661   1.177 -0.2486  0.0684  0.0697
 6049W        W 9793   6.488   2.262   0.668 -0.0435 -0.2969  0.0267
 6050W        W 9794   4.918   7.532  10.195 -0.4197 -0.1101 -0.1938
 6051W        W 9795   1.741   6.067   1.084 -0.0880  0.0712 -0.0432
 6052W        W 9796   3.434   8.682   3.186 -0.1449 -0.0336 -0.0168
 6053W        W 9797   6.264   6.292   0.341  0.1825 -0.2913 -0.2193
 6054W        W 9798   6.341   7.003   9.952  0.3296 -0.1461 -0.0879
 6055W        W 9799   9.437   0.759   2.036 -0.0691 -0.2262  0.1507
 6056W        W 9800   6.852   1.552  12.745  0.0784 -0.0442  0.3642
 6057W        W 9801   8.866   6.106  11.511 -0.0032  0.0048  0.1600
 6058W        W 9802   1.338   6.153  10.796  0.2380 -0.1359  0.2182
 6059W        W 9803   7.394   2.721   2.165  0.4174 -0.1741 -0.1413
 6060W        W 9804   5.688   0.453  10.227  0.0644  0.0505 -0.1306
 6061W        W 9805   7.190   4.180  11.510  0.1477  0.0506  0.0267
 6062W        W 9806   9.382   7.498   3.885 -0.3497 -0.3636 -0.0738
 6063W        W 9807   8.976   5.511  11.708  0.0465  0.2273 -0.2459
 6064W        W 9808   8.549   4.871   9.325 -0.1325 -0.2066 -0.0062
 6065W        W 9809   4.801   8.634  10.881  0.1107 -0.1161 -0.0832
 6066W        W 9810   3.408   6.135   3.057 -0.0020 -0.1426  0.2062
 6067W        W 9811   0.344   5.034  12.208 -0.1193 -0.0713 -0.0163
 6068W        W 9812   4.718   7.962   8.755  0.1195  0.1690 -0.1406
 6069W        W 9813   6.768   1.420   4.258  0.0815  0.0918 -0.0587
 6070W        W 9814   1.710   9.558   0.790  0.0936 -0.0408 -0.2753
 6071W        W 9815   4.804   0.846   9.615  0.4258  0.2278  0.0126
 6072W        W 9816   5.257   1.615  12.754 -0.0304  0.1451  0.2515
 6073W        W 9817   6.958   8.324  11.745  0.0707  0.0641  0.0348
 6074W        W 9818   9.486   9.065   3.105 -0.0478  0.1814  0.0043
 6075W        W 9819   6.881   3.452   9.379  0.0632 -0.0212 -0.2691
 6076W        W 9820   2.249   2.516   0.562 -0.1583 -0.0773 -0.2310
 6077W        W 9821   2.497   7.401  11.949 -0.2878 -0.2972 -0.2328
 6078W        W 9822   1.461   8.850   4.001  0.2362  0.1039  0.3429
 6079W        W 9823   3.641   9.121  12.590  0.4676 -0.1530 -0.1204
 6080W        W 9824   6.642   2.222   9.083  0.0733  0.2649  0.2505
 6081W        W 9825   8.692   9.045   0.871  0.2556 -0.1334  0.0232
 6082W        W 9826   2.872   4.690  12.748  0.0061 -0.1998 -0.1759
 6083W        W 9827   5.026   8.549   9.322 -0.3703 -0.0517  0.1717
 6084W        W 9828   2.973   1.973   8.889  0.2381  0.0944  0.1137
 6085W        W 9829   3.568   4.522   3.866 -0.0619  0.0222  0.0496
 6086W        W 9830   6.318   4.293   3.055  0.4938  0.4094  0.1013
 6087W        W 9831   9.021   8.336   1.408  0.0333 -0.3028 -0.1173
 6088W        W 9832   3.504   6.605   2.919  0.2184 -0.1878 -0.1511
 6089W        W 9833   1.022   7.707   3.175 -0.3564 -0.1317  0.0994
 6090W        W 9834   6.413   4.680   1.393 -0.2687  0.1582  0.0078
 6091W        W 9835   6.683   2.311  10.047 -0.2145 -0.0329 -0.1073
 6092W        W 9836   7.994   4.062  11.520  0.1183  0.1554 -0.0837
 6093W        W 9837   0.941   1.286   1.276  0.1938 -0.1961 -0.0094
 6094W        W 9838   8.884   7.722  10.808 -0.1430  0.0619 -0.0466
 6095W        W 9839   6.929   1.630   2.746  0.1379 -0.0731 -0.2747
 6096W        W 9840   0.077   9.824  10.905 -0.2879 -0.2069 -0.0707
 6097W        W 9841   6.314   6.294   0.831 -0.2827  0.0801 -0.0736
 6098W        W 9842   0.443   6.378   2.030  0.0981  0.2822  0.0291
 6099W        W 9843   5.059   9.656   2.462 -0.0104  0.3088  0.4481
 6100W        W 9844   4.109   9.541   9.388  0.0472 -0.2056 -0.1527
 6101W        W 9845   5.341   4.165  10.834  0.1229 -0.1514  0.3779
 6102W        W 9846   5.365   8.548  10.154 -0.5246 -0.0039  0.0025
 6103W        W 9847   1.575   6.973  12.006 -0.2236  0.1316  0.0239
 6104W        W 9848   8.754   7.593   2.131  0.0859 -0.0670 -0.0261
 6105W        W 9849   9.806   1.942   9.155  0.2820  0.2212  0.1419
 6106W        W 9850   8.505   0.486   2.019 -0.0970  0.0794 -0.2030
 6107W        W 9851   9.352   6.095   3.028 -0.0442  0.2107  0.1866
 6108W        W 9852   7.227   1.751   4.005  0.0773 -0.0246 -0.3060
 6109W        W 9853   0.083   2.455   8.413 -0.0671  0.2094 -0.0234
 6110W        W 9854   6.448   0.998   8.312  0.2398  0.1777  0.1940
 6111W        W 9855   1.429   3.471   2.013 -0.1416  0.2545  0.0887
 6112W        W 9856   2.768   9.149  11.394  0.0897 -0.1289  0.1683
 6113W        W 9857   7.610   5.807   1.914  0.0272 -0.4536 -0.1228
 6114W        W 9858   9.066   7.173   2.596 -0.0075 -0.1611  0.2144
 6115W        W 9859   6.003   3.489  12.373 -0.3550 -0.0288  0.1716
 6116W        W 9860   0.893   6.587  12.341  0.2671  0.1993  0.0471
 6117W        W 9861   1.884   9.039   1.130 -0.3008  0.0677 -0.4992
 6118W        W 9862   6.060   4.448   1.084 -0.0731  0.1497 -0.1305
 6119W        W 9863   6.515   8.669  10.824  0.1880 -0.1024 -0.0365
 6120W        W 9864   3.830   5.934  10.318  0.4419  0.1712 -0.0025
 6121W        W 9865   6.781   3.081  10.307  0.1650  0.2506 -0.1154
 6122W        W 9866   2.209   3.984   3.530  0.0134  0.1286 -0.0011
 6123W        W 9867   6.382   7.743  12.358 -0.1257  0.1641  0.2795
 6124W        W 9868   9.867   3.395   9.570 -0.1802  0.0324  0.0185
 6125W        W 9869   6.501   2.599  12.038 -0.2381  0.0969 -0.2241
 6126W        W 9870   1.526   8.740  10.291  0.0495 -0.1100  0.4179
 6127W        W 9871   9.577   7.122   3.442  0.1224  0.0276  0.0595
 6128W        W 9872   2.464   3.501   1.017 -0.2002  0.1992 -0.3956
 6129W        W 9873   5.267   8.035   2.340 -0.2887 -0.0005 -0.3745
 6130W        W 9874   7.710   3.708  12.128 -0.0221 -0.2264  0.2155
 6131W        W 9875   6.386   0.365   0.081 -0.3086  0.0176 -0.0569
 6132W        W 9876   4.506   2.165   0.645  0.3338  0.1747 -0.1426
 6133W        W 9877   8.044   1.507  10.846 -0.1621  0.3754  0.0582
 6134W        W 9878   3.931   6.233   1.599 -0.3168  0.2607  0.2095
 6135W        W 9879   6.196   2.597   0.866  0.0337  0.0395  0.1043
 6136W        W 9880   9.692   8.925  11.082 -0.0607 -0.0424  0.2877
 6137W        W 9881   1.889   2.082   0.395  0.3498 -0.0800  0.2328
 6138W        W 9882   2.113   1.047  10.194  0.0151  0.2327 -0.1170
 6139W        W 9883   4.792   7.344  10.640 -0.1259  0.2159  0.1164
 6140W        W 9884   2.406   5.099  12.233  0.3186  0.0362  0.0826
 6141W        W 9885   0.987   0.666  12.340  0.3877  0.1320 -0.3012
 6142W        W 9886   5.358   2.816   0.512 -0.0259 -0.1924 -0.3995
 6143W        W 9887   9.348   8.849   1.597  0.3476  0.0347 -0.3361
 6144W        W 9888   2.119   5.983  11.237 -0.2353  0.2163  0.3371
 6145W        W 9889   9.138   3.304   0.553 -0.1523 -0.1725 -0.1605
 6146W        W 9890   6.588   4.726  12.167  0.2063 -0.2657 -0.3501
 6147W        W 9891   4.455   9.909   1.182 -0.3387 -0.2908 -0.4159
 6148W        W 9892   1.799   2.601  12.280  0.2273  0.0906  0.1301
 6149W        W 9893   9.758   2.781  12.858  0.0253  0.0817  0.1360
 6150W        W 9894   2.150   3.521   3.408 -0.1736  0.2750  0.4050
 6151W        W 9895   4.865   0.363   9.872  0.0554 -0.1959 -0.1455
 6152W        W 9896   5.031   9.866  12.694 -0.1742 -0.1255  0.2601
 6153W        W 9897   2.679   7.322   2.328 -0.0422 -0.0734  0.2064
 6154W        W 9898   7.537   2.613  10.258 -0.0529  0.2262 -0.0111
 6155W        W 9899   7.176   7.841   7.826 -0.0193 -0.3011 -0.0457
 6156W        W 9900   9.452   9.232   2.607  0.1606 -0.1465  0.1021
 6157W        W 9901   3.462   3.614   9.933 -0.1637  0.0051  0.0613
 6158W        W 9902   4.253   0.593   0.993  0.1886 -0.0606 -0.0624
 6159W        W 9903   8.783   5.766   3.208  0.0646 -0.0454  0.3984
 6160W        W 9904   8.173   3.569   8.658  0.0183 -0.0649 -0.0426
 6161W        W 9905   1.171   8.546  12.126  0.1344  0.3180 -0.3918
 6162W        W 9906   7.640   2.256   3.046  0.0094 -0.0486 -0.1581
 6163W        W 9907   2.677   6.177   1.172 -0.0299  0.2928  0.0047
 6164W        W 9908   2.297   8.926  11.383 -0.0982 -0.2637 -0.0152
 6165W        W 9909   2.996   1.599  12.625  0.3491  0.3430 -0.1792
 6166W        W 9910   6.536   7.720   0.813  0.0507  0.1005  0.0672
 6167W        W 9911   2.736   5.523   3.994  0.1558  0.1789  0.1289
 6168W        W 9912   3.146   7.820   2.169 -0.1054 -0.3844  0.1041
 6169W        W 9913   4.911   2.083  10.045 -0.3864 -0.1381  0.0821
 6170W        W 9914   8.621   3.597   2.005 -0.1908 -0.1922  0.0905
 6171W        W 9915   8.977   1.498   1.787 -0.3041  0.4237  0.2966
 6172W        W 9916   5.151   6.270   3.291  0.0382  0.2620 -0.1539
 6173W        W 9917   5.148   9.318  12.794 -0.1948 -0.1275  0.3861
 6174W        W 9918   1.506   6.984   0.157  0.5122 -0.0225  0.1240
 6175W        W 9919   3.787   3.518   3.062 -0.3514 -0.2390  0.2529
 6176W        W 9920   0.380   2.272   0.890  0.2094  0.2687 -0.2170
 6177W        W 9921   3.849   2.026   1.263  0.3735  0.0015 -0.2983
 6178W        W 9922   0.420   7.452  12.335  0.2336 -0.0915  0.1822
 6179W        W 9923   7.718   4.521   2.309  0.2527 -0.2639  0.2048
 6180W        W 9924   1.611   7.677   8.865 -0.1012 -0.0071 -0.2692
 6181W        W 9925   6.122   8.442   3.064  0.0748 -0.1881 -0.0892
 6182W        W 9926   8.942   5.390   2.014 -0.1861 -0.0091  0.1120
 6183W        W 9927   7.718   8.115   4.554  0.0720  0.0879 -0.0720
 6184W        W 9928   7.753   8.630  11.140  0.1312 -0.1154 -0.3074
 6185W        W 9929   2.187   1.407   1.541  0.1172  0.1434  0.0837
 6186W        W 9930   2.405   9.836   0.007 -0.0438  0.0249  0.1719
 6187W        W 9931   6.328   1.090   2.023  0.0905 -0.1357  0.0198
 6188W        W 9932   1.051   0.814   9.196 -0.0375  0.1106  0.0576
 6189W        W 9933   3.822   1.881   2.944  0.1989 -0.1279 -0.0603
 6190W        W 9934   8.215   9.055   9.608  0.1015 -0.0993  0.1208
 6191W        W 9935   9.768   8.276   2.933  0.1910  0.3913  0.2157
 6192W        W 9936   6.226   5.544   1.840 -0.2577 -0.3328 -0.2881
 6193W        W 9937   6.288   8.084  11.160  0.1206  0.1795 -0.1496
 6194W        W 9938   4.916   1.231  11.962  0.0449  0.2217  0.1007
 6195W        W 9939   0.525   0.108   2.082  0.0716 -0.2132  0.3536
 6196W        W 9940   7.577   1.960  11.556  0.2695  0.2679 -0.0792
 6197W        W 9941   1.596   2.899  12.813 -0.2553 -0.0420 -0.1175
 6198W        W 9942   1.604   9.665   2.335  0.1621  0.2587 -0.1011
 6199W        W 9943   1.791   0.762  10.436 -0.2150  0.0470  0.0265
 6200W        W 9944   8.820   2.481   4.401  0.2736  0.0788 -0.0803
 6201W        W 9945   8.570   3.720   2.963 -0.1991 -0.1140  0.0058
 6202W        W 9946   7.538   3.977   4.515 -0.0551 -0.1472 -0.0074
 6203W        W 9947   1.752   1.516   1.223  0.3223 -0.1031  0.1310
 6204W        W 9948   2.571   7.659   3.315 -0.1090  0.1313  0.0614
 6205W        W 9949   1.853   7.836  10.029  0.0638  0.0992 -0.0114
 6206W        W 9950   1.079   5.191   1.117  0.0310  0.1297  0.1453
 6207W        W 9951   4.599   7.571   2.061 -0.0862  0.0526 -0.3132
 6208W        W 9952   7.972   7.996   0.291  0.2525  0.2059  0.1196
 6209W        W 9953   6.580   5.429   9.616 -0.1769  0.0731 -0.3397
 6210W        W 9954   5.306   9.048   8.906  0.2206 -0.0470  0.1265
 6211W        W 9955   6.358   8.911   3.495 -0.1604  0.1827  0.0341
 6212W        W 9956   5.339   8.916  12.530 -0.1460  0.0685 -0.1650
 6213W        W 9957   7.557   3.858  11.604 -0.2849 -0.1367 -0.1135
 6214W        W 9958   6.245   0.371  11.502 -0.2334 -0.0725 -0.1999
 6215W        W 9959   2.605   4.949   2.580  0.1913  0.0166 -0.2893
 6216W        W 9960   8.657   3.991   3.911 -0.0071  0.3737 -0.0468
 6217W        W 9961   9.578   3.717   8.787 -0.2340  0.0808  0.1711
 6218W        W 9962   3.453   6.138  12.056  0.1740 -0.2664 -0.0742
 6219W        W 9963   7.012   1.344   0.307 -0.0807 -0.0126  0.1279
 6220W        W 9964   1.532   5.019   1.137 -0.2804 -0.1075  0.0148
 6221W        W 9965   3.723   3.068   1.723 -0.2971  0.2485  0.1215
 6222W        W 9966   2.965   2.536  12.663 -0.1235  0.0102 -0.0593
 6223W        W 9967   0.331   4.137   1.478  0.3994 -0.1797 -0.2685
 6224W        W 9968   9.245   1.136  11.661  0.3341 -0.1791  0.1480
 6225W        W 9969   2.938   7.767   2.989 -0.1433  0.5488 -0.2375
 6226W        W 9970   8.099   0.984   9.540 -0.0711 -0.1638  0.3461
 6227W        W 9971   7.428   9.922   8.372 -0.1663 -0.1619  0.0304
 6228W        W 9972   4.878   5.844   1.427 -0.0756 -0.0583 -0.0418
 6229W        W 9973   1.723   2.279   9.811  0.0517 -0.3056 -0.2084
 6230W        W 9974   6.908   0.081   3.494  0.1308 -0.1833  0.4530
 6231W        W 9975   7.768   1.015   3.719  0.0124 -0.0753  0.2084
 6232W        W 9976   6.548   1.633  10.555 -0.0714  0.1099 -0.2630
 6233W        W 9977   9.101   9.804  10.000  0.1817  0.0122  0.3117
 6234W        W 9978   6.337   7.174   2.252  0.1733 -0.5563  0.1031
 6235W        W 9979   6.145   3.630  10.599 -0.2592 -0.4819  0.0836
 6236W        W 9980   6.388   9.085  10.343 -0.0020  0.2208 -0.1788
 6237W        W 9981   5.427   8.140   9.356 -0.0416  0.0721  0.0718
 6238W        W 9982   4.431   2.024   0.095 -0.0344  0.2928  0.0505
 6239W        W 9983   0.886   7.063   8.866  0.1585  0.2782  0.1607
 6240W        W 9984   0.178   0.367   8.977  0.1462 -0.0110 -0.0652
 6241W        W 9985   6.357   5.623  10.104  0.0880  0.0556 -0.0410
 6242W        W 9986   0.582   0.959   1.053 -0.1122 -0.1405  0.1120
 6243W        W 9987   9.522   9.778  12.336 -0.0751 -0.1563  0.2736
 6244W        W 9988   8.245   7.288  11.009 -0.0732  0.2284 -0.2695
 6245W        W 9989   9.591   6.985  11.155  0.0257 -0.1391 -0.0044
 6246W        W 9990   3.368   7.668  12.321  0.4124 -0.1437 -0.2897
 6247W        W 9991   0.622   1.138  10.167  0.0708  0.1640  0.0767
 6248W        W 9992   8.145   1.320  10.387 -0.0213  0.2437 -0.1113
 6249W        W 9993   1.987   9.051   0.593  0.1300 -0.1385 -0.1504
 6250W        W 9994   2.612   5.229  10.074 -0.2388 -0.2408  0.1784
 6251W        W 9995   6.074   1.043   3.315 -0.0686  0.0330 -0.2504
 6252W        W 9996   2.713   4.623   4.924  0.1055 -0.1131  0.1898
 6253W        W 9997   0.897   4.414   3.993 -0.0536  0.1660 -0.0632
 6254W        W 9998   2.337   6.432   0.341 -0.1674  0.1071 -0.0283
 6255W        W 9999   0.013   2.923   2.933 -0.1535 -0.0119  0.1879
 6256W        W10000   4.615   5.160   3.862 -0.0727 -0.1418  0.1116
 6257W        W10001   1.393   1.703   2.048  0.0512  0.2689 -0.0823
 6258W        W10002   2.218   5.489   4.044 -0.1679  0.0387 -0.1922
 6259W        W10003   2.175   5.797  12.585 -0.1015 -0.0054 -0.1826
 6260W        W10004   9.769   8.850   8.643  0.1253  0.1493  0.0628
 6261W        W10005   5.324   4.781  10.012  0.1431  0.3008  0.1210
 6262W        W10006   1.808   7.561   3.120 -0.0197 -0.0757  0.0663
 6263W        W10007   8.769   1.143  11.536 -0.0354 -0.1129 -0.1645
 6264W        W10008   4.131   1.564   3.504 -0.0723  0.0923 -0.0844
 6265W        W10009   3.798   7.291   0.786  0.2660  0.4911  0.0507
 6266W        W10010   1.314   5.690   1.054  0.0356 -0.0217  0.3119
 6267W        W10011   1.773   2.042   2.331 -0.0461  0.0473 -0.1277
 6268W        W10012   7.256   0.449   3.381 -0.0740 -0.4940  0.3202
 6269W        W10013   3.450   5.178  10.314  0.3769 -0.0334 -0.0238
 6270W        W10014   3.743   1.661  11.958 -0.0427  0.3295  0.1490
 6271W        W10015   0.745   5.937  10.171 -0.1044 -0.0365 -0.0589
 6272W        W10016   0.122   3.264  12.157 -0.1328  0.0848 -0.3094
 6273W        W10017   3.169   4.937   0.928 -0.0340  0.0792 -0.0137
 6274W        W10018   5.619   9.299  10.853 -0.2497  0.1751 -0.1387
 6275W        W10019   3.415   4.790   3.163  0.2383 -0.0928 -0.0882
 6276W        W10020   8.034   1.800   0.263 -0.0035  0.0642 -0.1240
 6277W        W10021   1.451   6.674   3.503  0.1970 -0.0142 -0.2201
 6278W        W10022   7.736   6.917   3.356 -0.1756  0.0134  0.1244
 6279W        W10023   5.147   7.353   1.407 -0.0368  0.0199 -0.1484
 6280W        W10024   6.052   7.580   8.692  0.1343 -0.0509  0.1467
 6281W        W10025   6.220   0.795   0.212 -0.0087  0.0314  0.2228
 6282W        W10026   7.017   2.932   2.460 -0.0781 -0.0234 -0.1942
 6283W        W10027   8.990   5.754   4.637 -0.1190  0.1004  0.1629
 6284W        W10028   7.192   6.844   2.499 -0.2701  0.2507  0.3394
 6285W        W10029   3.908   6.433   3.873  0.0007 -0.1340  0.2250
 6286W        W10030   8.891   4.510   9.152  0.3117 -0.0594 -0.2820
 6287W        W10031   8.487   2.898   1.033 -0.0286  0.1122 -0.4571
 6288W        W10032   8.819   1.585  10.329  0.3573  0.0122  0.0624
 6289W        W10033   2.274   4.015   1.447 -0.1472 -0.0081  0.0666
 6290W        W10034   5.858   3.552  10.115  0.1540 -0.3063 -0.1517
 6291W        W10035   7.546   1.141   1.760 -0.4279 -0.0238  0.0981
 6292W        W10036   8.653   3.832   8.689 -0.3042 -0.2190  0.0009
 6293W        W10037   9.864   9.545   9.831  0.0959  0.0564  0.1556
 6294W        W10038   5.984   1.814   9.439 -0.1622  0.1238  0.0535
 6295W        W10039   2.711   3.379  11.601  0.0963 -0.3892  0.1719
 6296W        W10040   0.570   2.245  10.073 -0.0191 -0.1979 -0.2581
 6297W        W10041   5.827   2.742   2.623 -0.0686  0.2179  0.2569
 6298W        W10042   0.695   1.920   8.545  0.1093  0.0638  0.0559
 6299W        W10043   6.211   8.049   2.676 -0.1375 -0.0368  0.3349
 6300W        W10044   4.921   6.239   1.776 -0.0069  0.1490 -0.1527
 6301W        W10045   1.590   5.707   3.763  0.1073 -0.0557 -0.3421
 6302W        W10046   2.996   1.682  11.943  0.0490 -0.0908 -0.0532
 6303W        W10047   1.468   0.888   2.968  0.2846  0.2304 -0.0334
 6304W        W10048   8.583   2.915   4.439 -0.2894  0.1225  0.0196
 6305W        W10049   6.328   7.082   8.541  0.1688  0.2312 -0.3818
 6306W        W10050   8.567   5.383   8.681  0.1671  0.0366 -0.1886
 6307W        W10051   5.441   1.261  12.454 -0.1430 -0.3068  0.1504
 6308W        W10052   3.824   4.927  10.738 -0.0185  0.0358 -0.1009
 6309W        W10053   0.842   6.380   2.917  0.0663 -0.0424  0.0613
 6310W        W10054   6.149   6.807   2.526  0.4868 -0.0858 -0.1333
 6311W        W10055   5.317   7.692   9.160  0.2544  0.0322 -0.0504
 6312W        W10056   1.941   1.766   2.747 -0.1614 -0.0387 -0.0407
 6313W        W10057   9.307   1.604   2.140  0.2881 -0.2705  0.0301
 6314W        W10058   1.216   4.662  12.183  0.0467  0.0098 -0.1202
 6315W        W10059   9.480   4.021   9.198  0.0053  0.0286  0.0498
 6316W        W10060   7.112   1.194   2.128 -0.2158  0.2985 -0.3246
 6317W        W10061   3.052   5.391   0.933 -0.2664 -0.4400  0.0393
 6318W        W10062   9.346   6.529   1.008  0.0926 -0.1831 -0.2252
 6319W        W10063   1.613   3.257   1.533  0.1180  0.0083 -0.0454
 6320W        W10064   9.442   6.187   2.472 -0.0858  0.1464  0.4893
 6321W        W10065   3.217   4.708   4.864 -0.2519  0.0609  0.2181
 6322W        W10066   5.857   7.181  11.777 -0.0698 -0.3736 -0.2979
 6323W        W10067   2.463   4.153   4.039 -0.0644 -0.2395 -0.0005
 6324W        W10068   0.294   6.208  10.509  0.1955  0.1301  0.1853
 6325W        W10069   1.527   2.211  12.075  0.3719  0.0290  0.1442
 6326W        W10070   1.196   1.912  12.353  0.2553  0.2883 -0.2530
 6327W        W10071   0.337   3.581  10.699 -0.1081 -0.3120  0.2506
 6328W        W10072   7.377   3.871   0.556  0.0736  0.2780  0.1420
 6329W        W10073   4.369   6.099   0.091  0.0490 -0.0313  0.0434
 6330W        W10074   1.671   0.832  10.983 -0.1834  0.0540 -0.0974
 6331W        W10075   2.210   5.135   0.537 -0.1899  0.2138 -0.0950
 6332W        W10076   5.366   3.839   9.971 -0.1388 -0.0776 -0.0026
 6333W        W10077   9.794   9.387  11.311 -0.1915  0.1099  0.1076
 6334W        W10078   4.040   5.519  12.475 -0.0786  0.0011 -0.0717
 6335W        W10079   4.404   7.333   9.361 -0.1456  0.0720 -0.0642
 6336W        W10080   1.161   7.542  12.747  0.2161  0.1385  0.0955
 6337W        W10081   1.223   0.605  11.386 -0.1330  0.3923 -0.1224
 6338W        W10082   5.473   0.682   7.856  0.0953 -0.3164  0.0659
 6339W        W10083   6.712   5.288   2.199  0.3996 -0.2844 -0.2811
 6340W        W10084   9.570   6.802  12.406 -0.0387  0.2207  0.3659
 6341W        W10085   2.205   6.352  12.740  0.3138  0.1560 -0.0858
 6342W        W10086   1.932   8.318   9.897  0.1359  0.1629 -0.3662
 6343W        W10087   3.289   7.018   8.379  0.1130 -0.0956 -0.1290
 6344W        W10088   3.235   3.041   2.280 -0.1191 -0.1790 -0.0622
 6345W        W10089   4.491   6.482   9.812 -0.0639 -0.0605  0.0958
 6346W        W10090   4.795   9.286   0.342  0.0489  0.2561  0.1103
 6347W        W10091   3.471   8.792  11.876 -0.3009  0.1052  0.3392
 6348W        W10092   1.168   4.848   1.536 -0.0541  0.1221  0.0188
 6349W        W10093   8.258   0.088   9.817  0.2728 -0.0601 -0.1069
 6350W        W10094   0.507   0.396  11.882  0.0191 -0.1869 -0.4164
 6351W        W10095   2.261   2.115   2.528  0.1412  0.3294  0.0990
 6352W        W10096   6.879   5.401   8.626  0.0046 -0.1882  0.0817
 6353W        W10097   0.057   5.326   9.666 -0.0648 -0.1256  0.0135
 6354W        W10098   2.697   5.669  12.786  0.1606 -0.1061 -0.0551
 6355W        W10099   1.768   6.501   9.830  0.1035 -0.1226 -0.0193
 6356W        W10100   0.754   2.795   1.663 -0.0322  0.0765  0.1118
 6357W        W10101   6.767   5.406   1.676  0.0363 -0.0725  0.1546
 6358W        W10102   8.721   2.977   3.524 -0.2629  0.2026  0.1989
 6359W        W10103   5.418   8.946  11.532  0.0536  0.3301  0.1773
 6360W        W10104   9.069   8.138  10.421 -0.0600  0.1243 -0.0122
 6361W        W10105   8.601   4.367   9.535 -0.2036  0.0719 -0.1679
 6362W        W10106   4.334   0.745   3.574  0.0239  0.1403  0.3442
 6363W        W10107   0.391   9.335  11.970 -0.0966 -0.2967  0.3399
 6364W        W10108   8.676   9.855   2.018  0.2433  0.0734 -0.1903
 6365W        W10109   9.184   2.761   9.754  0.0687 -0.0393  0.0539
 6366W        W10110   5.716   8.771   9.204  0.2573  0.2723  0.0807
 6367W        W10111   9.011   6.485   8.494  0.2548 -0.1293 -0.0802
 6368W        W10112   1.056   0.365   0.722  0.1870 -0.3003 -0.1731
 6369W        W10113   3.171   4.177  11.377  0.2927  0.0959  0.0511
 6370W        W10114   5.242   3.066  10.650 -0.1982  0.1554 -0.2191
 6371W        W10115   5.125   8.162   8.937  0.0948 -0.1587  0.2525
 6372W        W10116   5.712   2.659   3.560  0.2705  0.1494  0.1125
 6373W        W10117   7.519   3.573  10.745  0.0450 -0.0433  0.3355
 6374W        W10118   1.239   1.114   3.334 -0.2782  0.0137  0.1063
 6375W        W10119   7.039   2.611  11.162  0.2116  0.0495 -0.0999
 6376W        W10120   1.579   2.274  12.817 -0.0444 -0.1455 -0.3055
 6377W        W10121   1.272   6.675   9.804  0.1327  0.0576 -0.0178
 6378W        W10122   7.368   9.519   0.699  0.0961 -0.0383 -0.3638
 6379W        W10123   5.496   4.224   2.264 -0.1851  0.1206  0.0172
 6380W        W10124   2.907   3.762  12.804  0.3015 -0.3286 -0.1803
 6381W        W10125   7.646   6.319   1.132 -0.0922 -0.0851  0.1577
 6382W        W10126   6.898   6.911   0.217 -0.0681  0.1106 -0.0139
 6383W        W10127   0.433   2.055  12.816  0.2443 -0.1770  0.2553
 6384W        W10128   3.838   1.240  12.754  0.2805 -0.0763 -0.0404
 6385W        W10129   6.398   9.819   3.319 -0.0273  0.3541 -0.0026
 6386W        W10130   5.764   6.828  12.172  0.1425 -0.2667 -0.0422
 6387W        W10131   8.897   9.191   2.575 -0.0721  0.2532  0.4432
 6388W        W10132   6.170   1.530   9.766  0.0797  0.0599 -0.0950
 6389W        W10133   5.920   6.610   1.071  0.1763 -0.1648 -0.2309
 6390W        W10134   5.355   2.987   3.293 -0.2515 -0.1571 -0.0377
 6391W        W10135   5.548   0.973  11.335 -0.0850  0.1247 -0.1409
 6392W        W10136   1.989   5.255  10.138 -0.1571 -0.3069 -0.1324
 6393W        W10137   5.357   2.332   9.166 -0.0451  0.0451  0.1370
 6394W        W10138   5.857   4.840   1.466 -0.1827 -0.1501 -0.0806
 6395W        W10139   9.571   2.544   3.676  0.0106 -0.1750 -0.1469
 6396W        W10140   2.788   5.811   2.566 -0.2538  0.0168 -0.0716
 6397W        W10141   3.468   3.637  11.330 -0.1509 -0.3331 -0.5409
 6398W        W10142   7.955   7.553  12.365  0.0086  0.0770  0.0855
 6399W        W10143   5.201   8.890   3.213  0.1150 -0.3954 -0.1224
 6400W        W10144   1.347   7.296   9.135 -0.0889  0.1220  0.1648
 6401W        W10145   7.320   7.347   1.846  0.3600  0.2590  0.0479
 6402W        W10146   9.921   5.140  12.574 -0.0805  0.0864  0.0286
 6403W        W10147   5.169   1.955  11.382 -0.1469 -0.1804  0.1325
 6404W        W10148   8.672   4.954   1.837 -0.5413  0.0113  0.2268
 6405W        W10149   5.867   7.141   4.134  0.1327 -0.1503 -0.0494
 6406W        W10150   6.924   8.534  10.549  0.0808 -0.2314 -0.3092
 6407W        W10151   7.902   5.395   2.211  0.2238  0.0952  0.0138
 6408W        W10152   8.577   5.671   1.097 -0.3202  0.2202  0.1017
 6409W        W10153   7.676   7.480   7.734  0.0514  0.0664 -0.3960
 6410W        W10154   9.808   0.414   0.581 -0.1935 -0.1892  0.1353
 6411W        W10155   8.006   1.258   0.579  0.4234 -0.0175  0.1513
 6412W        W10156   3.996   6.055   9.769  0.0837  0.3373  0.1196
 6413W        W10157   7.585   5.627   9.035  0.1676  0.1593 -0.2158
 6414W        W10158   5.190   6.146   2.239 -0.0818  0.1274  0.1061
 6415W        W10159   7.084   4.233   9.212  0.1830 -0.1200 -0.1916
 6416W        W10160   6.389   0.013  11.836 -0.1045 -0.0640 -0.0589
 6417W        W10161   3.105   6.489  11.835 -0.1199  0.0641 -0.1017
 6418W        W10162   7.783   9.683   2.157  0.1607  0.3004 -0.1219
 6419W        W10163   1.508   3.773   2.613  0.0829 -0.2922 -0.2336
 6420W        W10164   8.640   4.768   8.826  0.0444  0.1469  0.0524
 6421W        W10165   3.105   0.681   3.360  0.0196 -0.4359  0.1824
 6422W        W10166   1.804   9.684   9.469  0.2772  0.0949  0.1010
 6423W        W10167   6.199   7.959   3.567 -0.1876 -0.0651 -0.1875
 6424W        W10168   6.875   7.665   8.207 -0.1751  0.1072 -0.0659
 6425W        W10169   9.244   7.731  10.241  0.0779  0.0334  0.2384
 6426W        W10170   2.855   8.201   1.876 -0.0299  0.1570  0.3376
 6427W        W10171   2.684   7.333   2.862  0.1604  0.1061 -0.1969
 6428W        W10172   7.765   3.300   3.526 -0.1955 -0.0238  0.3253
 6429W        W10173   0.046   4.709   9.567 -0.1032 -0.0117 -0.1737
 6430W        W10174   4.230   1.272   9.103 -0.0420  0.0574  0.0583
 6431W        W10175   4.258   4.389   3.358  0.3336  0.0660 -0.2811
 6432W        W10176   5.834   1.822   4.083 -0.0497  0.0163 -0.1312
 6433W        W10177   5.947   3.375   3.401 -0.0386  0.0196 -0.4176
 6434W        W10178   3.303   6.968  11.625  0.0958 -0.0729  0.2199
 6435W        W10179   8.953   6.278   2.335 -0.1049 -0.0509 -0.0172
 6436W        W10180   7.036   9.325  11.594 -0.2766  0.1539  0.0516
 6437W        W10181   0.248   4.215   9.898 -0.1943 -0.0427  0.3957
 6438W        W10182   7.055   4.777   9.142  0.0487 -0.2220 -0.1317
 6439W        W10183   8.624   8.966   3.374  0.0696 -0.0295 -0.1278
 6440W        W10184   1.927   0.063  11.500  0.0043  0.0534 -0.1160
 6441W        W10185   1.367   9.513  12.442 -0.1001 -0.0009 -0.1390
 6442W        W10186   7.548   5.847  10.952  0.0326 -0.0975 -0.0845
 6443W        W10187   4.797   5.902   3.410  0.0471 -0.1892 -0.0265
 6444W        W10188   2.947   5.975   3.006  0.0824 -0.0639 -0.1765
 6445W        W10189   8.389   3.970   7.758  0.0826  0.2332  0.0121
 6446W        W10190   4.470   3.714  11.433 -0.2561 -0.2318  0.0465
 6447W        W10191   0.903   4.073  11.496 -0.2791  0.1699 -0.0498
 6448W        W10192   6.128   7.187  12.196  0.2741  0.1548 -0.2329
 6449W        W10193   5.414   5.136   1.252  0.1488  0.1292  0.0431
 6450W        W10194   5.194   3.179   9.106  0.2373  0.1274 -0.1217
 6451W        W10195   6.238   8.551  11.562 -0.2436 -0.3192 -0.0374
 6452W        W10196   7.073   4.476  12.193 -0.0302 -0.1190  0.0584
 6453W        W10197   7.012   5.070  10.501  0.1388 -0.0550  0.0192
 6454W        W10198   5.251   3.044  12.774 -0.0925 -0.2348  0.1681
 6455W        W10199   7.454   1.446   1.380 -0.0759  0.5247  0.0958
 6456W        W10200   7.527   7.625   0.307 -0.0537  0.0226 -0.0426
 6457W        W10201   0.330   6.456   9.420  0.0854  0.0765 -0.1904
 6458W        W10202   2.158   3.421   4.871 -0.0743 -0.2024 -0.2920
 6459W        W10203   3.699   7.637   3.334 -0.0794 -0.1363  0.2767
 6460W        W10204   8.389   7.319  12.766  0.0743 -0.0246  0.1267
 6461W        W10205   1.159   2.329   3.681  0.1009  0.0953  0.1761
 6462W        W10206   8.750   2.512   9.449  0.1001  0.2215 -0.2973
 6463W        W10207   1.846   6.555   0.215 -0.1102 -0.3571  0.1719
 6464W        W10208   1.884   4.428  10.912 -0.2386 -0.2327 -0.0841
 6465W        W10209   4.632   8.340   9.110 -0.1197  0.1621 -0.0347
 6466W        W10210   8.431   6.684  12.569  0.2643  0.1028 -0.2796
 6467W        W10211   5.809   3.671   8.213 -0.0553 -0.0224  0.2267
 6468W        W10212   6.633   0.833   0.788 -0.3807 -0.4088  0.1448
 6469W        W10213   7.314   4.701  11.775  0.1182  0.1278  0.0386
 6470W        W10214   3.763   7.522   2.639 -0.2151  0.0082 -0.3050
 6471W        W10215   4.390   7.688   1.222  0.1142  0.0595 -0.0375
 6472W        W10216   6.084   7.748   0.509  0.1576  0.1145  0.2372
 6473W        W10217   4.492   9.424   3.654  0.0195  0.4229  0.2513
 6474W        W10218   0.277   2.038  11.316  0.0426 -0.0510  0.1330
 6475W        W10219   6.954   2.324   0.347  0.2467  0.1343 -0.1905
 6476W        W10220   4.347   9.122  11.495 -0.1031  0.0931 -0.0546
 6477W        W10221   5.589   4.882   9.506  0.0512  0.3183  0.1524
 6478W        W10222   4.939   1.267   9.941  0.1353 -0.0496  0.2124
 6479W        W10223   4.493   2.477  10.931  0.0216 -0.0822  0.1895
 6480W        W10224   6.306   0.206  12.423 -0.0351 -0.1492  0.0317
 6481W        W10225   4.323   5.210   2.389  0.0632  0.2039 -0.2763
 6482W        W10226   6.450   4.996   9.378 -0.2906  0.1243  0.0304
 6483W        W10227   2.184   3.084   3.026  0.2447 -0.1220  0.0571
 6484W        W10228   6.228   3.300   2.998 -0.1611 -0.1323 -0.0050
 6485W        W10229   6.497   2.663  10.364 -0.1766 -0.0446  0.2770
 6486W        W10230   3.058   3.392   9.119  0.0393  0.1218 -0.2898
 6487W        W10231   3.598   5.598   4.228 -0.1070 -0.0067 -0.0912
 6488W        W10232   9.696   2.574  11.410  0.3163  0.0040 -0.0679
 6489W        W10233   4.689   8.010  10.030  0.1900  0.0822  0.3177
 6490W        W10234   1.146   4.901   0.676  0.3075 -0.1573  0.2492
 6491W        W10235   1.118   1.137  10.792  0.0499  0.2427  0.0531
 6492W        W10236   3.089   5.279   0.441  0.1190 -0.0137  0.0621
 6493W        W10237   0.321   0.029   0.437  0.1451 -0.1503  0.1231
 6494W        W10238   0.182   2.663   1.590  0.0694 -0.2308 -0.2147
 6495W        W10239   8.796   8.446   2.584  0.0554 -0.0674 -0.4841
 6496W        W10240   7.159   8.978   4.509 -0.0841 -0.2467  0.2396
 6497W        W10241   3.950   7.418  10.260  0.1859  0.1659 -0.2858
 6498W        W10242   9.489   1.220   0.298 -0.2031 -0.2841  0.2298
 6499W        W10243   6.266   1.174  10.613  0.3191  0.0169  0.1183
 6500W        W10244   7.424   1.403   3.472  0.0240 -0.1928 -0.2544
 6501W        W10245   5.639   5.372   9.541  0.2087  0.0165  0.0788
 6502W        W10246   8.335   1.602   8.589  0.1599  0.0458  0.1447
 6503W        W10247   4.033   9.008  10.319 -0.0116  0.3192 -0.0713
 6504W        W10248   9.916   8.306   2.351  0.0227 -0.1402  0.1870
 6505W        W10249   9.919   3.125   0.887 -0.1345  0.1970 -0.0725
 6506W        W10250   8.951   9.146  10.754  0.1303 -0.0741 -0.2146
 6507W        W10251   9.517   5.394   1.352 -0.0590 -0.3652 -0.0268
 6508W        W10252   9.713   8.385   1.173 -0.1627  0.1291  0.1691
 6509W        W10253   9.778   6.180   3.321 -0.1095 -0.2489  0.1489
 6510W        W10254   2.646   0.551   1.874  0.0788 -0.0337  0.3014
 6511W        W10255   8.704   3.786   0.516 -0.3176  0.2938 -0.0995
 6512W        W10256   4.248   4.826   2.013 -0.2065  0.2083 -0.1383
 6513W        W10257   4.896   1.300   3.041 -0.1791 -0.1311 -0.1196
 6514W        W10258   7.868   0.080  11.042  0.1363 -0.0688  0.4100
 6515W        W10259   1.302   4.663   8.930  0.1299  0.1911  0.2372
 6516W        W10260   8.361   4.662   2.522 -0.0146  0.3851 -0.1349
 6517W        W10261   3.834   3.100  10.652 -0.2147  0.0824  0.0647
 6518W        W10262   3.442   2.712   9.280  0.0002  0.1167 -0.0438
 6519W        W10263   6.977   1.753  11.350  0.2139 -0.0878 -0.4832
 6520W        W10264   3.711   7.347   3.933 -0.2041  0.2917 -0.4250
 6521W        W10265   7.637   7.643  10.146  0.3994  0.1152 -0.0549
 6522W        W10266   2.047   8.945   3.771 -0.0745  0.2775  0.0321
 6523W        W10267   0.461   4.602   3.935  0.0304 -0.1484 -0.1411
 6524W        W10268   2.766   8.235  11.382 -0.0321  0.2241  0.0121
 6525W        W10269   5.757   5.548   2.019 -0.2750  0.0458 -0.2092
 6526W        W10270   2.981   5.308   9.164  0.1351  0.0306 -0.0634
 6527W        W10271   6.878   1.269  12.316  0.0074 -0.0907 -0.0154
 6528W        W10272   4.133   9.237  12.001 -0.0378 -0.3159 -0.1091
 6529W        W10273   9.132   3.457   2.994 -0.1457  0.2407 -0.2736
 6530W        W10274   0.316   6.591  11.223 -0.1968 -0.1275  0.0024
 6531W        W10275   4.568   4.364  10.239 -0.0318 -0.4210 -0.0962
 6532W        W10276   2.996   6.949   9.182  0.3419 -0.0504 -0.1052
 6533W        W10277   9.135   7.158   1.245 -0.2029 -0.2063  0.2490
 6534W        W10278   5.602   4.481   1.738 -0.1191  0.3305 -0.0329
 6535W        W10279   0.175   5.631   0.191 -0.1029  0.0107 -0.1457
 6536W        W10280   0.079   2.228   3.713  0.1256  0.0200 -0.2903
 6537W        W10281   7.510   5.335   1.872 -0.2694  0.2061  0.5009
 6538W        W10282   3.769   9.189  11.713 -0.0561 -0.3398  0.3334
 6539W        W10283   6.431   5.090   1.766  0.1337  0.0541  0.1077
 6540W        W10284   5.598   4.008   8.943  0.0285 -0.1351  0.2176
 6541W        W10285   7.005   8.378   1.144 -0.3529 -0.0969 -0.4035
 6542W        W10286   2.057   6.321   1.706  0.3057 -0.2671  0.0647
 6543W        W10287   7.211   6.453   8.651 -0.2223 -0.0650  0.1333
 6544W        W10288   8.207   1.827   9.497  0.0443  0.0465 -0.0232
 6545W        W10289   7.064   0.206   9.866 -0.1882  0.0562  0.0096
 6546W        W10290   0.656   5.262   2.953  0.1931 -0.1137  0.1217
 6547W        W10291   1.894   6.730  12.565 -0.2233 -0.0986  0.0849
 6548W        W10292   2.958   3.683   2.482 -0.1401 -0.2611  0.1005
 6549W        W10293   5.105   5.353   4.061 -0.1936  0.0064  0.1217
 6550W        W10294   6.573   8.116   3.044 -0.2127  0.1228  0.0524
 6551W        W10295   8.841   2.900   0.269  0.1648 -0.0971  0.2553
 6552W        W10296   7.695   3.314   8.449  0.1297  0.0930 -0.3634
 6553W        W10297   5.925   7.187   7.793 -0.2118 -0.1402  0.1778
 6554W        W10298   1.190   2.187   2.183  0.0393 -0.4499 -0.1699
 6555W        W10299   2.312   3.148   2.496 -0.0307 -0.0698 -0.0856
 6556W        W10300   8.876   8.771  12.278  0.0770  0.0149 -0.0291
 6557W        W10301   0.449   4.749  11.221  0.2095  0.0648  0.2923
 6558W        W10302   4.132   8.452  10.323  0.1377  0.0509 -0.4456
 6559W        W10303   3.036   4.823   2.779 -0.1330  0.1144  0.1778
 6560W        W10304   8.636   8.846   8.822  0.2681  0.3240  0.0052
 6561W        W10305   7.870   6.178   2.456  0.0844 -0.2028 -0.2032
 6562W        W10306   3.215   0.357   1.117  0.1206  0.1762 -0.3150
 6563W        W10307   9.529   0.218   2.545 -0.2751 -0.2799 -0.1190
 6564W        W10308   8.848   4.448   1.732  0.0229  0.0390  0.1179
 6565W        W10309   8.874   9.269   9.947  0.1874  0.1039 -0.0863
 6566W        W10310   8.226   9.806   2.928  0.1496  0.1780  0.2877
 6567W        W10311   9.034   3.095  10.068  0.0088 -0.0827  0.0752
 6568W        W10312   4.432   2.042   2.867 -0.0838 -0.2223  0.2210
 6569W        W10313   0.561   4.404  12.768  0.2635  0.1233  0.1010
 6570W        W10314   8.549   1.129  12.049 -0.0190  0.1131  0.0371
 6571W        W10315   4.509   7.612   3.605 -0.0301 -0.0213  0.0716
 6572W        W10316   5.099   3.112   1.715 -0.0915 -0.1251  0.1641
 6573W        W10317   0.337   9.463   3.075  0.1612 -0.2178  0.3404
 6574W        W10318   8.393   6.927   2.766  0.2271 -0.0840  0.0597
 6575W        W10319   7.320   2.368  11.557 -0.2197 -0.6334  0.3710
 6576W        W10320   5.070   2.553  11.550 -0.0981 -0.0717 -0.2544
 6577W        W10321   7.251   9.810  11.712 -0.3482 -0.3333 -0.0505
 6578W        W10322   6.844   1.899   3.160  0.0686  0.0907 -0.1530
 6579W        W10323   5.566   8.000   8.786 -0.2487  0.0110 -0.0815
 6580W        W10324   6.561   8.060   1.225  0.0607  0.2688  0.1148
 6581W        W10325   9.442   2.686   3.259  0.0440  0.1276 -0.0778
 6582W        W10326   4.398   8.923   0.215  0.1245 -0.1610  0.1466
 6583W        W10327   9.640   5.488   0.341  0.1151 -0.0017  0.1608
 6584W        W10328   3.328   9.315   3.198 -0.0256 -0.0243 -0.2940
 6585W        W10329   1.062   3.600  11.636 -0.1186 -0.3098 -0.0087
 6586W        W10330   3.373   1.128   2.850  0.1425 -0.0292  0.0335
 6587W        W10331   4.559   4.024   2.337 -0.3801 -0.1651 -0.0711
 6588W        W10332   7.504   1.374  10.066  0.3103 -0.0024  0.0926
 6589W        W10333   6.918   8.663  12.660  0.1319  0.0902  0.0050
 6590W        W10334   5.026   2.925   4.294 -0.0121  0.0404 -0.0496
 6591W        W10335   8.564   6.032   1.934 -0.2366  0.0089  0.0256
 6592W        W10336   9.194   5.706  11.251 -0.0097 -0.3174 -0.0744
 6593W        W10337   2.007   4.130   8.915 -0.1693  0.0998 -0.1129
 6594W        W10338   2.701   0.866  12.263  0.0817  0.1056  0.1036
 6595W        W10339   5.653   7.656   3.595  0.1086  0.1229 -0.2189
 6596W        W10340   5.445   7.710   1.708  0.0779  0.0560  0.0574
 6597W        W10341   9.740   2.573   0.844  0.0083 -0.1176  0.1093
 6598W        W10342   8.466   0.074  11.178 -0.0497 -0.0914  0.0147
 6599W        W10343   3.304   8.427   0.848 -0.0382  0.0759  0.2333
 6600W        W10344   1.625   9.562  11.543 -0.0288  0.1256 -0.2341
 6601W        W10345   0.149   0.243   1.119  0.1147 -0.1577  0.0454
 6602W        W10346   1.014   7.732   0.359 -0.1838  0.0104  0.3924
 6603W        W10347   0.784   9.586   9.141 -0.0772  0.0646  0.0524
 6604W        W10348   6.042   4.008   0.136  0.2106  0.0630 -0.0161
 6605W        W10349   2.596   6.821   2.764  0.1622 -0.0967  0.2951
 6606W        W10350   7.491   0.564  10.821  0.1082 -0.0776  0.0178
 6607W        W10351   5.221   4.189   9.418 -0.1907 -0.3406 -0.1240
 6608W        W10352   1.446   0.372   2.920 -0.0991 -0.2273  0.2314
 6609W        W10353   8.077   3.438   9.743  0.0621 -0.3068  0.3310
 6610W        W10354   7.583   9.564   8.757  0.0142 -0.0890 -0.1401
 6611W        W10355   0.644   0.948  10.627  0.1218  0.1486  0.0475
 6612W        W10356   1.902   8.459   9.433  0.1394 -0.2733  0.1344
 6613W        W10357   9.698   6.980  12.849  0.1988  0.2807  0.0844
 6614W        W10358   8.496   5.843   8.929 -0.0562 -0.2985 -0.0329
 6615W        W10359   7.773   0.808  11.622 -0.1610 -0.1708 -0.1688
 6616W        W10360   2.922   2.843   3.211  0.2002  0.1406 -0.2363
 6617W        W10361   3.013   0.954   2.406 -0.2279 -0.1373 -0.1851
 6618W        W10362   7.059   3.587  11.525 -0.0808  0.5673 -0.3211
 6619W        W10363   0.463   8.494  11.821 -0.0087  0.0075  0.1378
 6620W        W10364   2.773   6.461  10.867 -0.2129  0.2888 -0.0994
 6621W        W10365   3.974   4.171   0.246 -0.0755 -0.0046 -0.1077
 6622W        W10366   2.674   7.453   9.032  0.1597  0.0253 -0.0956
 6623W        W10367   5.635   2.195  12.706  0.0808  0.0258  0.2544
 6624W        W10368   3.568   3.275   9.096  0.1320  0.0410 -0.1322
 6625W        W10369   2.024   0.053   1.551 -0.4267  0.1575 -0.0381
 6626W        W10370   3.849   2.152  11.717 -0.0033  0.0049 -0.2313
 6627W        W10371   9.404   3.538  10.148 -0.1881 -0.1193 -0.1702
 6628W        W10372   0.895   6.836   2.693 -0.1034 -0.1616  0.0531
 6629W        W10373   7.456   4.970  11.252  0.2156  0.0323 -0.0677
 6630W        W10374   8.817   7.025   9.586 -0.2256 -0.1014  0.0005
 6631W        W10375   1.934   6.126   4.099  0.0830  0.1444  0.0135
 6632W        W10376   5.351   0.190  10.597 -0.2383 -0.1916 -0.3472
 6633W        W10377   6.881   9.074   3.336 -0.1372  0.0124 -0.0072
 6634W        W10378   1.883   4.977   3.303  0.3023  0.1909 -0.0146
 6635W        W10379   0.916   0.185  12.705  0.1819  0.1919 -0.1219
 6636W        W10380   8.759   7.249  10.983 -0.3917 -0.1775  0.0991
 6637W        W10381   1.504   3.013   1.120 -0.6070 -0.0925 -0.1858
 6638W        W10382   3.791   1.791  11.394 -0.3904 -0.0561 -0.2590
 6639W        W10383   9.771   8.733  11.615  0.1422  0.2306  0.2247
 6640W        W10384   1.877   8.608  11.362 -0.0915  0.2622 -0.0551
 6641W        W10385   6.848   6.059   8.490  0.0161  0.0286 -0.0478
 6642W        W10386   7.964   2.039  11.873 -0.4849  0.1449  0.1944
 6643W        W10387   2.682   7.593   9.615 -0.0726 -0.2487 -0.2851
 6644W        W10388   1.115   8.662   0.798 -0.1426  0.0645  0.0081
 6645W        W10389   5.814   4.588  10.106  0.0786 -0.1519  0.2736
 6646W        W10390   6.997   0.454  11.177 -0.1236 -0.1440  0.1091
 6647W        W10391   6.544   3.206   1.587 -0.0186  0.2818 -0.3342
 6648W        W10392   3.753   7.873  10.258 -0.2152 -0.1619  0.0518
 6649W        W10393   5.256   7.304  10.449 -0.2344  0.1186  0.1556
 6650W        W10394   0.949   0.255  10.034 -0.2311 -0.0867  0.0881
 6651W        W10395   6.784   1.750   9.141 -0.0137 -0.0822 -0.2462
 6652W        W10396   8.193   0.413  10.227  0.3293  0.0784  0.1975
 6653W        W10397   3.978   7.724   1.807  0.1971  0.2445 -0.0916
 6654W        W10398   0.352   4.630  11.914  0.1759 -0.1254  0.0243
 6655W        W10399   3.400   5.725  10.365  0.4128  0.2826  0.1777
 6656W        W10400   3.791   1.447   9.639  0.2011 -0.0785  0.1511
 6657W        W10401   8.924   5.561   0.776  0.0462  0.2023  0.0140
 6658W        W10402   1.761   3.643   4.158  0.3073 -0.1246  0.2056
 6659W        W10403   8.395   1.246   2.780  0.2109  0.0351  0.1918
 6660W        W10404   7.315   6.446  11.613 -0.1288 -0.1084  0.1045
 6661W        W10405   9.297   7.405  11.149 -0.2748 -0.0117 -0.1929
 6662W        W10406   3.304   9.555   2.250 -0.0478 -0.2937  0.0266
 6663W        W10407   6.771   7.097   2.677  0.0709 -0.0004 -0.2002
 6664W        W10408   7.784   8.699   0.690 -0.0930  0.1328  0.0868
 6665W        W10409   7.047   8.378   9.288 -0.1046  0.2377  0.2594
 6666W        W10410   3.371   6.337   1.295 -0.4743 -0.3006 -0.2657
 6667W        W10411   4.045   4.358  10.304  0.1378 -0.0046 -0.0684
 6668W        W10412   0.576   1.433   1.886  0.0989 -0.2987 -0.0419
 6669W        W10413   8.273   5.023   2.076 -0.0419  0.1752 -0.1281
 6670W        W10414   5.488   1.248   1.029 -0.0979  0.2176  0.1307
 6671W        W10415   6.997   6.312   9.989  0.2787 -0.1532  0.0352
 6672W        W10416   6.587   3.925  12.616 -0.1024 -0.1709 -0.0330
 6673W        W10417   3.276   2.703  11.588 -0.1512 -0.0559  0.1108
 6674W        W10418   0.977   9.329   2.473  0.0767 -0.2055  0.1041
 6675W        W10419   1.348   1.139   0.726 -0.0376 -0.0578  0.1954
 6676W        W10420   9.025   6.087   1.023 -0.0206 -0.2829  0.3200
 6677W        W10421   0.766   7.907   9.170  0.0529  0.0061 -0.1375
 6678W        W10422   1.597   3.255   3.198  0.1619  0.0133  0.0096
 6679W        W10423   7.233   5.973  11.342 -0.1012  0.0051 -0.2928
 6680W        W10424   0.196   3.842  11.565 -0.0089  0.0695  0.0826
 6681W        W10425   0.890   8.921  10.848 -0.2724 -0.1031 -0.1744
 6682W        W10426   4.522   9.567  12.249  0.0119  0.0271  0.1904
 6683W        W10427   6.546   1.230   1.372 -0.0747 -0.0673  0.1437
 6684W        W10428   0.346   5.950  12.449  0.1277  0.0667  0.1338
 6685W        W10429   5.729   7.468   1.371  0.2196  0.2245 -0.0737
 6686W        W10430   6.613   8.011  11.525  0.0478  0.3293  0.1130
 6687W        W10431   1.241   9.443   1.628 -0.0840 -0.4704 -0.0643
 6688W        W10432   2.441   2.263   9.394 -0.4263  0.0578  0.3542
 6689W        W10433   5.723   5.896   7.965 -0.0154 -0.3760  0.2731
 6690W        W10434   7.641   0.328  11.816  0.1661 -0.1590 -0.1366
 6691W        W10435   7.685   3.761   8.943 -0.1706  0.1990 -0.0761
 6692W        W10436   5.657   2.526  10.151 -0.0906 -0.0037 -0.0708
 6693W        W10437   4.187   2.364   0.337  0.4321 -0.0099  0.0508
 6694W        W10438   0.833   5.909   4.263  0.0249 -0.2391  0.2364
 6695W        W10439   6.546   1.318   3.582 -0.0679  0.2137 -0.2572
 6696W        W10440   2.233   4.425   8.524 -0.1916 -0.1985 -0.1860
 6697W        W10441   2.361   7.657   4.000  0.2186 -0.0844 -0.0792
 6698W        W10442   7.770   4.101  11.019 -0.2048 -0.2273  0.0902
 6699W        W10443   0.839   5.820  10.723  0.3967 -0.1308 -0.0289
 6700W        W10444   8.533   2.182   3.078  0.0780  0.0150 -0.0590
 6701W        W10445   6.579   7.446   0.306 -0.0300 -0.0366  0.1566
 6702W        W10446   5.175   5.712   9.215 -0.1812  0.1140 -0.1801
 6703W        W10447   0.093   4.692   0.564 -0.0715  0.0491 -0.0320
 6704W        W10448   8.896   3.796   9.861  0.1891 -0.0870 -0.0191
 6705W        W10449   4.688   6.209   2.396  0.0775  0.1696 -0.1759
 6706W        W10450   6.881   4.089   0.134  0.0273  0.1085 -0.2618
 6707W        W10451   9.647   5.808   9.812  0.1429  0.0288  0.0595
 6708W        W10452   2.173   0.193   9.893 -0.1622  0.0560  0.1446
 6709W        W10453   5.993   1.705   3.522 -0.0001 -0.2380 -0.5304
 6710W        W10454   6.457   8.524   2.554  0.0428 -0.0707  0.0376
 6711W        W10455   7.011   2.166  10.593 -0.3308  0.0578 -0.1285
 6712W        W10456   6.244   4.526  11.242  0.1854 -0.0326  0.5727
 6713W        W10457   1.219   7.169   9.637 -0.2242  0.2469 -0.1178
 6714W        W10458   0.322   8.271  10.531  0.1267 -0.0832 -0.2608
 6715W        W10459   4.351   8.090  12.554  0.3040 -0.1153  0.0708
 6716W        W10460   5.741   0.854   0.413  0.2764  0.0266  0.1737
 6717W        W10461   9.885   5.523  10.847  0.2512 -0.2769  0.0401
 6718W        W10462   9.265   8.671   1.149 -0.0563 -0.2383 -0.0539
 6719W        W10463   9.862   6.151  10.824 -0.2835  0.1011 -0.1969
 6720W        W10464   5.032   8.484   4.082 -0.0386  0.4020  0.0891
 6721W        W10465   7.392   7.670   3.324 -0.1732 -0.3727 -0.2977
 6722W        W10466   1.153   3.646   4.009  0.0035  0.1200 -0.0930
 6723W        W10467   2.940   2.343   4.373 -0.0369 -0.1485  0.1928
 6724W        W10468   7.482   0.587   8.987  0.3483  0.1680  0.1377
 6725W        W10469   8.188   2.896  10.691 -0.2671 -0.0921 -0.1315
 6726W        W10470   6.070   1.410  11.370 -0.1774  0.2047  0.1772
 6727W        W10471   1.464   3.024   2.233 -0.0161  0.4121  0.0094
 6728W        W10472   8.967   4.474   2.792  0.1357 -0.2879 -0.0459
 6729W        W10473   5.247   7.851   3.882 -0.2854 -0.1426  0.1396
 6730W        W10474   1.714   4.055   9.920 -0.1469  0.0720 -0.1626
 6731W        W10475   5.705   7.663   2.144 -0.1555  0.0938 -0.0841
 6732W        W10476   2.101   7.941   1.380  0.0850  0.1537  0.2902
 6733W        W10477   6.758   1.046   9.819  0.0285 -0.0987  0.0911
 6734W        W10478   8.679   4.714  11.919  0.0566  0.1313 -0.0348
 6735W        W10479   3.609   9.486   2.779  0.2122 -0.0711 -0.2769
 6736W        W10480   0.972   5.909   2.513 -0.1981 -0.0721  0.1938
 6737W        W10481   2.385   9.188   9.900 -0.3850 -0.0390  0.2489
 6738W        W10482   1.763   2.933   3.983 -0.1663 -0.1977  0.2592
 6739W        W10483   0.589   4.765   1.714 -0.0296  0.0648  0.0874
 6740W        W10484   9.683   1.733   2.522 -0.1215  0.1702  0.1920
 6741W        W10485   5.251   4.495  12.569 -0.2938  0.0557  0.1132
 6742W        W10486   8.361   2.366  10.773  0.1305  0.1345 -0.0375
 6743W        W10487   7.460   4.850  10.373 -0.0771  0.1715 -0.0040
 6744W        W10488   8.956   7.139   1.980 -0.1098 -0.3097  0.4888
 6745W        W10489   8.319   6.048   9.884 -0.1687 -0.0273  0.4121
 6746W        W10490   3.903   6.902   4.075  0.3062  0.0562 -0.0526
 6747W        W10491   1.208   8.129   0.154  0.0674  0.0803 -0.1546
 6748W        W10492   9.823   2.969   8.283  0.0637  0.3735  0.0766
 6749W        W10493   2.090   6.431  11.540 -0.1064 -0.2074  0.1272
 6750W        W10494   4.141   2.829  11.987 -0.0949 -0.2869 -0.1038
 6751W        W10495   2.779   8.265  11.886  0.0989  0.0900  0.1884
 6752W        W10496   4.610   9.151   2.704 -0.1448  0.0863 -0.3834
 6753W        W10497   1.615   0.663   2.131 -0.1195 -0.1360 -0.0716
 6754W        W10498   1.998   8.093  12.594 -0.1388 -0.2326  0.0483
 6755W        W10499   0.689   3.248   8.942 -0.2791  0.1626  0.2162
 6756W        W10500   6.795   4.515  11.726  0.0369 -0.1451  0.2473
 6757W        W10501   1.849   1.095   0.916 -0.0350 -0.1278 -0.4244
 6758W        W10502   8.452   4.564   3.861  0.3433  0.0186  0.0226
 6759W        W10503   2.939   3.571  10.580  0.1866  0.1405  0.0465
 6760W        W10504   8.768   1.728   1.408  0.1589  0.0789  0.1746
 6761W        W10505   5.495   0.381   1.367 -0.0214  0.2188  0.1998
 6762W        W10506   7.638   6.377   2.037  0.3320 -0.1001 -0.0570
 6763W        W10507   9.183   6.703  12.742  0.0444  0.2800  0.3247
 6764W        W10508   9.466   1.508   9.766 -0.3200  0.2193  0.0842
 6765W        W10509   7.013   5.729   8.964 -0.1897  0.0251  0.4681
 6766W        W10510   3.542   5.967  11.224 -0.1167 -0.0198 -0.3392
 6767W        W10511   2.836   7.738   3.832 -0.0061 -0.1332 -0.2649
 6768W        W10512   3.382   1.766  11.617 -0.0490 -0.2540  0.1353
 6769W        W10513   4.098   2.544   0.818  0.2904  0.3198  0.1313
 6770W        W10514   1.833   7.126   3.444 -0.1293  0.1110  0.1437
 6771W        W10515   9.010   3.244   2.262 -0.1304 -0.0204  0.0353
 6772W        W10516   3.144   0.941   0.441  0.3680 -0.1096 -0.2647
 6773W        W10517   5.586   8.164   1.990  0.1661  0.1586 -0.2300
 6774W        W10518   1.568   1.377  10.947 -0.0554 -0.1945  0.0989
 6775W        W10519   6.702   4.957  12.641 -0.4165  0.3078 -0.4007
 6776W        W10520   6.666   6.173  10.688  0.2687  0.0939 -0.2167
 6777W        W10521   9.049   1.846  11.975 -0.0728  0.1411  0.0469
 6778W        W10522   8.198   7.826   0.798 -0.1415  0.0804 -0.0453
 6779W        W10523   2.708   1.112   0.772  0.1039  0.0187  0.0313
 6780W        W10524   2.144   6.351   1.156  0.0323  0.4499  0.0113
 6781W        W10525   4.107   4.782   2.658 -0.1066 -0.0276  0.0827
 6782W        W10526   4.325   5.735   2.277  0.3821 -0.1577 -0.2112
 6783W        W10527   5.352   8.122   4.308  0.0302  0.2014 -0.0640
 6784W        W10528   4.054   1.034   9.529 -0.0418  0.0066 -0.2456
 6785W        W10529   7.201   5.085   1.478 -0.0665  0.1208 -0.0175
 6786W        W10530   3.250   1.415   2.330  0.0600 -0.0361 -0.1825
 6787W        W10531   5.524   8.528   8.815  0.1453 -0.3382  0.0222
 6788W        W10532   2.468   3.699   2.282 -0.0539  0.2068  0.0538
 6789W        W10533   9.328   2.070   2.484 -0.0476 -0.0528 -0.1610
 6790W        W10534   8.650   5.750   2.341  0.1440  0.1983 -0.0276
 6791W        W10535   8.766   5.902   8.515  0.0455 -0.0690 -0.3246
 6792W        W10536   6.991   1.771  12.224  0.3771  0.1440 -0.1387
 6793W        W10537   5.327   7.215   9.790  0.0815 -0.1048 -0.0047
 6794W        W10538   2.370   2.041   0.317 -0.3048  0.0004  0.0353
 6795W        W10539   0.166   6.270   0.540  0.2820  0.0147 -0.0340
 6796W        W10540   7.071   2.120   3.617  0.0871  0.3863  0.1459
 6797W        W10541   5.908   0.698   4.781 -0.1135  0.1484 -0.0242
 6798W        W10542   2.358   5.235   1.379 -0.0680 -0.0662 -0.1349
 6799W        W10543   1.103   4.173  10.323  0.1506 -0.1239 -0.3791
 6800W        W10544   8.383   4.542   1.972  0.1656 -0.0613  0.1906
 6801W        W10545   7.164   2.241   4.165 -0.3901  0.2510 -0.0084
 6802W        W10546   6.272   2.266   4.633 -0.0584 -0.0753  0.2099
 6803W        W10547   1.815   4.807  10.142  0.2062  0.3831 -0.0920
 6804W        W10548   1.818   1.154   0.318  0.0259 -0.0906  0.1796
 6805W        W10549   2.599   0.138   0.459 -0.4220  0.2176 -0.0982
 6806W        W10550   8.989   3.535  10.362  0.3996 -0.0909  0.0500
 6807W        W10551   6.581   6.605  10.262 -0.0376  0.1224 -0.2667
 6808W        W10552   6.312   6.193   4.186  0.0531 -0.0851  0.0062
 6809W        W10553   3.672   3.869   2.044  0.2703  0.1452  0.1867
 6810W        W10554   6.860   1.637   8.603 -0.0125 -0.1208  0.1500
 6811W        W10555   2.852   2.170   0.707  0.0799 -0.0724  0.0162
 6812W        W10556   9.345   7.475  11.676 -0.1474  0.1801 -0.1929
 6813W        W10557   7.950   1.989   2.789 -0.1556  0.0481 -0.0434
 6814W        W10558   8.432   5.575  12.636  0.0596 -0.0199  0.2600
 6815W        W10559   2.233   6.480   3.963  0.0210  0.1475  0.0400
 6816W        W10560   3.205   2.633   9.883 -0.0497 -0.0146 -0.1775
 6817W        W10561   2.237   1.104  11.638 -0.0581  0.1066 -0.3045
 6818W        W10562   4.088   0.084  11.921 -0.0851  0.0470 -0.0737
 6819W        W10563   4.366   8.335   2.661 -0.1553  0.1313  0.0203
 6820W        W10564   9.588   3.599   1.778 -0.0354 -0.1518  0.0587
 6821W        W10565   1.424   4.202  12.104 -0.1957 -0.0652  0.2044
 6822W        W10566   0.058   9.137  12.813 -0.0878 -0.2234  0.2618
 6823W        W10567   8.120   1.249   4.034 -0.1738 -0.3408  0.1248
 6824W        W10568   2.670   0.549  11.494 -0.1915 -0.3061  0.2032
 6825W        W10569   9.129   4.060   4.156  0.1362 -0.2362  0.1686
 6826W        W10570   7.416   5.940  12.442 -0.0360 -0.2749 -0.1487
 6827W        W10571   2.087   6.805   3.105 -0.0373 -0.4244  0.1223
 6828W        W10572   9.350   1.636  12.386  0.2515 -0.0012  0.0813
 6829W        W10573   5.884   0.934  10.099 -0.0759  0.3584  0.0114
 6830W        W10574   7.447   4.233   1.977  0.0843  0.2890  0.0474
 6831W        W10575   9.350   6.125  10.955  0.4224 -0.0627 -0.1287
 6832W        W10576   6.681   6.271   1.195  0.0377  0.0127  0.2884
 6833W        W10577   9.171   5.805   9.657  0.0626 -0.2526 -0.1846
 6834W        W10578   4.409   5.571  12.108  0.0645 -0.1815 -0.1581
 6835W        W10579   8.518   6.669   9.369 -0.0488  0.3750  0.1651
 6836W        W10580   5.466   7.049   1.811  0.1799  0.1940 -0.1263
 6837W        W10581   7.249   4.959  12.551  0.1556 -0.0696 -0.1184
 6838W        W10582   9.216   2.713  10.275  0.0221 -0.1844  0.0431
 6839W        W10583   6.670   9.454   8.657 -0.2255 -0.0435  0.0644
 6840W        W10584   7.437   5.643   2.898 -0.2071 -0.0580  0.1249
 6841W        W10585   4.591   4.846   8.857  0.0124 -0.0629 -0.0605
 6842W        W10586   8.304   2.495   8.617 -0.0181 -0.0268  0.0828
 6843W        W10587   0.433   6.968  12.284  0.0749  0.1729  0.4806
 6844W        W10588   0.055   1.288   1.070 -0.0241 -0.0009  0.1250
 6845W        W10589   2.136   6.436   2.154 -0.1804  0.0745 -0.1394
 6846W        W10590   7.567   6.744  11.224  0.2535  0.0693 -0.1088
 6847W        W10591   7.309   6.284   2.451 -0.2718  0.2081 -0.0710
 6848W        W10592   9.360   2.196   3.391 -0.1677 -0.0007 -0.0817
 6849W        W10593   7.058   9.483   2.760 -0.0909 -0.0813  0.3033
 6850W        W10594   6.416   3.358   9.611 -0.0425 -0.1817 -0.0602
 6851W        W10595   9.814   4.754   2.639  0.0518 -0.2172  0.2213
 6852W        W10596   9.066   5.046   1.013  0.2248 -0.0245  0.0564
 6853W        W10597   0.921   9.758  11.380 -0.0785 -0.1244  0.0246
 6854W        W10598   6.365   6.497   9.395  0.2627  0.0969  0.1470
 6855W        W10599   2.898   7.914  12.693 -0.1555  0.1048 -0.0007
 6856W        W10600   6.062   5.493   0.680 -0.2086 -0.0192  0.0417
 6857W        W10601   1.746   1.415   1.820 -0.0771  0.1631 -0.1905
 6858W        W10602   1.487   7.650   0.174 -0.2892  0.1430 -0.0785
 6859W        W10603   9.014   1.982   0.145  0.1490 -0.1754  0.1621
 6860W        W10604   3.758   4.821  12.708 -0.1207 -0.1596 -0.2812
 6861W        W10605   6.155   8.141   7.734 -0.2609 -0.4032 -0.1417
 6862W        W10606   4.144   0.634  11.760 -0.0449 -0.1413 -0.1463
 6863W        W10607   1.923   4.129   4.351 -0.2687 -0.0642 -0.1980
 6864W        W10608   5.369   1.248   9.105  0.1024 -0.3685 -0.2184
 6865W        W10609   9.744   7.176   9.510  0.0662  0.2498 -0.0255
 6866W        W10610   0.967   3.767   3.453  0.0733 -0.0098 -0.0148
 6867W        W10611   3.824   5.468  10.997  0.0613  0.0148  0.0200
 6868W        W10612   6.557   8.189  10.711 -0.0687 -0.3060  0.1218
 6869W        W10613   6.393   7.057   0.057 -0.0110 -0.0283  0.0710
 6870W        W10614   0.071   6.582   3.181  0.0232  0.1721 -0.0329
 6871W        W10615   5.597   5.127   2.767  0.2132 -0.2284 -0.1237
 6872W        W10616   2.675   4.811  11.327 -0.0681  0.2748  0.0252
 6873W        W10617   1.302   1.802  12.797 -0.5831  0.0986 -0.0718
 6874W        W10618   9.795   9.333   8.523  0.1130 -0.1455  0.1631
 6875W        W10619   6.354   2.266   1.974 -0.2015 -0.0645  0.1848
 6876W        W10620   2.691   9.062   2.528  0.1881  0.2105  0.2785
 6877W        W10621   7.330   6.968   1.512  0.0652 -0.1863 -0.0597
 6878W        W10622   9.296   0.044   3.736  0.1937  0.1435 -0.0037
 6879W        W10623   4.372   6.285  11.391 -0.0255 -0.0996 -0.0688
 6880W        W10624   7.130   5.014   1.936  0.0999 -0.1933 -0.1911
 6881W        W10625   6.361   4.010  11.674 -0.0935 -0.0821 -0.0795
 6882W        W10626   9.453   6.508  11.876  0.1116  0.3507 -0.0763
 6883W        W10627   9.827   9.261  10.713 -0.3518 -0.1384  0.1870
 6884W        W10628   6.440   2.588  11.228 -0.0283 -0.1814  0.0564
 6885W        W10629   8.150   8.079   9.594 -0.0856 -0.2888  0.0193
 6886W        W10630   3.797   4.368  12.490 -0.2659  0.1255  0.0554
 6887W        W10631   2.076   9.713  11.892  0.0056  0.1840  0.2231
 6888W        W10632   0.474   6.013   9.046 -0.1413 -0.1601 -0.3439
 6889W        W10633   6.680   5.353   1.009 -0.2291  0.1377  0.0052
 6890W        W10634   8.591   6.861  11.327 -0.3312  0.0247  0.2289
 6891W        W10635   4.325   1.868  12.432 -0.0224  0.2215  0.0925
 6892W        W10636   4.791   3.500   1.243  0.0409 -0.0211 -0.0653
 6893W        W10637   3.603   5.527   1.803  0.1546 -0.1600  0.1033
 6894W        W10638   3.875   6.101   3.053 -0.3665  0.2048 -0.3337
 6895W        W10639   6.781   9.650   2.240  0.0909 -0.1819 -0.0305
 6896W        W10640   6.206   2.560   0.393 -0.1751 -0.0134 -0.0588
 6897W        W10641   9.366   4.537  10.376  0.0543  0.2121 -0.1887
 6898W        W10642   5.114   0.212   2.256 -0.1207  0.0104 -0.0653
 6899W        W10643   3.121   8.221   3.113  0.3462 -0.2675 -0.0183
 6900W        W10644   3.807   1.944   0.305 -0.1606  0.3486  0.1037
 6901W        W10645   1.624   8.938   2.935 -0.0336 -0.2924 -0.0851
 6902W        W10646   0.778   6.447  11.558 -0.0829  0.2951  0.3209
 6903W        W10647   7.061   4.899   2.868 -0.2481 -0.4427  0.3941
 6904W        W10648   7.369   1.503  12.420  0.0003 -0.0063 -0.0434
 6905W        W10649   0.644   9.216   9.427  0.1652  0.1527  0.0621
 6906W        W10650   2.854   2.088   1.230 -0.0486 -0.2453  0.5222
 6907W        W10651   1.919   7.786  12.068 -0.1555 -0.0525 -0.0519
 6908W        W10652   3.570   8.609  11.410 -0.0267 -0.1162 -0.2907
 6909W        W10653   7.070   6.300  11.963  0.0829 -0.3627  0.0214
 6910W        W10654   5.961   8.481   2.106 -0.1260 -0.0091  0.1554
 6911W        W10655   6.928   2.304  11.971  0.1186 -0.1433 -0.0587
 6912W        W10656   2.657   5.351   3.159 -0.0158  0.2472  0.1048
 6913W        W10657   1.986   0.428  10.751  0.1614  0.1340 -0.0713
 6914W        W10658   7.338   2.034  12.517  0.0129  0.0466 -0.1652
 6915W        W10659   2.922   5.190  12.321  0.2635  0.1743 -0.2469
 6916W        W10660   2.540   2.694  10.625 -0.1071  0.2223  0.0731
 6917W        W10661   5.725   1.289   3.636  0.1124  0.0124  0.1282
 6918W        W10662   3.013   9.079   2.142  0.1227 -0.1083  0.0164
 6919W        W10663   1.200   2.907  10.373  0.1354 -0.0458  0.1086
 6920W        W10664   8.441   2.982  12.250 -0.2043 -0.4294 -0.2163
 6921W        W10665   3.451   1.794   8.809  0.2360 -0.4376 -0.1249
 6922W        W10666   3.894   6.793   0.727 -0.3065  0.2080  0.1644
 6923W        W10667   7.737   8.267   2.693 -0.0784  0.4514 -0.0076
 6924W        W10668   0.633   5.166  10.878  0.2658  0.1704  0.1748
 6925W        W10669   0.268   5.920   1.084  0.0087 -0.0613 -0.1048
 6926W        W10670   9.251   5.371   2.488 -0.0292  0.1125  0.1680
 6927W        W10671   6.303   2.303   1.274 -0.1202  0.0583  0.0560
 6928W        W10672   7.961   9.406   1.399  0.2052  0.2243 -0.1475
 6929W        W10673   4.577   5.797  11.210 -0.0983 -0.0689  0.3096
 6930W        W10674   4.647   8.083  11.131 -0.0857 -0.0719  0.0317
 6931W        W10675   4.559   5.538  12.614 -0.0274  0.0175  0.1488
 6932W        W10676   8.886   9.608   1.642  0.1161 -0.1154 -0.4154
 6933W        W10677   0.040   1.316  12.304 -0.0687 -0.0647  0.2266
 6934W        W10678   4.716   6.442  11.769 -0.1549 -0.0359  0.0299
 6935W        W10679   0.133   5.412  10.172  0.2430  0.0956  0.2228
 6936W        W10680   5.536   3.372   1.868  0.0603 -0.5126 -0.3151
 6937W        W10681   9.274   6.884   0.288  0.1260  0.0086  0.0213
 6938W        W10682   9.362   2.918   3.885 -0.1439  0.2130  0.1221
 6939W        W10683   9.365   6.140  10.421 -0.0023 -0.2081 -0.2952
 6940W        W10684   5.175   4.349   8.900  0.0306  0.3868  0.0216
 6941W        W10685   7.768   9.047   2.227  0.5089 -0.0669  0.1097
 6942W        W10686   0.956   2.723   2.996 -0.1957  0.0215 -0.0967
 6943W        W10687   0.253   3.787   0.399 -0.3823  0.0668 -0.1475
 6944W        W10688   7.753   5.586   0.587 -0.1410  0.1783  0.0961
 6945W        W10689   9.175   8.787   2.615 -0.3317  0.0524 -0.0106
 6946W        W10690   4.130   0.207   2.349  0.3073 -0.2606  0.2585
 6947W        W10691   2.041   5.562  11.545 -0.2121  0.2540 -0.1582
 6948W        W10692   9.373   1.760   9.338  0.1991 -0.0620  0.0084
 6949W        W10693   8.802   1.789   2.177  0.0716  0.0793 -0.2278
 6950W        W10694   2.173   6.886   3.661  0.1274  0.3259 -0.3160
 6951W        W10695   4.063   7.931   9.463 -0.0261  0.3171  0.0708
 6952W        W10696   6.333   0.226   3.709  0.0301 -0.1457  0.0328
 6953W        W10697   5.846   4.112  11.106  0.4663 -0.1362  0.0710
 6954W        W10698   9.116   8.493  11.550 -0.0558  0.1132  0.2629
 6955W        W10699   2.919   2.618   2.416 -0.0436 -0.1996 -0.2983
 6956W        W10700   1.837   7.251  12.320 -0.0477 -0.1164 -0.0330
 6957W        W10701   2.751   7.425   0.623  0.2495 -0.0091  0.0403
 6958W        W10702   2.590   8.176   3.131 -0.0738  0.1499 -0.0506
 6959W        W10703   3.970   5.234   2.785  0.1100  0.1508  0.0643
 6960W        W10704   4.795   0.811  10.115  0.1446 -0.1347 -0.0388
 6961W        W10705   0.289   1.982   2.077 -0.1441 -0.1562  0.2479
 6962W        W10706   4.135   8.225  12.051  0.3870  0.0834 -0.0589
 6963W        W10707   6.163   9.813  11.418 -0.2170 -0.0960 -0.0623
 6964W        W10708   1.849   5.441   1.344 -0.1412 -0.1917  0.1990
 6965W        W10709   6.887   3.253  11.825  0.1209 -0.2139 -0.1217
 6966W        W10710   4.103   2.167   1.658  0.0225  0.1664 -0.0113
 6967W        W10711   7.001   7.866   9.555  0.0188 -0.1036 -0.0422
 6968W        W10712   8.358   6.149  12.667  0.0480 -0.1063 -0.1309
 6969W        W10713   8.761   5.697   1.585  0.1421 -0.1001  0.1734
 6970W        W10714   7.126   6.798   9.551 -0.0663  0.2581 -0.0635
 6971W        W10715   2.814   4.066   9.525 -0.2489 -0.1487  0.3102
 6972W        W10716   3.958   2.342   2.641 -0.0975 -0.4737 -0.0870
 6973W        W10717   9.023   6.205   3.871  0.1588  0.0918  0.0763
 6974W        W10718   7.637   6.149   3.789 -0.1297  0.1710 -0.1324
 6975W        W10719   0.649   4.212   1.848 -0.1386 -0.0948  0.2493
 6976W        W10720   9.221   6.727   1.748 -0.0491  0.0367  0.0041
 6977W        W10721   9.254   9.637   0.840  0.1411 -0.0185  0.0366
 6978W        W10722   4.138   9.053   1.091  0.3214  0.0242 -0.2065
 6979W        W10723   1.532   5.502   2.017  0.2314  0.3942  0.0224
 6980W        W10724   1.659   8.016  10.794  0.0193  0.0526  0.2101
 6981W        W10725   8.283   2.519  12.476  0.3272  0.0170  0.2940
 6982W        W10726   6.591   5.059   2.830 -0.0762  0.2143  0.2011
 6983W        W10727   1.372   5.840  12.783  0.1575 -0.0437 -0.0420
 6984W        W10728   6.811   0.249  11.985 -0.0667 -0.2608 -0.1254
 6985W        W10729   8.421   0.850   1.249  0.1336 -0.0329 -0.0566
 6986W        W10730   5.642   0.472   2.994 -0.1254 -0.2700  0.0176
 6987W        W10731   6.202   1.435  11.844 -0.0844 -0.0619 -0.1324
 6988W        W10732   7.468   0.314  11.300 -0.0467 -0.0417 -0.0101
 6989W        W10733   3.299   2.954   0.907 -0.2570 -0.0656 -0.1677
 6990W        W10734   3.665   7.834   9.780  0.0119 -0.1892  0.4263
 6991W        W10735   8.776   3.172  12.710  0.0348 -0.0447  0.0970
 6992W        W10736   3.694   5.634   2.900  0.0258 -0.0815 -0.0785
 6993W        W10737   9.355   6.919   9.151 -0.2633 -0.4052  0.0753
 6994W        W10738   4.364   6.054   3.670  0.0320 -0.0918 -0.0853
 6995W        W10739   7.496   6.322   9.631 -0.0511  0.1924 -0.0032
 6996W        W10740   9.351   1.900  10.936  0.1746 -0.3145  0.2346
 6997W        W10741   3.925   9.560   1.030  0.0345 -0.2449 -0.1515
 6998W        W10742   5.840   9.007   4.254 -0.1723 -0.0265 -0.2166
 6999W        W10743   8.158   3.203   9.326 -0.1013  0.3004 -0.2608
 7000W        W10744   6.403   9.499   2.644  0.1011  0.0603 -0.0225
 7001W        W10745   5.127   8.947   1.844 -0.3478  0.0794  0.3345
 7002W        W10746   1.092   2.371   1.680 -0.2155 -0.0603 -0.0117
 7003W        W10747   6.115   6.282  10.503  0.0878  0.0023  0.0617
 7004W        W10748   3.042   3.411   3.370  0.5257 -0.0527 -0.1301
 7005W        W10749   3.969   2.549  10.366 -0.4096  0.0939  0.0102
 7006W        W10750   2.897   5.144   3.626 -0.1367 -0.1273 -0.2539
 7007W        W10751   9.036   1.206  10.656  0.0242 -0.2262 -0.2349
 7008W        W10752   4.818   5.453  11.498  0.2235 -0.3259  0.1813
 7009W        W10753   4.373   3.567  12.433  0.0498  0.4369  0.2126
 7010W        W10754   3.549   4.640   2.467 -0.0368  0.0230 -0.2938
 7011W        W10755   0.105   0.372   0.112  0.1873  0.0101 -0.3249
 7012W        W10756   6.328   5.352   5.048  0.0939  0.0641 -0.1822
 7013W        W10757   8.938   4.784   3.689 -0.0370  0.0721 -0.1045
 7014W        W10758   4.064   8.972   9.376 -0.4221 -0.0887  0.1910
 7015W        W10759   1.783   4.219   5.020  0.0267 -0.0656 -0.1637
 7016W        W10760   0.395   9.344  11.476  0.1110 -0.0868  0.1189
 7017W        W10761   4.890   2.197   3.826 -0.2239 -0.2252  0.0550
 7018W        W10762   6.400   1.339   8.631  0.1822  0.3864 -0.1761
 7019W        W10763   9.255   0.881   0.073 -0.0867  0.2875 -0.3100
 7020W        W10764   1.798   9.408  12.252 -0.1780  0.0361  0.2629
 7021W        W10765   1.942   0.449   1.097 -0.1571 -0.2454 -0.0275
 7022W        W10766   3.008   6.133   3.464  0.3257  0.1982  0.0551
 7023W        W10767   4.564   5.446   1.423 -0.0687  0.0053  0.0780
 7024W        W10768   8.588   7.296  10.516 -0.0469  0.3234 -0.0926
 7025W        W10769   7.218   8.908  11.890 -0.2285 -0.1791  0.0459
 7026W        W10770   3.534   1.199  11.792 -0.0200 -0.1725 -0.0563
 7027W        W10771   0.392   2.063  10.844 -0.2148 -0.0092 -0.2247
 7028W        W10772   2.430   3.641   3.937  0.0069 -0.3197 -0.2068
 7029W        W10773   8.475   1.473   0.545  0.1560  0.0954 -0.1109
 7030W        W10774   1.342   3.207   4.205 -0.2438  0.0899 -0.1316
 7031W        W10775   2.452   0.923   2.058 -0.1098 -0.0807  0.1197
 7032W        W10776   1.283   4.173  11.143 -0.2339 -0.0047 -0.2788
 7033W        W10777   9.513   0.441   0.967  0.0206  0.0603 -0.1425
 7034W        W10778   6.703   0.855   2.301  0.1531  0.2796 -0.1433
 7035W        W10779   2.624   4.507   2.830 -0.1618 -0.0963 -0.0932
 7036W        W10780   4.596   5.105  12.275 -0.1235 -0.0517 -0.3444
 7037W        W10781   0.269   5.117  11.701 -0.2397 -0.0822  0.0043
 7038W        W10782   7.348   0.261   1.891  0.0113 -0.0177 -0.1497
 7039W        W10783   3.938   0.450  12.269  0.4448  0.1737 -0.2180
 7040W        W10784   4.860   8.980  11.401 -0.1038  0.0874  0.4567
 7041W        W10785   0.793   7.419   4.115 -0.5474 -0.2448  0.1042
 7042W        W10786   4.986   8.637   8.787 -0.0316 -0.2904 -0.1745
 7043W        W10787   4.264   6.974  12.702  0.2856 -0.2125  0.0221
 7044W        W10788   4.654   6.547   9.328  0.1172 -0.1751 -0.0446
 7045W        W10789   2.039   9.176  11.788  0.0585  0.2080 -0.0175
 7046W        W10790   7.004   7.556  12.362  0.1165 -0.2654 -0.1140
 7047W        W10791   7.268   0.928  12.361 -0.0942  0.1168  0.2195
 7048W        W10792   7.525   2.346   3.551 -0.2600 -0.3653 -0.2662
 7049W        W10793   4.208   1.075   3.878 -0.1587 -0.4633  0.3786
 7050W        W10794   8.570   6.194  12.098 -0.2035  0.0855 -0.2878
 7051W        W10795   5.132   4.465  10.496 -0.1190  0.1945  0.1877
 7052W        W10796   3.066   3.598   9.660 -0.0043  0.2152  0.1259
 7053W        W10797   6.664   5.802   2.045 -0.0561  0.1710 -0.1633
 7054W        W10798   8.573   9.155  12.696 -0.2905 -0.1427 -0.1261
 7055W        W10799   8.580   0.154  12.253 -0.0964 -0.0126 -0.0470
 7056W        W10800   2.664   4.228  11.187  0.2215  0.0870 -0.0982
 7057W        W10801   1.836   7.980   3.830 -0.0964  0.1606 -0.0902
 7058W        W10802   3.444   9.530   1.397 -0.1946 -0.1380 -0.0091
 7059W        W10803   0.501   9.153   2.088 -0.1750 -0.0687 -0.5085
 7060W        W10804   8.772   7.828  12.762 -0.1225  0.0316 -0.3815
 7061W        W10805   8.349   0.917  11.362 -0.2940  0.0283 -0.1791
 7062W        W10806   8.565   6.899   1.126  0.3736  0.4679 -0.0191
 7063W        W10807   5.559   1.583   3.086  0.2606  0.0823 -0.0149
 7064W        W10808   8.214   6.811   0.186  0.0792 -0.1059 -0.1826
 7065W        W10809   6.980   7.436   3.226  0.0663  0.0523  0.1065
 7066W        W10810   7.122   8.117   0.202 -0.3313  0.0757  0.0419
 7067W        W10811   4.215   9.403   1.845 -0.3067  0.0465  0.0342
 7068W        W10812   4.200   8.128   9.918  0.0574 -0.2307 -0.0516
 7069W        W10813   0.958   3.374   1.884 -0.1912 -0.0432  0.1408
 7070W        W10814   8.602   0.669   8.261 -0.2992  0.1615 -0.0229
 7071W        W10815   2.256   0.537  10.235 -0.0857 -0.1831  0.0909
 7072W        W10816   0.773   7.566   1.586  0.1340 -0.1841 -0.1791
 7073W        W10817   3.437   4.450   4.511 -0.0121 -0.2366  0.5039
 7074W        W10818   0.595   3.294  11.028 -0.0617 -0.1781 -0.0769
 7075W        W10819   0.211   0.019   3.088  0.0845 -0.0545  0.0988
 7076W        W10820   8.147   7.794  10.083 -0.2381  0.1411  0.3270
 7077W        W10821   2.563   0.833   9.878  0.1302 -0.2767 -0.0506
 7078W        W10822   1.905   8.014   3.365  0.2486 -0.1510  0.0265
 7079W        W10823   5.101   6.474   0.278  0.2644 -0.4157 -0.6451
 7080W        W10824   8.161   7.994   4.189 -0.0108  0.1169 -0.0261
 7081W        W10825   9.747   1.163  10.055 -0.3307  0.0527  0.2724
 7082W        W10826   2.738   5.785   9.682 -0.2157 -0.0380 -0.0062
 7083W        W10827   3.049   4.214   3.190 -0.1857  0.0222  0.1467
 7084W        W10828   8.230   9.540   2.175  0.2240  0.0371 -0.1387
 7085W        W10829   3.995   6.178   1.022  0.3299 -0.2372  0.0012
 7086W        W10830   1.104   1.658   9.468 -0.3146 -0.2282 -0.1124
 7087W        W10831   8.455   5.526   1.963  0.4445  0.0971  0.3673
 7088W        W10832   4.180   3.507   0.684  0.1119 -0.0857 -0.4796
 7089W        W10833   9.846   4.470   3.668  0.0144  0.2875 -0.1755
 7090W        W10834   7.898   7.868  11.947 -0.0475  0.2691 -0.0468
 7091W        W10835   1.232   5.579   9.908 -0.1415 -0.0439 -0.2891
 7092W        W10836   2.636   2.599  11.163  0.0655 -0.2043  0.1048
 7093W        W10837   4.474   1.655   8.919 -0.2378  0.2298 -0.0641
 7094W        W10838   1.718   1.491  10.116  0.0667  0.2731 -0.3126
 7095W        W10839   1.526   6.654   0.608  0.0451  0.3508 -0.0291
 7096W        W10840   3.882   7.464  12.292  0.2628 -0.1316 -0.0784
 7097W        W10841   1.935   1.293   9.624 -0.1437  0.2116  0.0114
 7098W        W10842   7.576   7.308   8.843 -0.1005  0.0585 -0.0508
 7099W        W10843   8.131   1.047  11.787  0.0509 -0.1127 -0.2452
 7100W        W10844   4.647   3.535   8.194 -0.0273  0.2608 -0.2659
 7101W        W10845   9.090   1.842   9.979  0.0234 -0.3819  0.3153
 7102W        W10846   8.093   9.160   3.071 -0.2685 -0.1428 -0.0978
 7103W        W10847   3.640   9.110   1.113 -0.1878  0.0952  0.1541
 7104W        W10848   3.643   0.821  10.969 -0.5047 -0.0033  0.0416
 7105W        W10849   6.283   4.640  11.728  0.1226  0.2484  0.1208
 7106W        W10850   0.462   6.407  12.595  0.1658 -0.2968 -0.2577
 7107W        W10851   3.212   2.193   0.167  0.3239 -0.1462  0.1616
 7108W        W10852   3.191   2.840   4.301 -0.1899  0.1327 -0.3215
 7109W        W10853   7.547   2.077   0.237 -0.3110 -0.0775  0.3177
 7110W        W10854   0.204   0.318  12.422 -0.2079 -0.0410 -0.0221
 7111W        W10855   0.890   3.270   2.944  0.0724  0.1490  0.1362
 7112W        W10856   2.806   0.357  10.036  0.2877 -0.0556  0.1915
 7113W        W10857   5.056   4.905   3.756 -0.2120  0.0579 -0.0585
 7114W        W10858   7.329   4.657   8.728  0.0886 -0.1359  0.0207
 7115W        W10859   5.102   7.496   0.290  0.0361  0.2143  0.1620
 7116W        W10860   8.284   3.107   8.714  0.2629  0.3018 -0.0662
 7117W        W10861   0.971   6.256  12.715  0.1368 -0.0357 -0.2762
 7118W        W10862   2.441   3.145   0.567 -0.2318 -0.2544 -0.2077
 7119W        W10863   4.725   0.596   2.282 -0.0104  0.1309  0.0624
 7120W        W10864   2.167   0.103   9.395  0.0130 -0.0802 -0.2192
 7121W        W10865   0.884   6.815  11.891  0.0291  0.0947  0.3146
 7122W        W10866   9.800   6.301   4.236 -0.2192 -0.1734  0.0405
 7123W        W10867   0.444   6.125   5.079  0.0528 -0.2211  0.1781
 7124W        W10868   4.722   4.135  10.624 -0.1841  0.1917  0.0887
 7125W        W10869   5.414   9.607  12.467 -0.3406  0.3703 -0.1639
 7126W        W10870   1.003   5.571   2.064 -0.1726  0.2139 -0.0116
 7127W        W10871   5.448   6.726   8.365  0.1933  0.2213 -0.2833
 7128W        W10872   8.207   0.945  12.338 -0.3005  0.1603 -0.2819
 7129W        W10873   8.337   7.864   3.693  0.2032 -0.1762  0.0867
 7130W        W10874   8.819   8.449   3.096  0.0114 -0.3493  0.2788
 7131W        W10875   4.148   3.782   8.566  0.1823  0.1978  0.4015
 7132W        W10876   4.218   8.085   8.778 -0.0309  0.3275 -0.2893
 7133W        W10877   3.892   0.304  11.057  0.4370 -0.3875  0.0263
 7134W        W10878   8.927   6.313   1.795  0.0371  0.0768 -0.2861
 7135W        W10879   7.423   1.688  11.946  0.0179 -0.1439 -0.0431
 7136W        W10880   6.636   0.850   3.284  0.1680 -0.0470  0.0080
 7137W        W10881   8.191   6.275   1.135 -0.2983 -0.0090  0.0465
 7138W        W10882   6.193   9.261   8.677  0.2269  0.0662  0.1571
 7139W        W10883   3.435   7.922   1.019  0.1337 -0.1177 -0.0210
 7140W        W10884   8.570   2.678   3.119 -0.0192 -0.1615  0.1648
 7141W        W10885   3.781   4.972   0.326  0.2349 -0.2717  0.1773
 7142W        W10886   3.952   9.371   3.170  0.3771  0.0791 -0.3246
 7143W        W10887   1.313   5.190  11.221 -0.0165 -0.0760 -0.2084
 7144W        W10888   4.027   1.449   0.549 -0.1242 -0.4619  0.0207
 7145W        W10889   8.830   2.698   2.603  0.0808 -0.0405 -0.0115
 7146W        W10890   9.437   9.109  11.528 -0.1459  0.0603  0.1459
 7147W        W10891   7.535   6.838   3.828 -0.2318 -0.6811  0.0439
 7148W        W10892   4.946   1.758   2.882 -0.2936 -0.1306 -0.4371
 7149W        W10893   8.537   7.701   9.737  0.1899  0.0424 -0.2004
 7150W        W10894   4.489   1.624  10.679 -0.0101 -0.1914 -0.0373
 7151W        W10895   4.111   9.326   0.121 -0.2069 -0.4612 -0.1069
 7152W        W10896   0.052   6.863   2.764  0.2205 -0.0404 -0.4864
 7153W        W10897   3.602   2.047   2.459  0.0600  0.0339  0.0880
 7154W        W10898   0.029   5.467   4.505 -0.1465  0.2327  0.3737
 7155W        W10899   1.206   3.847  12.477  0.1246  0.1260 -0.3326
 7156W        W10900   1.265   6.706   1.464  0.0283 -0.1662  0.0605
 7157W        W10901   0.354   7.171   1.382  0.0287 -0.0256  0.2452
 7158W        W10902   6.664   5.791   1.395  0.2348 -0.1095  0.1267
 7159W        W10903   8.326   9.315   0.305 -0.1680  0.0069  0.1205
 7160W        W10904   8.614   1.135   8.429 -0.1251 -0.2240 -0.0498
 7161W        W10905   1.047   7.452   3.705  0.3016  0.0314  0.1061
 7162W        W10906   7.775   3.731   0.865 -0.5646 -0.3092 -0.0287
 7163W        W10907   8.185   7.247  10.065 -0.1539 -0.0700  0.3244
 7164W        W10908   5.256   1.339   3.419  0.0987  0.0781  0.1679
 7165W        W10909   0.003   4.980  11.131  0.1246 -0.0168  0.0264
 7166W        W10910   3.806   6.099  11.627  0.1278 -0.1784  0.0609
 7167W        W10911   6.152   5.991   2.266  0.4606 -0.0427 -0.2293
 7168W        W10912   2.122   1.864   1.287  0.0142  0.0107  0.1838
 7169W        W10913   5.318   4.460   3.924 -0.0765 -0.1970 -0.3360
 7170W        W10914   0.961   6.777   3.190  0.0471 -0.2665 -0.3153
 7171W        W10915   2.236   5.580  10.924  0.0727  0.4148 -0.0635
 7172W        W10916   3.399   6.644   1.693 -0.3106 -0.0875  0.0012
 7173W        W10917   6.651   3.744   9.959  0.0284  0.0742  0.0041
 7174W        W10918   5.998   8.288   9.064  0.0489 -0.1133  0.0211
 7175W        W10919   3.334   3.436  12.202  0.1126  0.4096 -0.1454
 7176W        W10920   9.079   6.333   3.325  0.0176 -0.2731 -0.0139
 7177W        W10921   6.416   7.533   1.891 -0.0603 -0.1618  0.0156
 7178W        W10922   6.646   6.532  11.808  0.2229  0.0532  0.2075
 7179W        W10923   2.689   5.086   0.808 -0.2656 -0.2875  0.0943
 7180W        W10924   5.290   4.046  11.728 -0.0500 -0.0810 -0.2117
 7181W        W10925   9.026   5.879   2.063  0.3377 -0.0815 -0.1223
 7182W        W10926   2.486   4.249   4.557 -0.0093  0.3587 -0.1008
 7183W        W10927   6.514   2.549  12.587  0.0980 -0.1385 -0.0325
 7184W        W10928   8.623   0.624  12.340 -0.0421 -0.2421 -0.0135
 7185W        W10929   6.397   8.917   9.866 -0.1265 -0.0681 -0.2222
 7186W        W10930   0.339   5.688   9.498 -0.0032  0.2039  0.3714
 7187W        W10931   5.253   7.268   8.775  0.1292  0.2234 -0.1144
 7188W        W10932   8.761   0.625   9.257 -0.0701 -0.0878 -0.3319
 7189W        W10933   5.356   7.120  11.840 -0.0729 -0.0725 -0.1426
 7190W        W10934   4.148   6.407   3.435  0.3755 -0.0938  0.0679
 7191W        W10935   1.462   1.192   2.169 -0.0022 -0.0274  0.0982
 7192W        W10936   2.515   9.288   1.607  0.0152 -0.0418 -0.4175
 7193W        W10937   4.150   7.984   0.392 -0.0070  0.0821  0.0460
 7194W        W10938   6.643   5.541  12.739  0.0413  0.1402  0.0667
 7195W        W10939   8.037   5.028  10.636  0.1249 -0.0179  0.2108
 7196W        W10940   0.097   6.326  12.246  0.2573 -0.2004  0.1393
 7197W        W10941   9.804   5.913   3.797 -0.0669  0.3101  0.0656
 7198W        W10942   6.860   2.038  12.659  0.3400  0.0559 -0.1629
 7199W        W10943   8.865   6.785  12.346  0.0331  0.0099  0.0119
 7200W        W10944   3.506   7.819  11.454  0.3608  0.1689 -0.1432
 7201W        W10945   2.905   3.058  11.977  0.0838  0.5272  0.0111
 7202W        W10946   1.049   6.810   0.554  0.0596  0.0374 -0.1598
 7203W        W10947   3.657   4.906  11.707  0.0741 -0.3171 -0.0122
 7204W        W10948   6.002   7.390   8.237  0.0396 -0.1883  0.0430
 7205W        W10949   0.146   3.463  11.224  0.2750 -0.1264 -0.0520
 7206W        W10950   0.803   2.274  11.513  0.0573 -0.1737  0.4882
 7207W        W10951   3.477   7.677   8.865  0.0560 -0.0584  0.1486
 7208W        W10952   5.772   6.935   2.167 -0.2519 -0.3246 -0.2377
 7209W        W10953   0.716   5.652   3.390 -0.0576  0.0846 -0.3642
 7210W        W10954   3.875   0.588   8.574  0.1185  0.1059  0.3766
 7211W        W10955   0.261   3.384   8.354  0.1892  0.1926  0.0955
 7212W        W10956   8.067   3.255   0.638  0.0404 -0.2623 -0.3999
 7213W        W10957   9.081   4.060   3.642 -0.1666 -0.0616 -0.0188
 7214W        W10958   7.180   5.683   1.725  0.0131 -0.1816  0.0498
 7215W        W10959   6.748   1.474   1.876 -0.1138  0.0327 -0.0203
 7216W        W10960   7.233   7.905  10.000 -0.1787 -0.0186  0.0165
 7217W        W10961   9.414   4.547   0.808 -0.1149 -0.0955 -0.0406
 7218W        W10962   0.306   7.663   1.719  0.2582 -0.2830  0.1348
 7219W        W10963   5.637   0.594   1.791 -0.0535 -0.0828 -0.0225
 7220W        W10964   7.986   5.983   8.806  0.2265  0.3919  0.1478
 7221W        W10965   9.474   9.174   8.948  0.0570  0.1916  0.2358
 7222W        W10966   7.784   7.168   0.216  0.0187  0.1375 -0.0401
 7223W        W10967   0.556   1.640   9.552  0.1199  0.0526 -0.0440
 7224W        W10968   5.770   5.682   3.690  0.1914  0.1745  0.0329
 7225W        W10969   6.424   8.390   3.938  0.4089  0.0655  0.0810
 7226W        W10970   5.106   5.788   3.086 -0.2146  0.1682  0.0030
 7227W        W10971   1.010   9.757  10.836  0.2517 -0.0465 -0.1992
 7228W        W10972   1.441   7.926   3.097  0.0352  0.4439 -0.0564
 7229W        W10973   3.191   1.920   4.139  0.1008 -0.0653  0.0070
 7230ION    NA+10974   4.628   2.749   1.851 -0.0759 -0.2487 -0.0199
 7231ION    NA+10975   2.330   8.069   3.656  0.0190 -0.0819 -0.0219
 7232ION    NA+10976   6.828   4.010  11.842 -0.0700 -0.1800  0.0717
 7233ION    NA+10977   6.810   4.108   3.215 -0.2163  0.1792  0.1825
 7234ION    NA+10978   1.853   9.883  12.343 -0.3618  0.0954 -0.1714
 7235ION    NA+10979   5.040   3.512   2.121 -0.1404  0.0714  0.4450
 7236ION    NA+10980   2.255   4.137   2.034 -0.0128 -0.1539 -0.3758
 7237ION    NA+10981   1.825   9.046  12.585  0.0787  0.0994  0.2338
 7238ION    NA+10982   4.066   8.683   0.472 -0.2043 -0.2951 -0.1818
 7239ION    NA+10983   4.873   1.340   8.294 -0.1282 -0.0006 -0.1852
 7240ION    NA+10984   4.399   4.483   4.407  0.1543 -0.4223 -0.2238
 7241ION    NA+10985   8.757   6.896   8.579 -0.2586 -0.0972  0.2217
 7242ION    NA+10986   5.691   8.523  11.389 -0.0430 -0.0220 -0.0802
 7243ION    NA+10987   1.532   2.228   1.826  0.5157  0.2468 -0.3615
 7244ION    NA+10988   0.514   1.912   0.478 -0.2396  0.1085  0.1920
 7245ION    NA+10989   7.901   3.055   2.928  0.2496  0.2986  0.2790
 7246ION    NA+10990   4.699   7.981   3.921  0.1351 -0.1618  0.1880
 7247ION    NA+10991   2.911   3.201   8.574 -0.2603  0.0963 -0.2188
 7248ION    NA+10992   4.085   7.636   2.293 -0.0475  0.1333  0.0766
 7249ION    NA+10993   0.767   7.539  10.343 -0.0087  0.1591 -0.1677
 7250ION    NA+10994   9.052   3.222  10.997  0.2128  0.3261  0.1108
 7251ION    NA+10995   5.157   6.991   0.043  0.0185  0.1659  0.0407
 7252ION    NA+10996   3.994   0.306   0.361 -0.2441 -0.1755 -0.1325
 7253ION    NA+10997   9.489   6.932   0.752  0.3497  0.0879  0.1066
 7254ION    NA+10998   7.991   8.414  11.997 -0.1024 -0.1921 -0.0769
 7255ION    NA+10999   0.889   3.190   8.494  0.1476  0.2342 -0.1495
 7256ION    NA+11000   6.265   1.376   9.240  0.0782 -0.2688 -0.1556
 7257ION    NA+11001   4.105   4.467   9.762 -0.0673  0.3585 -0.1315
 7258ION    NA+11002   1.216   5.409  12.647 -0.0740 -0.0897 -0.3222
 7259ION    NA+11003   8.994   0.568  12.683  0.1987  0.1141  0.0976
 7260ION    NA+11004   6.431   6.812   2.968 -0.0448 -0.0193  0.1848
 7261ION    NA+11005   2.061   5.692  10.430  0.3794 -0.2718 -0.1904
 7262ION    NA+11006   8.394   4.707  10.835  0.0274  0.1254 -0.0811
 7263ION    NA+11007   5.310   5.379  11.630  0.3122 -0.0212  0.0945
 7264ION    NA+11008   8.082   8.786   1.181  0.1487 -0.1202 -0.1060
 7265ION    NA+11009   2.538   6.307   2.504 -0.0744 -0.0627  0.1125
 7266ION    NA+11010   8.524   4.330  11.630 -0.0821  0.2431  0.3063
 7267ION    NA+11011   3.645   8.417  12.100 -0.1306  0.0194  0.1827
 7268ION    NA+11012   3.964   6.776   3.144  0.2274 -0.1025 -0.2999
 7269ION    NA+11013   4.478   8.846  12.097  0.0766 -0.0042  0.3822
 7270ION    NA+11014   1.959   5.318   3.618  0.2894 -0.2355 -0.0608
 7271ION    NA+11015   8.419   7.544   1.703  0.2926 -0.0438 -0.0917
 7272ION    NA+11016   2.314   6.902  11.603  0.0165  0.1124 -0.0185
 7273ION    NA+11017   3.724   2.596   0.499  0.1337 -0.0993  0.1446
 7274ION    NA+11018   1.751   0.891  12.758 -0.0253 -0.0682  0.1042
 7275ION    NA+11019   5.554   1.450   9.870  0.0476 -0.1800 -0.5215
 7276ION    NA+11020   3.042   4.549   5.278  0.0631  0.2831 -0.1685
 7277ION    NA+11021   9.906   3.165   1.716  0.4142 -0.0753  0.0494
 7278ION    NA+11022   0.154   0.826  12.658 -0.1941  0.0787  0.0045
 7279ION    NA+11023   0.651   9.162   8.909 -0.0105  0.1424 -0.0437
 7280ION    NA+11024   2.539   7.818  11.001 -0.2973  0.0633 -0.2557
 7281ION    NA+11025   5.313   6.112   0.567  0.0918 -0.6415  0.2483
 7282ION    NA+11026   7.082   9.639   8.030 -0.1273  0.0491 -0.2246
 7283ION    NA+11027   4.708   1.617  11.704  0.2423  0.1593 -0.0013
 7284ION    NA+11028   9.694   7.870  11.688 -0.1982  0.1180 -0.2167
 7285ION    NA+11029   6.328   4.968   2.249 -0.2176 -0.2431 -0.0082
 7286ION    NA+11030   3.219   7.389  10.830  0.2356 -0.1564 -0.0828
 7287ION    NA+11031   0.746   8.733  12.242 -0.0376 -0.1788 -0.2854
 7288ION    NA+11032   5.353   9.465   4.484 -0.0176  0.0596  0.0779
 7289ION    NA+11033   9.311   4.457   1.970  0.3282  0.0942  0.0613
 7290ION    NA+11034   7.975   6.847   1.984 -0.0981 -0.1483  0.3622
 7291ION    NA+11035   2.687   9.890   3.247 -0.0623 -0.1547  0.0156
 7292ION    NA+11036   8.815   0.926   3.746 -0.0724 -0.0496  0.1367
 7293ION    NA+11037   7.367   8.461  12.644  0.0859  0.0561 -0.0941
 7294ION    NA+11038   4.892   5.015  10.248  0.2479  0.1091 -0.0302
 7295ION    NA+11039   6.662   0.028   0.829  0.3573 -0.0830 -0.1464
 7296ION    NA+11040   1.384   9.818  10.356 -0.0263 -0.0119 -0.1478
 7297ION    NA+11041   1.617   2.311  11.599  0.0632 -0.0691 -0.0866
 7298ION    NA+11042   2.972   4.223   0.161 -0.3703  0.1488 -0.0338
 7299ION    NA+11043   8.726   7.972   0.963 -0.0869  0.0826  0.0236
 7300ION    NA+11044   0.818   6.580  10.153  0.2657 -0.3363  0.2602
 7301ION    NA+11045   6.901   4.447   1.479  0.0548 -0.1507  0.2943
 7302ION    NA+11046   9.843   6.647   8.785  0.0408 -0.2149 -0.0373
 7303ION    NA+11047   0.126   3.853   9.279 -0.2641  0.0082 -0.2274
 7304ION    NA+11048   9.586   2.513   4.165 -0.0757 -0.2419  0.4349
 7305ION    NA+11049   1.744   3.806  12.733 -0.0390  0.3115 -0.1234
 7306ION    CL-11050   4.490   4.786   9.996 -0.1312 -0.2556 -0.4889
 7307ION    CL-11051   7.515   0.642   9.553  0.0608 -0.0615 -0.1833
 7308ION    CL-11052   6.678   9.782   9.039  0.0533  0.0969  0.1235
 7309ION    CL-11053   2.226   8.455   3.154  0.0667 -0.1854  0.5309
 7310ION    CL-11054   8.954   4.182  11.956 -0.0919  0.1198  0.2808
 7311ION    CL-11055   9.341   1.588  11.393 -0.0390 -0.0228 -0.3931
 7312ION    CL-11056   5.969   3.166   9.821 -0.2577  0.4872  0.3181
 7313ION    CL-11057   1.829   5.171  10.612 -0.2946 -0.4264 -0.1743
 7314ION    CL-11058   0.753   8.262  12.247  0.0118 -0.0125 -0.2491
 7315ION    CL-11059   9.470   9.807   9.536 -0.1124 -0.1092 -0.5813
 7316ION    CL-11060   6.867   3.610  12.184  0.0645 -0.0108 -0.3348
 7317ION    CL-11061   1.230   7.220  11.162  0.1265  0.2372 -0.0405
 7318ION    CL-11062   2.106   4.390   9.918 -0.1441  0.1838 -0.1254
 7319ION    CL-11063   1.697   0.420  12.360 -0.2891 -0.2547 -0.1016
 7320ION    CL-11064   3.787   7.226   3.029 -0.1200 -0.0928 -0.2367
 7321ION    CL-11065   1.791   5.407   4.355 -0.0325  0.1934 -0.2330
 7322ION    CL-11066   9.621   3.360   3.759 -0.0425 -0.3797 -0.1426
 7323ION    CL-11067   4.004   3.003   0.456  0.0213 -0.0232 -0.3323
 7324ION    CL-11068   0.892   5.550   0.736  0.0450 -0.2723 -0.0895
 7325ION    CL-11069   8.254   0.967   3.607  0.2348 -0.1400 -0.0898
 7326ION    CL-11070   7.967   8.387  12.721 -0.0803  0.0511 -0.4724
 7327ION    CL-11071   6.245   6.794   3.444  0.1545  0.0221  0.1499
 7328ION    CL-11072   5.064   2.949  11.897 -0.0328  0.2426 -0.1367
 7329ION    CL-11073   9.571   8.380  11.856  0.3773 -0.0049 -0.0101
 7330ION    CL-11074   9.700   0.724   0.098  0.3583  0.1108 -0.0961
 7331ION    CL-11075   4.234   3.352   3.103 -0.0176  0.1641  0.0707
 7332ION    CL-11076   0.032   9.142   2.827 -0.1106  0.0103  0.0141
 7333ION    CL-11077   1.425   4.683   4.220 -0.1153 -0.0716 -0.0842
 7334ION    CL-11078   0.204   5.475   2.939 -0.1223  0.2087  0.0575
 7335ION    CL-11079   6.694   4.691   1.800 -0.1378  0.0113 -0.1954
 7336ION    CL-11080   8.773   7.768   3.309 -0.1995  0.0811 -0.1831
 7337ION    CL-11081   2.812   7.360  11.110 -0.1355  0.0285  0.0566
 7338ION    CL-11082   2.042   6.128  10.081 -0.0253  0.1029  0.1356
 7339ION    CL-11083   4.717   3.169   2.209 -0.2204 -0.0777 -0.1767
 7340ION    CL-11084   1.745   9.529  12.745  0.0069 -0.0381 -0.1761
 7341ION    CL-11085   9.803   3.896   9.922  0.0866 -0.3668  0.2412
 7342ION    CL-11086   1.569   1.024  10.037  0.1458  0.4294  0.2663
 7343ION    CL-11087   1.908   4.221   2.391 -0.1865 -0.0114 -0.2126
 7344ION    CL-11088   8.662   0.482  11.351 -0.1830 -0.1794  0.2366
 7345ION    CL-11089   9.567   2.440   9.119  0.0077  0.0065  0.2812
 7346ION    CL-11090   6.103   5.131   2.730 -0.0180 -0.0827  0.3242
 7347ION    CL-11091   5.732   1.901  10.021 -0.3246 -0.2541 -0.3027
 7348ION    CL-11092   4.588   1.156  11.403 -0.0827 -0.0050  0.0233
 7349ION    CL-11093   9.101   7.528   0.878 -0.1024  0.0470 -0.0500
 7350ION    CL-11094   1.085   3.543   9.194  0.0675  0.4041  0.0465
 7351ION    CL-11095   4.590   1.681   3.247 -0.0269  0.4541 -0.1689
 7352ION    CL-11096   9.519   6.425   0.479 -0.0431  0.1517 -0.2180
 7353ION    CL-11097   5.792   1.348   9.434 -0.0095  0.1989 -0.1385
 7354ION    CL-11098   6.089   0.058   0.743  0.0610 -0.2367 -0.3777
 7355ION    CL-11099   6.283   1.777   8.995 -0.1460 -0.0316 -0.0834
 7356ION    CL-11100   3.477   7.030   9.424 -0.0837 -0.2220 -0.0922
 7357ION    CL-11101   3.054   4.461   2.346 -0.1151 -0.0275 -0.1089
 7358ION    CL-11102   0.533   4.196   9.374 -0.0731 -0.0375 -0.0163
 7359ION    CL-11103   5.216   5.237  11.121  0.0500 -0.0230  0.2001
 7360ION    CL-11104   0.281   8.968  12.318 -0.1389  0.1399 -0.0002
 7361ION    CL-11105   8.358   7.116   1.925 -0.1527 -0.0451  0.2130
 7362ION    CL-11106   2.545   3.902   0.250 -0.2550  0.0803 -0.1216
 7363ION    CL-11107   3.869   6.941   3.573 -0.3733  0.0733  0.3094
 7364ION    CL-11108   3.932   4.541   9.240 -0.3598  0.1276  0.0653
 7365ION    CL-11109   8.709   4.486  11.130 -0.0791  0.2244  0.0025
 7366ION    CL-11110   8.999   4.285   9.876  0.1635 -0.1356  0.0411
 7367ION    CL-11111   5.149   5.276   9.545  0.2293 -0.1853 -0.1234
 7368ION    CL-11112   8.966   8.934   3.034  0.1944 -0.1756  0.1599
 7369ION    CL-11113   8.168   4.366  11.142 -0.0002 -0.3123  0.0743
 7370ION    CL-11114   7.566   8.641  12.169  0.0471  0.3083  0.0372
 7371ION    CL-11115   1.768   9.577  10.507 -0.1740  0.4681  0.0980
 7372ION    CL-11116   6.884   4.317   3.679  0.2707 -0.3904  0.0939
 7373ION    CL-11117   3.282   3.970   0.452 -0.0323 -0.1755  0.0987
 7374ION    CL-11118   5.447   8.038  11.378 -0.1110 -0.1139  0.1314
 7375ION    CL-11119   1.357   3.355   0.651  0.0339 -0.0275  0.0438
 7376ION    CL-11120   2.598   6.740   2.245  0.0581 -0.3825 -0.0990
 7377ION    CL-11121   7.926   6.583   3.812 -0.3522  0.0426  0.0447
 7378ION    CL-11122   5.714   3.759   3.760  0.2769  0.2094  0.1723
 7379ION    CL-11123   0.237   3.761   8.843 -0.1003 -0.2461  0.1897
 7380ION    CL-11124   3.881   8.899  12.249 -0.1598  0.0472  0.2336
 7381ION    CL-11125   0.966   7.163   0.177 -0.2357 -0.2076  0.0667
   9.93491   9.93491  12.86014
