Protein in INSANE! Membrane UpperLeaflet>POPC=1.0 LowerLeaflet>POPC=1.0
12914
    1AU     AUC    1   5.750   5.818   6.000
    1AU     AUC    2   6.045   5.818   5.833
    1AU     AUC    3   6.007   5.807   6.171
    1AU     AUC    4   5.477   5.807   5.838
    1AU     AUC    5   5.484   5.855   6.182
    1AU     AUC    6   5.583   6.090   5.999
    1AU     AUC    7   5.931   6.083   5.988
    1AU     AUC    8   5.558   5.549   6.002
    1AU     AUC    9   5.915   5.547   6.006
    1AU     AUC   10   5.752   5.642   6.266
    1AU     AUC   11   5.742   6.009   6.254
    1AU     AUC   12   5.750   5.656   5.733
    1AU     AUC   13   5.781   5.969   5.728
    1AU     AUC   14   6.381   5.814   5.683
    1AU     AUC   15   6.369   5.798   6.021
    1AU     AUC   16   6.301   5.783   6.374
    1AU     AUC   17   5.160   5.815   5.673
    1AU     AUC   18   5.140   5.855   6.035
    1AU     AUC   19   5.194   5.897   6.367
    1AU     AUC   20   5.430   6.414   5.967
    1AU     AUC   21   5.782   6.436   5.943
    1AU     AUC   22   6.105   6.375   5.975
    1AU     AUC   23   5.359   5.267   5.998
    1AU     AUC   24   5.689   5.209   5.965
    1AU     AUC   25   6.079   5.224   5.983
    1AU     AUC   26   5.732   5.466   6.561
    1AU     AUC   27   5.747   5.825   6.598
    1AU     AUC   28   5.775   6.184   6.545
    1AU     AUC   29   5.781   5.488   5.447
    1AU     AUC   30   5.771   5.798   5.390
    1AU     AUC   31   5.776   6.116   5.422
    1AU     AUC   32   6.020   5.581   6.493
    1AU     AUC   33   6.046   5.966   6.495
    1AU     AUC   34   6.100   5.641   5.522
    1AU     AUC   35   6.102   5.988   5.535
    1AU     AUC   36   5.448   5.703   6.515
    1AU     AUC   37   5.472   6.077   6.484
    1AU     AUC   38   5.450   5.639   5.545
    1AU     AUC   39   5.433   5.947   5.497
    1AU     AUC   40   6.292   6.098   5.833
    1AU     AUC   41   6.218   6.079   6.197
    1AU     AUC   42   5.261   6.120   5.837
    1AU     AUC   43   5.289   6.189   6.183
    1AU     AUC   44   6.257   5.502   5.852
    1AU     AUC   45   6.208   5.475   6.179
    1AU     AUC   46   5.216   5.527   5.870
    1AU     AUC   47   5.274   5.577   6.217
    1AU     AUC   48   5.609   6.360   6.251
    1AU     AUC   49   5.939   6.305   6.268
    1AU     AUC   50   5.549   5.357   6.288
    1AU     AUC   51   5.874   5.296   6.265
    1AU     AUC   52   5.581   6.245   5.685
    1AU     AUC   53   5.968   6.267   5.663
    1AU     AUC   54   5.539   5.339   5.710
    1AU     AUC   55   5.929   5.368   5.715
    1AU    AUSL   56   6.287   5.708   6.746
    1AU    AUSL   57   6.024   5.285   6.657
    1AU     AUL   58   6.320   5.307   6.857
    1AU       S   59   6.377   4.944   6.588
    1AU     LIG   60   6.253   4.783   6.953
    1AU     LIG   61   6.396   4.419   7.153
    1AU     LIG   62   6.634   4.129   7.402
    1AU     LIG   63   6.852   3.966   7.780
    1AU     LIG   64   6.919   3.666   8.128
    1AU       S   65   6.513   5.717   6.864
    1AU     LIG   66   6.381   5.705   7.311
    1AU     LIG   67   6.555   5.566   7.736
    1AU     LIG   68   6.844   5.434   8.106
    1AU     LIG   69   7.230   5.492   8.409
    1AU     LIG   70   7.505   5.610   8.785
    1AU    AUSL   71   5.874   5.614   6.908
    1AU    AUSL   72   5.621   6.011   6.938
    1AU     AUL   73   5.809   5.910   7.246
    1AU       S   74   5.979   5.535   7.057
    1AU     LIG   75   5.931   5.457   7.483
    1AU     LIG   76   6.161   5.244   7.833
    1AU     LIG   77   6.423   5.081   8.198
    1AU     LIG   78   6.445   4.859   8.626
    1AU     LIG   79   6.467   4.884   9.097
    1AU       S   80   5.399   5.744   7.132
    1AU     LIG   81   5.478   5.726   7.604
    1AU     LIG   82   5.213   5.658   7.983
    1AU     LIG   83   5.040   5.701   8.418
    1AU     LIG   84   5.098   5.975   8.819
    1AU     LIG   85   5.047   6.062   9.282
    1AU    AUSL   86   5.941   5.992   6.658
    1AU    AUSL   87   6.382   6.118   6.621
    1AU     AUL   88   6.170   6.009   6.953
    1AU       S   89   5.849   6.370   7.115
    1AU     LIG   90   6.194   6.240   7.406
    1AU     LIG   91   6.404   6.392   7.815
    1AU     LIG   92   6.369   6.491   8.303
    1AU     LIG   93   6.391   6.670   8.751
    1AU     LIG   94   6.665   6.740   9.125
    1AU       S   95   6.530   6.263   6.788
    1AU     LIG   96   6.956   6.273   6.843
    1AU     LIG   97   7.243   6.463   7.162
    1AU     LIG   98   7.461   6.667   7.532
    1AU     LIG   99   7.786   6.723   7.882
    1AU     LIG  100   8.222   6.858   8.034
    1AU    AUSL  101   6.289   5.855   5.387
    1AU    AUSL  102   6.183   6.291   5.324
    1AU     AUL  103   6.458   6.104   5.125
    1AU       S  104   6.122   6.020   4.840
    1AU     LIG  105   6.557   6.016   4.570
    1AU     LIG  106   6.702   5.737   4.224
    1AU     LIG  107   6.838   5.517   3.828
    1AU     LIG  108   7.204   5.416   3.537
    1AU     LIG  109   7.629   5.458   3.313
    1AU       S  110   6.507   6.534   5.323
    1AU     LIG  111   6.698   6.664   4.920
    1AU     LIG  112   6.938   6.826   4.535
    1AU     LIG  113   7.214   6.967   4.185
    1AU     LIG  114   7.449   7.085   3.799
    1AU     LIG  115   7.662   7.411   3.524
    1AU    AUSL  116   6.080   5.603   5.085
    1AU    AUSL  117   6.497   5.477   5.428
    1AU     AUL  118   6.457   5.635   5.151
    1AU       S  119   6.569   5.172   5.198
    1AU     LIG  120   6.678   4.800   4.894
    1AU     LIG  121   6.924   4.413   4.840
    1AU     LIG  122   7.221   4.196   4.554
    1AU     LIG  123   7.551   4.289   4.215
    1AU     LIG  124   8.007   4.402   4.092
    1AU       S  125   6.194   5.826   4.819
    1AU     LIG  126   6.304   5.519   4.519
    1AU     LIG  127   6.412   5.328   4.084
    1AU     LIG  128   6.429   5.249   3.611
    1AU     LIG  129   6.484   5.021   3.192
    1AU     LIG  130   6.715   4.903   2.785
    1AU    AUSL  131   5.888   5.974   5.257
    1AU    AUSL  132   5.655   5.590   5.201
    1AU     AUL  133   5.804   5.625   4.939
    1AU       S  134   5.358   5.648   4.784
    1AU     LIG  135   5.412   5.466   4.394
    1AU     LIG  136   5.164   5.196   4.104
    1AU     LIG  137   4.940   5.158   3.697
    1AU     LIG  138   4.955   4.963   3.258
    1AU     LIG  139   4.927   4.968   2.782
    1AU       S  140   5.969   6.079   4.949
    1AU     LIG  141   5.856   5.859   4.460
    1AU     LIG  142   6.185   5.795   4.090
    1AU     LIG  143   6.402   5.767   3.649
    1AU     LIG  144   6.475   5.860   3.169
    1AU     LIG  145   6.471   6.148   2.778
    1AU    AUSL  146   5.218   5.969   6.753
    1AU    AUSL  147   5.532   6.306   6.629
    1AU     AUL  148   5.384   6.247   6.959
    1AU       S  149   5.216   5.863   7.192
    1AU     LIG  150   5.007   5.550   7.457
    1AU     LIG  151   4.761   5.438   7.858
    1AU     LIG  152   4.551   5.353   8.286
    1AU     LIG  153   4.139   5.364   8.542
    1AU     LIG  154   3.842   5.571   8.857
    1AU       S  155   5.128   6.566   6.722
    1AU     LIG  156   5.087   6.730   7.152
    1AU     LIG  157   4.935   6.945   7.548
    1AU     LIG  158   4.823   7.311   7.825
    1AU     LIG  159   4.655   7.435   8.258
    1AU     LIG  160   4.548   7.630   8.688
    1AU    AUSL  161   5.526   5.673   6.659
    1AU    AUSL  162   5.097   5.547   6.648
    1AU     AUL  163   5.022   5.770   6.784
    1AU       S  164   4.992   5.309   6.906
    1AU     LIG  165   4.573   4.995   6.923
    1AU     LIG  166   4.187   4.755   6.977
    1AU     LIG  167   3.889   4.528   7.245
    1AU     LIG  168   3.716   4.319   7.626
    1AU     LIG  169   3.338   4.309   7.930
    1AU       S  170   5.403   5.606   7.050
    1AU     LIG  171   5.444   5.280   7.375
    1AU     LIG  172   5.225   5.187   7.776
    1AU     LIG  173   5.044   5.191   8.215
    1AU     LIG  174   4.863   4.989   8.602
    1AU     LIG  175   4.911   4.925   9.070
    1AU    AUSL  176   5.248   5.733   5.280
    1AU    AUSL  177   5.441   5.359   5.492
    1AU     AUL  178   5.416   5.362   5.141
    1AU       S  179   5.126   5.639   4.905
    1AU     LIG  180   4.912   5.548   4.501
    1AU     LIG  181   4.701   5.430   4.111
    1AU     LIG  182   4.581   5.575   3.697
    1AU     LIG  183   4.246   5.611   3.356
    1AU     LIG  184   3.911   5.648   3.004
    1AU       S  185   5.008   5.205   5.291
    1AU     LIG  186   4.756   4.837   5.138
    1AU     LIG  187   4.505   4.513   4.910
    1AU     LIG  188   4.298   4.242   4.583
    1AU     LIG  189   4.251   4.068   4.146
    1AU     LIG  190   4.272   3.868   3.718
    1AU    AUSL  191   5.515   6.014   5.049
    1AU    AUSL  192   5.020   6.085   5.419
    1AU     AUL  193   5.149   6.055   5.097
    1AU       S  194   4.750   6.259   5.259
    1AU     LIG  195   4.551   6.534   4.924
    1AU     LIG  196   4.572   6.655   4.476
    1AU     LIG  197   4.336   6.771   4.082
    1AU     LIG  198   3.927   6.869   3.851
    1AU     LIG  199   3.592   7.173   3.731
    1AU       S  200   5.446   5.892   4.776
    1AU     LIG  201   5.213   5.953   4.392
    1AU     LIG  202   5.128   5.702   4.010
    1AU     LIG  203   5.075   5.653   3.555
    1AU     LIG  204   5.111   5.824   3.115
    1AU     LIG  205   4.893   5.963   2.719
    1AU    AUSL  206   6.534   6.331   6.026
    1AU    AUSL  207   6.532   6.141   5.603
    1AU     AUL  208   6.812   6.459   5.861
    1AU       S  209   6.624   6.327   5.483
    1AU     LIG  210   6.943   6.283   5.172
    1AU     LIG  211   7.153   6.424   4.781
    1AU     LIG  212   7.453   6.700   4.548
    1AU     LIG  213   7.728   6.870   4.189
    1AU     LIG  214   7.959   7.168   3.891
    1AU       S  215   6.931   6.209   6.243
    1AU     LIG  216   7.372   6.350   6.105
    1AU     LIG  217   7.847   6.447   6.031
    1AU     LIG  218   8.284   6.619   6.040
    1AU     LIG  219   8.588   6.927   6.201
    1AU     LIG  220   8.751   7.310   6.431
    1AU    AUSL  221   6.747   5.925   5.912
    1AU    AUSL  222   6.682   5.593   6.230
    1AU     AUL  223   7.042   5.700   6.244
    1AU       S  224   6.880   6.013   5.964
    1AU     LIG  225   7.343   5.891   5.891
    1AU     LIG  226   7.832   5.978   5.826
    1AU     LIG  227   8.284   6.167   5.747
    1AU     LIG  228   8.731   6.273   5.539
    1AU     LIG  229   9.106   6.363   5.270
    1AU       S  230   6.944   5.291   6.060
    1AU     LIG  231   7.347   5.063   6.185
    1AU     LIG  232   7.771   4.840   6.257
    1AU     LIG  233   8.231   4.678   6.263
    1AU     LIG  234   8.690   4.838   6.313
    1AU     LIG  235   9.143   4.752   6.475
    1AU    AUSL  236   6.442   5.951   6.235
    1AU    AUSL  237   6.186   6.336   6.288
    1AU     AUL  238   6.514   6.397   6.333
    1AU       S  239   6.507   6.565   6.761
    1AU     LIG  240   6.884   6.779   6.949
    1AU     LIG  241   7.232   7.001   7.183
    1AU     LIG  242   7.400   7.415   7.364
    1AU     LIG  243   7.580   7.870   7.379
    1AU     LIG  244   7.924   8.152   7.558
    1AU       S  245   6.783   6.037   6.390
    1AU     LIG  246   7.296   6.030   6.513
    1AU     LIG  247   7.750   6.040   6.335
    1AU     LIG  248   8.233   6.167   6.288
    1AU     LIG  249   8.571   6.477   6.492
    1AU     LIG  250   9.001   6.606   6.663
    1AU    AUSL  251   5.112   6.413   6.003
    1AU    AUSL  252   5.171   6.197   6.394
    1AU     AUL  253   4.879   6.532   6.236
    1AU       S  254   5.020   6.364   6.641
    1AU     LIG  255   4.883   6.255   7.068
    1AU     LIG  256   4.692   6.493   7.442
    1AU     LIG  257   4.404   6.677   7.791
    1AU     LIG  258   4.048   6.763   8.115
    1AU     LIG  259   3.691   6.985   8.346
    1AU       S  260   5.128   6.794   5.927
    1AU     LIG  261   4.672   6.812   5.840
    1AU     LIG  262   4.248   7.048   5.917
    1AU     LIG  263   3.831   7.312   5.951
    1AU     LIG  264   3.389   7.532   5.929
    1AU     LIG  265   2.980   7.796   5.963
    1AU    AUSL  266   5.066   6.005   5.831
    1AU    AUSL  267   5.186   6.467   5.582
    1AU     AUL  268   4.891   6.362   5.701
    1AU       S  269   4.675   5.788   5.459
    1AU     LIG  270   4.260   6.018   5.497
    1AU     LIG  271   3.846   6.182   5.298
    1AU     LIG  272   3.370   6.210   5.419
    1AU     LIG  273   2.977   6.498   5.387
    1AU     LIG  274   2.607   6.665   5.137
    1AU       S  275   5.026   6.715   5.398
    1AU     LIG  276   5.003   6.990   4.991
    1AU     LIG  277   4.954   7.424   4.750
    1AU     LIG  278   4.800   7.897   4.665
    1AU     LIG  279   4.471   8.250   4.546
    1AU     LIG  280   4.079   8.546   4.496
    1AU    AUSL  281   4.815   6.077   6.191
    1AU    AUSL  282   4.774   5.700   5.908
    1AU     AUL  283   4.659   6.008   5.887
    1AU       S  284   4.569   5.629   6.167
    1AU     LIG  285   4.279   5.568   5.763
    1AU     LIG  286   3.906   5.305   5.631
    1AU     LIG  287   3.448   5.166   5.596
    1AU     LIG  288   2.966   5.127   5.710
    1AU     LIG  289   2.519   5.055   5.559
    1AU       S  290   4.677   6.108   6.393
    1AU     LIG  291   4.195   6.118   6.479
    1AU     LIG  292   3.746   6.181   6.689
    1AU     LIG  293   3.362   6.459   6.786
    1AU     LIG  294   2.882   6.420   6.745
    1AU     LIG  295   2.417   6.546   6.649
    1AU    AUSL  296   6.475   5.236   6.054
    1AU    AUSL  297   6.285   5.499   6.374
    1AU     AUL  298   6.610   5.394   6.453
    1AU       S  299   6.767   5.133   6.078
    1AU     LIG  300   6.979   4.762   5.974
    1AU     LIG  301   7.383   4.545   6.051
    1AU     LIG  302   7.828   4.375   6.042
    1AU     LIG  303   8.204   4.120   6.193
    1AU     LIG  304   8.446   3.760   6.406
    1AU       S  305   6.496   4.954   6.462
    1AU     LIG  306   6.731   4.650   6.762
    1AU     LIG  307   6.930   4.411   7.094
    1AU     LIG  308   7.162   4.168   7.415
    1AU     LIG  309   7.470   4.153   7.774
    1AU     LIG  310   7.878   4.150   8.025
    1AU    AUSL  311   6.461   5.616   5.830
    1AU    AUSL  312   6.335   5.125   5.655
    1AU     AUL  313   6.606   5.269   5.669
    1AU       S  314   6.952   5.487   5.840
    1AU     LIG  315   7.241   5.120   5.687
    1AU     LIG  316   7.658   4.864   5.754
    1AU     LIG  317   8.128   4.695   5.763
    1AU     LIG  318   8.626   4.667   5.752
    1AU     LIG  319   8.997   4.731   5.449
    1AU       S  320   6.526   4.930   5.347
    1AU     LIG  321   6.445   4.453   5.349
    1AU     LIG  322   6.696   4.083   5.166
    1AU     LIG  323   6.944   3.839   4.858
    1AU     LIG  324   7.308   3.528   4.781
    1AU     LIG  325   7.664   3.196   4.688
    1AU    AUSL  326   4.962   5.327   6.069
    1AU    AUSL  327   5.082   5.562   5.641
    1AU     AUL  328   4.738   5.401   5.781
    1AU       S  329   4.952   5.380   5.371
    1AU     LIG  330   4.490   5.215   5.385
    1AU     LIG  331   4.222   4.905   5.121
    1AU     LIG  332   3.999   4.620   4.782
    1AU     LIG  333   3.794   4.317   4.452
    1AU     LIG  334   3.444   4.152   4.150
    1AU       S  335   4.531   5.384   6.208
    1AU     LIG  336   4.305   5.078   5.916
    1AU     LIG  337   3.872   4.849   5.879
    1AU     LIG  338   3.392   4.807   5.996
    1AU     LIG  339   3.049   4.598   6.271
    1AU     LIG  340   2.624   4.384   6.381
    1AU    AUSL  341   5.049   5.722   6.260
    1AU    AUSL  342   5.303   5.329   6.332
    1AU     AUL  343   4.948   5.324   6.410
    1AU       S  344   5.026   5.105   6.807
    1AU     LIG  345   4.845   4.800   6.522
    1AU     LIG  346   4.485   4.501   6.621
    1AU     LIG  347   4.175   4.242   6.905
    1AU     LIG  348   3.866   4.005   7.204
    1AU     LIG  349   3.533   3.644   7.264
    1AU       S  350   4.607   5.639   6.354
    1AU     LIG  351   4.084   5.708   6.204
    1AU     LIG  352   3.673   5.593   5.991
    1AU     LIG  353   3.331   5.317   6.059
    1AU     LIG  354   2.961   5.104   6.219
    1AU     LIG  355   2.645   4.901   6.461
    1AU    AUSL  356   5.797   6.558   6.393
    1AU    AUSL  357   5.362   6.584   6.318
    1AU     AUL  358   5.597   6.630   6.687
    1AU       S  359   5.234   6.778   6.430
    1AU     LIG  360   5.060   7.071   6.752
    1AU     LIG  361   4.929   7.285   7.156
    1AU     LIG  362   4.740   7.644   7.403
    1AU     LIG  363   4.443   8.026   7.436
    1AU     LIG  364   4.080   8.337   7.523
    1AU       S  365   5.792   6.971   6.442
    1AU     LIG  366   5.875   7.108   6.840
    1AU     LIG  367   5.940   7.557   6.988
    1AU     LIG  368   5.926   7.870   7.361
    1AU     LIG  369   6.001   8.122   7.782
    1AU     LIG  370   5.961   8.506   8.078
    1AU    AUSL  371   5.633   6.780   6.039
    1AU    AUSL  372   5.927   6.707   5.678
    1AU     AUL  373   5.860   7.047   5.824
    1AU       S  374   5.636   7.010   6.246
    1AU     LIG  375   5.658   7.449   6.506
    1AU     LIG  376   5.561   7.869   6.739
    1AU     LIG  377   5.435   8.331   6.841
    1AU     LIG  378   5.362   8.821   6.888
    1AU     LIG  379   5.385   9.287   6.765
    1AU       S  380   5.650   6.878   5.453
    1AU     LIG  381   6.016   7.193   5.368
    1AU     LIG  382   6.190   7.652   5.321
    1AU     LIG  383   6.484   8.050   5.265
    1AU     LIG  384   6.707   8.485   5.228
    1AU     LIG  385   6.663   8.944   5.136
    1AU    AUSL  386   6.087   6.701   6.089
    1AU    AUSL  387   6.044   6.403   6.707
    1AU     AUL  388   6.147   6.668   6.474
    1AU       S  389   6.284   6.491   6.915
    1AU     LIG  390   6.637   6.447   7.251
    1AU     LIG  391   6.932   6.711   7.497
    1AU     LIG  392   7.172   7.069   7.699
    1AU     LIG  393   7.241   7.392   8.038
    1AU     LIG  394   7.280   7.577   8.477
    1AU       S  395   5.994   7.055   6.270
    1AU     LIG  396   6.182   7.389   6.539
    1AU     LIG  397   6.388   7.790   6.703
    1AU     LIG  398   6.736   8.139   6.702
    1AU     LIG  399   6.896   8.594   6.746
    1AU     LIG  400   6.843   9.021   6.921
    1AU    AUSL  401   5.694   5.128   6.416
    1AU    AUSL  402   6.109   5.116   6.251
    1AU     AUL  403   5.916   4.987   6.634
    1AU       S  404   5.657   4.639   6.486
    1AU     LIG  405   5.515   4.499   6.863
    1AU     LIG  406   5.419   4.055   6.901
    1AU     LIG  407   5.501   3.598   6.953
    1AU     LIG  408   5.524   3.316   7.348
    1AU     LIG  409   5.519   3.243   7.839
    1AU       S  410   6.263   4.887   6.312
    1AU     LIG  411   6.286   4.453   6.541
    1AU     LIG  412   6.599   4.145   6.777
    1AU     LIG  413   6.925   3.887   7.030
    1AU     LIG  414   7.051   3.433   7.151
    1AU     LIG  415   7.375   3.101   7.335
    1AU    AUSL  416   5.373   4.959   6.137
    1AU    AUSL  417   5.471   5.264   6.753
    1AU     AUL  418   5.346   4.998   6.495
    1AU       S  419   5.483   4.577   6.346
    1AU     LIG  420   5.148   4.351   6.535
    1AU     LIG  421   5.098   3.888   6.537
    1AU     LIG  422   5.131   3.426   6.593
    1AU     LIG  423   4.929   2.991   6.620
    1AU     LIG  424   4.898   2.672   6.951
    1AU       S  425   5.258   5.139   6.942
    1AU     LIG  426   5.028   4.661   6.991
    1AU     LIG  427   4.605   4.475   7.120
    1AU     LIG  428   4.290   4.256   7.414
    1AU     LIG  429   4.138   4.076   7.829
    1AU     LIG  430   4.203   3.890   8.272
    1AU    AUSL  431   5.809   4.850   6.093
    1AU    AUSL  432   5.556   4.978   5.738
    1AU     AUL  433   5.440   4.717   5.907
    1AU       S  434   5.808   4.701   5.625
    1AU     LIG  435   5.547   4.311   5.589
    1AU     LIG  436   5.338   3.877   5.473
    1AU     LIG  437   5.131   3.434   5.430
    1AU     LIG  438   4.909   2.991   5.386
    1AU     LIG  439   4.778   2.612   5.107
    1AU       S  440   5.807   4.673   6.236
    1AU     LIG  441   5.839   4.211   6.234
    1AU     LIG  442   5.771   3.831   6.533
    1AU     LIG  443   6.019   3.447   6.724
    1AU     LIG  444   6.166   2.982   6.786
    1AU     LIG  445   6.124   2.479   6.753
    1AU    AUSL  446   5.768   6.431   5.352
    1AU    AUSL  447   6.203   6.391   5.751
    1AU     AUL  448   6.060   6.622   5.377
    1AU       S  449   5.661   6.833   5.230
    1AU     LIG  450   5.670   7.208   4.982
    1AU     LIG  451   5.899   7.588   4.890
    1AU     LIG  452   6.109   7.807   4.532
    1AU     LIG  453   6.121   8.086   4.163
    1AU     LIG  454   5.988   8.516   4.090
    1AU       S  455   6.441   6.624   5.635
    1AU     LIG  456   6.917   6.764   5.421
    1AU     LIG  457   7.157   6.899   5.004
    1AU     LIG  458   7.303   7.219   4.655
    1AU     LIG  459   7.505   7.682   4.609
    1AU     LIG  460   7.679   8.156   4.600
    1AU    AUSL  461   5.570   6.468   5.756
    1AU    AUSL  462   5.462   6.143   5.453
    1AU     AUL  463   5.420   6.449   5.311
    1AU       S  464   5.478   6.848   5.578
    1AU     LIG  465   5.528   7.362   5.452
    1AU     LIG  466   5.674   7.824   5.315
    1AU     LIG  467   5.448   8.271   5.251
    1AU     LIG  468   5.376   8.781   5.298
    1AU     LIG  469   5.373   9.294   5.254
    1AU       S  470   4.984   6.489   5.164
    1AU     LIG  471   5.039   6.535   4.725
    1AU     LIG  472   5.027   6.908   4.436
    1AU     LIG  473   5.004   7.117   4.005
    1AU     LIG  474   4.913   7.358   3.596
    1AU     LIG  475   4.601   7.690   3.458
    1AU    AUSL  476   5.775   5.111   5.372
    1AU    AUSL  477   5.157   5.130   5.739
    1AU     AUL  478   5.415   4.971   5.434
    1AU       S  479   4.977   5.080   5.546
    1AU     LIG  480   4.644   4.789   5.637
    1AU     LIG  481   4.344   4.501   5.412
    1AU     LIG  482   4.112   4.223   5.090
    1AU     LIG  483   3.794   3.962   4.842
    1AU     LIG  484   3.426   3.635   4.809
    1AU       S  485   5.823   4.707   5.404
    1AU     LIG  486   5.938   4.326   5.229
    1AU     LIG  487   5.714   3.952   5.111
    1AU     LIG  488   5.484   3.555   5.050
    1AU     LIG  489   5.472   3.219   4.718
    1AU     LIG  490   5.641   2.995   4.334
    1AU    AUSL  491   5.944   5.143   5.807
    1AU    AUSL  492   6.051   5.427   5.470
    1AU     AUL  493   6.095   5.079   5.415
    1AU       S  494   6.041   4.729   5.711
    1AU     LIG  495   6.068   4.265   5.725
    1AU     LIG  496   5.837   3.892   5.600
    1AU     LIG  497   5.934   3.519   5.319
    1AU     LIG  498   6.207   3.175   5.126
    1AU     LIG  499   6.527   2.815   5.202
    1AU       S  500   6.338   5.185   5.054
    1AU     LIG  501   6.180   4.744   5.016
    1AU     LIG  502   6.388   4.341   4.839
    1AU     LIG  503   6.679   4.124   4.501
    1AU     LIG  504   6.974   4.140   4.110
    1AU     LIG  505   7.120   3.950   3.700
    2POPC   NC3  506   1.964   8.065   8.265
    2POPC   PO4  507   2.471   8.386   8.248
    2POPC   GL1  508   2.335   8.278   7.799
    2POPC   GL2  509   2.168   7.930   7.763
    2POPC   C1A  510   2.260   8.216   7.325
    2POPC   D2A  511   2.183   8.403   6.900
    2POPC   C3A  512   2.220   8.297   6.440
    2POPC   C4A  513   2.391   8.463   6.030
    2POPC   C1B  514   1.836   7.895   7.405
    2POPC   C2B  515   1.698   7.767   6.985
    2POPC   C3B  516   1.734   7.845   6.551
    2POPC   C4B  517   1.694   8.180   6.261
    3POPC   NC3  518   1.928   2.707   8.253
    3POPC   PO4  519   1.597   3.265   8.018
    3POPC   GL1  520   1.796   2.993   7.684
    3POPC   GL2  521   2.121   2.963   7.815
    3POPC   C1A  522   1.735   2.761   7.248
    3POPC   D2A  523   1.806   2.568   6.806
    3POPC   C3A  524   1.646   2.866   6.492
    3POPC   C4A  525   1.751   3.001   6.080
    3POPC   C1B  526   2.250   2.806   7.384
    3POPC   C2B  527   2.406   2.802   6.987
    3POPC   C3B  528   2.337   2.655   6.619
    3POPC   C4B  529   2.132   2.810   6.342
    4POPC   NC3  530   8.199   9.744   8.021
    4POPC   PO4  531   8.032   9.184   8.178
    4POPC   GL1  532   8.367   9.314   7.812
    4POPC   GL2  533   8.122   9.530   7.568
    4POPC   C1A  534   8.504   9.271   7.369
    4POPC   D2A  535   8.256   9.512   7.043
    4POPC   C3A  536   8.370   9.611   6.626
    4POPC   C4A  537   8.393   9.401   6.190
    4POPC   C1B  538   7.839   9.799   7.299
    4POPC   C2B  539   7.656   9.949   6.887
    4POPC   C3B  540   7.645   9.786   6.479
    4POPC   C4B  541   8.010   9.719   6.285
    5POPC   NC3  542   1.943   0.538   7.953
    5POPC   PO4  543   1.538   0.021   8.066
    5POPC   GL1  544   1.641   0.116   7.630
    5POPC   GL2  545   1.957   0.298   7.521
    5POPC   C1A  546   1.727   0.042   7.182
    5POPC   D2A  547   1.881   0.339   6.886
    5POPC   C3A  548   1.883   0.169   6.487
    5POPC   C4A  549   1.724   0.200   6.085
    5POPC   C1B  550   1.922   0.695   7.269
    5POPC   C2B  551   1.817   0.845   6.823
    5POPC   C3B  552   1.996   0.686   6.398
    5POPC   C4B  553   1.931   0.608   5.915
    6POPC   NC3  554   7.313   9.353   8.124
    6POPC   PO4  555   7.490   9.982   8.044
    6POPC   GL1  556   7.502   9.647   7.724
    6POPC   GL2  557   7.173   9.768   7.652
    6POPC   C1A  558   7.619   9.346   7.380
    6POPC   D2A  559   7.757   9.439   6.913
    6POPC   C3A  560   7.619   9.287   6.470
    6POPC   C4A  561   7.742   9.389   6.000
    6POPC   C1B  562   7.322   9.718   7.230
    6POPC   C2B  563   7.153   9.670   6.860
    6POPC   C3B  564   7.173   9.516   6.469
    6POPC   C4B  565   7.266   9.669   6.079
    7POPC   NC3  566  10.906   0.390   8.014
    7POPC   PO4  567   0.074   0.707   8.091
    7POPC   GL1  568   0.126   0.525   7.709
    7POPC   GL2  569  11.289   0.461   7.632
    7POPC   C1A  570   0.140   0.645   7.295
    7POPC   D2A  571  11.291   0.635   7.025
    7POPC   C3A  572  11.441   0.509   6.633
    7POPC   C4A  573  11.258   0.528   6.240
    7POPC   C1B  574  10.921   0.399   7.349
    7POPC   C2B  575  10.810   0.485   6.917
    7POPC   C3B  576  10.914   0.286   6.535
    7POPC   C4B  577  10.651   0.099   6.201
    8POPC   NC3  578  10.568   7.251   8.104
    8POPC   PO4  579  10.592   7.919   8.118
    8POPC   GL1  580  10.657   7.629   7.738
    8POPC   GL2  581  10.361   7.414   7.679
    8POPC   C1A  582  10.686   7.501   7.269
    8POPC   D2A  583  10.684   7.690   6.847
    8POPC   C3A  584  10.465   7.478   6.500
    8POPC   C4A  585  10.633   7.465   6.099
    8POPC   C1B  586  10.156   7.409   7.294
    8POPC   C2B  587  10.303   7.234   6.919
    8POPC   C3B  588  10.112   7.074   6.568
    8POPC   C4B  589   9.961   7.381   6.295
    9POPC   NC3  590   1.954   8.935   7.962
    9POPC   PO4  591   1.829   8.318   7.908
    9POPC   GL1  592   1.964   8.569   7.577
    9POPC   GL2  593   2.293   8.772   7.610
    9POPC   C1A  594   1.775   8.398   7.204
    9POPC   D2A  595   1.707   8.303   6.776
    9POPC   C3A  596   1.814   8.623   6.458
    9POPC   C4A  597   1.863   8.645   6.011
    9POPC   C1B  598   2.146   8.846   7.167
    9POPC   C2B  599   2.211   8.866   6.700
    9POPC   C3B  600   2.160   8.969   6.265
    9POPC   C4B  601   1.938   9.295   6.017
   10POPC   NC3  602   9.403   1.789   8.057
   10POPC   PO4  603   8.721   1.957   8.026
   10POPC   GL1  604   8.843   1.868   7.598
   10POPC   GL2  605   9.160   2.061   7.607
   10POPC   C1A  606   8.935   1.722   7.167
   10POPC   D2A  607   9.163   1.978   6.830
   10POPC   C3A  608   9.347   1.876   6.454
   10POPC   C4A  609   9.046   1.977   6.132
   10POPC   C1B  610   8.959   2.241   7.240
   10POPC   C2B  611   8.696   2.102   6.898
   10POPC   C3B  612   8.656   1.961   6.481
   10POPC   C4B  613   8.585   2.195   6.073
   11POPC   NC3  614  11.270   5.946   8.065
   11POPC   PO4  615  10.679   6.305   8.059
   11POPC   GL1  616  10.945   6.149   7.694
   11POPC   GL2  617  11.017   5.768   7.668
   11POPC   C1A  618  11.059   6.027   7.243
   11POPC   D2A  619  11.341   5.812   6.924
   11POPC   C3A  620  11.167   5.827   6.500
   11POPC   C4A  621  11.056   6.242   6.321
   11POPC   C1B  622  11.256   5.537   7.364
   11POPC   C2B  623  11.450   5.308   7.024
   11POPC   C3B  624  11.464   5.405   6.586
   11POPC   C4B  625  11.243   5.410   6.169
   12POPC   NC3  626   0.399   0.264   8.064
   12POPC   PO4  627   0.844   0.780   7.949
   12POPC   GL1  628   0.636   0.568   7.670
   12POPC   GL2  629   0.779   0.272   7.597
   12POPC   C1A  630   0.667   0.686   7.257
   12POPC   D2A  631   0.473   0.565   6.874
   12POPC   C3A  632   0.617   0.755   6.506
   12POPC   C4A  633   0.771   0.685   6.079
   12POPC   C1B  634   0.455   0.213   7.286
   12POPC   C2B  635   0.267   0.092   6.877
   12POPC   C3B  636   0.392   0.236   6.462
   12POPC   C4B  637   0.263   0.572   6.202
   13POPC   NC3  638   2.960   2.871   8.116
   13POPC   PO4  639   2.388   2.727   8.223
   13POPC   GL1  640   2.593   2.787   7.768
   13POPC   GL2  641   2.818   2.555   7.671
   13POPC   C1A  642   2.747   2.944   7.332
   13POPC   D2A  643   2.732   3.208   6.951
   13POPC   C3A  644   2.734   2.991   6.591
   13POPC   C4A  645   2.891   2.661   6.373
   13POPC   C1B  646   2.634   2.431   7.286
   13POPC   C2B  647   2.752   2.444   6.851
   13POPC   C3B  648   2.600   2.252   6.476
   13POPC   C4B  649   2.478   2.462   6.125
   14POPC   NC3  650  11.289   8.774   8.031
   14POPC   PO4  651  10.627   8.867   7.886
   14POPC   GL1  652  10.887   8.630   7.600
   14POPC   GL2  653  11.214   8.753   7.537
   14POPC   C1A  654  10.894   8.695   7.152
   14POPC   D2A  655  11.226   8.727   6.861
   14POPC   C3A  656  11.014   8.853   6.516
   14POPC   C4A  657  10.877   8.678   6.163
   14POPC   C1B  658  11.359   9.081   7.254
   14POPC   C2B  659  11.268   9.266   6.839
   14POPC   C3B  660  11.473   9.096   6.511
   14POPC   C4B  661  11.338   8.871   6.118
   15POPC   NC3  662   8.584  11.403   8.030
   15POPC   PO4  663   9.073  10.971   8.258
   15POPC   GL1  664   8.928  11.031   7.765
   15POPC   GL2  665   9.031  11.255   7.501
   15POPC   C1A  666   8.753  10.867   7.324
   15POPC   D2A  667   8.864  11.083   6.894
   15POPC   C3A  668   8.945  10.883   6.447
   15POPC   C4A  669   8.949  10.931   5.981
   15POPC   C1B  670   8.597  11.359   7.315
   15POPC   C2B  671   8.495  11.449   6.886
   15POPC   C3B  672   8.732  11.438   6.500
   15POPC   C4B  673   9.156  11.364   6.383
   16POPC   NC3  674   7.000  11.245   7.856
   16POPC   PO4  675   6.838  10.672   8.113
   16POPC   GL1  676   6.671  10.850   7.699
   16POPC   GL2  677   6.692  11.160   7.481
   16POPC   C1A  678   6.834  10.738   7.263
   16POPC   D2A  679   6.778  11.017   6.893
   16POPC   C3A  680   6.720  10.830   6.463
   16POPC   C4A  681   6.497  11.049   6.093
   16POPC   C1B  682   6.401  11.349   7.208
   16POPC   C2B  683   6.318  11.220   6.788
   16POPC   C3B  684   6.633  11.343   6.515
   16POPC   C4B  685   6.509   0.072   6.210
   17POPC   NC3  686   0.516   8.092   8.121
   17POPC   PO4  687   0.026   7.663   7.867
   17POPC   GL1  688   0.211   8.011   7.661
   17POPC   GL2  689   0.565   8.110   7.623
   17POPC   C1A  690   0.207   8.114   7.231
   17POPC   D2A  691   0.442   8.073   6.881
   17POPC   C3A  692   0.197   8.045   6.509
   17POPC   C4A  693   0.175   8.190   6.094
   17POPC   C1B  694   0.707   8.429   7.344
   17POPC   C2B  695   0.737   8.518   6.907
   17POPC   C3B  696   0.871   8.195   6.630
   17POPC   C4B  697   0.692   7.985   6.292
   18POPC   NC3  698   4.054  10.990   8.152
   18POPC   PO4  699   4.639  11.426   8.020
   18POPC   GL1  700   4.389  11.418   7.667
   18POPC   GL2  701   4.155  11.156   7.675
   18POPC   C1A  702   4.397  11.425   7.196
   18POPC   D2A  703   4.256   0.052   6.787
   18POPC   C3A  704   4.216  11.300   6.413
   18POPC   C4A  705   4.216  11.383   5.957
   18POPC   C1B  706   4.347  10.935   7.304
   18POPC   C2B  707   4.322  11.024   6.852
   18POPC   C3B  708   4.568  10.896   6.491
   18POPC   C4B  709   4.431  10.923   6.091
   19POPC   NC3  710   5.832  11.152   8.013
   19POPC   PO4  711   6.523  11.207   8.031
   19POPC   GL1  712   6.228  11.111   7.671
   19POPC   GL2  713   6.063  11.430   7.631
   19POPC   C1A  714   6.107  10.939   7.215
   19POPC   D2A  715   5.734  10.802   6.984
   19POPC   C3A  716   5.744  10.859   6.526
   19POPC   C4A  717   5.995  11.084   6.198
   19POPC   C1B  718   5.798  11.351   7.287
   19POPC   C2B  719   5.810  11.278   6.858
   19POPC   C3B  720   5.664  11.362   6.478
   19POPC   C4B  721   5.467   0.125   6.247
   20POPC   NC3  722   6.399   1.021   8.142
   20POPC   PO4  723   6.212   1.629   7.972
   20POPC   GL1  724   6.440   1.345   7.682
   20POPC   GL2  725   6.566   1.013   7.674
   20POPC   C1A  726   6.546   1.378   7.247
   20POPC   D2A  727   6.526   1.627   6.873
   20POPC   C3A  728   6.410   1.426   6.499
   20POPC   C4A  729   6.320   1.388   6.061
   20POPC   C1B  730   6.780   0.915   7.326
   20POPC   C2B  731   6.672   0.993   6.915
   20POPC   C3B  732   6.861   0.957   6.546
   20POPC   C4B  733   6.772   1.169   6.201
   21POPC   NC3  734   0.389   6.298   8.145
   21POPC   PO4  735   0.591   7.004   8.053
   21POPC   GL1  736   0.304   6.811   7.726
   21POPC   GL2  737   0.457   6.489   7.670
   21POPC   C1A  738   0.123   6.743   7.283
   21POPC   D2A  739   0.237   6.545   6.895
   21POPC   C3A  740   0.054   6.746   6.563
   21POPC   C4A  741   0.214   6.881   6.162
   21POPC   C1B  742   0.609   6.619   7.263
   21POPC   C2B  743   0.738   6.422   6.853
   21POPC   C3B  744   0.555   6.562   6.449
   21POPC   C4B  745   0.526   6.457   6.004
   22POPC   NC3  746   2.384   6.229   8.157
   22POPC   PO4  747   2.221   6.838   8.091
   22POPC   GL1  748   1.900   6.841   7.798
   22POPC   GL2  749   1.872   6.499   7.715
   22POPC   C1A  750   1.884   6.949   7.383
   22POPC   D2A  751   1.912   6.756   6.969
   22POPC   C3A  752   2.084   6.951   6.599
   22POPC   C4A  753   2.224   6.753   6.199
   22POPC   C1B  754   2.054   6.291   7.322
   22POPC   C2B  755   1.902   6.249   6.881
   22POPC   C3B  756   1.904   6.454   6.476
   22POPC   C4B  757   1.779   6.347   6.051
   23POPC   NC3  758  11.095   7.709   8.040
   23POPC   PO4  759  10.961   8.433   8.129
   23POPC   GL1  760  10.919   8.134   7.759
   23POPC   GL2  761  11.249   8.242   7.690
   23POPC   C1A  762  11.072   7.865   7.368
   23POPC   D2A  763  11.180   7.616   6.974
   23POPC   C3A  764  11.096   7.823   6.540
   23POPC   C4A  765  11.063   7.965   6.103
   23POPC   C1B  766  11.247   8.337   7.249
   23POPC   C2B  767  11.299   8.202   6.824
   23POPC   C3B  768  11.258   8.360   6.389
   23POPC   C4B  769  11.248   8.390   5.924
   24POPC   NC3  770   0.122   4.259   8.279
   24POPC   PO4  771   0.747   4.437   8.246
   24POPC   GL1  772   0.437   4.283   7.864
   24POPC   GL2  773   0.298   4.542   7.661
   24POPC   C1A  774   0.350   4.106   7.398
   24POPC   D2A  775   0.468   4.187   6.943
   24POPC   C3A  776   0.303   4.009   6.555
   24POPC   C4A  777   0.382   4.082   6.097
   24POPC   C1B  778   0.559   4.561   7.286
   24POPC   C2B  779   0.614   4.655   6.825
   24POPC   C3B  780   0.415   4.516   6.431
   24POPC   C4B  781   0.077   4.509   6.122
   25POPC   NC3  782   1.147   1.130   8.071
   25POPC   PO4  783   1.523   1.627   8.064
   25POPC   GL1  784   1.235   1.518   7.709
   25POPC   GL2  785   1.217   1.157   7.587
   25POPC   C1A  786   1.257   1.544   7.247
   25POPC   D2A  787   1.023   1.455   6.850
   25POPC   C3A  788   1.240   1.576   6.501
   25POPC   C4A  789   1.355   1.442   6.117
   25POPC   C1B  790   1.136   1.015   7.185
   25POPC   C2B  791   1.179   0.956   6.777
   25POPC   C3B  792   1.059   1.074   6.401
   25POPC   C4B  793   1.186   0.979   5.997
   26POPC   NC3  794   1.252   9.638   8.080
   26POPC   PO4  795   1.741   9.316   7.802
   26POPC   GL1  796   1.600   9.699   7.545
   26POPC   GL2  797   1.290   9.835   7.632
   26POPC   C1A  798   1.413   9.763   7.140
   26POPC   D2A  799   1.217   9.425   6.966
   26POPC   C3A  800   1.323   9.369   6.558
   26POPC   C4A  801   1.234   9.513   6.181
   26POPC   C1B  802   0.964   9.706   7.383
   26POPC   C2B  803   0.925   9.857   6.983
   26POPC   C3B  804   1.116   9.833   6.608
   26POPC   C4B  805   0.863   9.830   6.253
   27POPC   NC3  806   5.283   2.556   8.212
   27POPC   PO4  807   5.452   1.963   8.082
   27POPC   GL1  808   5.381   1.742   7.675
   27POPC   GL2  809   5.753   1.720   7.548
   27POPC   C1A  810   5.315   1.900   7.232
   27POPC   D2A  811   5.615   2.060   6.916
   27POPC   C3A  812   5.487   2.105   6.479
   27POPC   C4A  813   5.717   2.157   6.089
   27POPC   C1B  814   5.641   1.526   7.171
   27POPC   C2B  815   5.525   1.590   6.728
   27POPC   C3B  816   5.852   1.748   6.442
   27POPC   C4B  817   6.133   1.841   6.111
   28POPC   NC3  818   7.663   0.286   7.950
   28POPC   PO4  819   7.150  11.442   8.254
   28POPC   GL1  820   7.095   0.239   7.810
   28POPC   GL2  821   7.237   0.591   7.820
   28POPC   C1A  822   7.178   0.147   7.305
   28POPC   D2A  823   6.951   0.012   6.925
   28POPC   C3A  824   7.137  11.498   6.510
   28POPC   C4A  825   7.006   0.159   6.088
   28POPC   C1B  826   7.247   0.649   7.368
   28POPC   C2B  827   7.411   0.494   6.971
   28POPC   C3B  828   7.452   0.396   6.528
   28POPC   C4B  829   7.281   0.591   6.147
   29POPC   NC3  830   7.971   8.738   8.110
   29POPC   PO4  831   8.585   8.633   8.093
   29POPC   GL1  832   8.318   8.807   7.713
   29POPC   GL2  833   7.976   9.023   7.687
   29POPC   C1A  834   8.047   8.625   7.368
   29POPC   D2A  835   7.893   8.764   6.946
   29POPC   C3A  836   8.141   8.642   6.594
   29POPC   C4A  837   7.997   8.539   6.193
   29POPC   C1B  838   8.042   9.113   7.273
   29POPC   C2B  839   8.355   8.985   6.982
   29POPC   C3B  840   8.367   9.095   6.590
   29POPC   C4B  841   8.020   9.059   6.298
   30POPC   NC3  842   6.343   9.600   8.188
   30POPC   PO4  843   6.889   9.185   8.112
   30POPC   GL1  844   6.820   9.407   7.705
   30POPC   GL2  845   6.638   9.728   7.738
   30POPC   C1A  846   6.801   9.621   7.262
   30POPC   D2A  847   6.670   9.520   6.828
   30POPC   C3A  848   6.735   9.773   6.453
   30POPC   C4A  849   6.786   9.441   6.133
   30POPC   C1B  850   6.267   9.755   7.466
   30POPC   C2B  851   6.282   9.789   7.024
   30POPC   C3B  852   6.226   9.685   6.583
   30POPC   C4B  853   6.203   9.813   6.180
   31POPC   NC3  854   2.330   5.384   8.231
   31POPC   PO4  855   3.041   5.326   8.170
   31POPC   GL1  856   2.705   5.496   7.840
   31POPC   GL2  857   2.575   5.844   7.828
   31POPC   C1A  858   2.660   5.534   7.347
   31POPC   D2A  859   2.832   5.414   6.903
   31POPC   C3A  860   2.672   5.477   6.467
   31POPC   C4A  861   2.910   5.593   6.078
   31POPC   C1B  862   2.625   6.034   7.395
   31POPC   C2B  863   2.753   5.927   6.949
   31POPC   C3B  864   2.707   5.993   6.477
   31POPC   C4B  865   2.307   6.161   6.287
   32POPC   NC3  866   8.072   2.058   8.189
   32POPC   PO4  867   7.816   1.596   7.802
   32POPC   GL1  868   8.080   1.815   7.545
   32POPC   GL2  869   8.318   2.008   7.742
   32POPC   C1A  870   8.438   1.656   7.306
   32POPC   D2A  871   8.502   1.580   6.849
   32POPC   C3A  872   8.065   1.621   6.653
   32POPC   C4A  873   7.808   1.598   6.262
   32POPC   C1B  874   8.421   2.164   7.354
   32POPC   C2B  875   8.221   1.995   6.983
   32POPC   C3B  876   8.152   2.138   6.583
   32POPC   C4B  877   8.222   1.878   6.225
   33POPC   NC3  878   4.535  10.958   7.980
   33POPC   PO4  879   4.340  10.341   8.291
   33POPC   GL1  880   4.583  10.302   7.795
   33POPC   GL2  881   4.275  10.266   7.552
   33POPC   C1A  882   4.680  10.329   7.302
   33POPC   D2A  883   4.643  10.642   6.966
   33POPC   C3A  884   4.716  10.407   6.563
   33POPC   C4A  885   4.741  10.516   6.134
   33POPC   C1B  886   4.001  10.161   7.230
   33POPC   C2B  887   3.935   9.968   6.834
   33POPC   C3B  888   3.934  10.142   6.406
   33POPC   C4B  889   4.264  10.431   6.299
   34POPC   NC3  890   7.340   8.101   7.998
   34POPC   PO4  891   6.778   8.295   7.946
   34POPC   GL1  892   7.122   8.473   7.655
   34POPC   GL2  893   7.452   8.350   7.566
   34POPC   C1A  894   7.124   8.454   7.197
   34POPC   D2A  895   7.262   8.205   6.821
   34POPC   C3A  896   7.126   8.308   6.396
   34POPC   C4A  897   6.779   8.132   6.160
   34POPC   C1B  898   7.643   8.356   7.162
   34POPC   C2B  899   7.752   8.320   6.725
   34POPC   C3B  900   7.621   8.211   6.319
   34POPC   C4B  901   7.684   8.282   5.876
   35POPC   NC3  902   0.958   6.780   7.879
   35POPC   PO4  903   0.934   6.142   8.107
   35POPC   GL1  904   0.990   6.320   7.672
   35POPC   GL2  905   1.344   6.452   7.700
   35POPC   C1A  906   1.091   6.542   7.251
   35POPC   D2A  907   0.990   6.862   6.912
   35POPC   C3A  908   1.076   6.650   6.491
   35POPC   C4A  909   1.033   6.504   6.057
   35POPC   C1B  910   1.581   6.474   7.288
   35POPC   C2B  911   1.451   6.581   6.866
   35POPC   C3B  912   1.572   6.841   6.558
   35POPC   C4B  913   1.483   6.763   6.144
   36POPC   NC3  914   3.253   5.735   8.126
   36POPC   PO4  915   3.035   6.303   8.292
   36POPC   GL1  916   3.037   6.161   7.774
   36POPC   GL2  917   3.053   5.820   7.635
   36POPC   C1A  918   3.121   6.173   7.244
   36POPC   D2A  919   3.231   5.978   6.781
   36POPC   C3A  920   3.180   6.232   6.351
   36POPC   C4A  921   3.321   6.415   5.926
   36POPC   C1B  922   3.164   5.665   7.215
   36POPC   C2B  923   3.537   5.586   6.946
   36POPC   C3B  924   3.662   5.684   6.532
   36POPC   C4B  925   3.305   5.748   6.329
   37POPC   NC3  926   8.343   0.635   8.008
   37POPC   PO4  927   8.118   0.045   8.023
   37POPC   GL1  928   8.349   0.226   7.658
   37POPC   GL2  929   8.066   0.463   7.589
   37POPC   C1A  930   8.409   0.374   7.195
   37POPC   D2A  931   8.090   0.326   6.834
   37POPC   C3A  932   8.201   0.381   6.394
   37POPC   C4A  933   8.303   0.080   6.017
   37POPC   C1B  934   7.833   0.671   7.231
   37POPC   C2B  935   7.800   0.757   6.769
   37POPC   C3B  936   7.800   0.684   6.292
   37POPC   C4B  937   7.696   0.680   5.844
   38POPC   NC3  938   1.537   2.590   7.899
   38POPC   PO4  939   0.988   2.918   8.064
   38POPC   GL1  940   1.021   2.703   7.705
   38POPC   GL2  941   1.286   2.938   7.629
   38POPC   C1A  942   1.173   2.530   7.299
   38POPC   D2A  943   1.304   2.670   6.897
   38POPC   C3A  944   1.362   2.461   6.501
   38POPC   C4A  945   1.376   2.632   6.087
   38POPC   C1B  946   1.011   3.107   7.342
   38POPC   C2B  947   0.881   2.975   6.960
   38POPC   C3B  948   1.067   3.024   6.589
   38POPC   C4B  949   0.877   2.910   6.215
   39POPC   NC3  950   0.566   2.708   8.109
   39POPC   PO4  951   0.733   2.107   7.966
   39POPC   GL1  952   0.543   2.431   7.686
   39POPC   GL2  953   0.259   2.680   7.687
   39POPC   C1A  954   0.658   2.674   7.336
   39POPC   D2A  955   0.767   2.437   6.987
   39POPC   C3A  956   0.884   2.561   6.597
   39POPC   C4A  957   0.892   2.404   6.153
   39POPC   C1B  958   0.149   2.758   7.241
   39POPC   C2B  959   0.385   2.763   6.862
   39POPC   C3B  960   0.435   2.747   6.427
   39POPC   C4B  961   0.112   2.757   6.119
   40POPC   NC3  962   4.999   1.810   8.091
   40POPC   PO4  963   4.764   2.481   8.133
   40POPC   GL1  964   4.928   2.235   7.766
   40POPC   GL2  965   4.725   1.972   7.690
   40POPC   C1A  966   4.890   2.210   7.272
   40POPC   D2A  967   5.125   2.226   6.847
   40POPC   C3A  968   5.013   2.318   6.393
   40POPC   C4A  969   5.272   2.433   6.022
   40POPC   C1B  970   4.878   1.664   7.371
   40POPC   C2B  971   4.844   1.817   6.928
   40POPC   C3B  972   5.042   1.825   6.527
   40POPC   C4B  973   4.851   1.695   6.144
   41POPC   NC3  974   8.842  10.619   8.040
   41POPC   PO4  975   8.342  10.144   8.193
   41POPC   GL1  976   8.450  10.435   7.799
   41POPC   GL2  977   8.757  10.364   7.609
   41POPC   C1A  978   8.377  10.478   7.303
   41POPC   D2A  979   8.527  10.251   6.891
   41POPC   C3A  980   8.577  10.511   6.491
   41POPC   C4A  981   8.509  10.651   6.027
   41POPC   C1B  982   8.901  10.176   7.237
   41POPC   C2B  983   9.035  10.304   6.814
   41POPC   C3B  984   8.920  10.164   6.406
   41POPC   C4B  985   8.963  10.432   6.089
   42POPC   NC3  986   7.494   2.237   8.015
   42POPC   PO4  987   7.783   1.722   8.318
   42POPC   GL1  988   7.372   1.754   7.858
   42POPC   GL2  989   7.556   1.985   7.593
   42POPC   C1A  990   7.420   1.625   7.303
   42POPC   D2A  991   7.728   1.867   6.977
   42POPC   C3A  992   7.663   2.007   6.498
   42POPC   C4A  993   7.371   1.856   6.161
   42POPC   C1B  994   7.329   2.114   7.216
   42POPC   C2B  995   7.258   1.955   6.800
   42POPC   C3B  996   7.179   2.228   6.451
   42POPC   C4B  997   6.966   2.141   6.055
   43POPC   NC3  998   7.550   1.241   7.944
   43POPC   PO4  999   6.860   1.266   8.057
   43POPC   GL1 1000   6.966   1.385   7.642
   43POPC   GL2 1001   7.177   1.097   7.630
   43POPC   C1A 1002   7.038   1.327   7.191
   43POPC   D2A 1003   6.970   1.413   6.773
   43POPC   C3A 1004   7.249   1.429   6.433
   43POPC   C4A 1005   7.156   1.439   5.982
   43POPC   C1B 1006   7.478   1.090   7.285
   43POPC   C2B 1007   7.266   0.974   6.910
   43POPC   C3B 1008   7.376   0.922   6.517
   43POPC   C4B 1009   7.475   1.072   6.123
   44POPC   NC3 1010   1.997   9.705   7.856
   44POPC   PO4 1011   2.378   9.148   8.005
   44POPC   GL1 1012   2.393   9.436   7.652
   44POPC   GL2 1013   2.126   9.255   7.483
   44POPC   C1A 1014   2.365   9.619   7.208
   44POPC   D2A 1015   2.315   9.343   6.859
   44POPC   C3A 1016   2.134   9.450   6.473
   44POPC   C4A 1017   2.142   9.768   6.163
   44POPC   C1B 1018   1.856   9.293   7.105
   44POPC   C2B 1019   1.736   9.596   6.782
   44POPC   C3B 1020   1.677   9.684   6.360
   44POPC   C4B 1021   1.683   9.912   6.002
   45POPC   NC3 1022  11.058   3.477   8.015
   45POPC   PO4 1023   0.092   3.220   7.737
   45POPC   GL1 1024  11.180   3.441   7.533
   45POPC   GL2 1025  11.071   3.827   7.663
   45POPC   C1A 1026  10.874   3.669   7.227
   45POPC   D2A 1027  10.761   3.505   6.840
   45POPC   C3A 1028  11.060   3.223   6.651
   45POPC   C4A 1029  11.037   3.195   6.205
   45POPC   C1B 1030  11.379   3.868   7.344
   45POPC   C2B 1031  11.304   3.706   6.933
   45POPC   C3B 1032  11.135   3.723   6.525
   45POPC   C4B 1033  11.447   3.517   6.269
   46POPC   NC3 1034   8.841   8.255   8.016
   46POPC   PO4 1035   8.474   7.781   7.822
   46POPC   GL1 1036   8.845   7.904   7.592
   46POPC   GL2 1037   8.835   8.249   7.505
   46POPC   C1A 1038   9.011   7.847   7.165
   46POPC   D2A 1039   9.043   7.980   6.716
   46POPC   C3A 1040   8.939   7.783   6.309
   46POPC   C4A 1041   8.660   7.767   5.915
   46POPC   C1B 1042   8.832   8.350   7.061
   46POPC   C2B 1043   9.159   8.476   6.780
   46POPC   C3B 1044   9.116   8.342   6.354
   46POPC   C4B 1045   8.948   8.171   5.977
   47POPC   NC3 1046   1.388   8.286   8.026
   47POPC   PO4 1047   0.938   7.884   8.043
   47POPC   GL1 1048   1.074   8.026   7.655
   47POPC   GL2 1049   0.947   7.727   7.527
   47POPC   C1A 1050   1.273   8.234   7.286
   47POPC   D2A 1051   1.263   8.535   6.943
   47POPC   C3A 1052   1.309   8.440   6.490
   47POPC   C4A 1053   1.073   8.333   6.104
   47POPC   C1B 1054   1.211   7.716   7.167
   47POPC   C2B 1055   1.293   8.003   6.814
   47POPC   C3B 1056   1.247   7.946   6.375
   47POPC   C4B 1057   1.472   7.744   6.096
   48POPC   NC3 1058   0.629  10.420   8.061
   48POPC   PO4 1059   0.082  10.060   8.228
   48POPC   GL1 1060   0.289  10.132   7.774
   48POPC   GL2 1061   0.354  10.495   7.652
   48POPC   C1A 1062   0.617  10.124   7.396
   48POPC   D2A 1063   0.461  10.048   6.960
   48POPC   C3A 1064   0.727  10.190   6.630
   48POPC   C4A 1065   0.730  10.367   6.237
   48POPC   C1B 1066   0.211  10.407   7.255
   48POPC   C2B 1067   0.355  10.537   6.870
   48POPC   C3B 1068   0.282  10.450   6.463
   48POPC   C4B 1069   0.218  10.766   6.187
   49POPC   NC3 1070   1.150   3.339   8.109
   49POPC   PO4 1071   0.758   3.879   7.914
   49POPC   GL1 1072   1.143   3.797   7.661
   49POPC   GL2 1073   1.308   3.474   7.650
   49POPC   C1A 1074   1.260   3.715   7.210
   49POPC   D2A 1075   1.081   3.472   6.866
   49POPC   C3A 1076   1.117   3.714   6.463
   49POPC   C4A 1077   1.145   3.619   6.024
   49POPC   C1B 1078   1.520   3.270   7.325
   49POPC   C2B 1079   1.477   3.140   6.927
   49POPC   C3B 1080   1.466   3.341   6.541
   49POPC   C4B 1081   1.301   3.174   6.172
   50POPC   NC3 1082   1.874   7.101   8.230
   50POPC   PO4 1083   1.264   7.035   8.092
   50POPC   GL1 1084   1.394   6.990   7.669
   50POPC   GL2 1085   1.256   7.342   7.674
   50POPC   C1A 1086   1.410   6.959   7.210
   50POPC   D2A 1087   1.328   7.274   6.907
   50POPC   C3A 1088   1.174   7.154   6.509
   50POPC   C4A 1089   1.392   7.261   6.152
   50POPC   C1B 1090   1.004   7.231   7.348
   50POPC   C2B 1091   0.814   7.387   6.993
   50POPC   C3B 1092   0.999   7.610   6.660
   50POPC   C4B 1093   0.971   7.531   6.222
   51POPC   NC3 1094   3.505   9.470   8.291
   51POPC   PO4 1095   3.375  10.128   8.141
   51POPC   GL1 1096   3.555   9.975   7.771
   51POPC   GL2 1097   3.655   9.632   7.758
   51POPC   C1A 1098   3.546   9.950   7.334
   51POPC   D2A 1099   3.258   9.830   7.026
   51POPC   C3A 1100   3.475   9.800   6.665
   51POPC   C4A 1101   3.464   9.980   6.296
   51POPC   C1B 1102   3.505   9.442   7.351
   51POPC   C2B 1103   3.337   9.337   6.912
   51POPC   C3B 1104   3.515   9.333   6.467
   51POPC   C4B 1105   3.804   9.291   6.096
   52POPC   NC3 1106   8.951   3.306   8.218
   52POPC   PO4 1107   9.133   3.877   8.103
   52POPC   GL1 1108   9.237   3.613   7.723
   52POPC   GL2 1109   8.992   3.335   7.711
   52POPC   C1A 1110   9.103   3.610   7.270
   52POPC   D2A 1111   8.825   3.546   6.901
   52POPC   C3A 1112   8.964   3.633   6.475
   52POPC   C4A 1113   8.843   3.830   6.086
   52POPC   C1B 1114   8.860   3.154   7.314
   52POPC   C2B 1115   9.038   3.086   6.918
   52POPC   C3B 1116   8.778   3.133   6.574
   52POPC   C4B 1117   8.650   3.340   6.173
   53POPC   NC3 1118   1.710   5.295   7.978
   53POPC   PO4 1119   2.170   5.816   8.167
   53POPC   GL1 1120   2.120   5.586   7.758
   53POPC   GL2 1121   1.765   5.680   7.646
   53POPC   C1A 1122   2.130   5.712   7.290
   53POPC   D2A 1123   1.902   5.727   6.879
   53POPC   C3A 1124   2.154   5.696   6.490
   53POPC   C4A 1125   2.009   5.481   6.102
   53POPC   C1B 1126   1.643   5.954   7.288
   53POPC   C2B 1127   1.409   6.081   6.917
   53POPC   C3B 1128   1.462   6.191   6.495
   53POPC   C4B 1129   1.729   5.892   6.279
   54POPC   NC3 1130  11.085   9.787   8.143
   54POPC   PO4 1131   0.023   9.259   8.098
   54POPC   GL1 1132  11.439   9.473   7.674
   54POPC   GL2 1133  11.080   9.590   7.684
   54POPC   C1A 1134  11.275   9.603   7.223
   54POPC   D2A 1135  11.289   9.856   6.820
   54POPC   C3A 1136  11.449   9.627   6.474
   54POPC   C4A 1137  11.470   9.632   6.043
   54POPC   C1B 1138  10.862   9.869   7.382
   54POPC   C2B 1139  10.813   9.701   6.943
   54POPC   C3B 1140  10.920   9.596   6.514
   54POPC   C4B 1141  11.100   9.306   6.247
   55POPC   NC3 1142  10.773   5.078   8.059
   55POPC   PO4 1143  10.173   5.440   8.123
   55POPC   GL1 1144  10.241   5.271   7.705
   55POPC   GL2 1145  10.438   4.970   7.669
   55POPC   C1A 1146  10.373   5.389   7.286
   55POPC   D2A 1147  10.485   5.252   6.864
   55POPC   C3A 1148  10.184   5.263   6.541
   55POPC   C4A 1149  10.195   4.922   6.254
   55POPC   C1B 1150  10.628   4.837   7.279
   55POPC   C2B 1151  10.627   4.760   6.844
   55POPC   C3B 1152  10.677   4.878   6.415
   55POPC   C4B 1153  10.569   4.685   6.003
   56POPC   NC3 1154   5.920   0.481   8.120
   56POPC   PO4 1155   5.268   0.318   8.278
   56POPC   GL1 1156   5.451   0.485   7.799
   56POPC   GL2 1157   5.691   0.743   7.744
   56POPC   C1A 1158   5.767   0.390   7.394
   56POPC   D2A 1159   5.720   0.273   6.933
   56POPC   C3A 1160   6.041   0.207   6.594
   56POPC   C4A 1161   5.979   0.116   6.149
   56POPC   C1B 1162   6.102   0.792   7.498
   56POPC   C2B 1163   6.151   0.856   7.038
   56POPC   C3B 1164   5.867   0.732   6.694
   56POPC   C4B 1165   5.780   0.561   6.296
   57POPC   NC3 1166   9.530  10.912   8.198
   57POPC   PO4 1167   9.212  10.577   7.716
   57POPC   GL1 1168   9.467  10.976   7.651
   57POPC   GL2 1169   9.514  11.364   7.683
   57POPC   C1A 1170   9.473  11.136   7.214
   57POPC   D2A 1171   9.716  11.007   6.845
   57POPC   C3A 1172   9.514  10.965   6.436
   57POPC   C4A 1173   9.765  11.026   6.058
   57POPC   C1B 1174   9.797   0.007   7.342
   57POPC   C2B 1175   9.657   0.034   6.878
   57POPC   C3B 1176   9.675  11.447   6.421
   57POPC   C4B 1177   9.777   0.020   5.983
   58POPC   NC3 1178  10.549   8.331   8.325
   58POPC   PO4 1179   9.988   8.455   7.901
   58POPC   GL1 1180  10.064   8.263   7.570
   58POPC   GL2 1181  10.237   7.954   7.672
   58POPC   C1A 1182  10.168   8.211   7.168
   58POPC   D2A 1183  10.348   8.066   6.806
   58POPC   C3A 1184  10.276   8.297   6.465
   58POPC   C4A 1185  10.279   8.167   6.032
   58POPC   C1B 1186  10.579   7.992   7.363
   58POPC   C2B 1187  10.803   8.199   7.026
   58POPC   C3B 1188  10.789   8.265   6.583
   58POPC   C4B 1189  10.613   7.931   6.327
   59POPC   NC3 1190   4.636   1.224   8.014
   59POPC   PO4 1191   4.125   0.765   8.073
   59POPC   GL1 1192   4.004   1.043   7.738
   59POPC   GL2 1193   4.340   1.028   7.635
   59POPC   C1A 1194   3.890   0.943   7.310
   59POPC   D2A 1195   4.132   0.943   6.933
   59POPC   C3A 1196   3.985   0.943   6.552
   59POPC   C4A 1197   4.282   1.165   6.406
   59POPC   C1B 1198   4.279   1.291   7.280
   59POPC   C2B 1199   4.528   1.422   6.945
   59POPC   C3B 1200   4.575   1.542   6.543
   59POPC   C4B 1201   4.166   1.672   6.365
   60POPC   NC3 1202   1.350   4.844   8.197
   60POPC   PO4 1203   2.044   5.026   8.154
   60POPC   GL1 1204   2.034   4.936   7.714
   60POPC   GL2 1205   1.880   5.188   7.522
   60POPC   C1A 1206   2.001   4.747   7.303
   60POPC   D2A 1207   1.900   5.043   6.967
   60POPC   C3A 1208   1.860   4.820   6.580
   60POPC   C4A 1209   1.822   5.013   6.188
   60POPC   C1B 1210   2.255   5.218   7.313
   60POPC   C2B 1211   2.312   5.371   6.884
   60POPC   C3B 1212   2.230   5.191   6.463
   60POPC   C4B 1213   2.464   5.203   6.054
   61POPC   NC3 1214   9.801   5.152   8.222
   61POPC   PO4 1215   9.757   4.487   8.022
   61POPC   GL1 1216   9.931   4.838   7.741
   61POPC   GL2 1217   9.736   5.160   7.717
   61POPC   C1A 1218  10.043   4.990   7.300
   61POPC   D2A 1219  10.113   4.861   6.854
   61POPC   C3A 1220   9.778   4.952   6.517
   61POPC   C4A 1221   9.637   4.796   6.123
   61POPC   C1B 1222   9.541   5.090   7.315
   61POPC   C2B 1223   9.535   5.215   6.870
   61POPC   C3B 1224   9.342   5.223   6.453
   61POPC   C4B 1225   9.406   5.234   6.019
   62POPC   NC3 1226  11.339  11.086   7.919
   62POPC   PO4 1227  10.805  11.449   8.106
   62POPC   GL1 1228  11.089  11.497   7.750
   62POPC   GL2 1229  10.815  11.426   7.555
   62POPC   C1A 1230  11.298   0.042   7.346
   62POPC   D2A 1231  11.051   0.036   6.976
   62POPC   C3A 1232  11.317  11.481   6.627
   62POPC   C4A 1233  11.233   0.006   6.200
   62POPC   C1B 1234  11.008  11.117   7.305
   62POPC   C2B 1235  11.147  11.038   6.891
   62POPC   C3B 1236  11.266  10.986   6.461
   62POPC   C4B 1237  10.999  10.785   6.143
   63POPC   NC3 1238  10.202   3.397   8.230
   63POPC   PO4 1239  10.680   3.315   7.768
   63POPC   GL1 1240  10.302   3.293   7.573
   63POPC   GL2 1241  10.200   3.599   7.748
   63POPC   C1A 1242  10.336   3.298   7.112
   63POPC   D2A 1243  10.264   3.369   6.666
   63POPC   C3A 1244  10.609   3.497   6.351
   63POPC   C4A 1245  10.619   3.332   5.915
   63POPC   C1B 1246  10.160   3.768   7.344
   63POPC   C2B 1247  10.341   3.785   6.934
   63POPC   C3B 1248  10.189   3.887   6.540
   63POPC   C4B 1249  10.230   3.729   6.117
   64POPC   NC3 1250   6.723   0.079   8.229
   64POPC   PO4 1251   6.369   0.564   8.198
   64POPC   GL1 1252   6.317   0.383   7.751
   64POPC   GL2 1253   6.564   0.106   7.703
   64POPC   C1A 1254   6.271   0.344   7.272
   64POPC   D2A 1255   6.487   0.260   6.865
   64POPC   C3A 1256   6.409   0.603   6.566
   64POPC   C4A 1257   6.274   0.523   6.152
   64POPC   C1B 1258   6.761   0.410   7.419
   64POPC   C2B 1259   6.906   0.536   6.984
   64POPC   C3B 1260   6.906   0.446   6.532
   64POPC   C4B 1261   6.771   0.645   6.136
   65POPC   NC3 1262   4.827  10.334   8.367
   65POPC   PO4 1263   4.938  11.001   8.228
   65POPC   GL1 1264   4.969  10.629   7.878
   65POPC   GL2 1265   4.769  10.741   7.568
   65POPC   C1A 1266   5.149  10.397   7.467
   65POPC   D2A 1267   5.066  10.387   6.958
   65POPC   C3A 1268   5.146  10.122   6.586
   65POPC   C4A 1269   5.058  10.124   6.142
   65POPC   C1B 1270   5.122  10.844   7.243
   65POPC   C2B 1271   5.252  10.865   6.796
   65POPC   C3B 1272   5.175  10.648   6.397
   65POPC   C4B 1273   5.234  10.570   5.929
   66POPC   NC3 1274  11.498   5.432   8.108
   66POPC   PO4 1275   0.019   4.696   8.102
   66POPC   GL1 1276  11.192   4.834   7.847
   66POPC   GL2 1277  11.175   5.204   7.765
   66POPC   C1A 1278  11.126   4.826   7.413
   66POPC   D2A 1279  11.096   4.614   7.021
   66POPC   C3A 1280  11.148   4.861   6.665
   66POPC   C4A 1281  11.152   4.755   6.259
   66POPC   C1B 1282  10.845   5.270   7.446
   66POPC   C2B 1283  10.957   5.156   7.030
   66POPC   C3B 1284  10.940   5.341   6.612
   66POPC   C4B 1285  10.616   5.382   6.307
   67POPC   NC3 1286   7.898  10.289   8.060
   67POPC   PO4 1287   8.425   9.960   7.690
   67POPC   GL1 1288   8.056  10.171   7.589
   67POPC   GL2 1289   7.995  10.554   7.648
   67POPC   C1A 1290   7.876  10.301   7.197
   67POPC   D2A 1291   8.064  10.445   6.823
   67POPC   C3A 1292   8.184  10.157   6.505
   67POPC   C4A 1293   7.814  10.238   6.323
   67POPC   C1B 1294   7.808  10.768   7.352
   67POPC   C2B 1295   7.702  10.810   6.914
   67POPC   C3B 1296   7.962  10.905   6.612
   67POPC   C4B 1297   8.124  10.658   6.336
   68POPC   NC3 1298   4.543   2.860   8.454
   68POPC   PO4 1299   4.001   2.597   8.094
   68POPC   GL1 1300   4.199   2.657   7.688
   68POPC   GL2 1301   4.008   2.954   7.633
   68POPC   C1A 1302   4.501   2.601   7.306
   68POPC   D2A 1303   4.533   2.327   6.923
   68POPC   C3A 1304   4.588   2.562   6.535
   68POPC   C4A 1305   4.477   2.446   6.114
   68POPC   C1B 1306   3.992   2.745   7.222
   68POPC   C2B 1307   4.180   2.771   6.791
   68POPC   C3B 1308   4.159   2.799   6.323
   68POPC   C4B 1309   4.426   2.953   5.979
   69POPC   NC3 1310   1.385   6.216   8.188
   69POPC   PO4 1311   1.227   5.574   7.976
   69POPC   GL1 1312   1.251   5.881   7.663
   69POPC   GL2 1313   1.294   5.611   7.447
   69POPC   C1A 1314   1.041   6.017   7.248
   69POPC   D2A 1315   0.900   5.880   6.803
   69POPC   C3A 1316   0.945   6.132   6.412
   69POPC   C4A 1317   0.817   6.051   5.960
   69POPC   C1B 1318   1.588   5.436   7.186
   69POPC   C2B 1319   1.385   5.570   6.819
   69POPC   C3B 1320   1.259   5.705   6.420
   69POPC   C4B 1321   1.509   5.419   6.213
   70POPC   NC3 1322   3.559   0.121   8.129
   70POPC   PO4 1323   3.584  10.905   8.204
   70POPC   GL1 1324   3.679  10.936   7.779
   70POPC   GL2 1325   3.636  11.287   7.722
   70POPC   C1A 1326   3.817  10.950   7.348
   70POPC   D2A 1327   3.885  11.269   7.026
   70POPC   C3A 1328   3.765  11.131   6.602
   70POPC   C4A 1329   3.761  11.225   6.150
   70POPC   C1B 1330   3.355  11.222   7.355
   70POPC   C2B 1331   3.191  11.294   6.922
   70POPC   C3B 1332   3.310  11.340   6.461
   70POPC   C4B 1333   3.351  10.909   6.281
   71POPC   NC3 1334  11.129   4.449   8.238
   71POPC   PO4 1335  11.432   3.900   8.027
   71POPC   GL1 1336  11.375   4.279   7.789
   71POPC   GL2 1337  11.034   4.355   7.729
   71POPC   C1A 1338  11.437   4.417   7.356
   71POPC   D2A 1339  11.470   4.214   6.974
   71POPC   C3A 1340  11.386   4.330   6.560
   71POPC   C4A 1341  11.389   4.036   6.209
   71POPC   C1B 1342  10.994   4.198   7.325
   71POPC   C2B 1343  10.981   4.112   6.901
   71POPC   C3B 1344  10.894   4.419   6.567
   71POPC   C4B 1345  10.957   4.294   6.165
   72POPC   NC3 1346   9.363   4.265   8.072
   72POPC   PO4 1347   9.996   3.871   8.157
   72POPC   GL1 1348   9.819   3.946   7.738
   72POPC   GL2 1349   9.974   4.203   7.550
   72POPC   C1A 1350   9.599   3.812   7.351
   72POPC   D2A 1351   9.348   3.918   6.950
   72POPC   C3A 1352   9.434   3.882   6.504
   72POPC   C4A 1353   9.782   4.049   6.292
   72POPC   C1B 1354   9.735   4.556   7.351
   72POPC   C2B 1355   9.637   4.692   6.941
   72POPC   C3B 1356   9.612   4.470   6.543
   72POPC   C4B 1357   9.347   4.362   6.208
   73POPC   NC3 1358   2.704   8.025   8.048
   73POPC   PO4 1359   2.131   7.508   8.252
   73POPC   GL1 1360   2.070   7.408   7.829
   73POPC   GL2 1361   1.759   7.341   7.772
   73POPC   C1A 1362   2.122   7.469   7.380
   73POPC   D2A 1363   2.195   7.755   7.029
   73POPC   C3A 1364   2.172   7.555   6.614
   73POPC   C4A 1365   2.002   7.632   6.163
   73POPC   C1B 1366   1.627   7.399   7.339
   73POPC   C2B 1367   1.844   7.278   6.959
   73POPC   C3B 1368   1.719   7.331   6.538
   73POPC   C4B 1369   1.860   7.118   6.169
   74POPC   NC3 1370  10.634   1.291   8.351
   74POPC   PO4 1371  10.193   0.875   8.025
   74POPC   GL1 1372  10.374   1.153   7.728
   74POPC   GL2 1373  10.242   1.464   7.754
   74POPC   C1A 1374  10.385   1.108   7.314
   74POPC   D2A 1375  10.020   0.974   7.085
   74POPC   C3A 1376  10.048   1.051   6.650
   74POPC   C4A 1377  10.444   1.036   6.371
   74POPC   C1B 1378  10.142   1.545   7.310
   74POPC   C2B 1379  10.304   1.411   6.904
   74POPC   C3B 1380  10.254   1.505   6.467
   74POPC   C4B 1381  10.382   1.441   6.006
   75POPC   NC3 1382   0.545   4.776   8.015
   75POPC   PO4 1383   0.454   5.483   7.920
   75POPC   GL1 1384   0.514   5.134   7.652
   75POPC   GL2 1385   0.168   5.033   7.712
   75POPC   C1A 1386   0.627   5.064   7.224
   75POPC   D2A 1387   0.393   5.128   6.838
   75POPC   C3A 1388   0.592   5.054   6.471
   75POPC   C4A 1389   0.867   4.764   6.354
   75POPC   C1B 1390   0.141   4.881   7.274
   75POPC   C2B 1391   0.103   4.707   6.846
   75POPC   C3B 1392   0.104   4.936   6.426
   75POPC   C4B 1393   0.267   5.326   6.180
   76POPC   NC3 1394   0.929   7.400   8.099
   76POPC   PO4 1395   0.399   7.710   8.353
   76POPC   GL1 1396   0.533   7.640   7.855
   76POPC   GL2 1397   0.426   7.336   7.703
   76POPC   C1A 1398   0.485   7.679   7.359
   76POPC   D2A 1399   0.298   7.517   7.013
   76POPC   C3A 1400   0.503   7.632   6.643
   76POPC   C4A 1401   0.459   7.519   6.246
   76POPC   C1B 1402   0.514   7.119   7.353
   76POPC   C2B 1403   0.448   7.005   6.956
   76POPC   C3B 1404   0.391   7.134   6.578
   76POPC   C4B 1405   0.690   7.060   6.278
   77POPC   NC3 1406   2.060   4.451   7.992
   77POPC   PO4 1407   1.517   4.018   8.066
   77POPC   GL1 1408   1.671   4.218   7.676
   77POPC   GL2 1409   2.007   4.245   7.525
   77POPC   C1A 1410   1.603   4.365   7.234
   77POPC   D2A 1411   1.772   4.097   6.893
   77POPC   C3A 1412   1.604   4.148   6.462
   77POPC   C4A 1413   1.695   4.509   6.196
   77POPC   C1B 1414   2.212   3.985   7.180
   77POPC   C2B 1415   2.321   4.064   6.748
   77POPC   C3B 1416   2.110   4.324   6.432
   77POPC   C4B 1417   2.225   4.717   6.200
   78POPC   NC3 1418   7.074  10.264   8.034
   78POPC   PO4 1419   7.543  10.730   8.066
   78POPC   GL1 1420   7.493  10.474   7.661
   78POPC   GL2 1421   7.548  10.150   7.575
   78POPC   C1A 1422   7.338  10.631   7.223
   78POPC   D2A 1423   7.100  10.638   6.830
   78POPC   C3A 1424   7.395  10.512   6.525
   78POPC   C4A 1425   7.625  10.784   6.272
   78POPC   C1B 1426   7.166  10.179   7.346
   78POPC   C2B 1427   7.207  10.170   6.927
   78POPC   C3B 1428   7.215  10.033   6.514
   78POPC   C4B 1429   7.073  10.160   6.155
   79POPC   NC3 1430   2.001   1.109   8.075
   79POPC   PO4 1431   2.272   1.588   7.818
   79POPC   GL1 1432   2.050   1.326   7.566
   79POPC   GL2 1433   1.720   1.324   7.694
   79POPC   C1A 1434   2.131   1.153   7.145
   79POPC   D2A 1435   2.306   0.960   6.757
   79POPC   C3A 1436   2.110   1.185   6.396
   79POPC   C4A 1437   2.239   1.481   6.087
   79POPC   C1B 1438   1.632   1.128   7.297
   79POPC   C2B 1439   1.530   1.287   6.900
   79POPC   C3B 1440   1.571   1.157   6.492
   79POPC   C4B 1441   1.682   1.006   6.120
   80POPC   NC3 1442  10.404   9.098   8.213
   80POPC   PO4 1443  10.647   9.708   8.281
   80POPC   GL1 1444  10.568   9.695   7.802
   80POPC   GL2 1445  10.205   9.767   7.706
   80POPC   C1A 1446  10.496   9.531   7.337
   80POPC   D2A 1447  10.303   9.626   6.908
   80POPC   C3A 1448  10.368   9.575   6.452
   80POPC   C4A 1449  10.595   9.877   6.210
   80POPC   C1B 1450  10.163   9.961   7.286
   80POPC   C2B 1451   9.969  10.022   6.851
   80POPC   C3B 1452  10.140  10.082   6.395
   80POPC   C4B 1453  10.167   9.891   5.935
   81POPC   NC3 1454   1.816   3.670   8.007
   81POPC   PO4 1455   2.400   4.005   7.992
   81POPC   GL1 1456   2.169   3.780   7.649
   81POPC   GL2 1457   2.101   3.438   7.657
   81POPC   C1A 1458   1.800   3.728   7.337
   81POPC   D2A 1459   1.766   3.562   6.907
   81POPC   C3A 1460   1.967   3.778   6.541
   81POPC   C4A 1461   2.308   3.871   6.257
   81POPC   C1B 1462   2.019   3.239   7.261
   81POPC   C2B 1463   1.981   3.056   6.861
   81POPC   C3B 1464   1.974   3.271   6.491
   81POPC   C4B 1465   1.759   3.517   6.166
   82POPC   NC3 1466  10.335   2.146   8.012
   82POPC   PO4 1467   9.852   1.699   8.023
   82POPC   GL1 1468   9.729   1.733   7.619
   82POPC   GL2 1469   9.365   1.593   7.593
   82POPC   C1A 1470   9.921   2.008   7.286
   82POPC   D2A 1471  10.106   1.890   6.894
   82POPC   C3A 1472   9.862   1.847   6.482
   82POPC   C4A 1473   9.938   1.686   6.096
   82POPC   C1B 1474   9.451   1.831   7.211
   82POPC   C2B 1475   9.648   2.078   6.862
   82POPC   C3B 1476   9.602   2.343   6.472
   82POPC   C4B 1477   9.396   2.372   6.050
   83POPC   NC3 1478   0.813   5.687   8.178
   83POPC   PO4 1479   0.185   5.853   8.239
   83POPC   GL1 1480   0.220   5.945   7.776
   83POPC   GL2 1481   0.584   5.982   7.746
   83POPC   C1A 1482   0.216   5.748   7.341
   83POPC   D2A 1483   0.542   5.570   7.062
   83POPC   C3A 1484   0.466   5.581   6.611
   83POPC   C4A 1485   0.741   5.661   6.276
   83POPC   C1B 1486   0.544   6.124   7.305
   83POPC   C2B 1487   0.389   6.044   6.879
   83POPC   C3B 1488   0.438   6.056   6.414
   83POPC   C4B 1489   0.108   5.818   6.235
   84POPC   NC3 1490  10.364  10.091   8.105
   84POPC   PO4 1491  10.027  10.729   8.078
   84POPC   GL1 1492  10.183  10.424   7.708
   84POPC   GL2 1493  10.496  10.186   7.631
   84POPC   C1A 1494  10.316  10.501   7.272
   84POPC   D2A 1495  10.265  10.799   6.940
   84POPC   C3A 1496  10.256  10.633   6.547
   84POPC   C4A 1497  10.203  10.770   6.119
   84POPC   C1B 1498  10.826  10.402   7.409
   84POPC   C2B 1499  10.795  10.696   7.070
   84POPC   C3B 1500  10.812  10.696   6.621
   84POPC   C4B 1501  10.620  10.466   6.245
   85POPC   NC3 1502   4.410   0.445   7.885
   85POPC   PO4 1503   4.057  11.472   8.181
   85POPC   GL1 1504   3.949   0.195   7.727
   85POPC   GL2 1505   3.994   0.548   7.622
   85POPC   C1A 1506   4.006   0.240   7.222
   85POPC   D2A 1507   3.916   0.492   6.821
   85POPC   C3A 1508   4.039   0.317   6.398
   85POPC   C4A 1509   4.146   0.385   5.966
   85POPC   C1B 1510   4.321   0.651   7.296
   85POPC   C2B 1511   4.419   0.505   6.921
   85POPC   C3B 1512   4.404   0.661   6.520
   85POPC   C4B 1513   4.614   0.560   6.178
   86POPC   NC3 1514   1.947   1.810   8.066
   86POPC   PO4 1515   1.985   2.483   7.848
   86POPC   GL1 1516   2.077   2.222   7.572
   86POPC   GL2 1517   1.953   1.873   7.548
   86POPC   C1A 1518   2.118   2.323   7.151
   86POPC   D2A 1519   1.993   2.051   6.828
   86POPC   C3A 1520   2.070   2.226   6.419
   86POPC   C4A 1521   1.853   2.458   6.119
   86POPC   C1B 1522   1.821   1.623   7.195
   86POPC   C2B 1523   1.957   1.518   6.764
   86POPC   C3B 1524   1.806   1.606   6.343
   86POPC   C4B 1525   1.917   1.896   6.013
   87POPC   NC3 1526   9.564   3.717   8.122
   87POPC   PO4 1527   9.810   3.153   8.235
   87POPC   GL1 1528   9.758   3.335   7.789
   87POPC   GL2 1529   9.460   3.149   7.808
   87POPC   C1A 1530   9.851   3.371   7.291
   87POPC   D2A 1531   9.841   3.715   6.899
   87POPC   C3A 1532   9.810   3.543   6.464
   87POPC   C4A 1533   9.814   3.129   6.502
   87POPC   C1B 1534   9.376   3.198   7.373
   87POPC   C2B 1535   9.454   3.379   6.945
   87POPC   C3B 1536   9.327   3.280   6.531
   87POPC   C4B 1537   9.348   3.455   6.148
   88POPC   NC3 1538   8.918   9.057   8.125
   88POPC   PO4 1539   9.252   8.489   8.053
   88POPC   GL1 1540   8.936   8.706   7.728
   88POPC   GL2 1541   8.923   9.091   7.631
   88POPC   C1A 1542   8.692   8.765   7.331
   88POPC   D2A 1543   8.843   8.844   6.906
   88POPC   C3A 1544   8.691   8.672   6.524
   88POPC   C4A 1545   8.438   8.817   6.169
   88POPC   C1B 1546   8.989   9.235   7.211
   88POPC   C2B 1547   8.782   9.321   6.787
   88POPC   C3B 1548   8.829   9.159   6.329
   88POPC   C4B 1549   9.159   9.107   5.966
   89POPC   NC3 1550   2.655   1.365   8.024
   89POPC   PO4 1551   2.304   0.762   8.130
   89POPC   GL1 1552   2.418   0.981   7.693
   89POPC   GL2 1553   2.606   1.294   7.541
   89POPC   C1A 1554   2.600   0.893   7.248
   89POPC   D2A 1555   2.874   0.923   6.877
   89POPC   C3A 1556   2.719   0.918   6.453
   89POPC   C4A 1557   2.424   0.865   6.166
   89POPC   C1B 1558   3.033   1.401   7.386
   89POPC   C2B 1559   3.129   1.366   6.946
   89POPC   C3B 1560   3.076   1.268   6.511
   89POPC   C4B 1561   2.711   1.416   6.258
   90POPC   NC3 1562   9.629   8.225   8.093
   90POPC   PO4 1563   9.440   7.668   8.053
   90POPC   GL1 1564   9.322   8.060   7.709
   90POPC   GL2 1565   9.548   8.356   7.637
   90POPC   C1A 1566   9.280   8.259   7.259
   90POPC   D2A 1567   9.482   8.113   6.935
   90POPC   C3A 1568   9.542   8.194   6.565
   90POPC   C4A 1569   9.448   7.971   6.209
   90POPC   C1B 1570   9.727   7.986   7.345
   90POPC   C2B 1571   9.897   7.825   6.889
   90POPC   C3B 1572   9.943   7.920   6.402
   90POPC   C4B 1573   9.838   8.357   6.192
   91POPC   NC3 1574   6.667   1.682   7.996
   91POPC   PO4 1575   7.027   2.239   7.920
   91POPC   GL1 1576   6.959   1.907   7.595
   91POPC   GL2 1577   6.589   1.816   7.527
   91POPC   C1A 1578   6.915   1.819   7.157
   91POPC   D2A 1579   6.768   2.075   6.826
   91POPC   C3A 1580   6.861   1.829   6.488
   91POPC   C4A 1581   6.734   1.677   6.153
   91POPC   C1B 1582   6.207   1.772   7.280
   91POPC   C2B 1583   6.111   1.928   6.874
   91POPC   C3B 1584   6.349   2.015   6.524
   91POPC   C4B 1585   6.180   2.336   6.247
   92POPC   NC3 1586   6.302   3.434   8.320
   92POPC   PO4 1587   6.611   3.020   8.155
   92POPC   GL1 1588   6.473   3.245   7.758
   92POPC   GL2 1589   6.490   3.594   7.846
   92POPC   C1A 1590   6.440   3.199   7.255
   92POPC   D2A 1591   6.656   3.203   6.827
   92POPC   C3A 1592   6.427   3.248   6.412
   92POPC   C4A 1593   6.492   3.200   5.945
   92POPC   C1B 1594   6.654   3.627   7.425
   92POPC   C2B 1595   6.477   3.661   6.999
   92POPC   C3B 1596   6.662   3.671   6.586
   92POPC   C4B 1597   6.528   3.702   6.151
   93POPC   NC3 1598   8.062   1.389   8.137
   93POPC   PO4 1599   7.735   0.793   7.952
   93POPC   GL1 1600   7.917   1.087   7.615
   93POPC   GL2 1601   8.234   1.274   7.640
   93POPC   C1A 1602   7.929   1.329   7.199
   93POPC   D2A 1603   7.633   1.356   6.828
   93POPC   C3A 1604   7.842   1.160   6.470
   93POPC   C4A 1605   7.965   1.099   6.005
   93POPC   C1B 1606   8.295   0.890   7.327
   93POPC   C2B 1607   8.316   0.785   6.856
   93POPC   C3B 1608   8.275   0.898   6.401
   93POPC   C4B 1609   8.299   1.355   6.290
   94POPC   NC3 1610   6.377  10.743   8.136
   94POPC   PO4 1611   6.494  10.043   8.107
   94POPC   GL1 1612   6.486  10.360   7.790
   94POPC   GL2 1613   6.807  10.377   7.634
   94POPC   C1A 1614   6.388  10.562   7.385
   94POPC   D2A 1615   6.511  10.567   6.911
   94POPC   C3A 1616   6.237  10.682   6.539
   94POPC   C4A 1617   6.253  10.621   6.060
   94POPC   C1B 1618   6.626  10.104   7.338
   94POPC   C2B 1619   6.723  10.037   6.919
   94POPC   C3B 1620   6.789  10.298   6.578
   94POPC   C4B 1621   6.503  10.223   6.301
   95POPC   NC3 1622   6.867   2.661   8.030
   95POPC   PO4 1623   7.554   2.689   8.180
   95POPC   GL1 1624   7.328   2.734   7.757
   95POPC   GL2 1625   7.356   2.452   7.586
   95POPC   C1A 1626   7.024   2.723   7.344
   95POPC   D2A 1627   7.067   2.487   6.917
   95POPC   C3A 1628   7.076   2.731   6.508
   95POPC   C4A 1629   6.913   3.095   6.240
   95POPC   C1B 1630   7.499   2.603   7.193
   95POPC   C2B 1631   7.558   2.375   6.825
   95POPC   C3B 1632   7.594   2.545   6.437
   95POPC   C4B 1633   7.436   2.869   6.150
   96POPC   NC3 1634  11.126   2.123   8.095
   96POPC   PO4 1635  11.386   1.461   8.047
   96POPC   GL1 1636  11.258   1.780   7.741
   96POPC   GL2 1637  11.370   1.554   7.510
   96POPC   C1A 1638  11.061   1.957   7.357
   96POPC   D2A 1639  11.064   1.772   6.943
   96POPC   C3A 1640  11.145   2.023   6.562
   96POPC   C4A 1641  11.165   1.844   6.150
   96POPC   C1B 1642   0.034   1.815   7.191
   96POPC   C2B 1643   0.035   1.766   6.768
   96POPC   C3B 1644   0.137   1.911   6.401
   96POPC   C4B 1645   0.258   1.528   6.282
   97POPC   NC3 1646   5.233   0.766   8.166
   97POPC   PO4 1647   5.090   1.365   8.034
   97POPC   GL1 1648   5.004   1.104   7.693
   97POPC   GL2 1649   5.225   0.875   7.548
   97POPC   C1A 1650   4.755   1.100   7.296
   97POPC   D2A 1651   4.658   0.950   6.865
   97POPC   C3A 1652   4.920   0.843   6.522
   97POPC   C4A 1653   4.750   1.058   6.167
   97POPC   C1B 1654   5.230   1.267   7.285
   97POPC   C2B 1655   5.051   1.350   6.895
   97POPC   C3B 1656   5.051   1.333   6.464
   97POPC   C4B 1657   5.299   1.410   6.108
   98POPC   NC3 1658   0.310   3.642   7.860
   98POPC   PO4 1659   0.305   3.051   8.245
   98POPC   GL1 1660   0.580   3.083   7.759
   98POPC   GL2 1661   0.787   3.386   7.706
   98POPC   C1A 1662   0.487   3.149   7.250
   98POPC   D2A 1663   0.069   3.204   6.977
   98POPC   C3A 1664   0.057   3.079   6.524
   98POPC   C4A 1665   0.384   3.200   6.177
   98POPC   C1B 1666   0.750   3.589   7.266
   98POPC   C2B 1667   0.560   3.571   6.810
   98POPC   C3B 1668   0.617   3.650   6.328
   98POPC   C4B 1669   0.624   3.659   5.838
   99POPC   NC3 1670  10.275   6.558   7.978
   99POPC   PO4 1671  10.757   7.025   7.754
   99POPC   GL1 1672  10.416   6.871   7.598
   99POPC   GL2 1673  10.602   6.548   7.593
   99POPC   C1A 1674  10.380   6.806   7.171
   99POPC   D2A 1675  10.424   6.688   6.727
   99POPC   C3A 1676  10.581   6.975   6.427
   99POPC   C4A 1677  10.328   7.067   6.094
   99POPC   C1B 1678  10.509   6.311   7.241
   99POPC   C2B 1679  10.318   6.203   6.860
   99POPC   C3B 1680  10.389   6.265   6.419
   99POPC   C4B 1681  10.205   6.154   6.035
  100POPC   NC3 1682  10.547   5.805   8.093
  100POPC   PO4 1683   9.955   6.179   7.980
  100POPC   GL1 1684  10.321   6.105   7.704
  100POPC   GL2 1685  10.209   5.778   7.692
  100POPC   C1A 1686  10.609   5.838   7.406
  100POPC   D2A 1687  10.788   5.639   7.046
  100POPC   C3A 1688  10.699   5.884   6.688
  100POPC   C4A 1689  10.701   5.884   6.254
  100POPC   C1B 1690  10.133   5.906   7.262
  100POPC   C2B 1691  10.260   5.702   6.882
  100POPC   C3B 1692  10.235   5.765   6.437
  100POPC   C4B 1693  10.304   5.657   5.985
  101POPC   NC3 1694  11.435   2.868   8.039
  101POPC   PO4 1695  10.810   3.149   8.247
  101POPC   GL1 1696  10.997   2.948   7.769
  101POPC   GL2 1697  11.277   2.849   7.568
  101POPC   C1A 1698  10.938   3.030   7.266
  101POPC   D2A 1699  11.197   2.819   6.982
  101POPC   C3A 1700  10.990   2.658   6.671
  101POPC   C4A 1701  11.146   2.723   6.323
  101POPC   C1B 1702  11.226   2.457   7.349
  101POPC   C2B 1703  11.385   2.280   6.965
  101POPC   C3B 1704   0.026   2.425   6.568
  101POPC   C4B 1705  11.378   2.299   6.166
  102POPC   NC3 1706   3.637   2.952   8.039
  102POPC   PO4 1707   3.148   2.456   8.040
  102POPC   GL1 1708   3.319   2.706   7.711
  102POPC   GL2 1709   3.666   2.566   7.653
  102POPC   C1A 1710   3.271   2.896   7.300
  102POPC   D2A 1711   3.122   2.793   6.870
  102POPC   C3A 1712   3.303   2.949   6.470
  102POPC   C4A 1713   3.294   2.873   6.000
  102POPC   C1B 1714   3.567   2.444   7.211
  102POPC   C2B 1715   3.625   2.597   6.765
  102POPC   C3B 1716   3.680   2.603   6.310
  102POPC   C4B 1717   3.607   2.464   5.892
  103POPC   NC3 1718   9.546   7.228   8.116
  103POPC   PO4 1719  10.179   6.996   8.103
  103POPC   GL1 1720   9.936   7.087   7.733
  103POPC   GL2 1721   9.836   7.443   7.722
  103POPC   C1A 1722   9.831   6.987   7.288
  103POPC   D2A 1723   9.756   7.232   6.884
  103POPC   C3A 1724   9.610   7.046   6.445
  103POPC   C4A 1725   9.771   6.965   6.010
  103POPC   C1B 1726   9.525   7.519   7.393
  103POPC   C2B 1727   9.424   7.613   6.971
  103POPC   C3B 1728   9.544   7.600   6.551
  103POPC   C4B 1729   9.286   7.406   6.254
  104POPC   NC3 1730   5.506  10.361   8.446
  104POPC   PO4 1731   5.880   9.728   8.188
  104POPC   GL1 1732   5.584   9.877   7.873
  104POPC   GL2 1733   5.592   9.567   7.692
  104POPC   C1A 1734   5.531   9.989   7.420
  104POPC   D2A 1735   5.808   9.945   7.023
  104POPC   C3A 1736   5.687   9.899   6.568
  104POPC   C4A 1737   5.517   9.790   6.125
  104POPC   C1B 1738   5.598   9.501   7.236
  104POPC   C2B 1739   5.841   9.476   6.849
  104POPC   C3B 1740   5.785   9.427   6.397
  104POPC   C4B 1741   6.083   9.292   6.096
  105POPC   NC3 1742   1.995  11.400   8.163
  105POPC   PO4 1743   1.774  10.810   8.089
  105POPC   GL1 1744   1.786  11.109   7.732
  105POPC   GL2 1745   2.083  11.306   7.673
  105POPC   C1A 1746   1.876  11.055   7.298
  105POPC   D2A 1747   1.714  11.083   6.909
  105POPC   C3A 1748   1.968  11.091   6.545
  105POPC   C4A 1749   1.943  10.901   6.153
  105POPC   C1B 1750   2.287  11.431   7.301
  105POPC   C2B 1751   2.141  11.398   6.896
  105POPC   C3B 1752   2.357  11.435   6.486
  105POPC   C4B 1753   2.113  11.379   6.131
  106POPC   NC3 1754   4.228  10.020   7.984
  106POPC   PO4 1755   4.794   9.492   8.056
  106POPC   GL1 1756   4.561   9.725   7.727
  106POPC   GL2 1757   4.211   9.573   7.698
  106POPC   C1A 1758   4.458   9.837   7.294
  106POPC   D2A 1759   4.320   9.629   6.894
  106POPC   C3A 1760   4.373   9.908   6.531
  106POPC   C4A 1761   4.624   9.901   6.184
  106POPC   C1B 1762   3.968   9.649   7.305
  106POPC   C2B 1763   3.827   9.467   6.888
  106POPC   C3B 1764   3.939   9.620   6.459
  106POPC   C4B 1765   4.227   9.599   6.101
  107POPC   NC3 1766   2.717   9.473   8.079
  107POPC   PO4 1767   2.406  10.050   7.939
  107POPC   GL1 1768   2.754   9.840   7.701
  107POPC   GL2 1769   3.091   9.635   7.731
  107POPC   C1A 1770   2.826   9.841   7.283
  107POPC   D2A 1771   2.743   9.971   6.875
  107POPC   C3A 1772   2.442   9.820   6.671
  107POPC   C4A 1773   2.588   9.648   6.332
  107POPC   C1B 1774   3.012   9.377   7.326
  107POPC   C2B 1775   2.835   9.462   6.910
  107POPC   C3B 1776   3.039   9.570   6.526
  107POPC   C4B 1777   2.933   9.342   6.114
  108POPC   NC3 1778   6.891   8.727   8.031
  108POPC   PO4 1779   7.575   8.492   8.052
  108POPC   GL1 1780   7.512   8.827   7.746
  108POPC   GL2 1781   7.209   9.018   7.725
  108POPC   C1A 1782   7.507   8.846   7.287
  108POPC   D2A 1783   7.395   8.701   6.854
  108POPC   C3A 1784   7.629   8.764   6.491
  108POPC   C4A 1785   7.417   8.649   6.144
  108POPC   C1B 1786   7.134   9.223   7.321
  108POPC   C2B 1787   7.313   9.194   6.898
  108POPC   C3B 1788   7.175   9.005   6.479
  108POPC   C4B 1789   7.302   9.147   6.050
  109POPC   NC3 1790  10.512   2.905   7.928
  109POPC   PO4 1791  10.761   2.260   7.860
  109POPC   GL1 1792  10.498   2.493   7.597
  109POPC   GL2 1793  10.137   2.423   7.494
  109POPC   C1A 1794  10.729   2.556   7.232
  109POPC   D2A 1795  10.875   2.250   6.948
  109POPC   C3A 1796  10.687   2.258   6.528
  109POPC   C4A 1797  10.452   2.574   6.359
  109POPC   C1B 1798  10.255   2.787   7.229
  109POPC   C2B 1799  10.575   2.890   6.892
  109POPC   C3B 1800  10.618   3.020   6.489
  109POPC   C4B 1801  10.256   3.130   6.223
  110POPC   NC3 1802   9.693   8.777   8.065
  110POPC   PO4 1803   9.327   9.284   7.929
  110POPC   GL1 1804   9.401   8.895   7.662
  110POPC   GL2 1805   9.726   8.816   7.540
  110POPC   C1A 1806   9.272   8.778   7.229
  110POPC   D2A 1807   9.320   9.024   6.835
  110POPC   C3A 1808   9.210   8.854   6.446
  110POPC   C4A 1809   9.422   8.680   6.100
  110POPC   C1B 1810   9.744   8.504   7.207
  110POPC   C2B 1811   9.904   8.462   6.812
  110POPC   C3B 1812   9.705   8.706   6.532
  110POPC   C4B 1813   9.904   8.855   6.171
  111POPC   NC3 1814   2.925  10.226   8.027
  111POPC   PO4 1815   2.602  10.767   8.080
  111POPC   GL1 1816   2.893  10.681   7.766
  111POPC   GL2 1817   2.662  10.443   7.652
  111POPC   C1A 1818   3.014  10.709   7.346
  111POPC   D2A 1819   2.743  10.752   6.987
  111POPC   C3A 1820   2.961  10.723   6.600
  111POPC   C4A 1821   2.792  10.615   6.220
  111POPC   C1B 1822   2.602  10.311   7.267
  111POPC   C2B 1823   2.361  10.384   6.931
  111POPC   C3B 1824   2.549  10.367   6.591
  111POPC   C4B 1825   2.564  10.135   6.237
  112POPC   NC3 1826   7.827  11.148   7.980
  112POPC   PO4 1827   8.456  10.921   7.965
  112POPC   GL1 1828   8.229  11.182   7.639
  112POPC   GL2 1829   7.913  11.435   7.586
  112POPC   C1A 1830   8.230  11.008   7.226
  112POPC   D2A 1831   8.426  10.790   6.910
  112POPC   C3A 1832   8.459  11.007   6.579
  112POPC   C4A 1833   8.488  11.117   6.190
  112POPC   C1B 1834   8.079   0.002   7.239
  112POPC   C2B 1835   8.024  11.316   6.874
  112POPC   C3B 1836   8.143  11.385   6.474
  112POPC   C4B 1837   7.982  11.140   6.140
  113POPC   NC3 1838   2.411   2.333   7.978
  113POPC   PO4 1839   2.496   1.734   8.269
  113POPC   GL1 1840   2.634   1.905   7.806
  113POPC   GL2 1841   2.892   2.070   7.833
  113POPC   C1A 1842   2.437   1.956   7.346
  113POPC   D2A 1843   2.501   2.011   6.914
  113POPC   C3A 1844   2.349   1.789   6.522
  113POPC   C4A 1845   2.422   1.944   6.102
  113POPC   C1B 1846   2.932   1.959   7.381
  113POPC   C2B 1847   3.041   2.004   6.939
  113POPC   C3B 1848   3.102   2.202   6.545
  113POPC   C4B 1849   2.923   1.965   6.203
  114POPC   NC3 1850   4.439   9.205   8.049
  114POPC   PO4 1851   3.826   9.240   8.057
  114POPC   GL1 1852   3.875   9.182   7.616
  114POPC   GL2 1853   4.122   8.955   7.686
  114POPC   C1A 1854   4.119   9.177   7.209
  114POPC   D2A 1855   4.087   8.986   6.788
  114POPC   C3A 1856   4.214   9.171   6.379
  114POPC   C4A 1857   4.279   9.127   5.911
  114POPC   C1B 1858   4.356   8.742   7.359
  114POPC   C2B 1859   4.567   8.761   6.963
  114POPC   C3B 1860   4.578   8.843   6.514
  114POPC   C4B 1861   4.318   8.684   6.156
  115POPC   NC3 1862  10.974   1.368   7.839
  115POPC   PO4 1863  10.615   1.761   8.219
  115POPC   GL1 1864  10.651   1.776   7.723
  115POPC   GL2 1865  10.344   1.924   7.574
  115POPC   C1A 1866  10.651   1.635   7.253
  115POPC   D2A 1867  10.585   1.840   6.815
  115POPC   C3A 1868  10.740   1.719   6.424
  115POPC   C4A 1869  10.676   1.853   5.977
  115POPC   C1B 1870  10.465   2.115   7.234
  115POPC   C2B 1871  10.349   2.373   6.916
  115POPC   C3B 1872  10.113   2.274   6.564
  115POPC   C4B 1873  10.311   1.984   6.293
  116POPC   NC3 1874  10.942   6.722   8.034
  116POPC   PO4 1875  11.463   6.351   7.996
  116POPC   GL1 1876  11.448   6.395   7.629
  116POPC   GL2 1877  11.287   6.723   7.655
  116POPC   C1A 1878   0.020   6.234   7.244
  116POPC   D2A 1879  11.261   6.338   6.887
  116POPC   C3A 1880  11.490   6.214   6.581
  116POPC   C4A 1881   0.068   6.374   6.213
  116POPC   C1B 1882  11.053   6.538   7.340
  116POPC   C2B 1883  10.865   6.673   6.983
  116POPC   C3B 1884  11.022   6.757   6.572
  116POPC   C4B 1885  11.210   6.727   6.178
  117POPC   NC3 1886   2.191  10.480   7.993
  117POPC   PO4 1887   1.609   9.972   8.034
  117POPC   GL1 1888   1.591  10.241   7.656
  117POPC   GL2 1889   1.732  10.566   7.653
  117POPC   C1A 1890   1.695  10.169   7.230
  117POPC   D2A 1891   2.024   9.991   6.948
  117POPC   C3A 1892   2.053  10.111   6.509
  117POPC   C4A 1893   1.817  10.350   6.182
  117POPC   C1B 1894   2.021  10.553   7.312
  117POPC   C2B 1895   1.848  10.536   6.897
  117POPC   C3B 1896   2.044  10.601   6.558
  117POPC   C4B 1897   2.279  10.538   6.197
  118POPC   NC3 1898   2.789   0.526   8.046
  118POPC   PO4 1899   2.254   0.195   7.949
  118POPC   GL1 1900   2.421   0.463   7.676
  118POPC   GL2 1901   2.717   0.287   7.596
  118POPC   C1A 1902   2.369   0.445   7.237
  118POPC   D2A 1903   2.473   0.267   6.876
  118POPC   C3A 1904   2.465   0.480   6.523
  118POPC   C4A 1905   2.311   0.360   6.146
  118POPC   C1B 1906   2.860   0.151   7.191
  118POPC   C2B 1907   2.965   0.216   6.754
  118POPC   C3B 1908   2.848   0.173   6.345
  118POPC   C4B 1909   3.093   0.148   5.981
  119POPC   NC3 1910   2.939  11.075   8.106
  119POPC   PO4 1911   3.083   0.142   8.039
  119POPC   GL1 1912   2.967  11.350   7.680
  119POPC   GL2 1913   2.599  11.242   7.730
  119POPC   C1A 1914   2.826  11.167   7.288
  119POPC   D2A 1915   2.623  11.263   6.918
  119POPC   C3A 1916   2.828  11.216   6.555
  119POPC   C4A 1917   2.936  11.161   6.143
  119POPC   C1B 1918   2.389  10.928   7.421
  119POPC   C2B 1919   2.244  10.893   6.973
  119POPC   C3B 1920   2.452  10.884   6.578
  119POPC   C4B 1921   2.464  11.014   6.170
  120POPC   NC3 1922   1.553  10.415   8.152
  120POPC   PO4 1923   0.961  10.727   8.124
  120POPC   GL1 1924   1.225  10.629   7.792
  120POPC   GL2 1925   1.077  10.307   7.753
  120POPC   C1A 1926   1.121  10.709   7.357
  120POPC   D2A 1927   0.871  10.546   6.990
  120POPC   C3A 1928   1.095  10.599   6.577
  120POPC   C4A 1929   1.528  10.682   6.417
  120POPC   C1B 1930   1.140  10.199   7.322
  120POPC   C2B 1931   1.290  10.243   6.922
  120POPC   C3B 1932   1.552  10.144   6.610
  120POPC   C4B 1933   1.303  10.173   6.258
  121POPC   NC3 1934   9.905   1.234   8.055
  121POPC   PO4 1935   9.244   1.342   8.066
  121POPC   GL1 1936   9.512   1.114   7.724
  121POPC   GL2 1937   9.878   1.130   7.572
  121POPC   C1A 1938   9.541   0.847   7.335
  121POPC   D2A 1939   9.542   1.003   6.898
  121POPC   C3A 1940   9.275   1.098   6.553
  121POPC   C4A 1941   9.511   0.945   6.215
  121POPC   C1B 1942   9.683   1.357   7.259
  121POPC   C2B 1943   9.786   1.493   6.864
  121POPC   C3B 1944   9.696   1.373   6.451
  121POPC   C4B 1945   9.981   1.179   6.157
  122POPC   NC3 1946   9.918   0.235   8.018
  122POPC   PO4 1947   9.609   0.770   8.259
  122POPC   GL1 1948   9.758   0.689   7.831
  122POPC   GL2 1949   9.540   0.461   7.757
  122POPC   C1A 1950   9.951   0.541   7.424
  122POPC   D2A 1951  10.044   0.323   7.029
  122POPC   C3A 1952   9.826   0.525   6.687
  122POPC   C4A 1953   9.980   0.687   6.306
  122POPC   C1B 1954   9.409   0.335   7.371
  122POPC   C2B 1955   9.376   0.491   6.977
  122POPC   C3B 1956   9.317   0.333   6.566
  122POPC   C4B 1957   9.569   0.422   6.221
  123POPC   NC3 1958   5.076  11.405   8.399
  123POPC   PO4 1959   5.583   0.032   7.924
  123POPC   GL1 1960   5.390  11.265   7.603
  123POPC   GL2 1961   5.087  11.108   7.737
  123POPC   C1A 1962   5.275  11.343   7.156
  123POPC   D2A 1963   5.231   0.027   6.741
  123POPC   C3A 1964   5.163  11.232   6.414
  123POPC   C4A 1965   5.439  11.020   6.131
  123POPC   C1B 1966   4.819  11.230   7.402
  123POPC   C2B 1967   4.806  11.152   6.973
  123POPC   C3B 1968   4.710  11.361   6.628
  123POPC   C4B 1969   4.675  11.351   6.202
  124POPC   NC3 1970   0.431   9.097   8.257
  124POPC   PO4 1971   0.605   8.549   8.018
  124POPC   GL1 1972   0.517   8.820   7.688
  124POPC   GL2 1973   0.171   8.948   7.684
  124POPC   C1A 1974   0.573   8.915   7.260
  124POPC   D2A 1975   0.344   9.049   6.895
  124POPC   C3A 1976   0.604   8.901   6.567
  124POPC   C4A 1977   0.663   8.534   6.337
  124POPC   C1B 1978   0.166   8.631   7.320
  124POPC   C2B 1979   0.207   8.533   6.860
  124POPC   C3B 1980   0.183   8.640   6.409
  124POPC   C4B 1981   0.323   9.037   6.155
  125POPC   NC3 1982   4.202   0.388   8.350
  125POPC   PO4 1983   3.602   0.575   8.224
  125POPC   GL1 1984   3.500   0.535   7.756
  125POPC   GL2 1985   3.333   0.232   7.606
  125POPC   C1A 1986   3.600   0.523   7.280
  125POPC   D2A 1987   3.534   0.180   6.956
  125POPC   C3A 1988   3.530   0.316   6.505
  125POPC   C4A 1989   3.622   0.220   6.062
  125POPC   C1B 1990   3.106   0.563   7.332
  125POPC   C2B 1991   3.269   0.617   6.873
  125POPC   C3B 1992   3.121   0.608   6.417
  125POPC   C4B 1993   3.301   0.626   5.989
  126POPC   NC3 1994   0.954   8.865   8.007
  126POPC   PO4 1995   1.504   8.599   8.382
  126POPC   GL1 1996   1.485   8.763   7.854
  126POPC   GL2 1997   1.300   9.078   7.710
  126POPC   C1A 1998   1.603   8.858   7.362
  126POPC   D2A 1999   1.697   8.817   6.913
  126POPC   C3A 2000   1.757   9.114   6.582
  126POPC   C4A 2001   1.533   9.056   6.190
  126POPC   C1B 2002   1.083   8.831   7.363
  126POPC   C2B 2003   0.968   8.976   6.961
  126POPC   C3B 2004   1.140   8.913   6.608
  126POPC   C4B 2005   1.080   8.815   6.242
  127POPC   NC3 2006   9.667  10.507   7.871
  127POPC   PO4 2007   9.159  10.240   8.170
  127POPC   GL1 2008   9.370  10.101   7.690
  127POPC   GL2 2009   9.757  10.169   7.521
  127POPC   C1A 2010   9.404  10.154   7.186
  127POPC   D2A 2011   9.445   9.986   6.775
  127POPC   C3A 2012   9.415  10.265   6.411
  127POPC   C4A 2013   9.392  10.188   5.964
  127POPC   C1B 2014   9.803  10.506   7.204
  127POPC   C2B 2015   9.758  10.499   6.756
  127POPC   C3B 2016   9.804  10.559   6.325
  127POPC   C4B 2017   9.880  10.308   5.996
  128POPC   NC3 2018   3.476   8.972   7.914
  128POPC   PO4 2019   3.016   8.476   7.858
  128POPC   GL1 2020   3.291   8.709   7.518
  128POPC   GL2 2021   3.677   8.698   7.532
  128POPC   C1A 2022   3.141   8.827   7.097
  128POPC   D2A 2023   3.186   8.508   6.755
  128POPC   C3A 2024   3.166   8.692   6.384
  128POPC   C4A 2025   3.078   9.071   6.525
  128POPC   C1B 2026   3.638   8.979   7.179
  128POPC   C2B 2027   3.541   8.904   6.750
  128POPC   C3B 2028   3.763   8.866   6.384
  128POPC   C4B 2029   3.839   8.795   5.968
  129POPC   NC3 2030  10.495   0.678   8.298
  129POPC   PO4 2031  10.363   0.167   8.000
  129POPC   GL1 2032  10.490   0.308   7.632
  129POPC   GL2 2033  10.548   0.649   7.681
  129POPC   C1A 2034  10.497   0.109   7.202
  129POPC   D2A 2035  10.483   0.116   6.750
  129POPC   C3A 2036  10.135   0.156   6.480
  129POPC   C4A 2037  10.197   0.296   6.043
  129POPC   C1B 2038  10.426   0.616   7.234
  129POPC   C2B 2039  10.334   0.659   6.801
  129POPC   C3B 2040  10.462   0.534   6.433
  129POPC   C4B 2041  10.768   0.626   6.194
  130POPC   NC3 2042   2.470   7.219   8.098
  130POPC   PO4 2043   2.860   7.594   7.950
  130POPC   GL1 2044   2.563   7.410   7.621
  130POPC   GL2 2045   2.362   7.063   7.599
  130POPC   C1A 2046   2.602   7.474   7.162
  130POPC   D2A 2047   2.652   7.757   6.787
  130POPC   C3A 2048   2.638   7.547   6.387
  130POPC   C4A 2049   2.346   7.252   6.224
  130POPC   C1B 2050   2.307   7.064   7.111
  130POPC   C2B 2051   2.537   7.148   6.717
  130POPC   C3B 2052   2.692   6.904   6.345
  130POPC   C4B 2053   2.598   6.954   5.871
  131POPC   NC3 2054   1.113   1.864   8.083
  131POPC   PO4 2055   1.680   2.291   8.230
  131POPC   GL1 2056   1.571   2.092   7.811
  131POPC   GL2 2057   1.230   2.208   7.715
  131POPC   C1A 2058   1.595   2.177   7.337
  131POPC   D2A 2059   1.372   2.160   6.940
  131POPC   C3A 2060   1.561   1.995   6.565
  131POPC   C4A 2061   1.477   2.108   6.153
  131POPC   C1B 2062   1.040   2.011   7.347
  131POPC   C2B 2063   0.900   1.953   6.918
  131POPC   C3B 2064   1.041   2.054   6.491
  131POPC   C4B 2065   1.051   1.862   6.061
  132POPC   NC3 2066   5.260   9.527   8.086
  132POPC   PO4 2067   5.230  10.166   8.136
  132POPC   GL1 2068   5.027   9.982   7.741
  132POPC   GL2 2069   5.081   9.633   7.626
  132POPC   C1A 2070   5.035   9.955   7.259
  132POPC   D2A 2071   5.310   9.819   6.957
  132POPC   C3A 2072   5.016   9.629   6.697
  132POPC   C4A 2073   5.071   9.632   6.293
  132POPC   C1B 2074   5.066   9.423   7.198
  132POPC   C2B 2075   4.908   9.132   6.847
  132POPC   C3B 2076   5.024   9.119   6.399
  132POPC   C4B 2077   5.169   9.251   5.950
  133POPC   NC3 2078   5.747   1.614   8.043
  133POPC   PO4 2079   5.916   0.948   8.147
  133POPC   GL1 2080   5.943   1.206   7.781
  133POPC   GL2 2081   5.592   1.246   7.675
  133POPC   C1A 2082   6.055   1.285   7.347
  133POPC   D2A 2083   6.054   1.423   6.903
  133POPC   C3A 2084   5.904   1.240   6.532
  133POPC   C4A 2085   6.108   0.975   6.267
  133POPC   C1B 2086   5.660   0.981   7.293
  133POPC   C2B 2087   5.549   1.101   6.892
  133POPC   C3B 2088   5.443   1.013   6.489
  133POPC   C4B 2089   5.624   1.009   6.088
  134POPC   NC3 2090   9.384   9.698   8.164
  134POPC   PO4 2091   9.896  10.103   7.999
  134POPC   GL1 2092   9.695   9.716   7.744
  134POPC   GL2 2093   9.764   9.356   7.694
  134POPC   C1A 2094   9.702   9.713   7.290
  134POPC   D2A 2095   9.827   9.491   6.940
  134POPC   C3A 2096   9.736   9.636   6.542
  134POPC   C4A 2097   9.728   9.873   6.189
  134POPC   C1B 2098   9.566   9.209   7.289
  134POPC   C2B 2099   9.811   8.969   6.975
  134POPC   C3B 2100   9.931   9.160   6.574
  134POPC   C4B 2101   9.560   9.206   6.299
  135POPC   NC3 2102   8.830   1.507   7.962
  135POPC   PO4 2103   8.408   1.068   8.133
  135POPC   GL1 2104   8.657   0.984   7.741
  135POPC   GL2 2105   8.996   1.100   7.709
  135POPC   C1A 2106   8.686   1.207   7.325
  135POPC   D2A 2107   8.869   1.192   6.940
  135POPC   C3A 2108   8.666   1.119   6.623
  135POPC   C4A 2109   8.744   1.119   6.225
  135POPC   C1B 2110   9.202   1.225   7.306
  135POPC   C2B 2111   9.284   1.466   6.909
  135POPC   C3B 2112   8.971   1.556   6.600
  135POPC   C4B 2113   9.122   1.471   6.234
  136POPC   NC3 2114   9.159   0.863   8.187
  136POPC   PO4 2115   8.719   0.377   8.027
  136POPC   GL1 2116   9.031   0.538   7.799
  136POPC   GL2 2117   9.118   0.179   7.771
  136POPC   C1A 2118   9.052   0.726   7.401
  136POPC   D2A 2119   8.773   0.719   7.087
  136POPC   C3A 2120   8.997   0.722   6.715
  136POPC   C4A 2121   9.070   0.702   6.270
  136POPC   C1B 2122   8.895   0.252   7.386
  136POPC   C2B 2123   8.913   0.238   6.952
  136POPC   C3B 2124   8.620   0.403   6.664
  136POPC   C4B 2125   8.674   0.379   6.207
  137POPC   NC3 2126   3.603   1.052   8.082
  137POPC   PO4 2127   2.889   0.968   7.936
  137POPC   GL1 2128   3.251   0.984   7.653
  137POPC   GL2 2129   3.509   1.259   7.616
  137POPC   C1A 2130   3.358   0.996   7.219
  137POPC   D2A 2131   3.614   1.099   6.898
  137POPC   C3A 2132   3.484   0.941   6.526
  137POPC   C4A 2133   3.467   1.157   6.175
  137POPC   C1B 2134   3.778   1.430   7.288
  137POPC   C2B 2135   4.007   1.438   6.860
  137POPC   C3B 2136   3.769   1.402   6.492
  137POPC   C4B 2137   3.691   1.673   6.152
  138POPC   NC3 2138   3.708  10.448   8.228
  138POPC   PO4 2139   4.199  10.634   7.880
  138POPC   GL1 2140   3.792  10.439   7.697
  138POPC   GL2 2141   3.394  10.478   7.767
  138POPC   C1A 2142   3.571  10.476   7.290
  138POPC   D2A 2143   3.532  10.255   6.900
  138POPC   C3A 2144   3.552  10.488   6.527
  138POPC   C4A 2145   3.848  10.726   6.257
  138POPC   C1B 2146   3.136  10.230   7.419
  138POPC   C2B 2147   3.047  10.341   6.972
  138POPC   C3B 2148   3.060  10.223   6.510
  138POPC   C4B 2149   3.269  10.410   6.120
  139POPC   NC3 2150  11.246  10.274   8.496
  139POPC   PO4 2151  10.849  10.162   8.030
  139POPC   GL1 2152  11.213  10.094   7.727
  139POPC   GL2 2153  11.347  10.419   7.695
  139POPC   C1A 2154  11.270  10.139   7.255
  139POPC   D2A 2155  10.924  10.213   6.935
  139POPC   C3A 2156  10.942  10.112   6.489
  139POPC   C4A 2157  10.974  10.199   6.011
  139POPC   C1B 2158  11.268  10.665   7.307
  139POPC   C2B 2159  11.314  10.561   6.874
  139POPC   C3B 2160  11.279  10.478   6.446
  139POPC   C4B 2161  11.404  10.103   6.249
  140POPC   NC3 2162   3.368   2.061   8.103
  140POPC   PO4 2163   3.449   1.503   8.065
  140POPC   GL1 2164   3.312   1.767   7.680
  140POPC   GL2 2165   3.329   2.175   7.607
  140POPC   C1A 2166   3.386   1.771   7.240
  140POPC   D2A 2167   3.529   1.630   6.866
  140POPC   C3A 2168   3.302   1.717   6.493
  140POPC   C4A 2169   3.173   1.546   6.074
  140POPC   C1B 2170   3.732   2.031   7.506
  140POPC   C2B 2171   3.893   1.880   7.103
  140POPC   C3B 2172   3.804   1.954   6.610
  140POPC   C4B 2173   3.513   2.122   6.259
  141POPC   NC3 2174   2.809   3.789   7.981
  141POPC   PO4 2175   3.232   3.235   8.050
  141POPC   GL1 2176   2.979   3.176   7.703
  141POPC   GL2 2177   2.624   3.312   7.697
  141POPC   C1A 2178   3.036   3.380   7.321
  141POPC   D2A 2179   3.257   3.290   6.934
  141POPC   C3A 2180   3.041   3.404   6.557
  141POPC   C4A 2181   2.967   3.236   6.155
  141POPC   C1B 2182   2.465   3.500   7.295
  141POPC   C2B 2183   2.293   3.480   6.855
  141POPC   C3B 2184   2.510   3.438   6.436
  141POPC   C4B 2185   2.811   3.783   6.274
  142POPC   NC3 2186   8.776  10.041   7.994
  142POPC   PO4 2187   9.017   9.464   8.319
  142POPC   GL1 2188   9.029   9.656   7.813
  142POPC   GL2 2189   8.769   9.597   7.625
  142POPC   C1A 2190   9.190   9.721   7.369
  142POPC   D2A 2191   9.325   9.527   6.975
  142POPC   C3A 2192   9.220   9.460   6.567
  142POPC   C4A 2193   9.264   9.791   6.328
  142POPC   C1B 2194   8.727   9.693   7.162
  142POPC   C2B 2195   8.917   9.810   6.784
  142POPC   C3B 2196   8.786   9.678   6.366
  142POPC   C4B 2197   8.484   9.901   6.115
  143POPC   NC3 2198   7.194  10.966   8.276
  143POPC   PO4 2199   7.455  11.386   7.820
  143POPC   GL1 2200   7.479  11.038   7.608
  143POPC   GL2 2201   7.171  10.843   7.642
  143POPC   C1A 2202   7.644  11.218   7.213
  143POPC   D2A 2203   7.572   0.029   6.907
  143POPC   C3A 2204   7.637  11.327   6.523
  143POPC   C4A 2205   7.469  11.294   6.141
  143POPC   C1B 2206   7.147  11.126   7.242
  143POPC   C2B 2207   7.291  11.113   6.853
  143POPC   C3B 2208   7.211  11.000   6.479
  143POPC   C4B 2209   6.980  11.159   6.149
  144POPC   NC3 2210   8.625   2.416   8.012
  144POPC   PO4 2211   9.093   2.878   8.139
  144POPC   GL1 2212   9.077   2.816   7.713
  144POPC   GL2 2213   8.731   2.862   7.719
  144POPC   C1A 2214   9.143   2.733   7.280
  144POPC   D2A 2215   8.870   2.618   6.887
  144POPC   C3A 2216   9.025   2.670   6.462
  144POPC   C4A 2217   9.033   3.025   6.170
  144POPC   C1B 2218   8.628   2.641   7.334
  144POPC   C2B 2219   8.384   2.483   6.953
  144POPC   C3B 2220   8.542   2.467   6.527
  144POPC   C4B 2221   8.574   2.775   6.210
  145POPC   NC3 2222  11.321   1.033   8.336
  145POPC   PO4 2223  10.752   0.996   8.011
  145POPC   GL1 2224  11.014   0.880   7.691
  145POPC   GL2 2225  11.360   1.014   7.745
  145POPC   C1A 2226  10.858   0.895   7.276
  145POPC   D2A 2227  10.705   1.008   6.882
  145POPC   C3A 2228  11.011   0.847   6.600
  145POPC   C4A 2229  11.096   1.006   6.213
  145POPC   C1B 2230  11.325   1.082   7.296
  145POPC   C2B 2231  11.213   1.258   6.878
  145POPC   C3B 2232  11.261   1.442   6.449
  145POPC   C4B 2233  11.392   1.390   5.987
  146POPC   NC3 2234   5.094   0.077   7.919
  146POPC   PO4 2235   4.775   0.700   8.028
  146POPC   GL1 2236   4.740   0.689   7.598
  146POPC   GL2 2237   4.944   0.427   7.618
  146POPC   C1A 2238   4.854   0.605   7.175
  146POPC   D2A 2239   4.832   0.197   7.026
  146POPC   C3A 2240   4.821   0.347   6.623
  146POPC   C4A 2241   4.985   0.229   6.263
  146POPC   C1B 2242   5.269   0.354   7.326
  146POPC   C2B 2243   5.367   0.633   7.009
  146POPC   C3B 2244   5.356   0.508   6.600
  146POPC   C4B 2245   5.286   0.625   6.205
  147POPC   NC3 2246   5.219   7.681   8.532
  147POPC   PO4 2247   5.290   7.783   8.081
  147POPC   GL1 2248   5.178   7.826   7.618
  147POPC   GL2 2249   4.951   8.111   7.519
  147POPC   C1A 2250   5.241   7.900   7.156
  147POPC   D2A 2251   5.019   8.032   6.785
  147POPC   C3A 2252   5.225   8.115   6.390
  147POPC   C4A 2253   5.016   8.045   5.986
  147POPC   C1B 2254   5.012   8.406   7.151
  147POPC   C2B 2255   4.968   8.552   6.716
  147POPC   C3B 2256   4.891   8.492   6.291
  147POPC   C4B 2257   5.128   8.561   5.911
  148POPC   NC3 2258   0.799  11.150   8.194
  148POPC   PO4 2259   0.177  11.347   8.071
  148POPC   GL1 2260   0.223  11.468   7.666
  148POPC   GL2 2261   0.550  11.319   7.704
  148POPC   C1A 2262   0.229  11.243   7.256
  148POPC   D2A 2263   0.142  11.011   6.861
  148POPC   C3A 2264   0.246  11.222   6.492
  148POPC   C4A 2265   0.226  11.423   6.083
  148POPC   C1B 2266   0.605  10.929   7.418
  148POPC   C2B 2267   0.637  11.000   6.961
  148POPC   C3B 2268   0.627  10.836   6.535
  148POPC   C4B 2269   0.602  11.087   6.166
  149POPC   NC3 2270   0.849   5.540   7.684
  149POPC   PO4 2271   0.972   4.960   7.982
  149POPC   GL1 2272   1.063   5.096   7.601
  149POPC   GL2 2273   1.373   5.149   7.651
  149POPC   C1A 2274   1.136   5.191   7.176
  149POPC   D2A 2275   0.972   5.009   6.848
  149POPC   C3A 2276   0.941   5.360   6.650
  149POPC   C4A 2277   1.031   5.254   6.256
  149POPC   C1B 2278   1.518   4.894   7.337
  149POPC   C2B 2279   1.447   4.813   6.947
  149POPC   C3B 2280   1.408   5.068   6.588
  149POPC   C4B 2281   1.351   4.887   6.200
  150POPC   NC3 2282   1.086   4.224   8.018
  150POPC   PO4 2283   1.661   4.675   7.919
  150POPC   GL1 2284   1.265   4.621   7.697
  150POPC   GL2 2285   1.190   4.298   7.534
  150POPC   C1A 2286   1.047   4.699   7.283
  150POPC   D2A 2287   1.062   4.436   6.936
  150POPC   C3A 2288   1.272   4.530   6.565
  150POPC   C4A 2289   1.177   4.421   6.158
  150POPC   C1B 2290   0.876   4.101   7.290
  150POPC   C2B 2291   0.902   3.953   6.874
  150POPC   C3B 2292   0.817   4.181   6.495
  150POPC   C4B 2293   0.881   4.024   6.090
  151POPC   NC3 2294   0.397   0.987   7.906
  151POPC   PO4 2295   0.803   1.500   8.103
  151POPC   GL1 2296   0.724   1.350   7.722
  151POPC   GL2 2297   0.366   1.439   7.647
  151POPC   C1A 2298   0.782   1.350   7.298
  151POPC   D2A 2299   0.689   1.069   6.924
  151POPC   C3A 2300   0.598   1.255   6.551
  151POPC   C4A 2301   0.793   1.427   6.157
  151POPC   C1B 2302   0.322   1.149   7.274
  151POPC   C2B 2303   0.160   0.979   6.876
  151POPC   C3B 2304   0.081   1.010   6.436
  151POPC   C4B 2305   0.399   1.072   6.124
  152POPC   NC3 2306   0.403   1.799   8.066
  152POPC   PO4 2307   0.006   2.395   8.092
  152POPC   GL1 2308   0.037   2.221   7.667
  152POPC   GL2 2309   0.240   1.955   7.631
  152POPC   C1A 2310   0.298   2.284   7.266
  152POPC   D2A 2311   0.391   2.088   6.894
  152POPC   C3A 2312   0.518   2.241   6.532
  152POPC   C4A 2313   0.376   2.328   6.149
  152POPC   C1B 2314   0.543   1.814   7.327
  152POPC   C2B 2315   0.509   1.591   6.933
  152POPC   C3B 2316   0.638   1.752   6.526
  152POPC   C4B 2317   0.560   1.879   6.083
  153POPC   NC3 2318   9.486   6.283   8.037
  153POPC   PO4 2319   9.265   6.876   8.171
  153POPC   GL1 2320   9.482   6.739   7.758
  153POPC   GL2 2321   9.809   6.591   7.727
  153POPC   C1A 2322   9.507   6.558   7.298
  153POPC   D2A 2323   9.523   6.759   6.860
  153POPC   C3A 2324   9.465   6.550   6.442
  153POPC   C4A 2325   9.152   6.287   6.275
  153POPC   C1B 2326  10.013   6.427   7.374
  153POPC   C2B 2327   9.971   6.564   6.995
  153POPC   C3B 2328   9.928   6.442   6.613
  153POPC   C4B 2329  10.056   6.651   6.284
  154POPC   NC3 2330   2.665   8.739   8.032
  154POPC   PO4 2331   3.132   9.249   8.104
  154POPC   GL1 2332   2.818   9.137   7.715
  154POPC   GL2 2333   2.808   8.831   7.556
  154POPC   C1A 2334   2.572   9.139   7.265
  154POPC   D2A 2335   2.692   8.966   6.856
  154POPC   C3A 2336   2.581   9.173   6.454
  154POPC   C4A 2337   2.434   9.327   5.982
  154POPC   C1B 2338   2.608   8.601   7.224
  154POPC   C2B 2339   2.674   8.451   6.801
  154POPC   C3B 2340   2.649   8.663   6.422
  154POPC   C4B 2341   2.676   8.889   6.036
  155POPC   NC3 2342   0.215   7.345   8.149
  155POPC   PO4 2343  11.034   7.225   8.222
  155POPC   GL1 2344  11.289   7.210   7.816
  155POPC   GL2 2345  11.098   7.400   7.595
  155POPC   C1A 2346   0.016   7.235   7.364
  155POPC   D2A 2347  11.449   7.153   6.882
  155POPC   C3A 2348   0.013   7.521   6.585
  155POPC   C4A 2349  11.496   7.710   6.161
  155POPC   C1B 2350  11.044   7.130   7.204
  155POPC   C2B 2351  10.823   7.186   6.833
  155POPC   C3B 2352  10.982   7.319   6.448
  155POPC   C4B 2353  11.343   7.216   6.231
  156POPC   NC3 2354  10.169   4.282   8.013
  156POPC   PO4 2355  10.734   4.615   8.060
  156POPC   GL1 2356  10.516   4.448   7.659
  156POPC   GL2 2357  10.503   4.058   7.689
  156POPC   C1A 2358  10.237   4.524   7.270
  156POPC   D2A 2359   9.999   4.278   6.962
  156POPC   C3A 2360  10.127   4.426   6.554
  156POPC   C4A 2361  10.026   4.463   6.147
  156POPC   C1B 2362  10.515   4.117   7.260
  156POPC   C2B 2363  10.505   4.247   6.850
  156POPC   C3B 2364  10.671   3.982   6.504
  156POPC   C4B 2365  10.459   4.202   6.198
  157POPC   NC3 2366  10.392  11.208   8.078
  157POPC   PO4 2367   9.773  11.302   8.115
  157POPC   GL1 2368   9.974  11.129   7.751
  157POPC   GL2 2369  10.223  11.360   7.605
  157POPC   C1A 2370   9.968  11.015   7.312
  157POPC   D2A 2371  10.128  11.298   6.964
  157POPC   C3A 2372  10.111  11.135   6.523
  157POPC   C4A 2373  10.208  11.289   6.107
  157POPC   C1B 2374  10.478  11.090   7.331
  157POPC   C2B 2375  10.653  11.173   6.933
  157POPC   C3B 2376  10.832  11.260   6.548
  157POPC   C4B 2377  10.598  11.038   6.282
  158POPC   NC3 2378   1.383  11.077   8.046
  158POPC   PO4 2379   0.851   0.077   8.063
  158POPC   GL1 2380   1.143  11.419   7.741
  158POPC   GL2 2381   1.007  11.093   7.695
  158POPC   C1A 2382   1.364  11.216   7.357
  158POPC   D2A 2383   1.147  11.056   6.974
  158POPC   C3A 2384   1.331  11.112   6.592
  158POPC   C4A 2385   1.589  11.246   6.258
  158POPC   C1B 2386   0.863  11.353   7.311
  158POPC   C2B 2387   0.791   0.019   6.911
  158POPC   C3B 2388   0.860  11.297   6.542
  158POPC   C4B 2389   1.094  11.102   6.153
  159POPC   NC3 2390   0.253   9.659   8.056
  159POPC   PO4 2391   0.836   9.317   8.129
  159POPC   GL1 2392   0.509   9.328   7.784
  159POPC   GL2 2393   0.532   9.679   7.646
  159POPC   C1A 2394   0.322   9.324   7.358
  159POPC   D2A 2395   0.675   9.416   7.065
  159POPC   C3A 2396   0.819   9.366   6.639
  159POPC   C4A 2397   0.812   9.234   6.224
  159POPC   C1B 2398   0.209   9.818   7.348
  159POPC   C2B 2399   0.208   9.588   6.932
  159POPC   C3B 2400   0.452   9.702   6.572
  159POPC   C4B 2401   0.386   9.991   6.248
  160POPC   NC3 2402   9.813   5.726   8.006
  160POPC   PO4 2403   9.164   5.962   7.975
  160POPC   GL1 2404   9.515   5.934   7.643
  160POPC   GL2 2405   9.737   5.642   7.534
  160POPC   C1A 2406   9.649   6.044   7.226
  160POPC   D2A 2407   9.507   6.240   6.861
  160POPC   C3A 2408   9.554   6.026   6.478
  160POPC   C4A 2409   9.324   5.724   6.221
  160POPC   C1B 2410   9.873   5.472   7.184
  160POPC   C2B 2411   9.761   5.684   6.838
  160POPC   C3B 2412   9.747   5.529   6.450
  160POPC   C4B 2413   9.834   5.783   6.123
  161POPC   NC3 2414   6.054  10.130   8.045
  161POPC   PO4 2415   5.899  10.727   8.198
  161POPC   GL1 2416   6.011  10.603   7.763
  161POPC   GL2 2417   5.784  10.880   7.592
  161POPC   C1A 2418   6.024  10.229   7.420
  161POPC   D2A 2419   6.045  10.401   7.026
  161POPC   C3A 2420   6.181  10.181   6.704
  161POPC   C4A 2421   6.001  10.265   6.338
  161POPC   C1B 2422   5.627  10.536   7.424
  161POPC   C2B 2423   5.533  10.349   7.072
  161POPC   C3B 2424   5.599  10.394   6.667
  161POPC   C4B 2425   5.503  10.278   6.267
  162POPC   NC3 2426   4.339   2.284   8.022
  162POPC   PO4 2427   4.542   1.674   8.068
  162POPC   GL1 2428   4.397   1.592   7.661
  162POPC   GL2 2429   4.200   1.902   7.678
  162POPC   C1A 2430   4.417   1.823   7.234
  162POPC   D2A 2431   4.303   1.892   6.807
  162POPC   C3A 2432   4.563   2.042   6.462
  162POPC   C4A 2433   4.424   1.935   6.048
  162POPC   C1B 2434   4.160   2.245   7.359
  162POPC   C2B 2435   4.023   2.322   6.942
  162POPC   C3B 2436   4.134   2.326   6.523
  162POPC   C4B 2437   4.006   2.202   6.138
  163POPC   NC3 2438   8.918   5.587   8.049
  163POPC   PO4 2439   9.474   5.435   8.096
  163POPC   GL1 2440   9.286   5.455   7.670
  163POPC   GL2 2441   9.045   5.711   7.554
  163POPC   C1A 2442   9.363   5.574   7.194
  163POPC   D2A 2443   9.266   5.663   6.735
  163POPC   C3A 2444   8.918   5.513   6.429
  163POPC   C4A 2445   8.939   5.454   5.958
  163POPC   C1B 2446   9.133   6.032   7.211
  163POPC   C2B 2447   9.012   6.100   6.759
  163POPC   C3B 2448   8.760   6.008   6.391
  163POPC   C4B 2449   8.689   6.307   6.038
  164POPC   NC3 2450   7.807   2.982   7.912
  164POPC   PO4 2451   8.170   2.492   8.070
  164POPC   GL1 2452   7.928   2.332   7.689
  164POPC   GL2 2453   7.831   2.626   7.572
  164POPC   C1A 2454   7.932   2.341   7.187
  164POPC   D2A 2455   7.942   2.700   6.833
  164POPC   C3A 2456   8.088   2.639   6.393
  164POPC   C4A 2457   8.019   2.315   6.097
  164POPC   C1B 2458   8.153   2.815   7.291
  164POPC   C2B 2459   8.402   2.983   6.900
  164POPC   C3B 2460   8.275   3.118   6.451
  164POPC   C4B 2461   8.254   3.096   5.958
  165POPC   NC3 2462   1.157   0.408   7.964
  165POPC   PO4 2463   1.593   0.897   7.992
  165POPC   GL1 2464   1.509   0.667   7.585
  165POPC   GL2 2465   1.141   0.636   7.516
  165POPC   C1A 2466   1.440   0.614   7.105
  165POPC   D2A 2467   1.014   0.496   6.911
  165POPC   C3A 2468   1.082   0.560   6.476
  165POPC   C4A 2469   1.506   0.595   6.389
  165POPC   C1B 2470   1.223   0.216   7.313
  165POPC   C2B 2471   1.320   0.051   6.883
  165POPC   C3B 2472   1.270   0.101   6.430
  165POPC   C4B 2473   0.871   0.172   6.196
  166POPC   NC3 2474   9.547   2.773   8.157
  166POPC   PO4 2475  10.145   2.609   7.974
  166POPC   GL1 2476   9.862   2.834   7.690
  166POPC   GL2 2477   9.562   2.613   7.671
  166POPC   C1A 2478   9.709   2.830   7.246
  166POPC   D2A 2479   9.859   2.538   6.967
  166POPC   C3A 2480  10.106   2.768   6.690
  166POPC   C4A 2481   9.970   2.695   6.276
  166POPC   C1B 2482   9.493   2.340   7.307
  166POPC   C2B 2483   9.342   2.461   6.912
  166POPC   C3B 2484   9.460   2.811   6.711
  166POPC   C4B 2485   9.478   2.825   6.267
  167POPC   NC3 2486  10.459   8.447   7.819
  167POPC   PO4 2487  10.100   8.779   8.313
  167POPC   GL1 2488  10.134   8.922   7.804
  167POPC   GL2 2489  10.270   9.249   7.734
  167POPC   C1A 2490  10.190   8.749   7.317
  167POPC   D2A 2491  10.417   8.594   6.921
  167POPC   C3A 2492  10.297   8.798   6.531
  167POPC   C4A 2493  10.370   8.658   6.118
  167POPC   C1B 2494  10.082   9.248   7.321
  167POPC   C2B 2495  10.301   9.119   6.950
  167POPC   C3B 2496  10.636   9.181   6.655
  167POPC   C4B 2497  10.620   9.122   6.199
  168POPC   NC3 2498   1.617   1.195   3.932
  168POPC   PO4 2499   0.977   0.958   3.942
  168POPC   GL1 2500   1.241   1.098   4.242
  168POPC   GL2 2501   1.061   1.358   4.397
  168POPC   C1A 2502   1.472   1.086   4.615
  168POPC   D2A 2503   1.344   1.111   5.054
  168POPC   C3A 2504   1.590   1.370   5.354
  168POPC   C4A 2505   1.655   0.977   5.610
  168POPC   C1B 2506   0.936   0.980   4.644
  168POPC   C2B 2507   0.877   0.864   5.086
  168POPC   C3B 2508   1.122   0.910   5.478
  168POPC   C4B 2509   1.174   1.365   5.643
  169POPC   NC3 2510  10.854   3.419   3.838
  169POPC   PO4 2511  10.176   3.451   3.823
  169POPC   GL1 2512  10.202   3.686   4.217
  169POPC   GL2 2513  10.577   3.685   4.243
  169POPC   C1A 2514  10.096   3.516   4.638
  169POPC   D2A 2515  10.216   3.224   5.001
  169POPC   C3A 2516   9.975   3.219   5.386
  169POPC   C4A 2517  10.127   3.347   5.773
  169POPC   C1B 2518  10.579   3.560   4.707
  169POPC   C2B 2519  10.390   3.703   5.127
  169POPC   C3B 2520  10.419   3.730   5.602
  169POPC   C4B 2521  10.714   3.832   5.961
  170POPC   NC3 2522   9.743   5.699   3.737
  170POPC   PO4 2523   9.321   5.352   3.932
  170POPC   GL1 2524   9.637   5.456   4.201
  170POPC   GL2 2525   9.641   5.809   4.251
  170POPC   C1A 2526   9.675   5.456   4.631
  170POPC   D2A 2527   9.436   5.446   4.988
  170POPC   C3A 2528   9.639   5.626   5.337
  170POPC   C4A 2529   9.527   5.642   5.753
  170POPC   C1B 2530   9.811   5.955   4.697
  170POPC   C2B 2531   9.861   6.050   5.153
  170POPC   C3B 2532   9.572   6.198   5.498
  170POPC   C4B 2533   9.499   6.117   5.940
  171POPC   NC3 2534   3.617  10.275   3.973
  171POPC   PO4 2535   3.940  10.817   4.007
  171POPC   GL1 2536   3.756  10.624   4.348
  171POPC   GL2 2537   3.393  10.608   4.307
  171POPC   C1A 2538   3.886  10.670   4.769
  171POPC   D2A 2539   3.910  10.818   5.166
  171POPC   C3A 2540   3.857  10.508   5.516
  171POPC   C4A 2541   3.771  10.322   5.939
  171POPC   C1B 2542   3.460  10.380   4.699
  171POPC   C2B 2543   3.465  10.528   5.135
  171POPC   C3B 2544   3.350  10.381   5.553
  171POPC   C4B 2545   3.368  10.031   5.792
  172POPC   NC3 2546  10.500   2.112   4.053
  172POPC   PO4 2547   9.866   1.955   4.083
  172POPC   GL1 2548  10.088   2.188   4.382
  172POPC   GL2 2549  10.278   1.897   4.463
  172POPC   C1A 2550  10.318   2.278   4.785
  172POPC   D2A 2551  10.395   2.033   5.157
  172POPC   C3A 2552  10.317   2.330   5.497
  172POPC   C4A 2553  10.448   2.317   5.928
  172POPC   C1B 2554  10.561   1.621   4.695
  172POPC   C2B 2555  10.552   1.471   5.108
  172POPC   C3B 2556  10.527   1.612   5.527
  172POPC   C4B 2557  10.223   1.888   5.732
  173POPC   NC3 2558  10.135  11.185   3.911
  173POPC   PO4 2559  10.705  10.657   3.855
  173POPC   GL1 2560  10.493  10.938   4.234
  173POPC   GL2 2561  10.365  11.292   4.349
  173POPC   C1A 2562  10.371  10.956   4.715
  173POPC   D2A 2563  10.100  10.786   5.048
  173POPC   C3A 2564  10.362  10.732   5.410
  173POPC   C4A 2565  10.541  10.930   5.774
  173POPC   C1B 2566  10.197  11.481   4.725
  173POPC   C2B 2567  10.037  11.368   5.137
  173POPC   C3B 2568  10.146   0.131   5.496
  173POPC   C4B 2569  10.485  11.466   5.720
  174POPC   NC3 2570   6.404  11.341   3.880
  174POPC   PO4 2571   7.070  11.427   4.026
  174POPC   GL1 2572   6.740  11.278   4.258
  174POPC   GL2 2573   6.764  10.926   4.321
  174POPC   C1A 2574   6.488  11.326   4.604
  174POPC   D2A 2575   6.613  11.308   5.050
  174POPC   C3A 2576   6.361  11.495   5.375
  174POPC   C4A 2577   6.216  11.378   5.785
  174POPC   C1B 2578   6.598  10.859   4.756
  174POPC   C2B 2579   6.294  10.879   5.118
  174POPC   C3B 2580   6.463  10.959   5.527
  174POPC   C4B 2581   6.854  10.888   5.734
  175POPC   NC3 2582   2.985   9.871   4.024
  175POPC   PO4 2583   3.622   9.824   3.960
  175POPC   GL1 2584   3.507   9.964   4.357
  175POPC   GL2 2585   3.406   9.648   4.416
  175POPC   C1A 2586   3.704   9.940   4.755
  175POPC   D2A 2587   3.535   9.970   5.187
  175POPC   C3A 2588   3.821   9.960   5.543
  175POPC   C4A 2589   3.796   9.805   5.972
  175POPC   C1B 2590   3.483   9.483   4.823
  175POPC   C2B 2591   3.296   9.470   5.210
  175POPC   C3B 2592   3.476   9.576   5.582
  175POPC   C4B 2593   3.372   9.546   6.009
  176POPC   NC3 2594  10.519   7.921   3.865
  176POPC   PO4 2595  10.719   8.549   3.943
  176POPC   GL1 2596  10.478   8.388   4.301
  176POPC   GL2 2597  10.445   8.041   4.370
  176POPC   C1A 2598  10.446   8.312   4.779
  176POPC   D2A 2599  10.673   8.071   5.108
  176POPC   C3A 2600  10.503   8.347   5.383
  176POPC   C4A 2601  10.228   8.497   5.654
  176POPC   C1B 2602  10.348   7.802   4.771
  176POPC   C2B 2603  10.176   7.968   5.142
  176POPC   C3B 2604  10.234   7.948   5.571
  176POPC   C4B 2605  10.191   7.680   5.963
  177POPC   NC3 2606   9.569   2.247   4.279
  177POPC   PO4 2607   9.588   2.908   3.962
  177POPC   GL1 2608   9.532   2.755   4.308
  177POPC   GL2 2609   9.886   2.657   4.305
  177POPC   C1A 2610   9.435   2.798   4.724
  177POPC   D2A 2611   9.343   3.030   5.067
  177POPC   C3A 2612   9.500   2.923   5.419
  177POPC   C4A 2613   9.300   2.933   5.780
  177POPC   C1B 2614   9.887   2.551   4.734
  177POPC   C2B 2615   9.873   2.807   5.064
  177POPC   C3B 2616   9.964   2.701   5.458
  177POPC   C4B 2617   9.742   2.675   5.830
  178POPC   NC3 2618  10.806   0.409   3.752
  178POPC   PO4 2619  11.284   0.178   4.157
  178POPC   GL1 2620  11.290   0.566   4.383
  178POPC   GL2 2621   0.135   0.623   4.323
  178POPC   C1A 2622  11.057   0.542   4.811
  178POPC   D2A 2623  10.946   0.178   5.105
  178POPC   C3A 2624  11.071   0.255   5.546
  178POPC   C4A 2625  11.061   0.665   5.749
  178POPC   C1B 2626   0.119   0.408   4.728
  178POPC   C2B 2627  11.441   0.442   5.118
  178POPC   C3B 2628   0.056   0.468   5.500
  178POPC   C4B 2629  11.486   0.309   5.860
  179POPC   NC3 2630   6.646   9.561   3.847
  179POPC   PO4 2631   6.167   9.935   3.794
  179POPC   GL1 2632   6.379   9.892   4.204
  179POPC   GL2 2633   6.628   9.653   4.354
  179POPC   C1A 2634   6.360  10.012   4.651
  179POPC   D2A 2635   6.410   9.796   5.038
  179POPC   C3A 2636   6.259   9.837   5.456
  179POPC   C4A 2637   6.399   9.538   5.776
  179POPC   C1B 2638   6.838   9.843   4.729
  179POPC   C2B 2639   6.865  10.016   5.132
  179POPC   C3B 2640   6.761   9.816   5.510
  179POPC   C4B 2641   6.712   9.903   5.938
  180POPC   NC3 2642   9.329   8.942   3.844
  180POPC   PO4 2643   9.989   8.978   3.788
  180POPC   GL1 2644   9.706   9.179   4.135
  180POPC   GL2 2645   9.534   8.888   4.306
  180POPC   C1A 2646   9.587   9.311   4.585
  180POPC   D2A 2647   9.788   9.193   4.987
  180POPC   C3A 2648   9.610   9.216   5.397
  180POPC   C4A 2649   9.673   9.119   5.814
  180POPC   C1B 2650   9.481   8.829   4.748
  180POPC   C2B 2651   9.292   8.858   5.146
  180POPC   C3B 2652   9.361   8.780   5.586
  180POPC   C4B 2653   9.756   8.614   5.729
  181POPC   NC3 2654  11.176   8.426   4.097
  181POPC   PO4 2655  10.946   7.897   3.731
  181POPC   GL1 2656  10.927   7.961   4.182
  181POPC   GL2 2657  11.247   7.901   4.217
  181POPC   C1A 2658  10.917   8.103   4.644
  181POPC   D2A 2659  11.191   8.155   5.054
  181POPC   C3A 2660  10.997   8.311   5.467
  181POPC   C4A 2661  10.727   8.335   5.844
  181POPC   C1B 2662  11.331   7.780   4.644
  181POPC   C2B 2663  11.131   7.623   5.016
  181POPC   C3B 2664  11.046   7.804   5.429
  181POPC   C4B 2665  11.409   7.939   5.694
  182POPC   NC3 2666   5.730  10.957   3.941
  182POPC   PO4 2667   6.412  10.921   3.646
  182POPC   GL1 2668   6.233  10.929   4.134
  182POPC   GL2 2669   6.039  11.274   4.227
  182POPC   C1A 2670   6.125  10.964   4.606
  182POPC   D2A 2671   6.088  11.322   4.937
  182POPC   C3A 2672   5.939  11.211   5.363
  182POPC   C4A 2673   5.988  10.926   5.705
  182POPC   C1B 2674   5.720  11.274   4.581
  182POPC   C2B 2675   5.558  11.301   5.023
  182POPC   C3B 2676   5.467  11.425   5.453
  182POPC   C4B 2677   5.679  11.345   5.840
  183POPC   NC3 2678   1.122   8.100   3.802
  183POPC   PO4 2679   1.709   8.385   3.963
  183POPC   GL1 2680   1.383   8.290   4.256
  183POPC   GL2 2681   1.061   8.152   4.310
  183POPC   C1A 2682   1.442   8.094   4.669
  183POPC   D2A 2683   1.275   8.169   5.092
  183POPC   C3A 2684   1.351   7.902   5.451
  183POPC   C4A 2685   1.474   8.152   5.797
  183POPC   C1B 2686   0.939   8.016   4.724
  183POPC   C2B 2687   0.767   8.166   5.131
  183POPC   C3B 2688   0.925   8.161   5.538
  183POPC   C4B 2689   0.996   7.899   5.881
  184POPC   NC3 2690  11.012  10.977   4.049
  184POPC   PO4 2691  10.618   0.036   3.985
  184POPC   GL1 2692  10.874  11.356   4.354
  184POPC   GL2 2693  11.228  11.236   4.423
  184POPC   C1A 2694  10.804  11.260   4.769
  184POPC   D2A 2695  10.561  11.295   5.153
  184POPC   C3A 2696  10.887  11.280   5.463
  184POPC   C4A 2697  10.911  11.253   5.918
  184POPC   C1B 2698  11.317  11.474   4.809
  184POPC   C2B 2699  11.397  11.455   5.252
  184POPC   C3B 2700  11.378  11.344   5.667
  184POPC   C4B 2701  11.383  11.052   5.963
  185POPC   NC3 2702   2.036  11.080   3.880
  185POPC   PO4 2703   2.503  10.588   3.905
  185POPC   GL1 2704   2.284  10.649   4.308
  185POPC   GL2 2705   2.072  10.935   4.364
  185POPC   C1A 2706   2.414  10.803   4.721
  185POPC   D2A 2707   2.302  11.100   5.028
  185POPC   C3A 2708   2.084  10.990   5.373
  185POPC   C4A 2709   2.207  11.064   5.746
  185POPC   C1B 2710   1.901  11.156   4.718
  185POPC   C2B 2711   1.657  11.111   5.062
  185POPC   C3B 2712   1.591  11.051   5.453
  185POPC   C4B 2713   1.751  11.302   5.767
  186POPC   NC3 2714   3.630   2.903   3.795
  186POPC   PO4 2715   3.009   3.146   4.020
  186POPC   GL1 2716   3.367   2.926   4.257
  186POPC   GL2 2717   3.348   2.564   4.221
  186POPC   C1A 2718   3.382   2.772   4.723
  186POPC   D2A 2719   3.249   2.828   5.185
  186POPC   C3A 2720   3.582   2.833   5.540
  186POPC   C4A 2721   3.788   2.984   5.961
  186POPC   C1B 2722   3.107   2.362   4.603
  186POPC   C2B 2723   3.234   2.306   5.057
  186POPC   C3B 2724   3.226   2.433   5.544
  186POPC   C4B 2725   3.135   2.393   6.034
  187POPC   NC3 2726   9.702   1.530   4.201
  187POPC   PO4 2727   9.292   2.149   3.940
  187POPC   GL1 2728   9.144   1.988   4.379
  187POPC   GL2 2729   9.472   1.831   4.540
  187POPC   C1A 2730   9.062   1.819   4.829
  187POPC   D2A 2731   9.462   1.839   5.097
  187POPC   C3A 2732   9.561   1.748   5.536
  187POPC   C4A 2733   9.511   1.895   5.955
  187POPC   C1B 2734   9.867   1.970   4.802
  187POPC   C2B 2735   9.917   2.238   5.175
  187POPC   C3B 2736   9.814   2.204   5.627
  187POPC   C4B 2737   9.919   2.220   6.069
  188POPC   NC3 2738   2.767   7.374   3.899
  188POPC   PO4 2739   3.015   6.887   3.985
  188POPC   GL1 2740   2.904   7.185   4.373
  188POPC   GL2 2741   2.613   7.422   4.391
  188POPC   C1A 2742   2.856   7.282   4.855
  188POPC   D2A 2743   2.935   7.044   5.256
  188POPC   C3A 2744   3.007   7.262   5.658
  188POPC   C4A 2745   2.973   7.272   6.116
  188POPC   C1B 2746   2.472   7.047   4.626
  188POPC   C2B 2747   2.309   7.092   5.064
  188POPC   C3B 2748   2.505   7.255   5.446
  188POPC   C4B 2749   2.591   7.485   5.849
  189POPC   NC3 2750   8.447  11.301   4.114
  189POPC   PO4 2751   8.324  10.692   3.754
  189POPC   GL1 2752   8.336  10.802   4.202
  189POPC   GL2 2753   8.059  10.992   4.283
  189POPC   C1A 2754   8.352  10.958   4.669
  189POPC   D2A 2755   8.142  11.248   4.944
  189POPC   C3A 2756   8.083  11.130   5.362
  189POPC   C4A 2757   8.301  11.027   5.730
  189POPC   C1B 2758   7.821  11.283   4.538
  189POPC   C2B 2759   7.629  11.305   4.920
  189POPC   C3B 2760   7.573  11.286   5.337
  189POPC   C4B 2761   7.755  11.294   5.723
  190POPC   NC3 2762   5.743   0.224   3.613
  190POPC   PO4 2763   5.257   0.492   3.940
  190POPC   GL1 2764   4.994   0.473   4.329
  190POPC   GL2 2765   4.914   0.126   4.480
  190POPC   C1A 2766   5.129   0.509   4.765
  190POPC   D2A 2767   5.248   0.225   5.057
  190POPC   C3A 2768   5.290   0.419   5.428
  190POPC   C4A 2769   5.072   0.447   5.796
  190POPC   C1B 2770   4.658   0.296   4.735
  190POPC   C2B 2771   4.682   0.511   5.058
  190POPC   C3B 2772   4.716   0.516   5.438
  190POPC   C4B 2773   4.703   0.801   5.741
  191POPC   NC3 2774   4.780   1.769   3.912
  191POPC   PO4 2775   4.796   2.437   3.944
  191POPC   GL1 2776   4.907   2.198   4.317
  191POPC   GL2 2777   5.094   1.882   4.303
  191POPC   C1A 2778   4.716   2.191   4.750
  191POPC   D2A 2779   4.514   2.159   5.163
  191POPC   C3A 2780   4.820   2.251   5.486
  191POPC   C4A 2781   4.848   2.161   5.917
  191POPC   C1B 2782   4.877   1.715   4.684
  191POPC   C2B 2783   4.898   1.826   5.147
  191POPC   C3B 2784   5.079   1.808   5.609
  191POPC   C4B 2785   5.278   1.917   6.034
  192POPC   NC3 2786   4.151   0.217   3.845
  192POPC   PO4 2787   4.679  11.488   4.037
  192POPC   GL1 2788   4.373   0.219   4.335
  192POPC   GL2 2789   4.190   0.538   4.316
  192POPC   C1A 2790   4.159   0.161   4.756
  192POPC   D2A 2791   4.409   0.053   5.126
  192POPC   C3A 2792   4.334   0.174   5.526
  192POPC   C4A 2793   4.635   0.196   5.839
  192POPC   C1B 2794   4.289   0.661   4.754
  192POPC   C2B 2795   4.175   0.535   5.169
  192POPC   C3B 2796   4.230   0.702   5.570
  192POPC   C4B 2797   4.268   0.886   5.986
  193POPC   NC3 2798   1.204   2.104   4.013
  193POPC   PO4 2799   1.691   1.659   3.944
  193POPC   GL1 2800   1.517   1.601   4.362
  193POPC   GL2 2801   1.269   1.864   4.443
  193POPC   C1A 2802   1.356   1.543   4.800
  193POPC   D2A 2803   1.060   1.579   5.141
  193POPC   C3A 2804   1.224   1.883   5.401
  193POPC   C4A 2805   1.450   1.792   5.753
  193POPC   C1B 2806   0.899   1.871   4.723
  193POPC   C2B 2807   0.769   2.073   5.113
  193POPC   C3B 2808   0.964   2.368   5.355
  193POPC   C4B 2809   1.178   2.260   5.752
  194POPC   NC3 2810   5.867   0.514   4.107
  194POPC   PO4 2811   5.608  11.433   3.948
  194POPC   GL1 2812   5.510   0.198   4.360
  194POPC   GL2 2813   5.490   0.575   4.425
  194POPC   C1A 2814   5.689   0.262   4.797
  194POPC   D2A 2815   5.982   0.283   5.159
  194POPC   C3A 2816   5.891   0.232   5.576
  194POPC   C4A 2817   5.582   0.382   5.842
  194POPC   C1B 2818   5.865   0.740   4.683
  194POPC   C2B 2819   6.149   0.733   4.986
  194POPC   C3B 2820   6.084   0.891   5.408
  194POPC   C4B 2821   5.955   0.722   5.816
  195POPC   NC3 2822   4.039   9.678   3.835
  195POPC   PO4 2823   4.672   9.420   4.093
  195POPC   GL1 2824   4.233   9.484   4.251
  195POPC   GL2 2825   4.081   9.845   4.316
  195POPC   C1A 2826   3.949   9.461   4.610
  195POPC   D2A 2827   3.987   9.623   5.043
  195POPC   C3A 2828   4.231   9.366   5.342
  195POPC   C4A 2829   3.975   9.446   5.656
  195POPC   C1B 2830   4.377   9.765   4.703
  195POPC   C2B 2831   4.470   9.767   5.175
  195POPC   C3B 2832   4.503   9.763   5.637
  195POPC   C4B 2833   4.701  10.172   5.770
  196POPC   NC3 2834   2.983   1.810   4.007
  196POPC   PO4 2835   2.451   1.481   3.713
  196POPC   GL1 2836   2.394   1.706   4.223
  196POPC   GL2 2837   2.498   2.032   4.181
  196POPC   C1A 2838   2.280   1.778   4.660
  196POPC   D2A 2839   2.587   1.634   4.967
  196POPC   C3A 2840   2.549   1.776   5.402
  196POPC   C4A 2841   2.742   1.674   5.803
  196POPC   C1B 2842   2.729   1.994   4.577
  196POPC   C2B 2843   2.619   2.139   4.974
  196POPC   C3B 2844   2.836   2.178   5.344
  196POPC   C4B 2845   2.740   2.198   5.765
  197POPC   NC3 2846   7.568  11.432   3.925
  197POPC   PO4 2847   7.221   0.546   3.727
  197POPC   GL1 2848   7.375   0.496   4.218
  197POPC   GL2 2849   7.649   0.289   4.256
  197POPC   C1A 2850   7.207   0.607   4.657
  197POPC   D2A 2851   7.382   0.849   5.011
  197POPC   C3A 2852   7.267   0.735   5.426
  197POPC   C4A 2853   7.020   0.493   5.696
  197POPC   C1B 2854   7.401   0.128   4.594
  197POPC   C2B 2855   7.466   0.287   5.003
  197POPC   C3B 2856   7.361   0.230   5.411
  197POPC   C4B 2857   7.448   0.231   5.832
  198POPC   NC3 2858   1.094   7.581   3.722
  198POPC   PO4 2859   1.547   7.054   3.886
  198POPC   GL1 2860   1.379   7.350   4.200
  198POPC   GL2 2861   1.197   7.149   4.456
  198POPC   C1A 2862   1.440   7.581   4.598
  198POPC   D2A 2863   1.247   7.644   5.008
  198POPC   C3A 2864   1.452   7.363   5.312
  198POPC   C4A 2865   1.488   7.053   5.685
  198POPC   C1B 2866   0.906   7.499   4.615
  198POPC   C2B 2867   0.709   7.651   5.018
  198POPC   C3B 2868   0.881   7.671   5.428
  198POPC   C4B 2869   1.197   7.471   5.729
  199POPC   NC3 2870   0.840   3.657   3.928
  199POPC   PO4 2871   0.540   3.025   3.910
  199POPC   GL1 2872   0.532   3.331   4.248
  199POPC   GL2 2873   0.647   3.667   4.411
  199POPC   C1A 2874   0.455   3.270   4.674
  199POPC   D2A 2875   0.652   3.542   4.960
  199POPC   C3A 2876   0.664   3.367   5.359
  199POPC   C4A 2877   0.408   3.185   5.663
  199POPC   C1B 2878   0.241   3.733   4.643
  199POPC   C2B 2879   0.137   3.524   5.043
  199POPC   C3B 2880   0.253   3.631   5.466
  199POPC   C4B 2881   0.101   3.739   5.838
  200POPC   NC3 2882  10.472   5.782   3.982
  200POPC   PO4 2883  10.006   5.277   3.887
  200POPC   GL1 2884  10.149   5.527   4.283
  200POPC   GL2 2885  10.540   5.545   4.413
  200POPC   C1A 2886  10.172   5.405   4.719
  200POPC   D2A 2887  10.158   5.628   5.091
  200POPC   C3A 2888  10.131   5.512   5.512
  200POPC   C4A 2889   9.959   5.913   5.657
  200POPC   C1B 2890  10.463   5.869   4.713
  200POPC   C2B 2891  10.408   6.054   5.137
  200POPC   C3B 2892  10.462   5.911   5.550
  200POPC   C4B 2893  10.693   6.153   5.838
  201POPC   NC3 2894   8.944   5.613   3.803
  201POPC   PO4 2895   8.469   5.842   4.114
  201POPC   GL1 2896   8.796   5.564   4.318
  201POPC   GL2 2897   9.153   5.586   4.337
  201POPC   C1A 2898   8.920   5.609   4.790
  201POPC   D2A 2899   8.809   5.925   5.129
  201POPC   C3A 2900   8.659   5.766   5.558
  201POPC   C4A 2901   8.525   5.788   6.002
  201POPC   C1B 2902   9.293   5.914   4.613
  201POPC   C2B 2903   9.357   5.968   5.055
  201POPC   C3B 2904   9.174   5.876   5.474
  201POPC   C4B 2905   9.015   5.959   5.885
  202POPC   NC3 2906   6.042   1.483   3.933
  202POPC   PO4 2907   5.695   0.926   4.029
  202POPC   GL1 2908   5.511   1.084   4.400
  202POPC   GL2 2909   5.541   1.420   4.333
  202POPC   C1A 2910   5.436   0.953   4.834
  202POPC   D2A 2911   5.642   0.707   5.170
  202POPC   C3A 2912   5.581   0.950   5.548
  202POPC   C4A 2913   5.384   1.379   5.590
  202POPC   C1B 2914   5.961   1.255   4.545
  202POPC   C2B 2915   5.934   1.189   4.976
  202POPC   C3B 2916   5.850   1.371   5.356
  202POPC   C4B 2917   5.941   1.241   5.776
  203POPC   NC3 2918   7.036   1.395   3.993
  203POPC   PO4 2919   6.950   2.104   3.919
  203POPC   GL1 2920   7.307   1.942   4.211
  203POPC   GL2 2921   7.571   2.178   4.326
  203POPC   C1A 2922   7.485   1.794   4.631
  203POPC   D2A 2923   7.317   1.691   5.039
  203POPC   C3A 2924   7.341   1.722   5.475
  203POPC   C4A 2925   6.991   1.801   5.685
  203POPC   C1B 2926   7.631   2.281   4.782
  203POPC   C2B 2927   7.509   2.150   5.210
  203POPC   C3B 2928   7.294   2.228   5.611
  203POPC   C4B 2929   7.455   2.354   6.001
  204POPC   NC3 2930   8.012   1.461   3.780
  204POPC   PO4 2931   7.952   0.782   3.870
  204POPC   GL1 2932   8.276   0.970   4.126
  204POPC   GL2 2933   8.022   1.199   4.222
  204POPC   C1A 2934   8.458   1.127   4.537
  204POPC   D2A 2935   8.455   0.977   4.991
  204POPC   C3A 2936   8.493   1.216   5.364
  204POPC   C4A 2937   8.450   1.168   5.811
  204POPC   C1B 2938   7.976   1.190   4.657
  204POPC   C2B 2939   8.088   1.370   5.063
  204POPC   C3B 2940   8.026   1.320   5.514
  204POPC   C4B 2941   8.132   1.567   5.847
  205POPC   NC3 2942   8.689   9.204   3.920
  205POPC   PO4 2943   8.983   8.622   3.871
  205POPC   GL1 2944   9.008   8.883   4.257
  205POPC   GL2 2945   8.703   8.989   4.417
  205POPC   C1A 2946   9.094   9.151   4.660
  205POPC   D2A 2947   8.826   9.047   5.013
  205POPC   C3A 2948   8.955   9.086   5.457
  205POPC   C4A 2949   8.666   8.984   5.754
  205POPC   C1B 2950   8.957   8.660   4.704
  205POPC   C2B 2951   8.893   8.526   5.143
  205POPC   C3B 2952   8.909   8.541   5.610
  205POPC   C4B 2953   8.910   8.673   6.050
  206POPC   NC3 2954   4.904  11.179   3.772
  206POPC   PO4 2955   4.237  11.274   3.730
  206POPC   GL1 2956   4.263  11.241   4.206
  206POPC   GL2 2957   4.056  11.049   4.427
  206POPC   C1A 2958   4.471  11.274   4.621
  206POPC   D2A 2959   4.319  11.080   4.975
  206POPC   C3A 2960   4.625  11.087   5.297
  206POPC   C4A 2961   4.635  11.197   5.707
  206POPC   C1B 2962   3.835  11.221   4.758
  206POPC   C2B 2963   3.905  11.391   5.159
  206POPC   C3B 2964   4.139  11.199   5.475
  206POPC   C4B 2965   4.021  10.931   5.803
  207POPC   NC3 2966   0.497  10.821   3.968
  207POPC   PO4 2967   0.729  11.491   4.003
  207POPC   GL1 2968   0.569  11.221   4.273
  207POPC   GL2 2969   0.203  11.164   4.198
  207POPC   C1A 2970   0.692  11.072   4.687
  207POPC   D2A 2971   0.910  11.309   4.994
  207POPC   C3A 2972   0.736  11.187   5.393
  207POPC   C4A 2973   0.798  11.357   5.788
  207POPC   C1B 2974   0.206  11.191   4.629
  207POPC   C2B 2975   0.300  10.963   4.997
  207POPC   C3B 2976   0.234  11.079   5.377
  207POPC   C4B 2977   0.339  11.065   5.744
  208POPC   NC3 2978   8.717  10.465   3.897
  208POPC   PO4 2979   9.310  10.547   3.720
  208POPC   GL1 2980   9.108  10.595   4.231
  208POPC   GL2 2981   8.921  10.349   4.361
  208POPC   C1A 2982   8.779  10.693   4.664
  208POPC   D2A 2983   8.511  10.714   5.080
  208POPC   C3A 2984   8.714  10.771   5.510
  208POPC   C4A 2985   9.105  10.537   5.607
  208POPC   C1B 2986   9.205  10.432   4.717
  208POPC   C2B 2987   8.991  10.465   5.101
  208POPC   C3B 2988   8.658  10.299   5.336
  208POPC   C4B 2989   8.604  10.253   5.759
  209POPC   NC3 2990   5.127   0.055   4.042
  209POPC   PO4 2991   5.326  11.014   3.713
  209POPC   GL1 2992   5.238  11.076   4.189
  209POPC   GL2 2993   4.863  11.098   4.314
  209POPC   C1A 2994   5.207  11.257   4.651
  209POPC   D2A 2995   4.874  11.386   4.968
  209POPC   C3A 2996   4.937   0.018   5.432
  209POPC   C4A 2997   5.129  11.433   5.870
  209POPC   C1B 2998   4.824  10.906   4.765
  209POPC   C2B 2999   5.046  10.815   5.176
  209POPC   C3B 3000   5.183  10.989   5.604
  209POPC   C4B 3001   4.949  10.970   6.033
  210POPC   NC3 3002   0.502  10.154   3.691
  210POPC   PO4 3003  11.388   9.878   3.939
  210POPC   GL1 3004   0.183  10.137   4.218
  210POPC   GL2 3005   0.413  10.378   4.181
  210POPC   C1A 3006   0.256  10.099   4.681
  210POPC   D2A 3007   0.082  10.079   5.116
  210POPC   C3A 3008   0.363  10.199   5.464
  210POPC   C4A 3009   0.322  10.355   5.900
  210POPC   C1B 3010   0.344  10.611   4.589
  210POPC   C2B 3011   0.459  10.477   5.022
  210POPC   C3B 3012   0.572  10.681   5.411
  210POPC   C4B 3013   0.674  10.710   5.843
  211POPC   NC3 3014   2.134   1.790   3.827
  211POPC   PO4 3015   2.329   2.426   3.882
  211POPC   GL1 3016   2.046   2.290   4.206
  211POPC   GL2 3017   1.941   1.950   4.285
  211POPC   C1A 3018   2.136   2.284   4.643
  211POPC   D2A 3019   1.984   2.249   5.055
  211POPC   C3A 3020   2.293   2.241   5.363
  211POPC   C4A 3021   2.198   2.246   5.767
  211POPC   C1B 3022   1.726   1.964   4.679
  211POPC   C2B 3023   1.653   1.832   5.096
  211POPC   C3B 3024   1.856   1.926   5.469
  211POPC   C4B 3025   1.687   2.233   5.696
  212POPC   NC3 3026  11.010   8.800   3.698
  212POPC   PO4 3027   0.041   8.562   3.839
  212POPC   GL1 3028  11.418   8.838   4.206
  212POPC   GL2 3029  11.100   8.970   4.165
  212POPC   C1A 3030  11.263   8.840   4.653
  212POPC   D2A 3031  11.319   8.741   5.099
  212POPC   C3A 3032  11.478   8.434   5.411
  212POPC   C4A 3033  11.228   8.779   5.627
  212POPC   C1B 3034  10.914   9.190   4.497
  212POPC   C2B 3035  10.870   9.103   4.937
  212POPC   C3B 3036  11.070   9.190   5.333
  212POPC   C4B 3037  10.967   9.196   5.777
  213POPC   NC3 3038   7.130  10.934   3.897
  213POPC   PO4 3039   7.824  11.020   3.851
  213POPC   GL1 3040   7.572  10.870   4.194
  213POPC   GL2 3041   7.370  11.134   4.303
  213POPC   C1A 3042   7.560  10.856   4.662
  213POPC   D2A 3043   7.455  10.849   5.093
  213POPC   C3A 3044   7.658  10.797   5.450
  213POPC   C4A 3045   7.454  10.888   5.818
  213POPC   C1B 3046   7.094  11.194   4.639
  213POPC   C2B 3047   7.126  11.365   5.010
  213POPC   C3B 3048   7.071  11.140   5.352
  213POPC   C4B 3049   7.207  11.313   5.711
  214POPC   NC3 3050   4.037   1.415   4.091
  214POPC   PO4 3051   3.388   1.542   3.843
  214POPC   GL1 3052   3.300   1.421   4.262
  214POPC   GL2 3053   3.542   1.161   4.215
  214POPC   C1A 3054   3.554   1.423   4.673
  214POPC   D2A 3055   3.935   1.523   4.943
  214POPC   C3A 3056   3.735   1.533   5.333
  214POPC   C4A 3057   3.526   1.519   5.703
  214POPC   C1B 3058   3.281   0.970   4.535
  214POPC   C2B 3059   3.359   0.877   4.955
  214POPC   C3B 3060   3.324   0.845   5.379
  214POPC   C4B 3061   3.496   1.007   5.712
  215POPC   NC3 3062   9.708   6.640   4.014
  215POPC   PO4 3063  10.068   6.060   3.878
  215POPC   GL1 3064   9.878   6.256   4.287
  215POPC   GL2 3065   9.484   6.335   4.359
  215POPC   C1A 3066   9.829   6.500   4.689
  215POPC   D2A 3067   9.626   6.506   5.097
  215POPC   C3A 3068   9.865   6.721   5.470
  215POPC   C4A 3069   9.839   6.474   5.849
  215POPC   C1B 3070   9.373   6.739   4.657
  215POPC   C2B 3071   9.392   6.940   5.099
  215POPC   C3B 3072   9.367   6.717   5.518
  215POPC   C4B 3073   9.366   6.609   5.942
  216POPC   NC3 3074   4.502   8.999   4.033
  216POPC   PO4 3075   3.950   9.188   3.865
  216POPC   GL1 3076   3.921   9.018   4.287
  216POPC   GL2 3077   4.232   9.028   4.468
  216POPC   C1A 3078   3.791   8.994   4.753
  216POPC   D2A 3079   3.766   9.176   5.189
  216POPC   C3A 3080   4.019   8.934   5.514
  216POPC   C4A 3081   4.142   8.515   5.670
  216POPC   C1B 3082   4.528   8.945   4.793
  216POPC   C2B 3083   4.451   8.884   5.235
  216POPC   C3B 3084   4.569   8.799   5.644
  216POPC   C4B 3085   4.760   8.906   6.017
  217POPC   NC3 3086   1.180   4.409   3.943
  217POPC   PO4 3087   1.707   4.803   4.120
  217POPC   GL1 3088   1.433   4.404   4.361
  217POPC   GL2 3089   1.153   4.054   4.286
  217POPC   C1A 3090   1.126   4.326   4.698
  217POPC   D2A 3091   1.276   4.491   5.040
  217POPC   C3A 3092   1.288   4.367   5.439
  217POPC   C4A 3093   1.445   4.603   5.771
  217POPC   C1B 3094   1.064   3.806   4.685
  217POPC   C2B 3095   0.974   3.916   5.132
  217POPC   C3B 3096   0.987   3.986   5.588
  217POPC   C4B 3097   1.355   4.065   5.870
  218POPC   NC3 3098   1.667   3.659   3.771
  218POPC   PO4 3099   2.206   3.741   3.986
  218POPC   GL1 3100   2.041   3.609   4.345
  218POPC   GL2 3101   2.198   3.304   4.325
  218POPC   C1A 3102   1.960   3.762   4.739
  218POPC   D2A 3103   1.890   3.937   5.130
  218POPC   C3A 3104   1.956   3.681   5.444
  218POPC   C4A 3105   2.123   3.688   5.822
  218POPC   C1B 3106   1.967   3.237   4.731
  218POPC   C2B 3107   2.079   3.236   5.180
  218POPC   C3B 3108   1.970   3.202   5.634
  218POPC   C4B 3109   2.175   3.248   6.033
  219POPC   NC3 3110  10.579   1.127   3.838
  219POPC   PO4 3111   9.943   1.250   3.909
  219POPC   GL1 3112  10.222   1.094   4.273
  219POPC   GL2 3113  10.625   1.110   4.337
  219POPC   C1A 3114  10.309   1.149   4.727
  219POPC   D2A 3115  10.081   1.256   5.097
  219POPC   C3A 3116  10.033   1.645   5.291
  219POPC   C4A 3117   9.973   1.419   5.668
  219POPC   C1B 3118  10.820   1.020   4.735
  219POPC   C2B 3119  10.634   0.964   5.125
  219POPC   C3B 3120  10.432   1.098   5.504
  219POPC   C4B 3121  10.653   1.004   5.890
  220POPC   NC3 3122   8.682   3.579   3.892
  220POPC   PO4 3123   9.248   3.310   3.703
  220POPC   GL1 3124   9.168   3.315   4.186
  220POPC   GL2 3125   8.856   3.408   4.332
  220POPC   C1A 3126   9.249   3.507   4.649
  220POPC   D2A 3127   9.233   3.808   5.035
  220POPC   C3A 3128   9.125   3.565   5.401
  220POPC   C4A 3129   8.991   3.411   5.794
  220POPC   C1B 3130   8.556   3.357   4.677
  220POPC   C2B 3131   8.453   3.244   5.131
  220POPC   C3B 3132   8.526   3.390   5.553
  220POPC   C4B 3133   8.382   3.668   5.892
  221POPC   NC3 3134   0.867   0.517   3.861
  221POPC   PO4 3135   1.435   0.176   3.797
  221POPC   GL1 3136   1.156   0.268   4.182
  221POPC   GL2 3137   1.138   0.597   4.320
  221POPC   C1A 3138   1.025   0.183   4.609
  221POPC   D2A 3139   0.964   0.359   5.008
  221POPC   C3A 3140   0.826   0.182   5.362
  221POPC   C4A 3141   0.986   0.363   5.725
  221POPC   C1B 3142   1.337   0.601   4.739
  221POPC   C2B 3143   1.595   0.564   5.131
  221POPC   C3B 3144   1.601   0.332   5.543
  221POPC   C4B 3145   1.421   0.552   5.890
  222POPC   NC3 3146   1.531   8.800   4.128
  222POPC   PO4 3147   0.887   8.826   3.952
  222POPC   GL1 3148   1.043   8.677   4.306
  222POPC   GL2 3149   1.115   9.007   4.411
  222POPC   C1A 3150   1.207   8.537   4.699
  222POPC   D2A 3151   1.016   8.633   5.098
  222POPC   C3A 3152   1.240   8.542   5.471
  222POPC   C4A 3153   1.377   8.658   5.872
  222POPC   C1B 3154   1.313   9.014   4.815
  222POPC   C2B 3155   1.326   9.028   5.238
  222POPC   C3B 3156   0.995   8.995   5.497
  222POPC   C4B 3157   1.152   9.128   5.852
  223POPC   NC3 3158   9.970   0.619   3.889
  223POPC   PO4 3159   9.707  11.452   3.872
  223POPC   GL1 3160   9.750   0.209   4.232
  223POPC   GL2 3161   9.428   0.312   4.244
  223POPC   C1A 3162   9.686   0.328   4.678
  223POPC   D2A 3163   9.916   0.338   5.020
  223POPC   C3A 3164   9.712   0.398   5.368
  223POPC   C4A 3165   9.809   0.467   5.769
  223POPC   C1B 3166   9.258   0.569   4.566
  223POPC   C2B 3167   9.292   0.461   5.008
  223POPC   C3B 3168   9.307   0.690   5.404
  223POPC   C4B 3169   9.339   0.665   5.813
  224POPC   NC3 3170   8.084   2.939   4.018
  224POPC   PO4 3171   7.885   2.333   3.650
  224POPC   GL1 3172   8.153   2.443   4.055
  224POPC   GL2 3173   7.968   2.483   4.333
  224POPC   C1A 3174   8.449   2.551   4.456
  224POPC   D2A 3175   8.506   2.820   4.847
  224POPC   C3A 3176   8.524   2.728   5.328
  224POPC   C4A 3177   8.384   2.567   5.767
  224POPC   C1B 3178   7.961   2.726   4.700
  224POPC   C2B 3179   8.015   2.960   5.068
  224POPC   C3B 3180   8.062   2.877   5.506
  224POPC   C4B 3181   7.869   2.742   5.896
  225POPC   NC3 3182   7.492   0.868   3.910
  225POPC   PO4 3183   7.587   1.589   3.919
  225POPC   GL1 3184   7.525   1.357   4.331
  225POPC   GL2 3185   7.440   0.995   4.409
  225POPC   C1A 3186   7.509   1.300   4.797
  225POPC   D2A 3187   7.592   1.312   5.232
  225POPC   C3A 3188   7.559   1.119   5.613
  225POPC   C4A 3189   7.626   1.467   5.825
  225POPC   C1B 3190   7.040   1.125   4.693
  225POPC   C2B 3191   6.911   1.366   5.073
  225POPC   C3B 3192   7.096   1.252   5.462
  225POPC   C4B 3193   7.068   0.971   5.837
  226POPC   NC3 3194  10.305   4.878   3.838
  226POPC   PO4 3195  10.822   5.407   3.957
  226POPC   GL1 3196  10.583   5.081   4.224
  226POPC   GL2 3197  10.182   5.025   4.307
  226POPC   C1A 3198  10.627   5.110   4.683
  226POPC   D2A 3199  10.463   5.225   5.089
  226POPC   C3A 3200  10.645   5.264   5.492
  226POPC   C4A 3201  10.412   5.174   5.869
  226POPC   C1B 3202  10.321   4.707   4.572
  226POPC   C2B 3203  10.323   4.743   5.024
  226POPC   C3B 3204  10.224   4.940   5.436
  226POPC   C4B 3205  10.015   4.785   5.770
  227POPC   NC3 3206   2.168   4.206   4.001
  227POPC   PO4 3207   1.494   4.090   3.842
  227POPC   GL1 3208   1.642   3.939   4.288
  227POPC   GL2 3209   1.888   4.128   4.396
  227POPC   C1A 3210   1.574   4.112   4.780
  227POPC   D2A 3211   1.751   4.403   5.174
  227POPC   C3A 3212   1.756   4.166   5.579
  227POPC   C4A 3213   1.864   4.063   6.021
  227POPC   C1B 3214   2.098   4.259   4.757
  227POPC   C2B 3215   2.276   4.243   5.162
  227POPC   C3B 3216   2.258   4.097   5.556
  227POPC   C4B 3217   2.343   4.275   5.958
  228POPC   NC3 3218  11.037   4.246   3.904
  228POPC   PO4 3219  11.484   4.719   3.883
  228POPC   GL1 3220   0.017   4.534   4.284
  228POPC   GL2 3221  11.157   4.539   4.340
  228POPC   C1A 3222   0.198   4.403   4.695
  228POPC   D2A 3223   0.194   4.412   5.151
  228POPC   C3A 3224  11.309   4.367   5.387
  228POPC   C4A 3225  11.154   4.569   5.779
  228POPC   C1B 3226  11.280   4.126   4.548
  228POPC   C2B 3227  11.423   3.984   4.967
  228POPC   C3B 3228  11.298   3.839   5.380
  228POPC   C4B 3229  11.153   4.040   5.754
  229POPC   NC3 3230   3.461   5.752   4.013
  229POPC   PO4 3231   3.885   5.525   4.274
  229POPC   GL1 3232   3.613   5.787   4.548
  229POPC   GL2 3233   3.355   6.018   4.439
  229POPC   C1A 3234   3.516   5.900   5.002
  229POPC   D2A 3235   3.612   5.740   5.449
  229POPC   C3A 3236   3.759   6.039   5.770
  229POPC   C4A 3237   3.672   6.091   6.195
  229POPC   C1B 3238   3.127   5.699   4.712
  229POPC   C2B 3239   3.125   5.604   5.175
  229POPC   C3B 3240   3.157   5.595   5.620
  229POPC   C4B 3241   3.265   5.921   5.862
  230POPC   NC3 3242   9.104   2.908   3.853
  230POPC   PO4 3243   8.503   3.143   3.991
  230POPC   GL1 3244   8.793   2.890   4.261
  230POPC   GL2 3245   8.891   2.515   4.145
  230POPC   C1A 3246   8.983   3.032   4.648
  230POPC   D2A 3247   8.941   3.303   4.999
  230POPC   C3A 3248   8.928   3.088   5.385
  230POPC   C4A 3249   8.723   2.966   5.758
  230POPC   C1B 3250   8.974   2.517   4.602
  230POPC   C2B 3251   8.969   2.679   5.039
  230POPC   C3B 3252   9.047   2.603   5.484
  230POPC   C4B 3253   8.935   2.537   5.927
  231POPC   NC3 3254   9.985   3.140   4.102
  231POPC   PO4 3255  10.237   2.473   3.963
  231POPC   GL1 3256  10.412   2.590   4.329
  231POPC   GL2 3257  10.762   2.569   4.277
  231POPC   C1A 3258  10.308   2.827   4.692
  231POPC   D2A 3259  10.383   2.724   5.126
  231POPC   C3A 3260  10.416   2.987   5.496
  231POPC   C4A 3261  10.256   2.789   5.861
  231POPC   C1B 3262  10.742   2.558   4.743
  231POPC   C2B 3263  10.776   2.410   5.162
  231POPC   C3B 3264  10.733   2.598   5.603
  231POPC   C4B 3265  10.737   2.807   6.018
  232POPC   NC3 3266   1.791   7.477   3.931
  232POPC   PO4 3267   2.436   7.701   3.944
  232POPC   GL1 3268   2.143   7.563   4.271
  232POPC   GL2 3269   2.075   7.186   4.228
  232POPC   C1A 3270   2.112   7.386   4.678
  232POPC   D2A 3271   1.843   7.403   4.980
  232POPC   C3A 3272   2.084   7.544   5.313
  232POPC   C4A 3273   2.204   7.743   5.702
  232POPC   C1B 3274   1.699   7.108   4.544
  232POPC   C2B 3275   1.646   6.928   4.983
  232POPC   C3B 3276   1.878   7.067   5.368
  232POPC   C4B 3277   2.108   7.238   5.750
  233POPC   NC3 3278   0.423   8.786   4.003
  233POPC   PO4 3279   0.059   8.330   4.333
  233POPC   GL1 3280   0.285   8.709   4.531
  233POPC   GL2 3281   0.595   8.905   4.449
  233POPC   C1A 3282   0.225   9.081   4.786
  233POPC   D2A 3283   0.056   9.197   5.182
  233POPC   C3A 3284   0.207   8.878   5.443
  233POPC   C4A 3285   0.210   8.647   5.838
  233POPC   C1B 3286   0.777   9.043   4.831
  233POPC   C2B 3287   0.579   9.175   5.223
  233POPC   C3B 3288   0.541   9.174   5.682
  233POPC   C4B 3289   0.710   8.829   5.910
  234POPC   NC3 3290   3.514   9.035   3.884
  234POPC   PO4 3291   3.267   8.482   4.055
  234POPC   GL1 3292   3.427   8.754   4.397
  234POPC   GL2 3293   3.428   9.127   4.403
  234POPC   C1A 3294   3.461   8.616   4.843
  234POPC   D2A 3295   3.733   8.650   5.205
  234POPC   C3A 3296   3.532   8.572   5.606
  234POPC   C4A 3297   3.447   8.438   6.040
  234POPC   C1B 3298   3.215   9.055   4.820
  234POPC   C2B 3299   3.305   8.945   5.267
  234POPC   C3B 3300   3.542   9.078   5.657
  234POPC   C4B 3301   3.371   9.037   6.076
  235POPC   NC3 3302   2.780   2.770   3.817
  235POPC   PO4 3303   3.208   2.194   3.873
  235POPC   GL1 3304   2.845   2.414   4.168
  235POPC   GL2 3305   2.898   2.780   4.350
  235POPC   C1A 3306   2.598   2.485   4.584
  235POPC   D2A 3307   2.823   2.603   4.988
  235POPC   C3A 3308   2.645   2.634   5.410
  235POPC   C4A 3309   2.844   2.721   5.792
  235POPC   C1B 3310   2.912   3.040   4.762
  235POPC   C2B 3311   2.600   3.094   5.158
  235POPC   C3B 3312   2.493   3.068   5.635
  235POPC   C4B 3313   2.558   2.965   6.114
  236POPC   NC3 3314   1.853   0.350   3.880
  236POPC   PO4 3315   1.692  11.252   4.122
  236POPC   GL1 3316   1.623   0.170   4.333
  236POPC   GL2 3317   1.679   0.558   4.326
  236POPC   C1A 3318   1.742   0.244   4.752
  236POPC   D2A 3319   2.110   0.082   4.946
  236POPC   C3A 3320   2.002  11.494   5.344
  236POPC   C4A 3321   2.160   0.150   5.708
  236POPC   C1B 3322   2.109   0.518   4.531
  236POPC   C2B 3323   2.154   0.598   4.981
  236POPC   C3B 3324   2.053   0.547   5.400
  236POPC   C4B 3325   2.385   0.633   5.696
  237POPC   NC3 3326   1.980   2.715   3.876
  237POPC   PO4 3327   2.433   3.086   3.782
  237POPC   GL1 3328   2.420   2.864   4.201
  237POPC   GL2 3329   2.091   2.778   4.368
  237POPC   C1A 3330   2.421   2.965   4.676
  237POPC   D2A 3331   2.322   2.648   5.001
  237POPC   C3A 3332   2.127   2.752   5.386
  237POPC   C4A 3333   2.171   2.752   5.840
  237POPC   C1B 3334   1.870   2.716   4.768
  237POPC   C2B 3335   1.528   2.513   4.989
  237POPC   C3B 3336   1.415   2.585   5.401
  237POPC   C4B 3337   1.700   2.722   5.677
  238POPC   NC3 3338   0.261   0.138   4.068
  238POPC   PO4 3339   0.425   0.758   3.841
  238POPC   GL1 3340   0.634   0.702   4.271
  238POPC   GL2 3341   0.645   0.369   4.313
  238POPC   C1A 3342   0.607   0.595   4.740
  238POPC   D2A 3343   0.458   0.455   5.126
  238POPC   C3A 3344   0.627   0.635   5.465
  238POPC   C4A 3345   0.397   0.756   5.739
  238POPC   C1B 3346   0.534   0.087   4.678
  238POPC   C2B 3347   0.393  11.459   5.074
  238POPC   C3B 3348   0.351   0.051   5.522
  238POPC   C4B 3349   0.504   0.280   5.856
  239POPC   NC3 3350   1.922   9.576   3.863
  239POPC   PO4 3351   2.566   9.489   4.103
  239POPC   GL1 3352   2.167   9.695   4.304
  239POPC   GL2 3353   1.784   9.621   4.326
  239POPC   C1A 3354   2.033   9.692   4.742
  239POPC   D2A 3355   2.197   9.559   5.106
  239POPC   C3A 3356   2.244   9.915   5.359
  239POPC   C4A 3357   2.054   9.675   5.689
  239POPC   C1B 3358   1.649   9.350   4.639
  239POPC   C2B 3359   1.508   9.460   5.025
  239POPC   C3B 3360   1.671   9.490   5.403
  239POPC   C4B 3361   1.527   9.493   5.788
  240POPC   NC3 3362   0.365   1.912   4.191
  240POPC   PO4 3363  11.490   2.342   3.838
  240POPC   GL1 3364   0.208   2.371   4.327
  240POPC   GL2 3365   0.554   2.234   4.529
  240POPC   C1A 3366   0.188   2.404   4.809
  240POPC   D2A 3367   0.328   2.359   5.238
  240POPC   C3A 3368   0.272   1.965   5.459
  240POPC   C4A 3369   0.088   1.876   5.877
  240POPC   C1B 3370   0.354   1.912   4.862
  240POPC   C2B 3371   0.523   1.615   5.196
  240POPC   C3B 3372   0.749   1.798   5.579
  240POPC   C4B 3373   0.643   2.238   5.720
  241POPC   NC3 3374   9.126   7.449   3.934
  241POPC   PO4 3375   8.645   7.799   4.039
  241POPC   GL1 3376   8.852   7.538   4.361
  241POPC   GL2 3377   9.025   7.195   4.406
  241POPC   C1A 3378   8.929   7.606   4.765
  241POPC   D2A 3379   8.799   7.530   5.182
  241POPC   C3A 3380   9.060   7.391   5.507
  241POPC   C4A 3381   8.880   7.306   5.939
  241POPC   C1B 3382   8.962   7.103   4.884
  241POPC   C2B 3383   8.930   6.919   5.340
  241POPC   C3B 3384   8.910   6.794   5.809
  241POPC   C4B 3385   9.096   6.909   6.254
  242POPC   NC3 3386   2.894  10.862   3.921
  242POPC   PO4 3387   2.395  11.401   3.863
  242POPC   GL1 3388   2.540  11.138   4.211
  242POPC   GL2 3389   2.898  11.190   4.304
  242POPC   C1A 3390   2.551  11.311   4.643
  242POPC   D2A 3391   2.764  11.419   5.040
  242POPC   C3A 3392   2.523  11.326   5.417
  242POPC   C4A 3393   2.717  11.082   5.687
  242POPC   C1B 3394   2.911  10.896   4.613
  242POPC   C2B 3395   2.956  10.926   5.052
  242POPC   C3B 3396   3.152  10.860   5.444
  242POPC   C4B 3397   3.054  10.749   5.826
  243POPC   NC3 3398   6.462   2.047   3.929
  243POPC   PO4 3399   6.486   1.338   3.843
  243POPC   GL1 3400   6.470   1.594   4.206
  243POPC   GL2 3401   6.783   1.781   4.294
  243POPC   C1A 3402   6.332   1.670   4.623
  243POPC   D2A 3403   6.268   1.584   5.056
  243POPC   C3A 3404   6.585   1.741   5.344
  243POPC   C4A 3405   6.496   1.863   5.764
  243POPC   C1B 3406   6.986   1.921   4.704
  243POPC   C2B 3407   6.989   2.044   5.179
  243POPC   C3B 3408   6.768   2.230   5.528
  243POPC   C4B 3409   6.552   2.381   5.898
  244POPC   NC3 3410   9.501   1.393   3.764
  244POPC   PO4 3411   9.517   0.727   3.905
  244POPC   GL1 3412   9.673   0.981   4.254
  244POPC   GL2 3413   9.374   1.122   4.418
  244POPC   C1A 3414   9.791   1.069   4.693
  244POPC   D2A 3415   9.655   0.807   5.000
  244POPC   C3A 3416   9.791   0.920   5.377
  244POPC   C4A 3417   9.754   0.958   5.778
  244POPC   C1B 3418   9.395   1.393   4.795
  244POPC   C2B 3419   9.573   1.339   5.166
  244POPC   C3B 3420   9.435   1.255   5.540
  244POPC   C4B 3421   9.540   1.389   5.956
  245POPC   NC3 3422   8.022   8.665   3.936
  245POPC   PO4 3423   8.192   9.226   3.773
  245POPC   GL1 3424   8.203   8.996   4.242
  245POPC   GL2 3425   7.936   9.158   4.380
  245POPC   C1A 3426   8.283   9.033   4.719
  245POPC   D2A 3427   7.990   9.003   5.033
  245POPC   C3A 3428   8.264   8.985   5.400
  245POPC   C4A 3429   8.190   9.129   5.825
  245POPC   C1B 3430   7.888   8.711   4.602
  245POPC   C2B 3431   7.764   8.523   5.013
  245POPC   C3B 3432   7.907   8.449   5.438
  245POPC   C4B 3433   8.211   8.613   5.739
  246POPC   NC3 3434   7.419   8.072   3.925
  246POPC   PO4 3435   7.083   7.644   4.049
  246POPC   GL1 3436   7.167   7.993   4.383
  246POPC   GL2 3437   7.280   8.352   4.335
  246POPC   C1A 3438   7.237   8.090   4.841
  246POPC   D2A 3439   7.523   8.118   5.222
  246POPC   C3A 3440   7.379   7.940   5.631
  246POPC   C4A 3441   7.270   7.894   6.097
  246POPC   C1B 3442   7.365   8.583   4.700
  246POPC   C2B 3443   7.217   8.527   5.123
  246POPC   C3B 3444   7.393   8.520   5.534
  246POPC   C4B 3445   7.152   8.333   5.864
  247POPC   NC3 3446   4.331   2.344   3.930
  247POPC   PO4 3447   4.139   1.715   3.726
  247POPC   GL1 3448   4.146   1.913   4.140
  247POPC   GL2 3449   4.456   1.937   4.355
  247POPC   C1A 3450   3.968   1.905   4.558
  247POPC   D2A 3451   4.042   2.163   4.932
  247POPC   C3A 3452   4.058   1.931   5.322
  247POPC   C4A 3453   4.097   1.638   5.693
  247POPC   C1B 3454   4.390   1.784   4.818
  247POPC   C2B 3455   4.429   1.586   5.228
  247POPC   C3B 3456   4.566   1.799   5.578
  247POPC   C4B 3457   4.339   2.206   5.651
  248POPC   NC3 3458  10.860   0.346   4.244
  248POPC   PO4 3459  10.430   0.674   3.803
  248POPC   GL1 3460  10.445   0.633   4.244
  248POPC   GL2 3461  10.266   0.327   4.305
  248POPC   C1A 3462  10.529   0.581   4.724
  248POPC   D2A 3463  10.437   0.317   5.073
  248POPC   C3A 3464  10.672   0.517   5.374
  248POPC   C4A 3465  10.594   0.455   5.770
  248POPC   C1B 3466  10.058   0.655   4.586
  248POPC   C2B 3467  10.165   0.766   5.034
  248POPC   C3B 3468  10.192   0.634   5.458
  248POPC   C4B 3469  10.215   0.787   5.880
  249POPC   NC3 3470   9.153   0.458   3.851
  249POPC   PO4 3471   8.693   0.007   3.769
  249POPC   GL1 3472   9.038  11.485   4.129
  249POPC   GL2 3473   8.897   0.261   4.307
  249POPC   C1A 3474   9.191   0.028   4.648
  249POPC   D2A 3475   9.007   0.040   5.134
  249POPC   C3A 3476   9.244   0.191   5.535
  249POPC   C4A 3477   9.150   0.257   6.011
  249POPC   C1B 3478   8.809   0.358   4.764
  249POPC   C2B 3479   8.833   0.565   5.186
  249POPC   C3B 3480   8.804   0.432   5.613
  249POPC   C4B 3481   8.746   0.752   5.873
  250POPC   NC3 3482   7.842   1.986   3.952
  250POPC   PO4 3483   8.434   1.657   3.824
  250POPC   GL1 3484   8.211   1.689   4.236
  250POPC   GL2 3485   8.190   2.021   4.338
  250POPC   C1A 3486   7.998   1.720   4.682
  250POPC   D2A 3487   8.110   1.900   5.111
  250POPC   C3A 3488   7.848   1.801   5.448
  250POPC   C4A 3489   7.754   1.957   5.851
  250POPC   C1B 3490   8.153   2.236   4.733
  250POPC   C2B 3491   8.092   2.452   5.129
  250POPC   C3B 3492   7.970   2.332   5.543
  250POPC   C4B 3493   8.254   2.039   5.717
  251POPC   NC3 3494   2.924   8.356   3.796
  251POPC   PO4 3495   2.298   8.536   3.958
  251POPC   GL1 3496   2.362   8.384   4.420
  251POPC   GL2 3497   2.338   8.007   4.455
  251POPC   C1A 3498   2.507   8.338   4.897
  251POPC   D2A 3499   2.859   8.196   5.224
  251POPC   C3A 3500   3.080   8.232   5.662
  251POPC   C4A 3501   2.896   8.321   6.088
  251POPC   C1B 3502   2.353   7.813   4.876
  251POPC   C2B 3503   2.377   7.995   5.290
  251POPC   C3B 3504   2.585   8.078   5.703
  251POPC   C4B 3505   2.463   7.947   6.122
  252POPC   NC3 3506   6.533   3.615   4.034
  252POPC   PO4 3507   6.921   3.448   4.236
  252POPC   GL1 3508   6.611   3.605   4.540
  252POPC   GL2 3509   6.328   3.392   4.487
  252POPC   C1A 3510   6.416   3.654   4.970
  252POPC   D2A 3511   6.247   3.927   5.311
  252POPC   C3A 3512   6.534   3.919   5.661
  252POPC   C4A 3513   6.842   3.550   5.773
  252POPC   C1B 3514   6.613   3.171   4.797
  252POPC   C2B 3515   6.725   3.294   5.218
  252POPC   C3B 3516   6.424   3.456   5.491
  252POPC   C4B 3517   6.155   3.581   5.823
  253POPC   NC3 3518   8.156   9.656   3.971
  253POPC   PO4 3519   7.642  10.020   4.041
  253POPC   GL1 3520   7.927   9.887   4.361
  253POPC   GL2 3521   8.287   9.853   4.434
  253POPC   C1A 3522   7.960  10.051   4.778
  253POPC   D2A 3523   7.923   9.802   5.138
  253POPC   C3A 3524   7.698   9.823   5.511
  253POPC   C4A 3525   7.683   9.910   5.945
  253POPC   C1B 3526   8.168   9.569   4.759
  253POPC   C2B 3527   8.261   9.416   5.117
  253POPC   C3B 3528   7.993   9.413   5.465
  253POPC   C4B 3529   8.129   9.670   5.801
  254POPC   NC3 3530   9.459   9.830   3.798
  254POPC   PO4 3531   9.135   9.317   4.039
  254POPC   GL1 3532   9.297   9.666   4.281
  254POPC   GL2 3533   9.684   9.738   4.314
  254POPC   C1A 3534   9.210   9.666   4.710
  254POPC   D2A 3535   9.242   9.388   5.080
  254POPC   C3A 3536   9.218   9.540   5.511
  254POPC   C4A 3537   9.416   9.553   5.915
  254POPC   C1B 3538   9.912   9.673   4.758
  254POPC   C2B 3539   9.896   9.652   5.235
  254POPC   C3B 3540  10.005   9.479   5.643
  254POPC   C4B 3541   9.986   9.433   6.114
  255POPC   NC3 3542   5.224   0.962   3.995
  255POPC   PO4 3543   5.126   1.572   3.651
  255POPC   GL1 3544   5.025   1.395   4.150
  255POPC   GL2 3545   4.787   1.088   4.240
  255POPC   C1A 3546   5.085   1.266   4.605
  255POPC   D2A 3547   5.203   1.398   5.019
  255POPC   C3A 3548   4.887   1.358   5.340
  255POPC   C4A 3549   4.891   1.365   5.773
  255POPC   C1B 3550   4.761   0.848   4.626
  255POPC   C2B 3551   4.950   0.938   5.025
  255POPC   C3B 3552   5.092   0.896   5.431
  255POPC   C4B 3553   5.172   0.965   5.865
  256POPC   NC3 3554   0.158   8.051   3.963
  256POPC   PO4 3555   0.816   7.805   4.006
  256POPC   GL1 3556   0.548   8.015   4.316
  256POPC   GL2 3557   0.590   8.372   4.263
  256POPC   C1A 3558   0.428   8.046   4.765
  256POPC   D2A 3559   0.174   7.905   5.114
  256POPC   C3A 3560   0.381   8.064   5.486
  256POPC   C4A 3561   0.468   7.836   5.854
  256POPC   C1B 3562   0.706   8.475   4.686
  256POPC   C2B 3563   0.496   8.646   5.052
  256POPC   C3B 3564   0.622   8.573   5.479
  256POPC   C4B 3565   0.610   8.327   5.881
  257POPC   NC3 3566  10.179   7.324   4.230
  257POPC   PO4 3567   9.593   7.504   3.917
  257POPC   GL1 3568   9.707   7.529   4.353
  257POPC   GL2 3569   9.376   7.564   4.372
  257POPC   C1A 3570   9.910   7.457   4.806
  257POPC   D2A 3571  10.105   7.464   5.226
  257POPC   C3A 3572   9.822   7.648   5.505
  257POPC   C4A 3573   9.657   7.523   5.919
  257POPC   C1B 3574   9.391   7.378   4.755
  257POPC   C2B 3575   9.488   7.443   5.172
  257POPC   C3B 3576   9.586   7.188   5.519
  257POPC   C4B 3577   9.327   7.111   5.844
  258POPC   NC3 3578   8.300  11.144   3.652
  258POPC   PO4 3579   8.801  10.976   4.058
  258POPC   GL1 3580   8.800  11.155   4.435
  258POPC   GL2 3581   9.123  11.066   4.448
  258POPC   C1A 3582   8.622  11.384   4.789
  258POPC   D2A 3583   8.601  11.198   5.210
  258POPC   C3A 3584   8.579  11.446   5.573
  258POPC   C4A 3585   8.798  11.426   5.961
  258POPC   C1B 3586   9.011  11.082   4.884
  258POPC   C2B 3587   9.119  10.950   5.240
  258POPC   C3B 3588   9.059  11.207   5.565
  258POPC   C4B 3589   9.329  11.289   5.917
  259POPC   NC3 3590   1.721   6.634   3.760
  259POPC   PO4 3591   2.221   6.266   3.766
  259POPC   GL1 3592   1.922   6.375   4.155
  259POPC   GL2 3593   1.878   6.715   4.244
  259POPC   C1A 3594   1.814   6.320   4.638
  259POPC   D2A 3595   1.715   6.192   5.096
  259POPC   C3A 3596   1.923   6.310   5.517
  259POPC   C4A 3597   2.281   6.394   5.837
  259POPC   C1B 3598   2.050   6.773   4.682
  259POPC   C2B 3599   2.091   6.613   5.105
  259POPC   C3B 3600   2.249   6.767   5.505
  259POPC   C4B 3601   1.902   6.767   5.801
  260POPC   NC3 3602  11.189   5.696   3.942
  260POPC   PO4 3603  10.761   6.209   3.986
  260POPC   GL1 3604  10.902   5.920   4.306
  260POPC   GL2 3605  11.283   5.924   4.373
  260POPC   C1A 3606  10.961   5.727   4.724
  260POPC   D2A 3607  10.727   5.652   5.110
  260POPC   C3A 3608  10.923   5.739   5.489
  260POPC   C4A 3609  10.794   5.573   5.871
  260POPC   C1B 3610  11.470   5.938   4.773
  260POPC   C2B 3611  11.356   5.939   5.198
  260POPC   C3B 3612  11.422   5.745   5.592
  260POPC   C4B 3613  11.180   5.883   5.963
  261POPC   NC3 3614   5.121   9.262   4.001
  261POPC   PO4 3615   5.221  10.027   3.834
  261POPC   GL1 3616   5.122   9.817   4.198
  261POPC   GL2 3617   5.250   9.527   4.406
  261POPC   C1A 3618   4.980   9.910   4.612
  261POPC   D2A 3619   4.966   9.753   5.014
  261POPC   C3A 3620   4.931   9.931   5.396
  261POPC   C4A 3621   5.000   9.732   5.799
  261POPC   C1B 3622   4.925   9.350   4.710
  261POPC   C2B 3623   4.733   9.312   5.151
  261POPC   C3B 3624   4.712   9.294   5.622
  261POPC   C4B 3625   4.684   9.400   6.074
  262POPC   NC3 3626  10.879   6.669   3.946
  262POPC   PO4 3627  11.348   7.019   3.991
  262POPC   GL1 3628  11.206   6.785   4.330
  262POPC   GL2 3629  11.193   6.426   4.268
  262POPC   C1A 3630  11.316   6.723   4.728
  262POPC   D2A 3631  11.164   6.558   5.079
  262POPC   C3A 3632  11.202   6.762   5.444
  262POPC   C4A 3633  11.319   7.012   5.774
  262POPC   C1B 3634  11.044   6.268   4.659
  262POPC   C2B 3635  10.899   6.129   5.045
  262POPC   C3B 3636  11.027   6.236   5.459
  262POPC   C4B 3637  11.188   6.371   5.829
  263POPC   NC3 3638  11.106   7.452   3.879
  263POPC   PO4 3639  10.539   6.985   3.781
  263POPC   GL1 3640  10.856   7.130   4.179
  263POPC   GL2 3641  11.049   7.435   4.365
  263POPC   C1A 3642  10.932   7.066   4.687
  263POPC   D2A 3643  10.827   6.999   5.142
  263POPC   C3A 3644  10.888   7.172   5.542
  263POPC   C4A 3645  10.860   7.044   5.990
  263POPC   C1B 3646  11.394   7.255   4.633
  263POPC   C2B 3647  11.329   7.130   5.077
  263POPC   C3B 3648  11.347   7.400   5.454
  263POPC   C4B 3649  11.113   7.506   5.862
  264POPC   NC3 3650   5.283  10.558   3.792
  264POPC   PO4 3651   5.900  10.529   3.995
  264POPC   GL1 3652   5.887  10.526   4.401
  264POPC   GL2 3653   6.003  10.193   4.358
  264POPC   C1A 3654   5.735  10.687   4.819
  264POPC   D2A 3655   5.570  10.814   5.248
  264POPC   C3A 3656   5.650  10.561   5.617
  264POPC   C4A 3657   5.755  10.639   6.052
  264POPC   C1B 3658   5.847  10.159   4.768
  264POPC   C2B 3659   5.685  10.284   5.145
  264POPC   C3B 3660   5.813  10.089   5.499
  264POPC   C4B 3661   5.810  10.150   5.899
  265POPC   NC3 3662   0.127   3.441   3.966
  265POPC   PO4 3663  11.106   3.796   3.900
  265POPC   GL1 3664  11.209   3.511   4.225
  265POPC   GL2 3665  10.950   3.346   4.350
  265POPC   C1A 3666  11.421   3.332   4.595
  265POPC   D2A 3667  11.228   3.209   5.000
  265POPC   C3A 3668  11.375   3.294   5.439
  265POPC   C4A 3669  11.448   3.169   5.882
  265POPC   C1B 3670  11.067   3.670   4.689
  265POPC   C2B 3671  10.921   3.627   5.092
  265POPC   C3B 3672  10.885   3.550   5.508
  265POPC   C4B 3673  11.124   3.552   5.866
  266POPC   NC3 3674   1.243  11.308   3.989
  266POPC   PO4 3675   1.280  10.688   3.778
  266POPC   GL1 3676   1.334  10.856   4.267
  266POPC   GL2 3677   1.097  11.126   4.417
  266POPC   C1A 3678   1.311  10.829   4.774
  266POPC   D2A 3679   1.030  10.828   5.168
  266POPC   C3A 3680   1.126  10.921   5.628
  266POPC   C4A 3681   1.500  10.874   5.914
  266POPC   C1B 3682   1.388  11.352   4.699
  266POPC   C2B 3683   1.386   0.065   5.098
  266POPC   C3B 3684   1.242  11.424   5.494
  266POPC   C4B 3685   1.290   0.003   5.919
  267POPC   NC3 3686   1.560   5.032   3.765
  267POPC   PO4 3687   0.962   5.385   3.752
  267POPC   GL1 3688   1.107   5.359   4.183
  267POPC   GL2 3689   1.254   5.039   4.188
  267POPC   C1A 3690   1.303   5.384   4.611
  267POPC   D2A 3691   1.143   5.380   5.053
  267POPC   C3A 3692   1.350   5.423   5.442
  267POPC   C4A 3693   1.477   5.152   5.783
  267POPC   C1B 3694   1.201   4.842   4.609
  267POPC   C2B 3695   0.988   4.894   5.005
  267POPC   C3B 3696   1.171   4.890   5.418
  267POPC   C4B 3697   0.995   4.885   5.847
  268POPC   NC3 3698   1.160   6.780   4.046
  268POPC   PO4 3699   1.498   6.226   3.836
  268POPC   GL1 3700   1.417   6.275   4.294
  268POPC   GL2 3701   1.426   6.614   4.450
  268POPC   C1A 3702   1.171   6.238   4.718
  268POPC   D2A 3703   1.235   6.402   5.153
  268POPC   C3A 3704   1.011   6.320   5.543
  268POPC   C4A 3705   1.415   6.513   5.714
  268POPC   C1B 3706   1.144   6.759   4.777
  268POPC   C2B 3707   1.150   6.946   5.175
  268POPC   C3B 3708   1.027   6.825   5.566
  268POPC   C4B 3709   1.040   6.995   5.941
  269POPC   NC3 3710   0.605   5.313   4.064
  269POPC   PO4 3711   0.762   4.600   3.939
  269POPC   GL1 3712   0.474   4.807   4.234
  269POPC   GL2 3713   0.779   4.934   4.350
  269POPC   C1A 3714   0.401   4.978   4.694
  269POPC   D2A 3715   0.501   4.811   5.141
  269POPC   C3A 3716   0.443   4.990   5.560
  269POPC   C4A 3717   0.444   4.875   6.017
  269POPC   C1B 3718   0.819   5.254   4.667
  269POPC   C2B 3719   0.642   5.290   5.078
  269POPC   C3B 3720   0.851   5.285   5.478
  269POPC   C4B 3721   0.702   5.296   5.890
  270POPC   NC3 3722   6.498   0.859   3.776
  270POPC   PO4 3723   7.044   0.925   4.086
  270POPC   GL1 3724   6.653   0.797   4.297
  270POPC   GL2 3725   6.351   1.041   4.248
  270POPC   C1A 3726   6.653   0.692   4.746
  270POPC   D2A 3727   6.879   0.850   5.109
  270POPC   C3A 3728   6.689   0.874   5.507
  270POPC   C4A 3729   6.428   0.927   5.857
  270POPC   C1B 3730   6.488   1.178   4.670
  270POPC   C2B 3731   6.445   1.118   5.114
  270POPC   C3B 3732   6.365   1.312   5.501
  270POPC   C4B 3733   6.703   1.376   5.739
  271POPC   NC3 3734  10.263   7.373   3.667
  271POPC   PO4 3735  10.552   7.593   4.184
  271POPC   GL1 3736  10.565   7.367   4.534
  271POPC   GL2 3737  10.476   7.005   4.475
  271POPC   C1A 3738  10.477   7.307   4.909
  271POPC   D2A 3739  10.658   7.522   5.204
  271POPC   C3A 3740  10.514   7.524   5.587
  271POPC   C4A 3741  10.676   7.851   5.798
  271POPC   C1B 3742  10.226   6.867   4.791
  271POPC   C2B 3743  10.317   6.925   5.210
  271POPC   C3B 3744  10.398   7.028   5.581
  271POPC   C4B 3745  10.062   7.257   5.717
  272POPC   NC3 3746   9.527   7.972   3.986
  272POPC   PO4 3747  10.093   7.819   3.666
  272POPC   GL1 3748  10.027   7.868   4.132
  272POPC   GL2 3749   9.967   8.242   4.210
  272POPC   C1A 3750   9.875   7.934   4.603
  272POPC   D2A 3751   9.679   7.906   5.029
  272POPC   C3A 3752   9.783   8.158   5.424
  272POPC   C4A 3753   9.816   8.009   5.853
  272POPC   C1B 3754   9.591   8.370   4.514
  272POPC   C2B 3755   9.349   8.365   4.926
  272POPC   C3B 3756   9.304   8.316   5.360
  272POPC   C4B 3757   9.389   8.269   5.788
  273POPC   NC3 3758   0.951   9.337   3.859
  273POPC   PO4 3759   1.597   9.238   4.004
  273POPC   GL1 3760   1.285   9.472   4.260
  273POPC   GL2 3761   1.310   9.851   4.296
  273POPC   C1A 3762   1.133   9.476   4.664
  273POPC   D2A 3763   0.935   9.508   5.053
  273POPC   C3A 3764   1.139   9.505   5.440
  273POPC   C4A 3765   0.872   9.545   5.800
  273POPC   C1B 3766   1.516   9.858   4.685
  273POPC   C2B 3767   1.259   9.904   5.027
  273POPC   C3B 3768   1.311  10.020   5.428
  273POPC   C4B 3769   1.203   9.916   5.834
  274POPC   NC3 3770   0.572   6.118   3.795
  274POPC   PO4 3771   0.696   6.811   3.959
  274POPC   GL1 3772   0.451   6.474   4.158
  274POPC   GL2 3773   0.683   6.229   4.303
  274POPC   C1A 3774   0.178   6.381   4.532
  274POPC   D2A 3775   0.241   6.539   4.971
  274POPC   C3A 3776   0.063   6.390   5.370
  274POPC   C4A 3777   0.119   6.617   5.742
  274POPC   C1B 3778   0.697   6.506   4.653
  274POPC   C2B 3779   0.733   6.413   5.092
  274POPC   C3B 3780   0.561   6.591   5.465
  274POPC   C4B 3781   0.544   6.914   5.781
  275POPC   NC3 3782   4.724  10.059   3.920
  275POPC   PO4 3783   4.887  10.741   3.942
  275POPC   GL1 3784   5.052  10.386   4.211
  275POPC   GL2 3785   5.447  10.312   4.195
  275POPC   C1A 3786   4.846  10.397   4.609
  275POPC   D2A 3787   4.643  10.173   4.930
  275POPC   C3A 3788   4.720  10.393   5.306
  275POPC   C4A 3789   4.790  10.678   5.642
  275POPC   C1B 3790   5.371  10.291   4.628
  275POPC   C2B 3791   5.155  10.263   5.012
  275POPC   C3B 3792   5.215  10.379   5.424
  275POPC   C4B 3793   5.340  10.119   5.729
  276POPC   NC3 3794   4.617   2.873   3.955
  276POPC   PO4 3795   4.025   3.074   3.977
  276POPC   GL1 3796   4.228   2.726   4.278
  276POPC   GL2 3797   4.123   2.377   4.389
  276POPC   C1A 3798   4.408   2.610   4.723
  276POPC   D2A 3799   4.239   2.592   5.158
  276POPC   C3A 3800   4.500   2.675   5.534
  276POPC   C4A 3801   4.848   2.673   5.828
  276POPC   C1B 3802   3.889   2.618   4.695
  276POPC   C2B 3803   3.695   2.515   5.098
  276POPC   C3B 3804   3.890   2.405   5.476
  276POPC   C4B 3805   4.085   2.604   5.829
  277POPC   NC3 3806   8.706   4.645   3.860
  277POPC   PO4 3807   8.752   4.030   3.864
  277POPC   GL1 3808   8.964   3.914   4.260
  277POPC   GL2 3809   9.089   4.213   4.439
  277POPC   C1A 3810   8.849   3.834   4.710
  277POPC   D2A 3811   8.698   3.716   5.145
  277POPC   C3A 3812   8.764   3.858   5.583
  277POPC   C4A 3813   8.543   4.164   5.814
  277POPC   C1B 3814   9.014   4.345   4.871
  277POPC   C2B 3815   8.950   4.229   5.306
  277POPC   C3B 3816   9.055   4.307   5.750
  277POPC   C4B 3817   8.845   4.379   6.159
  278POPC   NC3 3818   1.040   2.921   4.046
  278POPC   PO4 3819   1.250   3.506   3.808
  278POPC   GL1 3820   1.278   3.564   4.230
  278POPC   GL2 3821   1.040   3.352   4.325
  278POPC   C1A 3822   1.502   3.540   4.625
  278POPC   D2A 3823   1.638   3.520   5.054
  278POPC   C3A 3824   1.449   3.809   5.348
  278POPC   C4A 3825   1.559   3.630   5.733
  278POPC   C1B 3826   0.992   3.229   4.737
  278POPC   C2B 3827   1.144   3.417   5.106
  278POPC   C3B 3828   1.105   3.488   5.534
  278POPC   C4B 3829   0.892   3.223   5.824
  279POPC   NC3 3830   3.139   1.142   3.747
  279POPC   PO4 3831   2.773   1.415   4.155
  279POPC   GL1 3832   2.801   1.116   4.437
  279POPC   GL2 3833   2.496   0.897   4.382
  279POPC   C1A 3834   2.912   1.209   4.890
  279POPC   D2A 3835   3.239   1.330   5.205
  279POPC   C3A 3836   3.069   1.271   5.638
  279POPC   C4A 3837   2.999   1.037   6.034
  279POPC   C1B 3838   2.349   1.261   4.608
  279POPC   C2B 3839   2.354   1.189   4.999
  279POPC   C3B 3840   2.625   1.273   5.359
  279POPC   C4B 3841   2.582   1.187   5.791
  280POPC   NC3 3842   3.813  11.255   3.943
  280POPC   PO4 3843   3.105  11.322   3.844
  280POPC   GL1 3844   3.352  11.396   4.220
  280POPC   GL2 3845   3.525  11.101   4.333
  280POPC   C1A 3846   3.222  11.376   4.689
  280POPC   D2A 3847   3.297   0.046   5.124
  280POPC   C3A 3848   3.111  11.369   5.498
  280POPC   C4A 3849   3.339  11.229   5.867
  280POPC   C1B 3850   3.420  10.897   4.723
  280POPC   C2B 3851   3.468  11.073   5.104
  280POPC   C3B 3852   3.626  11.051   5.501
  280POPC   C4B 3853   3.550  10.766   5.837
  281POPC   NC3 3854   5.161   8.261   3.888
  281POPC   PO4 3855   4.820   8.699   3.905
  281POPC   GL1 3856   4.883   8.454   4.302
  281POPC   GL2 3857   5.183   8.231   4.391
  281POPC   C1A 3858   4.907   8.411   4.775
  281POPC   D2A 3859   4.977   8.115   5.115
  281POPC   C3A 3860   4.931   8.291   5.529
  281POPC   C4A 3861   4.619   8.356   5.879
  281POPC   C1B 3862   5.311   7.933   4.741
  281POPC   C2B 3863   5.239   7.669   5.107
  281POPC   C3B 3864   5.211   7.846   5.528
  281POPC   C4B 3865   5.449   8.174   5.756
  282POPC   NC3 3866   6.925   0.402   4.038
  282POPC   PO4 3867   6.246   0.368   3.856
  282POPC   GL1 3868   6.457   0.249   4.290
  282POPC   GL2 3869   6.123   0.219   4.487
  282POPC   C1A 3870   6.842   0.193   4.640
  282POPC   D2A 3871   6.973   0.354   5.051
  282POPC   C3A 3872   6.858   0.112   5.406
  282POPC   C4A 3873   6.715  11.364   5.750
  282POPC   C1B 3874   6.386   0.259   4.854
  282POPC   C2B 3875   6.509   0.475   5.207
  282POPC   C3B 3876   6.337   0.489   5.559
  282POPC   C4B 3877   6.560   0.329   5.794
  283POPC   NC3 3878   7.896  10.516   3.893
  283POPC   PO4 3879   8.463  10.046   3.910
  283POPC   GL1 3880   8.424  10.305   4.276
  283POPC   GL2 3881   8.108  10.347   4.314
  283POPC   C1A 3882   8.422  10.295   4.740
  283POPC   D2A 3883   8.423   9.934   5.057
  283POPC   C3A 3884   8.209  10.057   5.469
  283POPC   C4A 3885   8.114  10.202   5.907
  283POPC   C1B 3886   7.994  10.595   4.624
  283POPC   C2B 3887   7.987  10.740   5.036
  283POPC   C3B 3888   8.138  10.592   5.462
  283POPC   C4B 3889   7.939  10.685   5.870
  284POPC   NC3 3890   2.519   5.917   3.789
  284POPC   PO4 3891   3.199   5.951   3.684
  284POPC   GL1 3892   2.951   5.923   4.127
  284POPC   GL2 3893   2.608   5.823   4.288
  284POPC   C1A 3894   2.878   6.126   4.586
  284POPC   D2A 3895   2.725   6.144   5.053
  284POPC   C3A 3896   2.878   6.005   5.486
  284POPC   C4A 3897   2.770   6.091   5.936
  284POPC   C1B 3898   2.569   5.730   4.756
  284POPC   C2B 3899   2.621   5.654   5.217
  284POPC   C3B 3900   2.640   5.557   5.660
  284POPC   C4B 3901   2.441   5.719   6.052
  285POPC   NC3 3902   1.878   5.951   3.847
  285POPC   PO4 3903   2.337   5.534   3.973
  285POPC   GL1 3904   2.074   5.620   4.301
  285POPC   GL2 3905   1.995   5.922   4.354
  285POPC   C1A 3906   1.806   5.450   4.612
  285POPC   D2A 3907   1.646   5.469   5.020
  285POPC   C3A 3908   1.779   5.747   5.354
  285POPC   C4A 3909   1.644   5.660   5.790
  285POPC   C1B 3910   2.052   5.866   4.789
  285POPC   C2B 3911   2.227   6.027   5.157
  285POPC   C3B 3912   2.346   5.966   5.565
  285POPC   C4B 3913   2.039   5.947   5.877
  286POPC   NC3 3914   7.243   9.943   4.261
  286POPC   PO4 3915   7.347  10.517   3.876
  286POPC   GL1 3916   7.160  10.573   4.347
  286POPC   GL2 3917   7.166  10.270   4.613
  286POPC   C1A 3918   7.079  10.701   4.811
  286POPC   D2A 3919   7.208  10.398   5.181
  286POPC   C3A 3920   7.164  10.513   5.628
  286POPC   C4A 3921   7.106  10.665   6.118
  286POPC   C1B 3922   7.553  10.371   4.791
  286POPC   C2B 3923   7.754  10.302   5.187
  286POPC   C3B 3924   7.689  10.315   5.610
  286POPC   C4B 3925   7.496  10.384   5.981
  287POPC   NC3 3926   2.041   5.168   4.080
  287POPC   PO4 3927   2.331   4.632   3.918
  287POPC   GL1 3928   2.105   4.598   4.353
  287POPC   GL2 3929   2.157   4.896   4.515
  287POPC   C1A 3930   1.737   4.632   4.718
  287POPC   D2A 3931   1.525   4.944   5.016
  287POPC   C3A 3932   1.714   4.863   5.429
  287POPC   C4A 3933   1.975   4.593   5.751
  287POPC   C1B 3934   2.272   5.298   4.732
  287POPC   C2B 3935   2.158   5.500   5.129
  287POPC   C3B 3936   2.143   5.485   5.590
  287POPC   C4B 3937   2.042   5.102   5.757
  288POPC   NC3 3938   0.338   4.424   3.883
  288POPC   PO4 3939   0.417   3.823   3.981
  288POPC   GL1 3940   0.422   4.124   4.320
  288POPC   GL2 3941   0.706   4.315   4.331
  288POPC   C1A 3942   0.611   4.065   4.755
  288POPC   D2A 3943   0.429   3.959   5.133
  288POPC   C3A 3944   0.470   4.127   5.549
  288POPC   C4A 3945   0.267   4.514   5.661
  288POPC   C1B 3946   0.691   4.567   4.705
  288POPC   C2B 3947   0.776   4.393   5.120
  288POPC   C3B 3948   0.787   4.545   5.524
  288POPC   C4B 3949   0.700   4.461   5.954
  289POPC   NC3 3950   1.958   8.600   3.650
  289POPC   PO4 3951   2.196   9.185   3.738
  289POPC   GL1 3952   2.027   9.172   4.230
  289POPC   GL2 3953   2.018   8.796   4.319
  289POPC   C1A 3954   2.125   9.175   4.692
  289POPC   D2A 3955   1.886   9.113   5.104
  289POPC   C3A 3956   2.117   9.200   5.491
  289POPC   C4A 3957   2.240   8.887   5.762
  289POPC   C1B 3958   1.772   8.783   4.717
  289POPC   C2B 3959   1.587   8.594   5.077
  289POPC   C3B 3960   1.741   8.627   5.496
  289POPC   C4B 3961   1.669   9.022   5.673
  290POPC   NC3 3962   0.649   1.131   3.692
  290POPC   PO4 3963   0.157   1.510   3.972
  290POPC   GL1 3964   0.298   1.415   4.345
  290POPC   GL2 3965   0.571   1.200   4.227
  290POPC   C1A 3966   0.118   1.442   4.772
  290POPC   D2A 3967  11.445   1.663   5.132
  290POPC   C3A 3968   0.052   1.486   5.510
  290POPC   C4A 3969   0.401   1.476   5.791
  290POPC   C1B 3970   0.356   0.999   4.606
  290POPC   C2B 3971   0.287   0.941   5.052
  290POPC   C3B 3972   0.489   1.138   5.405
  290POPC   C4B 3973   0.755   1.107   5.764
  291POPC   NC3 3974   8.343   0.548   3.786
  291POPC   PO4 3975   8.046   0.043   3.987
  291POPC   GL1 3976   8.141   0.459   4.247
  291POPC   GL2 3977   7.893   0.707   4.406
  291POPC   C1A 3978   8.364   0.613   4.622
  291POPC   D2A 3979   8.355   0.442   5.065
  291POPC   C3A 3980   8.374   0.704   5.478
  291POPC   C4A 3981   8.236   0.644   5.939
  291POPC   C1B 3982   7.914   0.306   4.725
  291POPC   C2B 3983   7.927   0.150   5.206
  291POPC   C3B 3984   7.953   0.259   5.680
  291POPC   C4B 3985   7.819   0.171   6.153
  292POPC   NC3 3986   8.914   1.933   3.738
  292POPC   PO4 3987   9.238   1.530   4.140
  292POPC   GL1 3988   8.755   1.668   4.300
  292POPC   GL2 3989   8.661   2.009   4.164
  292POPC   C1A 3990   8.505   1.634   4.724
  292POPC   D2A 3991   8.622   1.825   5.150
  292POPC   C3A 3992   8.602   1.665   5.591
  292POPC   C4A 3993   8.656   1.634   6.051
  292POPC   C1B 3994   8.659   2.105   4.612
  292POPC   C2B 3995   8.584   2.318   5.017
  292POPC   C3B 3996   8.687   2.233   5.479
  292POPC   C4B 3997   9.118   2.105   5.644
  293POPC   NC3 3998   9.710  10.366   3.829
  293POPC   PO4 3999   9.169  10.117   4.016
  293POPC   GL1 4000   9.434  10.192   4.334
  293POPC   GL2 4001   9.754  10.312   4.320
  293POPC   C1A 4002   9.556  10.048   4.734
  293POPC   D2A 4003   9.453   9.864   5.111
  293POPC   C3A 4004   9.320  10.047   5.476
  293POPC   C4A 4005   9.700   9.907   5.676
  293POPC   C1B 4006   9.754  10.508   4.743
  293POPC   C2B 4007   9.508  10.462   5.136
  293POPC   C3B 4008   9.624  10.436   5.554
  293POPC   C4B 4009   9.938  10.688   5.689
  294POPC   NC3 4010   2.588   1.068   3.902
  294POPC   PO4 4011   1.955   0.798   3.924
  294POPC   GL1 4012   1.960   1.037   4.296
  294POPC   GL2 4013   1.983   1.401   4.283
  294POPC   C1A 4014   1.952   0.966   4.710
  294POPC   D2A 4015   1.861   1.021   5.116
  294POPC   C3A 4016   2.165   1.034   5.436
  294POPC   C4A 4017   2.106   1.061   5.847
  294POPC   C1B 4018   1.878   1.468   4.747
  294POPC   C2B 4019   2.103   1.601   5.141
  294POPC   C3B 4020   2.142   1.520   5.585
  294POPC   C4B 4021   1.781   1.432   5.844
  295POPC   NC3 4022   3.587   1.956   3.730
  295POPC   PO4 4023   3.899   2.505   3.921
  295POPC   GL1 4024   3.694   2.196   4.197
  295POPC   GL2 4025   3.470   1.916   4.229
  295POPC   C1A 4026   3.585   2.217   4.648
  295POPC   D2A 4027   3.588   1.906   4.975
  295POPC   C3A 4028   3.541   2.037   5.380
  295POPC   C4A 4029   3.753   1.995   5.759
  295POPC   C1B 4030   3.229   1.838   4.610
  295POPC   C2B 4031   3.061   1.815   5.021
  295POPC   C3B 4032   3.109   1.759   5.455
  295POPC   C4B 4033   3.248   1.968   5.805
  296POPC   NC3 4034   1.186   5.796   3.869
  296POPC   PO4 4035   1.750   5.457   3.853
  296POPC   GL1 4036   1.534   5.719   4.246
  296POPC   GL2 4037   1.166   5.836   4.368
  296POPC   C1A 4038   1.535   5.874   4.709
  296POPC   D2A 4039   1.296   5.870   5.125
  296POPC   C3A 4040   1.420   6.035   5.538
  296POPC   C4A 4041   1.331   6.069   5.998
  296POPC   C1B 4042   0.948   5.755   4.749
  296POPC   C2B 4043   0.777   5.776   5.152
  296POPC   C3B 4044   0.945   5.787   5.547
  296POPC   C4B 4045   1.133   5.599   5.900
  297POPC   NC3 4046   0.227   9.657   4.160
  297POPC   PO4 4047   0.806   9.807   3.778
  297POPC   GL1 4048   0.808   9.727   4.228
  297POPC   GL2 4049   0.720   9.395   4.347
  297POPC   C1A 4050   0.866   9.905   4.660
  297POPC   D2A 4051   0.629   9.982   5.023
  297POPC   C3A 4052   0.805   9.909   5.415
  297POPC   C4A 4053   0.711  10.047   5.827
  297POPC   C1B 4054   0.509   9.518   4.768
  297POPC   C2B 4055   0.322   9.627   5.204
  297POPC   C3B 4056   0.363   9.692   5.656
  297POPC   C4B 4057   0.449   9.528   6.071
  298POPC   NC3 4058   0.127   2.787   3.900
  298POPC   PO4 4059   0.667   2.251   4.006
  298POPC   GL1 4060   0.630   2.660   4.253
  298POPC   GL2 4061   0.320   2.870   4.351
  298POPC   C1A 4062   0.650   2.737   4.699
  298POPC   D2A 4063   0.611   2.971   5.060
  298POPC   C3A 4064   0.609   2.741   5.441
  298POPC   C4A 4065   0.547   2.728   5.880
  298POPC   C1B 4066   0.083   2.881   4.720
  298POPC   C2B 4067   0.117   2.915   5.168
  298POPC   C3B 4068   0.123   2.781   5.573
  298POPC   C4B 4069   0.117   2.375   5.721
  299POPC   NC3 4070   7.337   2.339   3.860
  299POPC   PO4 4071   7.659   2.786   4.099
  299POPC   GL1 4072   7.439   2.662   4.447
  299POPC   GL2 4073   7.146   2.453   4.329
  299POPC   C1A 4074   7.476   2.763   4.894
  299POPC   D2A 4075   7.645   2.637   5.283
  299POPC   C3A 4076   7.413   2.740   5.643
  299POPC   C4A 4077   7.152   3.109   5.777
  299POPC   C1B 4078   7.117   2.411   4.787
  299POPC   C2B 4079   7.127   2.542   5.221
  299POPC   C3B 4080   6.904   2.714   5.566
  299POPC   C4B 4081   7.005   2.641   5.991
  300POPC   NC3 4082   1.344  10.285   3.983
  300POPC   PO4 4083   0.758  10.531   3.725
  300POPC   GL1 4084   0.902  10.583   4.184
  300POPC   GL2 4085   0.931  10.243   4.289
  300POPC   C1A 4086   0.857  10.574   4.692
  300POPC   D2A 4087   0.992  10.328   5.105
  300POPC   C3A 4088   1.003  10.412   5.585
  300POPC   C4A 4089   1.114  10.598   6.044
  300POPC   C1B 4090   1.275  10.299   4.627
  300POPC   C2B 4091   1.518  10.373   5.004
  300POPC   C3B 4092   1.496  10.537   5.411
  300POPC   C4B 4093   1.475  10.359   5.810
  301POPC   NC3 4094   8.849   1.406   3.881
  301POPC   PO4 4095   8.766   0.714   3.808
  301POPC   GL1 4096   8.752   0.763   4.273
  301POPC   GL2 4097   8.889   1.088   4.269
  301POPC   C1A 4098   8.869   0.849   4.728
  301POPC   D2A 4099   9.164   0.995   5.036
  301POPC   C3A 4100   8.966   1.061   5.464
  301POPC   C4A 4101   9.115   1.101   5.894
  301POPC   C1B 4102   8.915   1.335   4.645
  301POPC   C2B 4103   8.843   1.380   5.038
  301POPC   C3B 4104   9.077   1.577   5.332
  301POPC   C4B 4105   9.102   1.605   5.757
  302POPC   NC3 4106   0.060   1.018   4.001
  302POPC   PO4 4107  10.927   0.827   3.971
  302POPC   GL1 4108  11.160   1.061   4.329
  302POPC   GL2 4109  11.276   1.426   4.356
  302POPC   C1A 4110  11.343   0.981   4.742
  302POPC   D2A 4111  11.182   0.886   5.170
  302POPC   C3A 4112  11.483   0.970   5.488
  302POPC   C4A 4113  11.470   0.890   5.922
  302POPC   C1B 4114  11.079   1.477   4.792
  302POPC   C2B 4115  11.035   1.365   5.243
  302POPC   C3B 4116  11.052   1.192   5.657
  302POPC   C4B 4117  10.891   1.415   6.047
  303POPC   NC3 4118   2.102   8.093   4.002
  303POPC   PO4 4119   1.495   7.810   3.840
  303POPC   GL1 4120   1.718   7.896   4.260
  303POPC   GL2 4121   1.862   8.255   4.418
  303POPC   C1A 4122   1.888   7.828   4.665
  303POPC   D2A 4123   1.707   7.891   5.053
  303POPC   C3A 4124   1.850   7.988   5.432
  303POPC   C4A 4125   1.722   7.600   5.692
  303POPC   C1B 4126   1.964   8.312   4.840
  303POPC   C2B 4127   2.127   8.605   5.148
  303POPC   C3B 4128   2.215   8.417   5.547
  303POPC   C4B 4129   2.013   8.169   5.879
  304POPC   NC3 4130   0.617   5.543   3.491
  304POPC   PO4 4131   0.760   5.785   4.055
  304POPC   GL1 4132   0.600   5.695   4.390
  304POPC   GL2 4133   0.299   5.881   4.333
  304POPC   C1A 4134   0.357   5.513   4.705
  304POPC   D2A 4135   0.187   5.565   5.096
  304POPC   C3A 4136   0.406   5.540   5.473
  304POPC   C4A 4137   0.442   5.712   5.870
  304POPC   C1B 4138   0.494   6.030   4.739
  304POPC   C2B 4139   0.359   6.054   5.122
  304POPC   C3B 4140   0.494   6.082   5.518
  304POPC   C4B 4141   0.169   6.122   5.809
  305POPC   NC3 4142  10.373   6.419   3.852
  305POPC   PO4 4143  10.051   6.897   4.139
  305POPC   GL1 4144  10.296   6.551   4.336
  305POPC   GL2 4145  10.669   6.532   4.384
  305POPC   C1A 4146  10.304   6.343   4.720
  305POPC   D2A 4147  10.133   6.472   5.109
  305POPC   C3A 4148  10.234   6.361   5.524
  305POPC   C4A 4149  10.313   6.618   5.858
  305POPC   C1B 4150  10.706   6.626   4.821
  305POPC   C2B 4151  10.648   6.531   5.261
  305POPC   C3B 4152  10.773   6.647   5.680
  305POPC   C4B 4153  10.717   6.571   6.150
  306POPC   NC3 4154   9.250  10.965   3.921
  306POPC   PO4 4155   9.967  10.721   3.995
  306POPC   GL1 4156   9.602  10.814   4.306
  306POPC   GL2 4157   9.588  11.185   4.290
  306POPC   C1A 4158   9.455  10.890   4.776
  306POPC   D2A 4159   9.651  10.992   5.185
  306POPC   C3A 4160   9.484  10.918   5.608
  306POPC   C4A 4161   9.409  10.685   6.002
  306POPC   C1B 4162   9.692  11.329   4.708
  306POPC   C2B 4163   9.518  11.492   5.093
  306POPC   C3B 4164   9.665  11.397   5.507
  306POPC   C4B 4165  10.047  11.164   5.636
  307POPC   NC3 4166   7.369   9.063   3.802
  307POPC   PO4 4167   7.601   8.492   3.936
  307POPC   GL1 4168   7.530   8.844   4.260
  307POPC   GL2 4169   7.194   8.936   4.331
  307POPC   C1A 4170   7.556   9.076   4.704
  307POPC   D2A 4171   7.484   8.933   5.132
  307POPC   C3A 4172   7.750   8.935   5.474
  307POPC   C4A 4173   7.761   8.878   5.885
  307POPC   C1B 4174   7.059   8.991   4.789
  307POPC   C2B 4175   7.085   9.221   5.208
  307POPC   C3B 4176   7.122   8.942   5.564
  307POPC   C4B 4177   6.947   8.791   5.975
  308POPC   NC3 4178   9.641   4.986   3.950
  308POPC   PO4 4179   9.120   4.570   4.056
  308POPC   GL1 4180   9.394   4.649   4.412
  308POPC   GL2 4181   9.576   4.978   4.444
  308POPC   C1A 4182   9.451   4.709   4.865
  308POPC   D2A 4183   9.446   4.954   5.242
  308POPC   C3A 4184   9.473   4.723   5.640
  308POPC   C4A 4185   9.135   4.783   5.962
  308POPC   C1B 4186   9.891   4.978   4.763
  308POPC   C2B 4187   9.892   5.195   5.150
  308POPC   C3B 4188   9.747   5.183   5.601
  308POPC   C4B 4189   9.919   5.281   6.019
  309POPC   NC3 4190  11.156   9.418   3.891
  309POPC   PO4 4191   0.213   9.211   4.060
  309POPC   GL1 4192  11.430   9.316   4.410
  309POPC   GL2 4193  11.221   9.618   4.357
  309POPC   C1A 4194  11.478   9.563   4.798
  309POPC   D2A 4195  11.250   9.676   5.151
  309POPC   C3A 4196  11.373   9.557   5.543
  309POPC   C4A 4197   0.010   9.205   5.772
  309POPC   C1B 4198  10.947   9.633   4.719
  309POPC   C2B 4199  10.740   9.569   5.096
  309POPC   C3B 4200  10.862   9.615   5.501
  309POPC   C4B 4201  10.992   9.697   5.923
  310POPC   NC3 4202   9.708   3.325   3.679
  310POPC   PO4 4203   9.732   3.896   4.011
  310POPC   GL1 4204   9.659   3.643   4.362
  310POPC   GL2 4205   9.621   3.266   4.406
  310POPC   C1A 4206   9.685   3.759   4.786
  310POPC   D2A 4207   9.850   3.994   5.123
  310POPC   C3A 4208   9.899   3.771   5.515
  310POPC   C4A 4209   9.769   3.697   5.940
  310POPC   C1B 4210   9.718   3.248   4.831
  310POPC   C2B 4211   9.585   3.473   5.204
  310POPC   C3B 4212   9.530   3.380   5.645
  310POPC   C4B 4213   9.732   3.162   6.000
  311POPC   NC3 4214   3.166   0.281   3.685
  311POPC   PO4 4215   3.708   0.212   3.952
  311POPC   GL1 4216   3.459   0.403   4.319
  311POPC   GL2 4217   3.682   0.685   4.404
  311POPC   C1A 4218   3.288   0.415   4.765
  311POPC   D2A 4219   3.019   0.467   5.168
  311POPC   C3A 4220   3.250   0.363   5.545
  311POPC   C4A 4221   3.617   0.063   5.570
  311POPC   C1B 4222   3.784   0.538   4.814
  311POPC   C2B 4223   3.647   0.464   5.228
  311POPC   C3B 4224   3.738   0.565   5.676
  311POPC   C4B 4225   3.786   0.736   6.120
  312POPC   NC3 4226   4.399  10.850   3.907
  312POPC   PO4 4227   4.251  10.122   3.818
  312POPC   GL1 4228   4.180  10.353   4.188
  312POPC   GL2 4229   4.521  10.457   4.209
  312POPC   C1A 4230   4.145  10.239   4.648
  312POPC   D2A 4231   3.976  10.236   5.087
  312POPC   C3A 4232   4.268  10.178   5.444
  312POPC   C4A 4233   4.215  10.069   5.920
  312POPC   C1B 4234   4.393  10.688   4.578
  312POPC   C2B 4235   4.350  10.582   5.008
  312POPC   C3B 4236   4.324  10.707   5.428
  312POPC   C4B 4237   4.323  10.532   5.806
  313POPC   NC3 4238  11.485   1.878   3.732
  313POPC   PO4 4239  10.850   2.003   3.792
  313POPC   GL1 4240  10.999   2.107   4.238
  313POPC   GL2 4241  11.344   2.012   4.224
  313POPC   C1A 4242  10.862   2.061   4.710
  313POPC   D2A 4243  10.900   1.860   5.137
  313POPC   C3A 4244  10.760   2.071   5.527
  313POPC   C4A 4245  10.969   2.241   5.881
  313POPC   C1B 4246  11.367   1.928   4.671
  313POPC   C2B 4247  11.331   2.153   5.070
  313POPC   C3B 4248  11.271   2.039   5.489
  313POPC   C4B 4249  11.085   1.697   5.664
  314POPC   NC3 4250  11.155   5.058   3.884
  314POPC   PO4 4251   0.125   5.517   3.954
  314POPC   GL1 4252  11.499   5.114   4.264
  314POPC   GL2 4253  11.115   5.137   4.379
  314POPC   C1A 4254  11.420   4.863   4.677
  314POPC   D2A 4255   0.062   5.058   5.082
  314POPC   C3A 4256  11.447   4.878   5.474
  314POPC   C4A 4257  11.457   4.985   5.919
  314POPC   C1B 4258  11.337   5.379   4.724
  314POPC   C2B 4259  11.203   5.437   5.178
  314POPC   C3B 4260  11.163   5.298   5.628
  314POPC   C4B 4261  10.912   5.076   5.953
  315POPC   NC3 4262  11.086  10.409   4.003
  315POPC   PO4 4263   0.070  10.848   3.775
  315POPC   GL1 4264  11.435  10.744   4.259
  315POPC   GL2 4265  11.368  10.442   4.440
  315POPC   C1A 4266  11.367  10.842   4.746
  315POPC   D2A 4267  11.289  10.939   5.198
  315POPC   C3A 4268   0.019  10.652   5.532
  315POPC   C4A 4269  11.354  10.515   5.924
  315POPC   C1B 4270  11.219  10.071   4.672
  315POPC   C2B 4271  10.924  10.052   5.036
  315POPC   C3B 4272  11.078  10.067   5.477
  315POPC   C4B 4273  11.445  10.038   5.733
  316POPC   NC3 4274   6.322  10.346   3.936
  316POPC   PO4 4275   6.863   9.950   4.005
  316POPC   GL1 4276   6.722  10.247   4.347
  316POPC   GL2 4277   6.444  10.512   4.387
  316POPC   C1A 4278   6.707  10.352   4.796
  316POPC   D2A 4279   6.706  10.571   5.178
  316POPC   C3A 4280   6.689  10.319   5.517
  316POPC   C4A 4281   6.715  10.439   5.913
  316POPC   C1B 4282   6.226  10.494   4.770
  316POPC   C2B 4283   6.227  10.291   5.140
  316POPC   C3B 4284   6.187  10.458   5.541
  316POPC   C4B 4285   6.296  10.167   5.836
  317POPC   NC3 4286   5.714   9.920   3.896
  317POPC   PO4 4287   5.576   9.258   4.069
  317POPC   GL1 4288   5.777   9.601   4.291
  317POPC   GL2 4289   5.606   9.882   4.398
  317POPC   C1A 4290   5.983   9.673   4.682
  317POPC   D2A 4291   5.891   9.766   5.111
  317POPC   C3A 4292   5.887   9.396   5.383
  317POPC   C4A 4293   5.667   9.199   5.760
  317POPC   C1B 4294   5.455   9.811   4.814
  317POPC   C2B 4295   5.407   9.866   5.253
  317POPC   C3B 4296   5.504   9.662   5.614
  317POPC   C4B 4297   5.901   9.667   5.806
  318POPC   NC3 4298   2.635   3.469   3.935
  318POPC   PO4 4299   2.633   4.072   3.968
  318POPC   GL1 4300   2.547   3.732   4.365
  318POPC   GL2 4301   2.717   3.356   4.403
  318POPC   C1A 4302   2.401   3.510   4.752
  318POPC   D2A 4303   2.322   3.697   5.106
  318POPC   C3A 4304   2.470   3.535   5.469
  318POPC   C4A 4305   2.594   3.501   5.912
  318POPC   C1B 4306   2.903   3.568   4.755
  318POPC   C2B 4307   3.026   3.379   5.149
  318POPC   C3B 4308   2.955   3.303   5.591
  318POPC   C4B 4309   3.098   3.640   5.873
  319POPC   NC3 4310  11.018   2.432   3.818
  319POPC   PO4 4311  11.239   3.095   3.877
  319POPC   GL1 4312  11.305   2.954   4.262
  319POPC   GL2 4313  11.271   2.609   4.222
  319POPC   C1A 4314  11.058   2.928   4.600
  319POPC   D2A 4315  10.735   3.071   4.881
  319POPC   C3A 4316  10.878   2.949   5.270
  319POPC   C4A 4317  10.979   3.080   5.671
  319POPC   C1B 4318  11.225   2.432   4.598
  319POPC   C2B 4319  11.208   2.641   4.994
  319POPC   C3B 4320  11.207   2.542   5.415
  319POPC   C4B 4321  11.207   2.675   5.832
  320POPC   NC3 4322   9.354   4.170   4.007
  320POPC   PO4 4323   9.942   4.569   3.883
  320POPC   GL1 4324   9.890   4.565   4.329
  320POPC   GL2 4325   9.737   4.241   4.380
  320POPC   C1A 4326   9.929   4.466   4.799
  320POPC   D2A 4327   9.855   4.648   5.202
  320POPC   C3A 4328   9.814   4.353   5.495
  320POPC   C4A 4329   9.669   4.267   5.847
  320POPC   C1B 4330   9.490   4.215   4.746
  320POPC   C2B 4331   9.433   4.292   5.180
  320POPC   C3B 4332   9.408   3.979   5.512
  320POPC   C4B 4333   9.316   3.917   5.957
  321POPC   NC3 4334   7.264  10.057   3.764
  321POPC   PO4 4335   7.077   9.403   3.859
  321POPC   GL1 4336   7.120   9.448   4.311
  321POPC   GL2 4337   7.479   9.398   4.304
  321POPC   C1A 4338   7.214   9.473   4.786
  321POPC   D2A 4339   7.589   9.416   5.125
  321POPC   C3A 4340   7.461   9.347   5.560
  321POPC   C4A 4341   7.035   9.428   5.694
  321POPC   C1B 4342   7.670   9.617   4.669
  321POPC   C2B 4343   7.447   9.896   4.966
  321POPC   C3B 4344   7.239   9.747   5.323
  321POPC   C4B 4345   7.213  10.003   5.690
  322POPC   NC3 4346  10.339  10.410   4.006
  322POPC   PO4 4347  10.900  10.648   4.349
  322POPC   GL1 4348  10.522  10.474   4.497
  322POPC   GL2 4349  10.175  10.575   4.455
  322POPC   C1A 4350  10.425  10.406   4.923
  322POPC   D2A 4351  10.537  10.247   5.310
  322POPC   C3A 4352  10.799  10.480   5.605
  322POPC   C4A 4353  11.049  10.834   5.642
  322POPC   C1B 4354  10.090  10.150   4.648
  322POPC   C2B 4355   9.929  10.150   5.093
  322POPC   C3B 4356  10.080  10.200   5.515
  322POPC   C4B 4357  10.348  10.394   5.817
  323POPC   NC3 4358   2.345  10.181   4.075
  323POPC   PO4 4359   1.721  10.015   4.004
  323POPC   GL1 4360   1.838  10.369   4.207
  323POPC   GL2 4361   2.020  10.186   4.455
  323POPC   C1A 4362   1.746  10.601   4.589
  323POPC   D2A 4363   1.969  10.699   4.965
  323POPC   C3A 4364   2.034  10.473   5.341
  323POPC   C4A 4365   1.923  10.618   5.737
  323POPC   C1B 4366   1.998  10.182   4.881
  323POPC   C2B 4367   1.767   9.934   5.153
  323POPC   C3B 4368   1.799  10.084   5.550
  323POPC   C4B 4369   2.166  10.179   5.830
  324POPC   NC3 4370   2.647   9.317   3.673
  324POPC   PO4 4371   2.620   9.988   3.770
  324POPC   GL1 4372   2.635   9.917   4.362
  324POPC   GL2 4373   2.896   9.661   4.477
  324POPC   C1A 4374   2.575   9.816   4.833
  324POPC   D2A 4375   2.742   9.487   5.124
  324POPC   C3A 4376   2.538   9.538   5.516
  324POPC   C4A 4377   2.532   9.827   5.840
  324POPC   C1B 4378   3.131   9.898   4.801
  324POPC   C2B 4379   3.025   9.927   5.248
  324POPC   C3B 4380   2.989   9.737   5.660
  324POPC   C4B 4381   2.993   9.863   6.116
  325POPC   NC3 4382  10.276   8.621   3.851
  325POPC   PO4 4383  10.742   9.163   3.826
  325POPC   GL1 4384  10.571   8.936   4.226
  325POPC   GL2 4385  10.202   8.843   4.293
  325POPC   C1A 4386  10.715   8.728   4.603
  325POPC   D2A 4387  10.857   8.544   4.981
  325POPC   C3A 4388  10.799   8.772   5.338
  325POPC   C4A 4389  10.638   8.817   5.718
  325POPC   C1B 4390  10.273   8.981   4.704
  325POPC   C2B 4391  10.337   8.825   5.119
  325POPC   C3B 4392  10.080   8.964   5.464
  325POPC   C4B 4393  10.220   9.068   5.855
  326POPC   NC3 4394  10.112   4.106   3.880
  326POPC   PO4 4395  10.645   4.508   3.848
  326POPC   GL1 4396  10.572   4.190   4.161
  326POPC   GL2 4397  10.265   4.210   4.344
  326POPC   C1A 4398  10.707   4.052   4.589
  326POPC   D2A 4399  10.935   4.131   4.976
  326POPC   C3A 4400  10.762   4.042   5.376
  326POPC   C4A 4401  10.698   4.280   5.733
  326POPC   C1B 4402  10.189   4.015   4.719
  326POPC   C2B 4403  10.330   4.225   5.083
  326POPC   C3B 4404  10.303   4.425   5.467
  326POPC   C4B 4405  10.170   4.132   5.792
  327POPC   NC3 4406   2.465   9.020   4.092
  327POPC   PO4 4407   3.063   9.103   3.751
  327POPC   GL1 4408   2.955   8.987   4.234
  327POPC   GL2 4409   2.796   8.649   4.232
  327POPC   C1A 4410   2.710   9.084   4.695
  327POPC   D2A 4411   2.429   9.058   5.102
  327POPC   C3A 4412   2.665   9.064   5.506
  327POPC   C4A 4413   3.062   9.229   5.640
  327POPC   C1B 4414   2.938   8.620   4.682
  327POPC   C2B 4415   2.813   8.710   5.131
  327POPC   C3B 4416   2.720   8.577   5.581
  327POPC   C4B 4417   3.084   8.725   5.814
  328POPC   NC3 4418   0.661   2.615   3.724
  328POPC   PO4 4419   1.321   2.558   3.959
  328POPC   GL1 4420   1.095   2.446   4.351
  328POPC   GL2 4421   1.445   2.351   4.468
  328POPC   C1A 4422   1.040   2.402   4.797
  328POPC   D2A 4423   1.087   2.794   5.004
  328POPC   C3A 4424   1.053   2.977   5.376
  328POPC   C4A 4425   1.037   2.746   5.742
  328POPC   C1B 4426   1.388   2.797   4.580
  328POPC   C2B 4427   1.490   3.074   4.877
  328POPC   C3B 4428   1.590   3.062   5.292
  328POPC   C4B 4429   1.422   3.132   5.694
  329POPC   NC3 4430   5.383   2.232   4.000
  329POPC   PO4 4431   6.004   1.946   3.949
  329POPC   GL1 4432   5.920   1.767   4.338
  329POPC   GL2 4433   5.607   1.934   4.372
  329POPC   C1A 4434   5.820   1.673   4.781
  329POPC   D2A 4435   5.895   1.931   5.121
  329POPC   C3A 4436   6.064   1.806   5.509
  329POPC   C4A 4437   6.093   2.187   5.745
  329POPC   C1B 4438   5.353   1.888   4.764
  329POPC   C2B 4439   5.411   1.821   5.213
  329POPC   C3B 4440   5.581   1.946   5.607
  329POPC   C4B 4441   5.707   1.661   5.920
  330POPC   NC3 4442  10.257   9.271   4.022
  330POPC   PO4 4443  10.064   9.893   3.780
  330POPC   GL1 4444  10.268   9.744   4.234
  330POPC   GL2 4445  10.657   9.644   4.224
  330POPC   C1A 4446  10.416   9.481   4.652
  330POPC   D2A 4447  10.274   9.344   5.083
  330POPC   C3A 4448  10.516   9.250   5.456
  330POPC   C4A 4449  10.506   9.492   5.864
  330POPC   C1B 4450  10.575   9.962   4.597
  330POPC   C2B 4451  10.347   9.873   4.994
  330POPC   C3B 4452  10.370   9.768   5.424
  330POPC   C4B 4453  10.617   9.985   5.723
  331POPC   NC3 4454   2.656  10.365   3.534
  331POPC   PO4 4455   3.131  10.318   3.994
  331POPC   GL1 4456   3.037  10.237   4.404
  331POPC   GL2 4457   2.756  10.449   4.341
  331POPC   C1A 4458   2.966  10.416   4.820
  331POPC   D2A 4459   2.939  10.442   5.244
  331POPC   C3A 4460   2.658  10.210   5.490
  331POPC   C4A 4461   2.869  10.256   5.843
  331POPC   C1B 4462   2.491  10.297   4.673
  331POPC   C2B 4463   2.448  10.404   5.059
  331POPC   C3B 4464   2.524  10.731   5.343
  331POPC   C4B 4465   2.509  10.630   5.769
  332POPC   NC3 4466   8.771   8.207   3.888
  332POPC   PO4 4467   9.224   7.825   3.684
  332POPC   GL1 4468   9.095   7.960   4.200
  332POPC   GL2 4469   9.072   8.322   4.310
  332POPC   C1A 4470   9.296   7.953   4.648
  332POPC   D2A 4471   9.183   7.876   5.104
  332POPC   C3A 4472   9.012   7.924   5.522
  332POPC   C4A 4473   9.191   7.727   5.861
  332POPC   C1B 4474   8.840   8.151   4.704
  332POPC   C2B 4475   8.688   8.052   5.147
  332POPC   C3B 4476   8.546   8.179   5.600
  332POPC   C4B 4477   8.475   8.316   6.061
  333POPC   NC3 4478   2.772   4.497   3.961
  333POPC   PO4 4479   3.188   4.810   4.321
  333POPC   GL1 4480   2.681   4.690   4.417
  333POPC   GL2 4481   2.524   4.311   4.397
  333POPC   C1A 4482   2.504   4.575   4.821
  333POPC   D2A 4483   2.757   4.381   5.161
  333POPC   C3A 4484   2.607   4.488   5.572
  333POPC   C4A 4485   2.672   4.733   5.953
  333POPC   C1B 4486   2.575   4.027   4.785
  333POPC   C2B 4487   2.780   3.864   5.191
  333POPC   C3B 4488   2.732   3.940   5.647
  333POPC   C4B 4489   2.865   4.222   5.962
  334POPC   NC3 4490   8.900   9.762   3.921
  334POPC   PO4 4491   8.435   9.413   4.230
  334POPC   GL1 4492   8.792   9.508   4.392
  334POPC   GL2 4493   8.799   9.856   4.392
  334POPC   C1A 4494   8.717   9.542   4.820
  334POPC   D2A 4495   8.756   9.490   5.224
  334POPC   C3A 4496   8.522   9.438   5.564
  334POPC   C4A 4497   8.802   9.457   5.899
  334POPC   C1B 4498   8.863  10.047   4.761
  334POPC   C2B 4499   8.956   9.935   5.135
  334POPC   C3B 4500   8.823   9.860   5.549
  334POPC   C4B 4501   8.974   9.926   5.938
  335POPC   NC3 4502   0.300   7.061   3.984
  335POPC   PO4 4503   0.033   7.621   3.833
  335POPC   GL1 4504   0.165   7.600   4.257
  335POPC   GL2 4505   0.486   7.481   4.262
  335POPC   C1A 4506   0.296   7.567   4.708
  335POPC   D2A 4507   0.306   7.327   5.067
  335POPC   C3A 4508   0.344   7.533   5.460
  335POPC   C4A 4509   0.196   7.343   5.854
  335POPC   C1B 4510   0.560   7.117   4.585
  335POPC   C2B 4511   0.654   6.932   5.002
  335POPC   C3B 4512   0.721   7.186   5.383
  335POPC   C4B 4513   0.709   7.384   5.814
  336POPC   NC3 4514   4.415   1.463   3.463
  336POPC   PO4 4515   4.491   1.479   4.097
  336POPC   GL1 4516   4.433   1.410   4.481
  336POPC   GL2 4517   4.291   1.082   4.457
  336POPC   C1A 4518   4.600   1.279   4.861
  336POPC   D2A 4519   4.441   1.003   5.192
  336POPC   C3A 4520   4.446   1.215   5.598
  336POPC   C4A 4521   4.436   1.424   6.000
  336POPC   C1B 4522   3.923   1.035   4.749
  336POPC   C2B 4523   3.826   0.970   5.200
  336POPC   C3B 4524   3.957   1.139   5.596
  336POPC   C4B 4525   3.939   1.259   6.024
  337POPC   NC3 4526   2.788   0.095   4.020
  337POPC   PO4 4527   2.941   0.709   3.781
  337POPC   GL1 4528   2.955   0.612   4.280
  337POPC   GL2 4529   2.914   0.266   4.472
  337POPC   C1A 4530   2.866   0.720   4.745
  337POPC   D2A 4531   2.632   0.798   5.163
  337POPC   C3A 4532   2.861   0.769   5.588
  337POPC   C4A 4533   2.791   0.563   6.013
  337POPC   C1B 4534   2.558   0.322   4.788
  337POPC   C2B 4535   2.493   0.314   5.248
  337POPC   C3B 4536   2.728   0.245   5.614
  337POPC   C4B 4537   2.587  11.484   5.955
  338W        W 4538   4.571   7.127   1.915
  339W        W 4539   5.152   6.009   0.004
  340W        W 4540   7.841   4.662  10.366
  341W        W 4541  10.026   0.229  10.590
  342W        W 4542   0.230   4.723   3.436
  343W        W 4543   7.479   3.856  10.485
  344W        W 4544  10.861   8.802  11.751
  345W        W 4545   8.566   3.206   8.917
  346W        W 4546   1.425   0.907   0.898
  347W        W 4547   1.257   6.504  10.836
  348W        W 4548   4.319   9.018   2.262
  349W        W 4549   7.698   6.475   2.714
  350W        W 4550  11.360   0.996   2.132
  351W        W 4551  10.019   2.852   3.676
  352W        W 4552   0.460  11.408   3.254
  353W        W 4553   2.248  10.428  10.443
  354W        W 4554  10.712   5.805  11.465
  355W        W 4555   3.823   7.621   0.897
  356W        W 4556  11.493   8.165  11.806
  357W        W 4557  11.112   7.997   2.203
  358W        W 4558   5.982   3.629   7.952
  359W        W 4559   5.998   4.105   3.952
  360W        W 4560   2.541   3.024   0.096
  361W        W 4561   9.172   5.287   2.913
  362W        W 4562   2.426  10.317   0.433
  363W        W 4563   2.586  10.888   3.491
  364W        W 4564   4.645   0.373   0.459
  365W        W 4565   6.230   0.330   2.809
  366W        W 4566   2.351   5.761   0.953
  367W        W 4567   9.326  11.129  10.308
  368W        W 4568   7.259   6.151  10.499
  369W        W 4569   5.812   6.830  11.492
  370W        W 4570  11.282  10.565  11.307
  371W        W 4571   2.168  10.917   3.192
  372W        W 4572   7.960   8.406   1.856
  373W        W 4573   7.010   4.746   1.427
  374W        W 4574   0.886   1.396  10.458
  375W        W 4575   5.654   0.500   0.016
  376W        W 4576  10.436   2.786   3.160
  377W        W 4577   2.667   8.792   3.696
  378W        W 4578   3.274   8.573   0.824
  379W        W 4579   5.244   2.428  10.770
  380W        W 4580   2.713   2.570   9.888
  381W        W 4581   2.660   4.717   3.396
  382W        W 4582   3.822   8.988   3.026
  383W        W 4583   6.090   0.485   9.292
  384W        W 4584   6.758   6.489   1.973
  385W        W 4585   5.829   4.138   8.155
  386W        W 4586   0.607   2.472  11.824
  387W        W 4587   1.752   5.371  10.384
  388W        W 4588   0.578   2.806   0.692
  389W        W 4589   3.241   1.512   0.033
  390W        W 4590   6.601   1.003   0.879
  391W        W 4591   6.064   7.408  10.280
  392W        W 4592   4.412   8.917   0.766
  393W        W 4593   2.655   4.133   9.788
  394W        W 4594   3.704   4.740  11.659
  395W        W 4595  10.781   6.741  11.091
  396W        W 4596   0.943  10.509   2.758
  397W        W 4597   9.587   0.315   1.963
  398W        W 4598   8.917   2.465  10.962
  399W        W 4599   9.195   8.953   3.022
  400W        W 4600   9.154  10.819   9.952
  401W        W 4601   8.987  11.298   1.687
  402W        W 4602   9.041   9.541   9.905
  403W        W 4603   5.220   9.232   1.298
  404W        W 4604   9.361  10.408  11.439
  405W        W 4605   7.679   5.228   0.735
  406W        W 4606   1.495   2.806   1.470
  407W        W 4607   3.866   4.658   2.738
  408W        W 4608   5.684  10.326  11.316
  409W        W 4609  10.478   3.265   9.046
  410W        W 4610   9.832  10.580  11.452
  411W        W 4611   4.252   1.767  10.588
  412W        W 4612   3.209   8.199   9.578
  413W        W 4613  10.508   4.640   1.470
  414W        W 4614   1.131   8.362   8.854
  415W        W 4615  11.361   4.366   0.560
  416W        W 4616  10.436   7.405   1.673
  417W        W 4617   6.576   7.589  11.457
  418W        W 4618   5.533   6.168   0.307
  419W        W 4619   4.201   2.820   0.449
  420W        W 4620   4.716   6.223   0.155
  421W        W 4621   8.047   9.985  10.876
  422W        W 4622   9.462  11.310   1.912
  423W        W 4623   4.322   0.182   9.747
  424W        W 4624   7.097   4.293   0.083
  425W        W 4625   9.156   7.317   3.441
  426W        W 4626   9.460   4.231  11.528
  427W        W 4627   5.425   3.564   9.120
  428W        W 4628  10.602   8.857   0.363
  429W        W 4629   5.588  11.208   2.197
  430W        W 4630   5.700   4.508   2.969
  431W        W 4631   5.108  11.476  10.598
  432W        W 4632   5.764   3.268  10.306
  433W        W 4633  10.936   8.059  11.108
  434W        W 4634   1.802   3.249   3.118
  435W        W 4635  11.220   0.391  10.807
  436W        W 4636   6.009  10.067  11.692
  437W        W 4637   3.630   5.169   8.107
  438W        W 4638   4.725   8.791   8.124
  439W        W 4639   2.255  10.249   9.894
  440W        W 4640   1.747   9.823   0.030
  441W        W 4641   6.975   2.668   1.623
  442W        W 4642  10.033   2.374  10.849
  443W        W 4643   0.348   0.403   9.018
  444W        W 4644   6.468   0.183  11.024
  445W        W 4645   6.486   3.826   9.846
  446W        W 4646   1.011   6.307   3.922
  447W        W 4647   9.292   9.401   8.936
  448W        W 4648   5.271   7.366   1.719
  449W        W 4649  10.239   7.658   0.843
  450W        W 4650   9.128   5.043  11.941
  451W        W 4651   4.980  10.547  10.639
  452W        W 4652   1.338   3.411  10.647
  453W        W 4653   2.691   4.031  11.956
  454W        W 4654   4.480   0.360   8.816
  455W        W 4655   4.742   3.127   2.766
  456W        W 4656   4.047   4.279  11.422
  457W        W 4657   2.630  10.312   0.910
  458W        W 4658  10.794   1.775  10.938
  459W        W 4659   6.960   9.742   3.492
  460W        W 4660  10.896   0.920   0.253
  461W        W 4661   9.847   1.246   9.801
  462W        W 4662   8.451   9.143   8.971
  463W        W 4663   2.463   5.360   1.671
  464W        W 4664   7.717   3.847   4.042
  465W        W 4665   1.069   6.608   8.369
  466W        W 4666   7.398   7.515  10.739
  467W        W 4667   2.158   6.518   3.263
  468W        W 4668   8.790   9.460   1.810
  469W        W 4669   9.513   0.584   9.810
  470W        W 4670   8.130   4.636  10.780
  471W        W 4671   2.113   2.304   0.234
  472W        W 4672  11.164   4.966  11.132
  473W        W 4673   8.376   5.587   0.333
  474W        W 4674   1.349   3.389  11.643
  475W        W 4675   2.342   3.737  10.010
  476W        W 4676   6.226   1.041   9.902
  477W        W 4677   6.594   6.948   2.195
  478W        W 4678  11.040  11.279   2.203
  479W        W 4679   3.509   6.177   1.749
  480W        W 4680   4.672   2.216  11.292
  481W        W 4681   9.550   0.294  11.368
  482W        W 4682   9.436   9.118  10.281
  483W        W 4683  10.436   8.682  11.446
  484W        W 4684   6.002   6.931   0.795
  485W        W 4685   2.515   8.192   9.115
  486W        W 4686   2.890  10.602   3.163
  487W        W 4687   5.754   3.658  11.373
  488W        W 4688   9.635   7.206   9.499
  489W        W 4689  10.568   7.024  11.904
  490W        W 4690   3.317   6.949  11.459
  491W        W 4691  11.303  11.131   0.068
  492W        W 4692   2.741   4.540   0.064
  493W        W 4693   6.565   4.073   9.382
  494W        W 4694   4.005   8.306   3.503
  495W        W 4695   1.250   9.935  10.750
  496W        W 4696   7.626  11.068   1.689
  497W        W 4697  10.008   3.751  11.621
  498W        W 4698  11.118   5.467  10.871
  499W        W 4699   7.216   3.994   2.466
  500W        W 4700   1.857   6.122  11.341
  501W        W 4701   9.755   9.031   0.895
  502W        W 4702   8.453   1.629  10.851
  503W        W 4703   9.616  11.223   2.779
  504W        W 4704   1.367   1.747   0.687
  505W        W 4705   4.294   9.152   1.233
  506W        W 4706   0.338   4.737  11.697
  507W        W 4707   0.583   4.222   0.720
  508W        W 4708  10.495  10.226   0.681
  509W        W 4709   0.800   0.336  11.822
  510W        W 4710   8.465   5.461   3.757
  511W        W 4711   0.850  10.777   9.867
  512W        W 4712   4.698   0.888   2.160
  513W        W 4713   3.601   8.557  11.735
  514W        W 4714   3.427   8.059   3.139
  515W        W 4715   4.278   3.346   2.819
  516W        W 4716   1.175   7.822   1.066
  517W        W 4717   8.768   1.521   3.003
  518W        W 4718   5.268   8.737   8.593
  519W        W 4719   8.093   1.182   9.312
  520W        W 4720   0.922  11.279   0.936
  521W        W 4721   6.634   5.587   2.496
  522W        W 4722   4.360   1.349   9.480
  523W        W 4723   2.164   6.579   1.302
  524W        W 4724   0.905   7.960   9.093
  525W        W 4725   3.539   0.439   2.334
  526W        W 4726   1.976   3.729   8.497
  527W        W 4727   7.158   1.400  11.439
  528W        W 4728   3.689   6.567   3.100
  529W        W 4729   0.825   6.595  10.021
  530W        W 4730   1.595   5.319   0.829
  531W        W 4731   1.609   2.700  11.668
  532W        W 4732   6.400   8.875  10.247
  533W        W 4733   3.091  11.034   3.417
  534W        W 4734  10.618   0.322   1.743
  535W        W 4735  10.016   8.613   9.701
  536W        W 4736   5.254   3.564  11.337
  537W        W 4737  10.576   3.095  11.571
  538W        W 4738   1.746   0.518   2.612
  539W        W 4739   5.518   3.518   4.275
  540W        W 4740   2.469   8.566  10.768
  541W        W 4741   1.765   7.945   3.015
  542W        W 4742   7.984   3.457   2.112
  543W        W 4743   9.665   9.630   0.087
  544W        W 4744   8.030  11.290   2.894
  545W        W 4745  10.004   7.431   0.462
  546W        W 4746   5.550   8.585  10.671
  547W        W 4747   2.118   0.969   9.388
  548W        W 4748   7.247   1.261   2.277
  549W        W 4749   7.150  10.392  10.869
  550W        W 4750   0.706   6.482   2.782
  551W        W 4751   2.306   1.717   2.461
  552W        W 4752   5.700   4.219   0.117
  553W        W 4753   2.042   5.231  11.736
  554W        W 4754   0.502   5.107   2.812
  555W        W 4755   4.154   8.519  10.510
  556W        W 4756   3.345   9.414   1.918
  557W        W 4757   5.266   8.246   2.976
  558W        W 4758  10.038   3.519   0.063
  559W        W 4759   0.694   3.610   2.797
  560W        W 4760   9.606   1.431  10.597
  561W        W 4761   4.332   6.571   1.723
  562W        W 4762  11.144   9.511   9.530
  563W        W 4763   9.277   9.449   3.109
  564W        W 4764   3.989  10.987   3.164
  565W        W 4765   7.033  11.054   1.539
  566W        W 4766   2.182   9.769  10.797
  567W        W 4767   4.110   2.643   2.321
  568W        W 4768   6.203   4.116   8.646
  569W        W 4769   3.253   0.006   2.203
  570W        W 4770   6.056   7.163   3.964
  571W        W 4771  10.478   6.498   2.852
  572W        W 4772   3.422   8.976   3.367
  573W        W 4773   6.728  11.068   0.547
  574W        W 4774   6.153   3.011   8.600
  575W        W 4775   5.570   5.562  10.006
  576W        W 4776   1.343   4.210   2.933
  577W        W 4777   7.625   0.503  11.573
  578W        W 4778   6.922   6.528   0.704
  579W        W 4779   2.315   4.819  10.955
  580W        W 4780   0.498   1.305   9.881
  581W        W 4781   5.942   0.595   9.845
  582W        W 4782   7.597   2.472   1.211
  583W        W 4783   3.804   2.321  11.766
  584W        W 4784   8.237   1.312   1.747
  585W        W 4785   0.799   9.037   3.024
  586W        W 4786   9.961  11.398   9.861
  587W        W 4787   4.900   1.850   3.298
  588W        W 4788   3.640   1.621   9.032
  589W        W 4789   7.378   7.135  11.491
  590W        W 4790   3.152   4.233   2.770
  591W        W 4791   5.622   7.552  10.482
  592W        W 4792  10.461   4.712   1.960
  593W        W 4793   5.156   5.592   0.314
  594W        W 4794   9.440   7.696   9.415
  595W        W 4795   4.957   1.415  11.551
  596W        W 4796   4.939   3.083   8.685
  597W        W 4797   0.319   9.053   9.245
  598W        W 4798   3.757   5.180   2.666
  599W        W 4799  10.337   4.748   2.436
  600W        W 4800   4.348   1.706  11.508
  601W        W 4801   2.235   3.611   1.748
  602W        W 4802  10.898   8.460  11.398
  603W        W 4803   3.734  11.327  10.873
  604W        W 4804   5.722   0.114   1.881
  605W        W 4805   1.653   1.879   1.778
  606W        W 4806   6.211   3.403   0.021
  607W        W 4807   5.058   8.107  11.279
  608W        W 4808   2.860   7.394   0.679
  609W        W 4809   3.529   2.869  11.262
  610W        W 4810   4.255   9.592   8.950
  611W        W 4811   5.639   6.594   1.143
  612W        W 4812  10.714   9.452  11.113
  613W        W 4813   3.711   7.506   3.089
  614W        W 4814   1.312   8.672  11.913
  615W        W 4815   0.202   3.016   9.290
  616W        W 4816   2.714   3.601   1.529
  617W        W 4817   3.158   2.971   2.352
  618W        W 4818   1.920   8.543   9.917
  619W        W 4819   4.656   2.908  11.831
  620W        W 4820   1.829   9.467   2.580
  621W        W 4821   4.077  10.275  11.840
  622W        W 4822   3.640   6.263  11.894
  623W        W 4823   1.266   9.050   0.721
  624W        W 4824   5.166   1.030   9.960
  625W        W 4825   9.075   8.066   2.934
  626W        W 4826   2.744   8.350   1.509
  627W        W 4827   0.871   3.038  11.031
  628W        W 4828   9.146   0.982   8.698
  629W        W 4829   4.301   8.048  11.987
  630W        W 4830   6.083   8.711   3.627
  631W        W 4831   7.783   2.062  11.872
  632W        W 4832   1.306   9.839   3.031
  633W        W 4833   3.277   0.396   1.874
  634W        W 4834   4.147   6.092   8.281
  635W        W 4835   3.157   6.170   0.725
  636W        W 4836   7.589   6.877   9.953
  637W        W 4837  11.214   5.671   2.752
  638W        W 4838   1.426   9.512  10.491
  639W        W 4839   7.425  11.170  11.866
  640W        W 4840   2.027   2.294  10.467
  641W        W 4841   9.298   9.908  11.370
  642W        W 4842   2.344  11.041   9.119
  643W        W 4843   8.364   6.145   3.155
  644W        W 4844   3.426   3.436   4.185
  645W        W 4845   6.520   1.829   0.447
  646W        W 4846   5.302   7.619   0.826
  647W        W 4847  10.846   6.393   3.517
  648W        W 4848   9.424   0.845   9.111
  649W        W 4849   3.605   4.982  10.788
  650W        W 4850   6.031   9.903  11.196
  651W        W 4851   1.694   4.116   9.420
  652W        W 4852   1.644   7.116   0.998
  653W        W 4853   8.142   3.388   2.614
  654W        W 4854   7.356   0.932  11.404
  655W        W 4855   7.054   1.855   1.634
  656W        W 4856   5.225   2.661  11.791
  657W        W 4857   7.928   8.992   0.833
  658W        W 4858  10.060   4.328   9.376
  659W        W 4859   9.877   3.920   3.033
  660W        W 4860   7.435   5.982   9.864
  661W        W 4861   8.522   1.401  11.460
  662W        W 4862   1.454   8.173   1.306
  663W        W 4863   8.012  10.788   0.562
  664W        W 4864   5.224   0.647   0.925
  665W        W 4865   8.229   6.098   0.380
  666W        W 4866   9.089   8.067  10.742
  667W        W 4867   5.469   6.528   9.168
  668W        W 4868   6.137   9.864   8.610
  669W        W 4869   9.956   5.663   9.005
  670W        W 4870  11.208   3.796   2.675
  671W        W 4871   7.533   4.705   1.650
  672W        W 4872   8.538   8.982  11.979
  673W        W 4873   2.694   6.154   1.993
  674W        W 4874   1.245   6.560  10.320
  675W        W 4875   4.746   9.416   1.191
  676W        W 4876   5.204   9.412  10.010
  677W        W 4877   5.178   8.559   2.064
  678W        W 4878  11.400   2.948   8.881
  679W        W 4879   0.804   9.086   0.502
  680W        W 4880   5.985   2.087   2.775
  681W        W 4881   4.079   2.887  11.091
  682W        W 4882   7.047   0.087   9.241
  683W        W 4883   1.767   7.955   0.372
  684W        W 4884  10.872   6.373   9.297
  685W        W 4885   1.288   6.487   9.785
  686W        W 4886   8.999  10.853   2.039
  687W        W 4887   8.059   7.169   0.674
  688W        W 4888   1.208  10.888   9.509
  689W        W 4889   1.403   6.957  10.995
  690W        W 4890   8.593   9.808   9.805
  691W        W 4891   8.847   4.064  11.755
  692W        W 4892   6.248   2.174   3.217
  693W        W 4893   6.029   9.489   0.807
  694W        W 4894   1.122   0.289  10.875
  695W        W 4895   4.743   5.660   0.637
  696W        W 4896   4.210   7.542  10.507
  697W        W 4897   8.933   8.676   8.489
  698W        W 4898   2.957   5.289   1.594
  699W        W 4899   6.339   3.307   1.337
  700W        W 4900   6.512   8.371  11.007
  701W        W 4901   4.054   7.251   2.788
  702W        W 4902  10.763   4.173  10.059
  703W        W 4903   2.676   1.210  10.826
  704W        W 4904   9.184   5.900  10.777
  705W        W 4905   6.993   0.614  11.213
  706W        W 4906   7.137   6.186   2.257
  707W        W 4907   3.084   3.106   9.526
  708W        W 4908   4.950   5.220  11.485
  709W        W 4909   4.118   0.262   1.522
  710W        W 4910   0.874   1.277   1.499
  711W        W 4911   4.659   2.836   3.447
  712W        W 4912  10.409   6.470   9.020
  713W        W 4913   2.621   6.152   2.855
  714W        W 4914   9.974   8.879  11.577
  715W        W 4915   8.259   0.306  10.494
  716W        W 4916   8.828   0.254   1.830
  717W        W 4917   6.516   8.215   1.996
  718W        W 4918   4.148   6.062   0.837
  719W        W 4919   6.292   1.445  11.630
  720W        W 4920   8.011   6.464   0.013
  721W        W 4921   2.655   3.284   0.544
  722W        W 4922   1.247   0.780   9.949
  723W        W 4923   4.699   5.682  11.514
  724W        W 4924   2.995   3.743   2.835
  725W        W 4925  11.051   1.611   2.834
  726W        W 4926   6.914   7.513  11.859
  727W        W 4927   3.792  10.858   8.976
  728W        W 4928   4.930  10.784   3.446
  729W        W 4929   4.398   0.716  11.662
  730W        W 4930  10.459   6.900  10.714
  731W        W 4931   6.638   1.567   0.865
  732W        W 4932   0.217   3.502   9.906
  733W        W 4933   5.000  10.364  11.977
  734W        W 4934   0.830   7.155   0.497
  735W        W 4935   6.106   2.696   1.213
  736W        W 4936   8.901   1.459   1.730
  737W        W 4937   1.197  10.072   3.509
  738W        W 4938  10.929   1.301  10.665
  739W        W 4939   1.644  11.443  10.116
  740W        W 4940   1.139   7.307   1.043
  741W        W 4941   2.107   6.208   0.916
  742W        W 4942   4.503   3.191   2.274
  743W        W 4943  10.027  10.838  10.898
  744W        W 4944  10.353   8.837  10.935
  745W        W 4945   8.102  10.160  10.413
  746W        W 4946   9.995   7.191   1.885
  747W        W 4947   5.496   8.466   9.024
  748W        W 4948   3.807  10.444   1.401
  749W        W 4949   4.804   0.998  11.793
  750W        W 4950   1.267  10.678   1.919
  751W        W 4951   1.788   2.427   2.834
  752W        W 4952   6.685   5.219   1.388
  753W        W 4953  10.016   8.453   9.226
  754W        W 4954   3.365   4.673   2.612
  755W        W 4955   4.587   3.710   1.995
  756W        W 4956   4.298   2.437  10.975
  757W        W 4957   8.578   1.942   9.366
  758W        W 4958  11.301   4.252   9.394
  759W        W 4959   9.442   5.534  10.010
  760W        W 4960   8.381   8.078  10.009
  761W        W 4961   6.946   4.186   0.578
  762W        W 4962   1.262   5.337   1.266
  763W        W 4963   3.452   3.215  10.383
  764W        W 4964   4.734   0.377   9.386
  765W        W 4965   9.756   6.707   8.224
  766W        W 4966   8.188   0.438   9.973
  767W        W 4967   6.324   6.114  11.476
  768W        W 4968   5.180   4.831  11.737
  769W        W 4969   2.243   3.840   8.940
  770W        W 4970  11.496  11.223   0.986
  771W        W 4971   9.952   6.187   8.921
  772W        W 4972   1.132   9.531   9.012
  773W        W 4973   6.286   5.294   1.762
  774W        W 4974   7.927   9.800  11.798
  775W        W 4975   4.555   2.291  10.015
  776W        W 4976   0.411   0.320   1.938
  777W        W 4977   7.488   1.012   3.007
  778W        W 4978   7.469   1.473  10.488
  779W        W 4979   0.066   7.304   0.347
  780W        W 4980  10.703   2.943   9.421
  781W        W 4981   8.484   2.386  11.238
  782W        W 4982   5.751   3.682   2.295
  783W        W 4983   7.229   8.449  11.941
  784W        W 4984   7.805   4.228   1.586
  785W        W 4985   0.151   6.141   9.872
  786W        W 4986   4.774   4.118   9.606
  787W        W 4987   7.673   9.551   9.766
  788W        W 4988   5.575   0.286  11.545
  789W        W 4989   5.475   9.844   8.480
  790W        W 4990  11.242   2.225  10.609
  791W        W 4991   7.820   7.950   0.591
  792W        W 4992  11.058   7.009  11.946
  793W        W 4993   7.966   4.288   2.822
  794W        W 4994   6.748   8.074   0.242
  795W        W 4995  11.266   0.319   9.913
  796W        W 4996   7.569  10.597   2.652
  797W        W 4997   4.541   0.842  10.336
  798W        W 4998   7.451   5.213  11.762
  799W        W 4999   7.219   0.877   9.799
  800W        W 5000   6.642  11.344   9.058
  801W        W 5001   7.949   6.160   8.730
  802W        W 5002   4.610   3.083   0.303
  803W        W 5003   3.049   9.053  11.478
  804W        W 5004   7.544   1.704  11.078
  805W        W 5005   8.847   7.986   2.003
  806W        W 5006  11.307  10.792   0.756
  807W        W 5007   0.792   7.513  11.771
  808W        W 5008   4.726   7.491  11.322
  809W        W 5009   1.028   7.963   9.597
  810W        W 5010   9.844   6.548  11.776
  811W        W 5011   0.091  11.453  11.767
  812W        W 5012  10.535   0.332   9.270
  813W        W 5013   5.341   6.606   2.094
  814W        W 5014   2.897  10.127   1.777
  815W        W 5015   5.331   6.753  11.616
  816W        W 5016  10.228   5.678   9.440
  817W        W 5017  11.070   4.480  10.369
  818W        W 5018   6.453   3.765   8.952
  819W        W 5019   4.199   6.539   2.217
  820W        W 5020   4.035   6.706  10.024
  821W        W 5021   8.867   9.927  11.134
  822W        W 5022   8.950   1.098  11.436
  823W        W 5023   9.714   8.148   1.747
  824W        W 5024   3.771   9.516   2.270
  825W        W 5025   0.269   7.510   1.925
  826W        W 5026   4.703   9.867   8.855
  827W        W 5027   7.083   9.368  11.692
  828W        W 5028   5.415  10.342  10.311
  829W        W 5029   5.470   3.789   8.650
  830W        W 5030  10.461  11.346   9.847
  831W        W 5031  11.475   8.470  10.817
  832W        W 5032   1.298  10.865   3.035
  833W        W 5033   8.893   1.442  10.683
  834W        W 5034   7.258   0.080   9.705
  835W        W 5035  10.328   5.654   0.402
  836W        W 5036   8.623   3.720   8.171
  837W        W 5037  10.343   7.282  10.353
  838W        W 5038  10.327   2.925   9.759
  839W        W 5039   0.453   2.208  10.781
  840W        W 5040  10.930   0.066   0.795
  841W        W 5041   7.876   5.722   0.332
  842W        W 5042  10.876   0.709   9.892
  843W        W 5043   4.067   5.529  11.791
  844W        W 5044   3.741   8.933  10.090
  845W        W 5045   9.537  10.558  11.891
  846W        W 5046   4.682   0.490   0.960
  847W        W 5047   1.005   2.690   2.133
  848W        W 5048   1.972   0.442  11.053
  849W        W 5049  10.907   6.174  11.800
  850W        W 5050   9.353   5.665   0.673
  851W        W 5051   5.923   3.652   8.952
  852W        W 5052   1.628   9.381   2.111
  853W        W 5053   0.040   7.144   3.518
  854W        W 5054   8.023   7.201   2.546
  855W        W 5055   0.864   3.285  11.469
  856W        W 5056   6.569   0.291   1.985
  857W        W 5057   8.057   0.514   3.348
  858W        W 5058  10.695   9.783  11.514
  859W        W 5059   7.719   2.231   2.165
  860W        W 5060   5.109   7.001  10.451
  861W        W 5061   9.645   2.063   1.806
  862W        W 5062   6.635  11.271  10.767
  863W        W 5063   4.436   9.760   0.912
  864W        W 5064   5.934   6.622  10.421
  865W        W 5065   1.228   7.575   9.233
  866W        W 5066   1.890  10.612   9.851
  867W        W 5067  10.748   8.356   0.365
  868W        W 5068   8.869   9.960   1.050
  869W        W 5069   0.690   5.981   2.846
  870W        W 5070  10.806   9.584  10.047
  871W        W 5071   9.992  10.083   1.687
  872W        W 5072   2.758   2.274   3.626
  873W        W 5073   5.611   0.001   3.159
  874W        W 5074  11.018  11.166   9.005
  875W        W 5075   7.983   1.851   1.935
  876W        W 5076   2.974   0.666   9.542
  877W        W 5077  10.875   9.140   9.763
  878W        W 5078   4.644   1.947   2.490
  879W        W 5079   5.452   7.158  11.920
  880W        W 5080   8.573   3.224  11.293
  881W        W 5081   9.970   9.995   9.234
  882W        W 5082   0.344   6.087   9.406
  883W        W 5083   4.118   1.608  11.948
  884W        W 5084   8.499   1.732   8.897
  885W        W 5085  10.502   9.801   0.410
  886W        W 5086   4.201   7.227  10.898
  887W        W 5087   5.522   9.883   2.474
  888W        W 5088   4.983   6.908  11.945
  889W        W 5089   5.042   4.531   1.234
  890W        W 5090   4.368  11.281   2.970
  891W        W 5091   7.160   7.388   2.617
  892W        W 5092  11.146  10.264   2.339
  893W        W 5093   0.506   9.992   1.878
  894W        W 5094   0.813   0.679   9.109
  895W        W 5095   5.652   0.892  11.677
  896W        W 5096   7.851  10.396   0.276
  897W        W 5097   6.711   7.315   1.797
  898W        W 5098   9.423   7.335   1.858
  899W        W 5099   6.439   3.204   9.552
  900W        W 5100   6.186   7.005   3.104
  901W        W 5101   6.186   3.554  10.293
  902W        W 5102   3.396   9.333   0.274
  903W        W 5103   3.871   1.656  10.919
  904W        W 5104   2.010   0.462   9.524
  905W        W 5105   1.914   1.557   2.742
  906W        W 5106   5.163   6.946   9.241
  907W        W 5107  10.619   5.040  10.362
  908W        W 5108   8.953   9.316   9.335
  909W        W 5109   1.353   3.147   9.783
  910W        W 5110   3.812   3.729   2.176
  911W        W 5111   5.890   7.476   9.314
  912W        W 5112   6.784   7.826   3.261
  913W        W 5113   6.402  10.001   2.921
  914W        W 5114   0.904   3.640   9.311
  915W        W 5115   5.681  10.391  10.783
  916W        W 5116   3.534   0.799  10.470
  917W        W 5117   7.101   6.925   9.783
  918W        W 5118   9.731  11.427  10.325
  919W        W 5119   4.955   8.362   0.261
  920W        W 5120   7.062   0.489   2.707
  921W        W 5121   0.312   7.342  10.339
  922W        W 5122   3.567  10.349   2.518
  923W        W 5123   6.965   7.424   9.817
  924W        W 5124   9.047   6.449   8.391
  925W        W 5125   3.944   9.838  11.564
  926W        W 5126  10.424   7.657  11.528
  927W        W 5127   9.909   6.682  10.764
  928W        W 5128   2.832   1.401   3.358
  929W        W 5129   2.983   9.862   9.491
  930W        W 5130   7.638   6.680   0.318
  931W        W 5131   9.360  10.586   0.366
  932W        W 5132   0.237   4.611   0.823
  933W        W 5133  11.065   2.669  10.791
  934W        W 5134   1.817  10.401   2.598
  935W        W 5135   2.449   0.698   1.633
  936W        W 5136   9.816   4.152  11.913
  937W        W 5137  10.027   3.695  11.128
  938W        W 5138   1.414   7.576   3.352
  939W        W 5139   5.039   3.649  10.066
  940W        W 5140   8.651  10.524   0.891
  941W        W 5141   1.885   8.375   1.528
  942W        W 5142   9.337   2.894   1.565
  943W        W 5143   9.250   5.745   8.451
  944W        W 5144   6.774   7.584   0.770
  945W        W 5145   3.134   7.448   0.214
  946W        W 5146   4.824   9.479   3.259
  947W        W 5147   4.484   1.202  11.458
  948W        W 5148   7.610   3.338   2.455
  949W        W 5149   3.144  10.370  11.780
  950W        W 5150   6.683   8.989   9.822
  951W        W 5151   0.323   2.612   9.989
  952W        W 5152   2.332   7.203   9.052
  953W        W 5153   6.253   3.772  11.445
  954W        W 5154   0.699   7.311   2.655
  955W        W 5155   3.642   9.405   0.739
  956W        W 5156   0.506   1.694   9.072
  957W        W 5157  11.459   0.013   8.887
  958W        W 5158   6.756   9.791   0.371
  959W        W 5159   5.881   7.287  11.687
  960W        W 5160   4.954   7.984  10.664
  961W        W 5161   3.281   2.150   9.205
  962W        W 5162   3.715   1.976  11.308
  963W        W 5163   7.246   3.113  10.143
  964W        W 5164   7.727   9.550   0.243
  965W        W 5165   9.940   5.021   9.245
  966W        W 5166   4.454  11.007   0.902
  967W        W 5167   9.774   2.395  11.294
  968W        W 5168  10.781   9.377   9.088
  969W        W 5169   5.286   5.099   0.362
  970W        W 5170   9.147   5.937  10.242
  971W        W 5171   6.080   9.495   2.970
  972W        W 5172  11.289   6.526  11.885
  973W        W 5173   1.009   0.286   9.586
  974W        W 5174   1.017   0.506  10.418
  975W        W 5175   7.342   7.950  10.442
  976W        W 5176   0.225   0.780   2.849
  977W        W 5177   6.091   7.560  11.276
  978W        W 5178   4.546   4.539   1.339
  979W        W 5179  10.360  10.826   1.970
  980W        W 5180   3.073   0.838   1.225
  981W        W 5181   8.620   4.714   1.741
  982W        W 5182   4.705   7.586  10.318
  983W        W 5183   8.610   4.819  11.982
  984W        W 5184   3.217   7.387  11.713
  985W        W 5185   7.284   2.321   1.852
  986W        W 5186   8.436   2.720   3.560
  987W        W 5187   5.682  10.823   9.473
  988W        W 5188  11.378   8.653  11.631
  989W        W 5189   8.995   4.543   8.340
  990W        W 5190   9.323   0.352   1.075
  991W        W 5191   7.061   5.514  11.987
  992W        W 5192   3.906   2.144   2.910
  993W        W 5193   8.122   6.560   1.359
  994W        W 5194   3.908   6.649   8.976
  995W        W 5195   5.275  11.484   9.700
  996W        W 5196   6.917   8.578   1.335
  997W        W 5197  10.923  10.088  11.882
  998W        W 5198   1.879   5.027  10.752
  999W        W 5199   4.285   8.160   1.391
 1000W        W 5200   0.967   5.006   2.615
 1001W        W 5201  10.389   8.958  11.876
 1002W        W 5202   2.685   1.186  10.317
 1003W        W 5203   8.885   2.795   1.810
 1004W        W 5204   7.995   9.031   2.646
 1005W        W 5205   7.142   3.087  10.669
 1006W        W 5206  11.021   5.672  11.849
 1007W        W 5207   2.706   3.108   9.878
 1008W        W 5208   3.934   0.737   1.599
 1009W        W 5209   7.226   9.012  11.258
 1010W        W 5210   7.592   3.623  10.947
 1011W        W 5211   2.681   4.116   1.517
 1012W        W 5212   1.378   3.883   3.381
 1013W        W 5213  10.897  10.633   1.700
 1014W        W 5214   0.789   6.069   2.351
 1015W        W 5215  10.149   8.115   8.852
 1016W        W 5216   3.781  10.463   1.927
 1017W        W 5217  10.768   2.328   9.282
 1018W        W 5218   0.544   0.478   9.501
 1019W        W 5219   6.141   0.084   3.296
 1020W        W 5220   5.260   7.261   2.796
 1021W        W 5221   9.487  10.668   3.260
 1022W        W 5222   0.064   5.868   3.593
 1023W        W 5223   5.980   9.940   3.231
 1024W        W 5224   5.176   6.547   9.596
 1025W        W 5225   6.741  10.961  10.322
 1026W        W 5226   7.878   2.215  10.236
 1027W        W 5227   0.185  10.912   1.765
 1028W        W 5228   9.097   5.075   8.133
 1029W        W 5229   5.639   3.734   0.265
 1030W        W 5230   0.877   2.827   3.137
 1031W        W 5231   1.288   2.546  10.414
 1032W        W 5232   9.077   2.091   9.472
 1033W        W 5233   6.872   8.113  10.697
 1034W        W 5234   2.911   8.055   0.007
 1035W        W 5235   4.059   0.199   2.313
 1036W        W 5236   9.436   3.726   8.961
 1037W        W 5237  10.796   6.586   0.096
 1038W        W 5238   8.235   4.887   0.547
 1039W        W 5239   0.899  11.156   8.989
 1040W        W 5240  10.972   9.709   8.710
 1041W        W 5241   8.876   7.640   3.158
 1042W        W 5242   0.986   2.047   8.623
 1043W        W 5243   5.924   1.282   1.214
 1044W        W 5244   5.735   5.783   2.510
 1045W        W 5245   7.456   8.571   9.637
 1046W        W 5246  11.220   0.725   2.541
 1047W        W 5247   9.011   9.007  10.729
 1048W        W 5248   5.579   4.539  11.197
 1049W        W 5249   2.866   0.437   0.748
 1050W        W 5250   4.200  10.081   8.744
 1051W        W 5251   3.183   6.728  10.776
 1052W        W 5252   0.474  11.476   8.740
 1053W        W 5253   7.101   0.765   1.833
 1054W        W 5254   5.250   0.016   3.533
 1055W        W 5255   1.581   7.210  10.219
 1056W        W 5256   4.762   8.632   8.608
 1057W        W 5257   3.495   0.273   3.243
 1058W        W 5258   3.193   5.740   1.537
 1059W        W 5259   7.294   6.078   1.433
 1060W        W 5260   6.132   2.164   1.266
 1061W        W 5261   3.659   8.528   3.190
 1062W        W 5262   7.605   9.732   2.327
 1063W        W 5263   4.826   9.612  10.282
 1064W        W 5264   5.496   7.584   1.278
 1065W        W 5265   7.428   4.960   9.449
 1066W        W 5266  11.346   0.824   9.996
 1067W        W 5267   3.204   9.411   3.176
 1068W        W 5268   5.777   7.416   1.654
 1069W        W 5269   2.786   4.574  11.184
 1070W        W 5270   9.815   1.878  11.384
 1071W        W 5271   0.185   1.303   8.908
 1072W        W 5272   9.530   3.142  11.060
 1073W        W 5273   1.431   3.927  10.440
 1074W        W 5274   4.312   4.163   0.640
 1075W        W 5275   5.741  10.315   2.273
 1076W        W 5276   9.142   3.188   2.591
 1077W        W 5277   5.829  11.116   1.741
 1078W        W 5278   1.214   2.776   3.508
 1079W        W 5279  10.932  11.443  10.891
 1080W        W 5280   7.669  11.340   2.135
 1081W        W 5281   7.058   1.007   2.682
 1082W        W 5282   2.529   4.370  11.589
 1083W        W 5283   1.001   4.594  10.917
 1084W        W 5284   2.034   1.489   8.475
 1085W        W 5285   7.301   2.211  11.883
 1086W        W 5286   0.774   3.764   1.319
 1087W        W 5287   9.751   9.519   2.007
 1088W        W 5288   7.770   3.883  11.375
 1089W        W 5289   6.425   7.450   3.202
 1090W        W 5290   8.644   5.121   0.407
 1091W        W 5291   4.794   9.096   3.591
 1092W        W 5292   4.268   6.512   9.527
 1093W        W 5293   4.169   4.159   1.217
 1094W        W 5294   8.085   5.163   3.938
 1095W        W 5295   7.087   3.951   9.507
 1096W        W 5296   2.857   1.273   9.292
 1097W        W 5297   5.525   3.235   3.057
 1098W        W 5298   6.947   0.976   9.356
 1099W        W 5299   7.973   9.428   2.984
 1100W        W 5300   4.533   6.522   9.959
 1101W        W 5301   5.125   2.382   1.368
 1102W        W 5302   4.538   6.555  11.460
 1103W        W 5303   7.705   7.513   0.825
 1104W        W 5304   5.448  10.374   0.284
 1105W        W 5305  10.928   2.278  11.980
 1106W        W 5306   5.108   2.045  10.439
 1107W        W 5307   4.664   5.592  11.006
 1108W        W 5308   2.887   0.850   2.643
 1109W        W 5309   1.182   0.434   0.215
 1110W        W 5310  10.478   0.795   1.899
 1111W        W 5311   6.045   7.881  10.509
 1112W        W 5312   5.119   4.470   3.419
 1113W        W 5313   0.530   6.169   8.908
 1114W        W 5314   3.815   4.078   0.852
 1115W        W 5315   4.884   2.730   9.040
 1116W        W 5316   3.301   9.138  10.562
 1117W        W 5317   6.686   9.011  11.713
 1118W        W 5318   5.817   3.256  11.680
 1119W        W 5319   5.095   4.676   2.187
 1120W        W 5320   5.341   6.099   9.990
 1121W        W 5321   4.605   5.109  10.697
 1122W        W 5322   5.252   0.305   1.809
 1123W        W 5323   2.616  10.950   1.556
 1124W        W 5324   1.799   7.782  10.918
 1125W        W 5325   3.634   0.734   0.197
 1126W        W 5326   9.357   0.367  11.863
 1127W        W 5327   4.978   0.236   8.836
 1128W        W 5328   8.159   8.923  11.234
 1129W        W 5329   7.466   0.161  11.939
 1130W        W 5330  10.342  10.340   3.110
 1131W        W 5331   0.597   8.781   1.288
 1132W        W 5332   7.505   9.383   3.309
 1133W        W 5333   0.483   8.190   2.105
 1134W        W 5334  10.449   6.928   1.865
 1135W        W 5335   6.430   0.048  11.903
 1136W        W 5336   5.664   7.530   2.148
 1137W        W 5337   6.995   6.514  11.812
 1138W        W 5338   9.888   8.096   1.282
 1139W        W 5339   6.066   9.698   9.090
 1140W        W 5340   7.233  10.877   3.309
 1141W        W 5341   5.248  11.280   0.458
 1142W        W 5342   4.596  11.407  10.602
 1143W        W 5343  10.467   0.988   8.789
 1144W        W 5344   6.185   2.967   1.712
 1145W        W 5345  11.238   2.713   1.407
 1146W        W 5346   0.917   7.052  11.982
 1147W        W 5347   9.446  10.749   2.765
 1148W        W 5348  10.885   1.122  10.183
 1149W        W 5349   3.434   0.833   1.651
 1150W        W 5350   8.844   2.470   0.926
 1151W        W 5351   8.476  10.246   1.301
 1152W        W 5352   0.973   7.102   9.266
 1153W        W 5353   7.384   1.141   0.732
 1154W        W 5354   6.625   7.579   0.282
 1155W        W 5355   5.095   9.861  11.799
 1156W        W 5356  11.052   3.220   1.333
 1157W        W 5357   1.413   1.458  10.641
 1158W        W 5358   5.030   1.693   2.266
 1159W        W 5359   0.114   6.477   0.519
 1160W        W 5360   0.385   6.625  11.521
 1161W        W 5361   4.821   3.306  11.461
 1162W        W 5362   4.804  11.321  11.569
 1163W        W 5363   7.957   4.423   2.054
 1164W        W 5364   5.156   0.871   2.496
 1165W        W 5365   9.829   0.880   1.067
 1166W        W 5366   8.766   3.581   8.634
 1167W        W 5367   4.101   2.380   9.807
 1168W        W 5368   2.464   1.882   0.975
 1169W        W 5369   0.452  10.820   3.431
 1170W        W 5370   0.111   8.209  10.407
 1171W        W 5371   2.276   9.666   8.935
 1172W        W 5372   5.029   5.681   1.363
 1173W        W 5373   9.317   4.221   9.066
 1174W        W 5374  11.270   5.230   0.542
 1175W        W 5375   1.744   1.047   8.816
 1176W        W 5376   3.566   7.225   1.034
 1177W        W 5377   3.625   4.938   9.449
 1178W        W 5378   7.380  10.879   1.224
 1179W        W 5379   3.134   1.179  11.071
 1180W        W 5380   9.886   9.001  11.080
 1181W        W 5381   3.441   7.462   9.845
 1182W        W 5382  11.225   1.865  11.889
 1183W        W 5383  11.473   1.293   9.804
 1184W        W 5384   7.869   4.604   1.258
 1185W        W 5385   7.875  10.679  10.488
 1186W        W 5386  10.011   5.238   2.940
 1187W        W 5387   7.494   4.116  10.929
 1188W        W 5388   0.078   0.854  11.736
 1189W        W 5389   5.834   1.334  11.858
 1190W        W 5390   2.776   4.068  10.983
 1191W        W 5391   6.778   8.191  11.615
 1192W        W 5392   9.208   1.149  10.433
 1193W        W 5393   4.818   0.164   9.855
 1194W        W 5394   8.008   5.222   1.433
 1195W        W 5395   5.047  10.867   1.724
 1196W        W 5396   8.313  10.981   0.931
 1197W        W 5397  10.278   8.962   0.995
 1198W        W 5398  11.313   5.037   3.362
 1199W        W 5399   1.739   5.219   9.003
 1200W        W 5400   2.573   7.984   0.941
 1201W        W 5401   6.164   6.693   3.780
 1202W        W 5402   7.034   5.645   1.442
 1203W        W 5403   8.729   4.070   2.276
 1204W        W 5404   0.009   1.861   9.083
 1205W        W 5405   9.061   2.379   2.981
 1206W        W 5406   1.433   1.749   0.183
 1207W        W 5407   1.763   2.379   1.795
 1208W        W 5408   0.820   9.804   9.879
 1209W        W 5409   6.893   9.939  10.921
 1210W        W 5410   4.525   4.809   8.254
 1211W        W 5411   7.920   8.934  10.392
 1212W        W 5412   4.655   3.815   0.857
 1213W        W 5413   8.961   9.873  10.611
 1214W        W 5414   1.979   7.565  11.353
 1215W        W 5415   6.014   3.604   4.118
 1216W        W 5416   0.004   0.415  10.390
 1217W        W 5417   7.994  10.788  11.543
 1218W        W 5418   5.835   3.103   1.379
 1219W        W 5419   2.292   4.102  10.582
 1220W        W 5420   0.689   8.724   9.030
 1221W        W 5421   6.217   4.550   9.395
 1222W        W 5422  11.379   9.791   1.630
 1223W        W 5423   1.810  10.094  11.582
 1224W        W 5424   0.903   1.923   9.376
 1225W        W 5425   8.449   9.523   2.800
 1226W        W 5426   5.478   0.857   9.586
 1227W        W 5427   5.418   3.342   1.100
 1228W        W 5428   9.229   2.041   0.393
 1229W        W 5429   5.654   8.986   2.001
 1230W        W 5430  10.017   9.923   2.712
 1231W        W 5431   6.653   4.190   3.151
 1232W        W 5432   9.929   9.866   1.215
 1233W        W 5433   9.221   0.626  10.416
 1234W        W 5434   3.795   8.035  10.010
 1235W        W 5435   8.715   2.188   0.255
 1236W        W 5436   9.096   9.479   1.376
 1237W        W 5437   1.824   2.633  10.122
 1238W        W 5438   8.907   7.184   9.989
 1239W        W 5439   5.625   9.540   8.877
 1240W        W 5440   3.121   2.364  10.125
 1241W        W 5441   1.258   4.727   0.143
 1242W        W 5442  11.425   1.885   1.999
 1243W        W 5443   9.443   5.135   9.061
 1244W        W 5444  11.244  11.259   0.544
 1245W        W 5445   2.590  10.757   9.566
 1246W        W 5446   8.550   9.541   0.799
 1247W        W 5447   3.867   0.421   9.685
 1248W        W 5448   5.940   4.747  11.863
 1249W        W 5449   0.773   0.090   0.266
 1250W        W 5450   7.205   2.299   9.361
 1251W        W 5451   2.583   2.331   0.416
 1252W        W 5452   3.198   1.743   2.505
 1253W        W 5453  10.856   7.989  11.601
 1254W        W 5454   8.494   1.757   1.864
 1255W        W 5455   9.368   7.630   3.070
 1256W        W 5456   8.508   5.745  11.832
 1257W        W 5457   5.637   2.129  10.891
 1258W        W 5458   2.145   6.561   8.517
 1259W        W 5459  10.878   4.123   9.111
 1260W        W 5460   4.801  10.296   9.150
 1261W        W 5461   3.354   6.097  10.201
 1262W        W 5462  11.242   2.337   2.937
 1263W        W 5463   1.160   1.792  10.312
 1264W        W 5464   8.890   9.944   2.039
 1265W        W 5465   3.223   1.588   9.607
 1266W        W 5466   0.743  10.694   8.799
 1267W        W 5467  10.529   1.340  11.040
 1268W        W 5468  11.362   8.826  11.151
 1269W        W 5469   8.758   3.198   3.539
 1270W        W 5470   2.190  11.384   1.388
 1271W        W 5471   3.438  11.127   2.530
 1272W        W 5472   5.896   4.163  11.447
 1273W        W 5473   2.242   9.060   1.003
 1274W        W 5474   0.892   0.416   2.633
 1275W        W 5475   7.663  11.095   2.570
 1276W        W 5476   3.784   8.148   8.710
 1277W        W 5477   6.126   6.513   0.300
 1278W        W 5478  11.351   7.421  11.916
 1279W        W 5479   1.542   4.384   8.995
 1280W        W 5480   5.534  11.430   2.656
 1281W        W 5481  11.432   7.584   1.097
 1282W        W 5482   6.112   4.848   0.854
 1283W        W 5483   4.668   3.584  10.979
 1284W        W 5484   8.518   2.479   1.361
 1285W        W 5485   1.960  10.886  10.950
 1286W        W 5486   7.713   4.374   3.266
 1287W        W 5487   6.685   8.371   8.985
 1288W        W 5488   7.726   2.248   2.681
 1289W        W 5489   1.590   7.044  11.528
 1290W        W 5490   7.090   1.881  11.285
 1291W        W 5491   5.543   6.598   2.633
 1292W        W 5492   9.021   3.325   1.139
 1293W        W 5493   9.393   7.451   0.418
 1294W        W 5494   8.005   2.938  11.869
 1295W        W 5495   0.502   7.104  11.717
 1296W        W 5496  10.913  10.974   2.622
 1297W        W 5497   5.399   2.361   3.518
 1298W        W 5498   1.107   2.454  11.687
 1299W        W 5499   9.937   9.459   2.482
 1300W        W 5500   0.970   8.341   8.334
 1301W        W 5501   9.178   4.218   2.116
 1302W        W 5502   6.193  10.417   1.989
 1303W        W 5503   5.698   4.110   3.540
 1304W        W 5504   3.774   9.800   8.888
 1305W        W 5505  11.022  11.023  10.472
 1306W        W 5506   3.828   9.799  10.602
 1307W        W 5507   2.538   7.509   1.144
 1308W        W 5508  10.893  10.016   0.887
 1309W        W 5509   0.954   3.654   1.813
 1310W        W 5510   2.139   0.850   9.882
 1311W        W 5511   7.006   1.272   1.027
 1312W        W 5512   6.691   4.320  11.765
 1313W        W 5513  10.937   8.525   1.880
 1314W        W 5514   1.043   0.824  10.872
 1315W        W 5515   3.605  11.236  10.379
 1316W        W 5516   9.334   1.049   2.574
 1317W        W 5517   9.501   2.415   0.107
 1318W        W 5518   1.762  10.819   0.137
 1319W        W 5519  10.029   6.104  11.977
 1320W        W 5520   6.554   4.766   1.128
 1321W        W 5521   2.775   7.405   8.890
 1322W        W 5522   8.946   0.020   3.208
 1323W        W 5523  10.984  10.051   3.660
 1324W        W 5524   1.108   5.635   3.345
 1325W        W 5525   2.405   7.913   1.453
 1326W        W 5526   0.429   3.149   2.793
 1327W        W 5527   6.435   6.685   0.683
 1328W        W 5528   3.150  10.095   3.301
 1329W        W 5529   3.599   0.351   1.433
 1330W        W 5530   2.557   1.100   9.689
 1331W        W 5531   3.326   7.151   0.574
 1332W        W 5532  11.025   1.647   9.322
 1333W        W 5533   2.620   3.504  11.797
 1334W        W 5534   5.733   5.262   1.204
 1335W        W 5535   6.155   2.896  11.805
 1336W        W 5536   6.015   1.314  10.297
 1337W        W 5537   4.627   7.953  11.552
 1338W        W 5538  11.309   9.304   9.100
 1339W        W 5539  11.316   9.779   0.714
 1340W        W 5540   7.469   6.839   9.425
 1341W        W 5541   3.331  10.625   9.121
 1342W        W 5542   2.253   6.918   2.291
 1343W        W 5543   8.721   4.691  10.613
 1344W        W 5544   8.973   3.279   3.074
 1345W        W 5545   7.535   6.950   2.630
 1346W        W 5546   9.090   6.479   0.942
 1347W        W 5547   5.329   0.045   9.181
 1348W        W 5548   0.889   9.789  11.819
 1349W        W 5549  10.723  11.130   1.800
 1350W        W 5550   5.788  10.472   2.814
 1351W        W 5551   3.912   1.593   2.075
 1352W        W 5552   3.224   4.654  11.861
 1353W        W 5553   7.052   9.504   3.036
 1354W        W 5554   4.060   1.293  10.612
 1355W        W 5555   3.599  10.723  10.334
 1356W        W 5556   5.393   4.041  11.420
 1357W        W 5557   6.964   9.010   1.094
 1358W        W 5558   8.907   1.436  10.148
 1359W        W 5559   1.930   3.868  10.287
 1360W        W 5560   0.238   5.005   9.464
 1361W        W 5561   3.346   7.643  11.291
 1362W        W 5562   6.493   2.587   1.824
 1363W        W 5563   4.158  11.317   9.400
 1364W        W 5564   1.255   4.388   3.440
 1365W        W 5565   4.080   8.191   2.277
 1366W        W 5566   5.626   1.203  10.902
 1367W        W 5567   1.830   7.104   9.783
 1368W        W 5568   1.805   3.606  11.719
 1369W        W 5569   3.100   8.688   1.318
 1370W        W 5570   8.190   7.666   0.814
 1371W        W 5571   4.576   1.862   9.408
 1372W        W 5572   7.724   1.466   2.189
 1373W        W 5573   7.653   1.408   9.252
 1374W        W 5574   9.279   0.354   8.230
 1375W        W 5575   3.300   2.569   3.553
 1376W        W 5576   2.951   9.632   1.660
 1377W        W 5577   1.297   0.293  10.043
 1378W        W 5578   3.982   4.053  10.558
 1379W        W 5579   2.177   5.311   1.136
 1380W        W 5580   5.091   3.630   3.948
 1381W        W 5581   3.743   8.798  11.109
 1382W        W 5582   7.110   8.926   9.532
 1383W        W 5583   9.048  10.340   9.289
 1384W        W 5584   6.603   1.394   3.357
 1385W        W 5585   2.146  10.023   3.166
 1386W        W 5586   4.156   6.215  10.774
 1387W        W 5587   4.150   9.359   0.770
 1388W        W 5588   4.558   0.083   2.336
 1389W        W 5589   1.433   1.134  11.044
 1390W        W 5590   2.687  11.134  11.753
 1391W        W 5591   8.474   1.004   1.094
 1392W        W 5592   5.081   3.272  10.968
 1393W        W 5593   9.338   0.792   3.004
 1394W        W 5594   3.289   2.625   2.939
 1395W        W 5595  11.223   2.189   3.437
 1396W        W 5596   8.526   9.597   3.630
 1397W        W 5597   5.985   7.296   8.606
 1398W        W 5598   3.084   2.363   0.466
 1399W        W 5599   3.622  10.610  11.750
 1400W        W 5600   2.345   4.143   0.869
 1401W        W 5601   8.439   0.747  10.716
 1402W        W 5602  10.300  10.471   9.746
 1403W        W 5603   2.745   7.853   0.456
 1404W        W 5604   8.408   8.814   8.549
 1405W        W 5605   8.181   5.984   8.285
 1406W        W 5606   5.747  10.306   1.742
 1407W        W 5607   6.605   8.083   0.715
 1408W        W 5608   5.661   2.335   8.677
 1409W        W 5609   3.493   1.916   2.133
 1410W        W 5610   3.315   5.717  10.551
 1411W        W 5611  11.305   2.724   3.496
 1412W        W 5612   6.024   2.815   3.647
 1413W        W 5613   6.200  10.539   1.502
 1414W        W 5614   9.679   1.459  11.111
 1415W        W 5615  10.444   0.703   0.462
 1416W        W 5616   2.580   5.643   2.600
 1417W        W 5617   6.075   8.845   2.773
 1418W        W 5618   5.576   8.647   9.904
 1419W        W 5619  10.991   9.909   0.360
 1420W        W 5620   6.534   4.368   8.963
 1421W        W 5621   8.684   8.103   0.054
 1422W        W 5622   7.439   4.325  10.314
 1423W        W 5623   4.647   5.632  10.493
 1424W        W 5624   8.823   4.811   0.809
 1425W        W 5625   4.918   9.629   3.722
 1426W        W 5626   2.393   7.057   1.430
 1427W        W 5627   9.950   2.835  11.098
 1428W        W 5628   1.358   1.664   9.330
 1429W        W 5629   9.698   9.189   0.413
 1430W        W 5630  10.419   1.661   0.221
 1431W        W 5631   4.178   4.692   9.353
 1432W        W 5632   2.227   6.400   9.397
 1433W        W 5633   9.556   6.524   9.071
 1434W        W 5634   7.713   9.412  10.271
 1435W        W 5635   2.384   8.165   1.894
 1436W        W 5636   8.083   8.610   8.917
 1437W        W 5637   9.741   2.095   0.746
 1438W        W 5638   8.977   7.509  11.502
 1439W        W 5639   8.474   4.749   2.675
 1440W        W 5640   8.608   6.479   9.659
 1441W        W 5641   1.688  10.981   1.860
 1442W        W 5642   8.149   6.419   9.455
 1443W        W 5643  11.340   6.025   3.145
 1444W        W 5644   8.033   0.273  11.328
 1445W        W 5645   7.568   7.164   0.489
 1446W        W 5646   0.324   5.852   2.265
 1447W        W 5647   5.210  10.814  10.260
 1448W        W 5648   7.428   7.786   2.305
 1449W        W 5649   6.047   2.012   8.860
 1450W        W 5650   6.336   6.073  10.116
 1451W        W 5651   8.689   4.076   3.347
 1452W        W 5652   5.609   9.302  11.322
 1453W        W 5653   7.264   9.755   0.038
 1454W        W 5654   8.666   3.719   0.422
 1455W        W 5655   8.878  11.186  11.902
 1456W        W 5656   4.967  11.173   0.891
 1457W        W 5657   4.886   3.258   9.182
 1458W        W 5658   1.923   4.756   8.918
 1459W        W 5659   5.441   6.609  10.357
 1460W        W 5660   1.252   1.240   0.049
 1461W        W 5661   6.223   8.008   0.251
 1462W        W 5662   9.773   8.628   0.578
 1463W        W 5663  10.762   2.783   1.209
 1464W        W 5664   0.296  10.358  11.313
 1465W        W 5665   6.014   0.877   0.045
 1466W        W 5666   1.370   9.093  11.645
 1467W        W 5667   2.293   1.444  10.606
 1468W        W 5668   2.091   9.366   9.345
 1469W        W 5669   5.256   9.240   3.280
 1470W        W 5670   6.492   9.505   2.307
 1471W        W 5671   5.985   5.511  10.355
 1472W        W 5672   8.458   3.061   3.105
 1473W        W 5673   3.911   0.437  10.928
 1474W        W 5674   7.260   5.073   9.946
 1475W        W 5675   7.586   5.889  11.211
 1476W        W 5676   2.948   1.261   0.420
 1477W        W 5677   8.419   9.756   1.271
 1478W        W 5678  10.698   5.265  11.774
 1479W        W 5679   3.201   4.577   3.436
 1480W        W 5680   0.574   0.803  11.749
 1481W        W 5681   8.578   6.940  10.278
 1482W        W 5682   0.687   8.149  10.042
 1483W        W 5683   0.358   0.757  11.281
 1484W        W 5684   5.956   9.031   1.010
 1485W        W 5685   4.756   0.475   1.830
 1486W        W 5686   2.833   0.461   8.952
 1487W        W 5687   7.798   3.080   2.872
 1488W        W 5688   9.088   3.345   9.434
 1489W        W 5689   2.837   4.232   3.527
 1490W        W 5690   1.741   2.697  10.631
 1491W        W 5691  10.865   9.867   9.204
 1492W        W 5692   0.289   7.631  10.839
 1493W        W 5693   9.149   6.223   2.283
 1494W        W 5694   7.489   5.748  11.726
 1495W        W 5695   5.946   5.184  11.387
 1496W        W 5696   1.458   6.189   1.662
 1497W        W 5697   1.899   6.139   1.404
 1498W        W 5698  10.939   4.070   0.601
 1499W        W 5699   9.475   5.951   9.737
 1500W        W 5700   2.575   5.257  11.816
 1501W        W 5701   7.911   1.361   3.135
 1502W        W 5702   2.384   0.975  11.995
 1503W        W 5703   6.125   1.261  10.797
 1504W        W 5704   5.246   1.558  10.593
 1505W        W 5705   0.055   0.342   9.488
 1506W        W 5706   0.388   8.425   0.964
 1507W        W 5707   2.075   4.039  11.402
 1508W        W 5708   2.883   0.319   9.915
 1509W        W 5709   0.265   5.582   2.711
 1510W        W 5710   6.461   2.068  11.862
 1511W        W 5711   4.255   2.554  11.879
 1512W        W 5712   3.563   2.084   9.996
 1513W        W 5713   1.021   2.067   0.080
 1514W        W 5714   6.563   8.146   9.489
 1515W        W 5715   0.119  10.430   2.418
 1516W        W 5716   1.308   3.999   1.957
 1517W        W 5717   4.335  11.001   8.978
 1518W        W 5718  10.947   6.717   9.721
 1519W        W 5719   1.643  10.356   3.559
 1520W        W 5720   2.507   5.788  10.004
 1521W        W 5721   4.869   2.359   3.426
 1522W        W 5722   3.293   5.016  10.054
 1523W        W 5723   2.111   4.579  11.404
 1524W        W 5724  11.336   3.309  10.581
 1525W        W 5725   1.676   7.466   1.722
 1526W        W 5726   6.585   0.762   8.901
 1527W        W 5727   7.829   9.869  11.304
 1528W        W 5728  10.665   4.291  11.773
 1529W        W 5729   6.816   1.003  11.517
 1530W        W 5730   3.175   9.755   0.468
 1531W        W 5731   3.750   2.783   1.179
 1532W        W 5732   7.359   5.592  10.812
 1533W        W 5733   7.155   4.858  11.170
 1534W        W 5734   8.535   8.609   4.132
 1535W        W 5735   7.982   5.728  10.046
 1536W        W 5736  10.541   5.993   2.753
 1537W        W 5737   6.457   4.727  10.181
 1538W        W 5738   2.456   0.486   8.587
 1539W        W 5739   3.308   2.728  10.443
 1540W        W 5740   5.695   1.814   8.529
 1541W        W 5741   5.826   6.131   1.375
 1542W        W 5742   1.853   7.438   9.048
 1543W        W 5743   9.971   9.845  11.726
 1544W        W 5744   1.483   3.304   2.707
 1545W        W 5745   7.739   0.077   0.373
 1546W        W 5746   8.486  11.436   2.112
 1547W        W 5747   5.198   3.977   3.586
 1548W        W 5748   3.789   8.506   0.724
 1549W        W 5749   7.953   1.447   2.649
 1550W        W 5750   3.737   0.721   0.749
 1551W        W 5751   8.037   8.531   2.378
 1552W        W 5752  10.478   2.299   2.984
 1553W        W 5753   2.215   8.111   9.933
 1554W        W 5754  10.982   7.189  10.989
 1555W        W 5755   4.563   3.511   8.624
 1556W        W 5756   5.036   3.566   8.796
 1557W        W 5757   3.842   1.239   1.693
 1558W        W 5758  11.043   0.410   2.917
 1559W        W 5759  10.559   5.207   2.250
 1560W        W 5760   7.195   5.263  10.431
 1561W        W 5761   4.789   3.563   2.464
 1562W        W 5762   8.931   2.000   8.979
 1563W        W 5763   8.622   3.332   0.788
 1564W        W 5764   5.694   2.719   0.016
 1565W        W 5765   4.600  10.775   9.386
 1566W        W 5766   0.831   4.709  10.450
 1567W        W 5767   2.835   1.350   2.835
 1568W        W 5768   5.276   5.096   1.954
 1569W        W 5769   3.287   7.487   8.987
 1570W        W 5770   5.544   2.687   1.423
 1571W        W 5771   4.270   0.785   9.058
 1572W        W 5772   5.546   4.962  10.875
 1573W        W 5773  10.352   4.758  10.722
 1574W        W 5774  10.895   9.831   2.181
 1575W        W 5775   7.978   6.551   2.288
 1576W        W 5776   0.362   5.659   1.049
 1577W        W 5777   8.604   0.739   9.885
 1578W        W 5778  10.504   2.394  11.045
 1579W        W 5779   8.011   7.896   1.800
 1580W        W 5780   5.546   3.834   1.097
 1581W        W 5781   9.111   8.397   0.034
 1582W        W 5782   9.694   5.094  10.019
 1583W        W 5783   9.932   9.103   9.564
 1584W        W 5784  11.288   7.216   0.776
 1585W        W 5785   4.669  10.690  11.028
 1586W        W 5786   9.514  10.090   0.351
 1587W        W 5787   0.717   0.636   0.225
 1588W        W 5788   2.783   6.637   1.798
 1589W        W 5789   3.179   0.432  10.517
 1590W        W 5790   4.809   5.141   0.524
 1591W        W 5791   0.809   4.527   9.895
 1592W        W 5792   1.525   1.869   1.146
 1593W        W 5793   3.994   2.637   9.072
 1594W        W 5794   4.424   6.615   9.055
 1595W        W 5795   9.487   0.083   9.907
 1596W        W 5796  10.569   8.551   0.824
 1597W        W 5797  10.793   2.692   0.709
 1598W        W 5798   0.855  11.067   3.260
 1599W        W 5799   9.001  11.352   2.219
 1600W        W 5800  10.417   3.820  10.844
 1601W        W 5801   1.733   7.257  10.707
 1602W        W 5802   0.863  11.378   2.450
 1603W        W 5803   4.016   1.083   1.216
 1604W        W 5804   0.099   4.610   9.188
 1605W        W 5805  11.381  10.837   1.318
 1606W        W 5806   1.272   8.639  11.396
 1607W        W 5807   1.841   3.390   8.890
 1608W        W 5808   4.346   2.273  10.497
 1609W        W 5809   0.686   3.287   3.188
 1610W        W 5810   2.977   9.519   2.725
 1611W        W 5811   7.607   7.201  11.974
 1612W        W 5812   1.645   0.170  10.752
 1613W        W 5813   7.403   9.839  11.555
 1614W        W 5814  11.397   4.545  11.482
 1615W        W 5815  11.036   2.028   8.962
 1616W        W 5816   8.621   6.442  10.207
 1617W        W 5817   0.262  11.003  11.946
 1618W        W 5818   2.705   6.371   3.966
 1619W        W 5819   4.630   7.049  11.592
 1620W        W 5820   9.852   1.225   1.686
 1621W        W 5821   5.209   1.328   2.789
 1622W        W 5822   1.707   4.891   1.862
 1623W        W 5823   3.766   9.879   2.640
 1624W        W 5824   8.851   2.823   2.324
 1625W        W 5825   4.487   8.220   9.038
 1626W        W 5826   6.730   3.592   9.435
 1627W        W 5827   9.815   6.977   9.087
 1628W        W 5828   4.443   2.759   9.271
 1629W        W 5829   8.621   8.879   2.446
 1630W        W 5830   2.209   0.975  10.359
 1631W        W 5831   2.528   4.507   0.549
 1632W        W 5832   6.060   7.949   9.520
 1633W        W 5833   1.550   1.310   2.241
 1634W        W 5834   4.316   1.459   1.753
 1635W        W 5835   1.464   8.657   1.481
 1636W        W 5836   2.893   2.352  11.602
 1637W        W 5837   8.374   1.379   3.384
 1638W        W 5838   5.008   7.228   9.635
 1639W        W 5839   2.534   3.534   2.597
 1640W        W 5840  10.319   7.941   0.421
 1641W        W 5841   3.840   5.969   0.455
 1642W        W 5842   3.809   0.933  10.890
 1643W        W 5843   5.431   3.304   1.609
 1644W        W 5844   7.274   3.822  11.345
 1645W        W 5845   3.556   0.842   3.384
 1646W        W 5846   2.191   1.769  11.014
 1647W        W 5847   2.245   5.224   0.202
 1648W        W 5848   0.024   4.223  10.258
 1649W        W 5849   2.807   5.059   2.567
 1650W        W 5850   7.937   5.055   9.523
 1651W        W 5851   2.891   9.875   0.884
 1652W        W 5852   4.036   9.832   0.063
 1653W        W 5853   9.087   3.948  11.260
 1654W        W 5854  10.762  10.768   9.155
 1655W        W 5855  11.491   0.060   3.577
 1656W        W 5856   0.537   7.484   0.230
 1657W        W 5857   4.712   2.101  10.793
 1658W        W 5858   8.090   3.172   1.171
 1659W        W 5859   9.154   6.247   2.805
 1660W        W 5860   1.659   8.261   8.780
 1661W        W 5861  10.904   5.752   9.996
 1662W        W 5862   5.532   0.258   0.464
 1663W        W 5863   2.214   8.156   2.782
 1664W        W 5864   0.381  11.255   3.721
 1665W        W 5865   1.056   2.245   2.346
 1666W        W 5866   8.005   7.558   2.164
 1667W        W 5867   9.079   1.995   2.640
 1668W        W 5868   2.328   5.575  11.436
 1669W        W 5869   6.304   8.315  10.336
 1670W        W 5870   8.086   7.997  11.576
 1671W        W 5871   0.324   4.210   3.397
 1672W        W 5872  11.466   5.193   2.799
 1673W        W 5873   2.924  10.193   0.431
 1674W        W 5874   6.091   3.023   2.364
 1675W        W 5875   2.022   4.799   2.754
 1676W        W 5876   9.025  11.150  11.293
 1677W        W 5877   4.750   9.904   2.983
 1678W        W 5878   8.357   7.619  10.738
 1679W        W 5879   4.766   9.388   9.746
 1680W        W 5880   8.097   0.664  11.659
 1681W        W 5881   1.675   9.558   9.628
 1682W        W 5882   7.569   2.005   3.438
 1683W        W 5883   8.936   1.454   8.815
 1684W        W 5884   1.982   7.635   9.922
 1685W        W 5885   0.024  10.936  10.645
 1686W        W 5886   0.219   0.272  11.015
 1687W        W 5887   4.285  10.483   9.056
 1688W        W 5888   6.600   4.383   8.445
 1689W        W 5889   8.607  11.398  11.442
 1690W        W 5890   4.681   2.075   8.454
 1691W        W 5891   9.432   4.138   3.132
 1692W        W 5892   9.010   8.775   9.388
 1693W        W 5893   2.089   7.195   1.876
 1694W        W 5894   9.559   2.628  10.859
 1695W        W 5895   3.272   2.912   1.348
 1696W        W 5896   7.070   1.813   9.463
 1697W        W 5897   3.554   3.845  11.811
 1698W        W 5898  11.107   4.983  10.487
 1699W        W 5899   8.942   9.111   3.454
 1700W        W 5900  11.219   9.319   2.477
 1701W        W 5901   4.215   2.489   3.150
 1702W        W 5902   0.303   7.522   0.744
 1703W        W 5903   3.059   6.173   9.351
 1704W        W 5904   1.320   0.319  11.735
 1705W        W 5905  10.468   9.384   1.270
 1706W        W 5906   9.006   3.766  10.792
 1707W        W 5907   6.005   2.308  10.098
 1708W        W 5908  11.277   3.303  10.075
 1709W        W 5909   8.823   7.107   2.552
 1710W        W 5910   8.364   9.879  11.307
 1711W        W 5911   2.744  11.386   0.717
 1712W        W 5912   7.517   2.711   2.674
 1713W        W 5913  10.455   9.547   8.728
 1714W        W 5914   4.623   8.627   3.352
 1715W        W 5915   0.398   1.936   3.327
 1716W        W 5916   2.358   2.834   1.325
 1717W        W 5917   6.074   9.344  11.069
 1718W        W 5918   7.328   7.801   1.436
 1719W        W 5919   6.140   0.517   8.748
 1720W        W 5920   6.466  10.897   8.812
 1721W        W 5921   7.967   0.450   8.872
 1722W        W 5922   7.130   7.259   9.363
 1723W        W 5923   5.956   7.567   0.245
 1724W        W 5924   1.704   7.416   2.989
 1725W        W 5925  10.461   3.132   2.374
 1726W        W 5926   1.369   9.700   3.818
 1727W        W 5927  10.678   6.965   1.390
 1728W        W 5928   8.369   6.871   9.331
 1729W        W 5929   7.077  10.037   9.086
 1730W        W 5930   4.445   8.151   3.217
 1731W        W 5931   4.577   7.094  10.516
 1732W        W 5932   2.878   9.420  10.898
 1733W        W 5933   3.079   9.981  11.039
 1734W        W 5934   8.146   6.653  10.413
 1735W        W 5935  11.292   1.409   1.818
 1736W        W 5936   4.210   7.662   3.127
 1737W        W 5937   2.149   7.132   0.982
 1738W        W 5938   0.336   1.299   9.405
 1739W        W 5939  11.045  11.251   1.275
 1740W        W 5940   4.481   5.289   0.955
 1741W        W 5941   5.223   7.847   1.630
 1742W        W 5942   9.722   5.495   9.439
 1743W        W 5943   9.119   4.881   8.705
 1744W        W 5944  11.316   5.464  10.392
 1745W        W 5945  10.729   0.585   2.522
 1746W        W 5946   8.255   1.493   2.225
 1747W        W 5947   9.635   7.137  11.817
 1748W        W 5948   1.766   0.571  11.510
 1749W        W 5949   8.535   0.446   2.246
 1750W        W 5950  10.949   7.217   3.126
 1751W        W 5951  10.864   9.072   2.725
 1752W        W 5952   1.727   2.675  11.150
 1753W        W 5953   2.599   7.223   2.798
 1754W        W 5954   6.490   0.168   0.973
 1755W        W 5955   8.628   1.017   1.577
 1756W        W 5956   7.084   8.912  10.761
 1757W        W 5957   9.004   7.442   9.088
 1758W        W 5958   4.897   3.250   3.653
 1759W        W 5959   0.370   8.597  11.846
 1760W        W 5960   5.627   2.757   2.356
 1761W        W 5961  11.426   5.965   0.554
 1762W        W 5962   1.445   2.735   2.504
 1763W        W 5963   1.463   7.150   8.543
 1764W        W 5964   7.181   3.353  11.115
 1765W        W 5965  10.833   7.468  11.807
 1766W        W 5966   6.671   0.542   0.674
 1767W        W 5967   4.352   2.060  11.926
 1768W        W 5968  10.086   6.846  10.314
 1769W        W 5969   1.765  11.288  11.936
 1770W        W 5970   2.219   5.664   0.475
 1771W        W 5971   3.099  11.427  10.131
 1772W        W 5972   3.188   6.466   1.166
 1773W        W 5973  10.881   3.842   3.101
 1774W        W 5974   3.672   9.814   0.406
 1775W        W 5975   3.321   3.749   2.045
 1776W        W 5976   3.399  11.163  11.531
 1777W        W 5977   3.362   4.248   1.788
 1778W        W 5978   3.606   4.809   0.165
 1779W        W 5979   2.967   4.244   0.438
 1780W        W 5980   2.452  11.440   1.851
 1781W        W 5981   8.380   3.126   2.201
 1782W        W 5982   6.275  10.924   1.842
 1783W        W 5983   3.269  11.027   2.045
 1784W        W 5984   0.875   3.212   9.979
 1785W        W 5985   7.999  10.479  10.037
 1786W        W 5986   7.406   8.995  10.371
 1787W        W 5987   8.159   5.167   2.722
 1788W        W 5988   5.695  10.328   9.385
 1789W        W 5989   6.646   7.308   9.180
 1790W        W 5990   2.085   5.623   2.440
 1791W        W 5991   5.432   5.128  11.347
 1792W        W 5992   6.260   0.855   1.415
 1793W        W 5993   7.866   4.550   0.705
 1794W        W 5994   4.133   5.141  10.038
 1795W        W 5995   6.173   3.304  11.251
 1796W        W 5996  10.420   0.291   2.233
 1797W        W 5997   4.219  10.592   0.549
 1798W        W 5998   2.827   5.052   9.877
 1799W        W 5999   7.671   7.556   2.729
 1800W        W 6000   0.503   1.492  10.819
 1801W        W 6001   2.480   9.832   9.362
 1802W        W 6002   9.072   0.377   9.961
 1803W        W 6003   8.954  10.504  10.311
 1804W        W 6004   9.412   1.505   9.587
 1805W        W 6005  11.271   0.974   8.860
 1806W        W 6006   8.564   3.316   9.427
 1807W        W 6007   0.284   5.761  11.341
 1808W        W 6008   4.337   8.327  10.063
 1809W        W 6009   1.534   7.796  11.472
 1810W        W 6010   6.881   3.312   0.485
 1811W        W 6011   8.057   0.672   1.012
 1812W        W 6012   9.943  10.985   9.459
 1813W        W 6013   2.832   3.933   1.981
 1814W        W 6014   5.473   5.297   0.776
 1815W        W 6015   9.524   7.061   4.275
 1816W        W 6016   8.121  10.575   9.183
 1817W        W 6017   5.610   5.722  11.980
 1818W        W 6018  10.007   9.998   0.217
 1819W        W 6019   3.734  11.328   2.178
 1820W        W 6020   3.768   1.229  11.961
 1821W        W 6021   6.294   4.331   1.758
 1822W        W 6022   1.913   2.647   2.270
 1823W        W 6023   3.719   0.197   0.806
 1824W        W 6024  11.470   2.140   0.307
 1825W        W 6025   0.810   9.580   0.313
 1826W        W 6026   9.330   5.508  10.495
 1827W        W 6027   4.245   9.603   1.484
 1828W        W 6028   7.894   4.942  11.879
 1829W        W 6029   7.766   8.622   1.273
 1830W        W 6030   0.397   5.212   2.324
 1831W        W 6031   5.032   1.002   9.411
 1832W        W 6032   2.093   7.461   1.393
 1833W        W 6033   5.083   8.462   3.438
 1834W        W 6034   0.579   8.371  10.507
 1835W        W 6035   6.108   4.049  10.134
 1836W        W 6036  10.001   4.620  11.076
 1837W        W 6037   5.997   3.294   0.936
 1838W        W 6038   7.614  10.471   0.721
 1839W        W 6039   5.300   6.957   0.364
 1840W        W 6040   6.021   2.384  11.753
 1841W        W 6041   4.674   4.790  11.570
 1842W        W 6042   1.562   0.831  11.915
 1843W        W 6043   3.617   5.091  11.290
 1844W        W 6044   5.427   5.727   9.163
 1845W        W 6045  10.244   0.379  11.020
 1846W        W 6046   6.260   6.546   3.296
 1847W        W 6047   6.489   5.561  11.023
 1848W        W 6048   8.022   0.569   2.440
 1849W        W 6049   8.692   2.432   9.375
 1850W        W 6050  11.297   7.023  10.269
 1851W        W 6051   9.539   3.282   1.307
 1852W        W 6052   9.105   6.022   4.080
 1853W        W 6053  11.397  10.365   1.530
 1854W        W 6054   7.160   6.864   0.409
 1855W        W 6055   1.948   5.538  10.817
 1856W        W 6056   8.674   3.238  10.772
 1857W        W 6057   9.082   3.704   2.480
 1858W        W 6058   4.116   0.348  11.471
 1859W        W 6059   3.343   2.376   1.312
 1860W        W 6060   0.388   4.177   2.023
 1861W        W 6061   5.198   6.703   1.625
 1862W        W 6062   6.571   6.844   1.613
 1863W        W 6063  10.093   8.164   0.806
 1864W        W 6064   3.112   1.240   8.838
 1865W        W 6065   4.508   9.508   8.491
 1866W        W 6066   6.153   2.192   0.257
 1867W        W 6067  10.743   0.431  10.955
 1868W        W 6068   8.591   9.975   8.849
 1869W        W 6069   1.176   5.263   9.031
 1870W        W 6070   3.715   9.296   8.958
 1871W        W 6071   5.019  11.275   0.017
 1872W        W 6072  10.326   3.095   0.030
 1873W        W 6073   6.880   2.234  11.624
 1874W        W 6074   2.284   1.269  11.169
 1875W        W 6075   7.124   2.701  11.743
 1876W        W 6076   4.160   3.331   0.377
 1877W        W 6077   4.483   3.519   1.246
 1878W        W 6078   5.320   2.092   3.092
 1879W        W 6079   3.514   2.853   9.469
 1880W        W 6080   9.641   6.231   1.886
 1881W        W 6081   3.109   8.765   8.677
 1882W        W 6082   2.711   9.465  11.453
 1883W        W 6083  10.296  10.044  10.479
 1884W        W 6084   0.299   6.725  11.012
 1885W        W 6085   2.363   9.880   0.885
 1886W        W 6086  10.085   9.523   0.388
 1887W        W 6087   0.355   2.321   0.622
 1888W        W 6088   1.933   0.156   0.410
 1889W        W 6089   9.470   9.409   2.652
 1890W        W 6090  11.406   6.619   9.958
 1891W        W 6091   3.098   8.389   2.381
 1892W        W 6092   3.097   8.496  11.833
 1893W        W 6093   5.627   1.674   0.226
 1894W        W 6094   3.041   4.938   3.839
 1895W        W 6095   4.734   6.119  10.260
 1896W        W 6096   1.632   6.779  10.576
 1897W        W 6097   2.278   6.222   1.726
 1898W        W 6098   1.173   3.682   2.958
 1899W        W 6099   4.317   3.160  11.490
 1900W        W 6100   7.444   6.117   8.641
 1901W        W 6101   9.918  10.923  10.378
 1902W        W 6102   5.865   7.140   3.467
 1903W        W 6103   2.306   8.609   1.673
 1904W        W 6104   1.846   6.127   2.471
 1905W        W 6105   1.314   0.958   1.508
 1906W        W 6106   6.974   4.258  11.331
 1907W        W 6107   6.095   1.267   2.654
 1908W        W 6108   8.616   5.338   1.479
 1909W        W 6109   5.810   3.824  10.527
 1910W        W 6110   3.191   0.715  11.457
 1911W        W 6111   4.713   3.714   3.493
 1912W        W 6112   5.906   4.570   3.444
 1913W        W 6113   0.454   1.451   1.236
 1914W        W 6114   9.521  10.055  11.812
 1915W        W 6115   2.778   8.109  10.800
 1916W        W 6116   2.246   3.510  11.437
 1917W        W 6117   3.629   5.242  11.831
 1918W        W 6118   2.488   4.737  10.100
 1919W        W 6119   7.993   9.581   3.477
 1920W        W 6120   1.110   2.216  10.029
 1921W        W 6121   1.623   9.418   9.134
 1922W        W 6122   7.197   4.220   3.256
 1923W        W 6123   2.265   1.469   9.464
 1924W        W 6124   7.346  11.345   3.064
 1925W        W 6125   3.252   5.259   9.616
 1926W        W 6126   2.505   7.694   9.887
 1927W        W 6127   1.397   8.292   2.769
 1928W        W 6128   2.027   5.625   9.975
 1929W        W 6129   2.375   2.326   1.207
 1930W        W 6130   2.182   6.666   9.916
 1931W        W 6131   0.753   9.960  10.525
 1932W        W 6132   4.703   7.945   2.376
 1933W        W 6133   2.097   6.168  10.028
 1934W        W 6134  10.735   5.881   9.425
 1935W        W 6135   0.273   8.379   3.447
 1936W        W 6136   1.444   2.315   1.380
 1937W        W 6137   3.092   5.073   3.348
 1938W        W 6138   0.709   8.585   2.727
 1939W        W 6139   1.392   4.871   1.440
 1940W        W 6140   9.068   8.472   8.969
 1941W        W 6141   3.181   4.035   3.235
 1942W        W 6142   5.638   8.062   3.959
 1943W        W 6143  10.042   4.571   8.933
 1944W        W 6144   8.154   9.755   9.556
 1945W        W 6145  10.759  11.391   9.423
 1946W        W 6146   0.321   6.586   1.625
 1947W        W 6147   7.389   2.185   9.879
 1948W        W 6148   9.465   9.175   8.448
 1949W        W 6149   8.115   5.234   9.973
 1950W        W 6150   3.946   9.468   2.889
 1951W        W 6151   0.374   6.561   0.963
 1952W        W 6152  10.949   8.945   3.205
 1953W        W 6153   0.429   2.812   8.869
 1954W        W 6154   3.303  11.446   0.382
 1955W        W 6155   0.775   5.885  11.278
 1956W        W 6156   6.453   8.458   0.417
 1957W        W 6157   6.478   1.748   2.539
 1958W        W 6158   6.599   2.732  11.097
 1959W        W 6159   2.828   8.435  10.411
 1960W        W 6160   6.062   5.523   2.200
 1961W        W 6161   0.935   2.202  10.535
 1962W        W 6162   4.767  10.415   2.959
 1963W        W 6163   4.672   9.346   0.691
 1964W        W 6164   8.910  10.400   9.779
 1965W        W 6165   2.018   2.166   2.455
 1966W        W 6166   8.651  10.750  10.781
 1967W        W 6167   1.260   0.476   1.362
 1968W        W 6168   5.699   0.928   3.268
 1969W        W 6169   8.379  10.323   2.125
 1970W        W 6170   4.387   1.341   0.365
 1971W        W 6171   0.404   1.268   2.976
 1972W        W 6172   1.191   5.839   8.488
 1973W        W 6173   4.173   3.687   0.735
 1974W        W 6174   7.453   5.069   8.912
 1975W        W 6175   4.757   4.414  11.908
 1976W        W 6176   2.682   3.513  10.871
 1977W        W 6177   3.175   9.550  11.295
 1978W        W 6178   5.620   8.504   1.256
 1979W        W 6179  10.583   0.033  11.770
 1980W        W 6180   9.008   4.421   3.126
 1981W        W 6181  11.116   4.572   9.038
 1982W        W 6182  11.116   0.541   0.896
 1983W        W 6183   1.511   0.633  10.945
 1984W        W 6184   2.774   5.387  10.274
 1985W        W 6185   3.114   5.110   1.145
 1986W        W 6186   8.242   5.241   1.877
 1987W        W 6187   9.821   0.931   3.484
 1988W        W 6188   1.879   7.960   9.135
 1989W        W 6189   2.213   4.337  11.989
 1990W        W 6190   2.816   2.261   0.897
 1991W        W 6191   4.376   9.514  10.065
 1992W        W 6192   8.532   9.879   2.386
 1993W        W 6193   0.068  10.428   1.018
 1994W        W 6194   5.154   7.662  11.081
 1995W        W 6195   1.871   1.373  10.879
 1996W        W 6196   4.126   3.149   1.407
 1997W        W 6197   7.270   9.273   0.163
 1998W        W 6198   6.745   1.392   9.587
 1999W        W 6199  10.198   1.801  11.736
 2000W        W 6200  10.501  10.925   9.561
 2001W        W 6201   1.872   1.365  10.350
 2002W        W 6202   4.753   6.712   0.395
 2003W        W 6203   0.243   6.973   0.699
 2004W        W 6204  11.270   4.570   2.387
 2005W        W 6205  10.052   8.111   2.152
 2006W        W 6206   3.353   5.120   2.356
 2007W        W 6207  10.094   8.735   1.510
 2008W        W 6208   5.647  10.963   2.925
 2009W        W 6209  11.008  11.418   2.819
 2010W        W 6210  10.896  10.302   1.323
 2011W        W 6211   5.021  10.963  11.279
 2012W        W 6212   8.156   8.947   1.303
 2013W        W 6213   8.695   8.145   9.131
 2014W        W 6214   6.041   8.231   1.214
 2015W        W 6215   8.852   3.781   0.921
 2016W        W 6216   2.295   3.805  11.006
 2017W        W 6217   9.797   2.560   1.813
 2018W        W 6218   1.182   4.735   3.069
 2019W        W 6219   4.252   4.588   0.913
 2020W        W 6220   7.113  10.956   0.204
 2021W        W 6221   8.998  11.350   9.989
 2022W        W 6222  11.325   2.362   9.942
 2023W        W 6223   7.245   4.110   1.544
 2024W        W 6224   1.215   6.943   9.997
 2025W        W 6225   3.239   8.993   2.851
 2026W        W 6226   2.421   0.190   0.969
 2027W        W 6227   3.747   5.742   1.949
 2028W        W 6228   9.999   3.619   9.074
 2029W        W 6229   6.084   0.861   1.923
 2030W        W 6230  10.017   3.680  10.022
 2031W        W 6231   8.453  10.042   0.783
 2032W        W 6232   4.807   2.080   0.162
 2033W        W 6233   6.680   8.652   9.418
 2034W        W 6234   1.693   8.853   0.293
 2035W        W 6235   4.389   5.901   2.496
 2036W        W 6236  10.852   1.196   9.091
 2037W        W 6237  11.033   7.386   0.315
 2038W        W 6238  11.112   5.557   9.541
 2039W        W 6239   9.083   7.938  11.235
 2040W        W 6240   5.803   4.870   9.572
 2041W        W 6241   5.744   3.841   9.388
 2042W        W 6242   0.259   5.541   0.554
 2043W        W 6243   9.600   8.860   9.883
 2044W        W 6244   1.807   6.258   0.513
 2045W        W 6245   3.867   7.523  10.117
 2046W        W 6246   7.183   1.706   9.949
 2047W        W 6247   0.152   5.129   0.064
 2048W        W 6248   3.492   0.777   9.543
 2049W        W 6249   3.635   3.286   1.345
 2050W        W 6250  10.457  10.567   8.737
 2051W        W 6251   6.914   4.922  10.723
 2052W        W 6252   9.113   8.585   1.349
 2053W        W 6253   9.614   3.244   8.950
 2054W        W 6254   1.432   5.240  10.952
 2055W        W 6255   4.659   3.698   2.947
 2056W        W 6256   0.591   5.992  11.747
 2057W        W 6257   2.340   4.313  11.046
 2058W        W 6258   1.835   4.638   2.312
 2059W        W 6259   6.489   8.864   8.942
 2060W        W 6260   8.185   3.308  10.941
 2061W        W 6261   9.214   5.549  11.749
 2062W        W 6262   8.305   4.405   1.468
 2063W        W 6263   3.273   4.674  11.340
 2064W        W 6264   9.549   5.034  10.510
 2065W        W 6265   8.507   0.581   0.779
 2066W        W 6266   8.331   8.019   0.442
 2067W        W 6267   5.452   3.278   2.109
 2068W        W 6268   8.156  10.450   0.932
 2069W        W 6269   6.856   0.748  10.744
 2070W        W 6270   8.295   3.764   3.501
 2071W        W 6271   7.568  10.225   2.169
 2072W        W 6272   9.125   5.203   0.976
 2073W        W 6273   8.785  10.030   3.495
 2074W        W 6274   0.100   8.011   8.657
 2075W        W 6275   3.743   7.651   8.832
 2076W        W 6276   9.890   5.182   8.759
 2077W        W 6277   3.514  11.357   3.542
 2078W        W 6278   8.009   3.113  11.381
 2079W        W 6279  10.103   0.427   1.834
 2080W        W 6280   1.043   4.112   1.024
 2081W        W 6281   7.765  11.164  10.523
 2082W        W 6282   9.984   3.712  10.567
 2083W        W 6283   6.635   3.183   8.670
 2084W        W 6284   7.586   8.079   2.758
 2085W        W 6285   4.478   1.373  10.325
 2086W        W 6286   8.352   2.395   0.878
 2087W        W 6287   3.321  10.453   2.960
 2088W        W 6288   4.050   8.640  11.495
 2089W        W 6289  11.202   6.965   1.319
 2090W        W 6290  10.854   2.098   2.699
 2091W        W 6291   5.786   6.600   3.100
 2092W        W 6292   6.207   9.423   4.083
 2093W        W 6293   6.312  10.498   2.979
 2094W        W 6294   2.343   9.683   2.829
 2095W        W 6295   8.887   4.065   8.505
 2096W        W 6296   3.274   8.951  11.951
 2097W        W 6297   4.775   4.789  10.314
 2098W        W 6298   0.298   6.254   3.333
 2099W        W 6299   1.647   3.047   3.573
 2100W        W 6300   9.582   8.030  11.779
 2101W        W 6301   2.142   9.421   2.199
 2102W        W 6302   8.619   8.035  10.971
 2103W        W 6303   2.723   8.185   9.980
 2104W        W 6304   2.928   9.452   1.175
 2105W        W 6305   6.126   1.670   1.531
 2106W        W 6306   6.597   1.895   3.466
 2107W        W 6307  10.350   2.681   2.630
 2108W        W 6308   3.146   3.414   1.249
 2109W        W 6309   7.991   2.592  11.294
 2110W        W 6310   5.985   6.212  11.082
 2111W        W 6311   2.770   3.318   3.018
 2112W        W 6312   0.471  10.470   9.651
 2113W        W 6313  11.362   9.522   1.175
 2114W        W 6314   6.332   7.116  11.512
 2115W        W 6315   0.330   2.623   0.224
 2116W        W 6316   9.420   6.058   1.005
 2117W        W 6317   2.604   8.514   0.017
 2118W        W 6318   4.630   8.087   1.001
 2119W        W 6319   6.845   3.486   0.007
 2120W        W 6320   2.008   5.595   8.745
 2121W        W 6321  10.930   0.318  11.420
 2122W        W 6322   9.094   7.588  10.650
 2123W        W 6323   5.309   0.848   0.401
 2124W        W 6324   7.341  10.503   0.274
 2125W        W 6325  10.700   1.835  11.826
 2126W        W 6326   5.670   6.714   0.064
 2127W        W 6327   9.815   4.098   8.874
 2128W        W 6328   7.689   6.432   9.704
 2129W        W 6329   9.392   2.946   0.378
 2130W        W 6330   7.943   7.219  10.056
 2131W        W 6331   1.797   8.096   2.517
 2132W        W 6332   5.574   3.528  10.898
 2133W        W 6333   9.802   1.708   1.049
 2134W        W 6334   1.370   6.233   0.227
 2135W        W 6335   5.285   8.665   9.461
 2136W        W 6336   3.442   0.533   8.754
 2137W        W 6337   3.391   9.523   1.397
 2138W        W 6338   8.017   2.632   2.852
 2139W        W 6339   2.350   1.578   1.959
 2140W        W 6340   9.863   9.390  11.508
 2141W        W 6341   4.992   3.775   8.323
 2142W        W 6342   0.271   1.335   0.402
 2143W        W 6343   2.570   4.237   9.271
 2144W        W 6344   3.689   5.261   9.858
 2145W        W 6345   5.938   5.805  10.774
 2146W        W 6346   5.590   6.210   2.284
 2147W        W 6347   2.175   0.748   2.323
 2148W        W 6348   8.932   6.714   2.205
 2149W        W 6349   3.704   5.581  11.382
 2150W        W 6350   5.768   1.656  10.667
 2151W        W 6351   0.807   7.919   0.229
 2152W        W 6352  11.297   1.929   2.502
 2153W        W 6353   6.975   5.056   1.011
 2154W        W 6354  11.190   2.423  11.531
 2155W        W 6355   7.064   8.157   2.927
 2156W        W 6356   9.481   6.424   1.368
 2157W        W 6357   1.201   3.631   9.935
 2158W        W 6358   7.702   5.625   2.070
 2159W        W 6359   3.392   9.070   1.080
 2160W        W 6360   2.932   3.882   1.138
 2161W        W 6361   9.490   9.964   0.869
 2162W        W 6362   5.250   8.759   3.082
 2163W        W 6363   8.804   8.228   0.538
 2164W        W 6364   6.959   9.392   2.003
 2165W        W 6365   5.648   1.518   0.742
 2166W        W 6366   7.448   8.059   9.549
 2167W        W 6367   2.130  10.556   3.559
 2168W        W 6368   8.366   1.208   2.896
 2169W        W 6369   9.232   5.579   9.358
 2170W        W 6370  10.484   9.330   0.694
 2171W        W 6371   8.601   5.944   3.598
 2172W        W 6372   2.263   6.328  10.866
 2173W        W 6373   7.988   4.763   3.047
 2174W        W 6374   5.321   2.413   0.338
 2175W        W 6375   9.547   6.499   3.082
 2176W        W 6376  11.282   3.977   0.224
 2177W        W 6377  10.808   3.642   1.491
 2178W        W 6378   6.549   7.378  10.538
 2179W        W 6379   9.536  10.764  11.071
 2180W        W 6380   5.668   0.477   8.984
 2181W        W 6381   1.870   5.870  10.387
 2182W        W 6382   6.933   9.725   9.999
 2183W        W 6383   3.701   1.927   1.156
 2184W        W 6384   6.408   4.247  11.353
 2185W        W 6385   2.473  10.734   2.271
 2186W        W 6386   1.913   8.972   9.053
 2187W        W 6387   5.348   4.162   1.446
 2188W        W 6388   6.143   5.455   3.169
 2189W        W 6389  10.823  10.036  10.463
 2190W        W 6390   4.540   0.858   9.482
 2191W        W 6391   5.764   2.385   3.147
 2192W        W 6392   1.681   6.684  10.077
 2193W        W 6393   4.637   5.707   9.967
 2194W        W 6394   3.118   7.990   2.727
 2195W        W 6395   1.432  10.254   1.691
 2196W        W 6396   0.834   3.162   1.920
 2197W        W 6397   7.824   8.578   2.843
 2198W        W 6398   8.986   3.138  11.616
 2199W        W 6399  10.490   4.188   0.405
 2200W        W 6400   9.079   7.953  11.754
 2201W        W 6401  10.027   1.566   2.922
 2202W        W 6402   0.680   8.836   9.548
 2203W        W 6403   9.309   9.933   1.335
 2204W        W 6404   6.248   2.365   9.165
 2205W        W 6405   8.857   5.546   0.628
 2206W        W 6406  10.536   1.513   8.800
 2207W        W 6407   3.623  10.240   3.461
 2208W        W 6408   3.718   8.583   1.735
 2209W        W 6409   8.708   1.003  10.318
 2210W        W 6410   5.178   7.675   2.122
 2211W        W 6411   7.186  10.050  10.488
 2212W        W 6412  10.322   6.190   9.470
 2213W        W 6413   2.833   1.499   9.931
 2214W        W 6414  10.353   6.039   1.689
 2215W        W 6415  10.066   2.473   3.314
 2216W        W 6416   5.593   2.186  10.383
 2217W        W 6417   0.844   2.685  10.170
 2218W        W 6418   5.660   8.968   1.473
 2219W        W 6419   9.091   6.272   0.377
 2220W        W 6420  11.019   8.348  11.922
 2221W        W 6421  10.872   1.616  10.048
 2222W        W 6422  11.000   8.057   8.820
 2223W        W 6423   3.649   1.659  11.714
 2224W        W 6424  10.023  10.324  11.060
 2225W        W 6425  10.860   4.761   1.139
 2226W        W 6426   9.970   0.882   2.048
 2227W        W 6427   7.446   4.808   3.278
 2228W        W 6428   1.610   7.582   1.206
 2229W        W 6429   7.165   2.850   9.339
 2230W        W 6430  10.525  11.312   1.378
 2231W        W 6431   1.257   9.099   0.198
 2232W        W 6432   1.302   2.920  10.785
 2233W        W 6433   5.662   9.682  11.947
 2234W        W 6434   2.407   9.988   1.836
 2235W        W 6435   5.644  11.027  11.853
 2236W        W 6436   8.883   1.962  10.857
 2237W        W 6437   3.836   6.242   9.983
 2238W        W 6438   7.466   1.512   3.310
 2239W        W 6439   7.262   1.416   1.787
 2240W        W 6440  10.070   3.209   8.716
 2241W        W 6441   3.229   8.140  11.109
 2242W        W 6442   6.579   0.773   1.810
 2243W        W 6443   7.616   1.380   0.328
 2244W        W 6444   6.394   3.192   0.491
 2245W        W 6445   6.142   5.552   1.247
 2246W        W 6446   3.343   0.711  10.965
 2247W        W 6447   4.152   2.408   1.874
 2248W        W 6448   9.860   3.093   0.929
 2249W        W 6449   4.075   9.974   3.335
 2250W        W 6450   3.446   6.074  11.443
 2251W        W 6451   4.974   4.133   4.054
 2252W        W 6452   0.601   6.514   0.454
 2253W        W 6453   9.980   7.644   8.646
 2254W        W 6454   4.759   8.945   2.535
 2255W        W 6455   8.152   9.163  10.784
 2256W        W 6456   3.713   2.384   9.469
 2257W        W 6457   3.963   3.835   9.272
 2258W        W 6458   5.261   2.132   2.314
 2259W        W 6459   9.941   4.744   9.695
 2260W        W 6460   9.394  11.496   9.008
 2261W        W 6461   4.803  10.757   8.910
 2262W        W 6462   3.721   1.243  10.262
 2263W        W 6463   5.941   3.673   9.831
 2264W        W 6464   9.698   4.191   3.578
 2265W        W 6465   0.404   8.151  10.925
 2266W        W 6466   0.161   4.172  10.757
 2267W        W 6467   0.117   8.818   1.423
 2268W        W 6468   3.787   8.111   1.286
 2269W        W 6469   8.184  11.261   0.340
 2270W        W 6470   5.728  11.342   9.477
 2271W        W 6471   2.659   9.988   3.176
 2272W        W 6472  10.302   5.488  11.484
 2273W        W 6473   6.042   1.034   3.673
 2274W        W 6474   1.519   0.547  10.433
 2275W        W 6475   8.239  10.332   8.694
 2276W        W 6476   1.879   6.031   3.340
 2277W        W 6477   5.623   7.948   0.452
 2278W        W 6478   0.649   6.990  11.256
 2279W        W 6479   5.845   5.308   2.689
 2280W        W 6480   6.677   4.140  10.914
 2281W        W 6481   2.175   2.798  10.921
 2282W        W 6482   9.286  10.871   0.789
 2283W        W 6483   8.987   7.049   1.819
 2284W        W 6484   6.482   0.642  11.260
 2285W        W 6485   5.199   0.927  10.911
 2286W        W 6486   3.209   0.850   2.122
 2287W        W 6487   8.086   5.955  11.048
 2288W        W 6488   3.645   2.611   9.925
 2289W        W 6489   5.489   0.417   2.284
 2290W        W 6490   6.069   1.912  11.502
 2291W        W 6491   0.983   1.741   1.059
 2292W        W 6492  10.727   6.280  11.283
 2293W        W 6493   0.780   7.513   9.505
 2294W        W 6494   0.222   8.535   2.959
 2295W        W 6495   3.853   9.439   1.201
 2296W        W 6496   2.268   2.331  10.024
 2297W        W 6497   4.884   4.308   1.689
 2298W        W 6498   6.021   4.572   0.369
 2299W        W 6499  10.219   6.998   0.267
 2300W        W 6500   3.155   4.243   9.634
 2301W        W 6501   0.827   7.635   0.714
 2302W        W 6502   1.100   7.503   0.221
 2303W        W 6503   0.194   4.788   2.562
 2304W        W 6504   6.977   6.598  10.414
 2305W        W 6505   8.392   1.908   1.008
 2306W        W 6506   2.260   0.212   2.972
 2307W        W 6507   9.786   5.766   0.255
 2308W        W 6508   9.994  11.439   0.641
 2309W        W 6509   5.090   0.214  11.729
 2310W        W 6510   1.456   3.003  10.286
 2311W        W 6511   7.642  11.245   3.446
 2312W        W 6512   3.149  10.000   1.335
 2313W        W 6513  10.430  11.027   2.935
 2314W        W 6514   4.015   5.040   1.027
 2315W        W 6515   9.422  11.035   2.333
 2316W        W 6516   2.806   6.766  11.364
 2317W        W 6517   4.405   0.715   1.372
 2318W        W 6518   9.991   5.691  10.824
 2319W        W 6519   0.779   6.572   2.285
 2320W        W 6520   5.635   8.501   2.301
 2321W        W 6521   4.109   9.385  11.838
 2322W        W 6522   2.847   1.844  10.814
 2323W        W 6523   1.917   2.588   1.337
 2324W        W 6524   2.852   2.613   1.280
 2325W        W 6525   2.809   2.831  10.311
 2326W        W 6526  11.376   5.645   9.095
 2327W        W 6527  10.331  10.977   0.953
 2328W        W 6528   1.819   4.620   9.414
 2329W        W 6529  10.853   1.374   0.512
 2330W        W 6530   4.433   7.128   3.118
 2331W        W 6531   4.203   0.322   9.267
 2332W        W 6532   9.044   4.922   3.261
 2333W        W 6533  10.507   8.934   2.385
 2334W        W 6534   8.490   0.723   2.688
 2335W        W 6535   8.183   5.643   2.212
 2336W        W 6536  10.673   0.797   2.979
 2337W        W 6537  10.384   6.128   1.154
 2338W        W 6538   0.986   7.937  10.430
 2339W        W 6539   8.608   6.485  11.169
 2340W        W 6540   0.545   1.012  10.884
 2341W        W 6541   6.011   2.368   9.601
 2342W        W 6542   6.472   8.592  11.497
 2343W        W 6543   3.180  10.676   2.440
 2344W        W 6544  10.842   6.564  10.203
 2345W        W 6545   6.117   7.828   2.775
 2346W        W 6546   0.874   4.055  10.077
 2347W        W 6547   9.420   5.255   8.562
 2348W        W 6548   7.715  11.272   1.238
 2349W        W 6549   6.356  10.746   0.323
 2350W        W 6550   7.860   5.037   3.490
 2351W        W 6551   2.942   7.276  11.289
 2352W        W 6552   9.141   1.816   9.893
 2353W        W 6553   3.650  10.416  10.853
 2354W        W 6554   0.465  10.283   2.811
 2355W        W 6555   0.087   3.717  10.369
 2356W        W 6556   4.670  10.894  10.325
 2357W        W 6557   1.817   1.806  10.598
 2358W        W 6558   1.969   1.840   0.911
 2359W        W 6559   9.238   7.016   0.095
 2360W        W 6560   3.235   9.104  10.041
 2361W        W 6561   5.179   8.875   1.670
 2362W        W 6562   3.162  10.336   9.520
 2363W        W 6563   1.198   6.313   1.237
 2364W        W 6564  11.219   3.440   3.481
 2365W        W 6565   3.388   3.890   0.377
 2366W        W 6566   0.032   2.452   9.020
 2367W        W 6567   0.219   9.769  10.399
 2368W        W 6568   2.132   1.341   8.977
 2369W        W 6569   7.764  10.501   8.804
 2370W        W 6570   7.856   4.039   0.632
 2371W        W 6571  11.184   6.167  10.065
 2372W        W 6572   5.245   1.248   2.173
 2373W        W 6573   9.732   7.597   0.055
 2374W        W 6574   2.685   5.500   0.270
 2375W        W 6575   7.333   3.264   2.872
 2376W        W 6576   5.199   9.055   2.242
 2377W        W 6577   2.859   5.398   4.066
 2378W        W 6578   7.097   8.609   3.937
 2379W        W 6579   3.866   4.198   1.677
 2380W        W 6580  10.337   8.523   2.154
 2381W        W 6581   0.366   9.282   0.312
 2382W        W 6582  11.427   2.228   1.368
 2383W        W 6583   7.591   4.326   0.277
 2384W        W 6584   2.284   1.327   1.509
 2385W        W 6585   3.658   6.730   1.153
 2386W        W 6586   1.153  10.982   8.549
 2387W        W 6587   9.467   2.970   9.392
 2388W        W 6588   1.417  10.424   0.017
 2389W        W 6589   4.270   3.630   2.399
 2390W        W 6590   0.457   5.042  10.601
 2391W        W 6591   3.227   7.374  10.390
 2392W        W 6592   4.115   5.591   9.755
 2393W        W 6593  10.398   5.902   9.874
 2394W        W 6594   2.606   5.069   1.269
 2395W        W 6595   0.854   6.647   9.014
 2396W        W 6596   4.431   3.653  11.428
 2397W        W 6597   2.364   6.631   2.754
 2398W        W 6598   1.637   7.469   0.277
 2399W        W 6599   2.349   9.385   0.262
 2400W        W 6600   0.865   3.523   2.312
 2401W        W 6601   8.174   6.078   2.488
 2402W        W 6602   7.644  10.091   2.688
 2403W        W 6603   6.424   5.157   2.240
 2404W        W 6604   7.147   4.868   1.958
 2405W        W 6605   1.585   7.019   2.721
 2406W        W 6606   4.201   1.782   2.686
 2407W        W 6607   3.661  10.781  11.240
 2408W        W 6608   1.557   2.280   2.260
 2409W        W 6609   6.459   0.672  10.189
 2410W        W 6610   4.651   9.893   1.366
 2411W        W 6611   5.442   9.239   8.502
 2412W        W 6612   0.880   6.671   9.526
 2413W        W 6613   9.537  10.146   3.385
 2414W        W 6614   1.356   4.390  11.735
 2415W        W 6615   1.055   5.907  11.968
 2416W        W 6616   0.552   1.413   2.492
 2417W        W 6617   8.517   9.605   9.217
 2418W        W 6618   7.182   4.532   2.351
 2419W        W 6619   0.964   1.192   9.998
 2420W        W 6620   5.134   2.921   1.222
 2421W        W 6621   0.409   7.896   1.117
 2422W        W 6622   9.467   9.671  10.357
 2423W        W 6623   9.097  11.342   2.743
 2424W        W 6624  10.649   8.085   1.979
 2425W        W 6625   9.422   7.648   2.272
 2426W        W 6626   9.558   8.355   8.999
 2427W        W 6627  10.803  10.146   2.693
 2428W        W 6628   3.354   0.488   1.013
 2429W        W 6629   7.221   8.059  11.442
 2430W        W 6630   7.551   2.742   3.583
 2431W        W 6631   8.377  10.676  10.356
 2432W        W 6632   9.531   2.430   1.366
 2433W        W 6633   5.482  10.657   3.345
 2434W        W 6634  11.379   2.866   9.843
 2435W        W 6635   5.208   2.880   1.810
 2436W        W 6636   7.108   9.025   3.221
 2437W        W 6637  11.410   3.310  11.086
 2438W        W 6638   4.642   2.714   2.493
 2439W        W 6639   6.439   0.855   9.388
 2440W        W 6640   0.769  10.250   1.390
 2441W        W 6641   8.634   4.876   8.556
 2442W        W 6642   2.324   1.183   3.310
 2443W        W 6643  10.273   3.386   0.980
 2444W        W 6644   2.607   8.873   0.416
 2445W        W 6645   5.499   8.964  10.315
 2446W        W 6646   6.565   4.263   1.277
 2447W        W 6647  10.904   6.265   3.017
 2448W        W 6648   8.425   3.785  11.931
 2449W        W 6649   8.927   0.403   0.215
 2450W        W 6650   4.608   3.020   1.193
 2451W        W 6651   9.293   2.218   0.939
 2452W        W 6652   1.987   9.557   1.748
 2453W        W 6653   1.029   9.060   9.225
 2454W        W 6654   4.798   8.066  10.164
 2455W        W 6655   2.373   5.026  11.403
 2456W        W 6656   1.004   2.763   1.624
 2457W        W 6657   4.312   6.071   9.792
 2458W        W 6658   0.561   2.669   1.897
 2459W        W 6659   9.498   3.988   2.649
 2460W        W 6660   3.875   3.787  11.419
 2461W        W 6661   2.234   7.946   2.316
 2462W        W 6662   0.273   4.914  11.185
 2463W        W 6663   8.400   6.975  11.505
 2464W        W 6664   3.441   3.920   9.319
 2465W        W 6665   0.970   3.715  11.735
 2466W        W 6666   8.135   8.181  11.039
 2467W        W 6667   6.522   9.930  11.342
 2468W        W 6668   1.099   1.844   2.718
 2469W        W 6669  10.145  10.938   9.928
 2470W        W 6670   2.713   4.145   8.798
 2471W        W 6671   0.632   8.078   8.655
 2472W        W 6672   4.960   3.356   1.421
 2473W        W 6673   9.788   3.624   8.580
 2474W        W 6674   5.991   8.492  11.360
 2475W        W 6675   5.198   9.324  10.518
 2476W        W 6676  11.077   5.929  10.504
 2477W        W 6677  10.880  10.240  11.374
 2478W        W 6678   4.352   4.315   1.734
 2479W        W 6679   1.319   1.420   1.277
 2480W        W 6680   6.495   3.447   2.718
 2481W        W 6681   7.459  10.089   1.676
 2482W        W 6682   9.999   7.453   9.143
 2483W        W 6683   4.142   3.415   1.932
 2484W        W 6684   6.900   2.050   0.163
 2485W        W 6685   6.262   2.688   0.258
 2486W        W 6686  11.354   6.095  10.891
 2487W        W 6687   2.605   3.883  11.439
 2488W        W 6688   1.718   1.284   9.290
 2489W        W 6689   8.908   2.831   1.294
 2490W        W 6690   6.589   1.817   1.364
 2491W        W 6691   2.902   6.615   2.696
 2492W        W 6692   8.451   4.531  11.571
 2493W        W 6693   0.300   4.606   0.327
 2494W        W 6694   1.849  11.195   9.078
 2495W        W 6695   0.489   4.325  11.957
 2496W        W 6696  10.704   2.256  11.514
 2497W        W 6697   8.350   7.263  11.951
 2498W        W 6698   2.724   1.756   9.491
 2499W        W 6699   6.243   3.027  10.329
 2500W        W 6700  10.018   8.089   3.217
 2501W        W 6701   2.845   2.260  11.104
 2502W        W 6702   9.204  11.410   9.515
 2503W        W 6703   2.686   3.807   3.246
 2504W        W 6704   6.633   8.681   2.113
 2505W        W 6705   1.895   1.623   1.386
 2506W        W 6706   7.131  11.149  10.913
 2507W        W 6707   4.199   3.045  11.975
 2508W        W 6708   1.636  10.731   1.404
 2509W        W 6709   4.789   8.849  10.995
 2510W        W 6710   3.207   5.116  11.578
 2511W        W 6711   5.680  10.474   0.717
 2512W        W 6712   6.487   3.845  11.887
 2513W        W 6713   3.518   4.984   3.629
 2514W        W 6714   2.212  10.723   2.711
 2515W        W 6715   4.755   2.415  11.763
 2516W        W 6716   3.105   8.395   0.353
 2517W        W 6717   0.770   6.595   1.314
 2518W        W 6718  10.034  11.320   1.202
 2519W        W 6719   7.592   2.855  10.520
 2520W        W 6720   7.952  10.278   1.844
 2521W        W 6721   5.444   1.413   1.202
 2522W        W 6722   1.001   6.883   2.621
 2523W        W 6723   3.135   2.731  10.953
 2524W        W 6724   3.071   4.255  10.592
 2525W        W 6725   5.563   1.877   3.645
 2526W        W 6726  10.024   6.649   2.705
 2527W        W 6727   6.654   9.934   1.300
 2528W        W 6728   8.222   7.643  10.228
 2529W        W 6729   4.307  10.142  11.314
 2530W        W 6730   3.553   0.931   1.178
 2531W        W 6731  10.782   1.418   1.933
 2532W        W 6732   3.295   5.752   9.535
 2533W        W 6733   0.975   3.670   0.265
 2534W        W 6734   2.953   1.774   1.025
 2535W        W 6735  10.034   2.822  10.594
 2536W        W 6736   7.094   9.028   2.714
 2537W        W 6737   8.492   6.252  11.928
 2538W        W 6738   2.450   0.244   0.447
 2539W        W 6739  11.258   3.610   1.784
 2540W        W 6740  10.267   9.410   9.794
 2541W        W 6741   7.483   6.683  11.824
 2542W        W 6742   5.471   7.217   8.525
 2543W        W 6743   3.620   4.459  10.716
 2544W        W 6744   0.918   3.278   1.434
 2545W        W 6745   6.282   3.281   3.726
 2546W        W 6746   1.419   1.389  10.130
 2547W        W 6747  10.207   7.097  11.263
 2548W        W 6748   6.701   9.159   9.317
 2549W        W 6749   3.130  10.475  10.841
 2550W        W 6750   2.664   1.911   3.252
 2551W        W 6751   3.687   2.625  10.776
 2552W        W 6752   9.483   4.619  10.005
 2553W        W 6753   8.122   0.875   1.479
 2554W        W 6754   2.395   6.577  10.376
 2555W        W 6755   5.840   6.100   9.147
 2556W        W 6756   0.902   6.019   1.524
 2557W        W 6757   6.973   5.245  11.549
 2558W        W 6758  10.011   2.240   9.921
 2559W        W 6759   3.353   6.990   2.388
 2560W        W 6760   4.621   0.239   1.388
 2561W        W 6761  11.015   0.539   1.999
 2562W        W 6762  10.447   9.953   1.921
 2563W        W 6763   6.459   5.227  11.453
 2564W        W 6764   5.932  11.456  11.758
 2565W        W 6765   9.540   0.134  10.785
 2566W        W 6766   1.293   8.406   1.896
 2567W        W 6767   6.430   4.904   9.701
 2568W        W 6768   5.026   9.051   0.254
 2569W        W 6769  11.220   3.996   1.429
 2570W        W 6770  10.038   6.292   3.094
 2571W        W 6771   1.109   7.117  11.400
 2572W        W 6772   8.673  10.032   0.244
 2573W        W 6773   7.559   2.980   1.189
 2574W        W 6774   2.635   4.615   9.629
 2575W        W 6775   8.299  11.002   9.644
 2576W        W 6776   0.254   6.988   8.540
 2577W        W 6777   7.503   1.206  10.928
 2578W        W 6778   5.329  10.593  11.617
 2579W        W 6779  10.942   0.968   1.727
 2580W        W 6780  10.557   3.508  11.235
 2581W        W 6781   6.899   3.710   0.781
 2582W        W 6782   8.137   2.984   8.720
 2583W        W 6783   1.911   8.823   1.303
 2584W        W 6784   1.713   0.681   1.243
 2585W        W 6785   2.575   9.396   2.447
 2586W        W 6786  10.852   2.742   8.967
 2587W        W 6787   1.219   5.725  11.482
 2588W        W 6788   4.990   5.302   1.000
 2589W        W 6789  10.776   6.238   9.780
 2590W        W 6790  10.743   5.132  10.846
 2591W        W 6791   0.611   9.476  11.474
 2592W        W 6792   7.667   6.086   2.383
 2593W        W 6793   1.409   7.122   1.452
 2594W        W 6794   5.634   2.202  11.425
 2595W        W 6795   5.789  11.145   9.942
 2596W        W 6796   0.326   0.988   2.355
 2597W        W 6797   6.059   5.697  11.250
 2598W        W 6798   0.765   1.512   3.326
 2599W        W 6799   6.717   1.737   2.995
 2600W        W 6800   8.653   6.108   2.746
 2601W        W 6801   4.084   5.139   9.540
 2602W        W 6802   0.001   2.396  11.046
 2603W        W 6803  11.445   4.585  10.975
 2604W        W 6804   1.395   3.251   1.221
 2605W        W 6805   9.420  10.618   9.552
 2606W        W 6806   1.927   4.417   0.931
 2607W        W 6807   8.520   0.284   3.374
 2608W        W 6808   4.930   7.649   9.351
 2609W        W 6809   5.288   2.799   9.825
 2610W        W 6810   8.575   2.339  11.749
 2611W        W 6811   5.799   8.793   8.594
 2612W        W 6812   6.953   2.627   2.142
 2613W        W 6813   4.721   9.404   2.764
 2614W        W 6814   8.943   6.351   3.717
 2615W        W 6815   2.730   9.051  11.896
 2616W        W 6816  10.529   7.470   0.387
 2617W        W 6817   3.066   6.510   9.930
 2618W        W 6818  10.779   4.777   3.113
 2619W        W 6819   0.362  10.132  11.777
 2620W        W 6820   7.543   4.194   8.751
 2621W        W 6821   1.388   3.645   1.547
 2622W        W 6822  10.952   4.398   0.202
 2623W        W 6823   1.165  10.562   1.390
 2624W        W 6824   6.575   6.146   9.671
 2625W        W 6825   3.607   1.158   8.708
 2626W        W 6826   3.336   1.007  11.841
 2627W        W 6827  10.417   6.681   0.995
 2628W        W 6828   2.105   3.223   0.406
 2629W        W 6829   9.009   4.776   2.756
 2630W        W 6830   2.482   9.423   9.657
 2631W        W 6831   1.716   8.367   0.071
 2632W        W 6832   1.218   7.357   9.699
 2633W        W 6833   0.325   5.773   3.163
 2634W        W 6834  10.923   4.836   2.121
 2635W        W 6835   3.519  10.711   0.695
 2636W        W 6836   6.643   6.230   8.751
 2637W        W 6837   1.511   2.230  11.951
 2638W        W 6838   3.847   2.320   1.457
 2639W        W 6839   8.429   5.570  11.313
 2640W        W 6840   7.905   3.602  11.828
 2641W        W 6841   7.993  11.488  10.194
 2642W        W 6842   0.253   0.925   3.363
 2643W        W 6843   6.725   3.092   0.920
 2644W        W 6844   9.840  10.358   3.021
 2645W        W 6845  11.012   0.359   9.469
 2646W        W 6846   2.116   6.900   3.627
 2647W        W 6847   6.455   9.079   0.900
 2648W        W 6848   5.609   5.584  11.481
 2649W        W 6849   8.144   1.772   1.466
 2650W        W 6850   4.693   4.589   9.433
 2651W        W 6851   7.596   9.403  11.774
 2652W        W 6852   8.788   6.838   3.588
 2653W        W 6853   5.692   0.452   0.903
 2654W        W 6854  10.485   5.079   2.785
 2655W        W 6855   0.515   2.113   0.170
 2656W        W 6856   1.451   6.152  10.531
 2657W        W 6857   0.385   0.816   1.881
 2658W        W 6858   5.463   2.894   0.453
 2659W        W 6859   6.179   1.342   0.232
 2660W        W 6860   7.097   3.532  10.406
 2661W        W 6861   6.022   6.102   3.169
 2662W        W 6862   5.012   2.795   0.234
 2663W        W 6863  10.882   0.462  11.919
 2664W        W 6864  10.380   5.181   0.156
 2665W        W 6865   6.366   6.033   0.371
 2666W        W 6866  11.118   3.950  10.391
 2667W        W 6867   5.612   8.048   2.621
 2668W        W 6868   5.969   8.088   2.256
 2669W        W 6869   4.052   5.984  11.997
 2670W        W 6870   1.824   6.903  11.966
 2671W        W 6871  11.158   6.373   0.367
 2672W        W 6872   6.799   2.192   1.901
 2673W        W 6873   1.062   0.796  11.861
 2674W        W 6874   8.202   7.177  10.506
 2675W        W 6875   1.731   2.239  10.858
 2676W        W 6876   6.222   9.965   2.240
 2677W        W 6877   9.084   0.887   9.996
 2678W        W 6878   6.886   9.108  10.314
 2679W        W 6879   6.778   0.760   2.285
 2680W        W 6880   9.966   4.208  11.397
 2681W        W 6881   9.937   6.689   1.736
 2682W        W 6882   8.540  10.908  11.255
 2683W        W 6883   7.220   4.661   4.134
 2684W        W 6884  10.900   2.137  10.160
 2685W        W 6885   9.298   4.138  10.132
 2686W        W 6886   3.815   6.633   1.646
 2687W        W 6887   5.618   1.797  11.737
 2688W        W 6888   4.343   6.967   9.734
 2689W        W 6889   2.978  11.425   1.730
 2690W        W 6890   8.475   8.898  10.427
 2691W        W 6891   3.889  11.072  11.660
 2692W        W 6892   6.516   7.870  11.863
 2693W        W 6893   4.198   2.208  11.471
 2694W        W 6894   8.076   3.806  10.911
 2695W        W 6895   5.711   2.907   1.862
 2696W        W 6896   6.437   7.800   1.096
 2697W        W 6897   8.703   5.132  11.125
 2698W        W 6898   0.718   5.575   2.506
 2699W        W 6899   3.650   0.519  11.353
 2700W        W 6900   4.933  11.037  10.758
 2701W        W 6901   2.882   8.943   0.902
 2702W        W 6902   8.043   2.699  10.292
 2703W        W 6903   7.115   0.773   0.938
 2704W        W 6904   4.738   7.154   2.694
 2705W        W 6905   6.712   3.687   2.232
 2706W        W 6906  10.088   1.497  10.769
 2707W        W 6907   4.574   9.906   3.456
 2708W        W 6908   8.875   5.624   2.648
 2709W        W 6909   8.223   4.233   3.248
 2710W        W 6910   1.763   6.536  11.022
 2711W        W 6911   0.785   1.832   2.334
 2712W        W 6912   1.309   7.533  10.527
 2713W        W 6913   8.816   7.092  11.800
 2714W        W 6914   0.016   3.756   2.233
 2715W        W 6915   4.713   6.664   1.419
 2716W        W 6916   7.498   4.082   2.879
 2717W        W 6917   7.788  10.687  11.092
 2718W        W 6918   7.927   7.686   1.260
 2719W        W 6919   0.780   6.443  10.524
 2720W        W 6920   7.534   4.652   9.944
 2721W        W 6921   6.522   0.878   3.257
 2722W        W 6922   6.087   5.603   0.272
 2723W        W 6923   9.076   6.705   3.169
 2724W        W 6924   5.470   8.905   0.982
 2725W        W 6925   5.526  10.905  11.259
 2726W        W 6926   6.549  10.938   1.422
 2727W        W 6927   9.043   9.949   9.612
 2728W        W 6928   2.870   6.068   3.310
 2729W        W 6929   3.218   5.546  10.065
 2730W        W 6930   8.431   5.961   9.607
 2731W        W 6931   2.167   5.610   3.489
 2732W        W 6932   5.055   3.787   1.170
 2733W        W 6933   5.576   9.331   9.347
 2734W        W 6934   7.568  10.006   0.394
 2735W        W 6935  10.596   4.515   8.936
 2736W        W 6936   2.714   8.906   1.758
 2737W        W 6937   2.800   7.683  11.679
 2738W        W 6938  11.269  11.464  10.299
 2739W        W 6939   7.574  10.576   1.705
 2740W        W 6940   0.452   9.163   2.230
 2741W        W 6941   4.773  10.202  11.008
 2742W        W 6942   1.879   0.067  11.510
 2743W        W 6943   9.026   6.716  10.963
 2744W        W 6944   3.804   2.722   0.117
 2745W        W 6945   7.880   9.789   1.722
 2746W        W 6946  10.250   5.016  11.666
 2747W        W 6947  10.973   2.968   3.195
 2748W        W 6948   7.100   8.716  10.031
 2749W        W 6949  10.341   7.689   2.089
 2750W        W 6950   6.957   1.267  10.040
 2751W        W 6951   9.133   0.373   2.203
 2752W        W 6952   4.751  11.367   3.316
 2753W        W 6953   8.888   3.549  10.350
 2754W        W 6954  11.499   8.021   1.378
 2755W        W 6955   7.462   7.218   3.065
 2756W        W 6956   5.251  10.792   0.642
 2757W        W 6957  10.680   7.133  11.422
 2758W        W 6958   1.725   9.850   0.536
 2759W        W 6959   2.211   1.866  10.277
 2760W        W 6960   8.464   7.656   1.844
 2761W        W 6961   8.414   4.189  10.762
 2762W        W 6962   2.146   9.872   1.389
 2763W        W 6963   5.064   7.776   0.414
 2764W        W 6964   3.171  11.415  10.626
 2765W        W 6965   5.285   6.925   9.955
 2766W        W 6966   8.653   5.853   1.380
 2767W        W 6967   1.823   8.612  11.337
 2768W        W 6968   1.896   9.401   1.244
 2769W        W 6969   7.544   9.180   9.442
 2770W        W 6970   2.372   6.978   3.179
 2771W        W 6971   1.898   9.002   3.298
 2772W        W 6972   0.876   9.082   2.527
 2773W        W 6973   2.625  11.366  10.888
 2774W        W 6974   6.212  10.434  11.353
 2775W        W 6975   1.244  11.475   1.305
 2776W        W 6976   8.005   7.598   8.844
 2777W        W 6977   6.533   6.700  11.720
 2778W        W 6978   4.244   3.892   8.803
 2779W        W 6979   2.679  10.157  11.976
 2780W        W 6980   6.840   6.555   2.483
 2781W        W 6981   1.106   7.109   1.871
 2782W        W 6982   0.727   8.336   9.381
 2783W        W 6983   7.510   2.552   0.703
 2784W        W 6984   3.523  10.013   9.679
 2785W        W 6985   9.758   1.491   3.354
 2786W        W 6986   9.042   6.169   1.359
 2787W        W 6987   7.653   4.271   2.425
 2788W        W 6988   5.632   5.694   0.496
 2789W        W 6989   2.649   5.066   8.896
 2790W        W 6990  10.110  11.247   2.588
 2791W        W 6991   4.770   0.661   9.910
 2792W        W 6992   1.299   4.401  10.198
 2793W        W 6993   1.328   1.794   9.816
 2794W        W 6994   3.934   8.115   3.025
 2795W        W 6995   3.963   6.455   2.668
 2796W        W 6996  11.293   8.569   9.507
 2797W        W 6997   2.202   7.684   1.873
 2798W        W 6998   5.673   4.294  10.250
 2799W        W 6999   5.274  10.785   8.679
 2800W        W 7000  11.278   2.843  11.233
 2801W        W 7001  10.928   8.465   9.148
 2802W        W 7002   2.514   5.524   8.710
 2803W        W 7003   0.183   9.134  10.850
 2804W        W 7004   8.941   5.649   8.928
 2805W        W 7005   2.674   9.469   3.181
 2806W        W 7006   5.788   8.878  11.010
 2807W        W 7007   0.385   8.938   0.808
 2808W        W 7008   8.552   9.790  10.305
 2809W        W 7009   4.537   3.974  11.801
 2810W        W 7010   6.833   2.282  11.117
 2811W        W 7011   0.342   4.028   9.888
 2812W        W 7012   4.202   0.422   0.035
 2813W        W 7013   4.908   2.804  11.417
 2814W        W 7014   1.777   0.940  10.650
 2815W        W 7015   6.024   5.103   9.988
 2816W        W 7016   9.555   9.878   2.426
 2817W        W 7017  11.472   0.362   1.661
 2818W        W 7018   8.902   1.763   2.186
 2819W        W 7019  11.055   0.040   1.723
 2820W        W 7020   2.864   8.527  11.081
 2821W        W 7021   6.536   3.638  10.871
 2822W        W 7022  10.322   9.171  11.332
 2823W        W 7023   3.866   1.392   3.434
 2824W        W 7024   5.209   4.126  11.906
 2825W        W 7025   1.883   1.978   3.055
 2826W        W 7026   3.282   8.607  11.354
 2827W        W 7027   6.673   6.671   3.579
 2828W        W 7028   2.740   0.022   2.284
 2829W        W 7029   1.108   5.418   0.761
 2830W        W 7030   9.977   1.189  10.320
 2831W        W 7031   2.877   5.897  10.360
 2832W        W 7032   4.855   9.536   0.213
 2833W        W 7033   6.234   5.845   9.408
 2834W        W 7034   5.535   1.929   9.542
 2835W        W 7035   0.454   0.958   1.367
 2836W        W 7036   9.083   5.059   4.274
 2837W        W 7037   6.748   2.583   4.023
 2838W        W 7038   3.248   0.494   2.832
 2839W        W 7039   0.233   2.161   2.824
 2840W        W 7040   6.451  11.172   0.973
 2841W        W 7041   4.513   8.602   0.228
 2842W        W 7042   8.128  10.037   9.118
 2843W        W 7043   0.871  11.051   3.766
 2844W        W 7044  10.037  10.342  11.835
 2845W        W 7045   2.693   8.150   2.929
 2846W        W 7046   9.943   6.235   1.464
 2847W        W 7047   3.268   9.215   2.377
 2848W        W 7048   8.343   0.786   8.997
 2849W        W 7049   0.033   0.670   1.190
 2850W        W 7050   5.233  10.142  10.780
 2851W        W 7051   8.906   9.515   0.406
 2852W        W 7052   9.336   2.258  10.103
 2853W        W 7053   5.642   7.055   9.021
 2854W        W 7054   6.578   9.531   2.829
 2855W        W 7055   8.469   9.021   1.732
 2856W        W 7056   4.567   9.741  10.992
 2857W        W 7057   4.368   9.567  11.445
 2858W        W 7058   4.163  10.058   0.508
 2859W        W 7059   7.944  10.048   0.725
 2860W        W 7060   4.318   1.432  11.036
 2861W        W 7061   8.981   0.658   9.523
 2862W        W 7062   7.578  10.384   1.234
 2863W        W 7063   0.449   9.916   9.508
 2864W        W 7064  10.821   0.225   1.279
 2865W        W 7065   2.763   7.369  10.185
 2866W        W 7066   9.907   6.519   0.283
 2867W        W 7067  10.361   1.314   9.243
 2868W        W 7068   8.375   5.040  11.500
 2869W        W 7069   7.427   0.944   9.166
 2870W        W 7070   8.755   7.554  11.047
 2871W        W 7071   0.747   2.314   9.663
 2872W        W 7072   2.168   9.197   2.884
 2873W        W 7073   8.468   3.218   8.393
 2874W        W 7074   0.297   1.732  10.062
 2875W        W 7075   8.338   4.122   0.488
 2876W        W 7076   6.261   5.761   0.797
 2877W        W 7077   6.099   0.982   8.997
 2878W        W 7078   6.055   7.442   9.787
 2879W        W 7079   2.329   0.244  11.352
 2880W        W 7080   4.326   6.818   2.690
 2881W        W 7081   2.084   7.883   1.056
 2882W        W 7082   8.040   9.254   9.560
 2883W        W 7083   7.627   6.706  11.332
 2884W        W 7084  10.854  11.428   0.230
 2885W        W 7085   2.197   7.470   3.093
 2886W        W 7086   2.402   5.270   2.175
 2887W        W 7087   3.293   4.713   8.950
 2888W        W 7088   2.158   2.893   9.332
 2889W        W 7089  10.495  10.006   3.482
 2890W        W 7090   8.875   0.634   9.003
 2891W        W 7091   3.429  10.900   3.850
 2892W        W 7092   0.123   1.449   2.221
 2893W        W 7093   6.803   7.972  11.174
 2894W        W 7094   2.697  10.680  10.422
 2895W        W 7095   4.586   4.027   2.544
 2896W        W 7096   8.159   3.655   0.342
 2897W        W 7097   2.374   7.565   0.681
 2898W        W 7098   6.459   9.393  10.383
 2899W        W 7099   4.101   6.421  11.239
 2900W        W 7100  10.913   5.360  11.327
 2901W        W 7101   0.889   6.701  11.600
 2902W        W 7102   0.266   0.419   9.950
 2903W        W 7103   7.132  11.324   3.540
 2904W        W 7104   5.963   8.057  11.001
 2905W        W 7105   7.419   9.607   1.860
 2906W        W 7106   5.669  11.335   1.321
 2907W        W 7107   7.949   3.682  10.425
 2908W        W 7108   2.258   1.161   2.789
 2909W        W 7109   0.072   4.173   2.546
 2910W        W 7110   4.068   3.405   8.817
 2911W        W 7111   9.396   6.556   3.571
 2912W        W 7112   5.335  11.292   1.723
 2913W        W 7113   9.027   2.292   1.368
 2914W        W 7114   8.956   9.026   1.555
 2915W        W 7115   9.932   0.454   2.335
 2916W        W 7116   0.346   9.251   1.208
 2917W        W 7117   0.698   9.526   1.958
 2918W        W 7118   5.019   9.631   8.530
 2919W        W 7119   0.340   8.031   3.097
 2920W        W 7120   8.061   9.501   2.464
 2921W        W 7121  11.437  11.385   2.522
 2922W        W 7122   7.111   2.947   4.106
 2923W        W 7123   4.848  10.835   9.849
 2924W        W 7124   6.439   2.355  10.809
 2925W        W 7125   5.164   6.875   3.579
 2926W        W 7126   4.094  11.057  11.173
 2927W        W 7127   2.754  11.073   2.020
 2928W        W 7128  10.606   0.470   0.889
 2929W        W 7129   5.233   2.627   0.822
 2930W        W 7130   0.222   6.967   1.254
 2931W        W 7131   0.589   1.764   2.871
 2932W        W 7132   0.890   7.671   9.998
 2933W        W 7133   1.556   2.134  10.296
 2934W        W 7134   0.176   9.577   2.068
 2935W        W 7135   2.880   2.126   0.057
 2936W        W 7136   8.423   6.761  11.979
 2937W        W 7137  10.615   8.574  10.472
 2938W        W 7138   1.819   9.316  11.846
 2939W        W 7139   6.307  10.471  11.881
 2940W        W 7140   0.351   3.390   2.358
 2941W        W 7141   7.274   2.412  11.350
 2942W        W 7142   3.351   5.700   2.838
 2943W        W 7143   3.566   4.348   3.053
 2944W        W 7144  11.102   0.887  10.953
 2945W        W 7145   3.219   5.192   2.853
 2946W        W 7146   0.837   9.501  10.304
 2947W        W 7147  10.372   0.434   0.014
 2948W        W 7148   5.078  10.099   2.618
 2949W        W 7149   9.544   5.034   2.667
 2950W        W 7150   9.508   6.947   8.654
 2951W        W 7151   2.670   1.986   1.868
 2952W        W 7152   3.865   1.443   9.463
 2953W        W 7153  10.893   5.674   0.742
 2954W        W 7154   3.962  11.303   9.980
 2955W        W 7155   2.667  10.238  10.746
 2956W        W 7156   0.296   5.221   3.259
 2957W        W 7157   7.572   3.352  10.500
 2958W        W 7158   9.867   9.621   9.552
 2959W        W 7159   5.146   9.319   8.922
 2960W        W 7160   5.518   6.320  11.820
 2961W        W 7161   1.226   3.236   0.183
 2962W        W 7162   5.985   1.740   2.402
 2963W        W 7163   0.890  10.347   1.874
 2964W        W 7164   3.792   1.236   2.426
 2965W        W 7165   9.365   2.772   1.032
 2966W        W 7166   7.416   5.009   3.775
 2967W        W 7167   5.061   6.085   0.509
 2968W        W 7168   4.922  10.108   1.734
 2969W        W 7169   9.373   8.136   1.361
 2970W        W 7170   7.944   9.074   9.092
 2971W        W 7171   3.849   5.509   0.246
 2972W        W 7172   1.713   3.149  10.950
 2973W        W 7173   8.950   8.829   0.271
 2974W        W 7174   2.905  10.303   9.088
 2975W        W 7175   9.086   1.496   2.598
 2976W        W 7176   5.116   7.332   8.893
 2977W        W 7177  10.780   3.277   0.905
 2978W        W 7178   2.747   1.858   2.710
 2979W        W 7179   5.853   3.300   9.386
 2980W        W 7180  10.023   9.469   0.884
 2981W        W 7181   8.958   2.942   0.768
 2982W        W 7182   0.178   4.044  11.663
 2983W        W 7183   5.203   1.441  11.086
 2984W        W 7184   2.171   4.270   9.588
 2985W        W 7185   6.783   2.145   2.406
 2986W        W 7186   0.510   0.427  10.390
 2987W        W 7187  10.154   7.095   9.497
 2988W        W 7188   3.551   6.705   9.829
 2989W        W 7189   6.123   6.522   9.954
 2990W        W 7190   2.697   6.745   8.260
 2991W        W 7191   0.343   0.074   1.159
 2992W        W 7192   2.070   4.291   9.080
 2993W        W 7193  11.407   3.896   0.758
 2994W        W 7194   3.722   0.838   9.088
 2995W        W 7195   6.529   4.588  10.702
 2996W        W 7196   8.633  10.473   9.011
 2997W        W 7197   0.137   0.418   3.222
 2998W        W 7198   8.856   4.868  11.525
 2999W        W 7199   9.773  11.328  11.730
 3000W        W 7200   0.453   3.316   8.908
 3001W        W 7201   2.218   0.015   0.004
 3002W        W 7202  10.923   0.438   0.434
 3003W        W 7203   4.874   1.471   9.563
 3004W        W 7204   0.920   1.372   2.851
 3005W        W 7205   4.312   2.318   2.641
 3006W        W 7206   7.265   2.807   3.116
 3007W        W 7207   3.480   9.462   2.750
 3008W        W 7208   4.357   3.696  10.571
 3009W        W 7209  10.776   0.804  10.576
 3010W        W 7210   9.888   7.675   2.968
 3011W        W 7211   1.227   5.778   1.858
 3012W        W 7212   0.776   8.509  11.228
 3013W        W 7213   2.980   5.999   9.862
 3014W        W 7214   1.305   3.170   1.744
 3015W        W 7215   7.404   2.099   0.934
 3016W        W 7216   1.367   8.582   0.949
 3017W        W 7217   4.114   9.194  10.437
 3018W        W 7218   0.692   8.385   3.755
 3019W        W 7219   3.748   4.929  10.291
 3020W        W 7220   9.590   5.134  11.715
 3021W        W 7221  10.014   8.105   2.687
 3022W        W 7222   2.276   1.963   9.253
 3023W        W 7223   5.643   8.986   2.515
 3024W        W 7224   5.134   3.814  10.916
 3025W        W 7225   6.702   2.664   8.548
 3026W        W 7226   4.256   1.124  11.911
 3027W        W 7227   6.554   1.665   8.770
 3028W        W 7228   3.220   5.290  11.040
 3029W        W 7229   2.632   0.617   1.173
 3030W        W 7230   3.862   5.854   1.479
 3031W        W 7231   3.628   4.342   1.242
 3032W        W 7232   5.091   5.706  10.210
 3033W        W 7233   0.693   7.993  11.350
 3034W        W 7234   8.675   7.445  10.373
 3035W        W 7235   4.621   7.955  11.046
 3036W        W 7236  11.206  11.034   1.784
 3037W        W 7237  10.059   5.182   2.446
 3038W        W 7238   6.260   3.265   9.056
 3039W        W 7239   1.392   5.725  10.208
 3040W        W 7240   2.661   1.691  10.367
 3041W        W 7241  10.144   9.598   1.639
 3042W        W 7242   2.651   0.183  11.821
 3043W        W 7243   0.154   2.590   1.013
 3044W        W 7244   3.137   7.542   1.679
 3045W        W 7245   3.613   9.774   3.173
 3046W        W 7246   0.938  10.798  11.961
 3047W        W 7247   6.279   7.673   0.631
 3048W        W 7248   6.031   1.381   8.441
 3049W        W 7249   9.884   5.149  11.304
 3050W        W 7250   9.190   7.945   9.032
 3051W        W 7251   7.966   4.706   2.526
 3052W        W 7252   6.764   8.820  11.138
 3053W        W 7253   7.716   3.634   2.827
 3054W        W 7254   3.160  10.897  11.907
 3055W        W 7255   7.738   7.589  10.368
 3056W        W 7256  11.033  11.487   3.330
 3057W        W 7257   7.063   0.569   9.077
 3058W        W 7258   0.516  10.847  11.557
 3059W        W 7259   9.919   7.605   9.627
 3060W        W 7260   0.898   0.454   0.665
 3061W        W 7261   2.324   7.207   9.928
 3062W        W 7262   1.197   1.197   9.172
 3063W        W 7263   4.422   2.668  11.411
 3064W        W 7264   3.698  11.356   9.084
 3065W        W 7265  10.409   8.175  11.477
 3066W        W 7266  10.938   2.738   0.215
 3067W        W 7267   9.935   4.863   3.461
 3068W        W 7268   8.886   7.252   0.337
 3069W        W 7269   2.770   1.813  11.640
 3070W        W 7270   7.464  10.387   9.791
 3071W        W 7271   9.508   8.895   8.935
 3072W        W 7272   7.484   6.698   3.116
 3073W        W 7273   5.514  10.764   1.915
 3074W        W 7274   1.461   5.266  11.487
 3075W        W 7275   0.013  10.088   2.015
 3076W        W 7276   5.533   0.623  10.154
 3077W        W 7277   5.809   7.571   0.781
 3078W        W 7278   5.238   3.725   2.278
 3079W        W 7279  10.535   1.409   2.917
 3080W        W 7280   8.180   5.046  10.458
 3081W        W 7281   6.670  10.472   1.237
 3082W        W 7282   6.757   3.764  11.320
 3083W        W 7283   6.062  11.014   1.276
 3084W        W 7284   9.863   4.691  11.566
 3085W        W 7285  11.279   9.268   3.407
 3086W        W 7286   0.516   5.913  10.844
 3087W        W 7287   7.467   8.519  11.470
 3088W        W 7288   5.187   5.725   9.674
 3089W        W 7289   8.071   0.009   3.369
 3090W        W 7290   2.670  10.197  10.246
 3091W        W 7291   8.328   0.786  11.213
 3092W        W 7292   9.435   7.373   1.051
 3093W        W 7293   8.961   1.600   9.325
 3094W        W 7294   5.606   4.478   1.094
 3095W        W 7295   2.895   4.647   8.614
 3096W        W 7296   5.329  10.996   9.801
 3097W        W 7297   1.847   6.565   2.791
 3098W        W 7298   4.149  11.471   8.870
 3099W        W 7299   6.567   9.881   8.920
 3100W        W 7300   5.819   6.046  11.543
 3101W        W 7301   0.853   2.660  10.706
 3102W        W 7302   4.597   5.440   1.438
 3103W        W 7303   4.284   7.830  10.078
 3104W        W 7304   2.831   7.519   2.097
 3105W        W 7305   1.437   8.163  10.527
 3106W        W 7306   7.506   2.756   1.650
 3107W        W 7307  11.382   1.256   0.041
 3108W        W 7308   8.038   0.824   1.987
 3109W        W 7309   6.128   0.450  11.774
 3110W        W 7310   5.258  10.499   1.060
 3111W        W 7311   8.115   2.446  11.933
 3112W        W 7312   7.043   4.084   1.082
 3113W        W 7313   3.264   8.660   9.364
 3114W        W 7314   3.592   5.762  11.861
 3115W        W 7315   5.804  10.764   0.281
 3116W        W 7316   4.043   0.783  10.437
 3117W        W 7317  11.376   5.201   9.761
 3118W        W 7318   6.443   4.771  11.704
 3119W        W 7319   1.198   8.582   9.328
 3120W        W 7320   3.265   7.913   0.366
 3121W        W 7321   3.278   8.206   1.262
 3122W        W 7322   1.806  11.222  10.564
 3123W        W 7323   4.568   0.009   0.896
 3124W        W 7324   8.521  11.267   2.602
 3125W        W 7325   6.162   1.296   0.744
 3126W        W 7326   0.891   7.267   4.072
 3127W        W 7327   0.372   3.810   0.992
 3128W        W 7328   3.734   3.202  11.885
 3129W        W 7329   1.627  10.309   9.013
 3130W        W 7330   3.528  11.254   3.042
 3131W        W 7331  11.045   8.731   0.577
 3132W        W 7332   5.704   2.308   9.201
 3133W        W 7333   2.540   5.071   3.785
 3134W        W 7334   6.714  10.508   9.064
 3135W        W 7335   5.747   2.826  10.026
 3136W        W 7336   3.986   4.672   9.823
 3137W        W 7337   4.512   9.113   0.270
 3138W        W 7338   7.765   8.321   9.237
 3139W        W 7339   0.259   0.849  10.270
 3140W        W 7340  11.474   1.259   1.304
 3141W        W 7341  11.125  10.735   3.564
 3142W        W 7342   1.290  11.361  10.502
 3143W        W 7343   6.971   7.869   2.499
 3144W        W 7344   6.501   4.476   2.610
 3145W        W 7345   1.025   4.513   1.322
 3146W        W 7346   4.264  10.325   2.037
 3147W        W 7347   0.631  10.055   0.192
 3148W        W 7348   1.409   9.530  11.015
 3149W        W 7349   8.977   1.091   9.200
 3150W        W 7350   2.924   0.292   0.248
 3151W        W 7351  11.391   8.729   3.358
 3152W        W 7352  11.226   4.549   3.419
 3153W        W 7353  11.217   4.341   9.882
 3154W        W 7354   1.910   1.869   0.041
 3155W        W 7355   6.972   9.798   0.907
 3156W        W 7356   5.287   8.961  10.994
 3157W        W 7357   1.890   3.886   0.878
 3158W        W 7358  10.495   8.440  11.922
 3159W        W 7359   4.388   9.991   9.243
 3160W        W 7360   2.563   1.225   2.394
 3161W        W 7361   8.419   5.552   8.980
 3162W        W 7362   1.555  10.399   0.992
 3163W        W 7363   3.740   1.767  10.422
 3164W        W 7364   5.626   1.676   1.602
 3165W        W 7365   8.177   1.044   2.442
 3166W        W 7366  10.539   9.339   0.177
 3167W        W 7367   6.241   5.074  10.473
 3168W        W 7368   3.590  10.970   9.444
 3169W        W 7369   8.493   2.670   9.999
 3170W        W 7370   2.311   8.662   9.096
 3171W        W 7371  10.820   9.587   3.537
 3172W        W 7372   9.346   4.277   9.628
 3173W        W 7373   5.738   8.004   9.085
 3174W        W 7374   3.155   6.945   1.050
 3175W        W 7375   9.990   4.560  10.176
 3176W        W 7376   2.827   2.802   0.477
 3177W        W 7377   5.572   2.828   3.371
 3178W        W 7378   6.961   0.779  10.243
 3179W        W 7379  11.464  10.955   2.262
 3180W        W 7380   2.118   6.116  11.766
 3181W        W 7381  11.342   7.609   1.623
 3182W        W 7382   1.687   0.694   9.173
 3183W        W 7383  10.594   8.860   1.385
 3184W        W 7384   3.209   8.871   1.982
 3185W        W 7385   6.059   8.334   1.771
 3186W        W 7386   0.364  11.074   1.315
 3187W        W 7387   6.003  10.918  11.442
 3188W        W 7388   9.868   2.230  11.778
 3189W        W 7389   8.932   0.866  10.749
 3190W        W 7390   8.612   3.789   2.675
 3191W        W 7391   1.230   6.590   3.538
 3192W        W 7392   8.887   1.236   9.687
 3193W        W 7393   3.818   7.786  11.427
 3194W        W 7394   8.323   9.549   2.009
 3195W        W 7395   9.312   7.845   1.830
 3196W        W 7396   0.953   9.875   9.378
 3197W        W 7397   8.786   4.560   1.268
 3198W        W 7398   1.097  11.313  11.940
 3199W        W 7399   1.201   0.999   2.631
 3200W        W 7400   5.754   3.259   8.364
 3201W        W 7401   9.939   6.184   9.842
 3202W        W 7402   5.650   0.920   2.216
 3203W        W 7403   2.694   7.175  11.737
 3204W        W 7404   5.757  11.272   0.421
 3205W        W 7405   2.641   2.845   9.454
 3206W        W 7406   3.746   2.707   3.277
 3207W        W 7407  10.949   8.945   9.294
 3208W        W 7408   2.201  11.236   2.770
 3209W        W 7409   9.062   4.691   9.678
 3210W        W 7410   8.132   9.379   1.569
 3211W        W 7411   7.562   9.033   2.918
 3212W        W 7412   1.996   7.632   2.637
 3213W        W 7413   8.711  11.342   0.386
 3214W        W 7414   0.789   1.591  11.350
 3215W        W 7415   8.441   0.569   1.746
 3216W        W 7416   7.511   7.992   0.997
 3217W        W 7417   4.010   2.823   9.554
 3218W        W 7418   0.831   8.804   0.060
 3219W        W 7419  10.769   4.867  11.444
 3220W        W 7420  11.277   8.181   0.369
 3221W        W 7421   2.736   1.527  11.218
 3222W        W 7422   6.602   0.745   2.766
 3223W        W 7423   4.174   0.979   3.362
 3224W        W 7424  10.816  10.802  10.895
 3225W        W 7425   7.259   1.344   9.580
 3226W        W 7426  10.927   2.548   9.711
 3227W        W 7427   9.429   6.622   0.326
 3228W        W 7428   1.874   2.913   2.719
 3229W        W 7429   3.480   4.399   0.460
 3230W        W 7430   9.567   6.551   0.815
 3231W        W 7431  10.223   1.263   3.330
 3232W        W 7432   7.515   9.427  11.287
 3233W        W 7433   9.898   9.476  10.522
 3234W        W 7434   3.898  10.030   9.332
 3235W        W 7435   3.438   7.965   1.740
 3236W        W 7436  10.577   1.833   9.191
 3237W        W 7437  10.788   0.830   3.468
 3238W        W 7438   3.591   8.950   0.567
 3239W        W 7439   6.989   4.320   2.779
 3240W        W 7440   3.140   3.215   0.456
 3241W        W 7441   6.498   9.188   8.469
 3242W        W 7442   6.104   5.223  11.899
 3243W        W 7443   4.331   8.611   2.581
 3244W        W 7444   6.281  11.297   0.375
 3245W        W 7445   3.661   6.505   2.145
 3246W        W 7446   2.816   4.331   0.931
 3247W        W 7447   1.240  10.071   1.262
 3248W        W 7448  11.303  10.291   9.942
 3249W        W 7449   8.080  10.312  11.277
 3250W        W 7450   0.932   5.629   9.955
 3251W        W 7451   8.413   7.082   9.815
 3252W        W 7452   0.782   7.778  10.879
 3253W        W 7453   3.950   3.209   0.900
 3254W        W 7454   6.400   5.756  10.550
 3255W        W 7455  10.421   9.787   0.930
 3256W        W 7456   0.792   9.972   0.671
 3257W        W 7457   0.396  11.029   9.955
 3258W        W 7458   4.649   4.393  10.014
 3259W        W 7459   0.854   1.261  11.729
 3260W        W 7460  11.482   0.167   0.712
 3261W        W 7461  10.913   1.242   3.209
 3262W        W 7462   1.888  10.471   3.094
 3263W        W 7463   6.304   6.043   1.234
 3264W        W 7464   0.312  11.459  10.248
 3265W        W 7465  10.266   0.518   2.742
 3266W        W 7466   5.358  10.082   0.759
 3267W        W 7467   5.993  11.349   2.870
 3268W        W 7468   2.788   9.387   9.251
 3269W        W 7469   8.388   9.266   3.268
 3270W        W 7470   9.917   2.831   0.462
 3271W        W 7471   9.394   0.025   1.456
 3272W        W 7472   5.059  11.482   2.490
 3273W        W 7473   9.686   0.043   0.169
 3274W        W 7474   8.406   8.621   2.049
 3275W        W 7475   3.333   8.468   2.821
 3276W        W 7476   0.377   6.088   0.746
 3277W        W 7477   4.209   6.530   8.570
 3278W        W 7478   5.057   2.374   9.985
 3279W        W 7479   1.192   8.761   2.830
 3280W        W 7480   2.600   8.447   3.334
 3281W        W 7481   0.382  11.038   8.456
 3282W        W 7482   7.504   1.421   1.187
 3283W        W 7483   1.417   2.215   3.236
 3284W        W 7484   9.962   7.189   9.948
 3285W        W 7485   1.297   0.589   2.373
 3286W        W 7486   2.685   3.465   1.020
 3287W        W 7487  11.292   6.872   0.368
 3288W        W 7488   7.480   8.194   0.302
 3289W        W 7489   6.977  10.176   0.059
 3290W        W 7490   0.465   0.464   1.463
 3291W        W 7491   5.509   3.257   0.095
 3292W        W 7492   8.653   5.948  10.075
 3293W        W 7493   2.216   4.121   1.755
 3294W        W 7494   0.400   2.970  11.842
 3295W        W 7495   7.663   0.076   1.664
 3296W        W 7496   1.925   5.135   2.334
 3297W        W 7497   7.479   2.682   2.166
 3298W        W 7498   1.403   6.920   9.517
 3299W        W 7499   8.509   0.224   2.865
 3300W        W 7500   1.569   9.442   0.843
 3301W        W 7501  11.335   1.618   0.422
 3302W        W 7502   6.601   7.105   9.656
 3303W        W 7503   9.051   8.893  11.236
 3304W        W 7504   3.747   4.642   0.830
 3305W        W 7505   1.805   0.462  10.015
 3306W        W 7506   8.386   8.891   9.415
 3307W        W 7507   1.043   7.939  11.744
 3308W        W 7508   0.438   5.552  10.480
 3309W        W 7509   2.954   9.497   9.844
 3310W        W 7510  10.843   0.659   8.957
 3311W        W 7511   3.243   8.206  10.095
 3312W        W 7512   7.468   0.532   0.266
 3313W        W 7513  11.321   6.455  10.458
 3314W        W 7514   3.173   1.265   1.554
 3315W        W 7515   3.194   7.686  10.800
 3316W        W 7516   6.689   9.066   2.420
 3317W        W 7517   8.019   0.515   0.288
 3318W        W 7518   1.885   3.081   1.270
 3319W        W 7519   4.980  10.364   0.507
 3320W        W 7520  10.314   3.676   8.669
 3321W        W 7521   3.888   2.340   0.910
 3322W        W 7522   7.542   5.623   1.569
 3323W        W 7523   1.377   8.908   1.924
 3324W        W 7524   6.218  10.140   1.183
 3325W        W 7525  10.587   6.088   0.678
 3326W        W 7526   4.008   2.202   3.527
 3327W        W 7527   9.764   3.068   1.862
 3328W        W 7528   0.186   4.509   2.983
 3329W        W 7529   0.549   3.891  10.565
 3330W        W 7530   6.051  10.588   1.025
 3331W        W 7531  10.475  11.205   0.495
 3332W        W 7532  10.362  10.462   9.229
 3333W        W 7533   4.361   5.994  11.181
 3334W        W 7534   9.361   1.014   9.586
 3335W        W 7535   3.065   1.447  10.561
 3336W        W 7536   4.733   6.786   9.485
 3337W        W 7537   4.628   1.109   2.912
 3338W        W 7538  10.721   3.619   2.658
 3339W        W 7539   0.615   9.041  10.522
 3340W        W 7540   8.537   1.501   8.419
 3341W        W 7541   0.865   0.491   3.153
 3342W        W 7542   0.495   2.299   8.794
 3343W        W 7543   6.183  11.479   9.858
 3344W        W 7544   4.086   1.609   1.307
 3345W        W 7545   9.937   6.658  11.281
 3346W        W 7546   4.055   5.042   0.052
 3347W        W 7547   8.051  10.530   1.423
 3348W        W 7548   7.273   5.457   1.035
 3349W        W 7549  11.365   6.014   2.397
 3350W        W 7550   9.462   8.409   2.772
 3351W        W 7551   0.578   7.492  11.271
 3352W        W 7552   7.472   6.045   1.906
 3353W        W 7553   2.987   9.676   3.551
 3354W        W 7554   6.784   4.207   2.269
 3355W        W 7555   3.436   6.560   2.646
 3356W        W 7556   4.992   7.530   1.279
 3357W        W 7557   0.872   8.420  11.720
 3358W        W 7558   7.411   9.901  10.036
 3359W        W 7559   0.941   5.677  10.471
 3360W        W 7560   8.019   8.926   3.179
 3361W        W 7561   5.701   3.124  11.179
 3362W        W 7562  11.450   2.826   2.959
 3363W        W 7563   5.209  10.532  11.102
 3364W        W 7564   2.277   8.589   0.784
 3365W        W 7565   0.377   1.761  11.598
 3366W        W 7566   2.893   7.167  10.789
 3367W        W 7567   8.348   5.663   2.752
 3368W        W 7568   0.959   8.024   1.488
 3369W        W 7569   6.722   9.135   4.140
 3370W        W 7570   1.102  11.244   0.465
 3371W        W 7571   6.585   3.051   0.042
 3372W        W 7572   9.180   6.429   1.802
 3373W        W 7573   2.844   2.964   1.928
 3374W        W 7574   6.505   4.370   9.808
 3375W        W 7575   3.204   3.515   3.236
 3376W        W 7576   4.752   0.767  11.302
 3377W        W 7577   9.365   4.086  10.637
 3378W        W 7578   7.780   3.367   8.732
 3379W        W 7579   3.779   6.458   9.443
 3380W        W 7580  10.323   9.499  11.741
 3381W        W 7581   3.814   4.133   2.649
 3382W        W 7582   4.535   7.305   9.416
 3383W        W 7583   6.939   0.485   9.592
 3384W        W 7584   1.049   6.227   8.802
 3385W        W 7585   1.281   2.439  10.920
 3386W        W 7586   4.898   6.551  10.603
 3387W        W 7587   9.364   2.319  11.621
 3388W        W 7588  10.938   6.727   2.677
 3389W        W 7589   4.272   5.305   1.859
 3390W        W 7590   5.013   2.396   1.878
 3391W        W 7591   5.471   4.961   2.807
 3392W        W 7592   9.787   9.940  11.271
 3393W        W 7593   4.399   7.029   0.630
 3394W        W 7594   8.271   6.976   3.357
 3395W        W 7595  10.848  11.039  11.844
 3396W        W 7596  10.499   6.099   3.269
 3397W        W 7597   5.240   2.261   8.961
 3398W        W 7598   7.034   1.016   8.821
 3399W        W 7599   7.058   2.873  11.251
 3400W        W 7600   6.786   7.041  10.183
 3401W        W 7601   5.236   5.734   0.849
 3402W        W 7602  10.032   7.176  10.796
 3403W        W 7603   9.023   6.192   9.775
 3404W        W 7604   4.185   1.944   1.688
 3405W        W 7605   2.957   8.639   9.928
 3406W        W 7606   0.397   9.535   8.527
 3407W        W 7607   9.923   8.623   8.754
 3408W        W 7608   6.492   9.633   9.385
 3409W        W 7609   3.114   1.683   1.884
 3410W        W 7610   8.440   2.566   8.532
 3411W        W 7611   5.249   1.442   9.205
 3412W        W 7612   4.156   3.151   9.913
 3413W        W 7613   9.515  10.271  10.962
 3414W        W 7614   3.019   3.153  10.652
 3415W        W 7615   3.570   8.573   0.241
 3416W        W 7616   1.353   2.639   9.899
 3417W        W 7617   1.788   7.659  10.406
 3418W        W 7618   4.106   6.739  10.839
 3419W        W 7619   7.837   6.933   1.539
 3420W        W 7620   1.950   2.852   1.781
 3421W        W 7621   8.433   6.303   0.818
 3422W        W 7622   6.687  11.266   2.369
 3423W        W 7623   2.760   2.579   9.042
 3424W        W 7624   2.349   6.910   9.499
 3425W        W 7625   4.316   0.371  10.604
 3426W        W 7626   3.108  10.838   9.555
 3427W        W 7627   7.103   5.016   0.090
 3428W        W 7628  10.818   9.013   0.949
 3429W        W 7629   9.597   1.480   2.632
 3430W        W 7630   4.244   9.951   2.822
 3431W        W 7631   0.701   0.906   2.712
 3432W        W 7632   6.738  10.621   3.235
 3433W        W 7633  10.938  10.904   0.335
 3434W        W 7634  10.951   8.070   2.721
 3435W        W 7635   5.826   6.672  10.932
 3436W        W 7636   8.962   4.405  11.387
 3437W        W 7637   2.201   8.382   9.495
 3438W        W 7638   4.137   3.062   3.229
 3439W        W 7639   2.513   2.174   2.330
 3440W        W 7640   4.155   3.633  10.118
 3441W        W 7641   6.550  10.510  10.167
 3442W        W 7642   3.472   8.755   2.414
 3443W        W 7643   6.621   5.194  11.992
 3444W        W 7644   9.881   2.704   9.590
 3445W        W 7645  10.826   8.946  11.234
 3446W        W 7646   1.336   5.210   0.355
 3447W        W 7647   7.238   6.986   0.907
 3448W        W 7648   2.326   1.071   1.948
 3449W        W 7649   8.680   7.792   0.913
 3450W        W 7650   6.994   3.912  11.760
 3451W        W 7651   7.107   8.548   3.421
 3452W        W 7652   9.805   4.562   1.020
 3453W        W 7653   8.630  11.228   1.279
 3454W        W 7654   1.677   0.837   9.653
 3455W        W 7655   8.057   1.002   3.441
 3456W        W 7656   8.193  10.479  10.811
 3457W        W 7657  10.861   5.746   3.116
 3458W        W 7658   2.054   4.957   3.611
 3459W        W 7659   5.280   7.875  10.280
 3460W        W 7660   1.759   2.707   9.599
 3461W        W 7661   0.099   1.750  10.558
 3462W        W 7662   9.399   2.737   3.027
 3463W        W 7663   3.410   1.231   9.282
 3464W        W 7664   7.112   3.927   1.985
 3465W        W 7665   8.774   5.157   8.967
 3466W        W 7666   0.268   8.286   0.240
 3467W        W 7667   7.698   8.043  11.258
 3468W        W 7668   5.127   6.861   2.507
 3469W        W 7669   2.427   9.463  10.165
 3470W        W 7670   6.704   6.917  10.703
 3471W        W 7671   5.066   4.212   2.393
 3472W        W 7672   0.047   9.641  10.917
 3473W        W 7673   5.911   7.537   3.142
 3474W        W 7674  11.393   8.794   9.058
 3475W        W 7675   7.739   8.545  11.933
 3476W        W 7676   5.163   9.397   1.855
 3477W        W 7677   1.733   9.478   3.063
 3478W        W 7678   3.033   5.261   0.646
 3479W        W 7679   5.968   6.068   0.064
 3480W        W 7680  10.841   4.534   9.472
 3481W        W 7681   9.019   6.704   1.403
 3482W        W 7682   0.786  10.810   1.181
 3483W        W 7683   5.984   0.807  10.336
 3484W        W 7684  11.474   1.283  10.807
 3485W        W 7685   9.578   5.408  10.941
 3486W        W 7686   4.332   9.476   9.467
 3487W        W 7687  10.292   2.782   8.941
 3488W        W 7688   4.029   5.548   2.362
 3489W        W 7689  10.823   8.186  10.139
 3490W        W 7690   4.685   0.824   3.324
 3491W        W 7691   1.374   6.104  11.144
 3492W        W 7692   6.046   6.468  11.781
 3493W        W 7693   9.772   4.102  10.316
 3494W        W 7694   8.327   1.438   0.852
 3495W        W 7695   5.743   5.769   0.995
 3496W        W 7696   3.567   8.314   2.144
 3497W        W 7697   8.537   4.691   3.193
 3498W        W 7698   1.213   8.640   0.433
 3499W        W 7699   8.874  10.466   0.448
 3500W        W 7700   0.817   4.727   2.181
 3501W        W 7701   0.536  10.589  10.910
 3502W        W 7702  10.041   1.717   9.579
 3503W        W 7703   4.310   3.709   9.636
 3504W        W 7704   2.427   3.033   3.285
 3505W        W 7705   3.312   9.566   8.790
 3506W        W 7706   2.386   5.329  10.974
 3507W        W 7707   9.358   7.018   0.679
 3508W        W 7708   7.507   4.588   2.806
 3509W        W 7709  11.075  11.386   8.545
 3510W        W 7710   1.570   8.616   3.163
 3511W        W 7711  10.852   8.366   1.294
 3512W        W 7712   6.790   5.229   1.883
 3513W        W 7713  11.316   5.758   1.907
 3514W        W 7714   8.305  11.192  10.496
 3515W        W 7715   2.790   5.040  10.878
 3516W        W 7716   2.259   6.632  11.284
 3517W        W 7717   1.597   8.536   2.316
 3518W        W 7718   3.032  10.569   0.744
 3519W        W 7719   3.258   5.598   9.028
 3520W        W 7720   1.032  10.720  11.001
 3521W        W 7721   1.820   6.587  11.550
 3522W        W 7722   8.165   8.411   3.206
 3523W        W 7723   4.611   9.038   9.374
 3524W        W 7724  11.352   3.311   9.555
 3525W        W 7725   3.188   4.165  11.990
 3526W        W 7726   9.042   2.294   2.229
 3527W        W 7727   1.283   0.730  11.391
 3528W        W 7728   3.135   4.760   9.532
 3529W        W 7729   5.258   1.406   0.428
 3530W        W 7730   9.327   4.686   2.316
 3531W        W 7731   0.481   0.253   2.880
 3532W        W 7732   0.753   6.409  11.142
 3533W        W 7733   3.766   2.602   2.737
 3534W        W 7734   1.067  10.398   0.877
 3535W        W 7735   6.132   7.690   8.912
 3536W        W 7736   0.729   3.330  11.979
 3537W        W 7737   1.743   9.827   8.845
 3538W        W 7738   4.312   1.855   0.385
 3539W        W 7739   3.331   4.618  10.351
 3540W        W 7740  10.429  10.881   0.090
 3541W        W 7741   6.577   9.290  11.186
 3542W        W 7742   8.149   2.150  11.528
 3543W        W 7743   0.941   3.758  11.236
 3544W        W 7744   4.622   1.500  11.935
 3545W        W 7745   5.242  10.615   9.218
 3546W        W 7746   8.853  10.408   2.279
 3547W        W 7747  11.145   5.190   0.007
 3548W        W 7748   8.046  10.375   2.944
 3549W        W 7749   9.371   5.532   2.473
 3550W        W 7750   1.630   1.852  11.608
 3551W        W 7751   6.433   9.380   8.932
 3552W        W 7752   5.988  10.436  10.359
 3553W        W 7753   7.885   8.921   1.740
 3554W        W 7754  10.966   7.423   1.342
 3555W        W 7755   1.878   8.979   2.346
 3556W        W 7756   4.948   8.302  11.746
 3557W        W 7757  10.184  11.397   0.098
 3558W        W 7758   6.700  11.284   1.853
 3559W        W 7759   4.761   9.881   9.557
 3560W        W 7760   8.579  10.341  11.099
 3561W        W 7761   5.373   7.283   3.310
 3562W        W 7762   6.291   3.832   1.395
 3563W        W 7763   2.723   3.053  11.068
 3564W        W 7764  11.371   5.575   0.900
 3565W        W 7765   7.941   3.232   9.591
 3566W        W 7766   5.257  11.087   3.225
 3567W        W 7767   1.308   0.092   2.316
 3568W        W 7768   1.339   9.126   3.163
 3569W        W 7769   7.132   7.407   2.094
 3570W        W 7770   4.095   6.473  11.769
 3571W        W 7771  10.978   1.868   1.718
 3572W        W 7772   9.258   0.021   3.631
 3573W        W 7773   6.178   2.473   8.636
 3574W        W 7774   6.702   9.926   2.508
 3575W        W 7775   3.612   3.583   8.980
 3576W        W 7776   3.108  10.053   9.987
 3577W        W 7777   8.074   0.241   0.741
 3578W        W 7778   9.998  10.326   8.854
 3579W        W 7779   8.701   2.402   2.586
 3580W        W 7780   0.426   2.278   1.343
 3581W        W 7781   3.676   0.353   9.223
 3582W        W 7782  11.421  11.022   8.696
 3583W        W 7783  11.031   2.313   2.276
 3584W        W 7784   1.832   6.039  10.855
 3585W        W 7785   3.449   8.601   9.834
 3586W        W 7786   2.584   7.096   1.935
 3587W        W 7787   9.947   4.838   0.623
 3588W        W 7788   7.607   8.800   2.394
 3589W        W 7789  11.331  10.568   1.979
 3590W        W 7790   0.911   5.427   1.626
 3591W        W 7791   6.981   1.887   0.660
 3592W        W 7792   1.981   2.293  11.754
 3593W        W 7793   6.547   5.693   1.512
 3594W        W 7794   9.121   3.449  11.213
 3595W        W 7795   3.502   7.488   2.618
 3596W        W 7796   3.589   7.076  10.184
 3597W        W 7797   7.271   6.225  11.008
 3598W        W 7798   4.009   9.358   8.540
 3599W        W 7799   6.145   2.829   0.735
 3600W        W 7800   9.545   9.056  11.762
 3601W        W 7801   2.403   9.160   8.980
 3602W        W 7802   9.205   5.790   3.031
 3603W        W 7803   4.991   6.657  11.234
 3604W        W 7804   4.255   4.725  11.244
 3605W        W 7805   5.349   8.853  11.912
 3606W        W 7806   3.232   7.916   2.228
 3607W        W 7807   8.452   1.805   0.508
 3608W        W 7808  11.377   7.832   3.033
 3609W        W 7809   0.989   8.266  10.822
 3610W        W 7810   1.132   4.268  11.280
 3611W        W 7811   6.101   5.283   9.477
 3612W        W 7812   6.679  10.211   0.812
 3613W        W 7813   6.804   0.296  10.064
 3614W        W 7814   5.627   4.066   9.817
 3615W        W 7815   4.612   1.615   2.946
 3616W        W 7816   8.069   8.133   0.994
 3617W        W 7817   1.903  10.313   0.225
 3618W        W 7818   1.314   2.704   9.325
 3619W        W 7819   6.490   2.626   2.339
 3620W        W 7820   4.120   7.558   9.644
 3621W        W 7821   2.299   5.559  10.434
 3622W        W 7822   9.547   8.263  10.736
 3623W        W 7823   1.898   6.981   9.266
 3624W        W 7824   9.970   0.866   0.568
 3625W        W 7825   6.148   8.560   2.246
 3626W        W 7826  11.311   1.102   0.529
 3627W        W 7827   7.490   7.674   0.241
 3628W        W 7828  11.069   6.166   0.865
 3629W        W 7829   2.131   9.003   0.515
 3630W        W 7830   8.397   6.884   2.311
 3631W        W 7831   3.248   4.697   2.096
 3632W        W 7832  10.959   1.390   1.443
 3633W        W 7833   4.673   1.914   0.914
 3634W        W 7834   5.645   0.634   1.790
 3635W        W 7835   3.198   7.577   3.042
 3636W        W 7836   1.066   7.631  11.330
 3637W        W 7837  10.027   9.951   3.250
 3638W        W 7838   5.762   2.213   2.338
 3639W        W 7839   9.046  10.816   1.542
 3640W        W 7840   6.547   8.177   2.902
 3641W        W 7841   1.830  10.410  10.732
 3642W        W 7842   9.945   8.752   0.085
 3643W        W 7843   1.736   4.245   9.923
 3644W        W 7844   4.252   8.479   0.947
 3645W        W 7845   9.847   5.667  11.311
 3646W        W 7846   0.177   1.716   0.054
 3647W        W 7847   3.689  10.468   9.470
 3648W        W 7848   8.518  10.864   0.433
 3649W        W 7849   5.018   3.878   9.210
 3650W        W 7850   8.056   0.055   2.441
 3651W        W 7851   5.452   7.450   0.373
 3652W        W 7852  10.437   0.838  10.952
 3653W        W 7853   8.218   1.904   0.067
 3654W        W 7854   0.689   0.057  11.059
 3655W        W 7855   8.075  10.314   3.451
 3656W        W 7856   8.565   6.619   3.134
 3657W        W 7857  10.971   8.573  10.893
 3658W        W 7858   1.335   0.275   2.815
 3659W        W 7859   5.040   5.241  10.440
 3660W        W 7860   8.538   4.631  11.089
 3661W        W 7861   2.316   5.216   2.678
 3662W        W 7862   9.336   2.367   9.129
 3663W        W 7863   4.037   1.238   9.033
 3664W        W 7864   2.614   6.555   2.287
 3665W        W 7865   7.294   7.966  10.952
 3666W        W 7866   5.103   3.880   2.758
 3667W        W 7867   4.487   9.883   1.875
 3668W        W 7868   8.355  11.449   9.244
 3669W        W 7869   8.478   0.312   8.913
 3670W        W 7870   0.924   2.296   1.427
 3671W        W 7871   2.881  10.530   9.921
 3672W        W 7872   5.111   3.258   0.459
 3673W        W 7873   9.630   3.483   9.407
 3674W        W 7874  10.059   7.184   2.819
 3675W        W 7875  10.605   2.669  11.843
 3676W        W 7876   5.065   3.065   3.188
 3677W        W 7877   6.328   6.592  10.844
 3678W        W 7878   0.356  10.830   0.878
 3679W        W 7879  11.395   3.075   0.072
 3680W        W 7880   1.260   0.358   9.106
 3681W        W 7881  11.225   2.342   1.815
 3682W        W 7882   3.773   5.224   2.055
 3683W        W 7883   2.382   3.114   1.761
 3684W        W 7884   4.300   9.254  10.941
 3685W        W 7885   6.015   5.308  10.875
 3686W        W 7886   5.712   1.394   3.518
 3687W        W 7887   3.311   8.664  10.846
 3688W        W 7888   8.726   5.146   1.958
 3689W        W 7889   6.286   3.990  10.608
 3690W        W 7890   2.344  10.374   1.329
 3691W        W 7891   4.907   4.091   3.162
 3692W        W 7892   8.147  10.751   0.070
 3693W        W 7893   7.293   2.129  10.903
 3694W        W 7894   2.832  11.030   9.943
 3695W        W 7895   6.530   5.672   2.010
 3696W        W 7896   7.082   7.565  11.329
 3697W        W 7897   4.366   6.014   1.536
 3698W        W 7898   9.718   0.112   3.370
 3699W        W 7899   4.191   9.012   1.756
 3700W        W 7900   9.498   4.519   2.784
 3701W        W 7901   3.386   2.268  11.006
 3702W        W 7902   6.136   5.623   9.881
 3703W        W 7903   2.379   7.970  11.512
 3704W        W 7904   2.275   5.677  11.962
 3705W        W 7905   0.361   6.582   9.179
 3706W        W 7906   9.964   1.036  11.023
 3707W        W 7907   0.442  11.353   1.768
 3708W        W 7908  11.376   2.672  10.349
 3709W        W 7909   8.011   6.672   3.751
 3710W        W 7910   2.671   6.654  10.817
 3711W        W 7911   3.160   5.908   2.016
 3712W        W 7912   5.720   6.644   1.660
 3713W        W 7913  11.405   9.067   2.923
 3714W        W 7914   1.114   2.957  11.768
 3715W        W 7915  11.048   7.951   9.342
 3716W        W 7916   5.664   9.432   1.720
 3717W        W 7917   3.835   2.458  11.232
 3718W        W 7918   9.578   5.213   0.732
 3719W        W 7919   8.534   7.437   1.369
 3720W        W 7920   9.519   3.270  11.564
 3721W        W 7921   2.298   3.582  10.522
 3722W        W 7922   9.713   9.589   3.425
 3723W        W 7923   8.590  11.307  10.920
 3724W        W 7924   7.110   2.660  10.321
 3725W        W 7925   3.139   6.186   2.869
 3726W        W 7926   1.129   0.896   0.427
 3727W        W 7927   8.544   5.659   1.852
 3728W        W 7928  10.068   6.137   2.603
 3729W        W 7929   4.162   7.738  10.981
 3730W        W 7930  10.431  11.493   0.922
 3731W        W 7931   0.121   2.635   8.517
 3732W        W 7932   6.126   2.781  11.308
 3733W        W 7933   4.254   0.064   0.446
 3734W        W 7934   6.263   6.903   1.221
 3735W        W 7935   6.069   4.821   1.785
 3736W        W 7936   7.770   5.567   1.117
 3737W        W 7937   7.287   9.380   0.984
 3738W        W 7938   5.166   9.198   0.722
 3739W        W 7939   1.896  10.052   1.832
 3740W        W 7940   5.286   4.649  10.277
 3741W        W 7941   4.301   3.803   0.232
 3742W        W 7942   3.088   2.570   9.464
 3743W        W 7943   6.906   4.707   9.854
 3744W        W 7944   5.045   9.678   0.697
 3745W        W 7945   5.187   0.873   3.018
 3746W        W 7946   9.387   3.560   2.913
 3747W        W 7947   0.280   6.335  10.670
 3748W        W 7948   0.800  11.279   1.425
 3749W        W 7949   3.264   4.239  11.054
 3750W        W 7950   4.042   0.308  10.168
 3751W        W 7951   0.466   5.762   1.562
 3752W        W 7952  10.835   3.228   0.019
 3753W        W 7953   8.141   8.184   2.752
 3754W        W 7954   6.233   8.310  11.841
 3755W        W 7955   9.089   6.508   9.372
 3756W        W 7956   2.159   3.882   2.647
 3757W        W 7957   3.557  10.880   1.250
 3758W        W 7958   9.634   1.903   9.828
 3759W        W 7959   8.301   4.314   2.437
 3760W        W 7960   9.480  10.778   1.860
 3761W        W 7961   9.535   8.545  11.785
 3762W        W 7962   3.306   1.944   0.289
 3763W        W 7963   3.870   9.083   2.527
 3764W        W 7964   9.272   1.376   3.071
 3765W        W 7965   6.117   0.312  10.250
 3766W        W 7966   7.621   4.611  10.964
 3767W        W 7967  10.845  11.060   0.826
 3768W        W 7968   6.052   8.120   0.717
 3769W        W 7969   6.671   4.669  11.219
 3770W        W 7970   2.213   4.251  10.094
 3771W        W 7971   8.511   3.631   9.971
 3772W        W 7972   0.750   9.789   1.161
 3773W        W 7973   3.031   0.436   2.366
 3774W        W 7974   8.431   3.622  10.545
 3775W        W 7975   2.911   5.142   2.080
 3776W        W 7976   6.091   4.115   9.132
 3777W        W 7977   9.273   5.410   3.424
 3778W        W 7978   2.575   5.679   3.106
 3779W        W 7979   6.905  10.679   8.615
 3780W        W 7980   4.183   5.639  10.251
 3781W        W 7981   6.672   3.140   2.330
 3782W        W 7982   0.805  11.236   9.496
 3783W        W 7983   0.283   7.489   8.787
 3784W        W 7984   8.015   1.898   2.434
 3785W        W 7985   9.788   7.899   0.470
 3786W        W 7986   9.835   6.015   9.379
 3787W        W 7987   3.357   3.326  11.565
 3788W        W 7988   5.626   0.899   2.739
 3789W        W 7989  10.928   9.925   3.145
 3790W        W 7990   2.178   8.204   8.733
 3791W        W 7991   8.590  10.085   9.371
 3792W        W 7992   1.824   5.968   9.097
 3793W        W 7993  11.275   7.493   2.113
 3794W        W 7994  10.067   5.342   1.506
 3795W        W 7995   7.946   8.177   9.704
 3796W        W 7996   8.021   1.933   8.939
 3797W        W 7997   9.829   0.914   2.541
 3798W        W 7998   5.693   9.897   0.424
 3799W        W 7999  10.793   2.729  11.283
 3800W        W 8000   9.784   1.528  11.790
 3801W        W 8001   8.994   2.976  11.093
 3802W        W 8002   3.410   5.676   0.575
 3803W        W 8003   0.694   1.193   9.061
 3804W        W 8004   2.556   2.226  10.447
 3805W        W 8005   1.847   3.591   1.313
 3806W        W 8006   3.651   7.855   9.570
 3807W        W 8007   7.892   7.402  10.827
 3808W        W 8008   5.230   3.499  10.529
 3809W        W 8009   4.718  10.035  10.534
 3810W        W 8010   7.959   3.819   9.065
 3811W        W 8011   3.614   8.602   1.219
 3812W        W 8012   6.675   7.467   2.318
 3813W        W 8013   7.592   7.548  11.229
 3814W        W 8014   3.145  10.463  10.340
 3815W        W 8015   0.632   2.785   1.237
 3816W        W 8016   9.801   2.364  10.390
 3817W        W 8017   8.486   9.378  11.136
 3818W        W 8018   8.519  10.566   9.508
 3819W        W 8019   4.461  11.344  10.114
 3820W        W 8020  11.210   9.146  11.530
 3821W        W 8021   1.611   9.358   3.524
 3822W        W 8022   8.103   5.445   8.216
 3823W        W 8023   2.013   8.882   9.549
 3824W        W 8024   8.760   5.331   3.368
 3825W        W 8025   8.437   8.188   1.786
 3826W        W 8026  10.950   1.233   9.664
 3827W        W 8027   9.101   8.097   2.431
 3828W        W 8028   3.997  10.012   1.733
 3829W        W 8029   8.192   5.504   9.467
 3830W        W 8030  10.694   2.307   1.877
 3831W        W 8031   7.385   4.469   1.226
 3832W        W 8032   9.467   6.968  10.834
 3833W        W 8033   0.456   6.863   2.563
 3834W        W 8034  10.378   6.553   0.478
 3835W        W 8035   1.776   4.107  11.827
 3836W        W 8036   4.668   4.100  10.897
 3837W        W 8037   0.573   5.005   3.676
 3838W        W 8038   1.840  10.265   1.371
 3839W        W 8039   7.225  11.430   0.341
 3840W        W 8040   6.292   6.992  10.048
 3841W        W 8041   9.987   9.762   8.776
 3842W        W 8042   2.482  10.506   1.804
 3843W        W 8043   8.919   2.968   0.176
 3844W        W 8044   9.412   0.384   9.352
 3845W        W 8045  10.281   1.290   1.993
 3846W        W 8046   0.800   3.494  10.823
 3847W        W 8047   6.941   1.514   2.598
 3848W        W 8048   8.433  10.518  11.564
 3849W        W 8049  11.000  10.327  10.864
 3850W        W 8050   9.499   1.917  11.946
 3851W        W 8051   3.506   3.338   2.345
 3852W        W 8052  10.011   0.384   0.364
 3853W        W 8053   3.790   8.978  11.986
 3854W        W 8054   8.984  10.359   1.354
 3855W        W 8055   3.780   0.254   0.297
 3856W        W 8056   2.306   1.414  10.037
 3857W        W 8057   9.413   3.629  10.324
 3858W        W 8058   6.972   9.488   9.566
 3859W        W 8059   8.589   5.116   4.122
 3860W        W 8060  10.139   0.808   1.479
 3861W        W 8061   1.421   1.448   2.701
 3862W        W 8062   0.808   9.389   1.479
 3863W        W 8063   7.299  10.941   0.699
 3864W        W 8064   6.452   2.299   2.751
 3865W        W 8065   9.575   1.821   3.013
 3866W        W 8066   4.983   3.371   1.931
 3867W        W 8067   2.464   1.359  11.643
 3868W        W 8068   7.183   3.472   2.210
 3869W        W 8069   8.506  10.958   9.172
 3870W        W 8070  10.426  10.951  10.594
 3871W        W 8071   9.819   3.569   1.826
 3872W        W 8072  11.422   6.678   8.902
 3873W        W 8073   0.302   9.674   3.646
 3874W        W 8074   3.560   5.418   1.369
 3875W        W 8075   6.004   1.859   9.343
 3876W        W 8076   4.713   4.309   0.922
 3877W        W 8077   6.040   1.750   0.515
 3878W        W 8078   3.129   3.450   9.145
 3879W        W 8079   6.085   7.448  10.778
 3880W        W 8080   4.492   8.891  10.580
 3881W        W 8081  10.953   9.405   0.499
 3882W        W 8082   5.119   4.672   0.703
 3883W        W 8083   4.461   8.727   9.000
 3884W        W 8084   5.775   1.857   3.174
 3885W        W 8085  10.320  10.141  11.442
 3886W        W 8086   5.736   4.377   9.415
 3887W        W 8087   9.511   7.391   8.996
 3888W        W 8088   4.769   0.688  10.769
 3889W        W 8089   4.278   4.226   9.539
 3890W        W 8090   7.223   1.825   2.955
 3891W        W 8091   1.339  10.435  11.504
 3892W        W 8092   4.471   1.255   1.301
 3893W        W 8093   4.800   3.622   9.590
 3894W        W 8094   3.377   7.129   3.274
 3895W        W 8095   9.027  10.732  11.725
 3896W        W 8096  11.238   5.775  11.340
 3897W        W 8097   4.805  10.654   0.886
 3898W        W 8098  11.317   0.164   0.203
 3899W        W 8099   4.176   9.881   9.747
 3900W        W 8100   3.600   8.083   2.610
 3901W        W 8101   3.134   9.906  11.995
 3902W        W 8102   2.699   9.072   9.935
 3903W        W 8103   9.445   9.289  10.749
 3904W        W 8104   5.529   4.702   0.164
 3905W        W 8105   8.466   0.504  11.966
 3906W        W 8106  10.896  11.250  11.376
 3907W        W 8107   8.855   5.861  11.460
 3908W        W 8108   9.548   3.627  10.847
 3909W        W 8109   6.338   5.228   2.741
 3910W        W 8110   5.211  10.136   9.430
 3911W        W 8111   0.468   3.306   0.878
 3912W        W 8112  11.409   1.340   3.129
 3913W        W 8113   8.349   1.252  10.558
 3914W        W 8114   4.922  10.849  11.771
 3915W        W 8115   1.764   0.187   9.146
 3916W        W 8116   4.632   8.422  10.730
 3917W        W 8117   5.606  11.289  10.782
 3918W        W 8118   8.550   1.750   2.563
 3919W        W 8119   6.387   7.300   0.954
 3920W        W 8120   0.235   9.021   8.738
 3921W        W 8121  10.508   2.254   2.353
 3922W        W 8122   4.216   9.464   1.998
 3923W        W 8123  10.376   8.521   2.668
 3924W        W 8124  11.319   3.828   9.945
 3925W        W 8125   7.154   0.328  11.586
 3926W        W 8126   2.255   5.755   1.967
 3927W        W 8127   0.455   3.656   1.932
 3928W        W 8128   8.050   2.218   1.250
 3929W        W 8129   7.226   7.836   9.950
 3930W        W 8130   2.743   7.978   2.345
 3931W        W 8131   7.412   5.233   2.248
 3932W        W 8132   8.432   6.429   3.587
 3933W        W 8133   7.645   5.079   2.696
 3934W        W 8134   9.662  10.254   2.047
 3935W        W 8135   5.981   7.827   1.832
 3936W        W 8136  10.442  11.464  10.757
 3937W        W 8137   5.657   1.721  11.186
 3938W        W 8138   7.212   5.195   1.570
 3939W        W 8139   8.573   1.840  11.737
 3940W        W 8140   3.277   2.708   1.840
 3941W        W 8141   0.508   4.340  10.322
 3942W        W 8142   1.229  11.038   1.567
 3943W        W 8143   3.892   4.102   0.357
 3944W        W 8144   9.462   4.773   8.325
 3945W        W 8145   9.037   4.755  11.041
 3946W        W 8146   7.672   1.023   2.490
 3947W        W 8147   4.497  10.845   8.484
 3948W        W 8148   7.200   8.427   0.916
 3949W        W 8149   7.558   8.334   3.215
 3950W        W 8150   5.425   7.752   3.077
 3951W        W 8151   6.285  11.350  11.400
 3952W        W 8152   3.792   2.788   1.682
 3953W        W 8153   7.523   3.104  11.847
 3954W        W 8154   3.257   1.819   1.409
 3955W        W 8155   7.945   3.163   1.645
 3956W        W 8156   1.972   9.446  10.392
 3957W        W 8157   1.032   5.574  10.973
 3958W        W 8158   9.326   2.863   2.079
 3959W        W 8159   2.702   7.570   3.183
 3960W        W 8160   8.458   4.297   0.009
 3961W        W 8161   7.186   7.340   1.599
 3962W        W 8162   7.143   4.567   3.633
 3963W        W 8163   6.663   3.085   1.808
 3964W        W 8164   4.175   3.849   2.860
 3965W        W 8165   4.263   8.848  10.102
 3966W        W 8166   7.871   4.452  11.721
 3967W        W 8167   2.186   7.434  10.868
 3968W        W 8168   9.531   4.603  11.935
 3969W        W 8169   2.117   6.146   2.890
 3970W        W 8170   1.352   8.682  10.600
 3971W        W 8171   8.322   5.085   9.170
 3972W        W 8172   4.791  10.405   1.342
 3973W        W 8173   6.066   3.208   9.885
 3974W        W 8174   9.048   5.578   1.621
 3975W        W 8175   8.476   7.135   1.862
 3976W        W 8176   9.057   4.697   0.347
 3977W        W 8177   5.856   2.628  10.479
 3978W        W 8178   2.085   5.640   2.963
 3979W        W 8179   1.793   8.807  11.794
 3980W        W 8180  11.434   9.023   0.453
 3981W        W 8181   0.736   7.736   2.940
 3982W        W 8182   5.136   9.977   9.925
 3983W        W 8183   8.627   9.300  10.125
 3984W        W 8184   4.799   0.738   9.002
 3985W        W 8185   7.699   2.192   9.246
 3986W        W 8186   4.835   0.830   0.624
 3987W        W 8187   7.647  11.194  11.064
 3988W        W 8188   2.365   3.820   2.188
 3989W        W 8189   8.108   7.201   1.185
 3990W        W 8190   6.740   4.994   0.549
 3991W        W 8191   6.648  10.884   2.763
 3992W        W 8192   1.300   3.777   2.471
 3993W        W 8193   0.721   5.722   0.665
 3994W        W 8194   4.702   1.732   8.924
 3995W        W 8195   8.966   9.548   2.721
 3996W        W 8196   2.032   0.489  10.533
 3997W        W 8197   6.579   1.253   9.089
 3998W        W 8198   6.135   6.938  11.979
 3999W        W 8199   8.914   7.748   0.441
 4000W        W 8200   5.279   8.036   0.042
 4001W        W 8201   2.195   0.901   1.210
 4002W        W 8202   9.476   4.614   3.322
 4003W        W 8203  10.412   0.548   9.714
 4004W        W 8204   7.415   9.266   2.363
 4005W        W 8205  11.277   1.743   1.251
 4006W        W 8206   7.620   8.465  10.986
 4007W        W 8207   1.938  10.800   2.279
 4008W        W 8208   4.358   9.552   3.134
 4009W        W 8209   4.232   2.843   2.773
 4010W        W 8210   9.624   5.989   2.353
 4011W        W 8211   7.970   3.755   9.927
 4012W        W 8212   3.319   5.426   1.932
 4013W        W 8213   4.650   4.363   2.143
 4014W        W 8214   5.919   4.053   3.069
 4015W        W 8215   7.193  10.966   2.771
 4016W        W 8216   9.318   4.617   1.352
 4017W        W 8217   2.650   7.604  10.711
 4018W        W 8218  10.715   2.182  10.630
 4019W        W 8219   1.316   2.279   0.439
 4020W        W 8220   6.093   6.432   0.963
 4021W        W 8221   3.357   1.381   3.330
 4022W        W 8222   6.605   6.966   3.999
 4023W        W 8223   5.703   8.211  10.342
 4024W        W 8224   1.326   5.181   3.330
 4025W        W 8225   2.886   9.265   8.749
 4026W        W 8226   8.238   5.669   3.330
 4027W        W 8227   0.381   2.886   3.377
 4028W        W 8228   2.930   0.800   1.700
 4029W        W 8229   5.774  10.984   8.628
 4030W        W 8230   5.937   1.304  11.296
 4031W        W 8231   6.433   6.142   1.761
 4032W        W 8232   1.269   0.809   8.855
 4033W        W 8233   9.527   4.148   0.855
 4034W        W 8234   3.874   6.889   2.418
 4035W        W 8235   4.309   8.520   9.457
 4036W        W 8236   4.607   8.038   0.494
 4037W        W 8237   3.013   5.109   0.044
 4038W        W 8238   9.381   1.376   9.082
 4039W        W 8239   6.891  10.592   0.509
 4040W        W 8240   5.693   1.161   1.704
 4041W        W 8241  11.319   6.640   1.786
 4042W        W 8242   4.042  10.568   3.537
 4043W        W 8243   3.740   0.271  11.794
 4044W        W 8244   4.037   8.506   0.015
 4045W        W 8245   2.490   0.557   9.653
 4046W        W 8246   2.734  11.394   9.024
 4047W        W 8247   1.788   3.619  11.205
 4048W        W 8248   3.656   6.419   8.581
 4049W        W 8249   1.205   1.877   1.530
 4050W        W 8250  11.302   7.487  10.053
 4051W        W 8251   6.743   7.862   8.264
 4052W        W 8252   0.414  11.262  10.733
 4053W        W 8253   8.772   7.585  11.966
 4054W        W 8254   5.524   3.028  10.686
 4055W        W 8255   6.643   1.876  10.862
 4056W        W 8256  11.278   5.143   9.250
 4057W        W 8257   8.092   9.317  11.937
 4058W        W 8258   7.453   0.528   9.491
 4059W        W 8259   3.245   4.631   0.933
 4060W        W 8260   7.684   9.994   9.518
 4061W        W 8261   4.018   8.455   9.045
 4062W        W 8262   1.763  11.170   0.490
 4063W        W 8263   9.455  11.049   8.717
 4064W        W 8264   0.550   6.191   1.884
 4065W        W 8265   5.017   3.817   1.690
 4066W        W 8266   5.531   5.197  11.861
 4067W        W 8267   2.144   8.409  11.747
 4068W        W 8268   2.355   3.407   8.645
 4069W        W 8269  10.780   5.525  10.468
 4070W        W 8270   4.003   0.934   9.515
 4071W        W 8271   7.612   3.755   1.661
 4072W        W 8272   4.733   9.114  10.190
 4073W        W 8273  10.807   3.900   0.069
 4074W        W 8274   7.949  11.190  11.883
 4075W        W 8275   5.634   0.230  10.490
 4076W        W 8276   3.072   5.124   9.179
 4077W        W 8277   6.769  10.631   0.016
 4078W        W 8278   2.222   9.856  11.830
 4079W        W 8279   4.004   3.159   2.382
 4080W        W 8280   3.236   6.353   4.018
 4081W        W 8281   7.540   0.076   2.659
 4082W        W 8282   3.091  10.009  10.538
 4083W        W 8283   2.962  10.616   1.944
 4084W        W 8284   6.820   1.965   8.414
 4085W        W 8285   8.466   7.493  11.504
 4086W        W 8286   9.541   4.592   8.797
 4087W        W 8287   6.315   8.051  11.390
 4088W        W 8288   1.037   6.277   1.935
 4089W        W 8289  11.005   1.812  11.418
 4090W        W 8290   2.647   7.500   9.390
 4091W        W 8291   8.317   7.766  11.956
 4092W        W 8292   9.532   4.900   0.337
 4093W        W 8293   0.041   2.882  10.794
 4094W        W 8294   6.727  10.290  10.581
 4095W        W 8295   3.772   3.874   8.585
 4096W        W 8296   5.755   8.855   9.439
 4097W        W 8297   3.526   5.360   3.242
 4098W        W 8298   6.634   6.820  11.198
 4099W        W 8299   0.559   9.484   0.775
 4100W        W 8300   3.664   1.724   3.088
 4101W        W 8301   0.553   3.833   0.002
 4102W        W 8302   9.767   1.935  10.862
 4103W        W 8303   5.683   2.172   0.084
 4104W        W 8304   6.494   6.669   2.853
 4105W        W 8305   2.323   4.810  11.866
 4106W        W 8306   0.789   8.485   1.765
 4107W        W 8307  11.079  10.575  11.806
 4108W        W 8308   5.008   4.735   9.848
 4109W        W 8309   3.002   0.787   8.575
 4110W        W 8310   4.483   4.837   9.824
 4111W        W 8311   0.538   7.452   3.742
 4112W        W 8312  10.881   9.524   0.975
 4113W        W 8313   9.820   9.504  11.016
 4114W        W 8314   3.954   0.005   3.219
 4115W        W 8315   9.620   5.952  10.489
 4116W        W 8316   1.956   0.818   1.699
 4117W        W 8317  11.230   2.752   2.431
 4118W        W 8318   3.188   6.663   3.116
 4119W        W 8319   9.940   7.666  10.122
 4120W        W 8320   6.839  11.194   8.588
 4121W        W 8321   2.192   1.374   0.993
 4122W        W 8322   5.277   0.977   1.411
 4123W        W 8323   0.370  10.577   1.408
 4124W        W 8324   8.461   6.190   8.660
 4125W        W 8325  10.845  10.312   8.985
 4126W        W 8326   1.743   8.505   9.264
 4127W        W 8327  10.846   7.875   0.463
 4128W        W 8328   0.060   6.215   1.959
 4129W        W 8329  11.435   7.623   9.578
 4130W        W 8330  10.009   8.491  11.229
 4131W        W 8331  11.350   4.105  11.240
 4132W        W 8332  11.476  10.077   2.826
 4133W        W 8333   6.045   3.763  10.983
 4134W        W 8334   9.808   4.104  10.909
 4135W        W 8335  10.980   6.823  10.621
 4136W        W 8336   2.432  10.512   9.156
 4137W        W 8337   4.332   4.310   0.147
 4138W        W 8338   2.781   0.748  10.993
 4139W        W 8339   6.563   1.252   2.864
 4140W        W 8340   9.406   4.071   8.554
 4141W        W 8341   6.743   2.733   3.164
 4142W        W 8342   6.579  11.044   9.838
 4143W        W 8343   8.802  11.021   0.829
 4144W        W 8344   0.162   2.659  11.519
 4145W        W 8345   6.810   0.829   0.261
 4146W        W 8346   0.314   4.364  11.267
 4147W        W 8347   1.072   4.955   1.811
 4148W        W 8348   6.712  10.348  11.599
 4149W        W 8349   4.022   4.606   0.401
 4150W        W 8350   0.954   3.341   8.868
 4151W        W 8351   0.848  10.832   0.674
 4152W        W 8352   8.214   6.663   1.843
 4153W        W 8353   1.765   9.876   1.041
 4154W        W 8354   7.720   9.592   0.788
 4155W        W 8355  10.095   1.761   0.629
 4156W        W 8356   7.589   3.999   1.162
 4157W        W 8357   9.521   6.209   0.032
 4158W        W 8358   2.823  10.840   9.112
 4159W        W 8359   1.652   4.318  11.306
 4160W        W 8360   7.025   3.226   3.293
 4161W        W 8361   3.653   6.105   2.859
 4162W        W 8362   9.412  11.211   3.248
 4163W        W 8363  10.698   7.116   9.484
 4164W        W 8364   8.154  10.978  10.916
 4165W        W 8365   5.626   7.661   3.562
 4166W        W 8366   3.008   6.495   3.574
 4167W        W 8367  10.514   6.150   0.171
 4168W        W 8368   2.677   3.447   2.011
 4169W        W 8369   6.577   1.848  11.392
 4170W        W 8370  11.283   8.934  10.607
 4171W        W 8371   8.773   6.979   9.039
 4172W        W 8372  10.666  10.327   2.194
 4173W        W 8373   9.968   9.009   3.204
 4174W        W 8374   2.788   6.132  10.841
 4175W        W 8375   9.837   1.065  11.595
 4176W        W 8376   9.618  10.557   8.558
 4177W        W 8377   9.142  10.373   0.873
 4178W        W 8378  10.429   2.167   1.442
 4179W        W 8379   3.510   1.505  11.226
 4180W        W 8380   5.625   1.357   2.488
 4181W        W 8381   3.957   0.707   2.490
 4182W        W 8382  10.817   4.201   8.593
 4183W        W 8383   7.647  10.706  11.909
 4184W        W 8384   7.717   9.028   0.090
 4185W        W 8385  10.718  10.146   8.528
 4186W        W 8386   6.063   4.290  10.963
 4187W        W 8387   8.973   2.780   3.341
 4188W        W 8388   9.888   8.550   2.441
 4189W        W 8389   3.138   3.720  10.866
 4190W        W 8390   2.387   4.663   8.314
 4191W        W 8391   1.915   7.056  11.139
 4192W        W 8392   2.056   1.271   2.325
 4193W        W 8393   2.767   0.469  11.406
 4194W        W 8394   9.931  11.078   1.831
 4195W        W 8395   1.808  10.256  10.214
 4196W        W 8396   9.613   8.578   1.456
 4197W        W 8397  10.723  10.301  10.001
 4198W        W 8398   9.502   6.980   3.277
 4199W        W 8399   5.548   5.263  10.453
 4200W        W 8400   5.711   7.702   8.393
 4201W        W 8401  11.402   6.758  11.414
 4202W        W 8402   9.725   8.305   0.188
 4203W        W 8403   3.770  11.488  11.355
 4204W        W 8404  10.306   8.164  10.589
 4205W        W 8405  10.806   0.939   0.773
 4206W        W 8406   0.808   7.431  10.461
 4207W        W 8407   8.153   6.549   8.435
 4208W        W 8408  10.863   5.175   0.844
 4209W        W 8409   7.597   2.580  10.972
 4210W        W 8410   4.647   7.503  10.819
 4211W        W 8411  10.360   6.439  10.501
 4212W        W 8412   6.066   0.375  10.760
 4213W        W 8413   3.928  11.243   2.687
 4214W        W 8414   2.827   4.545   2.503
 4215W        W 8415   5.030  11.219   8.870
 4216W        W 8416   1.695  11.239   1.422
 4217W        W 8417   2.895   6.044   2.440
 4218W        W 8418   9.885   1.653   2.033
 4219W        W 8419   4.691   1.245   9.110
 4220W        W 8420   4.228   2.765   0.953
 4221W        W 8421   6.624   0.285   2.496
 4222W        W 8422   7.483   0.710   8.713
 4223W        W 8423   7.917   8.263   3.612
 4224W        W 8424   9.464   0.049   2.416
 4225W        W 8425   6.742   5.666   1.004
 4226W        W 8426   9.627   3.424   0.390
 4227W        W 8427  10.845   2.659   2.783
 4228W        W 8428   2.831   9.775   2.153
 4229W        W 8429   8.021   9.401  11.403
 4230W        W 8430   8.345   9.874   3.232
 4231W        W 8431   9.999   3.095   9.260
 4232W        W 8432   4.935  11.477   2.006
 4233W        W 8433   0.007   8.073   0.854
 4234W        W 8434   8.831   6.907   0.961
 4235W        W 8435   3.695   4.482   3.546
 4236W        W 8436  10.301   2.236   9.021
 4237W        W 8437   2.854   7.779  11.174
 4238W        W 8438   3.701   8.440  10.281
 4239W        W 8439   9.120   4.164   1.216
 4240W        W 8440   1.718   5.709   1.639
 4241W        W 8441   8.264   8.394   9.339
 4242W        W 8442  10.897   1.838   0.295
 4243W        W 8443   9.512   7.885   9.889
 4244W        W 8444   7.806   6.088   1.512
 4245W        W 8445   9.717   7.200   1.447
 4246W        W 8446   1.218   4.947   0.950
 4247W        W 8447  10.819   4.978   9.050
 4248W        W 8448   5.056   7.028   2.027
 4249W        W 8449   4.060  10.905   1.403
 4250W        W 8450   4.337   9.628  10.565
 4251W        W 8451  11.139   4.232  10.804
 4252W        W 8452   9.136   0.851   0.338
 4253W        W 8453   0.956   3.121  10.470
 4254W        W 8454   6.836   6.201  11.370
 4255W        W 8455   4.276   1.110   2.558
 4256W        W 8456   8.077   1.166  11.645
 4257W        W 8457   8.360   6.098  11.460
 4258W        W 8458   0.933  10.433   0.363
 4259W        W 8459   0.364   4.679   8.478
 4260W        W 8460   3.910   8.857   8.729
 4261W        W 8461   5.373   9.885   1.640
 4262W        W 8462   0.815   8.153   0.948
 4263W        W 8463   3.448   1.312   2.019
 4264W        W 8464   9.125   1.376   0.471
 4265W        W 8465   8.435   4.311   1.952
 4266W        W 8466  10.268   9.554   9.216
 4267W        W 8467   0.984   8.487   9.791
 4268W        W 8468   7.256   2.324   2.885
 4269W        W 8469   9.466   4.405   0.420
 4270W        W 8470  10.417   6.671  11.480
 4271W        W 8471   2.916   8.986   3.277
 4272W        W 8472   6.053   4.794   2.662
 4273W        W 8473   5.344   3.127   9.373
 4274W        W 8474   0.791   0.142   9.136
 4275W        W 8475   7.232   1.932  10.396
 4276W        W 8476   1.440   7.120   9.051
 4277W        W 8477   4.213   7.432  11.410
 4278W        W 8478  10.967   5.703   2.286
 4279W        W 8479   9.168   9.793   0.089
 4280W        W 8480   8.000   4.071   0.073
 4281W        W 8481  11.053   8.047   1.658
 4282W        W 8482  10.983   5.228   2.996
 4283W        W 8483   1.353   6.620  11.868
 4284W        W 8484   7.946   4.334   9.060
 4285W        W 8485   0.266   8.517   2.453
 4286W        W 8486   0.303   1.835  11.096
 4287W        W 8487   8.878   0.948   0.772
 4288W        W 8488   6.277   2.154   2.261
 4289W        W 8489  10.208   1.020   2.871
 4290W        W 8490   0.034   3.811   9.493
 4291W        W 8491   7.919   7.799   3.819
 4292W        W 8492   9.535   9.112   2.229
 4293W        W 8493  11.250   6.995   2.189
 4294W        W 8494   7.109  10.349   1.956
 4295W        W 8495   7.106  10.132   0.547
 4296W        W 8496   0.941   7.992   1.994
 4297W        W 8497   4.259   8.467   8.594
 4298W        W 8498  10.079   8.993   2.678
 4299W        W 8499   2.412   9.014   3.302
 4300W        W 8500   0.475   0.283   3.612
 4301W        W 8501   8.248   3.223   3.563
 4302W        W 8502   4.078   7.171   1.022
 4303W        W 8503   4.736   6.096   3.582
 4304W        W 8504  10.799   8.511   2.970
 4305W        W 8505   8.170   9.517  10.006
 4306W        W 8506   3.131   6.535   2.189
 4307W        W 8507   0.291   6.513   0.021
 4308W        W 8508   1.681   1.410   0.931
 4309W        W 8509   2.774   8.451   0.988
 4310W        W 8510   7.678   5.136  10.244
 4311W        W 8511   8.155   7.700   2.635
 4312W        W 8512   4.639   0.291  11.486
 4313W        W 8513   6.540   6.227  11.926
 4314W        W 8514   7.052   1.190  10.538
 4315W        W 8515  10.935   1.125   2.706
 4316W        W 8516   0.625   4.669   9.432
 4317W        W 8517   9.462  10.934  11.538
 4318W        W 8518   9.374   9.857   1.859
 4319W        W 8519   9.038   3.640   9.876
 4320W        W 8520   9.964   4.766   2.799
 4321W        W 8521   3.858   5.964   9.510
 4322W        W 8522   8.969   8.994   8.912
 4323W        W 8523   6.805   2.218   3.093
 4324W        W 8524   7.708   6.190   0.469
 4325W        W 8525   4.562   3.436  11.928
 4326W        W 8526   6.466   3.186   3.208
 4327W        W 8527   4.501   2.033   3.557
 4328W        W 8528   7.539   1.896   1.403
 4329W        W 8529   9.835   3.582   2.652
 4330W        W 8530  11.171   9.434   1.968
 4331W        W 8531   9.140   8.561   9.888
 4332W        W 8532   4.517  10.328   0.237
 4333W        W 8533   2.783   4.259   7.754
 4334W        W 8534   2.723  10.633  11.661
 4335W        W 8535  10.456   5.949  10.716
 4336W        W 8536   6.048   3.710   3.618
 4337W        W 8537   6.226   3.663   9.402
 4338W        W 8538   1.184   7.036  10.514
 4339W        W 8539   6.162   0.922  11.561
 4340W        W 8540   7.194  10.516  11.732
 4341W        W 8541   4.692   2.477   1.107
 4342W        W 8542   3.162  11.290  11.106
 4343W        W 8543  10.199   4.183   8.528
 4344W        W 8544   8.427  10.026  11.798
 4345W        W 8545   9.174   3.140  10.234
 4346W        W 8546   6.463   9.803   3.390
 4347W        W 8547   6.252  10.313   3.437
 4348W        W 8548   1.268   5.342   2.849
 4349W        W 8549   9.350   4.736  11.473
 4350W        W 8550   1.752   2.559   0.473
 4351W        W 8551   8.915   4.275  10.881
 4352W        W 8552   2.761   0.361   1.908
 4353W        W 8553   0.673   8.696   2.225
 4354W        W 8554   4.466   0.833   0.266
 4355W        W 8555  10.371   7.929  10.152
 4356W        W 8556   6.980  11.298  10.013
 4357W        W 8557   6.697   0.165  11.468
 4358W        W 8558  10.014   8.390  11.729
 4359W        W 8559   4.067   8.838   0.405
 4360W        W 8560  10.915   6.552   1.184
 4361W        W 8561   8.853   0.557   8.490
 4362W        W 8562   5.042   3.237   9.776
 4363W        W 8563   1.154  10.532   9.112
 4364W        W 8564   3.870  10.337   0.881
 4365W        W 8565   2.988   3.165  11.888
 4366W        W 8566   5.924   6.617   8.943
 4367W        W 8567   8.750   6.854   8.163
 4368W        W 8568   9.838   1.323   9.299
 4369W        W 8569  11.279  10.294   3.284
 4370W        W 8570   2.398   1.995  11.951
 4371W        W 8571   6.133  10.020   9.483
 4372W        W 8572  10.270   2.628   1.285
 4373W        W 8573   5.194   2.582   3.110
 4374W        W 8574   7.583   3.403  11.433
 4375W        W 8575   4.064   7.045  10.412
 4376W        W 8576   4.530   6.643  11.948
 4377W        W 8577   3.803   2.224   2.410
 4378W        W 8578   3.212   0.996   3.021
 4379W        W 8579   6.180   9.042  11.550
 4380W        W 8580   0.779   1.008   3.208
 4381W        W 8581   8.303   6.045   9.116
 4382W        W 8582   2.726  10.537   2.681
 4383W        W 8583   8.112   3.321   9.120
 4384W        W 8584  11.281   9.583   2.935
 4385W        W 8585  11.369   8.468   1.138
 4386W        W 8586   4.454   0.050   1.843
 4387W        W 8587   8.092   7.410   3.057
 4388W        W 8588  11.441   3.241   2.641
 4389W        W 8589   4.801   2.587  10.970
 4390W        W 8590  10.350   7.660   3.227
 4391W        W 8591   9.417   2.692  10.385
 4392W        W 8592  10.964   7.111   1.777
 4393W        W 8593   9.332   8.813   1.826
 4394W        W 8594   0.878   4.121   3.186
 4395W        W 8595   6.062   2.268  11.133
 4396W        W 8596   7.836  10.817   1.045
 4397W        W 8597   7.216  11.352  11.394
 4398W        W 8598   3.113   4.086  10.114
 4399W        W 8599   7.531   7.085  10.992
 4400W        W 8600   9.863   0.032   1.630
 4401W        W 8601  11.419   5.035  11.605
 4402W        W 8602   9.550   6.164   3.871
 4403W        W 8603   3.699   6.775  11.915
 4404W        W 8604  10.887  10.788   2.168
 4405W        W 8605   9.956   6.699   9.819
 4406W        W 8606   4.666   9.422   1.709
 4407W        W 8607   0.575   6.025  10.328
 4408W        W 8608   4.580   2.532   0.267
 4409W        W 8609   4.952   0.392   3.245
 4410W        W 8610   7.740   4.556   9.500
 4411W        W 8611   3.139   1.302   1.040
 4412W        W 8612   8.453   2.231   8.948
 4413W        W 8613   0.805   2.851   0.157
 4414W        W 8614   4.316   9.063   2.828
 4415W        W 8615   7.989   2.846   3.315
 4416W        W 8616   0.336   3.127   1.935
 4417W        W 8617   3.482   6.691   3.557
 4418W        W 8618   0.139   2.565   9.518
 4419W        W 8619   8.885   2.511   8.892
 4420W        W 8620   9.223   8.331   1.824
 4421W        W 8621   9.851   9.948  10.727
 4422W        W 8622  10.351   9.006  10.430
 4423W        W 8623   6.425   7.989   3.742
 4424W        W 8624   5.599   3.357   0.619
 4425W        W 8625   9.940   4.411   3.172
 4426W        W 8626  11.020   3.590   2.240
 4427W        W 8627  10.893   1.991   9.676
 4428W        W 8628   3.470   7.688   1.293
 4429W        W 8629   3.254   1.965  11.744
 4430W        W 8630   8.996   6.119  11.881
 4431W        W 8631   0.697   1.217   1.996
 4432W        W 8632   3.792   9.536   1.722
 4433W        W 8633   5.715   1.371   2.983
 4434W        W 8634  10.727   2.720   2.253
 4435W        W 8635   8.730   9.109   2.897
 4436W        W 8636   1.172   1.543   8.468
 4437W        W 8637  10.298  10.969   9.075
 4438W        W 8638   6.623  11.465   3.431
 4439W        W 8639   1.440   4.839   9.163
 4440W        W 8640   4.588  11.364   8.588
 4441W        W 8641   9.796   3.616   0.849
 4442W        W 8642   2.779   2.481   1.791
 4443W        W 8643   6.838   6.253   9.236
 4444W        W 8644   2.352   8.428  11.258
 4445W        W 8645   3.191   0.041   0.870
 4446W        W 8646   3.060   3.735  11.739
 4447W        W 8647   7.610   0.336   2.229
 4448W        W 8648   0.221   2.854   2.428
 4449W        W 8649   5.157   8.188   2.439
 4450W        W 8650  11.332   0.502   9.061
 4451W        W 8651   1.323   1.810   2.209
 4452W        W 8652   1.220   3.210   9.299
 4453W        W 8653   9.984   4.335   0.404
 4454W        W 8654   9.449   1.574   1.775
 4455W        W 8655   2.627   8.344   0.503
 4456W        W 8656   9.806  10.571   9.935
 4457W        W 8657   1.297   3.307   0.712
 4458W        W 8658   1.624   1.448   3.488
 4459W        W 8659   1.968   9.868   9.316
 4460W        W 8660   2.365   5.828  10.901
 4461W        W 8661   1.070   5.015   9.555
 4462W        W 8662   7.579   3.168   9.184
 4463W        W 8663   0.072   5.950  10.375
 4464W        W 8664   9.245   4.591  10.594
 4465W        W 8665   3.093   0.601   3.308
 4466W        W 8666   9.256   1.181  10.994
 4467W        W 8667  10.399   6.771   2.390
 4468W        W 8668   9.007   1.193   1.292
 4469W        W 8669   4.755   1.714  11.193
 4470W        W 8670   9.407   6.362  10.099
 4471W        W 8671   1.874   3.741   3.301
 4472W        W 8672   9.501   5.011   9.557
 4473W        W 8673  10.909   4.380  11.313
 4474W        W 8674   6.103   9.224   1.503
 4475W        W 8675   4.447   7.807   9.337
 4476W        W 8676   7.024   8.913   9.017
 4477W        W 8677   8.200   0.847  10.273
 4478W        W 8678   8.623   6.673   8.638
 4479W        W 8679   2.878   9.273   2.056
 4480W        W 8680   6.023   6.813   2.658
 4481W        W 8681   3.420   6.217   9.701
 4482W        W 8682   6.758   9.343   0.112
 4483W        W 8683   7.057   3.233  11.612
 4484W        W 8684   1.514   6.093  11.731
 4485W        W 8685   1.147   8.466   3.438
 4486W        W 8686   8.911   6.613   0.012
 4487W        W 8687   3.167   6.125   8.780
 4488W        W 8688   8.037   2.829  10.805
 4489W        W 8689  11.380  10.839   9.178
 4490W        W 8690   1.288   2.232   9.530
 4491W        W 8691   2.613   6.817   3.647
 4492W        W 8692   2.277   3.358   9.147
 4493W        W 8693   0.949   1.648   1.892
 4494W        W 8694   4.063   5.088  11.536
 4495W        W 8695   3.772   0.803  10.001
 4496W        W 8696  10.947   3.972   9.633
 4497W        W 8697   5.694   0.149   9.974
 4498W        W 8698   8.640   1.780   9.862
 4499W        W 8699   7.469   1.851   1.939
 4500W        W 8700  10.784   4.310   3.297
 4501W        W 8701   0.957   2.836   8.967
 4502W        W 8702   4.770   8.042   1.494
 4503W        W 8703   9.084   1.229   2.151
 4504W        W 8704   9.962   5.079  10.801
 4505W        W 8705   5.896   4.111   1.305
 4506W        W 8706   2.157   8.482   0.294
 4507W        W 8707   8.839   3.078   9.802
 4508W        W 8708  10.844   1.844   2.236
 4509W        W 8709   4.267   4.676  10.261
 4510W        W 8710   5.528   5.465  10.932
 4511W        W 8711   1.744   4.251   3.272
 4512W        W 8712   0.449   2.670  11.036
 4513W        W 8713   4.364   0.896   0.858
 4514W        W 8714   4.506  10.557  11.806
 4515W        W 8715  10.527   0.048  11.255
 4516W        W 8716   4.881   6.183   1.524
 4517W        W 8717   8.890   0.680   1.225
 4518W        W 8718  10.798   0.820  11.346
 4519W        W 8719   8.112   2.460   2.373
 4520W        W 8720   7.668  10.921   3.039
 4521W        W 8721   5.665   7.636  10.976
 4522W        W 8722   8.408   2.830   2.606
 4523W        W 8723   4.270   0.732   2.925
 4524W        W 8724   8.537   9.327   9.638
 4525W        W 8725   3.103   1.918  10.350
 4526W        W 8726   8.877   2.922   9.226
 4527W        W 8727   3.379   6.077   0.278
 4528W        W 8728   1.938   9.350   8.715
 4529W        W 8729   3.565   9.032  11.531
 4530W        W 8730   6.097   4.536   8.370
 4531W        W 8731   9.403   5.745   1.971
 4532W        W 8732   4.732  11.338   0.441
 4533W        W 8733   6.304   1.657  10.528
 4534W        W 8734   3.584   1.027  11.370
 4535W        W 8735   0.001   3.160  11.577
 4536W        W 8736   3.902   4.391   8.577
 4537W        W 8737   6.509   2.350   9.839
 4538W        W 8738   5.197   9.146   2.761
 4539W        W 8739   1.879   0.936  11.171
 4540W        W 8740   3.954   0.486   3.419
 4541W        W 8741   6.981   3.640   9.908
 4542W        W 8742   2.135   2.044   1.960
 4543W        W 8743   3.490   4.573   9.859
 4544W        W 8744   6.537   7.307  11.043
 4545W        W 8745   7.149   6.409   9.625
 4546W        W 8746   2.190   3.311  10.972
 4547W        W 8747   7.303   4.969   8.386
 4548W        W 8748   8.565   4.119  11.260
 4549W        W 8749  10.747   9.524  10.583
 4550W        W 8750   4.142   7.072  11.811
 4551W        W 8751   6.873   2.244  10.582
 4552W        W 8752  10.517   1.763  11.356
 4553W        W 8753   3.911   9.347   0.310
 4554W        W 8754   6.513   7.456  10.042
 4555W        W 8755   7.141   0.345   0.634
 4556W        W 8756   4.589   4.158   9.105
 4557W        W 8757   6.945   3.517   1.744
 4558W        W 8758   9.674   3.998   9.349
 4559W        W 8759   8.964  11.123   3.543
 4560W        W 8760   3.583   3.809   3.021
 4561W        W 8761   7.826   3.534   0.698
 4562W        W 8762   4.171   9.901   2.292
 4563W        W 8763   7.217   0.445  10.557
 4564W        W 8764   9.445   6.845   1.674
 4565W        W 8765   2.896   6.539   9.045
 4566W        W 8766   0.045   0.669   0.644
 4567W        W 8767   2.679  10.266   2.231
 4568W        W 8768   3.135   8.519   3.311
 4569W        W 8769   8.595   8.647   9.024
 4570W        W 8770  11.359   7.524  11.100
 4571W        W 8771   4.183   3.360  10.941
 4572W        W 8772   7.143   2.263   1.342
 4573W        W 8773   5.270   3.142   4.010
 4574W        W 8774   6.556   8.792   3.349
 4575W        W 8775   8.868   1.963   0.774
 4576W        W 8776  10.082   7.947  11.959
 4577W        W 8777  11.307   6.825   3.151
 4578W        W 8778   3.304   9.506   9.318
 4579W        W 8779   0.061   7.023   9.272
 4580W        W 8780   4.627  11.257  11.100
 4581W        W 8781  10.010   9.904   2.193
 4582W        W 8782  10.889   3.121  10.417
 4583W        W 8783  10.321  10.320   2.613
 4584W        W 8784   2.423   9.484   1.222
 4585W        W 8785   2.366   7.347   3.559
 4586W        W 8786  10.796   6.752   3.164
 4587W        W 8787  11.233   7.543   3.407
 4588W        W 8788   6.568   4.248  10.289
 4589W        W 8789   9.528   9.469   1.027
 4590W        W 8790   2.140   7.389   9.485
 4591W        W 8791   8.995   1.772   8.419
 4592W        W 8792   0.341   3.132   0.347
 4593W        W 8793   9.059  10.004   2.516
 4594W        W 8794   0.480   3.438   3.620
 4595W        W 8795   8.864   2.943   8.604
 4596W        W 8796  11.373   7.470  10.568
 4597W        W 8797  10.313   2.863   0.824
 4598W        W 8798   5.074   4.795  11.216
 4599W        W 8799   2.839   5.535   9.704
 4600W        W 8800   1.483   2.759   1.990
 4601W        W 8801   6.410   3.536   1.798
 4602W        W 8802   5.188   1.676   8.743
 4603W        W 8803   3.406   3.831   2.536
 4604W        W 8804   9.627  10.446   0.778
 4605W        W 8805   5.635   6.261  10.705
 4606W        W 8806   8.702   8.464  10.160
 4607W        W 8807   1.749   2.241   9.277
 4608W        W 8808  10.510   3.790   9.816
 4609W        W 8809   3.800   4.706   8.994
 4610W        W 8810   5.384   7.400   9.312
 4611W        W 8811   5.521   2.434   1.939
 4612W        W 8812   5.569   0.717  11.214
 4613W        W 8813   6.693   8.511  11.976
 4614W        W 8814   1.846   6.666   0.836
 4615W        W 8815   2.852   9.295  10.380
 4616W        W 8816  10.457   1.156   0.252
 4617W        W 8817   6.986   7.805   9.462
 4618W        W 8818   1.387  10.374  10.992
 4619W        W 8819   3.449   0.890   2.576
 4620W        W 8820  10.798   5.451   0.284
 4621W        W 8821   8.163   3.152   0.677
 4622W        W 8822   3.125   1.413  11.548
 4623W        W 8823   8.304   3.153   9.929
 4624W        W 8824   1.846  10.562  11.732
 4625W        W 8825  10.854   7.524   0.824
 4626W        W 8826   0.036  10.479  10.861
 4627W        W 8827  11.004   2.232  11.084
 4628W        W 8828  11.158   4.146  11.734
 4629W        W 8829   1.485   2.294  11.380
 4630W        W 8830   8.875   0.183  11.770
 4631W        W 8831  10.806   5.751   1.793
 4632W        W 8832   9.229   0.122  10.379
 4633W        W 8833   5.162   7.722   2.630
 4634W        W 8834   9.026   6.745  10.438
 4635W        W 8835   3.553   9.072   9.619
 4636W        W 8836   4.234   6.143  10.286
 4637W        W 8837   2.336   2.590   2.592
 4638W        W 8838   6.656   9.323   3.333
 4639W        W 8839   6.072   8.831   9.848
 4640W        W 8840   8.187   4.078  11.591
 4641W        W 8841   1.301  10.874   0.972
 4642W        W 8842   3.178   2.938   9.062
 4643W        W 8843   6.989   0.144  10.988
 4644W        W 8844   3.789   1.956   0.130
 4645W        W 8845   5.737   2.632  10.979
 4646W        W 8846   3.616   4.905   8.561
 4647W        W 8847  10.319   3.379   9.532
 4648W        W 8848  10.497   7.382   1.167
 4649W        W 8849   2.681   9.648  11.937
 4650W        W 8850  10.455   3.341  10.024
 4651W        W 8851   9.854   2.582   0.963
 4652W        W 8852   6.456   6.597  10.350
 4653W        W 8853  10.775  10.563  10.435
 4654W        W 8854   3.600  10.120  11.967
 4655W        W 8855   4.756   4.069   0.342
 4656W        W 8856  11.257   7.671   2.584
 4657W        W 8857   7.266   9.625   0.532
 4658W        W 8858  10.714   3.419   3.333
 4659W        W 8859  10.294   9.342  10.827
 4660W        W 8860   1.858   6.068   1.959
 4661W        W 8861   8.991   3.755   1.961
 4662W        W 8862  10.243  10.875   1.451
 4663W        W 8863   0.324   6.371   2.384
 4664W        W 8864   5.211   0.688  11.882
 4665W        W 8865   5.758   5.269   1.786
 4666W        W 8866   3.462   1.190   0.358
 4667W        W 8867   9.532   7.768  10.943
 4668W        W 8868   9.996   6.555   9.325
 4669W        W 8869   9.955   0.621  11.394
 4670W        W 8870   2.240   8.915   0.031
 4671W        W 8871  10.010   5.249   0.996
 4672W        W 8872  10.104   6.102   0.495
 4673W        W 8873   9.513   9.883   8.993
 4674W        W 8874   7.731   0.260   9.835
 4675W        W 8875   7.993   0.848   2.917
 4676W        W 8876   4.304   5.367   2.749
 4677W        W 8877   1.333   4.781  10.576
 4678W        W 8878   2.698   4.291   3.019
 4679W        W 8879   1.126   4.883  10.088
 4680W        W 8880   4.775   1.363   1.957
 4681W        W 8881  11.019   9.065   0.139
 4682W        W 8882   9.698   7.151  11.278
 4683W        W 8883   2.639   6.398   8.627
 4684W        W 8884   6.223   7.701   8.360
 4685W        W 8885  10.475   6.665   9.500
 4686W        W 8886   4.833   8.801  11.846
 4687W        W 8887   5.164   2.675   4.198
 4688W        W 8888   5.670   2.750   9.495
 4689W        W 8889   5.952   9.992   2.706
 4690W        W 8890   9.615   6.912   2.794
 4691W        W 8891   5.027   3.235  11.952
 4692W        W 8892   8.891   0.338  10.772
 4693W        W 8893  11.354   8.367   9.975
 4694W        W 8894   1.033   9.280  10.722
 4695W        W 8895   2.623   7.433   0.200
 4696W        W 8896   4.041   3.324   9.370
 4697W        W 8897   5.626   7.553   8.875
 4698W        W 8898   2.526   3.058  11.566
 4699W        W 8899   6.633  11.110   0.047
 4700W        W 8900   8.128   9.612  10.509
 4701W        W 8901  10.212   7.993   1.676
 4702W        W 8902   0.752   0.963   9.537
 4703W        W 8903   7.616   4.864   0.352
 4704W        W 8904   6.486   1.055  11.939
 4705W        W 8905   4.605   3.066  11.067
 4706W        W 8906  10.512   4.164   9.474
 4707W        W 8907   1.446  10.859  11.251
 4708W        W 8908   5.181   0.832   3.514
 4709W        W 8909   9.093  10.292   0.008
 4710W        W 8910  10.003   3.833   2.235
 4711W        W 8911   0.259   6.616   2.981
 4712W        W 8912   3.521   3.373   9.446
 4713W        W 8913   3.706   3.362   3.296
 4714W        W 8914   8.358   4.617   8.913
 4715W        W 8915   3.755   4.109  11.045
 4716W        W 8916   6.859   3.110   2.830
 4717W        W 8917   1.002   1.633   8.958
 4718W        W 8918   8.481   6.387   2.199
 4719W        W 8919   5.255   4.232   9.517
 4720W        W 8920   3.381  10.073   8.657
 4721W        W 8921   5.674   6.608   0.574
 4722W        W 8922   0.274   8.633   1.920
 4723W        W 8923   8.122   8.374   8.449
 4724W        W 8924   1.420   4.317  10.810
 4725W        W 8925   3.568   1.213   9.784
 4726W        W 8926   5.253   8.893   3.647
 4727W        W 8927  10.895   4.419   1.808
 4728W        W 8928  10.475   5.005   9.874
 4729W        W 8929  11.288   7.752  11.549
 4730W        W 8930   0.812   0.779   2.229
 4731W        W 8931   5.555   4.481  10.696
 4732W        W 8932   8.176  11.479   1.164
 4733W        W 8933  11.267   0.894  10.480
 4734W        W 8934   7.010   1.120  11.049
 4735W        W 8935   0.802   0.188  10.051
 4736W        W 8936   1.957  11.365   3.180
 4737W        W 8937   9.017   1.714   1.286
 4738W        W 8938   4.733   2.348   9.533
 4739W        W 8939   9.870   2.931   3.195
 4740W        W 8940   3.808   3.637   0.200
 4741W        W 8941   7.671   0.270   1.165
 4742W        W 8942   8.214   9.008   9.977
 4743W        W 8943  10.014   9.211   8.640
 4744W        W 8944   7.406  10.871   9.548
 4745W        W 8945  11.445   1.164   2.645
 4746W        W 8946  10.950   5.926   0.302
 4747W        W 8947   5.574   2.174   1.494
 4748W        W 8948   4.610   3.285   3.220
 4749W        W 8949   8.578   5.238   0.955
 4750W        W 8950   8.308   7.074   8.839
 4751W        W 8951   3.288  10.493   0.252
 4752W        W 8952  10.364   6.540   1.481
 4753W        W 8953   7.927   2.936   2.397
 4754W        W 8954   3.180   3.862   8.838
 4755W        W 8955   5.537   5.782  10.474
 4756W        W 8956   3.233   8.074   8.668
 4757W        W 8957   9.038   0.174  11.256
 4758W        W 8958   4.202   6.748   1.263
 4759W        W 8959   0.803   0.046  10.554
 4760W        W 8960  10.820   4.717   2.607
 4761W        W 8961  11.064   6.849   9.237
 4762W        W 8962  11.451   3.974   8.999
 4763W        W 8963  10.895   5.370   1.456
 4764W        W 8964  11.411   6.537   9.449
 4765W        W 8965   9.988   1.368   0.264
 4766W        W 8966   4.131   7.002   9.278
 4767W        W 8967   1.800   3.334   1.760
 4768W        W 8968  10.108  10.546   0.750
 4769W        W 8969   8.376   2.224   9.749
 4770W        W 8970   6.735   4.557   9.401
 4771W        W 8971  10.567   2.787   1.703
 4772W        W 8972   4.957   7.010   3.129
 4773W        W 8973   0.247   2.147   9.780
 4774W        W 8974   7.865   8.044   2.306
 4775W        W 8975   3.957   6.013  11.512
 4776W        W 8976  11.347   4.637   1.861
 4777W        W 8977   4.590   7.550   0.348
 4778W        W 8978   5.604   4.596   2.471
 4779W        W 8979  10.442   7.544   9.377
 4780W        W 8980   7.484   4.328  11.394
 4781W        W 8981   8.335   8.706   2.823
 4782W        W 8982   3.657   3.246   1.869
 4783W        W 8983   2.034   6.996  10.295
 4784W        W 8984  10.288   1.777   1.138
 4785W        W 8985  11.372   8.673   8.551
 4786W        W 8986  10.158   2.181   1.904
 4787W        W 8987   7.161   9.919   2.738
 4788W        W 8988   0.253   6.245  11.169
 4789W        W 8989   1.211   0.998   2.015
 4790W        W 8990  10.452   9.838   2.966
 4791W        W 8991   8.719   0.002  10.436
 4792W        W 8992   9.344   2.202  11.115
 4793W        W 8993   8.524   3.461   1.278
 4794W        W 8994   9.134   5.187  10.823
 4795W        W 8995   4.784   7.909   0.028
 4796W        W 8996  11.434  11.425  10.776
 4797W        W 8997   0.657   9.381   3.409
 4798W        W 8998   0.463   0.008   9.732
 4799W        W 8999   1.945   7.925  11.808
 4800W        W 9000  10.429   8.549   8.919
 4801W        W 9001   3.819   2.878  10.339
 4802W        W 9002   4.880   4.991   1.407
 4803W        W 9003   1.142   2.810   0.586
 4804W        W 9004   7.392   3.783   0.736
 4805W        W 9005   8.529   6.779  10.758
 4806W        W 9006   2.134   4.745   0.345
 4807W        W 9007   4.741   1.598  10.707
 4808W        W 9008   1.544   2.861   0.922
 4809W        W 9009   9.034  10.966   0.350
 4810W        W 9010   0.691   7.111   2.177
 4811W        W 9011   1.246   2.806  11.296
 4812W        W 9012  11.012  10.144   1.807
 4813W        W 9013   4.802   1.287   2.475
 4814W        W 9014   9.605   9.812   2.968
 4815W        W 9015  10.805   4.568   0.668
 4816W        W 9016   5.945   6.092   9.748
 4817W        W 9017   9.953   5.302   0.411
 4818W        W 9018   9.180   4.698   9.174
 4819W        W 9019   9.098   7.654  10.135
 4820W        W 9020   0.243   2.255   1.828
 4821W        W 9021   9.952  11.058  11.347
 4822W        W 9022   9.510  10.118   9.463
 4823W        W 9023   9.429   6.616  11.260
 4824W        W 9024   1.136   9.539   3.404
 4825W        W 9025   9.803   8.600   1.948
 4826W        W 9026   8.056   4.564   0.205
 4827W        W 9027   9.956   1.883   0.160
 4828W        W 9028   6.566   7.496   8.697
 4829W        W 9029   7.147   4.562   8.673
 4830W        W 9030   0.497   7.925   9.613
 4831W        W 9031   3.453   6.053   1.244
 4832W        W 9032   1.585   6.165  10.038
 4833W        W 9033   1.697   0.827   2.146
 4834W        W 9034   5.998   1.326   2.115
 4835W        W 9035   1.097   8.483   2.385
 4836W        W 9036   1.858   4.044  10.895
 4837W        W 9037   6.696   2.383   3.559
 4838W        W 9038   6.516   8.550   1.631
 4839W        W 9039   0.904   3.647   0.810
 4840W        W 9040   6.867  11.162   3.120
 4841W        W 9041   1.186   5.533   9.462
 4842W        W 9042   6.837   1.197   1.968
 4843W        W 9043  10.432   9.974  11.924
 4844W        W 9044   6.709   4.681   0.142
 4845W        W 9045   1.622   7.976   0.859
 4846W        W 9046   0.282   3.502  10.791
 4847W        W 9047  10.024   7.567  11.122
 4848W        W 9048   7.112  10.188  11.324
 4849W        W 9049   7.981   5.223   0.306
 4850W        W 9050   5.622   1.371   8.803
 4851W        W 9051   8.946   6.144   8.822
 4852W        W 9052   2.256   4.182   8.514
 4853W        W 9053   5.140   5.635  11.240
 4854W        W 9054   4.733   8.577  10.248
 4855W        W 9055   7.752   1.827   2.968
 4856W        W 9056   0.169   9.463   9.501
 4857W        W 9057   7.682   1.337  11.391
 4858W        W 9058   6.304   4.033   2.249
 4859W        W 9059   0.615   2.216  10.140
 4860W        W 9060   7.590   6.199  11.954
 4861W        W 9061   0.779   5.223  10.257
 4862W        W 9062   7.990   2.481   8.851
 4863W        W 9063   7.413   4.292   0.753
 4864W        W 9064   8.368   3.284  11.769
 4865W        W 9065   8.576   4.574   9.803
 4866W        W 9066   0.373   0.303  11.512
 4867W        W 9067   3.013   3.490   2.387
 4868W        W 9068   8.984   0.425   0.717
 4869W        W 9069   0.331   8.345  11.414
 4870W        W 9070   3.067   5.595   3.233
 4871W        W 9071   1.993   1.016  11.680
 4872W        W 9072  10.512   8.370  11.014
 4873W        W 9073   5.706  10.064   8.889
 4874W        W 9074   2.594   5.996   9.516
 4875W        W 9075   4.157   0.540   0.545
 4876W        W 9076   4.338   8.108   2.711
 4877W        W 9077   8.750   7.117   3.157
 4878W        W 9078   8.045   1.902  11.020
 4879W        W 9079   3.946   8.673   2.211
 4880W        W 9080   2.617  10.974   2.956
 4881W        W 9081   9.664   4.255   2.252
 4882W        W 9082   5.577   1.837   9.037
 4883W        W 9083   3.764   4.622  11.161
 4884W        W 9084   0.410   5.247  11.565
 4885W        W 9085   5.631   4.803   0.668
 4886W        W 9086   7.910   8.751   9.513
 4887W        W 9087   0.754   3.014   8.516
 4888W        W 9088   2.883   7.046   1.487
 4889W        W 9089   5.763  10.885  10.409
 4890W        W 9090   1.269  11.390   9.315
 4891W        W 9091   2.443   2.550   3.097
 4892W        W 9092   0.593   2.642   9.309
 4893W        W 9093   9.763   9.076   1.749
 4894W        W 9094   1.421   6.118   2.205
 4895W        W 9095   9.360   2.831  11.831
 4896W        W 9096   6.134  11.031   9.599
 4897W        W 9097   1.811   3.588  10.695
 4898W        W 9098   1.738   9.911  10.578
 4899W        W 9099   4.380  10.476  10.072
 4900W        W 9100   7.712   0.848  11.944
 4901W        W 9101   5.141   8.505   1.071
 4902W        W 9102   3.198   2.181   1.767
 4903W        W 9103   0.667   9.148  11.073
 4904W        W 9104   9.508   2.350   9.620
 4905W        W 9105   9.946   2.162   1.267
 4906W        W 9106   9.281  11.404  11.660
 4907W        W 9107   7.915   5.504  10.518
 4908W        W 9108  10.606   3.101   0.463
 4909W        W 9109   5.654   8.482   0.736
 4910W        W 9110   5.102   6.341   2.453
 4911W        W 9111   7.477   1.306   8.777
 4912W        W 9112   6.542   1.152  10.337
 4913W        W 9113   7.604   6.506   1.306
 4914W        W 9114   0.568  10.367   0.936
 4915W        W 9115   3.994   7.626   1.371
 4916W        W 9116   5.780   9.963  10.330
 4917W        W 9117   8.494   2.654  10.530
 4918W        W 9118   9.330   7.944   0.224
 4919W        W 9119   3.109   9.138   1.548
 4920W        W 9120   1.838   4.501   3.713
 4921W        W 9121   1.686   0.183   1.194
 4922W        W 9122   7.486   0.913  10.455
 4923W        W 9123   7.374   7.328  10.123
 4924W        W 9124   1.840   1.203   3.104
 4925W        W 9125   9.494   7.631  11.458
 4926W        W 9126   6.593   3.957   2.690
 4927W        W 9127   1.114   5.143  11.864
 4928W        W 9128  11.359   7.199   8.827
 4929W        W 9129   2.079   5.950   9.576
 4930W        W 9130   9.391   9.783  10.877
 4931W        W 9131   1.785   4.899   1.041
 4932W        W 9132   2.855  11.070   2.510
 4933W        W 9133   0.468   1.747   9.577
 4934W        W 9134  10.369   2.228  11.945
 4935W        W 9135   7.024   9.574  11.238
 4936W        W 9136  11.295   6.705   0.853
 4937W        W 9137   6.952   6.082  10.048
 4938W        W 9138   4.641   4.531   3.134
 4939W        W 9139   3.354   3.332   3.689
 4940W        W 9140   5.129   8.908   9.932
 4941W        W 9141   3.885  10.871  10.729
 4942W        W 9142   4.342   0.945  10.840
 4943W        W 9143   4.738   2.806   0.714
 4944W        W 9144   9.833   7.677   1.896
 4945W        W 9145   2.775  11.465  11.375
 4946W        W 9146   7.231  11.388   1.860
 4947W        W 9147  10.862   2.618  10.289
 4948W        W 9148   9.882   6.377  10.308
 4949W        W 9149   2.644   3.084   2.376
 4950W        W 9150   6.429   8.726   8.235
 4951W        W 9151  10.959   9.572  11.966
 4952W        W 9152   0.825   2.430   0.424
 4953W        W 9153   5.463   4.111   9.058
 4954W        W 9154   2.898  10.938  10.811
 4955W        W 9155   8.611   6.422   1.276
 4956W        W 9156   5.111   9.528   2.435
 4957W        W 9157   5.837   6.649   2.206
 4958W        W 9158   9.971   1.978   3.432
 4959W        W 9159   0.810   6.255   0.921
 4960W        W 9160   0.726  10.837   1.721
 4961W        W 9161   5.747   9.181  11.827
 4962W        W 9162   2.654   2.270   9.489
 4963W        W 9163   0.266   1.445   3.472
 4964W        W 9164   9.954   4.271   2.673
 4965W        W 9165   3.824   8.106  11.806
 4966W        W 9166   2.993   5.659   8.583
 4967W        W 9167   9.996   6.186  10.775
 4968W        W 9168   5.533   0.964   9.100
 4969W        W 9169  11.393   2.647   0.525
 4970W        W 9170   9.797  10.925   0.931
 4971W        W 9171   9.980  10.781   2.755
 4972W        W 9172   2.746   7.987   9.517
 4973W        W 9173  10.777   7.642   2.367
 4974W        W 9174   4.768   7.587   1.759
 4975W        W 9175  10.769   4.932   3.592
 4976W        W 9176  10.294   1.932  10.944
 4977W        W 9177   1.612   6.160   0.984
 4978W        W 9178  10.356   6.992   9.048
 4979W        W 9179   8.116   9.946   0.251
 4980W        W 9180   6.935   4.416   1.822
 4981W        W 9181   4.633   4.728   3.604
 4982W        W 9182   6.539   5.474   0.472
 4983W        W 9183   7.916   9.966   9.985
 4984W        W 9184   5.032   4.637   3.916
 4985W        W 9185   2.205   3.317   2.201
 4986W        W 9186   5.672   9.052   3.034
 4987W        W 9187   5.532   4.115   2.591
 4988W        W 9188   2.538   2.676   0.870
 4989W        W 9189  10.254   7.262   2.342
 4990W        W 9190   5.683   3.183   8.882
 4991W        W 9191   8.431  11.005  11.744
 4992W        W 9192   1.036   4.089   0.518
 4993W        W 9193   3.394   6.597  10.317
 4994W        W 9194  10.309   6.573  11.970
 4995W        W 9195   4.165   9.120   9.107
 4996W        W 9196   9.921   5.681   9.897
 4997W        W 9197   3.496   8.510   8.928
 4998W        W 9198   4.372  10.983  10.743
 4999W        W 9199   9.999   1.651  10.086
 5000W        W 9200  10.044   1.283   8.822
 5001W        W 9201  10.050   0.860   0.049
 5002W        W 9202   6.078   5.766   1.714
 5003W        W 9203   1.265   9.452  10.006
 5004W        W 9204   2.498   7.721   2.726
 5005W        W 9205   9.905   0.775   8.904
 5006W        W 9206   3.982   1.343  11.476
 5007W        W 9207   2.078   1.626   3.356
 5008W        W 9208   8.657   3.085  10.287
 5009W        W 9209  10.482  10.817   3.412
 5010W        W 9210   2.270   9.350  11.220
 5011W        W 9211   8.452   2.643   2.044
 5012W        W 9212   7.305  11.331   8.823
 5013W        W 9213   8.178   0.763   8.498
 5014W        W 9214   0.207   6.089   2.784
 5015W        W 9215   8.683   9.978   2.867
 5016W        W 9216   4.559   5.309   9.660
 5017W        W 9217   5.941   6.271   2.690
 5018W        W 9218   3.697  10.769   2.803
 5019W        W 9219   1.599   5.622   3.171
 5020W        W 9220   4.722   4.524   2.622
 5021W        W 9221   8.121   4.609   3.554
 5022W        W 9222   6.848   9.359   0.665
 5023W        W 9223   0.082   5.651  10.825
 5024W        W 9224   0.622   1.464   0.748
 5025W        W 9225   2.344   0.674   0.763
 5026W        W 9226   8.365   2.144   3.719
 5027W        W 9227   4.904   6.081   1.004
 5028W        W 9228  10.230  11.409   9.394
 5029W        W 9229   7.109   2.638   9.798
 5030W        W 9230  10.884   7.554   9.656
 5031W        W 9231   5.537   6.423  11.278
 5032W        W 9232   0.963   2.341   9.102
 5033W        W 9233   5.490   0.002   0.018
 5034W        W 9234   1.607   3.480  10.218
 5035W        W 9235   4.743   2.833   2.020
 5036W        W 9236   4.960   8.104   1.972
 5037W        W 9237   8.533   5.507   9.850
 5038W        W 9238   0.704   4.150  10.998
 5039W        W 9239  11.274   2.219   9.418
 5040W        W 9240   9.616   8.368   9.913
 5041W        W 9241   5.765   9.863   2.005
 5042W        W 9242   6.968   4.560   0.919
 5043W        W 9243   4.793   1.653   0.435
 5044W        W 9244   2.286  11.251  11.432
 5045W        W 9245   1.275   0.491   1.882
 5046W        W 9246   4.086   2.328   0.312
 5047W        W 9247   7.234   4.460   9.540
 5048W        W 9248   9.888  10.477   9.405
 5049W        W 9249   1.923   6.383  10.464
 5050W        W 9250   7.005   8.301   9.714
 5051W        W 9251   0.751   8.399   0.400
 5052W        W 9252   9.390   3.917   1.677
 5053W        W 9253   9.860   2.613   2.813
 5054W        W 9254   6.754  10.746   1.872
 5055W        W 9255   5.493   8.083   2.024
 5056W        W 9256   9.402   0.942  11.887
 5057W        W 9257   5.498  11.067   9.065
 5058W        W 9258   6.226   2.746   9.883
 5059W        W 9259   2.270   7.099   0.067
 5060W        W 9260  11.285  11.414   9.362
 5061W        W 9261   5.659   0.701  10.713
 5062W        W 9262  10.876   8.332   9.648
 5063W        W 9263  10.282   5.970  11.195
 5064W        W 9264   6.977   3.173   1.371
 5065W        W 9265   2.753   8.502   9.473
 5066W        W 9266  10.854   7.619   1.854
 5067W        W 9267   9.401   4.390  11.055
 5068W        W 9268   7.489  11.347   9.317
 5069W        W 9269  10.816   3.922   1.907
 5070W        W 9270   2.587   6.303   9.985
 5071W        W 9271  10.587   7.882   0.004
 5072W        W 9272   0.450  11.332   0.711
 5073W        W 9273  11.432   5.021   2.174
 5074W        W 9274   4.617  11.437   9.118
 5075W        W 9275   8.922   5.343   8.521
 5076W        W 9276   8.881   2.835   2.838
 5077W        W 9277   0.481   3.608  11.540
 5078W        W 9278   8.448   2.953   1.545
 5079W        W 9279   8.061   3.930   1.931
 5080W        W 9280   0.508   5.390  11.017
 5081W        W 9281   2.456   2.517  11.883
 5082W        W 9282   2.782   3.104   1.430
 5083W        W 9283   6.157  10.563   9.395
 5084W        W 9284   4.593  10.869   1.404
 5085W        W 9285   1.042   9.507   0.782
 5086W        W 9286   4.655   6.827   2.306
 5087W        W 9287   5.210   9.817   9.025
 5088W        W 9288   0.283   9.923   0.915
 5089W        W 9289   5.806   7.092   0.359
 5090W        W 9290   7.909   6.934   2.970
 5091W        W 9291   3.851  10.793   9.869
 5092W        W 9292   2.605   6.206  11.879
 5093W        W 9293   1.378   2.028   8.969
 5094W        W 9294   0.824   1.875  10.919
 5095W        W 9295   4.093   0.867  11.294
 5096W        W 9296   2.021  11.108  10.080
 5097W        W 9297   1.361   7.841   8.810
 5098W        W 9298   2.162   4.948   1.500
 5099W        W 9299   2.642   9.750  10.549
 5100W        W 9300  10.536  11.263   2.292
 5101W        W 9301   6.107   0.593   3.403
 5102W        W 9302   3.851   7.351   2.236
 5103W        W 9303   3.841   8.533   2.701
 5104W        W 9304  10.034   3.309   1.433
 5105W        W 9305   3.479   2.222  10.497
 5106W        W 9306   0.360   9.601   1.577
 5107W        W 9307   8.875   4.134   9.860
 5108W        W 9308   0.198   3.668   2.747
 5109W        W 9309   0.502   3.066  10.686
 5110W        W 9310   4.178  10.814   1.896
 5111W        W 9311   4.138  10.910  10.288
 5112W        W 9312   5.356   9.459   0.318
 5113W        W 9313   0.146  10.588   3.067
 5114W        W 9314  10.572   0.880  11.841
 5115W        W 9315   2.862   8.628   2.886
 5116W        W 9316   9.530   2.718   3.512
 5117W        W 9317   5.738   7.769  10.036
 5118W        W 9318   8.546   1.475   1.333
 5119W        W 9319   8.109   9.418   1.059
 5120W        W 9320   9.370   2.729  11.322
 5121W        W 9321   6.726   7.894   9.902
 5122W        W 9322   5.781   4.814  10.354
 5123W        W 9323   7.657  10.298  10.794
 5124W        W 9324   5.103   5.719  10.738
 5125W        W 9325   9.157   3.742   0.210
 5126W        W 9326   2.188   0.806   8.908
 5127W        W 9327   0.276   7.554   3.297
 5128W        W 9328   6.855   8.619   2.973
 5129W        W 9329   0.652  10.362   2.338
 5130W        W 9330   2.943   0.263  10.960
 5131W        W 9331   2.986   4.573   9.988
 5132W        W 9332   6.491   4.043   0.790
 5133W        W 9333   3.886   4.702   8.161
 5134W        W 9334   4.788   2.729   1.546
 5135W        W 9335   8.155   1.822   9.989
 5136W        W 9336   3.363   2.375   0.016
 5137W        W 9337   8.502   1.887  11.254
 5138W        W 9338   3.758  10.337   8.943
 5139W        W 9339   9.587   0.612   0.242
 5140W        W 9340   8.592   5.013  10.137
 5141W        W 9341   6.660  10.369  11.091
 5142W        W 9342   9.547   2.367   2.212
 5143W        W 9343  10.705   1.313  11.536
 5144W        W 9344   1.416   3.883  11.482
 5145W        W 9345   8.053   2.771   0.366
 5146W        W 9346   0.426   5.712   9.956
 5147W        W 9347   4.178   7.463   9.058
 5148W        W 9348  10.363   4.556  11.451
 5149W        W 9349   4.694   3.557   0.432
 5150W        W 9350   6.782   3.141   9.174
 5151W        W 9351   7.689   5.765   8.319
 5152W        W 9352   4.584   6.373   2.517
 5153W        W 9353   5.566   8.971   0.409
 5154W        W 9354   2.754   3.399  10.297
 5155W        W 9355   2.820   2.352   2.757
 5156W        W 9356   5.481   2.404   2.711
 5157W        W 9357   6.721   2.805   0.466
 5158W        W 9358   3.185   0.805   9.107
 5159W        W 9359   8.985  10.011  10.123
 5160W        W 9360  11.385   5.584   0.216
 5161W        W 9361   4.515   3.204   9.536
 5162W        W 9362   8.055   1.829   3.439
 5163W        W 9363   8.482   6.967   0.454
 5164W        W 9364  10.476   8.089   2.958
 5165W        W 9365   7.597   0.744   3.415
 5166W        W 9366   4.089  11.390  10.499
 5167W        W 9367   1.919   5.219  11.234
 5168W        W 9368   4.539   5.450   2.275
 5169W        W 9369   5.580   3.673   3.797
 5170W        W 9370   7.376   4.791  10.529
 5171W        W 9371  11.327   6.412   2.793
 5172W        W 9372   1.707   2.320   0.935
 5173W        W 9373   5.181   9.890   2.107
 5174W        W 9374  11.490  11.453   2.012
 5175W        W 9375   9.172   9.542   2.247
 5176W        W 9376   0.772   7.173   9.933
 5177W        W 9377   6.958   1.252  11.945
 5178W        W 9378   0.775   7.499   1.804
 5179W        W 9379   0.864   9.130   1.047
 5180W        W 9380   5.169   5.573  11.761
 5181W        W 9381  10.116   5.027  10.297
 5182W        W 9382  10.122   1.961  10.473
 5183W        W 9383   4.993   1.510  10.116
 5184W        W 9384   8.845   6.927   9.534
 5185W        W 9385   0.806   2.037  11.615
 5186W        W 9386   0.762   5.505   3.001
 5187W        W 9387   6.262   5.040   0.376
 5188W        W 9388   1.257   5.271  10.446
 5189W        W 9389   5.332   6.718  10.849
 5190W        W 9390   1.619   5.070  11.965
 5191W        W 9391   0.265  11.431   0.243
 5192W        W 9392   0.487   4.581  10.827
 5193W        W 9393  11.328   8.891   1.881
 5194W        W 9394   8.714  11.268   9.565
 5195W        W 9395  10.507   7.365  10.951
 5196W        W 9396   9.105   9.065   2.523
 5197W        W 9397  11.255   4.798   0.816
 5198W        W 9398   3.276   2.640   0.862
 5199W        W 9399   8.543   0.943   9.433
 5200W        W 9400   7.019   8.388   1.915
 5201W        W 9401   5.134  11.493   2.992
 5202W        W 9402   3.014   3.747   4.168
 5203W        W 9403   1.202   8.143   0.622
 5204W        W 9404   1.340   9.555   0.399
 5205W        W 9405   0.736   0.920  10.427
 5206W        W 9406  10.334   2.574   9.404
 5207W        W 9407  10.547   1.588   9.646
 5208W        W 9408  10.238   8.464   0.398
 5209W        W 9409   2.287  10.206   2.697
 5210W        W 9410   9.970   8.063  10.957
 5211W        W 9411   2.276  11.263   0.473
 5212W        W 9412   7.653   2.455   3.168
 5213W        W 9413  10.171   0.304  10.101
 5214W        W 9414   8.493  11.264   3.154
 5215W        W 9415   9.451   6.679   2.153
 5216W        W 9416   4.129   8.082   9.639
 5217W        W 9417   9.823   0.822   9.453
 5218W        W 9418   7.163  10.390   3.416
 5219W        W 9419   0.682   6.935  10.375
 5220W        W 9420  11.301   1.800  10.969
 5221W        W 9421   2.164   2.948   8.814
 5222W        W 9422   7.723   7.737   9.874
 5223W        W 9423   8.599   6.003  11.014
 5224W        W 9424   7.489   6.992   1.904
 5225W        W 9425   1.764  10.978   2.845
 5226W        W 9426   1.815  10.486  11.239
 5227W        W 9427   2.964   7.866  10.385
 5228W        W 9428   1.823   3.701   2.298
 5229W        W 9429   9.448   8.787   0.216
 5230W        W 9430   0.395   6.059   0.238
 5231W        W 9431   0.509   3.886   2.407
 5232W        W 9432   4.685   2.648   2.990
 5233W        W 9433   0.719   0.691   9.970
 5234W        W 9434  10.396   7.473   9.877
 5235W        W 9435   3.219   0.168   9.113
 5236W        W 9436   3.759   0.595   2.946
 5237W        W 9437   1.187   5.696   2.375
 5238W        W 9438   7.565   1.038   1.942
 5239W        W 9439   7.418   8.320   2.321
 5240W        W 9440   8.597   6.455   0.376
 5241W        W 9441  10.224   2.272   0.840
 5242W        W 9442   6.660   9.867   2.005
 5243W        W 9443   3.675  11.448   9.581
 5244W        W 9444   4.662   4.624  10.935
 5245W        W 9445   4.794   9.003   3.065
 5246W        W 9446   2.677   1.146   1.260
 5247W        W 9447   4.769   6.997  10.034
 5248W        W 9448   1.351   9.524  11.907
 5249W        W 9449   2.389   3.799   9.476
 5250W        W 9450   4.661   4.754   1.805
 5251W        W 9451   2.891   9.968  11.529
 5252W        W 9452   9.240   7.355  11.084
 5253W        W 9453   8.782   8.690   0.749
 5254W        W 9454   8.091   1.444   8.710
 5255W        W 9455   9.632   9.559   1.512
 5256W        W 9456   0.714   4.676  11.323
 5257W        W 9457   8.120   8.839  11.752
 5258W        W 9458   1.823   7.409  11.815
 5259W        W 9459   4.720   8.501   0.715
 5260W        W 9460   6.327   7.426   1.474
 5261W        W 9461   3.740   8.859  10.593
 5262W        W 9462  10.361   5.033  11.164
 5263W        W 9463   1.421   5.224   2.363
 5264W        W 9464   1.893   0.466   0.815
 5265W        W 9465   2.822   7.033   2.381
 5266W        W 9466   7.904   5.216  11.436
 5267W        W 9467   1.784   5.245   2.828
 5268W        W 9468   6.370   1.254   1.744
 5269W        W 9469   1.634   3.045   0.445
 5270W        W 9470  11.076   0.925   1.233
 5271W        W 9471   1.464   0.028   0.259
 5272W        W 9472   4.095   3.527  11.792
 5273W        W 9473   5.177   0.793   1.951
 5274W        W 9474  10.089   8.965   9.097
 5275W        W 9475   2.002  10.394   9.397
 5276W        W 9476   2.743   4.606   1.356
 5277W        W 9477   4.544   5.134  11.205
 5278W        W 9478   9.003   5.689   9.785
 5279W        W 9479   4.636   4.011   1.359
 5280W        W 9480   7.813   9.526  10.899
 5281W        W 9481   4.178   1.361   3.005
 5282W        W 9482   9.382   8.634   2.314
 5283W        W 9483   1.435   5.556  11.926
 5284W        W 9484   3.757   1.096   2.980
 5285W        W 9485   9.967   2.749  10.091
 5286W        W 9486   1.170   7.316   2.893
 5287W        W 9487   5.941   5.596   9.060
 5288W        W 9488   6.534   2.860   3.620
 5289W        W 9489   9.724   1.133   2.998
 5290W        W 9490   4.083  11.349   0.873
 5291W        W 9491   0.901  11.047  10.649
 5292W        W 9492   8.316   6.792   0.933
 5293W        W 9493   7.124   7.032  11.938
 5294W        W 9494   9.948  10.872  11.894
 5295W        W 9495   3.732   6.920  11.159
 5296W        W 9496   2.215   8.050   0.579
 5297W        W 9497   9.640   4.213   1.346
 5298W        W 9498  10.634   0.701   1.378
 5299W        W 9499   7.583   7.304   2.290
 5300W        W 9500   1.985   5.324   1.856
 5301W        W 9501  10.565  10.477  11.768
 5302W        W 9502   1.603   6.999   1.913
 5303W        W 9503   8.316   4.029  10.278
 5304W        W 9504   5.644   3.227   2.559
 5305W        W 9505   6.081   0.326   2.249
 5306W        W 9506   9.576   7.684   1.438
 5307W        W 9507   9.901   3.202   9.785
 5308W        W 9508   9.614   4.901   1.720
 5309W        W 9509   8.211   3.673   9.498
 5310W        W 9510   6.671   3.975   1.729
 5311W        W 9511   9.984   8.532  10.721
 5312W        W 9512   8.481  10.266  10.037
 5313W        W 9513   0.318  11.456   9.253
 5314W        W 9514   3.681   3.613  10.971
 5315W        W 9515  11.456  10.721   9.686
 5316W        W 9516   0.175   7.186  11.332
 5317W        W 9517   8.944   9.362  11.417
 5318W        W 9518   2.603   0.837   9.233
 5319W        W 9519   0.537   3.438  10.315
 5320W        W 9520  10.226   2.720   2.098
 5321W        W 9521   5.606   8.541   1.774
 5322W        W 9522   3.958   7.994   1.768
 5323W        W 9523   8.250   3.847   4.006
 5324W        W 9524   1.215   4.052   9.224
 5325W        W 9525   2.262   1.890   9.764
 5326W        W 9526   9.871  10.782   2.241
 5327W        W 9527   5.185   9.837   3.353
 5328W        W 9528   1.963   2.151  11.283
 5329W        W 9529   7.980  10.396   2.422
 5330W        W 9530   1.915   3.199   8.416
 5331W        W 9531   0.397  10.019  10.928
 5332W        W 9532   8.569   3.566   3.134
 5333W        W 9533   9.920   7.677   2.407
 5334W        W 9534   6.551  10.922   9.328
 5335W        W 9535   2.794   5.298  11.340
 5336W        W 9536   4.934   2.529   8.602
 5337W        W 9537   6.726   8.627   0.830
 5338W        W 9538   1.857   6.913   8.763
 5339W        W 9539   3.642   0.150   2.735
 5340W        W 9540   5.016   8.313   8.928
 5341W        W 9541   7.019   9.327   8.594
 5342W        W 9542   1.250   7.577   2.059
 5343W        W 9543   7.993   5.905   0.796
 5344W        W 9544   5.638  10.948   0.951
 5345W        W 9545   0.672   8.784  10.079
 5346W        W 9546   4.003   6.210   1.852
 5347W        W 9547  10.735   7.474   3.520
 5348W        W 9548   1.622   6.664   8.337
 5349W        W 9549   0.311  10.999   9.467
 5350W        W 9550   5.221   4.683   1.671
 5351W        W 9551   2.795   4.822  11.629
 5352W        W 9552   3.150   3.340   1.763
 5353W        W 9553   0.142   7.901   9.999
 5354W        W 9554   6.328   6.487   2.408
 5355W        W 9555   2.213  10.984   1.865
 5356W        W 9556   0.433   0.507   2.436
 5357W        W 9557   9.716   7.040   0.311
 5358W        W 9558   0.885   7.086   1.419
 5359W        W 9559   5.212   1.412   1.696
 5360W        W 9560   1.752   4.810  10.296
 5361W        W 9561   5.775   5.184   0.312
 5362W        W 9562   1.778   8.093   9.624
 5363W        W 9563   1.189   1.903  11.277
 5364W        W 9564  10.968   9.962   9.707
 5365W        W 9565   3.933   9.381   3.391
 5366W        W 9566   6.892   2.613   2.672
 5367W        W 9567   6.373   2.529  10.336
 5368W        W 9568   2.220   1.468   0.074
 5369W        W 9569   1.156   1.312   3.637
 5370W        W 9570   7.725   0.358   3.719
 5371W        W 9571   2.298   5.776   9.138
 5372W        W 9572   8.945   7.476   2.165
 5373W        W 9573  11.247   5.147   1.194
 5374W        W 9574   1.406  10.340   2.919
 5375W        W 9575   2.869   3.221   3.520
 5376W        W 9576  10.456   8.928   2.999
 5377W        W 9577   8.614   7.372   9.448
 5378W        W 9578   1.897   4.539  10.900
 5379W        W 9579  10.090   1.301   1.218
 5380W        W 9580   7.572   1.793   9.589
 5381W        W 9581   3.157   5.612   0.101
 5382W        W 9582   4.050   5.157  11.025
 5383W        W 9583   2.692   3.110   8.996
 5384W        W 9584   0.188   1.806   1.522
 5385W        W 9585   9.792   1.305   0.767
 5386W        W 9586   8.949   0.765   1.891
 5387W        W 9587   7.575   5.059   1.245
 5388W        W 9588   6.711  10.386   2.705
 5389W        W 9589   0.840  10.290  10.087
 5390W        W 9590   0.088   9.373   0.755
 5391W        W 9591   7.663   1.025   9.602
 5392W        W 9592   7.729   6.508   1.816
 5393W        W 9593   8.107   6.682   9.915
 5394W        W 9594   3.710   9.070   2.014
 5395W        W 9595   1.675   8.886  10.915
 5396W        W 9596   7.013   5.999  11.831
 5397W        W 9597   6.216   0.809   2.420
 5398W        W 9598   8.074  10.812   2.711
 5399W        W 9599   0.236   5.472   1.906
 5400W        W 9600   8.094   3.721   1.439
 5401W        W 9601  10.875   1.386   0.007
 5402W        W 9602   8.974   8.581   2.706
 5403W        W 9603   8.457   1.462   9.512
 5404W        W 9604   0.286   7.578  11.718
 5405W        W 9605   7.110   6.688  11.334
 5406W        W 9606   2.316   7.941  10.987
 5407W        W 9607   0.355   1.281  11.839
 5408W        W 9608   3.954   6.301   1.271
 5409W        W 9609   6.657   7.518   3.706
 5410W        W 9610  11.342   8.453   2.186
 5411W        W 9611   9.115  11.412   0.726
 5412W        W 9612   0.166   5.158   0.928
 5413W        W 9613   9.882   0.383  11.842
 5414W        W 9614   5.080   0.241   0.236
 5415W        W 9615   6.236   3.501   2.272
 5416W        W 9616  10.786  10.412   3.360
 5417W        W 9617  11.190   5.254   8.761
 5418W        W 9618   5.693   8.602   3.306
 5419W        W 9619   8.975   3.666   3.454
 5420W        W 9620  11.188   1.506   8.837
 5421W        W 9621   2.739  11.293   0.226
 5422W        W 9622   5.714   2.395   1.021
 5423W        W 9623   5.091   7.737  11.646
 5424W        W 9624   1.193   8.239   0.122
 5425W        W 9625  10.622   7.842   1.414
 5426W        W 9626   7.659   3.061   0.704
 5427W        W 9627  11.413   3.766   3.135
 5428W        W 9628   4.366   5.002   1.417
 5429W        W 9629   0.186   9.236  10.332
 5430W        W 9630   8.741   7.969  10.380
 5431W        W 9631   1.709  10.834   9.412
 5432W        W 9632   9.360   6.634  11.787
 5433W        W 9633   9.135   7.343   9.580
 5434W        W 9634  11.493  11.363   9.819
 5435W        W 9635  10.764   0.225   9.910
 5436W        W 9636   1.974  10.699   8.973
 5437W        W 9637   7.750   6.284   8.250
 5438W        W 9638   0.192   5.533   9.514
 5439W        W 9639  10.832   7.144   8.888
 5440W        W 9640   6.446   2.793   8.973
 5441W        W 9641  10.099   0.739  10.549
 5442W        W 9642   6.802   6.092   1.306
 5443W        W 9643   9.508   3.299   2.271
 5444W        W 9644   5.248   5.805   2.363
 5445W        W 9645   7.306   0.448  10.054
 5446W        W 9646   8.920   0.799   2.402
 5447W        W 9647   3.667   3.600   0.714
 5448W        W 9648   0.202   3.059  10.247
 5449W        W 9649   0.425   8.686  10.889
 5450W        W 9650   7.580   6.474   3.564
 5451W        W 9651   1.294   7.851  10.919
 5452W        W 9652   3.999   1.017   0.423
 5453W        W 9653   9.479   2.796   9.899
 5454W        W 9654   7.286   1.005   0.263
 5455W        W 9655   6.795   0.794   8.404
 5456W        W 9656   5.514   3.769   1.830
 5457W        W 9657   9.529   1.364   1.306
 5458W        W 9658   0.504   7.052   8.996
 5459W        W 9659   0.216   8.718  10.386
 5460W        W 9660   0.296   3.862  11.148
 5461W        W 9661   1.414  10.877  11.781
 5462W        W 9662  10.760   9.346   2.256
 5463W        W 9663   2.027   8.356   3.215
 5464W        W 9664   1.639  10.389   2.133
 5465W        W 9665   4.644   8.132   9.676
 5466W        W 9666   9.473   6.890   9.880
 5467W        W 9667   3.696   5.443  10.337
 5468W        W 9668  11.377   6.047   0.041
 5469W        W 9669   3.352   7.207  10.968
 5470W        W 9670  10.876   8.556   8.647
 5471W        W 9671  10.734   6.987   0.402
 5472W        W 9672   3.342   9.129  11.065
 5473W        W 9673   1.630   9.626  11.472
 5474W        W 9674   5.891   1.518   9.800
 5475W        W 9675   4.891  10.402  10.169
 5476W        W 9676   1.306   5.733   0.384
 5477W        W 9677   2.142   1.752  11.572
 5478W        W 9678   9.829   0.625   3.026
 5479W        W 9679   7.697   9.049   9.909
 5480W        W 9680   7.144   7.124  10.540
 5481W        W 9681  11.473   9.852   8.695
 5482W        W 9682   1.358  10.440   9.975
 5483W        W 9683   5.476  10.728   2.452
 5484W        W 9684   5.009   7.960   3.350
 5485W        W 9685   3.251   0.188  11.457
 5486W        W 9686   2.267   7.494  10.350
 5487W        W 9687   1.484   4.252   2.380
 5488W        W 9688  10.481   2.465   9.930
 5489W        W 9689   4.959   6.407  11.719
 5490W        W 9690   7.077   1.759   1.142
 5491W        W 9691   0.412   0.345   0.515
 5492W        W 9692   8.364   7.195  11.021
 5493W        W 9693   2.357   3.068   2.792
 5494W        W 9694  10.575   6.007   2.189
 5495W        W 9695   4.298  11.377  11.524
 5496W        W 9696   2.414  10.210  11.515
 5497W        W 9697   0.963  11.467   8.570
 5498W        W 9698   9.430   0.785   2.128
 5499W        W 9699   7.697   6.608   8.676
 5500W        W 9700   6.564   8.597   3.830
 5501W        W 9701   2.367   0.391   9.156
 5502W        W 9702   8.488   5.054   9.637
 5503W        W 9703   3.723   0.850   2.065
 5504W        W 9704   1.715   0.369   1.656
 5505W        W 9705   4.268   2.269   9.295
 5506W        W 9706   0.370   8.030   9.117
 5507W        W 9707   9.992  10.030   0.724
 5508W        W 9708   0.416   3.384   1.479
 5509W        W 9709   4.211   0.027  11.000
 5510W        W 9710  11.126   1.431   2.332
 5511W        W 9711   5.102   7.010   1.058
 5512W        W 9712  11.482   5.586   1.425
 5513W        W 9713   1.384   7.072   0.133
 5514W        W 9714   1.409   3.734   1.027
 5515W        W 9715   3.304   7.622   0.795
 5516W        W 9716   6.143   1.688   3.485
 5517W        W 9717   8.419   8.489   3.645
 5518W        W 9718  10.119  10.378   3.549
 5519W        W 9719   9.528   7.735  10.419
 5520W        W 9720   8.047  10.988  10.091
 5521W        W 9721  10.867   8.687  10.018
 5522W        W 9722   2.500   4.324   2.147
 5523W        W 9723   8.682   8.534  11.756
 5524W        W 9724   2.393   6.068  10.439
 5525W        W 9725   2.879   8.905  10.726
 5526W        W 9726   7.124   5.738  11.364
 5527W        W 9727   2.879   9.334   0.289
 5528W        W 9728   5.098   9.074  11.474
 5529W        W 9729   3.443   0.216  10.982
 5530W        W 9730   4.623   4.562   0.496
 5531W        W 9731   0.640   0.519  10.856
 5532W        W 9732   8.404   7.867   3.086
 5533W        W 9733  10.395   5.607   0.906
 5534W        W 9734   1.847   5.690  11.648
 5535W        W 9735   2.035   4.685   9.879
 5536W        W 9736  11.051   5.306   1.952
 5537W        W 9737   4.848  10.441  11.456
 5538W        W 9738   4.414   4.074   3.247
 5539W        W 9739   7.291   2.268   8.827
 5540W        W 9740   3.690   1.822   1.667
 5541W        W 9741   8.399   4.156   9.266
 5542W        W 9742   7.861   3.257   0.244
 5543W        W 9743   4.381   3.252   3.663
 5544W        W 9744   9.015   5.024   1.451
 5545W        W 9745   4.249   7.015   8.767
 5546W        W 9746   7.769   0.920   0.454
 5547W        W 9747   6.112   4.562   1.322
 5548W        W 9748  10.360   6.432   9.990
 5549W        W 9749   5.863   9.402   0.334
 5550W        W 9750   4.171   1.375   0.826
 5551W        W 9751  11.217   9.851  10.187
 5552W        W 9752   7.219   9.539  10.370
 5553W        W 9753   6.020   4.281   2.618
 5554W        W 9754   4.955   2.323   2.699
 5555W        W 9755  10.347   9.495  10.289
 5556W        W 9756   2.595   9.847  11.100
 5557W        W 9757   1.428   1.726   3.113
 5558W        W 9758   5.547   5.379   2.265
 5559W        W 9759   4.888   7.111   1.523
 5560W        W 9760   0.374   1.302  11.304
 5561W        W 9761   5.575   4.636   9.016
 5562W        W 9762   5.916   6.512   9.454
 5563W        W 9763   0.238   6.803   2.094
 5564W        W 9764   9.911  10.473   1.233
 5565W        W 9765   2.306   3.348   1.326
 5566W        W 9766   4.903   9.132   8.478
 5567W        W 9767   8.539   3.866   1.743
 5568W        W 9768   1.509   4.817   2.684
 5569W        W 9769   6.233  11.464   1.408
 5570W        W 9770   1.870   6.923   3.143
 5571W        W 9771   3.160   3.606   0.771
 5572W        W 9772   7.689   9.207   1.304
 5573W        W 9773   7.879   8.073  10.214
 5574W        W 9774   9.573  11.393   0.988
 5575W        W 9775   6.760   6.561   9.945
 5576W        W 9776   3.048   5.519   2.458
 5577W        W 9777   7.325   8.569   2.774
 5578W        W 9778   3.398  10.928  10.805
 5579W        W 9779   8.038   1.316   1.257
 5580W        W 9780   5.929   3.071   0.321
 5581W        W 9781  11.271   1.018   3.559
 5582W        W 9782  10.313   3.707   1.707
 5583W        W 9783   4.605   3.363  10.035
 5584W        W 9784   8.503   7.664   9.048
 5585W        W 9785   7.728   5.248   8.515
 5586W        W 9786   1.723   3.144   2.260
 5587W        W 9787   3.142   7.034   9.892
 5588W        W 9788   2.274   2.443   1.683
 5589W        W 9789   9.499   7.394   9.960
 5590W        W 9790   7.492   0.240  11.152
 5591W        W 9791   6.633   2.339   1.380
 5592W        W 9792   8.640   7.637   9.892
 5593W        W 9793  10.975   3.588   0.458
 5594W        W 9794   3.596   2.345   0.468
 5595W        W 9795   8.131   6.602  11.287
 5596W        W 9796   6.941   0.342   1.123
 5597W        W 9797   0.920   5.725   8.993
 5598W        W 9798  10.291   5.656   2.436
 5599W        W 9799   4.202   6.917  11.329
 5600W        W 9800   0.115   0.744  10.817
 5601W        W 9801   1.453  11.367   0.844
 5602W        W 9802  10.007   0.305   9.133
 5603W        W 9803   2.251   1.922   8.721
 5604W        W 9804   1.386   1.426   1.774
 5605W        W 9805   9.129   9.955   3.115
 5606W        W 9806   8.630   1.157  11.021
 5607W        W 9807   9.290   2.663   2.547
 5608W        W 9808   9.187  11.468   0.206
 5609W        W 9809   7.520   8.769   9.145
 5610W        W 9810   2.772   1.593   1.503
 5611W        W 9811  10.700  10.604   2.889
 5612W        W 9812  10.453   8.221   3.463
 5613W        W 9813   8.372   7.920   1.360
 5614W        W 9814   2.168   0.679   2.831
 5615W        W 9815   6.439   1.167  11.204
 5616W        W 9816   7.223   6.476   1.742
 5617W        W 9817   5.414   5.275   9.544
 5618W        W 9818   0.121   1.619   2.730
 5619W        W 9819   3.181   2.819   9.927
 5620W        W 9820   3.011   4.719   2.977
 5621W        W 9821   2.047   5.147   0.664
 5622W        W 9822   6.033   9.432   9.563
 5623W        W 9823   9.039   5.130   2.398
 5624W        W 9824   8.460   0.415   1.243
 5625W        W 9825  10.344   6.470  11.010
 5626W        W 9826   7.090   8.432  11.065
 5627W        W 9827   4.050   4.751  10.710
 5628W        W 9828   2.336   7.723   8.975
 5629W        W 9829   6.555   3.074   4.133
 5630W        W 9830  11.229  11.041  11.055
 5631W        W 9831  11.499   3.451   9.077
 5632W        W 9832   3.007   8.366   9.036
 5633W        W 9833   6.234   9.333  11.992
 5634W        W 9834   2.253   2.817   9.835
 5635W        W 9835   9.894   6.159  11.461
 5636W        W 9836   8.699   6.596   1.771
 5637W        W 9837  10.424  10.467  10.794
 5638W        W 9838  10.043   4.087   0.894
 5639W        W 9839   7.023   0.764   3.155
 5640W        W 9840  10.405   4.512   2.879
 5641W        W 9841   8.753   2.302   1.813
 5642W        W 9842   9.206   3.835   9.421
 5643W        W 9843   5.490   5.038   9.988
 5644W        W 9844   6.942  10.772   2.363
 5645W        W 9845   3.519   7.724  11.947
 5646W        W 9846   0.226   2.717   1.520
 5647W        W 9847   1.844   8.186   1.994
 5648W        W 9848   9.143   9.069   9.786
 5649W        W 9849   1.193   4.805  11.474
 5650W        W 9850  11.376   9.827   9.217
 5651W        W 9851   8.594   9.345  10.629
 5652W        W 9852   7.970   2.330  10.731
 5653W        W 9853   0.501   8.044  11.828
 5654W        W 9854   4.468   2.816  10.654
 5655W        W 9855   8.923   1.568  11.187
 5656W        W 9856   3.485   3.798   1.174
 5657W        W 9857   6.442   3.528   0.873
 5658W        W 9858   6.573   2.849   1.361
 5659W        W 9859  10.447   3.291  10.619
 5660W        W 9860   3.704   8.287  11.294
 5661W        W 9861   4.138   6.579   0.769
 5662W        W 9862   4.740   0.316  10.338
 5663W        W 9863  10.056   0.110  11.428
 5664W        W 9864  10.988  11.256   9.930
 5665W        W 9865   0.818   5.059   3.234
 5666W        W 9866  10.077   1.366   2.454
 5667W        W 9867   8.884   4.177   0.265
 5668W        W 9868   0.760   9.909   3.269
 5669W        W 9869  10.861   9.641   2.670
 5670W        W 9870   3.434   3.147   0.883
 5671W        W 9871  11.023   7.020   3.585
 5672W        W 9872   1.282   2.336   2.781
 5673W        W 9873   2.144  10.854   1.368
 5674W        W 9874   7.164  10.329   2.456
 5675W        W 9875   3.423  11.070   9.924
 5676W        W 9876   2.218   3.329   9.650
 5677W        W 9877   3.493   3.974  10.625
 5678W        W 9878   1.888   5.538   9.362
 5679W        W 9879   8.672   5.188   2.874
 5680W        W 9880   5.541   7.357   9.791
 5681W        W 9881   4.318   7.532   0.780
 5682W        W 9882   0.947   2.689   2.649
 5683W        W 9883   0.202   6.830  10.509
 5684W        W 9884   5.482   4.087   4.056
 5685W        W 9885   8.186   8.078   8.958
 5686W        W 9886   8.888   5.472  10.232
 5687W        W 9887   7.476   2.369  10.499
 5688W        W 9888   7.708  11.236   9.782
 5689W        W 9889   0.200   5.232   8.988
 5690W        W 9890   1.891   6.985   1.457
 5691W        W 9891   0.946   5.275   2.169
 5692W        W 9892   7.637   0.570   1.774
 5693W        W 9893  11.412   5.690   9.940
 5694W        W 9894   2.624  11.250   9.514
 5695W        W 9895  10.865   7.165   9.999
 5696W        W 9896   3.744   4.756   2.255
 5697W        W 9897   4.680   9.944   0.500
 5698W        W 9898   7.874   1.547  11.926
 5699W        W 9899   0.746   0.423   8.668
 5700W        W 9900  11.333   0.027  11.293
 5701W        W 9901   0.456   7.994   0.605
 5702W        W 9902  10.235  11.327  10.304
 5703W        W 9903   1.441   4.242   0.232
 5704W        W 9904   4.923   1.305   3.259
 5705W        W 9905   7.675   8.988  10.924
 5706W        W 9906   6.862   8.844   8.537
 5707W        W 9907   3.679   5.489  10.856
 5708W        W 9908   4.938   4.339  10.505
 5709W        W 9909   0.383   8.777   0.323
 5710W        W 9910   6.950   4.583  10.341
 5711W        W 9911   8.223   9.597   8.798
 5712W        W 9912   5.023   2.901  10.623
 5713W        W 9913   9.755   4.564  10.633
 5714W        W 9914  11.145   8.478  10.418
 5715W        W 9915   4.458   8.001   1.900
 5716W        W 9916   6.421   1.315   1.238
 5717W        W 9917   1.435   9.089   1.213
 5718W        W 9918   9.912   6.454   3.575
 5719W        W 9919   1.312   7.158   2.330
 5720W        W 9920   8.067   4.151   1.087
 5721W        W 9921   4.798   5.243   1.871
 5722W        W 9922   0.394   3.480   9.423
 5723W        W 9923   6.961   1.714   2.123
 5724W        W 9924   4.434  10.289   0.891
 5725W        W 9925  10.031   8.088   9.821
 5726W        W 9926  10.295   3.975  11.985
 5727W        W 9927   8.409   6.171   1.705
 5728W        W 9928  11.287   3.407   0.860
 5729W        W 9929   4.464   6.319   1.146
 5730W        W 9930   0.023   8.553   0.642
 5731W        W 9931   8.829   1.146   3.387
 5732W        W 9932   3.875   7.116   1.487
 5733W        W 9933   9.032   4.324   0.733
 5734W        W 9934   7.749   1.475   1.658
 5735W        W 9935  11.359  10.125  11.629
 5736W        W 9936   4.163   5.059   2.344
 5737W        W 9937   8.931   7.562   1.670
 5738W        W 9938   3.179   7.706   9.434
 5739W        W 9939   2.293   4.788   0.963
 5740W        W 9940   1.418  11.436   8.819
 5741W        W 9941   1.431  11.316  11.540
 5742W        W 9942   7.141   2.933   8.822
 5743W        W 9943  11.183   9.277  10.998
 5744W        W 9944   0.431   3.736   3.222
 5745W        W 9945   1.016   8.471  10.311
 5746W        W 9946   8.815   5.991   8.349
 5747W        W 9947   6.362   0.808  10.690
 5748W        W 9948   5.507   3.710   8.142
 5749W        W 9949   9.547   8.641   3.240
 5750W        W 9950   5.909   3.383   1.885
 5751W        W 9951   2.279   8.443  10.314
 5752W        W 9952   5.711   9.105   3.554
 5753W        W 9953   3.613   1.887   9.499
 5754W        W 9954   1.342   4.737   2.198
 5755W        W 9955   6.082   8.322   2.693
 5756W        W 9956  10.377   6.594   3.380
 5757W        W 9957   0.304  10.561   9.159
 5758W        W 9958   9.562   5.544   1.129
 5759W        W 9959   8.525   0.970   2.078
 5760W        W 9960   2.903   7.874   1.329
 5761W        W 9961   0.089  10.579  11.732
 5762W        W 9962   5.187   0.965  11.439
 5763W        W 9963   9.069   7.599   2.653
 5764W        W 9964   2.271   0.857  10.848
 5765W        W 9965   6.298  10.521  10.765
 5766W        W 9966   3.525   3.803   3.547
 5767W        W 9967  10.575   9.991  10.986
 5768W        W 9968   6.158   1.745  11.020
 5769W        W 9969   8.105   7.676  11.189
 5770W        W 9970   2.170   8.894  11.037
 5771W        W 9971   8.929   6.032   0.788
 5772W        W 9972  10.183   4.258  10.594
 5773W        W 9973   3.276   9.071   9.062
 5774W        W 9974  10.500   9.033   8.767
 5775W        W 9975  10.043   9.010   2.171
 5776W        W 9976  10.319   5.376  10.614
 5777W        W 9977   1.676   3.804   2.827
 5778W        W 9978  11.266  10.278   0.620
 5779W        W 9979   1.938  11.438   1.841
 5780W        W 9980   4.523  10.913  11.449
 5781W        W 9981   2.765   2.061   9.041
 5782W        W 9982   6.149   9.078   2.305
 5783W        W 9983   8.975   0.365   2.691
 5784W        W 9984   9.550   6.444   9.593
 5785W        W 9985   1.374   3.830  10.957
 5786W        W 9986   7.425   7.610  11.716
 5787W        W 9987   0.986   3.669  10.387
 5788W        W 9988   4.904   7.200   0.579
 5789W        W 9989  10.428  10.791   2.471
 5790W        W 9990   3.317   3.756   9.776
 5791W        W 9991   1.724  11.340   3.603
 5792W        W 9992   7.224   7.517   0.986
 5793W        W 9993   3.134  10.803  11.279
 5794W        W 9994   0.290  10.069   1.401
 5795W        W 9995   8.622   1.986   1.442
 5796W        W 9996   5.167   1.939  10.944
 5797W        W 9997   4.701   6.060  10.772
 5798W        W 9998  10.069   7.596   1.353
 5799W        W 9999   2.360   9.859   2.335
 5800W        W10000  10.353   4.964   8.848
 5801W        W10001   4.683  10.557   1.845
 5802W        W10002   6.994   0.375   0.125
 5803W        W10003   0.601  11.350  11.779
 5804W        W10004   9.208   5.214  11.332
 5805W        W10005   8.026   5.661   8.683
 5806W        W10006   8.560  11.032   1.777
 5807W        W10007   2.513   4.768   2.881
 5808W        W10008   3.716   3.071   9.045
 5809W        W10009   3.476   9.468   3.611
 5810W        W10010   2.596   9.349   0.739
 5811W        W10011   2.673   4.298  10.273
 5812W        W10012   3.692   4.247   2.170
 5813W        W10013   8.462   9.574   0.159
 5814W        W10014   7.721   6.437   9.165
 5815W        W10015   1.917   0.985   0.745
 5816W        W10016   8.974  10.882   2.543
 5817W        W10017   2.838   5.560  10.769
 5818W        W10018  10.885  10.533   0.868
 5819W        W10019   5.644  10.143   9.861
 5820W        W10020   5.628   9.579   3.223
 5821W        W10021   6.503   1.253   2.343
 5822W        W10022   6.106   1.504   8.973
 5823W        W10023   0.867   4.862   8.512
 5824W        W10024   8.695   4.740   9.283
 5825W        W10025   6.209   1.669   2.968
 5826W        W10026   6.666   0.582  11.765
 5827W        W10027   4.686   1.321   0.811
 5828W        W10028   9.452   8.770  10.833
 5829W        W10029   2.649   9.017  11.163
 5830W        W10030   3.648   2.363   1.942
 5831W        W10031   0.020   8.939   2.354
 5832W        W10032   1.845   8.710   1.898
 5833W        W10033   8.943   8.449  11.034
 5834W        W10034   8.052   4.789   1.717
 5835W        W10035   7.106   6.492   1.181
 5836W        W10036   5.967   8.480   0.324
 5837W        W10037   9.900   1.864   2.495
 5838W        W10038   8.646   6.462   9.121
 5839W        W10039   6.223   3.644   3.150
 5840W        W10040   2.576   8.808   1.286
 5841W        W10041   3.669   9.949   1.337
 5842W        W10042   0.876   4.609  11.807
 5843W        W10043  11.412   3.655  11.466
 5844W        W10044  10.482   5.707  11.920
 5845W        W10045   7.496   4.081   9.811
 5846W        W10046   7.904   7.934   3.169
 5847W        W10047   1.461   9.890   9.285
 5848W        W10048  10.494   0.041   2.816
 5849W        W10049   2.230  10.659   0.878
 5850W        W10050   2.887   3.440  11.356
 5851W        W10051  11.428   1.063  11.298
 5852W        W10052   8.291   3.728   0.855
 5853W        W10053   5.234   9.741   1.168
 5854W        W10054   0.328   7.486   9.290
 5855W        W10055  10.411   4.218   1.789
 5856W        W10056   8.941   0.134   8.778
 5857W        W10057   0.373   8.357   1.476
 5858W        W10058  10.779   1.819   1.238
 5859W        W10059   1.173  10.335   2.326
 5860W        W10060  10.076   3.256  11.440
 5861W        W10061   6.415   7.818  10.897
 5862W        W10062   6.056   4.334   0.847
 5863W        W10063   6.642   1.287   0.434
 5864W        W10064   7.998   4.259  11.116
 5865W        W10065   8.722   5.820  10.561
 5866W        W10066   7.413   8.291  10.067
 5867W        W10067   8.934   8.074   9.898
 5868W        W10068   6.739  11.422   1.351
 5869W        W10069   1.625   6.167   9.523
 5870W        W10070   1.694   0.943  10.147
 5871W        W10071   1.656   2.508   3.555
 5872W        W10072   6.843   1.398   1.498
 5873W        W10073   5.224   2.155  11.850
 5874W        W10074  11.360   0.402  11.729
 5875W        W10075   2.277   8.976   2.015
 5876W        W10076   8.911   8.514   2.190
 5877W        W10077   3.901   7.033   3.261
 5878W        W10078  10.837   5.876   3.610
 5879W        W10079   2.498   7.060  10.501
 5880W        W10080  10.474   5.640   1.408
 5881W        W10081   3.200   5.622  11.529
 5882W        W10082   7.938   6.998   9.574
 5883W        W10083   6.681   0.322   3.044
 5884W        W10084   9.366   3.200   8.494
 5885W        W10085   4.706   7.044   9.023
 5886W        W10086   5.095   7.158  10.991
 5887W        W10087   8.328   4.815   2.170
 5888W        W10088  11.320   4.793   0.291
 5889W        W10089   2.349   8.656   2.934
 5890W        W10090   6.473   8.011   8.672
 5891W        W10091  11.050   2.835   1.873
 5892W        W10092   6.527   8.480   9.899
 5893W        W10093   5.563   3.273   9.814
 5894W        W10094  10.523   5.546  11.036
 5895W        W10095  10.286   0.288   1.342
 5896W        W10096   3.411  10.192   0.652
 5897W        W10097   4.917   1.155  10.517
 5898W        W10098   2.666  10.973  11.258
 5899W        W10099   7.534  10.176  11.918
 5900W        W10100   2.111   6.660   0.359
 5901W        W10101  10.377   1.061   9.693
 5902W        W10102   7.331   8.322   1.433
 5903W        W10103   2.542   8.874  10.355
 5904W        W10104   2.689   5.824   1.606
 5905W        W10105   7.512   9.551   2.802
 5906W        W10106   8.646   3.282   2.649
 5907W        W10107   6.493  11.381   2.839
 5908W        W10108   5.295   4.767   9.422
 5909W        W10109   1.678   9.755  10.100
 5910W        W10110   0.270   7.622   2.753
 5911W        W10111   2.882  10.454   1.398
 5912W        W10112  10.403   3.817   1.215
 5913W        W10113   6.217   8.179   9.081
 5914W        W10114   9.507   0.229   0.599
 5915W        W10115   6.073   7.017   1.684
 5916W        W10116   4.483  10.495  10.583
 5917W        W10117   0.377  11.028   8.969
 5918W        W10118  11.072   1.854   0.792
 5919W        W10119   3.384   9.772   0.946
 5920W        W10120   5.427   1.058  10.435
 5921W        W10121   6.569   9.531   1.632
 5922W        W10122   6.255   1.887   8.413
 5923W        W10123   0.296   8.480   8.799
 5924W        W10124   1.665   3.139  11.945
 5925W        W10125   9.052   8.510   3.229
 5926W        W10126   4.643   8.750   9.783
 5927W        W10127   9.293   2.841   8.903
 5928W        W10128   7.255  11.476   1.324
 5929W        W10129   6.295   8.820   0.029
 5930W        W10130   9.453   6.149   8.719
 5931W        W10131  10.007   4.570   1.788
 5932W        W10132   1.745   1.986   3.552
 5933W        W10133   1.042   2.302   3.581
 5934W        W10134  11.265   9.464  10.520
 5935W        W10135   2.608   1.105   8.797
 5936W        W10136  10.885   4.724   9.960
 5937W        W10137   2.127   6.805  10.758
 5938W        W10138   7.140   7.954  11.962
 5939W        W10139   1.443  10.891  10.741
 5940W        W10140   9.263   7.491  11.918
 5941W        W10141   4.221   8.460   1.837
 5942W        W10142  10.010   5.776   1.222
 5943W        W10143   4.487  10.696   2.307
 5944W        W10144  10.075   2.657  11.966
 5945W        W10145   2.755   8.481   2.024
 5946W        W10146  10.513   4.552  10.293
 5947W        W10147   7.406   9.874  10.989
 5948W        W10148   4.226  11.181   2.270
 5949W        W10149   8.232   8.586   0.811
 5950W        W10150   8.967   6.768   0.496
 5951W        W10151   6.711   1.865   9.809
 5952W        W10152   1.607   0.670   0.426
 5953W        W10153   9.171   6.733   2.658
 5954W        W10154   9.003   7.394   0.810
 5955W        W10155   7.116   5.565   9.966
 5956W        W10156   2.647   9.945   1.346
 5957W        W10157  11.318   0.673   0.161
 5958W        W10158   7.122   2.531   0.256
 5959W        W10159   5.303   5.256   1.478
 5960W        W10160   5.219   0.224  10.177
 5961W        W10161  11.016   8.883   2.277
 5962W        W10162   0.681   9.245   8.878
 5963W        W10163   7.487   1.840   2.465
 5964W        W10164  10.983   5.978   8.968
 5965W        W10165   2.653  11.462   2.784
 5966W        W10166   0.694   4.119  11.534
 5967W        W10167   8.880   5.583  11.022
 5968W        W10168  11.180   7.215  11.482
 5969W        W10169   5.785   6.983  10.068
 5970W        W10170   9.202   2.336   3.487
 5971W        W10171   1.783  11.290   2.306
 5972W        W10172   6.933   2.233  10.085
 5973W        W10173  10.445   7.518   8.869
 5974W        W10174   0.895   0.223   1.648
 5975W        W10175   8.601   8.981  11.478
 5976W        W10176   1.409   9.851   2.002
 5977W        W10177   4.274   4.335   2.816
 5978W        W10178  10.066   5.074   1.947
 5979W        W10179  10.388  11.084  11.613
 5980W        W10180  10.615   3.164   2.880
 5981W        W10181  10.972   7.673  10.796
 5982W        W10182   7.030   7.137  11.048
 5983W        W10183   9.356   9.524  11.691
 5984W        W10184  10.600   8.010   0.898
 5985W        W10185   5.049   5.232  10.957
 5986W        W10186   1.588   1.945   2.645
 5987W        W10187   1.458   4.506   1.088
 5988W        W10188   9.247   7.065  11.517
 5989W        W10189   0.189   9.438   2.607
 5990W        W10190   1.066   6.687   0.320
 5991W        W10191  11.425   1.504  11.565
 5992W        W10192   6.252   8.984   9.402
 5993W        W10193   3.835  10.822   2.307
 5994W        W10194   6.152   5.704  11.752
 5995W        W10195   5.543   1.839   2.673
 5996W        W10196   2.506   8.962   9.469
 5997W        W10197  10.028  10.958   0.435
 5998W        W10198  10.010   8.547   3.443
 5999W        W10199   7.145   6.958   3.409
 6000W        W10200   4.194  10.014  10.273
 6001W        W10201   3.317  10.343  11.301
 6002W        W10202   3.017   6.227   1.600
 6003W        W10203   2.738   0.416   3.006
 6004W        W10204   6.145  11.005  11.935
 6005W        W10205   8.003   6.098   1.999
 6006W        W10206   4.547   4.320  11.374
 6007W        W10207   5.046   0.182   0.749
 6008W        W10208   4.058   9.699  11.061
 6009W        W10209   9.950   8.552   2.943
 6010W        W10210   5.134   3.601   3.215
 6011W        W10211  10.440   1.931  10.058
 6012W        W10212   2.705   5.494   3.570
 6013W        W10213   7.666   9.859  10.513
 6014W        W10214   8.267   5.578   1.207
 6015W        W10215   3.882   0.771  11.750
 6016W        W10216   1.041   7.062   3.632
 6017W        W10217   2.343   7.944   3.250
 6018W        W10218   0.510   7.932   3.584
 6019W        W10219   7.926   1.432   9.751
 6020W        W10220   1.352   2.532   8.793
 6021W        W10221   8.260   8.065  10.552
 6022W        W10222  10.849   0.986   2.225
 6023W        W10223   0.496   1.908   1.002
 6024W        W10224   9.374   9.617   9.423
 6025W        W10225   7.932   5.176   2.268
 6026W        W10226   8.798   4.598   2.267
 6027W        W10227   5.131   3.707   0.204
 6028W        W10228   9.294   7.132   2.346
 6029W        W10229   8.368   0.449   9.430
 6030W        W10230   7.904  11.251   0.763
 6031W        W10231   1.008   7.312  10.929
 6032W        W10232   9.115   5.164   9.887
 6033W        W10233   6.528  10.261   0.317
 6034W        W10234   6.990   3.595   2.681
 6035W        W10235   6.207  11.431   1.915
 6036W        W10236   6.060   9.497   3.533
 6037W        W10237   1.488   8.856   3.617
 6038W        W10238   5.529   9.552   0.772
 6039W        W10239  11.013   3.220   9.123
 6040W        W10240   0.724   6.523   3.501
 6041W        W10241   0.001   5.352  11.228
 6042W        W10242   2.721   4.026   2.512
 6043W        W10243   9.775   3.086   0.023
 6044W        W10244   7.098   4.446  10.841
 6045W        W10245   3.807   6.966   0.628
 6046W        W10246   7.451   6.589   2.244
 6047W        W10247  11.037  10.972   9.524
 6048W        W10248   6.986   8.638  11.544
 6049W        W10249   4.637   7.214   1.042
 6050W        W10250   1.727   0.305   2.153
 6051W        W10251   5.503   4.552   9.838
 6052W        W10252  10.408   3.047  11.087
 6053W        W10253  10.188   7.043   1.406
 6054W        W10254   2.438   8.630   9.871
 6055W        W10255   8.429   0.302  10.992
 6056W        W10256  10.969   5.395   3.482
 6057W        W10257  10.598   1.400   2.415
 6058W        W10258   9.594   8.237   0.888
 6059W        W10259   3.671   9.482  11.324
 6060W        W10260   6.588   0.337  10.554
 6061W        W10261   3.655   5.769   9.933
 6062W        W10262   6.977   1.750  11.761
 6063W        W10263   9.851   8.144  10.327
 6064W        W10264  10.368   3.985   2.572
 6065W        W10265   8.245   2.184   2.768
 6066W        W10266  10.219   2.181  11.403
 6067W        W10267   2.407  10.474   3.112
 6068W        W10268   3.777   9.806  10.077
 6069W        W10269   8.636   1.010   8.604
 6070W        W10270   2.593   4.868   1.788
 6071W        W10271   6.045   3.259   2.856
 6072W        W10272   2.689   3.390   9.438
 6073W        W10273  10.019   7.680  10.620
 6074W        W10274   6.912   5.870  10.915
 6075W        W10275   5.932  10.809   2.223
 6076W        W10276   4.491   7.665   1.272
 6077W        W10277   9.625  11.066   1.424
 6078W        W10278   5.926   5.035   2.237
 6079W        W10279   9.940   2.216   9.394
 6080W        W10280   4.558   4.467   4.055
 6081W        W10281   9.076   8.231   0.965
 6082W        W10282   6.062   8.501  10.764
 6083W        W10283  10.170  10.373   2.128
 6084W        W10284   6.285   8.492   8.657
 6085W        W10285   7.691   3.488   1.183
 6086W        W10286   1.838   1.731   2.237
 6087W        W10287   3.121  11.349   9.611
 6088W        W10288   8.964   0.686  11.758
 6089W        W10289   0.782   9.270   9.847
 6090W        W10290   9.351   4.744   0.814
 6091W        W10291   2.208   5.735   1.454
 6092W        W10292   0.766   4.307   9.087
 6093W        W10293   8.920   3.913   8.999
 6094W        W10294   0.289   9.776   0.434
 6095W        W10295   1.881   7.759   8.660
 6096W        W10296   4.859   8.930   1.018
 6097W        W10297  10.880   5.056   9.554
 6098W        W10298   7.373   9.649   9.300
 6099W        W10299   4.266   9.462   2.513
 6100W        W10300  11.086   4.309   1.027
 6101W        W10301   0.895   4.185   2.183
 6102W        W10302   5.793   6.161  10.227
 6103W        W10303   3.455   9.525   9.810
 6104W        W10304   9.939   1.715   1.535
 6105W        W10305   9.501   5.370   0.153
 6106W        W10306   2.842   5.732   0.711
 6107W        W10307   6.987   4.727  11.655
 6108W        W10308   8.772   8.576   1.713
 6109W        W10309   3.903   9.822   0.872
 6110W        W10310   9.562   3.750  11.354
 6111W        W10311   3.670   0.240  10.523
 6112W        W10312   4.625   6.996  11.053
 6113W        W10313   7.831   0.861  11.241
 6114W        W10314   8.487  11.277  10.039
 6115W        W10315   2.783  10.638   0.176
 6116W        W10316   8.974   2.824  10.606
 6117W        W10317   4.437  10.927   3.397
 6118W        W10318  10.322  10.643  11.323
 6119W        W10319   3.737   8.095   0.313
 6120W        W10320   2.847   8.188  11.485
 6121W        W10321   4.719   3.305  10.544
 6122W        W10322   1.163   8.962   9.741
 6123W        W10323  10.119   1.453  11.344
 6124W        W10324   6.246   1.361   9.474
 6125W        W10325   0.480   7.843  10.413
 6126W        W10326   3.112   8.900   0.435
 6127W        W10327   3.347   0.437   0.511
 6128W        W10328   5.192   8.164   9.415
 6129W        W10329  11.211   2.788   9.348
 6130W        W10330   9.341  10.523   2.325
 6131W        W10331   9.017  10.448   3.310
 6132W        W10332   0.347   8.853  11.372
 6133W        W10333   2.164   2.396   9.536
 6134W        W10334   8.030   0.377   1.490
 6135W        W10335   9.703  11.450   9.427
 6136W        W10336   1.698   4.810  11.540
 6137W        W10337   1.965  10.554   1.771
 6138W        W10338   8.138   8.914   0.340
 6139W        W10339   6.262   6.627   1.942
 6140W        W10340   4.212   4.626  11.762
 6141W        W10341   7.094   8.927   0.610
 6142W        W10342   4.199   2.740   3.610
 6143W        W10343   2.997   3.734   3.655
 6144W        W10344   3.749   8.842   9.228
 6145W        W10345   6.435   0.464   0.206
 6146W        W10346   6.153  11.272   2.389
 6147W        W10347   5.157   6.585   0.681
 6148W        W10348   5.173  11.039   2.722
 6149W        W10349   2.734   0.195  10.436
 6150W        W10350   7.708  10.765   2.170
 6151W        W10351   8.144  11.031   1.417
 6152W        W10352   5.456   8.044  10.755
 6153W        W10353  10.291   1.298   0.697
 6154W        W10354   5.590   8.546   3.792
 6155W        W10355   9.526   2.517   0.596
 6156W        W10356   5.185   4.469   2.858
 6157W        W10357   0.919   3.172   3.615
 6158W        W10358   2.360  11.148   0.973
 6159W        W10359   3.643   6.906  10.660
 6160W        W10360   6.612   5.628  10.095
 6161W        W10361   6.437   2.388  11.451
 6162W        W10362   1.986   8.446  10.886
 6163W        W10363   1.194   9.445   9.511
 6164W        W10364   6.306   7.182   0.437
 6165W        W10365   8.838   1.679   0.181
 6166W        W10366   9.780   2.831   2.344
 6167W        W10367   4.027   4.626   1.392
 6168W        W10368   5.495  10.047   2.972
 6169W        W10369   6.195  10.229   9.011
 6170W        W10370   7.012  10.955   9.046
 6171W        W10371   5.751   2.830   2.888
 6172W        W10372   1.160   1.675  11.751
 6173W        W10373  11.487   9.103  11.952
 6174W        W10374   7.885   5.466  11.889
 6175W        W10375   5.593   7.127  11.125
 6176W        W10376   4.296   2.054   8.803
 6177W        W10377   6.174   6.483   1.472
 6178W        W10378   3.280   9.957   2.808
 6179W        W10379   0.721   1.148   0.197
 6180W        W10380   0.282  10.059   9.039
 6181W        W10381   7.140   9.995   9.599
 6182W        W10382  10.918   6.236   2.500
 6183W        W10383   6.654  10.345   2.205
 6184W        W10384  10.838   3.426   9.619
 6185W        W10385   7.933   1.310  10.261
 6186W        W10386   9.825   4.230   9.813
 6187W        W10387   7.296   0.730   2.303
 6188W        W10388   0.967   7.990   2.537
 6189W        W10389  10.388   9.904   9.976
 6190W        W10390   3.732   6.483   0.358
 6191W        W10391   5.351   5.478   2.745
 6192W        W10392   1.859   4.096   1.351
 6193W        W10393   9.104  10.736   8.957
 6194W        W10394  10.070   1.753   9.073
 6195W        W10395  10.280   0.738   3.309
 6196W        W10396   1.339   6.593  11.348
 6197W        W10397   6.518   1.751   9.283
 6198W        W10398   9.328   0.485   8.750
 6199W        W10399   6.605  10.534   9.665
 6200W        W10400   1.789   8.529  10.417
 6201W        W10401   6.566   4.201   0.251
 6202W        W10402   0.731   4.561   3.425
 6203W        W10403   9.319   4.144  11.994
 6204W        W10404   6.715   9.444   1.157
 6205W        W10405   9.936  10.585   1.737
 6206W        W10406   2.123   7.600   0.249
 6207W        W10407   8.887   1.019   2.882
 6208W        W10408   8.515  10.367   3.155
 6209W        W10409   6.972  11.445  11.871
 6210W        W10410   3.385   9.903   1.778
 6211W        W10411   6.200   8.593   0.853
 6212W        W10412  11.205   7.914  10.360
 6213W        W10413  11.247   0.859   3.053
 6214W        W10414   7.732   0.754  10.027
 6215W        W10415   8.144   5.414   0.745
 6216W        W10416   9.065   5.684   1.125
 6217W        W10417   6.128   7.570   3.612
 6218W        W10418   8.835   1.453   0.886
 6219W        W10419   5.971  11.350  10.379
 6220W        W10420   5.966   8.094   8.620
 6221W        W10421   8.463   7.411   2.320
 6222W        W10422   4.582   0.059  11.990
 6223W        W10423  10.007   3.308   2.267
 6224W        W10424   8.712   8.398   9.580
 6225W        W10425  11.351   3.199   2.143
 6226W        W10426   0.694   1.655   0.018
 6227W        W10427   4.889   2.299   0.622
 6228W        W10428   9.332   8.331   3.639
 6229W        W10429  10.284   2.681  11.450
 6230W        W10430  10.582   8.095   9.162
 6231W        W10431   8.593   8.772   3.262
 6232W        W10432   0.928  10.298  11.849
 6233W        W10433   8.193   5.965  10.486
 6234W        W10434   2.103  10.037   3.660
 6235W        W10435   3.617   7.235   0.083
 6236W        W10436   4.745   9.909  11.442
 6237W        W10437   0.368  10.301  10.497
 6238W        W10438   9.295   0.571  10.954
 6239W        W10439   5.044   1.813   2.776
 6240W        W10440   2.004  10.224   0.741
 6241W        W10441   1.001   6.064  10.793
 6242W        W10442   4.901   7.525   3.058
 6243W        W10443   5.455   0.473   3.248
 6244W        W10444   7.928   0.489  10.877
 6245W        W10445   4.559   3.220   1.691
 6246W        W10446   2.276   6.724   1.790
 6247W        W10447   9.337   1.438   0.020
 6248W        W10448   3.788   0.321   1.906
 6249W        W10449   7.490   3.563  10.007
 6250W        W10450   4.536   7.512  11.817
 6251W        W10451   4.596   3.886  10.040
 6252W        W10452   5.752   5.668   9.540
 6253W        W10453   8.875  10.279  11.526
 6254W        W10454   5.471   1.370  11.507
 6255W        W10455   5.204   0.485   9.747
 6256W        W10456  11.456   6.891   2.653
 6257W        W10457   1.921   8.109  11.305
 6258W        W10458   5.984   5.344   0.749
 6259W        W10459  10.863   7.293  10.490
 6260W        W10460   5.656   8.073   1.522
 6261W        W10461   0.873  11.002   2.767
 6262W        W10462   0.812   6.384  11.995
 6263W        W10463   1.327  11.238   2.675
 6264W        W10464   7.305   6.892   1.421
 6265W        W10465   4.747   9.321  11.209
 6266W        W10466   8.914   9.014   2.052
 6267W        W10467   8.584   4.557   0.434
 6268W        W10468   8.895   4.235   1.682
 6269W        W10469   7.856   3.538   3.649
 6270W        W10470   5.620   8.020   0.991
 6271W        W10471   0.877   9.677  11.023
 6272W        W10472   9.912  11.465   2.168
 6273W        W10473   1.809   0.392   3.138
 6274W        W10474   9.063   6.232  11.148
 6275W        W10475   9.883  10.454  10.598
 6276W        W10476   7.833   5.603   2.586
 6277W        W10477  11.329   6.515   2.300
 6278W        W10478   0.147   2.195  10.308
 6279W        W10479   3.536   4.257  11.498
 6280W        W10480  10.499   0.392  10.484
 6281W        W10481   9.675   0.726   1.667
 6282W        W10482   3.977   3.652   1.204
 6283W        W10483   2.604   6.184   0.752
 6284W        W10484  11.086   4.709  11.830
 6285W        W10485   1.645   4.813   0.519
 6286W        W10486   4.159  10.549  11.006
 6287W        W10487   1.635   1.841   8.518
 6288W        W10488   3.691   8.352   9.423
 6289W        W10489   1.414  10.735   2.533
 6290W        W10490   4.250  10.371   9.575
 6291W        W10491   7.289   3.690   3.158
 6292W        W10492   1.201   4.558   0.632
 6293W        W10493   7.595  10.352  11.437
 6294W        W10494   9.001   9.821   9.124
 6295W        W10495   3.306   2.110   0.860
 6296W        W10496   4.206   2.002   2.205
 6297W        W10497   3.378   1.801  10.795
 6298W        W10498   1.379   8.050   2.260
 6299W        W10499   3.097   4.268   9.128
 6300W        W10500   7.142   3.045   1.923
 6301W        W10501   2.688   9.096   2.840
 6302W        W10502   7.665   3.659   9.501
 6303W        W10503  10.985  10.984   3.131
 6304W        W10504   7.722   0.390  10.401
 6305W        W10505   2.331   4.361   2.639
 6306W        W10506   8.428   2.842   9.523
 6307W        W10507   3.368   4.451   8.495
 6308W        W10508   9.183   6.705   4.036
 6309W        W10509   6.700   2.834  10.060
 6310W        W10510   7.881   0.992   8.889
 6311W        W10511   3.870   6.483  10.449
 6312W        W10512   5.695   1.868   1.110
 6313W        W10513   9.547   1.894   9.298
 6314W        W10514   8.952  11.221   9.097
 6315W        W10515   1.447   0.742   3.005
 6316W        W10516   2.707   8.675  11.544
 6317W        W10517   6.859  10.088   3.118
 6318W        W10518   6.931   1.941   8.998
 6319W        W10519   3.666   9.381  10.325
 6320W        W10520   9.422   0.520   3.424
 6321W        W10521   5.047   4.650   8.184
 6322W        W10522   9.994   2.337   0.366
 6323W        W10523   2.144   4.610   1.893
 6324W        W10524   6.766   8.361   8.453
 6325W        W10525  10.652   6.091  10.273
 6326W        W10526   7.483   1.255  10.031
 6327W        W10527   4.111   1.899   9.618
 6328W        W10528   5.968   9.175   9.034
 6329W        W10529   1.369   3.596   8.990
 6330W        W10530   9.574   6.111  11.046
 6331W        W10531   1.083   4.513   2.584
 6332W        W10532   1.737   3.927   8.912
 6333W        W10533   1.922   2.109   1.378
 6334W        W10534   3.726   3.132  10.809
 6335W        W10535   5.648   1.007   0.846
 6336W        W10536   9.406   0.805  11.391
 6337W        W10537   5.498   7.044   1.392
 6338W        W10538   3.624   9.567  11.880
 6339W        W10539  10.421   7.116   3.247
 6340W        W10540   0.147   2.414   3.273
 6341W        W10541  10.388   4.060   3.096
 6342W        W10542   9.426   3.176   3.261
 6343W        W10543   0.920   4.049   2.676
 6344W        W10544   8.190   3.846   2.929
 6345W        W10545   7.911   7.990   0.106
 6346W        W10546   0.753   4.688   0.910
 6347W        W10547   8.161   2.383   9.334
 6348W        W10548   5.609   4.728   1.995
 6349W        W10549   3.904   8.952   0.971
 6350W        W10550   8.902   6.016   1.853
 6351W        W10551   6.707   0.896   9.809
 6352W        W10552   8.805   3.450  11.988
 6353W        W10553   6.561   2.590   0.919
 6354W        W10554   6.929   6.012   1.810
 6355W        W10555   9.541   8.632   9.433
 6356W        W10556   1.308  10.791   0.378
 6357W        W10557   3.728   8.382  10.791
 6358W        W10558   0.816   1.762   9.941
 6359W        W10559   1.805   9.365   0.348
 6360W        W10560   2.350   5.226  10.002
 6361W        W10561   9.320   1.697   0.869
 6362W        W10562   9.859   0.175   2.766
 6363W        W10563   9.443  11.030   9.250
 6364W        W10564   1.968   2.758   3.218
 6365W        W10565   9.315   1.088   1.710
 6366W        W10566  10.423   5.952   9.024
 6367W        W10567   3.086   1.111   9.704
 6368W        W10568   8.455   7.504   0.404
 6369W        W10569   5.576  10.167   3.471
 6370W        W10570   9.101   1.913   3.188
 6371W        W10571   9.408   3.297   9.826
 6372W        W10572   9.323   5.723  11.273
 6373W        W10573   0.540   7.007   3.499
 6374W        W10574  10.250   3.224   3.366
 6375W        W10575   3.645   3.135   9.893
 6376W        W10576   1.393   8.102   9.257
 6377W        W10577   0.443   9.784   2.877
 6378W        W10578   1.329   0.347   3.333
 6379W        W10579   6.661   7.134   2.694
 6380W        W10580   7.354   3.572  11.880
 6381W        W10581   7.647  11.059   0.319
 6382W        W10582   4.766   8.930   2.008
 6383W        W10583   4.227   4.373   3.642
 6384W        W10584   5.465   8.469   0.239
 6385W        W10585   1.747   2.218   9.809
 6386W        W10586   8.619   5.906   2.289
 6387W        W10587   1.201   9.934  10.248
 6388W        W10588   3.042   7.414   1.177
 6389W        W10589   9.818   2.853   1.390
 6390W        W10590   6.084   0.397   1.202
 6391W        W10591   4.340  11.324   1.332
 6392W        W10592   5.933   6.238   1.876
 6393W        W10593   0.823  10.491  11.392
 6394W        W10594   7.083   2.736   1.118
 6395W        W10595   5.322   4.174   8.303
 6396W        W10596   1.392  10.966   9.022
 6397W        W10597   4.624   9.205   8.889
 6398W        W10598   1.147   9.986   0.230
 6399W        W10599   4.921   3.353   0.914
 6400W        W10600  11.122   1.626   3.480
 6401W        W10601   4.904   2.838   9.516
 6402W        W10602  10.133   7.953   9.334
 6403W        W10603   5.208  10.086  11.321
 6404W        W10604   2.752   3.859  10.501
 6405W        W10605   7.177   3.009   2.438
 6406W        W10606   2.848   6.037   0.297
 6407W        W10607   9.461   5.646   8.913
 6408W        W10608   8.441   4.103   8.762
 6409W        W10609  11.010   2.289   0.489
 6410W        W10610   5.240   2.422   9.453
 6411W        W10611   2.147   9.036  10.041
 6412W        W10612   4.079  10.371   2.528
 6413W        W10613   0.442   6.962   0.219
 6414W        W10614   9.580   5.036   1.217
 6415W        W10615   3.342  10.413   1.648
 6416W        W10616   3.385   6.656   0.696
 6417W        W10617   3.274   1.590   0.648
 6418W        W10618   4.618   8.420  11.248
 6419W        W10619   7.969   2.841   9.249
 6420W        W10620  10.381   1.812   3.198
 6421W        W10621   3.668   1.272   0.813
 6422W        W10622   1.651   9.099   9.874
 6423W        W10623   4.591   5.239  10.184
 6424W        W10624   5.146   0.434  11.266
 6425W        W10625   8.145  10.754   1.887
 6426W        W10626   2.410   9.285  10.707
 6427W        W10627  10.435   3.984  11.417
 6428W        W10628   6.152   2.835   9.388
 6429W        W10629   1.355   7.564   0.672
 6430W        W10630   4.028   2.894   8.606
 6431W        W10631  10.114   3.817   0.468
 6432W        W10632  11.330   1.377  10.295
 6433W        W10633   8.013   6.996   0.205
 6434W        W10634   1.118   9.490  11.446
 6435W        W10635  11.349   9.798   2.421
 6436W        W10636   9.605  11.123  10.727
 6437W        W10637   4.183   8.143  11.433
 6438W        W10638   9.417   6.886   1.162
 6439W        W10639   4.734   5.753   1.807
 6440W        W10640   3.146  10.966  10.352
 6441W        W10641   7.173   2.913   0.632
 6442W        W10642   6.674   0.019   9.630
 6443W        W10643   7.144  10.483   0.941
 6444W        W10644   9.614   1.253   2.169
 6445W        W10645   3.819  11.271   0.435
 6446W        W10646   6.682   7.946   4.188
 6447W        W10647   1.259   9.397   1.740
 6448W        W10648   4.203   6.621   3.141
 6449W        W10649   9.534   8.719  11.325
 6450W        W10650   1.189   5.924   0.840
 6451W        W10651  11.492   0.473   2.181
 6452W        W10652   2.887   7.978   1.839
 6453W        W10653   4.743   4.445   8.568
 6454W        W10654  10.452   3.743  10.344
 6455W        W10655   6.068   4.576   8.892
 6456W        W10656   3.460   0.026   8.648
 6457W        W10657   0.929   5.093  10.804
 6458W        W10658   0.216  10.563  10.092
 6459W        W10659   9.160  10.834  10.722
 6460W        W10660   7.582   6.066   1.032
 6461W        W10661   9.507   9.123   3.415
 6462W        W10662   7.692   2.148  11.295
 6463W        W10663   0.455   9.103  11.808
 6464W        W10664  10.355   5.458  10.122
 6465W        W10665   8.873   3.305   2.157
 6466W        W10666   0.383   8.976   2.721
 6467W        W10667   9.171   3.295  10.719
 6468W        W10668   4.804   8.509   9.358
 6469W        W10669  11.244   4.749   2.898
 6470W        W10670   7.209  11.238   2.343
 6471W        W10671   6.103   4.049   0.397
 6472W        W10672   1.849   3.689   9.812
 6473W        W10673  11.239   8.635   2.680
 6474W        W10674   1.535   8.273  11.627
 6475W        W10675   7.861  11.429   8.903
 6476W        W10676   0.698   5.281   8.783
 6477W        W10677   3.786   9.307  10.843
 6478W        W10678   2.791   7.005   9.258
 6479W        W10679   8.051   5.962  11.919
 6480W        W10680   3.900   2.370  10.295
 6481W        W10681   8.405   1.321  10.019
 6482W        W10682   0.478  11.031   2.176
 6483W        W10683   0.866   2.349  11.177
 6484W        W10684   9.619   6.085   3.372
 6485W        W10685   2.711   5.200   3.053
 6486W        W10686   1.749   8.916   0.827
 6487W        W10687   7.003  10.714  11.257
 6488W        W10688  11.061   7.218   2.617
 6489W        W10689   9.841   5.465  10.379
 6490W        W10690   1.262   3.254   3.236
 6491W        W10691   7.543   2.836   0.265
 6492W        W10692   4.391   0.503  11.086
 6493W        W10693   0.892   9.996   2.705
 6494W        W10694  10.333   0.886   0.993
 6495W        W10695   5.575   6.909   9.528
 6496W        W10696   0.238   6.635   3.694
 6497W        W10697   6.465   7.997   2.435
 6498W        W10698   5.610   3.676   2.805
 6499W        W10699   5.278   3.125  10.214
 6500W        W10700   1.345   5.828   1.318
 6501W        W10701   8.398   7.926   9.501
 6502W        W10702   5.741   0.872   8.628
 6503W        W10703   7.447   0.012  10.700
 6504W        W10704   9.022   2.030  11.871
 6505W        W10705   8.838   9.908   1.548
 6506W        W10706   4.192   8.238  10.937
 6507W        W10707  10.046   8.631  10.214
 6508W        W10708   6.416   0.451   9.722
 6509W        W10709   5.099  11.021   2.210
 6510W        W10710   2.871   6.975   0.368
 6511W        W10711   1.822   1.767   9.523
 6512W        W10712   7.889   0.190   9.344
 6513W        W10713   9.311   1.719  10.892
 6514W        W10714   4.027  11.301   1.766
 6515W        W10715   0.476   0.583   0.962
 6516W        W10716  11.389   9.513   0.268
 6517W        W10717   2.202  10.996  11.889
 6518W        W10718  10.452   0.821  10.169
 6519W        W10719   8.793   9.482   8.792
 6520W        W10720   0.030   8.120   9.532
 6521W        W10721   9.587   1.656   0.434
 6522W        W10722   5.240   4.267   0.394
 6523W        W10723   0.651   5.007   0.046
 6524W        W10724   3.485   7.816  10.356
 6525W        W10725  10.099   6.983  11.743
 6526W        W10726   4.085  11.407  11.996
 6527W        W10727   4.182   0.349   1.024
 6528W        W10728   1.748   8.095  10.129
 6529W        W10729   7.565   8.815   3.399
 6530W        W10730  10.454   9.854   2.435
 6531W        W10731   6.085   7.106   2.208
 6532W        W10732  10.338   4.689   0.949
 6533W        W10733  10.477   5.137   1.200
 6534W        W10734   7.845   9.920   3.128
 6535W        W10735  11.475   7.126   1.734
 6536W        W10736   6.137  10.348   9.877
 6537W        W10737   7.623   0.254   3.211
 6538W        W10738   2.880   6.620   0.763
 6539W        W10739   2.782  10.403  11.213
 6540W        W10740   4.195   3.587   3.294
 6541W        W10741  10.484   8.455   1.679
 6542W        W10742   0.200   0.850   9.212
 6543W        W10743   5.563   8.808  11.448
 6544W        W10744   5.977   8.313   9.918
 6545W        W10745   7.357   2.099   0.418
 6546W        W10746   3.133   1.746   3.022
 6547W        W10747   1.422   5.313   1.806
 6548W        W10748   5.991   8.647   9.045
 6549W        W10749   0.326   1.822   0.528
 6550W        W10750   0.320   4.697   2.072
 6551W        W10751   1.684   9.860   3.411
 6552W        W10752   1.269   6.667   2.164
 6553W        W10753   0.537   4.408   2.476
 6554W        W10754   5.755   0.799   1.310
 6555W        W10755   1.574   6.145   2.919
 6556W        W10756   0.478   8.086   2.617
 6557W        W10757   9.024   7.212   1.319
 6558W        W10758   1.699  10.856   3.385
 6559W        W10759   9.783   5.621   8.502
 6560W        W10760   0.628   7.668   2.285
 6561W        W10761   6.264   7.936   3.256
 6562W        W10762   4.390   5.383   0.257
 6563W        W10763   4.925   5.203   0.015
 6564W        W10764   6.590   0.355   9.229
 6565W        W10765   0.866   6.821  10.847
 6566W        W10766   6.511   9.138   1.933
 6567W        W10767   2.710   2.035   9.981
 6568W        W10768   5.031   8.413   9.845
 6569W        W10769   9.290   3.292   0.023
 6570W        W10770   8.368   7.976   3.584
 6571W        W10771   1.232   6.802   1.114
 6572W        W10772   8.917   2.131  11.384
 6573W        W10773   8.539   4.004   1.252
 6574W        W10774  10.129   5.916  10.322
 6575W        W10775   1.737   1.026   2.641
 6576W        W10776   4.215   4.338  10.924
 6577W        W10777   6.005  11.443   0.912
 6578W        W10778   1.047   6.218  11.553
 6579W        W10779   8.946   6.641  11.499
 6580W        W10780   5.472   6.200   0.816
 6581W        W10781   0.830   0.495  11.328
 6582W        W10782   2.585   0.209   1.459
 6583W        W10783   6.882   2.533   9.032
 6584W        W10784   7.831   9.363   2.022
 6585W        W10785   9.526   7.917   2.690
 6586W        W10786   5.602   5.676   1.498
 6587W        W10787   4.179   8.305   0.465
 6588W        W10788   7.745   6.892   0.983
 6589W        W10789   1.259   1.816   3.590
 6590W        W10790   6.166   6.207  10.575
 6591W        W10791   9.467   1.922   1.352
 6592W        W10792   2.309   3.132   0.877
 6593W        W10793   2.241   9.121   1.534
 6594W        W10794   7.115   3.804   0.290
 6595W        W10795   4.072   4.289   9.064
 6596W        W10796   2.806   0.674  11.862
 6597W        W10797   4.263  10.449   3.070
 6598W        W10798   9.534   4.887  11.012
 6599W        W10799   8.985   9.471  10.931
 6600W        W10800  11.426   2.140   8.594
 6601W        W10801   8.031  11.482  10.857
 6602W        W10802   8.638   1.804  10.393
 6603W        W10803   4.726   8.493   1.761
 6604W        W10804   8.627   0.215   9.807
 6605W        W10805   4.076   5.134   9.032
 6606W        W10806   3.236   7.213   9.428
 6607W        W10807   3.717   7.280  11.581
 6608W        W10808   5.527   7.131   0.811
 6609W        W10809   4.945   1.399   1.267
 6610W        W10810   9.468   7.040   3.769
 6611W        W10811   0.949   0.030   3.526
 6612W        W10812   3.818   9.527   9.404
 6613W        W10813  11.324   0.188   1.193
 6614W        W10814   0.922   8.775  10.820
 6615W        W10815   1.471  10.394   9.485
 6616W        W10816   6.207  10.403   2.499
 6617W        W10817   9.433  11.046   0.031
 6618W        W10818   0.398   2.165   9.284
 6619W        W10819   7.378   3.354   0.394
 6620W        W10820   2.422   4.586   8.807
 6621W        W10821   9.928   7.242   0.976
 6622W        W10822   0.462   3.828   9.050
 6623W        W10823   9.545   3.798   9.824
 6624W        W10824   8.616   1.296   0.442
 6625W        W10825   0.298   9.053   9.838
 6626W        W10826   8.008  10.325  11.792
 6627W        W10827   6.229   7.883  10.005
 6628W        W10828   2.769   0.952   0.795
 6629W        W10829   2.890   4.442   1.843
 6630W        W10830   6.085  10.071  10.736
 6631W        W10831  10.452   1.696   1.654
 6632W        W10832   0.401  11.250   2.770
 6633W        W10833   2.130   6.436   2.179
 6634W        W10834   5.412   4.086   3.115
 6635W        W10835   3.117   0.809   0.254
 6636W        W10836   7.670  10.702   3.493
 6637W        W10837   4.557   7.107   0.132
 6638W        W10838  10.827   6.593   1.693
 6639W        W10839   2.450  10.750   8.696
 6640W        W10840   7.004   6.919   1.855
 6641W        W10841   0.303   1.930   2.375
 6642W        W10842   2.664   7.042   0.992
 6643W        W10843   1.555   6.188   8.708
 6644W        W10844   6.057   9.279  10.089
 6645W        W10845   6.113   0.819   0.922
 6646W        W10846   6.153  10.220   0.672
 6647W        W10847   3.656   7.887  10.914
 6648W        W10848   7.432   4.656  11.916
 6649W        W10849   9.790   0.546  10.928
 6650W        W10850   7.131   7.904   0.560
 6651W        W10851   1.427   3.065   8.850
 6652W        W10852  10.819   9.029   1.834
 6653W        W10853   8.578   8.890  10.950
 6654W        W10854   9.061   8.892  11.766
 6655W        W10855   1.750   6.733   2.321
 6656W        W10856   7.463  10.881  11.444
 6657W        W10857   1.780   3.856   1.809
 6658W        W10858   1.496   5.642   8.850
 6659W        W10859   5.474   8.144   3.468
 6660W        W10860   9.413   9.596   0.526
 6661W        W10861   0.836   1.954   0.598
 6662W        W10862   4.870   3.933  11.325
 6663W        W10863  10.164   4.321   2.212
 6664W        W10864   8.529   0.936  11.687
 6665W        W10865   2.197   4.601  10.489
 6666W        W10866   1.100   9.021  10.266
 6667W        W10867   7.965   2.716   0.913
 6668W        W10868   2.239  11.497  10.423
 6669W        W10869   7.069   1.434   9.115
 6670W        W10870   1.011   8.483   1.292
 6671W        W10871   7.433   0.704  10.938
 6672W        W10872   6.499   8.609   2.610
 6673W        W10873  10.248   4.130  10.097
 6674W        W10874   1.489   1.481   8.857
 6675W        W10875   2.259  10.698  11.414
 6676W        W10876   0.982   0.022  11.463
 6677W        W10877   1.248   8.127  10.027
 6678W        W10878   2.344   4.284   3.542
 6679W        W10879   1.642   6.571   1.296
 6680W        W10880   1.364   6.676   8.791
 6681W        W10881   9.267   2.437   1.794
 6682W        W10882   8.374   4.104   9.781
 6683W        W10883   5.031   5.275   9.914
 6684W        W10884   0.254   4.079   0.357
 6685W        W10885   4.149   1.877   0.862
 6686W        W10886   7.038   4.268   9.092
 6687W        W10887   2.367   6.646   0.831
 6688W        W10888   7.014   4.084  10.471
 6689W        W10889   8.884   2.643  11.466
 6690W        W10890   8.991   2.686  10.110
 6691W        W10891  10.501   3.551   0.260
 6692W        W10892   4.030   4.023  11.856
 6693W        W10893   9.860   5.562   2.152
 6694W        W10894   7.937   7.160  11.297
 6695W        W10895   8.241   8.184   4.034
 6696W        W10896   8.710   5.515   9.382
 6697W        W10897   7.549   9.177   0.562
 6698W        W10898   8.013   6.525   3.242
 6699W        W10899   5.451   8.134   8.633
 6700W        W10900   0.080   4.226   1.133
 6701W        W10901   1.203   2.190   0.925
 6702W        W10902   9.974   9.218   1.321
 6703W        W10903   1.364   9.003   2.409
 6704W        W10904   3.698   1.884   0.643
 6705W        W10905   5.097   8.599  11.359
 6706W        W10906  10.864  10.402   0.298
 6707W        W10907   6.173   7.125   9.057
 6708W        W10908   0.921   6.122   0.430
 6709W        W10909   6.189   8.482   3.167
 6710W        W10910  11.271   0.799   9.499
 6711W        W10911   0.928   0.820   1.135
 6712W        W10912   7.503   8.074   1.867
 6713W        W10913   7.607  10.027   9.005
 6714W        W10914   5.278   8.765   4.147
 6715W        W10915  11.171   0.491   3.409
 6716W        W10916   6.054   3.555   0.487
 6717W        W10917   5.274  10.429   1.567
 6718W        W10918   8.514  11.309   8.770
 6719W        W10919   6.684   3.231  11.144
 6720W        W10920  10.884   3.766  11.568
 6721W        W10921   9.807  10.130  10.225
 6722W        W10922   0.413   5.686   9.069
 6723W        W10923   8.598   9.291   1.309
 6724W        W10924   7.578   2.583   9.551
 6725W        W10925   0.775   4.140   1.674
 6726W        W10926   8.696   3.652  11.513
 6727W        W10927   3.961   7.735   2.670
 6728W        W10928   5.761  11.357  11.285
 6729W        W10929   7.087   7.377   0.368
 6730W        W10930   7.424   1.812   9.058
 6731W        W10931   8.830   0.203   9.298
 6732W        W10932   7.418   9.263   8.951
 6733W        W10933   4.237  10.840   2.722
 6734W        W10934  11.169   2.412   0.962
 6735W        W10935   3.053   2.245   3.199
 6736W        W10936  10.969   9.281   1.414
 6737W        W10937   1.406   3.781  11.993
 6738W        W10938   1.580   1.241   8.380
 6739W        W10939   2.795   0.215   9.415
 6740W        W10940   8.434   2.728   9.032
 6741W        W10941   7.030  10.769   9.906
 6742W        W10942   2.384   2.729   2.092
 6743W        W10943   9.111   1.947   1.753
 6744W        W10944   1.591   5.707   9.737
 6745W        W10945   2.019   8.075  10.560
 6746W        W10946   1.055   6.114  10.179
 6747W        W10947  11.175   4.046   3.464
 6748W        W10948   7.494   5.686  10.295
 6749W        W10949   7.916   6.051   2.930
 6750W        W10950   7.683   4.696   8.620
 6751W        W10951   9.437   9.059   1.341
 6752W        W10952   4.069   4.587   3.203
 6753W        W10953   3.185   6.692   9.461
 6754W        W10954   7.817   1.857   0.385
 6755W        W10955   9.300   3.724   0.692
 6756W        W10956  10.547   1.669  10.503
 6757W        W10957   4.148   4.782   1.893
 6758W        W10958   8.108  11.081   2.292
 6759W        W10959   4.580   2.129   3.024
 6760W        W10960   1.769  10.666   0.615
 6761W        W10961   2.007   2.769   0.011
 6762W        W10962  10.673   9.525   1.765
 6763W        W10963  10.856   5.482   9.108
 6764W        W10964   9.841   5.623   2.660
 6765W        W10965   2.821   4.672   8.052
 6766W        W10966  10.079   5.244   9.700
 6767W        W10967   4.340   7.315  10.076
 6768W        W10968   4.226   3.818   1.628
 6769W        W10969   7.947   2.695   1.935
 6770W        W10970   6.165   4.560   2.210
 6771W        W10971   2.887   4.883  10.385
 6772W        W10972   0.680   6.145   9.814
 6773W        W10973   5.216   8.185   0.671
 6774W        W10974   5.200   9.630   9.532
 6775W        W10975   3.770   4.152   9.680
 6776W        W10976  11.044   9.791  10.884
 6777W        W10977   7.078   6.896   2.865
 6778W        W10978   3.345   7.436   2.139
 6779W        W10979   3.746   5.735   0.971
 6780W        W10980   8.722   5.944   0.300
 6781W        W10981   0.275  10.308   0.507
 6782W        W10982   0.138   6.183  11.648
 6783W        W10983   1.661   7.590   9.515
 6784W        W10984   5.115   8.435  10.878
 6785W        W10985   7.513   5.715   0.677
 6786W        W10986  10.816   8.131  10.635
 6787W        W10987   5.660   2.902   0.933
 6788W        W10988  10.664   4.353   2.267
 6789W        W10989  11.051   1.372  11.157
 6790W        W10990   3.709   7.419  10.599
 6791W        W10991   1.318   1.953  10.762
 6792W        W10992   6.757  11.193  11.267
 6793W        W10993   4.129   1.219   9.940
 6794W        W10994   5.813   2.534   0.486
 6795W        W10995   0.011   0.340   2.708
 6796W        W10996   4.300  10.449   1.532
 6797W        W10997   6.972   7.582  10.318
 6798W        W10998   5.722   5.715   3.014
 6799W        W10999   6.802   1.650  10.359
 6800W        W11000   8.822  11.012  10.370
 6801W        W11001   8.435   9.049   0.897
 6802W        W11002  10.951   3.161   2.500
 6803W        W11003   1.840   3.149  11.452
 6804W        W11004   6.228  11.475   9.344
 6805W        W11005   0.885   5.452   0.243
 6806W        W11006   9.959   7.949  11.452
 6807W        W11007   9.666   5.615   3.144
 6808W        W11008   5.572   7.656  11.924
 6809W        W11009   5.178   9.636   2.909
 6810W        W11010   5.261   0.651   8.700
 6811W        W11011   4.124   8.979   9.599
 6812W        W11012   5.181   9.943   0.284
 6813W        W11013  10.786   6.147   1.466
 6814W        W11014   9.635   3.935   0.367
 6815W        W11015   9.895   5.787   1.709
 6816W        W11016   9.109   4.691   1.846
 6817W        W11017   5.393   3.277   3.539
 6818W        W11018   4.111   5.475   1.268
 6819W        W11019   1.761   2.719   9.062
 6820W        W11020   7.849   1.297   0.791
 6821W        W11021  11.083   0.239   2.413
 6822W        W11022   0.361  10.475   1.930
 6823W        W11023   2.080   8.921  10.549
 6824W        W11024   9.960   9.148  10.105
 6825W        W11025   0.903   8.214   3.007
 6826W        W11026   2.366   4.791   2.352
 6827W        W11027   6.951   5.339  11.033
 6828W        W11028   5.808   8.118   3.089
 6829W        W11029   1.835   4.313   2.761
 6830W        W11030   9.846   8.985  10.572
 6831W        W11031  10.913   2.309   1.400
 6832W        W11032   8.841   0.660  11.204
 6833W        W11033   2.225   6.217   8.895
 6834W        W11034   0.680   0.943   0.662
 6835W        W11035  10.040   3.247  10.298
 6836W        W11036   8.015   2.696   1.426
 6837W        W11037   0.135   9.320  11.330
 6838W        W11038   5.206   9.007   8.091
 6839W        W11039   6.201   2.820  10.798
 6840W        W11040   8.393   2.232  10.252
 6841W        W11041   8.433  11.481  11.941
 6842W        W11042   6.672  10.272   1.693
 6843W        W11043   6.471   7.618   9.555
 6844W        W11044   8.478   2.880   1.015
 6845W        W11045   7.443   1.422   2.736
 6846W        W11046   9.653   5.790  11.764
 6847W        W11047   3.167   3.831   1.577
 6848W        W11048   4.551   9.865  11.936
 6849W        W11049   2.279   4.404   1.326
 6850W        W11050   8.871   7.146  10.737
 6851W        W11051   5.376   1.437   9.710
 6852W        W11052   4.265   0.706   9.910
 6853W        W11053   6.102   0.815   2.930
 6854W        W11054   1.880   8.553   2.747
 6855W        W11055   7.042   1.328   3.083
 6856W        W11056   8.470   2.125   2.219
 6857W        W11057   7.250   6.706  10.833
 6858W        W11058  11.348  10.339   9.004
 6859W        W11059   4.385   2.327   0.721
 6860W        W11060   8.841   6.014   9.313
 6861W        W11061   1.435   3.650   9.490
 6862W        W11062  11.252   5.719   8.535
 6863W        W11063   7.453  10.006   0.902
 6864W        W11064  11.454   1.754   9.585
 6865W        W11065   1.661   5.630   2.146
 6866W        W11066   0.989   8.974   3.486
 6867W        W11067  11.342   1.258   9.293
 6868W        W11068  10.866   7.587  11.287
 6869W        W11069   0.705   5.718   9.499
 6870W        W11070   4.470   6.106  11.709
 6871W        W11071   9.317   1.180   0.885
 6872W        W11072   1.494   8.376  10.997
 6873W        W11073   1.300   1.207   3.154
 6874W        W11074   9.947  10.994   8.527
 6875W        W11075   0.770   7.488   8.975
 6876W        W11076   9.003   3.893   2.980
 6877W        W11077  10.464   3.549  11.753
 6878W        W11078   7.150   4.646   0.443
 6879W        W11079  10.849   6.650   2.183
 6880W        W11080   1.286  11.114   3.510
 6881W        W11081   8.405   4.912   1.343
 6882W        W11082   8.710   3.803   9.503
 6883W        W11083   1.849   1.793   9.013
 6884W        W11084   8.085  10.959   8.847
 6885W        W11085   7.859   9.576   9.184
 6886W        W11086   5.931   6.106   0.608
 6887W        W11087   9.366  10.158  10.476
 6888W        W11088   0.833   7.397   3.302
 6889W        W11089   2.819   8.853   9.093
 6890W        W11090   9.542   8.194  11.268
 6891W        W11091   1.200   7.565   1.530
 6892W        W11092   1.276   3.346  11.146
 6893W        W11093   6.118   8.706   1.355
 6894W        W11094   1.450  11.389   3.138
 6895W        W11095   8.709   0.496  10.315
 6896W        W11096  10.498   2.137   0.429
 6897W        W11097   9.456   5.909   1.491
 6898W        W11098  10.911   6.679  11.584
 6899W        W11099   1.734   3.192   9.389
 6900W        W11100   5.902  10.851  10.913
 6901W        W11101   2.160  10.323   2.198
 6902W        W11102   2.281   2.725  10.364
 6903W        W11103   8.503   9.800  10.819
 6904W        W11104   6.402   1.516  10.009
 6905W        W11105  11.440   0.883   1.644
 6906W        W11106   0.411   2.253  11.363
 6907W        W11107   8.143   1.272  11.135
 6908W        W11108   9.633   6.038   2.866
 6909W        W11109   7.039   2.794   3.613
 6910W        W11110   9.634   1.884  10.350
 6911W        W11111   1.878   7.085   0.507
 6912W        W11112   5.118   2.778   3.654
 6913W        W11113   4.862   6.146   9.758
 6914W        W11114   8.019   3.876   2.451
 6915W        W11115   4.652   1.151   9.899
 6916W        W11116   8.394   2.801  11.532
 6917W        W11117   2.777   5.788  11.231
 6918W        W11118   8.428   0.055   1.607
 6919W        W11119   3.818  11.380   1.304
 6920W        W11120  11.382  10.599   0.225
 6921W        W11121   5.818   0.693   0.472
 6922W        W11122   1.775   4.321  10.440
 6923W        W11123   5.096   4.786  10.715
 6924W        W11124  10.587   1.737   0.732
 6925W        W11125   3.579  11.209   0.868
 6926W        W11126   0.099   4.668  10.504
 6927W        W11127   6.234   9.633   1.250
 6928W        W11128  11.429   7.746   9.071
 6929W        W11129   4.545   6.496  10.965
 6930W        W11130   5.211  10.405   2.096
 6931W        W11131   1.477   7.600   2.553
 6932W        W11132   5.973   7.743   1.287
 6933W        W11133   7.336   5.875   0.232
 6934W        W11134   0.187   7.275   2.376
 6935W        W11135   6.108   7.043  11.078
 6936W        W11136   9.565   0.958  10.138
 6937W        W11137   9.919   9.669  10.059
 6938W        W11138   0.936   3.876   8.828
 6939W        W11139   0.746  10.763   9.322
 6940W        W11140   8.662   7.912   2.646
 6941W        W11141  11.173   9.654  11.356
 6942W        W11142   3.352   3.797  11.324
 6943W        W11143  10.423   2.638   0.343
 6944W        W11144   5.709   7.094   2.959
 6945W        W11145   7.262   2.289   2.384
 6946W        W11146   2.497   5.029   7.899
 6947W        W11147  10.013   2.350   2.404
 6948W        W11148   9.599   5.144   2.186
 6949W        W11149   5.250  10.997   1.282
 6950W        W11150   4.416   2.540   8.807
 6951W        W11151  11.484   4.410  11.996
 6952W        W11152   9.025   3.349   0.479
 6953W        W11153   7.552  10.816  10.079
 6954W        W11154   8.895   4.280   9.370
 6955W        W11155  10.294   3.204   1.867
 6956W        W11156   7.433   6.510   0.773
 6957W        W11157  11.040   5.788   1.223
 6958W        W11158   3.239   5.218  10.524
 6959W        W11159  10.712   5.518   2.678
 6960W        W11160  11.386   9.366   8.587
 6961W        W11161   5.213   4.200   0.909
 6962W        W11162   9.000   7.036   8.585
 6963W        W11163   7.436   4.793   0.845
 6964W        W11164   3.145   1.868  11.257
 6965W        W11165  11.046   5.185   2.482
 6966W        W11166   3.649   4.675   1.749
 6967W        W11167   0.737   2.371   0.941
 6968W        W11168   2.697   6.610   1.274
 6969W        W11169   2.286   3.524   3.064
 6970W        W11170   5.712   1.064   9.969
 6971W        W11171   9.561   8.160   2.234
 6972W        W11172   8.077   1.661  11.481
 6973W        W11173  10.424   8.407   9.937
 6974W        W11174   0.359   7.461   9.826
 6975W        W11175   7.224   8.470  10.542
 6976W        W11176  11.474   9.272   1.594
 6977W        W11177  10.497  11.433   8.940
 6978W        W11178   5.133   1.662  11.982
 6979W        W11179  10.844   2.489   3.304
 6980W        W11180   7.878  10.737   9.633
 6981W        W11181   7.427   5.316  11.254
 6982W        W11182   1.714   9.981  11.077
 6983W        W11183  10.485   3.613   2.186
 6984W        W11184  11.236   6.055   9.547
 6985W        W11185   4.198   4.073   2.159
 6986W        W11186   8.216   5.166   8.674
 6987W        W11187   3.263   5.812  11.045
 6988W        W11188   6.026  10.995   9.102
 6989W        W11189   7.341   6.251  11.511
 6990W        W11190   3.226   5.615   1.038
 6991W        W11191   0.694   1.837   1.486
 6992W        W11192   7.463   4.577   9.080
 6993W        W11193   1.149   0.803   3.482
 6994W        W11194   6.922   8.381   2.450
 6995W        W11195   5.616   9.145   9.836
 6996W        W11196   3.022   2.870  11.451
 6997W        W11197   8.595   8.308   8.640
 6998W        W11198   6.032   3.306  10.744
 6999W        W11199  11.478   9.843   9.756
 7000W        W11200   8.476   3.684   9.064
 7001W        W11201   2.336   0.768  11.353
 7002W        W11202   0.304  11.327  11.321
 7003W        W11203   5.350   2.633  10.316
 7004W        W11204   7.991   8.420   0.373
 7005W        W11205   8.847   8.081   3.406
 7006W        W11206  11.500   5.125  10.773
 7007W        W11207   0.512   7.042   9.514
 7008W        W11208   0.852   6.195   9.310
 7009W        W11209   9.352   2.220  10.620
 7010W        W11210   8.625  10.541   0.020
 7011W        W11211   4.181   5.681  10.787
 7012W        W11212   4.863   1.169   0.256
 7013W        W11213  10.955   8.357   3.491
 7014W        W11214   1.524   8.985   9.383
 7015W        W11215   6.109   4.448  10.458
 7016W        W11216  10.420  10.016   8.953
 7017W        W11217  10.433   9.971   1.401
 7018W        W11218   0.397   3.163  11.222
 7019W        W11219   7.627   0.909   1.136
 7020W        W11220   3.398   2.132   2.781
 7021W        W11221   0.608   1.820  10.448
 7022W        W11222   4.722   4.219   3.626
 7023W        W11223   3.095  11.438  11.878
 7024W        W11224   1.162   6.298   2.605
 7025W        W11225   4.719   6.709   8.635
 7026W        W11226   2.579   8.432   2.510
 7027W        W11227   2.356   5.516   9.573
 7028W        W11228   1.363   4.150   1.459
 7029W        W11229  11.457   4.819   8.742
 7030W        W11230   2.408   3.582   0.235
 7031W        W11231   7.067   3.787  10.873
 7032W        W11232   2.628   7.496   1.633
 7033W        W11233   4.599   2.262   1.619
 7034W        W11234   3.707   9.048   1.495
 7035W        W11235   3.948   8.540   9.823
 7036W        W11236  11.454   6.508   1.285
 7037W        W11237   6.979   0.283   1.671
 7038W        W11238   7.231   3.658   1.307
 7039W        W11239  11.061   1.768  10.503
 7040W        W11240   9.688   0.460  10.286
 7041W        W11241   5.466   4.823   3.315
 7042W        W11242   5.736   0.390   2.816
 7043W        W11243   4.133   7.784   0.387
 7044W        W11244   8.003   0.311   2.882
 7045W        W11245   9.374   8.695   0.934
 7046W        W11246   6.004   9.554   2.442
 7047W        W11247   9.248   7.196  10.369
 7048W        W11248   4.562  10.427   3.521
 7049W        W11249   3.081   1.260   2.386
 7050W        W11250  10.917   9.797   1.402
 7051W        W11251   8.467   7.472   3.427
 7052W        W11252  10.709   2.213   0.923
 7053W        W11253   8.120   1.428   0.369
 7054W        W11254   8.530  10.807   2.284
 7055W        W11255   0.207   9.454   3.173
 7056W        W11256   8.862   3.270   1.632
 7057W        W11257   5.966   2.471   1.634
 7058W        W11258   4.293   1.938  11.056
 7059W        W11259   6.704   6.617   0.236
 7060W        W11260   1.425   0.688   3.901
 7061W        W11261   2.530   5.302   0.753
 7062W        W11262   3.919   4.067   3.309
 7063W        W11263   3.815   3.564  10.486
 7064W        W11264   5.249  10.488   9.799
 7065W        W11265   0.701   9.995  11.394
 7066W        W11266   8.995  10.662  11.195
 7067W        W11267   7.942   7.500  11.694
 7068W        W11268   8.230   8.348  11.909
 7069W        W11269  10.859   1.964   3.185
 7070W        W11270  11.455   7.072  10.873
 7071W        W11271   4.292   8.918  11.865
 7072W        W11272   4.973  11.262  10.122
 7073W        W11273   5.218   0.441  10.744
 7074W        W11274   3.702   5.469   9.385
 7075W        W11275   6.862   8.088   1.531
 7076W        W11276   2.947   8.027   3.357
 7077W        W11277   1.843   9.909   2.313
 7078W        W11278   2.929   6.013   1.150
 7079W        W11279   1.887   1.355   1.842
 7080W        W11280   6.051   9.067  10.600
 7081W        W11281   6.070   1.773  11.990
 7082W        W11282   7.592   3.804   2.173
 7083W        W11283   7.571   2.642  10.057
 7084W        W11284   2.003   4.175   2.239
 7085W        W11285  11.020   3.299  11.426
 7086W        W11286  10.741  11.439  10.344
 7087W        W11287   2.600   6.522   0.343
 7088W        W11288  10.529   7.700  10.569
 7089W        W11289   2.281   3.620   0.730
 7090W        W11290   5.927   3.741   8.453
 7091W        W11291   5.272   2.136   0.928
 7092W        W11292   6.931   9.529   9.056
 7093W        W11293  10.582   3.714   9.271
 7094W        W11294   3.405   6.114   2.404
 7095W        W11295   7.229   6.386   0.262
 7096W        W11296   2.896   6.410  10.406
 7097W        W11297   2.676   6.551   3.181
 7098W        W11298   6.747   3.649   3.135
 7099W        W11299   5.144   4.178  10.029
 7100W        W11300   9.602   0.915  10.651
 7101W        W11301   9.024  10.338  10.814
 7102W        W11302   0.984   4.143   0.005
 7103W        W11303   8.007   6.106   3.520
 7104W        W11304   9.276   6.976   9.199
 7105W        W11305   9.476   0.535   2.582
 7106W        W11306   4.991   8.843   9.025
 7107W        W11307   3.267   0.912   0.734
 7108W        W11308   6.701   6.161  10.494
 7109W        W11309   5.708   9.432   1.219
 7110W        W11310   3.807  10.283  11.366
 7111W        W11311   2.551   0.451   2.537
 7112W        W11312   9.512  11.312  11.196
 7113W        W11313   9.580   5.093   3.173
 7114W        W11314   7.591   7.307   1.289
 7115W        W11315   6.559   9.015   1.414
 7116W        W11316   1.362   9.884   2.514
 7117W        W11317  11.374   9.056   9.559
 7118W        W11318   6.577   1.587   0.017
 7119W        W11319   0.350   9.953   2.398
 7120W        W11320   3.338   8.079  11.615
 7121W        W11321   2.754   5.538   9.186
 7122W        W11322  10.122   3.290   0.509
 7123W        W11323   3.524   4.852   3.108
 7124W        W11324   7.879   2.210   0.762
 7125W        W11325   2.224  11.495   8.852
 7126W        W11326   1.147   4.512   9.456
 7127W        W11327   1.862   1.300   9.793
 7128W        W11328   8.205   6.197  10.002
 7129W        W11329   4.108   8.677   1.383
 7130W        W11330   1.512   4.727   9.805
 7131W        W11331   6.109   4.113   9.636
 7132W        W11332   7.212   5.152   0.574
 7133W        W11333   9.909   7.300   3.310
 7134W        W11334   3.058   8.080   0.803
 7135W        W11335   8.480   8.490  11.272
 7136W        W11336   3.672   6.266   0.836
 7137W        W11337   8.389   6.982   2.822
 7138W        W11338  10.821   8.429   2.383
 7139W        W11339   0.484   7.894   1.653
 7140W        W11340  10.262   1.306  11.818
 7141W        W11341   5.284   2.823  11.097
 7142W        W11342  11.432   3.137   1.643
 7143W        W11343   7.606   7.399   9.145
 7144W        W11344   7.570  10.917   9.048
 7145W        W11345   4.652   1.867   1.949
 7146W        W11346   2.376  10.740  10.031
 7147W        W11347   2.877   6.242  11.443
 7148W        W11348  11.334   3.761  10.848
 7149W        W11349   8.505   2.560   3.033
 7150W        W11350   8.625   8.744   1.258
 7151W        W11351   5.646   8.552   2.809
 7152W        W11352   1.776   0.346  11.971
 7153W        W11353   2.357   7.421   2.313
 7154W        W11354   2.242   8.884  11.528
 7155W        W11355   5.677   7.050  10.597
 7156W        W11356   0.985   1.351  10.948
 7157W        W11357   0.332   8.966   3.255
 7158W        W11358   1.297   9.942   9.757
 7159W        W11359   2.179   9.876   0.342
 7160W        W11360  10.545   7.952   9.676
 7161W        W11361   2.644   2.644  10.765
 7162W        W11362   6.123   6.183   8.709
 7163W        W11363   0.043   2.354   2.325
 7164W        W11364  11.357   4.657   1.330
 7165W        W11365   9.896  11.296   8.980
 7166W        W11366   6.200   9.828   0.321
 7167W        W11367   6.075   6.996   9.559
 7168W        W11368   4.648   4.923   2.295
 7169W        W11369   7.952  11.140   9.318
 7170W        W11370   8.968   1.543  11.694
 7171W        W11371   5.270  10.539   2.903
 7172W        W11372   3.858   5.080   0.530
 7173W        W11373   3.030   0.026   3.232
 7174W        W11374   6.934   8.899   1.751
 7175W        W11375  10.434   2.899  10.251
 7176W        W11376   4.454   7.986  10.549
 7177W        W11377  10.979  10.729   8.686
 7178W        W11378   9.485   3.789   2.161
 7179W        W11379   0.121   3.298   3.175
 7180W        W11380   0.448   6.186   1.299
 7181W        W11381   4.339  10.928   9.821
 7182W        W11382   2.857   1.174  11.926
 7183W        W11383   7.348   9.914   3.219
 7184W        W11384   5.251   7.851   9.022
 7185W        W11385   6.714   8.586  10.550
 7186W        W11386   9.038  10.915   3.059
 7187W        W11387   2.167   9.519   3.347
 7188W        W11388  10.050   4.853   1.366
 7189W        W11389  10.474   8.056   2.450
 7190W        W11390   6.076   4.661  11.352
 7191W        W11391   6.545  10.020   9.845
 7192W        W11392   4.698   6.716   0.911
 7193W        W11393   3.117   1.835   3.514
 7194W        W11394   1.657   1.782  11.096
 7195W        W11395   3.797  10.259   2.978
 7196W        W11396   1.304   7.420  11.755
 7197W        W11397   3.912   6.059   2.335
 7198W        W11398   8.484   2.774   0.026
 7199W        W11399   9.039   9.414  10.406
 7200W        W11400   8.505   8.559   0.294
 7201W        W11401   0.271   8.544   9.314
 7202W        W11402   0.823   3.233   0.495
 7203W        W11403   9.090   2.642   9.601
 7204W        W11404   9.382   0.220   2.988
 7205W        W11405   6.497   9.470   9.868
 7206W        W11406   9.317   1.028   3.465
 7207W        W11407   7.016   8.448   0.430
 7208W        W11408   5.609   9.455   2.732
 7209W        W11409  11.396   8.034   3.513
 7210W        W11410   1.456   5.687  10.709
 7211W        W11411   6.989  11.488   2.732
 7212W        W11412   0.439  10.764   2.624
 7213W        W11413   8.719   2.307   3.400
 7214W        W11414  11.397   7.969  10.844
 7215W        W11415   9.144  11.172   1.189
 7216W        W11416   5.240   3.324   8.352
 7217W        W11417  10.392   4.514   9.805
 7218W        W11418   4.652   6.702   3.415
 7219W        W11419   8.515   7.283   0.876
 7220W        W11420   5.669   4.839   1.475
 7221W        W11421   2.819   2.111   1.395
 7222W        W11422   9.552   9.362   9.852
 7223W        W11423   3.283   0.453  11.915
 7224W        W11424   9.396   3.237   0.810
 7225W        W11425   7.792   3.124  10.087
 7226W        W11426   6.980   7.981   1.054
 7227W        W11427   9.459   0.722   0.733
 7228W        W11428   5.696  10.580   8.939
 7229W        W11429  10.737   4.159   1.399
 7230W        W11430   9.917   6.213   0.951
 7231W        W11431   5.331   4.922   1.096
 7232W        W11432   1.347   1.218  11.548
 7233W        W11433   9.812  10.349   2.513
 7234W        W11434   3.674   6.532  11.467
 7235W        W11435  10.157   4.287   1.347
 7236W        W11436   3.147   0.002   2.715
 7237W        W11437   0.674   9.436   9.364
 7238W        W11438   2.122  11.448  10.942
 7239W        W11439  10.422   1.365  10.096
 7240W        W11440   5.206   8.381  10.340
 7241W        W11441   6.174  10.843  10.078
 7242W        W11442   7.620  10.452   9.304
 7243W        W11443   0.465   9.081   1.714
 7244W        W11444  10.400   1.850   2.676
 7245W        W11445   8.503   2.035   8.480
 7246W        W11446   4.744   0.526  11.971
 7247W        W11447  10.290   9.473   2.120
 7248W        W11448   4.825   0.926   1.135
 7249W        W11449   8.466   3.223   0.287
 7250W        W11450   8.359   7.959   2.236
 7251W        W11451   0.687   8.598   3.260
 7252W        W11452   3.795   8.608   3.966
 7253W        W11453   5.923   4.981   3.111
 7254W        W11454   2.335   2.117   2.853
 7255W        W11455   5.270  10.829   0.137
 7256W        W11456  10.420   6.943   9.927
 7257W        W11457   3.229   6.522  11.726
 7258W        W11458   3.597   7.002   1.940
 7259W        W11459   6.458   5.239   0.923
 7260W        W11460   4.653   7.612   9.800
 7261W        W11461   2.023   2.733   0.875
 7262W        W11462   1.719   9.144   1.650
 7263W        W11463   5.142   4.322  10.989
 7264W        W11464   6.372   7.108   3.570
 7265W        W11465   0.488   7.172  10.806
 7266W        W11466   5.669   2.066   0.612
 7267W        W11467   5.504   8.970   8.992
 7268W        W11468   8.629   0.804   0.330
 7269W        W11469   0.840   6.761   0.816
 7270W        W11470   1.300   7.019   0.642
 7271W        W11471   9.679   8.140   9.461
 7272W        W11472   0.114   3.080   1.167
 7273W        W11473   2.766   1.663   2.247
 7274W        W11474   8.503   5.622   8.485
 7275W        W11475   8.579   8.449  10.672
 7276W        W11476   0.619   7.194   0.986
 7277W        W11477   2.120   9.731   9.814
 7278W        W11478   7.770   6.359  11.000
 7279W        W11479   5.158   0.038   1.250
 7280W        W11480   2.371   6.060   2.401
 7281W        W11481  10.037   9.484   3.000
 7282W        W11482   5.591   7.038   1.944
 7283W        W11483   3.627   6.916   9.329
 7284W        W11484   7.120   0.267   3.286
 7285W        W11485   4.737   2.229   9.035
 7286W        W11486   2.314   3.850   1.276
 7287W        W11487  10.964   3.781   1.029
 7288W        W11488   0.419   5.055   0.508
 7289W        W11489   4.105  10.651  11.505
 7290W        W11490   0.834   1.005  11.308
 7291W        W11491   6.350   2.572   8.167
 7292W        W11492   3.673   7.505   1.757
 7293W        W11493   0.921   5.213  11.327
 7294W        W11494   3.131  10.971   0.433
 7295W        W11495   4.338   4.976   0.579
 7296W        W11496   1.536  10.966   9.905
 7297W        W11497   3.918   2.815  11.596
 7298W        W11498   5.331   4.015  10.497
 7299W        W11499   6.681   4.713   2.167
 7300W        W11500   6.621   7.655   2.794
 7301W        W11501   9.011   6.673   9.935
 7302W        W11502   8.127  11.252  11.352
 7303W        W11503   7.579   3.219   3.324
 7304W        W11504   9.375   1.814   8.805
 7305W        W11505   3.058   0.935  10.610
 7306W        W11506   1.747   5.249   1.406
 7307W        W11507   8.773   5.353  11.613
 7308W        W11508   6.209   1.934   9.792
 7309W        W11509   2.912   7.868   9.038
 7310W        W11510   9.538   2.223   2.695
 7311W        W11511   8.555   6.383   8.168
 7312W        W11512   7.899   4.838   9.060
 7313W        W11513   4.730   8.467   2.298
 7314W        W11514   9.499   3.712   3.414
 7315W        W11515   0.369  10.080  10.003
 7316W        W11516   4.781   1.185   3.736
 7317W        W11517   6.412   2.901   2.757
 7318W        W11518   1.992   3.402   2.663
 7319W        W11519   1.439   7.943   1.763
 7320W        W11520   3.118   6.515   0.262
 7321W        W11521   4.260   0.548   1.964
 7322W        W11522   7.016   2.394   0.746
 7323W        W11523   1.673   8.423   0.566
 7324W        W11524   0.023   2.058   0.889
 7325W        W11525   5.573   2.722   3.881
 7326W        W11526   6.537   3.373  11.619
 7327W        W11527   5.590   4.613   8.257
 7328W        W11528   7.452   8.873   0.957
 7329W        W11529   0.424   9.627  11.940
 7330W        W11530   5.740   1.399   9.323
 7331W        W11531   5.560   2.362   9.859
 7332W        W11532   0.809   5.529  11.717
 7333W        W11533   3.609  10.875   0.203
 7334W        W11534   5.283   9.822  10.392
 7335W        W11535   8.863   9.361  11.917
 7336W        W11536  10.824   3.679   8.818
 7337W        W11537   4.259   7.709   2.271
 7338W        W11538   9.578   6.442   2.572
 7339W        W11539   4.469   8.454  11.730
 7340W        W11540   4.125   5.536   0.688
 7341W        W11541  11.353   8.978   0.992
 7342W        W11542   3.069   9.752   8.345
 7343W        W11543   4.175   1.834   3.207
 7344W        W11544  11.423   1.863   3.122
 7345W        W11545   0.490   3.633   0.475
 7346W        W11546   8.949   3.740   1.447
 7347W        W11547   0.885  10.515  10.541
 7348W        W11548   7.675   1.922  10.636
 7349W        W11549   3.126  11.017   0.968
 7350W        W11550   0.769   4.123   3.708
 7351W        W11551   1.712  11.336   9.581
 7352W        W11552   1.079   1.266   0.849
 7353W        W11553   4.477   4.652   8.949
 7354W        W11554   3.664   3.185   0.397
 7355W        W11555   8.163   7.529   9.722
 7356W        W11556   2.225  10.240  11.030
 7357W        W11557   1.918   3.778   0.258
 7358W        W11558  10.865   3.594  10.658
 7359W        W11559   3.547  10.787   3.311
 7360W        W11560   9.421   1.836   2.251
 7361W        W11561   3.292   0.628  10.019
 7362W        W11562  11.497  11.347   1.512
 7363W        W11563   2.283   2.746   0.439
 7364W        W11564  11.348   8.878  10.061
 7365W        W11565   4.699   5.955   4.097
 7366W        W11566   6.383  10.911  11.082
 7367W        W11567   6.640   5.709  11.513
 7368W        W11568   7.872   2.206   9.736
 7369W        W11569  11.101   3.693   9.259
 7370W        W11570  10.834   4.956   0.354
 7371W        W11571   2.312   9.345  11.742
 7372W        W11572   1.704   5.252   8.491
 7373W        W11573   0.890   9.526   2.944
 7374W        W11574   1.880   7.890   1.528
 7375W        W11575   1.817   5.692   1.132
 7376W        W11576   1.870   7.536   0.744
 7377W        W11577   3.826   3.553   2.666
 7378W        W11578   6.134   9.507   1.936
 7379W        W11579   7.646   4.553   3.746
 7380W        W11580   1.260   6.664   1.632
 7381W        W11581   9.855  10.491   0.300
 7382W        W11582   1.815   4.586   1.452
 7383W        W11583   1.632   5.664  11.190
 7384W        W11584   9.365  10.329   9.976
 7385W        W11585   2.742   5.537   1.188
 7386W        W11586   5.693   7.541   2.670
 7387W        W11587   0.977   4.201  10.562
 7388W        W11588   9.519   4.409   1.794
 7389W        W11589   2.653  10.261   9.556
 7390W        W11590   5.335   4.250   1.962
 7391W        W11591   0.454   1.727   1.942
 7392W        W11592   3.712   1.741   2.567
 7393W        W11593   0.861   0.757   1.678
 7394W        W11594   2.301   7.063   8.556
 7395W        W11595   8.360   5.262  11.950
 7396W        W11596  10.396   2.098   9.578
 7397W        W11597   1.171   5.842   2.884
 7398W        W11598   6.041   2.586   2.100
 7399W        W11599   3.549   5.170   8.987
 7400W        W11600   8.030   5.704   3.841
 7401W        W11601   2.377   6.075   3.323
 7402W        W11602  11.027   8.277   0.800
 7403W        W11603   4.427   0.322   3.243
 7404W        W11604   9.234   0.475   1.597
 7405W        W11605   5.606   4.044  10.962
 7406W        W11606   9.593   7.393   2.671
 7407W        W11607   0.036  10.256   9.474
 7408W        W11608   5.954  10.271   0.187
 7409W        W11609   2.768   9.988   2.658
 7410W        W11610   1.829   7.247   2.319
 7411W        W11611   1.429   8.642  10.060
 7412W        W11612   9.020   5.120   9.400
 7413W        W11613   4.076  10.813   9.397
 7414W        W11614   6.362   8.005   1.542
 7415W        W11615  10.376   4.694   0.385
 7416W        W11616   7.313   5.711   2.419
 7417W        W11617   3.275   8.213  10.607
 7418W        W11618   2.715   0.920   3.129
 7419W        W11619  10.688   9.394   3.094
 7420W        W11620   6.651   3.752  10.331
 7421W        W11621   3.235   6.959   8.980
 7422W        W11622   8.393   0.273   8.410
 7423W        W11623   3.751   2.777   0.673
 7424W        W11624   2.497  11.363   3.285
 7425W        W11625  11.143   7.935   9.845
 7426W        W11626   5.026   3.112   2.348
 7427W        W11627   6.744   9.799  10.453
 7428W        W11628   3.531   4.454   9.353
 7429W        W11629  11.099   8.797   1.429
 7430W        W11630   3.131  10.923   1.541
 7431W        W11631   6.989  11.144   9.516
 7432W        W11632   6.385   9.384   0.470
 7433W        W11633   8.369   9.985   1.743
 7434W        W11634   4.959   3.701  11.744
 7435W        W11635   7.665   1.765  10.112
 7436W        W11636   3.670  10.929   1.749
 7437W        W11637   0.317   4.307   8.828
 7438W        W11638   4.719   5.709   0.034
 7439W        W11639  10.756   0.818   9.422
 7440W        W11640   1.193  11.341   9.828
 7441W        W11641   2.365   8.910   2.499
 7442W        W11642  10.551   4.219   0.932
 7443W        W11643   0.163   2.200  11.823
 7444W        W11644   2.940   2.664   0.003
 7445W        W11645  10.726   5.242   8.547
 7446W        W11646   7.595   8.100  11.756
 7447W        W11647   0.574   5.101   1.855
 7448W        W11648   2.234   3.845  11.842
 7449W        W11649  10.314   0.988  11.415
 7450W        W11650  11.375  10.085  11.130
 7451W        W11651  10.508  11.354   3.331
 7452W        W11652   7.089   1.845   3.461
 7453W        W11653   3.011   2.123   2.238
 7454W        W11654   8.153   9.939   2.719
 7455W        W11655   3.230   9.616  10.261
 7456W        W11656  10.665   0.358   3.257
 7457W        W11657   3.285   4.120   0.841
 7458W        W11658   4.096   6.976   1.941
 7459W        W11659  11.027  10.717   9.976
 7460W        W11660   5.123   7.220  11.518
 7461W        W11661   8.136  10.827   3.244
 7462W        W11662   2.205   5.082   8.635
 7463W        W11663  10.810   0.336   8.526
 7464W        W11664   5.511   7.196   3.824
 7465W        W11665  10.396   5.471   8.858
 7466W        W11666   2.870   2.728   3.304
 7467W        W11667  10.740   9.275  11.617
 7468W        W11668  10.350   5.603   3.044
 7469W        W11669   8.121  10.262   9.595
 7470W        W11670   1.778  10.093   9.735
 7471W        W11671   5.507   4.521   3.770
 7472W        W11672   4.680   9.302  11.774
 7473W        W11673   7.609   4.770   2.169
 7474W        W11674   7.135   8.439   9.244
 7475W        W11675   1.087   4.865   3.654
 7476W        W11676   1.587   8.188   3.483
 7477W        W11677   4.022   7.599  11.891
 7478W        W11678   9.165   3.663  11.683
 7479W        W11679   5.633   0.353   9.494
 7480W        W11680   8.612   8.014  11.520
 7481W        W11681  11.318  10.023   1.164
 7482W        W11682  11.399   8.275   9.064
 7483W        W11683   3.367  10.414   1.119
 7484W        W11684   1.852   8.396   1.028
 7485W        W11685   1.223   9.068  11.143
 7486W        W11686   2.654   9.770   0.443
 7487W        W11687   5.034   5.308   2.351
 7488W        W11688   7.744   2.371   0.275
 7489W        W11689  10.319   9.128   1.739
 7490W        W11690   8.932  10.442   2.805
 7491W        W11691   1.083   4.404   8.687
 7492W        W11692   2.880   8.866   2.402
 7493W        W11693   1.712   1.415  11.892
 7494W        W11694   3.507   2.559   9.013
 7495W        W11695   7.122   8.822   2.229
 7496W        W11696   6.820   7.564   1.328
 7497W        W11697   2.673   0.307   3.522
 7498W        W11698   1.231   9.558   1.242
 7499W        W11699   7.819   8.578  10.002
 7500W        W11700   6.173   7.318   2.715
 7501W        W11701   2.634   0.719   0.352
 7502W        W11702   3.114   1.676   9.117
 7503W        W11703   8.040   4.723  11.294
 7504W        W11704   4.658   8.513   1.259
 7505W        W11705   5.051   6.095   2.008
 7506W        W11706   4.705   4.837   0.948
 7507W        W11707   1.221   0.754   9.431
 7508W        W11708   7.531   2.649   9.056
 7509W        W11709   6.554   9.035  10.723
 7510W        W11710   1.801   6.617   9.592
 7511W        W11711  10.471   0.198   0.460
 7512W        W11712   8.204   8.494  10.310
 7513W        W11713   4.497   5.258  11.741
 7514W        W11714   0.930   3.098   0.970
 7515W        W11715   9.986   6.807   0.702
 7516W        W11716   2.391   8.024   0.071
 7517W        W11717   0.733   5.710   1.998
 7518W        W11718   8.679   2.049   2.951
 7519W        W11719   5.042   4.389  11.497
 7520W        W11720   9.294   8.394   0.511
 7521W        W11721   8.877   2.294  10.442
 7522W        W11722   3.941   2.386   8.608
 7523W        W11723  10.958   5.244  10.043
 7524W        W11724   6.778   5.127  10.129
 7525W        W11725   9.045   2.534   0.459
 7526W        W11726   8.856   4.441   8.863
 7527W        W11727   3.203   8.413   1.758
 7528W        W11728   3.567   4.872   1.260
 7529W        W11729  10.550   3.741   0.726
 7530W        W11730   6.571   3.335  10.026
 7531W        W11731   0.963   4.792   9.047
 7532W        W11732   5.444   8.378  11.698
 7533W        W11733   1.920   3.671   9.314
 7534W        W11734   3.895   2.149  10.791
 7535W        W11735  10.427   1.168  10.564
 7536W        W11736   3.425   5.237   4.120
 7537W        W11737   6.183   2.722   3.170
 7538W        W11738   4.062   9.140  11.377
 7539W        W11739   6.022   4.783  10.843
 7540W        W11740   8.232   8.437   1.392
 7541W        W11741   9.320   1.815  11.448
 7542W        W11742   1.653   6.484   3.287
 7543W        W11743   8.137   7.340   9.256
 7544W        W11744   8.264   1.715   2.983
 7545W        W11745   8.561  10.821   2.862
 7546W        W11746   2.220   4.082   3.098
 7547W        W11747  11.446   9.604  11.773
 7548W        W11748   0.443   2.643   2.861
 7549W        W11749   6.182   5.056   1.332
 7550W        W11750   6.550   9.033   2.908
 7551W        W11751   7.690  11.451  11.526
 7552W        W11752   6.316   0.887   0.456
 7553W        W11753   0.863   8.937  11.522
 7554W        W11754   2.132   9.813  11.321
 7555W        W11755   5.013   7.411   0.053
 7556W        W11756  10.736  10.839   1.274
 7557W        W11757   3.976   7.952   9.171
 7558W        W11758   5.049   4.075   8.737
 7559W        W11759   9.088   3.321   8.927
 7560W        W11760   4.357   9.587   0.358
 7561W        W11761   2.363   6.701   8.995
 7562W        W11762   6.130   6.020   2.278
 7563W        W11763   6.228   4.497   3.051
 7564W        W11764   0.861   5.658   1.165
 7565W        W11765   0.371   9.558   9.960
 7566W        W11766   8.571   5.210   8.166
 7567W        W11767   3.340   2.479   2.400
 7568W        W11768  10.380   0.474   8.796
 7569W        W11769   8.569   3.674  11.026
 7570W        W11770  11.356   8.253  11.293
 7571W        W11771  10.173   0.250   3.180
 7572W        W11772   6.214   6.590  11.327
 7573W        W11773  10.809   3.290   1.873
 7574W        W11774   5.131   7.402  10.100
 7575W        W11775   0.487  10.836  10.431
 7576W        W11776   5.200   8.667   2.577
 7577W        W11777   9.984  11.388  10.963
 7578W        W11778   7.119   9.331   1.489
 7579W        W11779   9.183   8.252   9.453
 7580W        W11780   5.222   1.927   0.423
 7581W        W11781   4.224   4.551   2.358
 7582W        W11782   8.963   8.920  10.236
 7583W        W11783   0.652   2.387   3.260
 7584W        W11784   7.560   6.398   4.076
 7585W        W11785   9.022   6.475   7.884
 7586W        W11786   7.977   6.849  10.863
 7587W        W11787   2.798  11.309   1.232
 7588W        W11788   9.640   4.575   9.309
 7589W        W11789   6.905   7.606  10.830
 7590W        W11790   5.630   9.828  10.846
 7591W        W11791   0.390   6.560   9.684
 7592W        W11792   2.131   0.405   1.346
 7593W        W11793   3.016   2.333  10.635
 7594W        W11794  10.812  10.758  11.404
 7595W        W11795   1.252   7.833   2.947
 7596W        W11796   0.395   7.118   3.020
 7597W        W11797   5.043   8.839  10.544
 7598W        W11798   7.452   1.652   0.725
 7599W        W11799   5.608   0.254  11.009
 7600W        W11800   7.895   7.800   9.351
 7601W        W11801   6.440   9.691  10.877
 7602W        W11802   5.267   2.889   2.729
 7603W        W11803   5.193   6.159  10.464
 7604W        W11804   5.199   2.115   8.482
 7605W        W11805   1.455   0.230  11.249
 7606W        W11806   2.715   1.624   0.122
 7607W        W11807   0.897   6.874   3.135
 7608W        W11808   8.234   3.621   8.626
 7609W        W11809   0.913   9.075   2.000
 7610W        W11810   6.110  11.343  10.895
 7611W        W11811   5.636   9.461  10.296
 7612W        W11812   3.554   0.150  10.037
 7613W        W11813  11.193  10.510   2.797
 7614W        W11814   6.610   8.937   0.428
 7615W        W11815   0.333   4.204   9.369
 7616W        W11816   1.504   7.418  11.147
 7617W        W11817   8.504   2.821  11.007
 7618W        W11818   2.889   9.799   8.972
 7619W        W11819   4.816   2.470  10.440
 7620W        W11820   3.518   1.304  10.725
 7621W        W11821   4.800   7.653   0.824
 7622W        W11822   1.572   5.172   9.503
 7623W        W11823   3.474   5.440   8.518
 7624W        W11824  10.328   5.576   1.926
 7625W        W11825   2.744   5.726  11.749
 7626W        W11826   9.211   5.187   1.899
 7627W        W11827   2.698   3.648   8.979
 7628W        W11828   6.013  10.362   8.542
 7629W        W11829   6.658  10.115   9.370
 7630W        W11830   2.229   2.444   9.031
 7631W        W11831   6.330   8.198   8.217
 7632W        W11832   6.978   0.006  10.475
 7633W        W11833   8.648  10.800   9.943
 7634W        W11834   6.022   4.547   9.928
 7635W        W11835   5.653   2.713  11.497
 7636W        W11836   4.041  10.628   8.592
 7637W        W11837   5.782   3.211   3.871
 7638W        W11838   5.063   0.702  10.337
 7639W        W11839   2.664   4.550  10.702
 7640W        W11840  11.088  11.485  11.775
 7641W        W11841   7.451   1.265  11.839
 7642W        W11842   5.558   5.933  11.097
 7643W        W11843   1.810   6.402   0.026
 7644W        W11844   5.454  11.276  10.285
 7645W        W11845   2.968   8.382   8.358
 7646W        W11846   4.229   5.533  11.313
 7647W        W11847   4.758   7.444   2.274
 7648W        W11848   6.058   2.118  10.598
 7649W        W11849   9.285   8.161  10.265
 7650W        W11850   2.812   1.254   1.927
 7651W        W11851   8.888   1.151   0.007
 7652W        W11852   4.735   9.316  10.695
 7653W        W11853   0.918  11.281   1.940
 7654W        W11854   1.131   2.658   1.125
 7655W        W11855   8.217   6.078   1.223
 7656W        W11856   9.940   0.353   9.636
 7657W        W11857   0.289   6.964   9.994
 7658W        W11858   2.630   8.536   8.720
 7659W        W11859   2.683   5.061   8.394
 7660W        W11860   2.743   4.239   8.299
 7661W        W11861  11.391   4.804  10.071
 7662W        W11862   4.278   2.705  10.208
 7663W        W11863   5.042   4.429   9.098
 7664W        W11864   5.644   9.832   9.350
 7665W        W11865   5.839   3.605   1.432
 7666W        W11866   9.500  10.407   9.047
 7667W        W11867   6.183   5.736   2.728
 7668W        W11868  10.430   5.222   9.303
 7669W        W11869   9.310   7.445   8.527
 7670W        W11870  11.267   8.317   3.089
 7671W        W11871   0.005   6.030   1.089
 7672W        W11872  11.288   4.741   9.567
 7673W        W11873  11.318   1.862  10.068
 7674W        W11874   2.986   6.916  10.356
 7675W        W11875   6.843   7.132  11.530
 7676W        W11876   6.430   6.629   9.559
 7677W        W11877   5.161   2.360  11.316
 7678W        W11878   7.744   5.068  10.763
 7679W        W11879   6.739   3.659   1.277
 7680W        W11880   2.653   1.450   0.783
 7681W        W11881   2.823   2.595   2.309
 7682W        W11882   7.142  10.495   2.931
 7683W        W11883   9.781   9.398   9.096
 7684W        W11884  10.605   4.773  11.934
 7685W        W11885   7.585  10.368   3.131
 7686W        W11886   0.887   1.444   9.515
 7687W        W11887   3.651   3.938  10.140
 7688W        W11888  10.523   5.151   1.716
 7689W        W11889   0.679   9.561   2.474
 7690W        W11890   1.820   5.159   9.941
 7691W        W11891   3.832   3.279  11.349
 7692W        W11892   9.951  10.089   9.743
 7693W        W11893  10.313  11.427   1.844
 7694W        W11894   7.120   2.605  10.834
 7695W        W11895   4.797   9.515   9.231
 7696W        W11896   5.157   9.574  11.374
 7697W        W11897  10.008   2.113   2.925
 7698W        W11898   7.980   5.726  11.480
 7699W        W11899   9.948   4.914   0.061
 7700W        W11900   1.204  10.844  10.277
 7701W        W11901   7.623   0.525   0.743
 7702W        W11902   6.805   7.044   1.197
 7703W        W11903  10.287   0.781   9.242
 7704W        W11904   0.053   6.959  11.868
 7705W        W11905   6.503   4.547   0.638
 7706W        W11906   8.164  11.489   9.712
 7707W        W11907   0.691   3.015   2.372
 7708W        W11908   5.135   7.999   1.144
 7709W        W11909  10.352   0.916   2.390
 7710W        W11910   0.220   9.819  11.390
 7711W        W11911   8.465   9.493  11.638
 7712W        W11912   2.305   0.648   3.321
 7713W        W11913   2.306  10.495  11.941
 7714W        W11914   0.086   1.548   0.876
 7715W        W11915   2.314   8.352   1.228
 7716W        W11916   3.750   3.088   2.862
 7717W        W11917   4.427   9.437   3.641
 7718W        W11918   2.322  11.221   2.294
 7719W        W11919   3.660   7.583   0.429
 7720W        W11920   2.643   4.969   0.359
 7721W        W11921   1.346   9.995  11.755
 7722W        W11922   7.908   1.483  10.752
 7723W        W11923  10.491   1.182   1.541
 7724W        W11924   0.724   3.132   9.311
 7725W        W11925   7.101   1.629  10.820
 7726W        W11926   6.144   7.610   2.306
 7727W        W11927   6.596   6.536   1.161
 7728W        W11928   1.760   2.038   0.497
 7729W        W11929   9.398   1.316  11.510
 7730W        W11930   3.686   3.715   1.656
 7731W        W11931   7.450   4.306   1.966
 7732W        W11932   1.901   1.538   0.476
 7733W        W11933   1.139   9.466   2.253
 7734W        W11934   9.968   6.660   8.721
 7735W        W11935   5.969  10.712   3.269
 7736W        W11936   0.253   9.521   9.008
 7737W        W11937   7.859   5.501  11.019
 7738W        W11938   8.215   9.071   2.185
 7739W        W11939   0.986   3.193   2.772
 7740W        W11940   3.014   4.216  11.506
 7741W        W11941  10.192   4.483  11.933
 7742W        W11942   7.574  10.322  10.286
 7743W        W11943   1.683   9.014   2.816
 7744W        W11944  10.827   6.570   0.680
 7745W        W11945   6.711   0.073   0.426
 7746W        W11946  11.287   6.110   1.544
 7747W        W11947   9.596   3.688  11.917
 7748W        W11948   1.982  11.458   0.868
 7749W        W11949   3.728   7.823   2.187
 7750W        W11950   1.739   5.782   0.648
 7751W        W11951   8.857   8.118   1.470
 7752W        W11952   4.938   6.518   9.084
 7753W        W11953   0.028   2.723   1.979
 7754W        W11954  10.440  11.081  11.098
 7755W        W11955   6.697   2.211   9.389
 7756W        W11956   4.393   1.525   2.270
 7757W        W11957   3.569   4.211   8.915
 7758W        W11958   4.791   0.217  10.960
 7759W        W11959   2.862   7.072   3.275
 7760W        W11960   5.706  10.641   9.961
 7761W        W11961  10.940   4.767   8.587
 7762W        W11962   9.242   9.093   0.623
 7763W        W11963  10.577   2.767  10.709
 7764W        W11964   6.180   1.734   1.009
 7765W        W11965   6.492  10.685   0.811
 7766W        W11966   3.163   4.214   2.263
 7767W        W11967   5.249   6.802   8.761
 7768W        W11968   0.411   5.577   0.045
 7769W        W11969  11.464   6.176   9.071
 7770W        W11970  10.886   5.901  10.987
 7771W        W11971   4.240  10.092  10.787
 7772W        W11972   8.988   9.046   1.056
 7773W        W11973   5.062  11.088   9.366
 7774W        W11974   8.529   5.313   2.388
 7775W        W11975   3.168   3.316   9.979
 7776W        W11976   8.194   0.968   0.106
 7777W        W11977   1.378  10.379  10.483
 7778W        W11978   1.915   4.280   0.433
 7779W        W11979   6.546   3.699   0.384
 7780W        W11980   6.439  10.813   2.303
 7781W        W11981   0.691   9.774   8.939
 7782W        W11982   6.186   4.293  11.887
 7783W        W11983   9.568  11.072   9.806
 7784W        W11984   2.412   5.066  10.510
 7785W        W11985   8.213   5.109  10.990
 7786W        W11986   9.405   3.748   1.187
 7787W        W11987   7.104   6.966   2.346
 7788W        W11988   1.770   7.718   2.153
 7789W        W11989  11.339   9.388   9.983
 7790W        W11990   2.485   3.108  10.615
 7791W        W11991   8.879   9.803  11.666
 7792W        W11992   5.206   1.934   1.830
 7793W        W11993   4.825  11.297   1.542
 7794W        W11994   2.919   3.659   0.244
 7795W        W11995   5.398   2.740   9.041
 7796W        W11996   7.980   0.214  11.873
 7797W        W11997   6.385   9.115   3.719
 7798W        W11998   8.376   3.399   1.772
 7799W        W11999   5.993   0.187   0.214
 7800W        W12000   6.507  10.843  11.582
 7801W        W12001  10.458   2.224   3.530
 7802W        W12002   0.786   6.707   1.810
 7803W        W12003   8.428   1.407  11.962
 7804W        W12004   1.790   1.752  10.035
 7805W        W12005   3.268   8.685  10.336
 7806W        W12006   6.588   6.157   0.814
 7807W        W12007   9.505   8.115   3.201
 7808W        W12008   1.420   3.525   2.059
 7809W        W12009   6.271   8.845  11.090
 7810W        W12010   8.879   6.220   3.233
 7811W        W12011   8.787   9.576   3.198
 7812W        W12012   5.704   5.138   9.143
 7813W        W12013   9.335   3.390   1.787
 7814W        W12014   7.637   5.413   9.805
 7815W        W12015   3.127   2.089   9.687
 7816W        W12016   0.954   1.971   3.191
 7817W        W12017   8.930   0.546   3.184
 7818W        W12018  10.400   6.442   1.990
 7819W        W12019   7.918   4.262  10.045
 7820W        W12020   6.672   2.534  11.987
 7821W        W12021   4.496   5.789   1.080
 7822W        W12022  10.845   7.018   0.921
 7823W        W12023   4.445   3.242   0.777
 7824W        W12024  10.656   9.573   9.554
 7825W        W12025  11.379   5.522   3.211
 7826W        W12026   6.663   2.730   9.498
 7827W        W12027   5.510  10.159  11.826
 7828W        W12028   2.790   4.845   0.841
 7829W        W12029   2.488   9.478   1.801
 7830W        W12030   5.129   6.503   1.171
 7831W        W12031   1.807   3.361   0.837
 7832W        W12032  10.466   9.104   9.417
 7833W        W12033   4.304   8.639   3.744
 7834W        W12034   0.841   0.261   1.138
 7835W        W12035   5.973   8.207   3.586
 7836W        W12036   7.638   6.552  10.537
 7837W        W12037   4.448   4.214  10.452
 7838W        W12038   8.962  10.834   9.459
 7839W        W12039   7.856   6.940   9.070
 7840W        W12040   8.527   6.922   1.394
 7841W        W12041   2.687  10.788   1.089
 7842W        W12042  10.005  11.270   3.107
 7843W        W12043   3.091   7.043   1.944
 7844W        W12044   3.782   5.964  11.029
 7845W        W12045   4.818   6.143  11.300
 7846W        W12046   9.548   8.615  10.350
 7847W        W12047   3.377  10.015   9.171
 7848W        W12048   2.249   7.876   9.472
 7849W        W12049   3.351   3.463   0.074
 7850W        W12050   1.475   7.844  11.979
 7851W        W12051   4.481   2.742   9.766
 7852W        W12052   8.589   9.139   0.444
 7853W        W12053   9.105  11.345  10.805
 7854W        W12054   7.190   2.362   3.385
 7855W        W12055   2.567   2.631  11.285
 7856W        W12056   0.354   4.813   1.258
 7857W        W12057   4.687   0.148   2.824
 7858W        W12058   5.767   4.378   1.689
 7859W        W12059   6.635   6.092   2.273
 7860W        W12060   5.900   2.728   8.965
 7861W        W12061   8.284   5.167   3.216
 7862W        W12062   6.926   5.133   2.374
 7863W        W12063   9.123   8.414  11.507
 7864W        W12064   2.245   5.272   9.105
 7865W        W12065   1.279   4.106   9.748
 7866W        W12066   0.867   0.282   2.145
 7867W        W12067   7.464  11.474  10.182
 7868W        W12068   0.747   2.164   1.922
 7869W        W12069   7.168   0.768  11.841
 7870W        W12070   8.349   4.543  10.293
 7871W        W12071  11.102   4.102   2.295
 7872W        W12072   9.906   3.788   1.339
 7873W        W12073   3.137   9.339   0.730
 7874W        W12074   3.813   1.635   9.932
 7875W        W12075  10.849   4.640  10.836
 7876W        W12076   8.258   6.360  10.813
 7877W        W12077  10.101   3.839   9.535
 7878W        W12078  10.689   4.158  10.573
 7879W        W12079   5.128   7.496  10.603
 7880W        W12080  11.427  10.964   2.791
 7881W        W12081   0.429   5.288   1.399
 7882W        W12082  10.142   3.774   3.443
 7883W        W12083   6.331   3.961   8.179
 7884W        W12084   3.218   5.425   3.692
 7885W        W12085   8.473   0.797   3.203
 7886W        W12086   1.801   6.494   9.077
 7887W        W12087   2.317   1.850   0.452
 7888W        W12088  10.864   3.909  11.080
 7889W        W12089   5.219   1.844  11.434
 7890W        W12090   5.464   8.165   9.894
 7891W        W12091   5.877   2.013   1.894
 7892W        W12092   2.316   7.544  11.789
 7893W        W12093   3.069   0.342   1.410
 7894W        W12094   7.640   3.117  10.968
 7895W        W12095   2.446  10.685  10.896
 7896W        W12096   4.208   3.210  10.432
 7897W        W12097   8.583   4.265   2.866
 7898W        W12098   1.372   0.392   0.843
 7899W        W12099   0.293   0.398   0.011
 7900W        W12100   7.068   0.244   2.222
 7901W        W12101   9.104   6.620   8.865
 7902W        W12102   4.193   7.493   1.828
 7903W        W12103   8.592   1.820   3.376
 7904W        W12104   1.517   0.331   9.578
 7905W        W12105   1.441   2.880   8.343
 7906W        W12106   7.339   6.455  10.093
 7907W        W12107  10.574   7.114   2.751
 7908W        W12108  11.349   9.780   3.416
 7909W        W12109   6.456   9.765   0.807
 7910W        W12110   1.909   7.775   3.497
 7911W        W12111   2.844   1.889   0.538
 7912W        W12112   7.029   4.837   9.106
 7913W        W12113   3.294   6.215  10.702
 7914W        W12114   9.613   3.111   2.759
 7915W        W12115   6.457   6.078  10.978
 7916W        W12116  10.350  10.384   0.230
 7917W        W12117   3.126   6.048  11.846
 7918W        W12118   5.362   1.912  10.016
 7919W        W12119   7.704   5.951  10.701
 7920W        W12120   7.499   5.385   0.240
 7921W        W12121   9.402  10.247   2.798
 7922W        W12122   0.994   9.854   1.664
 7923W        W12123   4.604   1.767   1.422
 7924W        W12124   6.150   2.259   0.763
 7925W        W12125   1.814   2.272   8.754
 7926W        W12126   2.182   7.081  11.566
 7927W        W12127   9.444   9.124   9.385
 7928W        W12128   4.657   1.883  10.293
 7929W        W12129   1.393   7.035   3.268
 7930W        W12130   9.990   3.278  10.849
 7931W        W12131   8.958   5.071   3.755
 7932W        W12132   6.476   9.962  11.899
 7933W        W12133   5.186   8.353   1.559
 7934W        W12134   6.593   2.325   0.467
 7935W        W12135  11.287  10.536  10.406
 7936W        W12136   4.793   0.965   1.638
 7937W        W12137   7.718   8.979  11.458
 7938W        W12138   5.523   7.548  11.440
 7939W        W12139   7.623   3.125   2.016
 7940W        W12140   7.945   6.880  11.717
 7941W        W12141   4.686   9.384   2.219
 7942W        W12142   2.255   6.146   0.271
 7943W        W12143   3.955   0.451   8.802
 7944W        W12144   5.946   0.951   9.479
 7945W        W12145   7.516   4.102   9.266
 7946W        W12146   9.492   1.903   3.548
 7947W        W12147   4.628  11.067   1.970
 7948W        W12148   5.712   1.178   0.350
 7949W        W12149   5.398  10.829  10.748
 7950W        W12150   6.986   4.192   9.958
 7951W        W12151   7.669   7.072  10.482
 7952W        W12152   3.681   6.457  10.932
 7953W        W12153  10.043   8.271   8.383
 7954W        W12154  10.994   0.420  10.334
 7955W        W12155  10.807   4.201   2.742
 7956W        W12156   1.337   6.646   2.932
 7957W        W12157   2.302   4.711   9.272
 7958W        W12158   2.387   1.606   2.964
 7959W        W12159   2.974   7.524   2.574
 7960W        W12160   5.491  11.447   0.867
 7961W        W12161   9.568   5.403   1.619
 7962W        W12162   0.986   7.059   8.731
 7963W        W12163   7.087   3.034   0.117
 7964W        W12164   1.790   5.416   0.298
 7965W        W12165   6.822   3.273   3.751
 7966W        W12166   6.680   5.344  10.580
 7967W        W12167   3.590   1.438   1.294
 7968W        W12168   4.134   8.002   0.887
 7969W        W12169   4.352   4.847   2.788
 7970W        W12170   2.195   0.385   1.939
 7971W        W12171   8.336  10.390   0.435
 7972W        W12172   5.228   9.368  11.850
 7973W        W12173   7.637   2.578  11.802
 7974W        W12174   2.844   2.861   2.793
 7975W        W12175   4.832   2.877  10.118
 7976W        W12176   0.770   7.588   1.274
 7977W        W12177   8.632  10.804   3.372
 7978W        W12178   0.798   4.113   9.561
 7979W        W12179   6.115   0.402   1.712
 7980W        W12180  10.534  10.717   0.564
 7981W        W12181   4.952  10.612   2.502
 7982W        W12182   5.618   9.646   9.823
 7983W        W12183   8.062   7.388   1.662
 7984W        W12184   3.035   9.065   9.552
 7985W        W12185  10.301   3.577   2.958
 7986W        W12186   5.126   1.657   0.854
 7987W        W12187   5.122   1.133   8.824
 7988W        W12188   9.994  10.785   3.266
 7989W        W12189   8.514   0.396  11.486
 7990W        W12190   8.559   7.452   2.822
 7991W        W12191   4.439   0.559   2.456
 7992W        W12192   7.475   3.052   9.696
 7993W        W12193   7.245  10.868   1.969
 7994W        W12194   0.004   5.539  11.723
 7995W        W12195   5.072  10.314   3.374
 7996W        W12196   8.674   9.377   2.338
 7997W        W12197   9.561   1.115   0.360
 7998W        W12198   6.562   9.505  11.645
 7999W        W12199   1.799   5.896   0.133
 8000W        W12200   5.649   3.666   3.300
 8001W        W12201   8.658   1.253   2.476
 8002W        W12202   9.018   4.532  11.872
 8003W        W12203  11.025   9.032   8.768
 8004W        W12204   2.468   7.049  11.068
 8005W        W12205   0.913   9.927   2.190
 8006W        W12206   9.684  10.974   3.641
 8007W        W12207   8.816   7.084  11.248
 8008W        W12208   6.554   2.194   8.795
 8009W        W12209   3.241   6.489  11.204
 8010W        W12210   0.698   3.656   9.802
 8011W        W12211   8.094   6.218   4.011
 8012W        W12212  10.478   8.581   9.439
 8013W        W12213  10.780   9.039  10.740
 8014W        W12214   6.557   4.789   1.660
 8015W        W12215   7.953   4.125   3.674
 8016W        W12216   7.542   2.869  11.399
 8017W        W12217   3.343   2.780   0.332
 8018W        W12218   2.706   6.530   9.535
 8019W        W12219   7.137   6.624   3.820
 8020W        W12220   1.450   2.802   3.033
 8021W        W12221   1.369   6.054   3.391
 8022W        W12222   0.675   5.219   0.935
 8023W        W12223   8.345   5.576  10.818
 8024W        W12224   8.683  10.493   1.766
 8025W        W12225   2.660   8.026   8.610
 8026W        W12226   6.917   9.863  11.666
 8027W        W12227   9.144   1.807  10.408
 8028W        W12228   2.713   6.029   8.992
 8029W        W12229   2.259   6.617  11.847
 8030W        W12230   5.272   6.030  11.506
 8031W        W12231   5.824   2.707   8.343
 8032W        W12232   0.302   7.460   1.414
 8033W        W12233  10.810   7.666  10.144
 8034W        W12234   3.419   5.236   0.327
 8035W        W12235   9.298   9.319   1.813
 8036W        W12236   7.010   9.813   1.659
 8037W        W12237   5.919   8.672  10.301
 8038W        W12238   5.834  11.483   8.994
 8039W        W12239  10.895   7.931   3.231
 8040W        W12240   3.206  10.214   2.174
 8041W        W12241   6.493  11.407  10.264
 8042W        W12242   5.426   9.546   3.687
 8043W        W12243   4.478   1.639   9.881
 8044W        W12244   2.433   2.172  11.461
 8045W        W12245   6.114   8.843   1.836
 8046W        W12246   0.254  10.073   3.257
 8047W        W12247   3.414  10.515   9.911
 8048W        W12248   9.077  10.218   8.782
 8049W        W12249   6.988  10.976  11.689
 8050W        W12250   8.705   5.755   3.119
 8051W        W12251  10.319   2.424  10.406
 8052W        W12252   5.023   6.513  10.095
 8053W        W12253   6.880   8.983   3.672
 8054W        W12254   9.906   4.069   1.787
 8055W        W12255   9.343   6.072   9.232
 8056W        W12256   0.355   1.329  10.374
 8057W        W12257  11.254   4.230   2.981
 8058W        W12258   7.239  11.078  10.400
 8059W        W12259  10.347   1.780   2.171
 8060W        W12260   8.655   5.211  10.626
 8061W        W12261   7.570   4.826  11.455
 8062W        W12262   3.119   4.765   0.420
 8063W        W12263   3.447   8.008   9.119
 8064W        W12264   7.801   3.870   3.262
 8065W        W12265   2.472   7.486  11.311
 8066W        W12266   4.201   3.856  11.027
 8067W        W12267   0.431   0.850   8.753
 8068W        W12268   7.927   0.698   9.325
 8069W        W12269   9.801   2.826  11.579
 8070W        W12270  11.391   8.628   0.139
 8071W        W12271   3.417   9.910  11.547
 8072W        W12272   1.764   4.589   0.017
 8073W        W12273   0.931  11.490   2.973
 8074W        W12274   5.216   5.597   1.870
 8075W        W12275   6.709   0.458   3.550
 8076W        W12276   2.408   7.071   0.546
 8077W        W12277   9.552  11.187   0.508
 8078W        W12278   2.760   6.918   8.740
 8079W        W12279  10.389   5.080   3.285
 8080W        W12280   1.455   3.725   0.493
 8081W        W12281  10.390   5.138   0.662
 8082W        W12282  11.383   8.431   1.656
 8083W        W12283   4.157   4.146  10.029
 8084W        W12284   4.783   0.643   2.813
 8085W        W12285   9.607   2.298   3.200
 8086W        W12286   7.596   7.554   1.830
 8087W        W12287   6.597   2.078   0.930
 8088W        W12288  10.143   8.996   0.499
 8089W        W12289   6.545   0.412   1.437
 8090W        W12290   3.297   6.655   1.661
 8091W        W12291   3.570   8.061   0.814
 8092W        W12292   3.245   3.239   2.800
 8093W        W12293   0.760   2.230   2.779
 8094W        W12294   5.953   3.826  11.864
 8095W        W12295   0.432   3.052   9.749
 8096W        W12296  10.429  10.022   9.480
 8097W        W12297   9.061   5.007  10.360
 8098W        W12298   5.559   9.435   2.217
 8099W        W12299   3.106   5.145   8.684
 8100W        W12300   3.600   9.936  11.061
 8101W        W12301   4.277   2.655   1.446
 8102W        W12302   8.454  10.375   2.625
 8103W        W12303   2.189   2.274   0.736
 8104W        W12304   4.742   0.309   8.356
 8105W        W12305   9.814   7.007   2.340
 8106W        W12306   0.440   4.812  10.122
 8107W        W12307   3.785   5.949  10.489
 8108W        W12308  11.062   2.881  11.715
 8109W        W12309   2.803   0.800  10.025
 8110W        W12310   0.515   9.509  10.716
 8111W        W12311   6.943  11.401   0.865
 8112W        W12312   6.860   6.066   0.353
 8113W        W12313   0.824  11.196  10.170
 8114W        W12314   7.338   8.930  11.769
 8115W        W12315  10.561   8.726   3.453
 8116W        W12316   3.826   2.116   9.055
 8117W        W12317   4.156   1.961  10.127
 8118W        W12318   6.318   6.312   9.174
 8119W        W12319   5.171   1.151   0.851
 8120W        W12320   0.674   5.231   9.290
 8121W        W12321   8.060   5.682   1.677
 8122W        W12322   9.074   8.532  10.540
 8123W        W12323  10.937   9.137  10.269
 8124W        W12324   6.331  10.055  10.303
 8125W        W12325   8.183   6.563   8.945
 8126W        W12326   2.099   7.111   2.734
 8127W        W12327   7.099  10.558   1.501
 8128W        W12328   6.085   9.792   9.944
 8129W        W12329  10.975   4.897   1.615
 8130W        W12330   0.389   2.615  10.488
 8131W        W12331   9.996   0.770   9.952
 8132W        W12332   1.850  11.013  11.499
 8133W        W12333   0.217   4.524   9.754
 8134W        W12334   2.464   6.153   1.268
 8135W        W12335   7.496   9.707   1.332
 8136W        W12336  11.112   7.847   0.030
 8137W        W12337   4.378   8.977   8.514
 8138W        W12338   8.159   3.189  10.442
 8139W        W12339   1.227   9.967  11.270
 8140W        W12340   3.960  10.852   0.906
 8141W        W12341   6.276  10.978  10.557
 8142W        W12342   5.067   9.676  10.877
 8143W        W12343   5.135   2.622   2.310
 8144W        W12344   3.667   4.346  11.980
 8145W        W12345   2.689  11.193  10.410
 8146W        W12346   7.525   4.055  11.829
 8147W        W12347   9.051   9.522   0.880
 8148W        W12348   7.968   8.477  11.427
 8149W        W12349   2.244  10.953  10.510
 8150W        W12350   2.819   3.660   9.863
 8151W        W12351   7.447  10.785  10.744
 8152W        W12352   1.258   1.000  10.438
 8153W        W12353   6.027   3.819   0.916
 8154W        W12354   5.711   4.270   8.644
 8155W        W12355   2.930   3.025   0.934
 8156W        W12356  10.454   7.866  11.049
 8157W        W12357   1.447  10.300   0.500
 8158W        W12358   6.089   8.959   0.501
 8159W        W12359   2.691   0.788   2.164
 8160W        W12360   1.047   1.387   2.336
 8161W        W12361   5.542   1.484  10.196
 8162W        W12362   2.549  11.450   9.992
 8163W        W12363   7.254  10.503   8.952
 8164W        W12364  10.400   8.923   9.908
 8165W        W12365   1.621   9.051  10.381
 8166W        W12366   9.576   6.132   0.530
 8167W        W12367   3.608   7.010   2.837
 8168W        W12368   7.885   5.349   9.064
 8169W        W12369   8.513   1.259   9.032
 8170W        W12370  11.282   6.589  10.954
 8171W        W12371   3.649   2.834   2.195
 8172W        W12372  11.372   2.570  11.995
 8173W        W12373   3.560  10.179  10.347
 8174W        W12374  10.799   7.605   2.868
 8175W        W12375  10.245   9.673  11.250
 8176W        W12376   3.719   7.424   9.314
 8177W        W12377  11.423  10.986  10.148
 8178W        W12378   3.203   6.960  11.986
 8179W        W12379   5.541   4.465  11.695
 8180W        W12380   4.758  10.930   2.996
 8181W        W12381   4.598   6.284   0.653
 8182W        W12382   5.905   7.255   1.180
 8183W        W12383   5.659   6.699   3.622
 8184W        W12384   2.081   0.070   9.863
 8185W        W12385   3.895   5.102   1.573
 8186W        W12386   6.643   8.300   3.392
 8187W        W12387   8.909   7.803   9.460
 8188W        W12388   3.405   1.384   2.776
 8189W        W12389  10.623   5.466   9.695
 8190W        W12390   1.270   6.443   0.724
 8191W        W12391   8.119   6.597   0.494
 8192W        W12392   6.720  10.213   3.602
 8193W        W12393   3.487   8.315   3.622
 8194W        W12394   6.211   7.006  10.568
 8195W        W12395   0.186  10.861  11.165
 8196W        W12396   7.493   0.289   9.031
 8197W        W12397  11.193   2.913   0.941
 8198W        W12398   8.073   0.287   1.987
 8199W        W12399   0.342   8.474   9.820
 8200W        W12400   1.484   1.250   0.496
 8201W        W12401   7.700   8.441   0.788
 8202W        W12402   8.251   2.251   1.748
 8203W        W12403  11.117   1.351   0.942
 8204W        W12404   6.898  10.920   1.044
 8205W        W12405  11.461   0.535   3.827
 8206W        W12406   1.879   9.358  10.884
 8207W        W12407   9.944   6.509   2.221
 8208W        W12408   8.009   2.723   9.778
 8209W        W12409   2.203   9.920  10.295
 8210W        W12410   6.640   1.367  10.787
 8211W        W12411   8.690   6.599   2.638
 8212W        W12412   2.196   5.140   3.161
 8213W        W12413   8.108   8.643  10.805
 8214W        W12414   7.485   8.601   1.886
 8215W        W12415   5.168   6.235  10.958
 8216W        W12416   6.118  10.878   2.717
 8217W        W12417   5.342   6.054   1.271
 8218W        W12418  10.000   5.430  11.904
 8219W        W12419   7.119  10.579  10.386
 8220W        W12420   3.151  10.947   2.907
 8221W        W12421   4.495   3.603   9.155
 8222W        W12422   2.128  10.175   8.930
 8223W        W12423   7.234   3.320   0.923
 8224W        W12424   7.401   9.104   1.879
 8225W        W12425   2.147  11.010   9.599
 8226W        W12426   7.573   0.578   2.740
 8227W        W12427   8.951   4.546  10.164
 8228W        W12428   3.352   9.599  10.775
 8229W        W12429   7.177   5.577   1.939
 8230W        W12430   0.460   4.101   2.884
 8231W        W12431  10.330   7.629   2.700
 8232W        W12432   0.673  11.049  11.113
 8233W        W12433   2.310   2.283  10.923
 8234W        W12434   7.107   1.483   0.381
 8235W        W12435   2.206  10.770   0.365
 8236W        W12436   3.305   9.734   2.340
 8237W        W12437  11.053   7.906   1.143
 8238W        W12438   6.553   7.865  10.394
 8239W        W12439   0.083   3.793   3.608
 8240W        W12440  10.908   3.147  10.941
 8241W        W12441  10.956   0.162   8.997
 8242W        W12442   5.463   3.669  11.792
 8243W        W12443   6.230   4.161   3.463
 8244W        W12444   2.374   4.056   0.369
 8245W        W12445   2.116   2.711  11.494
 8246W        W12446  10.322   4.070   9.011
 8247W        W12447   1.373   2.707   0.132
 8248W        W12448   8.241   0.984   0.626
 8249W        W12449   7.945   4.104   9.530
 8250W        W12450   5.787   7.586   4.051
 8251W        W12451   8.071   4.730   9.899
 8252W        W12452   4.127   5.222  10.533
 8253W        W12453   1.148   4.463   1.816
 8254W        W12454  11.380  10.066  10.614
 8255W        W12455  11.222   6.284  11.376
 8256W        W12456   7.049   6.282   4.216
 8257W        W12457   5.016   4.711   0.207
 8258W        W12458   9.973   9.238  11.985
 8259W        W12459   0.917   3.668   3.424
 8260W        W12460   5.247   4.552   8.646
 8261W        W12461  11.482   3.517   0.394
 8262W        W12462   1.404  11.475   1.812
 8263W        W12463   1.322  11.104   2.184
 8264W        W12464   9.561   6.773  10.374
 8265W        W12465   5.614   6.518   9.876
 8266W        W12466   3.376   7.137   1.494
 8267W        W12467   1.311   5.978   9.181
 8268W        W12468   1.302   9.925   0.793
 8269W        W12469   0.391   0.015   2.334
 8270W        W12470   6.465   2.038  10.248
 8271W        W12471  10.276  10.537  10.264
 8272W        W12472   7.942   0.973  10.726
 8273W        W12473   6.602   7.820   9.109
 8274W        W12474   1.809   7.277   3.477
 8275W        W12475   4.081  10.753   0.041
 8276W        W12476   8.559  10.739   1.338
 8277W        W12477   6.591   5.722   0.029
 8278W        W12478   6.768   7.073   0.663
 8279W        W12479   6.654   3.277  10.535
 8280W        W12480   7.932   6.407   0.913
 8281W        W12481  10.078   5.871   3.397
 8282W        W12482   4.617   9.999  10.017
 8283W        W12483   9.412  10.653   1.219
 8284W        W12484   9.060   4.272   2.620
 8285W        W12485   8.960   5.567   2.142
 8286W        W12486   9.968   6.807   3.182
 8287W        W12487  11.078   0.947  11.754
 8288W        W12488   3.802   4.425  10.247
 8289W        W12489   9.242   5.808   0.205
 8290W        W12490   5.444   6.223   1.735
 8291W        W12491  11.424   7.313   2.975
 8292W        W12492  10.419   9.380   2.651
 8293W        W12493   6.534   8.304   1.168
 8294W        W12494   9.750   7.263  10.400
 8295W        W12495   4.317   7.206   2.358
 8296W        W12496  11.108   6.342   8.385
 8297W        W12497   4.137   4.848   8.605
 8298W        W12498  11.118   3.111   0.488
 8299W        W12499   1.582   6.684   0.382
 8300W        W12500   8.128   9.394   0.527
 8301W        W12501   8.047   9.937   2.201
 8302W        W12502   4.759  10.808   0.317
 8303W        W12503   8.688   8.861   9.819
 8304W        W12504   3.795  10.396   0.344
 8305W        W12505   9.590   8.902   2.714
 8306W        W12506   6.095   3.778   2.671
 8307W        W12507   0.721  10.268   9.157
 8308W        W12508   1.801   6.548   1.782
 8309W        W12509  11.492   5.090   1.649
 8310W        W12510   3.938   9.359   9.877
 8311W        W12511   1.669  11.285  11.085
 8312W        W12512   3.534   5.608   2.379
 8313W        W12513   2.155   0.193   3.503
 8314W        W12514   9.435   9.235  11.260
 8315W        W12515   6.406   1.686   2.029
 8316W        W12516  10.467   5.516   3.549
 8317W        W12517   1.943   3.138  10.486
 8318W        W12518   1.766   0.024   2.748
 8319W        W12519   6.906   8.243  10.210
 8320W        W12520   9.285   9.268   0.143
 8321W        W12521   2.473   7.965  10.374
 8322W        W12522   2.344   1.867   1.493
 8323W        W12523   4.815   8.005   2.875
 8324W        W12524  11.447  10.056   0.143
 8325W        W12525   7.678   5.171   1.812
 8326W        W12526   2.622   0.695  10.500
 8327W        W12527   3.421   6.479   9.060
 8328W        W12528   5.769  11.141   3.463
 8329W        W12529   4.644   9.814   2.492
 8330W        W12530   2.155   3.276  11.885
 8331W        W12531   3.852   7.132   9.744
 8332W        W12532   3.784   7.418  11.097
 8333W        W12533   7.724   8.461  10.494
 8334W        W12534   0.121   7.800   0.178
 8335W        W12535   1.620   5.699   2.657
 8336W        W12536  10.372   4.728   9.343
 8337W        W12537   6.140   1.233   3.218
 8338W        W12538   1.803   9.136  11.356
 8339W        W12539   8.554   2.720   0.526
 8340W        W12540   3.891  10.291   9.946
 8341W        W12541   9.056   9.976   0.570
 8342W        W12542   2.297   3.227  10.146
 8343W        W12543   8.608   0.051   0.863
 8344W        W12544   7.781   7.933  10.749
 8345W        W12545   1.594   9.779   1.517
 8346W        W12546  10.366   4.575   3.411
 8347W        W12547   6.140   9.059   3.248
 8348W        W12548   7.966  10.027   1.256
 8349W        W12549   8.855   5.472   0.110
 8350W        W12550  11.027   6.194   1.988
 8351W        W12551  11.313   7.700   0.591
 8352W        W12552   5.528   3.685  10.133
 8353W        W12553   8.449   2.179  10.768
 8354W        W12554   3.164   4.802   1.583
 8355W        W12555   1.481   4.756  11.070
 8356W        W12556   3.105   7.093   2.823
 8357W        W12557  10.828   6.345  10.732
 8358W        W12558   3.183  10.543   3.560
 8359W        W12559   6.261   9.972   1.701
 8360W        W12560   1.814   1.399  11.388
 8361W        W12561  10.893   6.594   8.820
 8362W        W12562   6.933   4.660   3.167
 8363W        W12563  10.344   8.309   1.228
 8364W        W12564   2.349   1.146   0.493
 8365W        W12565   0.560   2.446   2.360
 8366W        W12566   6.644   2.864  11.577
 8367W        W12567  10.791   2.892   3.672
 8368W        W12568   2.612   9.865   9.880
 8369W        W12569   2.238   0.514  11.794
 8370W        W12570   7.793   8.139   1.425
 8371W        W12571   0.279   1.301   1.717
 8372W        W12572  11.038  10.441   9.482
 8373W        W12573   5.491   6.137   9.511
 8374W        W12574   3.553   2.208   3.276
 8375W        W12575   0.473   7.083   1.711
 8376W        W12576   3.889   1.505   0.389
 8377W        W12577   5.560   7.818   9.534
 8378W        W12578   9.094   7.728   1.216
 8379W        W12579   7.480   8.691   0.379
 8380W        W12580  10.434  10.411   1.669
 8381W        W12581   4.179   8.596   3.091
 8382W        W12582   4.327   9.042   3.339
 8383W        W12583   8.626   8.317   2.994
 8384W        W12584   5.564   0.327   1.389
 8385W        W12585  11.091   3.394   2.967
 8386W        W12586   5.825  10.562  11.769
 8387W        W12587   4.535   4.868   0.094
 8388W        W12588   1.705   4.856   3.194
 8389W        W12589   8.082   1.835   9.452
 8390W        W12590   9.843   3.432   3.147
 8391W        W12591   7.880   1.763   1.014
 8392W        W12592  11.347  11.029  11.563
 8393W        W12593   5.177   6.498   0.174
 8394W        W12594   2.182  11.474   9.373
 8395W        W12595   0.649  11.084   0.270
 8396W        W12596   5.182   1.847   1.337
 8397W        W12597   6.461   5.051  10.955
 8398W        W12598   3.140   4.303   1.338
 8399W        W12599   1.780   9.940   2.829
 8400W        W12600   4.675   8.236   3.684
 8401W        W12601   6.995   8.868   0.118
 8402W        W12602   5.074   1.917   9.300
 8403W        W12603   2.037  11.069   8.595
 8404W        W12604   7.432   3.282   1.581
 8405W        W12605   0.244   1.069   0.894
 8406W        W12606   1.009  11.000  11.488
 8407W        W12607   4.487  11.068  11.936
 8408W        W12608   1.146  10.052   8.917
 8409W        W12609   5.606   9.808  11.453
 8410W        W12610   5.235   0.419   2.749
 8411W        W12611   3.284   3.268  11.066
 8412W        W12612  10.075   6.028   2.111
 8413W        W12613   0.486  10.555   0.085
 8414W        W12614   2.149   4.598   3.205
 8415W        W12615   3.381   2.420  11.489
 8416W        W12616   4.287   2.177   1.230
 8417W        W12617   5.844   8.660  11.853
 8418W        W12618   6.039   0.324  11.286
 8419W        W12619   4.162   0.242   2.802
 8420W        W12620   0.800   4.521   0.322
 8421W        W12621   9.936   8.581   1.056
 8422W        W12622   6.032   0.829  11.069
 8423W        W12623   5.218   0.550   9.229
 8424W        W12624   8.992   2.522  11.956
 8425W        W12625   7.748   6.158  10.233
 8426W        W12626   2.094   5.075   9.541
 8427W        W12627   2.441   0.357  10.849
 8428W        W12628   9.994   5.370   3.412
 8429W        W12629   5.113   9.137   9.444
 8430W        W12630   4.372   7.191   1.462
 8431W        W12631   8.450   0.259   0.398
 8432W        W12632   0.882  10.213  10.963
 8433W        W12633   2.082   9.484   0.756
 8434W        W12634   4.837   3.831  10.495
 8435W        W12635   3.533   5.238   0.873
 8436W        W12636   1.201   3.131   2.294
 8437W        W12637   7.309   0.557   1.385
 8438W        W12638   0.284   3.933   1.522
 8439W        W12639   8.850   2.250   9.909
 8440W        W12640   0.164  10.971   0.439
 8441W        W12641   9.474   9.854   9.888
 8442W        W12642  10.402   6.175  11.654
 8443W        W12643   1.298   6.484   9.261
 8444W        W12644   8.834   4.084  10.399
 8445W        W12645   7.964   7.507   0.287
 8446W        W12646   0.726   2.785  11.452
 8447W        W12647   6.296   7.613   4.085
 8448W        W12648   0.483   4.814   8.946
 8449W        W12649   4.947   0.442   2.304
 8450W        W12650   6.988  10.250  10.019
 8451W        W12651   3.892   8.833   3.512
 8452W        W12652   4.537   8.905  11.429
 8453W        W12653   4.583   2.346   2.155
 8454W        W12654   0.573   4.294   1.228
 8455W        W12655   3.745   7.134   8.880
 8456W        W12656   0.360   6.474  10.189
 8457W        W12657   0.272   0.872   9.718
 8458W        W12658   5.784   8.129  11.995
 8459W        W12659   5.627   9.312  10.793
 8460W        W12660   1.899   1.077   0.224
 8461W        W12661   2.809   4.672   9.146
 8462W        W12662  10.739   7.152   2.231
 8463W        W12663  10.374   7.138   0.742
 8464W        W12664  10.617   1.339   1.072
 8465W        W12665   6.167   0.376   0.654
 8466W        W12666  11.452   8.159   2.634
 8467W        W12667   2.573   1.591   9.011
 8468W        W12668   4.399   6.603  10.447
 8469W        W12669   8.587  10.245  10.565
 8470W        W12670   3.319   0.308   9.606
 8471W        W12671   3.208   3.654  10.355
 8472W        W12672   7.102   6.049   0.852
 8473W        W12673   7.045   7.594   8.968
 8474W        W12674   8.147   1.847  10.497
 8475W        W12675  11.399   4.127   1.881
 8476W        W12676   4.785   1.907  11.680
 8477W        W12677   6.984   5.728  10.436
 8478W        W12678   6.032   9.585  10.587
 8479W        W12679   5.105   7.827   9.799
 8480W        W12680   3.817   3.636   9.747
 8481W        W12681   1.033   8.938   1.524
 8482W        W12682   5.175   8.699   0.600
 8483W        W12683   7.973   7.051   2.052
 8484W        W12684   9.143   5.183   0.461
 8485W        W12685   4.761  10.368   9.668
 8486W        W12686   8.380   5.513  10.318
 8487W        W12687   2.641  10.894   0.598
 8488W        W12688   9.375   0.834   1.260
 8489W        W12689   9.780   2.655   9.087
 8490W        W12690  10.851   3.010   9.921
 8491W        W12691  11.368   0.562  11.260
 8492W        W12692   2.782   1.024  11.428
 8493W        W12693   2.229   2.160   3.417
 8494W        W12694   9.462   1.463  10.099
 8495W        W12695   5.929   1.820  10.204
 8496W        W12696   4.494   7.598   2.712
 8497W        W12697   5.438   6.099   2.779
 8498W        W12698   4.779   8.518   2.856
 8499W        W12699   4.232   2.911   1.913
 8500W        W12700   6.070  10.964   0.693
 8501W        W12701   7.899   4.191  10.586
 8502W        W12702   4.288  11.067   0.410
 8503W        W12703   5.198  11.423  11.100
 8504W        W12704   7.228   9.251   9.937
 8505W        W12705   9.379   6.171  11.539
 8506W        W12706  10.671   3.892   3.607
 8507W        W12707   3.952   8.006  10.499
 8508W        W12708   6.791  10.769  10.785
 8509W        W12709   4.894  10.092   0.955
 8510W        W12710   1.660   0.891   3.477
 8511W        W12711   7.075  10.486   9.444
 8512W        W12712   9.824  10.789   8.991
 8513W        W12713   2.139   0.183   2.439
 8514W        W12714   2.388   6.118  11.334
 8515W        W12715   4.163   1.718   9.147
 8516W        W12716  10.472   4.316  11.016
 8517W        W12717   9.780   0.402   1.288
 8518W        W12718   0.920   4.985   0.512
 8519W        W12719   1.328   5.306   9.926
 8520W        W12720   8.480   5.803   0.811
 8521W        W12721   1.163   8.151  11.303
 8522W        W12722   0.217   3.458  11.946
 8523W        W12723   2.729   3.856   0.672
 8524W        W12724   2.619   5.094   9.421
 8525W        W12725   9.877   5.698   0.744
 8526W        W12726   8.575   8.279   1.030
 8527W        W12727   6.000   9.359   8.552
 8528W        W12728   9.608   3.142  10.534
 8529W        W12729   6.337   2.104   1.730
 8530W        W12730   5.838   9.860   1.467
 8531W        W12731   7.134   9.883   2.193
 8532W        W12732   4.645  11.265   9.608
 8533W        W12733   5.697   8.338   9.476
 8534W        W12734   5.661   5.804   1.997
 8535ION    NA+12735   2.771   6.693  11.890
 8536ION    NA+12736   4.192   1.063   2.058
 8537ION    NA+12737   1.078  10.562   3.383
 8538ION    NA+12738   6.818   0.879   1.360
 8539ION    NA+12739   7.204   3.415   9.464
 8540ION    NA+12740  10.248   9.555   3.496
 8541ION    NA+12741  11.456   2.014  11.409
 8542ION    NA+12742   5.639   4.065   0.652
 8543ION    NA+12743  11.237   7.144   9.649
 8544ION    NA+12744   8.227   4.617   9.419
 8545ION    NA+12745   6.820   6.440  10.903
 8546ION    NA+12746   7.753   2.282   1.664
 8547ION    NA+12747   8.052   4.973   0.991
 8548ION    NA+12748   8.128   2.301   3.250
 8549ION    NA+12749   1.824  10.993   0.991
 8550ION    NA+12750   0.904   9.291  11.892
 8551ION    NA+12751   7.856   6.236  11.513
 8552ION    NA+12752   5.340   1.596   3.230
 8553ION    NA+12753   3.997  10.437  10.463
 8554ION    NA+12754   1.840   3.120   9.929
 8555ION    NA+12755   9.848   4.722   2.289
 8556ION    NA+12756   0.855   8.668   0.825
 8557ION    NA+12757   6.321   7.419  11.912
 8558ION    NA+12758   8.047   3.411   3.138
 8559ION    NA+12759   8.866   6.314  10.670
 8560ION    NA+12760   9.743   7.746   0.944
 8561ION    NA+12761   6.382  10.996   3.183
 8562ION    NA+12762   8.238   2.285   0.401
 8563ION    NA+12763   0.927   2.810   9.662
 8564ION    NA+12764   2.117   0.624   0.298
 8565ION    NA+12765   3.401   2.838  11.796
 8566ION    NA+12766   6.472   7.724   1.938
 8567ION    NA+12767   3.207   4.905   8.255
 8568ION    NA+12768   4.675  11.139   2.544
 8569ION    NA+12769   5.697  10.290   1.219
 8570ION    NA+12770   3.169   4.711  10.832
 8571ION    NA+12771  10.441   0.484  11.507
 8572ION    NA+12772   7.250   7.697   3.012
 8573ION    NA+12773   7.639   3.768   0.260
 8574ION    NA+12774  10.239   7.443  11.970
 8575ION    NA+12775   3.699  10.016   2.152
 8576ION    NA+12776   3.225   1.126  10.181
 8577ION    NA+12777   1.456   7.670  10.015
 8578ION    NA+12778   1.503   8.746   8.835
 8579ION    NA+12779   3.128   9.429  11.810
 8580ION    NA+12780   8.906   0.157   1.304
 8581ION    NA+12781   0.541   5.231   9.804
 8582ION    NA+12782   5.614   7.078   2.448
 8583ION    NA+12783   2.919   3.858   9.395
 8584ION    NA+12784   7.020   5.617   0.552
 8585ION    NA+12785   3.498  11.424   1.730
 8586ION    NA+12786   0.921  10.803   2.289
 8587ION    NA+12787   4.813   6.537   1.930
 8588ION    NA+12788   1.031   6.300   3.118
 8589ION    NA+12789   9.774   2.157   8.911
 8590ION    NA+12790   6.689   7.003   3.189
 8591ION    NA+12791   9.173  10.352   1.847
 8592ION    NA+12792   1.500   4.163   0.735
 8593ION    NA+12793   1.665   4.365   1.887
 8594ION    NA+12794   3.361   6.200   3.329
 8595ION    NA+12795   9.625   7.689   3.481
 8596ION    NA+12796   5.764   8.030  11.477
 8597ION    NA+12797   1.165   6.003   9.684
 8598ION    NA+12798   8.452   3.643   2.219
 8599ION    NA+12799   9.828   2.338   3.784
 8600ION    NA+12800   7.403   1.742   0.046
 8601ION    NA+12801   8.532   8.374   2.485
 8602ION    NA+12802   0.004  11.051   3.300
 8603ION    NA+12803   6.733   7.413   4.234
 8604ION    NA+12804   5.321  11.282  11.572
 8605ION    NA+12805   6.046   2.557   2.605
 8606ION    NA+12806   8.291   8.542   9.816
 8607ION    NA+12807   7.340   8.847   1.447
 8608ION    NA+12808   4.749  10.201   2.205
 8609ION    NA+12809   4.269   5.812   2.003
 8610ION    NA+12810   0.035   8.009   1.899
 8611ION    NA+12811   4.162  10.054   1.247
 8612ION    NA+12812   8.143   0.938   9.765
 8613ION    NA+12813   4.361   5.913   0.384
 8614ION    NA+12814  10.088   0.425   0.867
 8615ION    NA+12815   9.718   7.872   9.024
 8616ION    NA+12816   6.006   3.906   1.846
 8617ION    NA+12817   7.323   9.364  10.828
 8618ION    NA+12818   5.914   3.231   3.349
 8619ION    NA+12819   1.767   1.155   1.366
 8620ION    NA+12820   7.657   2.854   8.612
 8621ION    NA+12821   6.188   8.486   9.489
 8622ION    NA+12822   0.661   4.670   1.620
 8623ION    NA+12823   3.171   6.614   8.594
 8624ION    NA+12824   4.135   6.804   0.254
 8625ION    CL-12825   5.541   1.699   2.128
 8626ION    CL-12826   0.205   7.859  11.294
 8627ION    CL-12827  11.333   4.322   8.634
 8628ION    CL-12828   2.127   8.490   2.287
 8629ION    CL-12829   6.900   7.848   1.981
 8630ION    CL-12830   4.681   8.956   1.504
 8631ION    CL-12831   8.199   3.599  11.386
 8632ION    CL-12832   0.141   7.834   2.294
 8633ION    CL-12833   9.187   5.896   3.540
 8634ION    CL-12834   0.274   0.873   0.217
 8635ION    CL-12835   7.448  11.464   0.814
 8636ION    CL-12836   3.312  11.365   1.329
 8637ION    CL-12837   6.940   3.146   9.703
 8638ION    CL-12838   5.041   0.528   1.395
 8639ION    CL-12839  11.479  11.426   3.042
 8640ION    CL-12840   4.769   1.190  11.024
 8641ION    CL-12841   5.808   9.935   0.957
 8642ION    CL-12842  11.134   7.354   9.266
 8643ION    CL-12843   0.262   4.455   1.623
 8644ION    CL-12844   6.043   7.761  11.743
 8645ION    CL-12845  10.610  10.948  10.125
 8646ION    CL-12846   3.580  11.329  11.977
 8647ION    CL-12847   7.224   1.054   1.430
 8648ION    CL-12848   9.121   1.564   3.543
 8649ION    CL-12849   3.221  11.156   9.136
 8650ION    CL-12850   0.978  10.350   9.594
 8651ION    CL-12851   3.301   3.003   3.293
 8652ION    CL-12852   6.954   7.360   3.096
 8653ION    CL-12853   6.702   2.782  10.605
 8654ION    CL-12854  11.465   3.556   1.301
 8655ION    CL-12855   2.361   0.435  10.134
 8656ION    CL-12856   9.474  10.647  10.358
 8657ION    CL-12857   1.006   7.904   3.404
 8658ION    CL-12858   6.365   7.199   4.397
 8659ION    CL-12859   8.470   4.962   3.638
 8660ION    CL-12860   5.375   2.851   8.534
 8661ION    CL-12861   8.207   6.502   2.766
 8662ION    CL-12862   6.985   9.492   2.511
 8663ION    CL-12863   5.187   3.390   2.749
 8664ION    CL-12864  11.207   3.561  11.931
 8665ION    CL-12865  10.531   3.213   1.395
 8666ION    CL-12866   7.553   7.317   9.650
 8667ION    CL-12867   1.016   1.517   0.401
 8668ION    CL-12868   3.337   1.551  10.108
 8669ION    CL-12869  10.881   3.600  10.114
 8670ION    CL-12870   1.349   1.237   9.655
 8671ION    CL-12871  11.440   5.496   2.330
 8672ION    CL-12872   2.660   6.828   9.979
 8673ION    CL-12873   6.885   9.416  10.763
 8674ION    CL-12874   8.312   4.604   0.960
 8675ION    CL-12875   4.255   8.740  11.014
 8676ION    CL-12876   5.299   3.769   0.668
 8677ION    CL-12877   0.225   5.266  10.120
 8678ION    CL-12878   5.813   4.173   2.150
 8679ION    CL-12879   9.151   9.562   3.574
 8680ION    CL-12880  10.972   5.533   8.104
 8681ION    CL-12881   3.022   7.757   9.905
 8682ION    CL-12882   5.317   1.183  11.964
 8683ION    CL-12883   9.901   6.684   1.201
 8684ION    CL-12884   9.199   7.179   2.921
 8685ION    CL-12885   4.088   7.260   0.294
 8686ION    CL-12886   9.310   6.384  10.666
 8687ION    CL-12887   0.694   4.620   2.917
 8688ION    CL-12888  10.427  10.449   1.145
 8689ION    CL-12889   7.129  10.110   1.277
 8690ION    CL-12890   5.312   3.692   9.623
 8691ION    CL-12891   4.532   6.185   2.009
 8692ION    CL-12892   4.232   6.346   0.301
 8693ION    CL-12893  10.877   0.869   8.493
 8694ION    CL-12894   5.537   8.313  11.195
 8695ION    CL-12895   5.323   3.112  11.550
 8696ION    CL-12896   4.452   3.063   8.855
 8697ION    CL-12897   9.965   7.464  11.617
 8698ION    CL-12898   0.753   6.011   3.362
 8699ION    CL-12899  10.115   3.122   2.774
 8700ION    CL-12900   9.337   7.818   0.767
 8701ION    CL-12901   7.483   1.764  11.606
 8702ION    CL-12902   2.734   5.640   2.083
 8703ION    CL-12903   5.676  10.704   1.411
 8704ION    CL-12904   1.241   2.302   1.853
 8705ION    CL-12905   1.158  11.272  11.039
 8706ION    CL-12906   4.899   1.928   9.805
 8707ION    CL-12907   8.070  11.290   1.835
 8708ION    CL-12908   1.335   9.405   2.727
 8709ION    CL-12909   6.628   7.108   0.039
 8710ION    CL-12910   1.749  10.751  10.344
 8711ION    CL-12911   0.864   4.988   1.358
 8712ION    CL-12912   6.041   9.547  11.565
 8713ION    CL-12913   5.211  10.275   8.778
 8714ION    CL-12914   9.523  10.318   1.573
  11.50000  11.50000  12.00000
