Protein in INSANE! Membrane UpperLeaflet>POPC=1.0 LowerLeaflet>POPC=1.0
12676
    1AU     AUC    1   8.223   6.756   7.138  0.0163  0.0679  0.0032
    1AU     AUC    2   7.965   6.698   7.219  0.0812  0.0722 -0.0139
    1AU     AUC    3   8.198   6.707   7.412  0.0852  0.0532 -0.1164
    1AU     AUC    4   8.297   6.770   6.838  0.0676  0.0938  0.0270
    1AU     AUC    5   8.538   6.774   7.028  0.0073  0.1183 -0.0086
    1AU     AUC    6   8.375   6.524   6.997 -0.0681 -0.0550  0.0925
    1AU     AUC    7   8.171   6.468   7.226 -0.0322  0.1139  0.0213
    1AU     AUC    8   8.307   7.023   7.053 -0.0654 -0.0792  0.0582
    1AU     AUC    9   8.126   6.961   7.266 -0.0137  0.0476  0.0218
    1AU     AUC   10   8.413   6.906   7.315  0.0729 -0.0448  0.0043
    1AU     AUC   11   8.457   6.587   7.292 -0.0674  0.0491  0.0205
    1AU     AUC   12   8.022   6.899   6.984  0.0327  0.0828  0.0354
    1AU     AUC   13   8.076   6.599   6.939  0.1046 -0.0749  0.0648
    1AU     AUC   14   7.679   6.634   7.296 -0.0110 -0.0218 -0.0616
    1AU     AUC   15   7.892   6.658   7.508 -0.0152  0.0628 -0.0806
    1AU     AUC   16   8.150   6.674   7.717  0.0601  0.0096  0.0106
    1AU     AUC   17   8.355   6.821   6.534  0.1280  0.0156 -0.1401
    1AU     AUC   18   8.599   6.822   6.754  0.0760 -0.0032 -0.0422
    1AU     AUC   19   8.816   6.809   6.974  0.0378  0.0223 -0.0393
    1AU     AUC   20   8.514   6.289   6.886  0.0215  0.0659  0.0589
    1AU     AUC   21   8.301   6.232   7.080  0.0334  0.0245 -0.0069
    1AU     AUC   22   8.094   6.186   7.301  0.0676  0.0293  0.0405
    1AU     AUC   23   8.379   7.300   6.937  0.0344  0.0159  0.1119
    1AU     AUC   24   8.189   7.264   7.169  0.0315 -0.0295  0.0196
    1AU     AUC   25   8.009   7.194   7.422 -0.0637 -0.0017  0.0218
    1AU     AUC   26   8.575   7.080   7.488 -0.0510 -0.0324 -0.0733
    1AU     AUC   27   8.633   6.766   7.498 -0.0057 -0.1036  0.0351
    1AU     AUC   28   8.670   6.468   7.454 -0.0178  0.0482  0.0800
    1AU     AUC   29   7.804   7.046   6.820  0.0534 -0.0594  0.0059
    1AU     AUC   30   7.856   6.720   6.804  0.0001 -0.0220  0.0516
    1AU     AUC   31   7.919   6.409   6.736  0.0369 -0.0644 -0.0216
    1AU     AUC   32   8.358   6.860   7.630  0.0619  0.0860  0.0154
    1AU     AUC   33   8.429   6.571   7.589 -0.0309  0.0125  0.0071
    1AU     AUC   34   7.744   6.834   7.069 -0.1165  0.0255 -0.0208
    1AU     AUC   35   7.760   6.545   7.035  0.0074  0.0848  0.0224
    1AU     AUC   36   8.715   6.937   7.230 -0.0119 -0.0016 -0.1033
    1AU     AUC   37   8.746   6.639   7.224 -0.0205 -0.0684  0.0089
    1AU     AUC   38   8.053   6.915   6.668 -0.0304  0.0770 -0.0671
    1AU     AUC   39   8.134   6.620   6.630  0.0776  0.0531  0.0259
    1AU     AUC   40   7.888   6.385   7.299  0.0055 -0.0430  0.0042
    1AU     AUC   41   8.103   6.437   7.522  0.0761  0.0117  0.0034
    1AU     AUC   42   8.443   6.558   6.706 -0.0072  0.0196  0.0503
    1AU     AUC   43   8.682   6.540   6.928 -0.0129  0.0561 -0.0058
    1AU     AUC   44   7.821   6.934   7.369 -0.0012  0.0698  0.0510
    1AU     AUC   45   8.064   6.939   7.593  0.0365  0.0193  0.0270
    1AU     AUC   46   8.362   7.052   6.731  0.0019  0.0177  0.0323
    1AU     AUC   47   8.602   7.067   6.963  0.0494  0.0143 -0.0552
    1AU     AUC   48   8.594   6.376   7.165  0.0242 -0.0861  0.1241
    1AU     AUC   49   8.369   6.299   7.374  0.0066 -0.0638  0.0056
    1AU     AUC   50   8.476   7.206   7.220  0.0337 -0.0438  0.0765
    1AU     AUC   51   8.285   7.131   7.456 -0.0362 -0.1086  0.0669
    1AU     AUC   52   8.207   6.360   6.796 -0.0027  0.0304  0.0199
    1AU     AUC   53   7.983   6.311   7.027 -0.0364  0.0278 -0.0418
    1AU     AUC   54   8.088   7.150   6.879  0.0117  0.0272 -0.1094
    1AU     AUC   55   7.894   7.131   7.132 -0.0790 -0.0511 -0.0288
    1AU    AUSL   56   8.498   6.744   7.783  0.0696  0.0145  0.0498
    1AU    AUSL   57   8.425   7.183   7.851 -0.0444  0.0027 -0.0277
    1AU     AUL   58   8.556   6.998   8.173 -0.0519 -0.0520  0.0931
    1AU       S   59   8.279   7.369   8.123 -0.2774 -0.1545 -0.1550
    1AU     LIG   60   8.491   7.648   8.257 -0.2140  0.0643  0.2690
    1AU     LIG   61   8.835   7.453   8.189  0.0375  0.2478  0.3788
    1AU     LIG   62   9.337   7.437   8.212  0.3117 -0.0153  0.1965
    1AU     LIG   63   9.771   7.271   8.293 -0.1367 -0.3866  0.0040
    1AU     LIG   64  10.115   7.415   8.209  0.1855 -0.2701  0.1014
    1AU     LIG   65  10.535   7.219   8.255 -0.3408 -0.0706 -0.1193
    1AU       S   66   8.896   6.672   8.143 -0.2506  0.2669 -0.4344
    1AU     LIG   67   9.031   7.014   8.379  0.0008 -0.1760 -0.0218
    1AU     LIG   68   9.429   7.070   8.680  0.0157 -0.1249  0.1863
    1AU     LIG   69   9.735   6.759   8.867  0.0941 -0.1086  0.0656
    1AU     LIG   70  10.065   6.789   9.136 -0.3833 -0.0056 -0.1400
    1AU     LIG   71  10.562   6.790   9.102 -0.2576  0.3975  0.0674
    1AU     LIG   72  10.792   7.096   8.737  0.7593 -0.0325  0.2240
    1AU    AUSL   73   8.786   7.055   7.749  0.0109  0.0301  0.0334
    1AU    AUSL   74   8.917   6.705   7.631  0.0853 -0.0189 -0.0031
    1AU     AUL   75   8.994   7.099   7.911 -0.0747 -0.0424 -0.0126
    1AU       S   76   9.055   6.667   8.068  0.2409 -0.0504  0.0461
    1AU     LIG   77   9.461   6.857   8.161 -0.3091  0.2440  0.1854
    1AU     LIG   78   9.790   6.709   8.392 -0.1901 -0.1019  0.3628
    1AU     LIG   79  10.077   6.450   8.667  0.0398 -0.1619  0.0915
    1AU     LIG   80   9.893   6.244   9.048 -0.1479  0.1922 -0.0007
    1AU     LIG   81   9.562   5.975   9.194 -0.3325  0.4722 -0.2461
    1AU     LIG   82   9.106   5.869   9.201  0.0799  0.1265  0.1685
    1AU       S   83   9.335   6.875   7.717 -0.2659 -0.3183  0.5529
    1AU     LIG   84   9.514   6.533   7.811  0.1006  0.3036 -0.0601
    1AU     LIG   85   9.929   6.420   7.852  0.3368  0.0206 -0.0884
    1AU     LIG   86  10.309   6.182   7.908 -0.0277  0.3274  0.0758
    1AU     LIG   87  10.641   5.995   7.761 -0.0058 -0.1169  0.3413
    1AU     LIG   88  10.751   5.547   7.497  0.1074  0.0159 -0.1738
    1AU     LIG   89  10.795   5.146   7.164 -0.0183 -0.2713 -0.0421
    1AU    AUSL   90   8.728   6.405   7.805 -0.0869 -0.0311 -0.0268
    1AU    AUSL   91   8.266   6.426   7.929  0.0009 -0.0623 -0.0175
    1AU     AUL   92   8.492   6.533   8.083  0.0078  0.0671 -0.0084
    1AU       S   93   8.910   6.326   7.913  0.0030  0.0414  0.0356
    1AU     LIG   94   9.043   6.020   7.781  0.2668  0.0844  0.0656
    1AU     LIG   95   9.162   5.667   7.490 -0.2158 -0.0622 -0.1519
    1AU     LIG   96   9.104   5.309   7.323  0.2875 -0.3308 -0.0871
    1AU     LIG   97   8.885   5.174   6.912 -0.0133 -0.0091  0.2869
    1AU     LIG   98   8.777   5.381   6.545 -0.1152  0.0297  0.0559
    1AU     LIG   99   8.896   5.819   6.487 -0.2705 -0.1208 -0.2795
    1AU       S  100   8.213   6.191   8.247  0.1012 -0.1515  0.0568
    1AU     LIG  101   7.801   6.383   8.392 -0.0399 -0.0364  0.0805
    1AU     LIG  102   7.652   6.742   8.569 -0.1612  0.0521 -0.0941
    1AU     LIG  103   7.485   7.157   8.622 -0.0610  0.0869 -0.2166
    1AU     LIG  104   7.212   7.341   8.449 -0.2445 -0.2799  0.1991
    1AU     LIG  105   6.959   7.724   8.529  0.0695 -0.2670 -0.1177
    1AU     LIG  106   7.140   8.082   8.478 -0.1123 -0.4301  0.0413
    1AU    AUSL  107   7.444   6.606   7.091  0.0094 -0.0593  0.0829
    1AU    AUSL  108   7.597   6.242   6.852  0.0104  0.0034  0.0402
    1AU     AUL  109   7.224   6.363   6.863 -0.0050 -0.0109 -0.0843
    1AU       S  110   6.969   6.778   6.778 -0.5019 -0.2828 -0.0901
    1AU     LIG  111   6.741   6.612   7.025  0.1664  0.2063 -0.3498
    1AU     LIG  112   6.535   6.466   7.344 -0.3466  0.2614 -0.1934
    1AU     LIG  113   6.522   6.039   7.570 -0.2601 -0.3746  0.2014
    1AU     LIG  114   6.389   5.630   7.618  0.0127 -0.0710 -0.2834
    1AU     LIG  115   6.406   5.330   7.303 -0.1626  0.1443 -0.0248
    1AU     LIG  116   6.565   5.099   6.963 -0.4817  0.0723 -0.1147
    1AU       S  117   7.239   5.931   7.048 -0.2231 -0.1843  0.5823
    1AU     LIG  118   7.417   5.514   7.078  0.0703 -0.3629  0.2845
    1AU     LIG  119   7.546   5.011   7.016 -0.3065 -0.2885 -0.0642
    1AU     LIG  120   7.803   4.621   6.854 -0.2753 -0.0393 -0.0396
    1AU     LIG  121   7.923   4.244   7.032 -0.1885  0.3767 -0.1381
    1AU     LIG  122   7.970   3.838   7.315  0.0797  0.4084  0.0034
    1AU     LIG  123   7.638   3.513   7.448  0.1151  0.2279 -0.1109
    1AU    AUSL  124   7.433   6.942   6.824 -0.0249  0.1185  0.1102
    1AU    AUSL  125   7.409   6.940   7.315  0.0339 -0.0791  0.0819
    1AU     AUL  126   7.223   6.708   7.172  0.0666  0.0216 -0.0898
    1AU       S  127   7.243   7.192   7.240  0.2714 -0.1838  0.2278
    1AU     LIG  128   6.855   7.113   7.167  0.0766  0.0613 -0.0199
    1AU     LIG  129   6.537   7.028   6.805  0.3418 -0.2296 -0.3235
    1AU     LIG  130   6.154   6.845   6.485 -0.1901  0.1031 -0.4259
    1AU     LIG  131   5.902   6.983   6.089 -0.1053 -0.3875 -0.1022
    1AU     LIG  132   5.683   7.091   5.719 -0.0001 -0.3695 -0.0903
    1AU     LIG  133   5.722   7.011   5.274  0.0618 -0.0989 -0.1744
    1AU       S  134   7.091   6.971   6.771 -0.1487 -0.3164  0.1851
    1AU     LIG  135   6.915   7.327   6.685  0.3767 -0.0997  0.3380
    1AU     LIG  136   6.544   7.513   6.835  0.0361  0.3487 -0.0331
    1AU     LIG  137   6.212   7.717   6.781  0.2153  0.1304 -0.0114
    1AU     LIG  138   5.890   8.037   6.868  0.0604 -0.1498 -0.5515
    1AU     LIG  139   5.429   8.092   6.875 -0.0766 -0.0261 -0.2385
    1AU     LIG  140   5.068   8.047   7.229  0.1094 -0.0511  0.4423
    1AU    AUSL  141   7.743   6.619   6.824  0.0110 -0.0884 -0.1057
    1AU    AUSL  142   7.668   6.874   6.505  0.0110 -0.0159 -0.0241
    1AU     AUL  143   7.395   6.656   6.585 -0.0625 -0.0615  0.0515
    1AU       S  144   7.521   6.699   6.144  0.1557  0.2721 -0.0157
    1AU     LIG  145   7.126   6.910   6.164 -0.0550  0.0270 -0.0854
    1AU     LIG  146   6.656   6.981   6.365 -0.2846  0.1645 -0.2008
    1AU     LIG  147   6.322   7.247   6.251 -0.0310  0.0155  0.0912
    1AU     LIG  148   5.909   7.353   6.488  0.4249  0.3625  0.1446
    1AU     LIG  149   5.559   7.621   6.542 -0.2501 -0.0226  0.3559
    1AU     LIG  150   5.128   7.687   6.752 -0.1758  0.0649  0.3257
    1AU       S  151   7.314   7.059   6.763  0.0249  0.0947  0.1229
    1AU     LIG  152   7.401   7.315   6.498  0.0864 -0.1142  0.0127
    1AU     LIG  153   7.080   7.585   6.304  0.0332 -0.4101 -0.1595
    1AU     LIG  154   6.658   7.737   6.314 -0.2560 -0.0406  0.0657
    1AU     LIG  155   6.158   8.061   6.372  0.1284  0.0631 -0.0350
    1AU     LIG  156   5.703   8.110   6.389  0.1647 -0.2842  0.2371
    1AU     LIG  157   5.285   8.079   6.291  0.3984 -0.2260  0.0281
    1AU    AUSL  158   9.068   6.837   7.267 -0.0168  0.0532  0.0639
    1AU    AUSL  159   8.937   6.397   7.372 -0.0487 -0.0277 -0.0273
    1AU     AUL  160   9.134   6.503   7.560  0.1010  0.1356 -0.0566
    1AU       S  161   9.422   6.861   7.520  0.1355  0.1036  0.0575
    1AU     LIG  162   9.825   6.912   7.741 -0.2161 -0.3641 -0.0919
    1AU     LIG  163  10.142   7.265   7.720 -0.1592  0.1780 -0.0151
    1AU     LIG  164  10.487   7.520   7.684  0.4826  0.0330 -0.1500
    1AU     LIG  165  10.933   7.679   7.537  0.0542 -0.0204 -0.0149
    1AU     LIG  166  11.098   7.925   7.182  0.0086  0.2477  0.0352
    1AU     LIG  167  11.359   8.134   6.838 -0.0885 -0.3034 -0.2891
    1AU       S  168   9.408   6.462   7.204 -0.0045  0.4120 -0.1941
    1AU     LIG  169   9.805   6.362   7.137  0.0163  0.0461  0.0125
    1AU     LIG  170  10.188   6.307   7.057 -0.3067  0.1167  0.1946
    1AU     LIG  171  10.736   6.258   7.126 -0.0349 -0.0833 -0.0051
    1AU     LIG  172  11.059   5.958   7.395  0.1187 -0.3590  0.2061
    1AU     LIG  173  11.215   5.623   7.663 -0.4339  0.1109  0.1420
    1AU     LIG  174  11.418   5.430   7.980  0.1692 -0.2197 -0.2110
    1AU    AUSL  175   8.691   6.929   7.374  0.0975 -0.0120 -0.0855
    1AU    AUSL  176   9.012   7.136   6.994 -0.0598 -0.0073  0.0942
    1AU     AUL  177   9.178   6.999   7.174 -0.0403 -0.0200  0.0053
    1AU       S  178   9.253   7.398   7.030  0.1951 -0.1552 -0.1724
    1AU     LIG  179   9.702   7.434   7.013  0.0365  0.3428  0.2514
    1AU     LIG  180  10.150   7.248   7.178 -0.0004 -0.2534 -0.2253
    1AU     LIG  181  10.603   7.397   7.239 -0.0151  0.2425 -0.2253
    1AU     LIG  182  10.939   7.216   7.116 -0.4069  0.1667  0.0346
    1AU     LIG  183  11.181   6.862   7.282  0.1294  0.1508 -0.1535
    1AU     LIG  184  11.350   6.321   7.053  0.0354  0.1479 -0.3167
    1AU       S  185   9.332   7.045   7.573  0.0550 -0.1491 -0.0748
    1AU     LIG  186   9.562   7.328   7.511  0.2343 -0.2786 -0.1544
    1AU     LIG  187   9.807   7.644   7.407 -0.1406  0.0092  0.1722
    1AU     LIG  188  10.276   7.786   7.374  0.1099  0.0263 -0.0938
    1AU     LIG  189  10.592   7.930   7.230  0.3992 -0.2919 -0.1780
    1AU     LIG  190  10.851   8.296   6.984 -0.0756  0.2582  0.0153
    1AU     LIG  191  11.020   8.534   6.717  0.1782  0.0704  0.2262
    1AU    AUSL  192   8.052   6.788   6.459  0.0967  0.0018 -0.0892
    1AU    AUSL  193   7.918   7.191   6.560 -0.0235  0.0468 -0.0056
    1AU     AUL  194   7.804   7.076   6.257 -0.0477  0.0351  0.0199
    1AU       S  195   7.630   6.647   6.014 -0.4412  0.1803 -0.2551
    1AU     LIG  196   7.117   6.470   5.938  0.2923 -0.2077 -0.0798
    1AU     LIG  197   6.635   6.356   6.051 -0.0828  0.0616 -0.3759
    1AU     LIG  198   6.160   6.302   6.319 -0.1601 -0.0163  0.1632
    1AU     LIG  199   5.877   6.302   6.636 -0.3430  0.2222  0.0364
    1AU     LIG  200   5.672   6.042   6.972  0.0013  0.2652  0.0415
    1AU     LIG  201   5.423   5.816   7.290  0.1276  0.1977  0.2872
    1AU       S  202   8.065   7.547   6.192  0.2526  0.2382  0.0518
    1AU     LIG  203   7.945   7.961   6.194  0.1290 -0.1572  0.2571
    1AU     LIG  204   7.844   8.378   6.219 -0.0145  0.0470  0.0622
    1AU     LIG  205   7.923   8.539   6.572  0.1649  0.1685 -0.0399
    1AU     LIG  206   7.769   8.549   6.983 -0.2779  0.5394  0.0904
    1AU     LIG  207   7.491   8.712   7.185  0.2984 -0.0852 -0.3063
    1AU     LIG  208   7.513   8.521   7.553 -0.3223  0.1326  0.0783
    1AU    AUSL  209   7.791   6.456   6.456  0.0673  0.0549 -0.0779
    1AU    AUSL  210   8.377   6.649   6.255 -0.0415 -0.0037  0.0457
    1AU     AUL  211   8.058   6.704   6.161  0.0688 -0.0918  0.0249
    1AU       S  212   8.360   6.347   5.955  0.2061 -0.2983  0.0547
    1AU     LIG  213   8.033   6.509   5.629  0.1251  0.0984 -0.1514
    1AU     LIG  214   7.759   6.511   5.440 -0.4313  0.1773  0.0539
    1AU     LIG  215   7.440   6.655   5.546  0.1116  0.2009  0.0615
    1AU     LIG  216   7.340   7.008   5.685 -0.0273  0.3161 -0.2089
    1AU     LIG  217   7.442   7.236   6.021  0.3184 -0.0326 -0.2364
    1AU     LIG  218   7.557   7.579   6.066 -0.1000  0.0859  0.0236
    1AU       S  219   7.697   6.495   6.256 -0.0114  0.3576 -0.3841
    1AU     LIG  220   7.426   6.208   6.409  0.2379 -0.0403  0.2692
    1AU     LIG  221   6.951   6.429   6.428 -0.2397 -0.1529  0.1883
    1AU     LIG  222   6.505   6.416   6.669 -0.2738 -0.1246  0.3349
    1AU     LIG  223   6.286   6.275   7.014  0.1551 -0.1301  0.2536
    1AU     LIG  224   6.071   6.246   7.455 -0.0778 -0.0775  0.0881
    1AU     LIG  225   5.678   6.176   7.480  0.2663 -0.0449  0.2324
    1AU    AUSL  226   7.832   6.113   7.514  0.0884  0.0466  0.0015
    1AU    AUSL  227   7.537   6.260   7.259 -0.0155  0.1357  0.0200
    1AU     AUL  228   7.706   5.848   7.351 -0.0053  0.0005  0.0709
    1AU       S  229   7.259   6.022   7.256  0.1973  0.0177 -0.1919
    1AU     LIG  230   7.019   6.404   7.481 -0.0116  0.0461  0.2535
    1AU     LIG  231   6.998   6.438   7.909 -0.1121  0.3430 -0.1206
    1AU     LIG  232   6.694   6.647   8.237 -0.0429 -0.1997 -0.0936
    1AU     LIG  233   6.554   6.857   8.429 -0.1231 -0.1016  0.1426
    1AU     LIG  234   6.246   7.153   8.265  0.0109  0.1264  0.3135
    1AU     LIG  235   6.016   7.043   7.977  0.0404 -0.1949  0.0016
    1AU       S  236   7.538   6.048   7.719 -0.0096  0.3098  0.1047
    1AU     LIG  237   7.418   5.552   7.611 -0.1207  0.0153  0.1385
    1AU     LIG  238   7.209   5.176   7.400  0.2398  0.2836 -0.2844
    1AU     LIG  239   7.356   4.820   7.423 -0.0383 -0.2654 -0.6302
    1AU     LIG  240   7.846   4.565   7.404 -0.0671 -0.1794 -0.1660
    1AU     LIG  241   8.304   4.541   7.433  0.2632 -0.0868 -0.2432
    1AU     LIG  242   8.581   4.785   7.673  0.2035 -0.0748  0.1481
    1AU    AUSL  243   7.560   6.497   7.576 -0.1092 -0.0445 -0.0561
    1AU    AUSL  244   7.780   6.714   7.876  0.0118 -0.0425 -0.0922
    1AU     AUL  245   7.488   6.603   7.876  0.0818 -0.0231 -0.0352
    1AU       S  246   7.375   6.168   7.734 -0.0922 -0.1835 -0.0459
    1AU     LIG  247   6.987   5.886   7.717  0.1464 -0.1130  0.1980
    1AU     LIG  248   6.930   5.632   7.436  0.0331  0.0214  0.0314
    1AU     LIG  249   6.899   5.524   7.098  0.2394 -0.1281  0.1622
    1AU     LIG  250   6.705   5.518   6.701 -0.0966 -0.0140 -0.0808
    1AU     LIG  251   6.796   5.565   6.268  0.1841  0.0908 -0.0752
    1AU     LIG  252   6.684   5.663   5.837  0.1993  0.1240 -0.1012
    1AU       S  253   7.489   7.019   8.123 -0.1793  0.7462 -0.0472
    1AU     LIG  254   7.114   6.950   7.990  0.0040  0.2089 -0.0106
    1AU     LIG  255   6.868   6.806   7.591  0.1442 -0.4747 -0.0729
    1AU     LIG  256   6.428   6.911   7.424  0.0478 -0.3090  0.4144
    1AU     LIG  257   6.242   6.798   7.098 -0.3311 -0.3526 -0.2671
    1AU     LIG  258   5.909   6.581   7.082 -0.2708  0.1627  0.4642
    1AU     LIG  259   5.508   6.532   7.045  0.1436 -0.1724  0.0449
    1AU    AUSL  260   7.987   6.477   7.636 -0.0457 -0.0367 -0.1987
    1AU    AUSL  261   8.189   6.082   7.684  0.0010  0.0326 -0.0303
    1AU     AUL  262   7.932   6.263   7.879  0.0895  0.0348 -0.0387
    1AU       S  263   8.257   5.961   8.047 -0.2037 -0.0247 -0.4486
    1AU     LIG  264   8.252   5.552   8.142  0.1671 -0.0221  0.1172
    1AU     LIG  265   8.557   5.356   8.254 -0.3704  0.0818 -0.4394
    1AU     LIG  266   8.596   4.905   8.168  0.0424 -0.2779 -0.0231
    1AU     LIG  267   8.459   4.409   7.969  0.0080 -0.0716 -0.5027
    1AU     LIG  268   7.987   4.356   7.835 -0.0366  0.2494 -0.3366
    1AU     LIG  269   7.608   4.618   7.806 -0.3689  0.3227 -0.4390
    1AU       S  270   7.500   6.138   7.856 -0.0625 -0.1056  0.2647
    1AU     LIG  271   7.207   5.986   8.191 -0.0983 -0.3051  0.0658
    1AU     LIG  272   6.884   5.701   8.246  0.2468 -0.0441 -0.2526
    1AU     LIG  273   6.591   5.493   8.022 -0.0610 -0.1582 -0.1272
    1AU     LIG  274   6.109   5.298   7.894  0.4247  0.7054  0.0295
    1AU     LIG  275   5.952   5.297   7.464 -0.0497  0.1265 -0.3633
    1AU     LIG  276   5.622   5.308   7.100 -0.1985  0.3771 -0.2861
    1AU    AUSL  277   8.837   6.342   6.673  0.0661 -0.0091 -0.0129
    1AU    AUSL  278   9.026   6.541   6.995  0.0574 -0.0169 -0.0151
    1AU     AUL  279   9.064   6.162   6.854 -0.0017  0.0079 -0.0138
    1AU       S  280   9.296   6.564   6.996 -0.0832  0.3194 -0.1363
    1AU     LIG  281   9.573   6.440   6.724  0.1402  0.5405  0.0491
    1AU     LIG  282   9.981   6.176   6.639  0.1778 -0.0822 -0.0919
    1AU     LIG  283  10.369   5.932   6.796 -0.0542  0.1038  0.0688
    1AU     LIG  284  10.348   5.531   6.992 -0.0804  0.0686 -0.2754
    1AU     LIG  285  10.370   5.145   6.909 -0.2069  0.7123 -0.0520
    1AU     LIG  286  10.302   4.765   7.135  0.1550 -0.0078 -0.0519
    1AU       S  287   9.091   6.357   6.452  0.1833  0.1394 -0.3432
    1AU     LIG  288   9.280   5.910   6.210 -0.0154 -0.1858  0.1538
    1AU     LIG  289   9.280   5.476   6.493  0.2091  0.4358  0.2318
    1AU     LIG  290   9.342   5.047   6.695  0.2029  0.1134 -0.4282
    1AU     LIG  291   9.109   4.733   6.816 -0.0298  0.1744  0.4579
    1AU     LIG  292   9.049   4.370   6.899 -0.2000  0.2093  0.1424
    1AU     LIG  293   9.186   3.919   6.755  0.1615  0.0847  0.2086
    1AU    AUSL  294   8.562   6.622   6.607 -0.0049 -0.0462 -0.0241
    1AU    AUSL  295   8.498   6.155   6.566  0.1029 -0.0627 -0.0097
    1AU     AUL  296   8.634   6.372   6.325 -0.0481 -0.0952  0.0963
    1AU       S  297   9.085   6.387   6.283  0.1978 -0.2409  0.2943
    1AU     LIG  298   9.519   6.424   6.156 -0.0365 -0.2180  0.1013
    1AU     LIG  299  10.007   6.484   6.164  0.0983 -0.2474  0.2758
    1AU     LIG  300  10.394   6.443   6.362 -0.1489  0.0410 -0.0510
    1AU     LIG  301  10.868   6.239   6.480  0.0303 -0.3212  0.1621
    1AU     LIG  302  11.011   5.873   6.605  0.0185  0.1798  0.1121
    1AU     LIG  303  10.920   5.760   7.000 -0.2879  0.0699  0.0193
    1AU       S  304   8.415   6.052   6.087 -0.2533  0.0655 -0.5316
    1AU     LIG  305   8.433   5.671   6.277  0.1185  0.0189 -0.1571
    1AU     LIG  306   8.295   5.229   6.459 -0.3253 -0.4341  0.2010
    1AU     LIG  307   8.338   4.937   6.695 -0.0536  0.3339 -0.1536
    1AU     LIG  308   8.660   4.726   6.930 -0.1158  0.3972  0.0961
    1AU     LIG  309   8.620   4.349   7.061 -0.3508  0.1719  0.0069
    1AU     LIG  310   8.449   4.003   7.292  0.0082  0.0230  0.0523
    1AU    AUSL  311   8.963   6.761   6.655 -0.0306  0.0204  0.0551
    1AU    AUSL  312   8.652   6.975   6.428 -0.0887 -0.0049  0.0367
    1AU     AUL  313   8.829   6.773   6.278  0.0373  0.0780  0.0560
    1AU       S  314   9.002   7.168   6.350  0.3315 -0.1551  0.1901
    1AU     LIG  315   9.221   7.348   6.031 -0.1322 -0.1194  0.0598
    1AU     LIG  316   9.424   7.686   6.058 -0.0475  0.1691 -0.0472
    1AU     LIG  317   9.374   8.046   6.298 -0.1859 -0.0926  0.1605
    1AU     LIG  318   9.361   8.367   6.717 -0.2695  0.0723 -0.2706
    1AU     LIG  319   9.376   8.611   7.019 -0.0581 -0.4864  0.0751
    1AU     LIG  320   9.662   8.995   7.050  0.1251  0.0663 -0.0336
    1AU       S  321   9.228   6.701   6.546 -0.0841 -0.4601 -0.0589
    1AU     LIG  322   9.428   6.970   6.764  0.3078 -0.0989  0.0139
    1AU     LIG  323   9.704   6.876   7.122  0.1663  0.0561  0.0501
    1AU     LIG  324  10.107   6.754   7.364  0.1452  0.0257  0.2981
    1AU     LIG  325  10.411   6.410   7.474 -0.0048  0.1374  0.1477
    1AU     LIG  326  10.415   5.914   7.343 -0.1149 -0.2245  0.0380
    1AU     LIG  327  10.253   5.609   7.530  0.2806 -0.0080 -0.1538
    1AU    AUSL  328   7.776   7.115   7.745  0.1481  0.0126  0.0167
    1AU    AUSL  329   8.150   6.886   7.922  0.0163  0.0190  0.0072
    1AU     AUL  330   7.903   6.854   8.086  0.0255 -0.0207  0.0338
    1AU       S  331   7.605   7.219   8.046 -0.0291  0.2489  0.2618
    1AU     LIG  332   7.241   7.399   7.940  0.0082  0.1750  0.1966
    1AU     LIG  333   6.905   7.309   7.680  0.3317  0.1659 -0.0917
    1AU     LIG  334   6.574   7.450   7.371 -0.6741  0.0950  0.0775
    1AU     LIG  335   6.187   7.282   7.126  0.1459 -0.1032  0.0696
    1AU     LIG  336   5.855   7.043   6.883 -0.1213  0.0342 -0.0601
    1AU     LIG  337   5.365   7.047   6.923  0.3262  0.2623 -0.0882
    1AU       S  338   8.175   7.230   8.016  0.2577 -0.3336 -0.3995
    1AU     LIG  339   7.932   7.214   8.410  0.0218 -0.0447 -0.5122
    1AU     LIG  340   7.712   7.537   8.360 -0.1576  0.1887  0.0257
    1AU     LIG  341   7.383   7.766   8.179  0.0659 -0.1616 -0.2127
    1AU     LIG  342   7.218   8.165   7.992  0.2828 -0.1253 -0.0294
    1AU     LIG  343   6.822   8.350   7.820  0.0025  0.3996  0.1707
    1AU     LIG  344   6.571   8.340   7.433  0.2697  0.1505 -0.3465
    1AU    AUSL  345   7.766   6.818   7.466  0.0112 -0.0683 -0.0059
    1AU    AUSL  346   7.679   7.285   7.384 -0.1128  0.0272  0.0318
    1AU     AUL  347   7.428   6.988   7.612 -0.0376  0.0622 -0.0244
    1AU       S  348   7.700   7.224   7.858  0.2195 -0.0779 -0.3744
    1AU     LIG  349   7.684   7.687   7.729 -0.0704 -0.2416  0.3859
    1AU     LIG  350   7.638   7.986   7.514 -0.2181  0.1241  0.2064
    1AU     LIG  351   7.592   8.065   7.195  0.0581  0.4147  0.2010
    1AU     LIG  352   7.460   8.224   6.754 -0.3297  0.2865  0.5596
    1AU     LIG  353   7.461   8.009   6.399  0.0824 -0.1540 -0.2603
    1AU     LIG  354   7.480   8.188   5.940 -0.0241 -0.0579 -0.0321
    1AU       S  355   7.322   7.415   7.407 -0.3521 -0.2134 -0.4475
    1AU     LIG  356   7.212   7.872   7.491  0.3626  0.0784 -0.0111
    1AU     LIG  357   7.065   8.283   7.347 -0.3635  0.0313 -0.1795
    1AU     LIG  358   7.119   8.533   6.890  0.1917 -0.0194 -0.4063
    1AU     LIG  359   6.928   8.616   6.483  0.0863  0.3030 -0.0056
    1AU     LIG  360   6.905   8.744   6.008 -0.1265  0.0113 -0.1694
    1AU     LIG  361   7.025   8.777   5.650 -0.0949  0.2656  0.0338
    1AU    AUSL  362   8.601   7.339   6.645 -0.0399  0.0682  0.0751
    1AU    AUSL  363   8.281   7.108   6.385  0.0693  0.0639 -0.0606
    1AU     AUL  364   8.541   7.181   6.179 -0.0084 -0.0028  0.0356
    1AU       S  365   8.153   7.405   6.184  0.0327  0.0474 -0.4155
    1AU     LIG  366   8.194   7.082   5.869  0.3699 -0.3121 -0.1207
    1AU     LIG  367   8.551   6.834   5.765 -0.0471  0.0793 -0.1909
    1AU     LIG  368   8.877   7.019   5.885 -0.1478 -0.0558  0.3671
    1AU     LIG  369   9.347   6.878   6.095  0.2496  0.1135 -0.0737
    1AU     LIG  370   9.702   6.839   6.380 -0.2507  0.2061  0.2561
    1AU     LIG  371   9.898   7.133   6.684  0.2081  0.0897 -0.1955
    1AU       S  372   8.896   7.291   6.432  0.4234 -0.3329  0.1195
    1AU     LIG  373   8.977   7.717   6.502 -0.1290  0.2656 -0.0504
    1AU     LIG  374   9.276   7.884   6.806  0.0932 -0.2465 -0.0995
    1AU     LIG  375   9.727   7.988   6.828  0.1068  0.1043  0.2787
    1AU     LIG  376  10.159   7.965   6.920 -0.1299 -0.0578  0.4129
    1AU     LIG  377  10.421   8.161   6.678 -0.1994 -0.3126 -0.2441
    1AU     LIG  378  10.685   8.284   6.445  0.0298 -0.1604  0.1722
    1AU    AUSL  379   8.683   6.973   6.845 -0.0456 -0.0283  0.0218
    1AU    AUSL  380   8.641   7.354   7.050 -0.0095  0.0936 -0.0796
    1AU     AUL  381   8.846   7.409   6.846 -0.0332 -0.0478  0.0249
    1AU       S  382   9.145   7.569   7.156 -0.3592 -0.1253  0.1719
    1AU     LIG  383   9.028   7.942   7.291 -0.0187 -0.0133 -0.2151
    1AU     LIG  384   8.952   8.397   7.296 -0.0955  0.0490 -0.0668
    1AU     LIG  385   8.862   8.793   7.415  0.2019 -0.1285 -0.0901
    1AU     LIG  386   8.769   9.189   7.489  0.2044 -0.0231  0.1897
    1AU     LIG  387   9.044   9.597   7.392  0.4143  0.3146  0.4452
    1AU     LIG  388   9.280   9.872   7.120 -0.0865 -0.2789  0.1017
    1AU       S  389   9.070   7.165   6.470 -0.2162  0.0547  0.1192
    1AU     LIG  390   9.456   7.429   6.543  0.0088 -0.0717  0.2249
    1AU     LIG  391   9.962   7.619   6.576 -0.0246  0.1285  0.0601
    1AU     LIG  392  10.348   7.424   6.716  0.3159  0.2144 -0.2580
    1AU     LIG  393  10.511   7.055   6.869 -0.2301 -0.4468  0.1247
    1AU     LIG  394  10.401   6.719   6.849  0.0520 -0.2197 -0.2086
    1AU     LIG  395   9.987   6.674   6.776 -0.1123  0.0581  0.2576
    1AU    AUSL  396   8.709   6.073   7.425  0.0045 -0.0110 -0.0281
    1AU    AUSL  397   8.696   6.309   7.053  0.0354 -0.0394 -0.0081
    1AU     AUL  398   8.951   6.041   7.274 -0.0187  0.0556 -0.0029
    1AU       S  399   9.314   6.253   7.213 -0.4310  0.1498  0.1453
    1AU     LIG  400   9.487   5.928   7.155  0.2271 -0.0247 -0.0210
    1AU     LIG  401   9.712   5.605   7.467  0.2505 -0.4959  0.2306
    1AU     LIG  402   9.979   5.267   7.381  0.0457  0.0707 -0.1235
    1AU     LIG  403   9.905   4.837   7.580  0.0056 -0.3502 -0.1757
    1AU     LIG  404   9.496   4.685   7.814 -0.2763  0.3239 -0.0417
    1AU     LIG  405   9.105   4.731   7.985 -0.2191 -0.0669  0.1852
    1AU       S  406   8.651   5.655   7.390  0.4120 -0.0178  0.0406
    1AU     LIG  407   8.719   5.514   7.692  0.1254  0.2407  0.0004
    1AU     LIG  408   8.349   5.259   7.690 -0.0245  0.4578 -0.0416
    1AU     LIG  409   8.082   4.877   7.843 -0.0443 -0.0959  0.2626
    1AU     LIG  410   8.010   4.629   8.238  0.1364 -0.1019  0.1255
    1AU     LIG  411   7.785   4.388   8.562 -0.0605 -0.4772  0.3409
    1AU     LIG  412   7.477   4.074   8.784 -0.0680  0.3325 -0.1675
    1AU    AUSL  413   8.575   5.939   6.992 -0.0408  0.0423  0.0046
    1AU    AUSL  414   8.072   5.878   7.032  0.0589 -0.0106 -0.0819
    1AU     AUL  415   8.440   5.709   6.760  0.0133  0.0042 -0.0613
    1AU       S  416   8.591   5.694   7.203 -0.2238  0.1415 -0.1657
    1AU     LIG  417   9.027   5.667   6.965  0.2904 -0.1102 -0.0784
    1AU     LIG  418   9.474   5.480   6.945 -0.4206  0.2427  0.0255
    1AU     LIG  419   9.784   5.507   6.879  0.0792  0.0459  0.1568
    1AU     LIG  420   9.985   5.868   7.040  0.0937  0.3561 -0.2097
    1AU     LIG  421   9.878   6.043   7.463 -0.0132  0.2405  0.0630
    1AU     LIG  422   9.518   6.101   7.637  0.1596  0.2235  0.1024
    1AU       S  423   7.994   5.604   6.877 -0.6600  0.2219  0.5577
    1AU     LIG  424   8.354   5.307   6.995  0.0618 -0.0600 -0.0699
    1AU     LIG  425   8.587   5.134   7.306 -0.2128  0.0530 -0.0580
    1AU     LIG  426   8.958   4.770   7.331  0.1174  0.4744  0.1414
    1AU     LIG  427   9.313   4.447   7.313  0.1185 -0.3686 -0.3801
    1AU     LIG  428   9.565   4.119   7.072  0.3225 -0.2368  0.3087
    1AU     LIG  429   9.560   3.642   7.054  0.1014 -0.1131  0.1451
    1AU    AUSL  430   8.323   6.043   7.313 -0.0117  0.0406  0.0723
    1AU    AUSL  431   8.447   6.377   7.528 -0.0415  0.1351  0.0474
    1AU     AUL  432   8.501   5.981   7.661 -0.0488  0.0245 -0.0628
    1AU       S  433   8.427   6.075   8.086 -0.0563 -0.1612  0.3824
    1AU     LIG  434   8.748   5.809   8.149 -0.0073 -0.0958  0.2136
    1AU     LIG  435   9.044   5.485   8.033  0.1632 -0.2890  0.2379
    1AU     LIG  436   9.207   5.184   7.826 -0.1846 -0.0870 -0.1938
    1AU     LIG  437   9.515   5.164   7.558  0.3396  0.2007  0.0603
    1AU     LIG  438   9.469   5.001   7.176 -0.1873  0.0573  0.0217
    1AU     LIG  439   9.657   4.601   6.868  0.0343 -0.2278  0.0532
    1AU       S  440   8.407   5.683   7.333  0.1703  0.5459 -0.3849
    1AU     LIG  441   8.124   5.659   7.552  0.1982 -0.1278  0.1239
    1AU     LIG  442   7.820   5.643   7.879 -0.0258  0.1344  0.3753
    1AU     LIG  443   7.431   5.563   8.068 -0.0963  0.1356 -0.1484
    1AU     LIG  444   7.051   5.374   7.921 -0.0914  0.2404  0.0661
    1AU     LIG  445   7.003   5.075   7.835  0.0619  0.0316 -0.2892
    1AU     LIG  446   7.187   4.731   8.046 -0.3493  0.1160 -0.2009
    1AU    AUSL  447   8.485   7.348   7.475  0.0218 -0.1066 -0.0246
    1AU    AUSL  448   8.138   7.128   7.574  0.0361  0.0211  0.0509
    1AU     AUL  449   8.516   7.485   7.739  0.0899 -0.0180 -0.0748
    1AU       S  450   8.452   7.932   7.605 -0.3026 -0.4024  0.3256
    1AU     LIG  451   8.787   7.894   7.868 -0.3843 -0.3691  0.0172
    1AU     LIG  452   9.142   7.975   8.056 -0.0656 -0.1589  0.0287
    1AU     LIG  453   9.582   7.887   8.286 -0.1984 -0.0526  0.2400
    1AU     LIG  454   9.780   8.152   8.483 -0.4987  0.0092 -0.0651
    1AU     LIG  455   9.902   8.183   8.911 -0.3981 -0.2490  0.0777
    1AU     LIG  456   9.894   7.843   9.136 -0.1859  0.5207 -0.0417
    1AU       S  457   8.087   7.479   7.965 -0.3127  0.0572 -0.2596
    1AU     LIG  458   8.001   7.859   8.121 -0.0254 -0.1207  0.1669
    1AU     LIG  459   7.683   8.186   7.975 -0.1800  0.2898 -0.1692
    1AU     LIG  460   7.581   8.564   8.073  0.3715  0.1680 -0.0077
    1AU     LIG  461   7.546   8.896   8.377 -0.1348 -0.8305  0.0972
    1AU     LIG  462   7.234   9.212   8.453 -0.0348 -0.0283  0.0463
    1AU     LIG  463   6.948   9.200   8.078  0.2644 -0.1706 -0.0340
    1AU    AUSL  464   8.338   7.600   7.176 -0.0420 -0.0325  0.0742
    1AU    AUSL  465   8.880   7.278   7.385 -0.0091 -0.0090  0.0578
    1AU     AUL  466   8.675   7.604   7.313  0.1203  0.0770  0.0055
    1AU       S  467   8.443   7.998   7.408  0.0107 -0.1929 -0.0116
    1AU     LIG  468   8.433   8.350   7.212  0.0454 -0.0512 -0.2132
    1AU     LIG  469   8.370   8.831   7.116 -0.1362 -0.1959  0.1233
    1AU     LIG  470   8.387   9.373   7.189  0.4447  0.1543 -0.1482
    1AU     LIG  471   8.063   9.681   7.370 -0.1051  0.2441  0.0296
    1AU     LIG  472   8.209  10.120   7.524  0.1553 -0.2591  0.1990
    1AU     LIG  473   8.436  10.433   7.792  0.1990  0.5553  0.1211
    1AU       S  474   9.112   7.436   7.325  0.0317 -0.4517  0.1336
    1AU     LIG  475   9.172   7.575   7.710  0.1279 -0.1037 -0.0736
    1AU     LIG  476   9.474   7.976   7.662 -0.1994 -0.3271  0.0793
    1AU     LIG  477   9.587   8.217   7.263  0.1227  0.0611  0.2695
    1AU     LIG  478   9.901   8.410   7.023 -0.0721  0.0792  0.1591
    1AU     LIG  479  10.133   8.814   7.254  0.1351  0.2024  0.1748
    1AU     LIG  480  10.018   9.206   7.287 -0.0798 -0.4700 -0.3374
    1AU    AUSL  481   8.089   7.524   7.522  0.0535 -0.0075 -0.1181
    1AU    AUSL  482   8.121   7.564   6.830 -0.0271 -0.0239 -0.0054
    1AU     AUL  483   8.052   7.802   7.229 -0.0040 -0.0424 -0.0762
    1AU       S  484   7.995   7.875   6.779  0.0911  0.0451 -0.2001
    1AU     LIG  485   8.329   8.231   6.655  0.2941  0.1663 -0.0647
    1AU     LIG  486   8.442   8.612   6.563  0.4113 -0.0505 -0.1557
    1AU     LIG  487   8.095   9.029   6.601 -0.1974 -0.4773 -0.0134
    1AU     LIG  488   7.893   9.418   6.729  0.0204  0.0228  0.0926
    1AU     LIG  489   7.753   9.598   7.005  0.4820  0.2119  0.0695
    1AU     LIG  490   7.605   9.621   7.456  0.5131  0.2833 -0.0459
    1AU       S  491   8.257   7.814   7.638  0.2393 -0.5284  0.0147
    1AU     LIG  492   8.072   8.209   7.550  0.0501 -0.3960  0.1897
    1AU     LIG  493   8.023   8.631   7.406  0.0365  0.1884 -0.1761
    1AU     LIG  494   7.927   9.093   7.153 -0.0360  0.1513  0.2490
    1AU     LIG  495   7.511   9.204   7.121  0.0707 -0.0373  0.0485
    1AU     LIG  496   7.114   9.099   6.964  0.0214 -0.2417  0.0105
    1AU     LIG  497   6.701   9.183   7.146 -0.2021 -0.0216  0.0136
    1AU    AUSL  498   7.947   6.107   6.709 -0.0066  0.0049 -0.0256
    1AU    AUSL  499   7.913   6.245   7.137 -0.0286 -0.0921 -0.0825
    1AU     AUL  500   7.690   5.977   6.895  0.0263 -0.0540 -0.0362
    1AU       S  501   7.888   5.656   6.634  0.0911 -0.2928 -0.2838
    1AU     LIG  502   7.483   5.702   6.567 -0.0511 -0.1456  0.0489
    1AU     LIG  503   7.188   5.491   6.658 -0.0445 -0.1994 -0.1198
    1AU     LIG  504   7.062   5.106   6.919 -0.2393 -0.0803 -0.2438
    1AU     LIG  505   6.915   4.743   7.191  0.3875  0.0237  0.1069
    1AU     LIG  506   6.804   4.391   7.378  0.3524 -0.1742 -0.0434
    1AU     LIG  507   6.517   4.128   7.385 -0.2977  0.1944  0.2122
    1AU       S  508   7.360   6.172   7.240 -0.1587 -0.1384  0.1700
    1AU     LIG  509   6.816   6.131   7.146  0.3046  0.4717 -0.2760
    1AU     LIG  510   6.475   5.844   7.069 -0.0669 -0.3749 -0.3697
    1AU     LIG  511   6.034   5.718   7.273 -0.5162 -0.2918  0.0717
    1AU     LIG  512   5.865   5.746   7.782 -0.1195  0.0866  0.0467
    1AU     LIG  513   5.597   5.733   8.176 -0.4379  0.1062 -0.0313
    1AU     LIG  514   5.181   5.674   8.328 -0.0259 -0.2502  0.1630
    1AU    AUSL  515   8.291   6.213   6.901  0.0640  0.0149 -0.0337
    1AU    AUSL  516   8.176   6.389   6.515  0.0275  0.0655 -0.0312
    1AU     AUL  517   8.181   6.006   6.539 -0.0198 -0.0334 -0.0018
    1AU       S  518   8.048   5.720   7.005  0.2900  0.3022  0.2561
    1AU     LIG  519   7.846   5.370   7.256  0.0893  0.0897 -0.0751
    1AU     LIG  520   7.715   5.158   7.488  0.0740 -0.3735 -0.2702
    1AU     LIG  521   7.556   5.070   7.828  0.3752 -0.2240 -0.0448
    1AU     LIG  522   7.797   5.209   8.142 -0.0097 -0.0549 -0.3712
    1AU     LIG  523   7.614   4.927   8.432 -0.0071  0.2882 -0.2877
    1AU     LIG  524   7.576   4.878   8.952  0.1676 -0.0236  0.1725
    1AU       S  525   8.156   6.256   6.098 -0.0503  0.3110 -0.1950
    1AU     LIG  526   7.787   5.996   6.229  0.0365 -0.1146  0.0609
    1AU     LIG  527   7.443   5.750   6.068  0.2116  0.2504  0.2432
    1AU     LIG  528   7.302   5.386   6.154 -0.2669  0.0163 -0.2930
    1AU     LIG  529   7.584   5.152   6.420  0.4077 -0.0716  0.0497
    1AU     LIG  530   7.893   5.142   6.714  0.0154  0.6922 -0.1835
    1AU     LIG  531   8.074   4.937   7.115 -0.1403  0.0115  0.2647
    1AU    AUSL  532   7.709   7.365   6.865 -0.0466 -0.0120  0.0597
    1AU    AUSL  533   8.276   7.191   6.799  0.0793 -0.0255  0.1602
    1AU     AUL  534   7.883   7.439   6.585 -0.0795  0.0949  0.0203
    1AU       S  535   8.277   7.588   6.370 -0.0547  0.2591  0.1887
    1AU     LIG  536   8.571   7.885   6.288  0.0482 -0.3917  0.0372
    1AU     LIG  537   8.885   8.295   6.257 -0.1306 -0.4711  0.1471
    1AU     LIG  538   9.077   8.596   6.431 -0.0453 -0.3057 -0.0490
    1AU     LIG  539   9.157   8.875   6.648 -0.0470 -0.0217  0.2747
    1AU     LIG  540   9.111   9.071   7.049  0.0236  0.2428 -0.4173
    1AU     LIG  541   9.376   9.173   7.457 -0.1411 -0.1142  0.3948
    1AU       S  542   7.830   7.836   6.785  0.0928  0.2254 -0.1121
    1AU     LIG  543   7.356   7.712   6.828  0.3610  0.0761  0.0837
    1AU     LIG  544   7.014   8.024   6.661 -0.2773 -0.0915 -0.1706
    1AU     LIG  545   6.592   8.188   6.542  0.0209 -0.0414 -0.1292
    1AU     LIG  546   6.201   8.408   6.775 -0.1758  0.0003 -0.2976
    1AU     LIG  547   5.754   8.540   6.697 -0.0381  0.2571 -0.1646
    1AU     LIG  548   5.330   8.590   6.819 -0.1940  0.1495 -0.0775
    1AU    AUSL  549   8.005   7.344   7.165  0.0015 -0.0601  0.0235
    1AU    AUSL  550   7.728   7.014   7.068 -0.0232  0.0154  0.0895
    1AU     AUL  551   7.674   7.510   7.133 -0.0299 -0.0244 -0.0619
    1AU       S  552   8.179   7.743   6.787 -0.0745 -0.1632  0.2236
    1AU     LIG  553   8.624   7.864   6.875  0.2615 -0.1128 -0.0928
    1AU     LIG  554   8.872   8.183   6.832 -0.3516 -0.3063 -0.2115
    1AU     LIG  555   8.818   8.664   6.886 -0.0346 -0.2839 -0.0867
    1AU     LIG  556   8.673   9.142   6.746  0.0421  0.0738  0.1447
    1AU     LIG  557   8.602   9.590   6.799 -0.1446 -0.1168 -0.0874
    1AU     LIG  558   8.259   9.770   6.718  0.1245 -0.1237 -0.0556
    1AU       S  559   7.281   7.335   7.168  0.3236 -0.0677  0.1405
    1AU     LIG  560   6.913   7.715   7.101 -0.1045 -0.0361 -0.2449
    1AU     LIG  561   6.644   8.087   7.051  0.1938  0.0734 -0.0482
    1AU     LIG  562   6.627   8.582   6.992 -0.0737  0.1501  0.3605
    1AU     LIG  563   6.501   8.850   6.826 -0.1769  0.0520 -0.2241
    1AU     LIG  564   6.015   8.924   6.724 -0.0788  0.0164 -0.2285
    1AU     LIG  565   5.754   8.955   6.953 -0.5809  0.1437  0.0458
    2POPC   NC3  566   2.739   5.011   9.301  0.1604 -0.2364 -0.3481
    2POPC   PO4  567   2.386   5.040   8.977 -0.1814 -0.0498 -0.2369
    2POPC   GL1  568   2.339   5.067   8.554  0.0530 -0.3058  0.2427
    2POPC   GL2  569   2.692   5.172   8.442  0.1074  0.2515  0.2326
    2POPC   C1A  570   2.331   4.916   8.119 -0.1604  0.0124  0.1519
    2POPC   D2A  571   2.317   4.769   7.655  0.1736 -0.1794  0.0005
    2POPC   C3A  572   2.617   4.547   7.511 -0.2748  0.2660  0.1618
    2POPC   C4A  573   2.975   4.538   7.355 -0.2037 -0.3372 -0.0063
    2POPC   C1B  574   2.557   5.399   8.095 -0.0739 -0.1122  0.2171
    2POPC   C2B  575   2.636   5.659   7.691  0.1050 -0.0750  0.0889
    2POPC   C3B  576   2.597   5.640   7.239  0.2352  0.1649 -0.0870
    2POPC   C4B  577   2.527   5.698   6.813  0.1511 -0.0610  0.0933
    3POPC   NC3  578   6.268   8.451   9.579 -0.2654 -0.0628  0.0786
    3POPC   PO4  579   6.500   8.776   9.857 -0.2947 -0.1187  0.0878
    3POPC   GL1  580   6.733   8.804   9.485  0.0903  0.0722  0.1301
    3POPC   GL2  581   6.455   8.784   9.222 -0.0540  0.1733 -0.0034
    3POPC   C1A  582   7.043   8.715   9.128  0.0133  0.1925  0.0053
    3POPC   D2A  583   7.326   8.800   8.791 -0.1497 -0.1492  0.1710
    3POPC   C3A  584   7.458   8.433   8.532  0.1082  0.2649 -0.0904
    3POPC   C4A  585   7.660   8.071   8.469 -0.2242  0.0885  0.2638
    3POPC   C1B  586   6.615   8.660   8.912  0.0493 -0.1129 -0.0610
    3POPC   C2B  587   6.960   8.518   8.654  0.0409 -0.0150  0.2700
    3POPC   C3B  588   7.078   8.668   8.300  0.0489  0.1787  0.0103
    3POPC   C4B  589   7.145   8.746   7.841  0.2223 -0.0016 -0.3686
    4POPC   NC3  590   2.796   9.945   8.933  0.3558 -0.0774 -0.0992
    4POPC   PO4  591   3.026  10.174   8.644 -0.2109  0.1214 -0.3177
    4POPC   GL1  592   3.070  10.110   8.262  0.0077 -0.0575  0.2689
    4POPC   GL2  593   3.160  10.416   8.185 -0.0191 -0.2078  0.1817
    4POPC   C1A  594   2.845   9.927   7.932 -0.1984  0.1086  0.2483
    4POPC   D2A  595   2.590   9.909   7.631  0.1359  0.2036 -0.0011
    4POPC   C3A  596   2.373   9.512   7.465  0.4489 -0.0971 -0.0933
    4POPC   C4A  597   2.331   9.075   7.648 -0.0820  0.0117 -0.1693
    4POPC   C1B  598   3.186  10.409   7.745  0.0273 -0.0645 -0.1582
    4POPC   C2B  599   3.319  10.609   7.363 -0.3965  0.0320  0.0806
    4POPC   C3B  600   3.699  10.745   7.135 -0.3447  0.1345  0.0794
    4POPC   C4B  601   4.044  10.507   6.993 -0.2575 -0.1302  0.1738
    5POPC   NC3  602   6.138   1.678   9.563  0.2525 -0.1701 -0.1065
    5POPC   PO4  603   6.527   1.558   9.290  0.3071  0.0849  0.0440
    5POPC   GL1  604   6.773   1.636   9.025 -0.1848  0.1956  0.0515
    5POPC   GL2  605   7.080   1.772   8.979  0.2922 -0.1448 -0.0866
    5POPC   C1A  606   6.704   1.609   8.605  0.2341  0.0626 -0.1320
    5POPC   D2A  607   6.410   1.493   8.331  0.0041 -0.1256  0.1658
    5POPC   C3A  608   6.513   1.520   7.964  0.1070 -0.1847  0.0561
    5POPC   C4A  609   6.954   1.638   7.744  0.2013 -0.0335  0.2529
    5POPC   C1B  610   7.230   1.920   8.558  0.1278 -0.1942 -0.0602
    5POPC   C2B  611   6.957   1.822   8.221  0.1995  0.0354  0.0200
    5POPC   C3B  612   6.632   1.986   8.009 -0.1713 -0.0472  0.1122
    5POPC   C4B  613   6.232   2.023   7.840  0.0487  0.2433  0.0753
    6POPC   NC3  614   5.450   4.081   9.441  0.2847  0.0755 -0.2629
    6POPC   PO4  615   5.643   3.880   9.252 -0.0100 -0.0189 -0.1637
    6POPC   GL1  616   5.771   3.899   8.850  0.0602 -0.0562  0.2530
    6POPC   GL2  617   5.662   3.816   8.501  0.0259 -0.3147  0.1077
    6POPC   C1A  618   6.124   3.825   8.792  0.0578 -0.3225  0.1288
    6POPC   D2A  619   6.527   3.854   8.730 -0.0484  0.0480  0.0655
    6POPC   C3A  620   6.644   3.917   8.297 -0.1834  0.1194 -0.1958
    6POPC   C4A  621   6.717   4.055   7.841  0.1101 -0.3566 -0.0067
    6POPC   C1B  622   5.542   3.675   8.081 -0.0815 -0.1221 -0.0207
    6POPC   C2B  623   5.651   3.874   7.637  0.0554 -0.0717 -0.0739
    6POPC   C3B  624   5.652   4.142   7.326  0.3667  0.1003  0.2508
    6POPC   C4B  625   5.788   4.553   7.290 -0.0507  0.1567  0.3330
    7POPC   NC3  626   4.336   9.017   8.594 -0.1963  0.1715 -0.1540
    7POPC   PO4  627   3.957   9.140   8.461  0.2406 -0.0858  0.0896
    7POPC   GL1  628   3.822   9.141   8.067  0.1707  0.0841 -0.0246
    7POPC   GL2  629   3.610   8.952   7.973  0.0652 -0.0669  0.1280
    7POPC   C1A  630   3.731   9.506   7.815  0.3575  0.0407 -0.1129
    7POPC   D2A  631   3.715   9.735   7.503  0.0971  0.2338  0.0718
    7POPC   C3A  632   3.736   9.439   7.077 -0.1357 -0.2029 -0.1316
    7POPC   C4A  633   3.953   9.244   6.635  0.2946  0.0786 -0.2790
    7POPC   C1B  634   3.643   9.045   7.537  0.1891 -0.1189  0.3499
    7POPC   C2B  635   3.512   8.970   7.154  0.1236  0.4670 -0.2012
    7POPC   C3B  636   3.467   9.043   6.803 -0.1187  0.3038 -0.1828
    7POPC   C4B  637   3.452   9.340   6.488 -0.2577  0.0625  0.0617
    8POPC   NC3  638   9.432   6.607  10.427  0.2129  0.1758  0.2332
    8POPC   PO4  639   9.498   6.718  10.064  0.1728 -0.2657 -0.1074
    8POPC   GL1  640   9.433   7.053   9.816  0.4002 -0.0622 -0.0467
    8POPC   GL2  641   9.168   6.868   9.641 -0.2848  0.2316  0.4968
    8POPC   C1A  642   9.203   7.358   9.562 -0.0690 -0.0755  0.2366
    8POPC   D2A  643   9.190   7.540   9.017  0.1549 -0.2702  0.4668
    8POPC   C3A  644   8.977   7.310   8.729  0.0577  0.0252  0.0174
    8POPC   C4A  645   8.553   7.229   8.632  0.0607 -0.2981 -0.0720
    8POPC   C1B  646   8.987   6.717   9.354 -0.2436  0.3012  0.0254
    8POPC   C2B  647   8.935   6.822   8.844  0.1205 -0.0735  0.5628
    8POPC   C3B  648   8.629   6.646   8.543  0.1273  0.0281  0.0186
    8POPC   C4B  649   8.213   6.816   8.450  0.0070  0.1459 -0.1795
    9POPC   NC3  650   3.919   3.921   9.064  0.1444 -0.0745  0.1685
    9POPC   PO4  651   4.244   3.591   8.982  0.3534 -0.0070  0.3418
    9POPC   GL1  652   4.103   3.275   8.662 -0.1487  0.1843 -0.0925
    9POPC   GL2  653   3.761   3.273   8.621 -0.0454 -0.0378  0.4919
    9POPC   C1A  654   4.171   3.214   8.262 -0.0256 -0.2421 -0.1291
    9POPC   D2A  655   4.459   3.311   7.947 -0.3826 -0.1546 -0.1878
    9POPC   C3A  656   4.742   3.018   7.711 -0.0094  0.0289 -0.1321
    9POPC   C4A  657   5.016   3.040   7.308 -0.0244 -0.4164  0.1865
    9POPC   C1B  658   3.648   3.424   8.135 -0.2710 -0.2244  0.0452
    9POPC   C2B  659   3.868   3.268   7.862 -0.2595 -0.3893 -0.0561
    9POPC   C3B  660   3.784   3.376   7.429  0.1383 -0.0035 -0.3082
    9POPC   C4B  661   3.757   3.063   7.150 -0.0398 -0.0648  0.1860
   10POPC   NC3  662   1.095   7.295  10.165 -0.2121 -0.1946 -0.0175
   10POPC   PO4  663   0.702   7.418   9.918 -0.3568 -0.4196 -0.2175
   10POPC   GL1  664   0.238   7.453   9.768 -0.0698 -0.0418  0.3580
   10POPC   GL2  665   0.094   7.187   9.566  0.1887 -0.0155  0.2801
   10POPC   C1A  666  -0.138   7.625   9.562 -0.1041  0.3017  0.0965
   10POPC   D2A  667  -0.549   7.688   9.633  0.1369  0.2066 -0.1176
   10POPC   C3A  668  -0.764   8.071   9.454  0.1572  0.2827 -0.0512
   10POPC   C4A  669  -0.775   8.046   8.974  0.0506  0.2806 -0.3082
   10POPC   C1B  670   0.060   7.267   9.113  0.0412 -0.0180 -0.0013
   10POPC   C2B  671   0.201   7.419   8.707 -0.0855 -0.0397 -0.2256
   10POPC   C3B  672   0.356   7.826   8.488 -0.0841 -0.0893  0.0019
   10POPC   C4B  673   0.517   8.274   8.351 -0.1164 -0.3165 -0.1516
   11POPC   NC3  674   7.322   8.716  10.117 -0.2983  0.2397 -0.1904
   11POPC   PO4  675   7.385   8.193  10.183  0.0585 -0.0768  0.1355
   11POPC   GL1  676   7.522   8.288   9.786 -0.0402  0.0179 -0.1234
   11POPC   GL2  677   7.655   8.442   9.599 -0.2082  0.1880  0.4713
   11POPC   C1A  678   7.224   8.205   9.438  0.0103 -0.1301  0.1196
   11POPC   D2A  679   7.109   8.218   8.988 -0.1655  0.0610  0.3437
   11POPC   C3A  680   6.730   8.014   8.830 -0.1000 -0.0586 -0.0398
   11POPC   C4A  681   6.310   8.322   8.644  0.0951 -0.2634  0.0423
   11POPC   C1B  682   7.580   8.402   9.163  0.1491 -0.0170  0.1511
   11POPC   C2B  683   7.697   8.060   8.910 -0.1154  0.2908 -0.1711
   11POPC   C3B  684   7.405   7.754   8.762  0.0612  0.1904  0.2270
   11POPC   C4B  685   7.032   7.273   8.893 -0.2052 -0.1504 -0.0601
   12POPC   NC3  686   5.147   2.495   9.274 -0.1685  0.1251 -0.1148
   12POPC   PO4  687   5.501   2.576   9.026  0.0433 -0.2492  0.1713
   12POPC   GL1  688   5.553   2.865   8.735 -0.0921  0.2350  0.0527
   12POPC   GL2  689   5.741   3.154   8.801 -0.1397  0.0159 -0.2631
   12POPC   C1A  690   5.736   2.918   8.348 -0.0988 -0.1620 -0.2321
   12POPC   D2A  691   5.661   2.948   7.930  0.0713  0.2119  0.1876
   12POPC   C3A  692   5.833   3.247   7.948 -0.1386  0.1335  0.0679
   12POPC   C4A  693   6.142   3.430   7.764  0.0767  0.1155  0.0228
   12POPC   C1B  694   5.928   3.372   8.558 -0.0882 -0.2998 -0.1319
   12POPC   C2B  695   6.094   3.685   8.216 -0.2651  0.1412  0.2316
   12POPC   C3B  696   6.166   3.954   7.768  0.2353 -0.1368 -0.1362
   12POPC   C4B  697   6.160   4.365   7.662  0.0893 -0.1400  0.0398
   13POPC   NC3  698   0.359   3.982   9.292 -0.1882  0.1208 -0.0496
   13POPC   PO4  699   0.374   4.488   9.289  0.1960  0.1282 -0.1338
   13POPC   GL1  700   0.252   4.846   8.893  0.1766 -0.3525  0.0967
   13POPC   GL2  701   0.527   4.959   8.754 -0.1032  0.2596 -0.1863
   13POPC   C1A  702   0.155   4.931   8.399 -0.1095  0.2047  0.0063
   13POPC   D2A  703  -0.085   5.069   8.039  0.5768  0.3280  0.0366
   13POPC   C3A  704  -0.247   5.370   7.892 -0.0403 -0.1731 -0.1166
   13POPC   C4A  705  -0.258   5.817   7.951  0.1369 -0.1939 -0.0108
   13POPC   C1B  706   0.594   4.693   8.427  0.1655  0.1998 -0.1362
   13POPC   C2B  707   0.635   4.704   7.952 -0.0245  0.2973 -0.1546
   13POPC   C3B  708   0.880   4.682   7.489  0.3309 -0.3298 -0.0155
   13POPC   C4B  709   1.317   4.896   7.231  0.1758  0.0600  0.2906
   14POPC   NC3  710   8.175   9.203  10.168 -0.0767  0.0442  0.0305
   14POPC   PO4  711   7.993   9.327   9.837 -0.0680  0.0680 -0.0665
   14POPC   GL1  712   8.258   9.125   9.571  0.0012 -0.2625 -0.0624
   14POPC   GL2  713   8.413   9.083   9.185  0.4756 -0.0420  0.0077
   14POPC   C1A  714   8.489   8.656   9.330  0.0397  0.0631 -0.0029
   14POPC   D2A  715   8.368   8.339   8.975  0.1788  0.2363  0.1079
   14POPC   C3A  716   8.412   8.525   8.533 -0.1612 -0.1893  0.1187
   14POPC   C4A  717   8.496   8.738   8.184 -0.0091 -0.0933  0.0999
   14POPC   C1B  718   8.272   8.872   8.868  0.0518  0.1150 -0.4097
   14POPC   C2B  719   8.053   8.936   8.443  0.0619  0.1170 -0.0932
   14POPC   C3B  720   7.942   8.939   8.075  0.0682 -0.1236 -0.1342
   14POPC   C4B  721   8.254   8.988   7.631  0.0867 -0.1449  0.0962
   15POPC   NC3  722   5.571   5.834   9.980  0.2578 -0.1264 -0.3113
   15POPC   PO4  723   5.720   6.077   9.578 -0.0181 -0.0101  0.0815
   15POPC   GL1  724   5.793   6.439   9.266 -0.3441  0.1294  0.1630
   15POPC   GL2  725   5.608   6.739   9.223  0.0268 -0.1937  0.0325
   15POPC   C1A  726   6.088   6.755   9.067  0.2857 -0.1621 -0.1408
   15POPC   D2A  727   6.211   6.873   8.754  0.1470 -0.1415 -0.1807
   15POPC   C3A  728   6.755   6.802   8.894  0.0027 -0.0293  0.1524
   15POPC   C4A  729   7.010   6.900   8.567 -0.0725 -0.1066 -0.0096
   15POPC   C1B  730   5.731   6.701   8.756 -0.0033  0.3179  0.0972
   15POPC   C2B  731   5.772   6.966   8.420 -0.0391  0.1748  0.5005
   15POPC   C3B  732   5.499   7.108   8.082 -0.0028  0.0723 -0.1482
   15POPC   C4B  733   5.597   7.096   7.793 -0.0364  0.0629 -0.2006
   16POPC   NC3  734   6.822   0.307   8.946  0.1523 -0.1068  0.2148
   16POPC   PO4  735   6.738   0.736   8.970 -0.1056  0.0064 -0.6843
   16POPC   GL1  736   6.662   0.695   8.678  0.2469 -0.0471 -0.0275
   16POPC   GL2  737   6.914   0.598   8.513  0.1169 -0.0902 -0.0694
   16POPC   C1A  738   6.658   1.038   8.381  0.0751  0.2260  0.1545
   16POPC   D2A  739   6.970   1.329   8.198  0.0086 -0.2594 -0.2265
   16POPC   C3A  740   7.261   1.195   7.795 -0.0199  0.3445 -0.0643
   16POPC   C4A  741   7.307   0.763   7.655  0.2892 -0.1297  0.2164
   16POPC   C1B  742   6.853   0.365   8.086 -0.2713  0.0647 -0.2069
   16POPC   C2B  743   7.078   0.309   7.641  0.0881  0.0506 -0.1593
   16POPC   C3B  744   7.395  -0.002   7.418 -0.1963 -0.1615  0.0071
   16POPC   C4B  745   7.412  -0.227   6.986 -0.1044 -0.0896 -0.2035
   17POPC   NC3  746   6.531   2.447   9.584 -0.0347 -0.1152  0.0613
   17POPC   PO4  747   7.038   2.487   9.428  0.1736 -0.1810 -0.3008
   17POPC   GL1  748   7.197   2.581   9.015 -0.1379  0.2095  0.2686
   17POPC   GL2  749   7.498   2.562   9.048 -0.3977 -0.1710  0.0796
   17POPC   C1A  750   7.074   2.610   8.620  0.4002 -0.1322 -0.1171
   17POPC   D2A  751   7.170   2.748   8.217  0.2307 -0.1565  0.2377
   17POPC   C3A  752   7.197   3.184   8.141 -0.1553  0.2323  0.2740
   17POPC   C4A  753   7.512   3.483   7.933  0.2262  0.5627  0.1962
   17POPC   C1B  754   7.481   2.283   8.782 -0.0871 -0.0729  0.0337
   17POPC   C2B  755   7.432   2.255   8.242  0.2445 -0.3443 -0.1772
   17POPC   C3B  756   6.939   2.311   8.214 -0.2404 -0.2700  0.1192
   17POPC   C4B  757   6.669   2.072   8.543 -0.3653 -0.2484  0.1427
   18POPC   NC3  758   3.335   3.147   8.921  0.1434  0.0780  0.0527
   18POPC   PO4  759   2.936   3.151   8.694 -0.0541 -0.0692  0.1324
   18POPC   GL1  760   2.787   3.432   8.465  0.2090 -0.2211  0.1701
   18POPC   GL2  761   2.629   3.241   8.284 -0.1167  0.1230  0.1697
   18POPC   C1A  762   3.014   3.596   8.061  0.0006 -0.2597  0.0677
   18POPC   D2A  763   3.087   3.747   7.700  0.3277  0.1815 -0.0642
   18POPC   C3A  764   2.588   3.996   7.637  0.0387  0.0893 -0.1783
   18POPC   C4A  765   2.260   4.231   7.453 -0.1998  0.2808 -0.2812
   18POPC   C1B  766   2.369   3.077   7.972  0.0572  0.1595 -0.0411
   18POPC   C2B  767   2.414   2.861   7.645 -0.2289  0.3181  0.0368
   18POPC   C3B  768   2.391   2.757   7.158 -0.2103 -0.7344 -0.1840
   18POPC   C4B  769   2.540   2.832   6.710  0.0905  0.1422 -0.1290
   19POPC   NC3  770   6.114   9.116   9.675  0.2217 -0.0477  0.1537
   19POPC   PO4  771   6.442   9.247   9.284  0.2780 -0.1102 -0.2939
   19POPC   GL1  772   6.804   9.127   9.024  0.1117 -0.1989 -0.0781
   19POPC   GL2  773   7.132   9.223   8.924 -0.0600 -0.1620 -0.1265
   19POPC   C1A  774   6.776   9.019   8.590 -0.0481 -0.1501 -0.1832
   19POPC   D2A  775   6.447   9.243   8.334  0.1793 -0.0531 -0.1305
   19POPC   C3A  776   6.576   9.636   8.113 -0.0874 -0.0754  0.0661
   19POPC   C4A  777   6.811  10.000   7.960 -0.0808 -0.0532 -0.1219
   19POPC   C1B  778   6.908   9.585   8.615 -0.1171 -0.0622 -0.4342
   19POPC   C2B  779   7.096   9.664   8.216  0.2428 -0.2668 -0.0596
   19POPC   C3B  780   7.173   9.701   7.722  0.0231 -0.0514 -0.0176
   19POPC   C4B  781   7.134   9.650   7.254  0.2178 -0.1858  0.1117
   20POPC   NC3  782   7.567   9.349   9.442 -0.1851 -0.4561 -0.3492
   20POPC   PO4  783   7.612   8.936   9.625 -0.1128  0.1196 -0.1484
   20POPC   GL1  784   7.675   8.890   9.255  0.3458 -0.1312  0.2752
   20POPC   GL2  785   7.950   8.671   9.282  0.1727 -0.2734  0.0188
   20POPC   C1A  786   7.762   9.036   8.860  0.2614 -0.1276 -0.1960
   20POPC   D2A  787   7.730   9.335   8.634 -0.0809  0.0475  0.0645
   20POPC   C3A  788   8.141   9.574   8.455 -0.2303  0.3277 -0.1190
   20POPC   C4A  789   8.529   9.597   8.324  0.0819  0.0570  0.0938
   20POPC   C1B  790   7.853   8.551   8.788 -0.4482  0.0430  0.1261
   20POPC   C2B  791   7.970   8.443   8.334 -0.2754 -0.2848 -0.0724
   20POPC   C3B  792   8.108   8.452   7.972  0.1223  0.0460 -0.0632
   20POPC   C4B  793   8.517   8.526   7.725  0.2517  0.0411  0.2141
   21POPC   NC3  794   6.581   3.711   9.197 -0.1269 -0.0583 -0.0346
   21POPC   PO4  795   6.838   3.464   9.227  0.2927 -0.3191 -0.1557
   21POPC   GL1  796   6.806   3.454   8.777  0.1344 -0.0271 -0.1753
   21POPC   GL2  797   6.860   3.109   8.772 -0.1582 -0.3354 -0.0547
   21POPC   C1A  798   6.909   3.528   8.394 -0.1388  0.0271  0.1456
   21POPC   D2A  799   7.101   3.685   8.063  0.3546 -0.0659 -0.3159
   21POPC   C3A  800   7.272   3.894   7.817  0.1947  0.0343 -0.1344
   21POPC   C4A  801   7.602   4.116   7.550  0.1580  0.2937 -0.0044
   21POPC   C1B  802   7.250   3.266   8.613 -0.0587 -0.2590  0.0734
   21POPC   C2B  803   7.625   3.234   8.369 -0.1602  0.0970  0.0390
   21POPC   C3B  804   7.895   3.195   7.970 -0.2695  0.0668 -0.3297
   21POPC   C4B  805   8.171   3.428   7.764 -0.1216 -0.0658  0.2047
   22POPC   NC3  806   4.856   3.212   9.433 -0.0014  0.0722  0.0576
   22POPC   PO4  807   5.171   3.641   9.321  0.1828 -0.0336 -0.0103
   22POPC   GL1  808   5.174   3.909   8.944 -0.2506  0.0811  0.0404
   22POPC   GL2  809   5.352   3.564   8.839 -0.0867 -0.2044  0.3348
   22POPC   C1A  810   5.025   3.951   8.509  0.0658  0.3832 -0.3249
   22POPC   D2A  811   4.798   4.281   8.282 -0.4982 -0.1311 -0.0066
   22POPC   C3A  812   5.114   4.513   8.043 -0.2992 -0.1102 -0.2344
   22POPC   C4A  813   5.051   4.761   7.632 -0.0328  0.1242  0.0425
   22POPC   C1B  814   5.264   3.460   8.435 -0.0358  0.0572 -0.0140
   22POPC   C2B  815   5.291   3.229   8.049  0.0073  0.0083 -0.0958
   22POPC   C3B  816   5.474   3.380   7.659 -0.3256 -0.0978  0.0864
   22POPC   C4B  817   5.798   3.465   7.407 -0.3191  0.1390  0.0585
   23POPC   NC3  818   3.616   9.412   8.629 -0.1630  0.1655 -0.0554
   23POPC   PO4  819   3.902   9.677   8.438 -0.0418 -0.2774 -0.0834
   23POPC   GL1  820   3.770   9.939   8.152 -0.0692  0.1304  0.0918
   23POPC   GL2  821   3.594  10.148   8.126  0.0455  0.0925 -0.0026
   23POPC   C1A  822   4.019   9.981   7.777  0.1586  0.1889  0.1544
   23POPC   D2A  823   4.073  10.250   7.421  0.3101  0.2658 -0.0495
   23POPC   C3A  824   4.432  10.326   7.302 -0.0838  0.1407 -0.0050
   23POPC   C4A  825   4.828  10.121   7.264 -0.1177 -0.0892 -0.1918
   23POPC   C1B  826   3.655  10.356   7.747 -0.2724  0.1000 -0.2526
   23POPC   C2B  827   3.892  10.649   7.666 -0.0868  0.2904  0.0174
   23POPC   C3B  828   4.172  10.828   7.371 -0.0016  0.2104  0.0072
   23POPC   C4B  829   4.449  10.847   7.054  0.2208 -0.0259  0.1731
   24POPC   NC3  830   5.139   6.939   9.069  0.1231  0.3117  0.1070
   24POPC   PO4  831   4.691   7.039   8.742  0.0863 -0.1474 -0.1989
   24POPC   GL1  832   5.055   7.041   8.532  0.1847  0.1710  0.4496
   24POPC   GL2  833   4.941   7.133   8.175  0.0128 -0.0627  0.2716
   24POPC   C1A  834   5.331   6.693   8.335 -0.2495 -0.0502  0.0660
   24POPC   D2A  835   5.741   6.607   8.005 -0.0371  0.0899 -0.0705
   24POPC   C3A  836   5.992   6.171   7.987  0.0373  0.0369 -0.0118
   24POPC   C4A  837   6.172   5.824   8.140 -0.0709  0.4389 -0.2836
   24POPC   C1B  838   5.087   7.321   7.789  0.1662 -0.0108 -0.3689
   24POPC   C2B  839   5.194   7.057   7.423 -0.1644  0.1701  0.3025
   24POPC   C3B  840   5.045   6.715   7.217 -0.5249  0.1382 -0.0983
   24POPC   C4B  841   4.995   6.311   7.065 -0.0445 -0.0645 -0.2451
   25POPC   NC3  842   1.527   9.995   9.168  0.0579 -0.1762  0.0436
   25POPC   PO4  843   1.389   9.591   8.852  0.2737 -0.2888 -0.3413
   25POPC   GL1  844   1.135   9.601   8.664  0.1245 -0.2554  0.0299
   25POPC   GL2  845   0.754   9.521   8.692 -0.4094 -0.0310 -0.0010
   25POPC   C1A  846   0.989   9.954   8.404 -0.1007 -0.0249  0.0224
   25POPC   D2A  847   0.957  10.380   8.375 -0.0488  0.1213 -0.0777
   25POPC   C3A  848   0.798  10.471   8.019 -0.0296  0.0807  0.3229
   25POPC   C4A  849   0.486  10.420   7.626 -0.1585  0.0079 -0.3048
   25POPC   C1B  850   0.720   9.457   8.285 -0.2430 -0.2339  0.2969
   25POPC   C2B  851   0.969   9.450   7.885  0.1780  0.2496 -0.2579
   25POPC   C3B  852   0.705   9.333   7.588  0.1730  0.0885 -0.0550
   25POPC   C4B  853   0.523   9.432   7.236  0.0238  0.0424 -0.1195
   26POPC   NC3  854   2.027   4.695   8.797 -0.0869 -0.0887  0.2989
   26POPC   PO4  855   1.879   4.258   8.892  0.0442  0.0006 -0.0226
   26POPC   GL1  856   1.704   4.204   8.474 -0.0318  0.1854 -0.0402
   26POPC   GL2  857   1.504   4.014   8.458 -0.1664  0.1828  0.2607
   26POPC   C1A  858   1.715   4.335   7.977  0.0791 -0.2087  0.3489
   26POPC   D2A  859   1.762   4.193   7.529 -0.3483  0.1155 -0.2711
   26POPC   C3A  860   1.603   3.953   7.229  0.2286 -0.1093  0.0470
   26POPC   C4A  861   1.503   3.456   7.127  0.1181  0.0004 -0.0579
   26POPC   C1B  862   1.384   3.896   8.022 -0.1200 -0.0467  0.1818
   26POPC   C2B  863   1.426   3.644   7.575 -0.2136  0.1451 -0.1201
   26POPC   C3B  864   1.578   3.228   7.565 -0.0692  0.1166  0.3205
   26POPC   C4B  865   1.457   2.820   7.622 -0.1200  0.1881  0.2953
   27POPC   NC3  866   4.002   8.590   8.750  0.0325 -0.1956 -0.1229
   27POPC   PO4  867   4.513   8.546   8.697 -0.0559  0.0254 -0.5311
   27POPC   GL1  868   4.343   8.643   8.274 -0.0742 -0.1046 -0.2403
   27POPC   GL2  869   4.011   8.700   8.260  0.1855  0.1271  0.2701
   27POPC   C1A  870   4.562   8.624   7.810 -0.1849  0.0932  0.1089
   27POPC   D2A  871   4.359   8.623   7.386 -0.3961 -0.0483  0.0966
   27POPC   C3A  872   4.459   8.359   7.068 -0.1432 -0.1144 -0.2660
   27POPC   C4A  873   4.372   8.141   6.776  0.0632 -0.3670  0.2295
   27POPC   C1B  874   4.016   8.389   7.999 -0.0274  0.3124  0.0144
   27POPC   C2B  875   4.094   8.195   7.581 -0.1858  0.1390 -0.0622
   27POPC   C3B  876   4.067   7.944   7.231 -0.0207 -0.2359 -0.1808
   27POPC   C4B  877   3.886   7.860   6.875  0.2451 -0.1304 -0.1023
   28POPC   NC3  878   4.690   6.184   8.918  0.1880 -0.0733  0.1973
   28POPC   PO4  879   4.319   6.360   8.768  0.1212  0.1399  0.0068
   28POPC   GL1  880   4.566   6.183   8.378 -0.0895  0.2007  0.0906
   28POPC   GL2  881   4.937   6.127   8.447  0.1655 -0.0159 -0.0717
   28POPC   C1A  882   4.438   6.187   7.978  0.2048  0.2470  0.2341
   28POPC   D2A  883   4.352   6.024   7.588 -0.0305  0.3133 -0.5344
   28POPC   C3A  884   4.512   5.620   7.311 -0.3545  0.2403 -0.0313
   28POPC   C4A  885   4.658   5.326   6.881 -0.0281 -0.0385 -0.0798
   28POPC   C1B  886   4.891   6.468   8.094  0.3974 -0.4817  0.2605
   28POPC   C2B  887   5.260   6.706   7.859  0.1900  0.0172 -0.0130
   28POPC   C3B  888   5.533   6.723   7.470  0.1264  0.0204  0.0469
   28POPC   C4B  889   5.912   6.742   7.518  0.0372  0.1324 -0.0031
   29POPC   NC3  890   0.247   1.228   9.212  0.2177  0.1557 -0.3421
   29POPC   PO4  891   0.423   1.164   8.828  0.3480  0.1245 -0.1847
   29POPC   GL1  892   0.389   0.856   8.431  0.1860  0.2182 -0.1930
   29POPC   GL2  893   0.622   0.673   8.438 -0.0191 -0.1783  0.0182
   29POPC   C1A  894   0.076   0.901   8.060  0.3123 -0.0778  0.0496
   29POPC   D2A  895  -0.271   0.636   7.827  0.1632 -0.2136  0.1630
   29POPC   C3A  896  -0.547   0.467   7.615 -0.3031 -0.0814  0.0092
   29POPC   C4A  897  -0.816   0.368   7.893 -0.0233 -0.0260  0.2310
   29POPC   C1B  898   0.951   0.792   8.143  0.0778  0.3195  0.0860
   29POPC   C2B  899   1.077   0.973   7.776  0.0590  0.0808 -0.0983
   29POPC   C3B  900   1.225   1.347   7.600 -0.1441 -0.0740 -0.0584
   29POPC   C4B  901   1.491   1.452   7.944  0.2451  0.1941  0.0311
   30POPC   NC3  902   0.260   5.242   9.575  0.0330 -0.2253 -0.1729
   30POPC   PO4  903   0.508   5.517   9.392 -0.0148 -0.3450  0.1053
   30POPC   GL1  904   0.404   5.411   9.023 -0.0559  0.4027  0.1369
   30POPC   GL2  905   0.580   5.605   8.846  0.1376  0.0189  0.2972
   30POPC   C1A  906   0.050   5.334   8.722 -0.4353 -0.2273 -0.4034
   30POPC   D2A  907   0.029   5.586   8.268 -0.1657 -0.1252  0.0428
   30POPC   C3A  908   0.389   5.549   7.975  0.1247 -0.2716 -0.1604
   30POPC   C4A  909   0.320   5.165   7.676  0.1326 -0.0316 -0.2909
   30POPC   C1B  910   0.573   5.854   8.505  0.3239 -0.2090 -0.1177
   30POPC   C2B  911   0.454   6.157   8.232 -0.0569  0.0116  0.0812
   30POPC   C3B  912   0.142   6.556   8.220  0.1546 -0.0310 -0.1154
   30POPC   C4B  913  -0.064   6.948   8.129 -0.0132  0.2889  0.0623
   31POPC   NC3  914   9.936   9.018   9.852 -0.3344  0.2072 -0.3443
   31POPC   PO4  915   9.750   9.242   9.532  0.1400 -0.0139 -0.2366
   31POPC   GL1  916  10.070   9.202   9.323  0.2450  0.0145  0.0758
   31POPC   GL2  917  10.123   8.955   9.389  0.1255  0.0787 -0.0696
   31POPC   C1A  918   9.990   9.133   8.896  0.0948 -0.0491  0.0368
   31POPC   D2A  919   9.757   9.154   8.430  0.2239  0.2041  0.0975
   31POPC   C3A  920  10.061   9.190   8.161 -0.0117  0.2323  0.1136
   31POPC   C4A  921  10.506   9.162   8.036 -0.1297 -0.1956 -0.0626
   31POPC   C1B  922  10.124   8.587   9.079  0.0625 -0.0790 -0.1689
   31POPC   C2B  923   9.847   8.702   8.746 -0.0935  0.1077 -0.2303
   31POPC   C3B  924   9.805   8.607   8.310 -0.1853  0.1473  0.0902
   31POPC   C4B  925   9.825   8.354   7.980 -0.0888 -0.0449 -0.1570
   32POPC   NC3  926   9.508   0.583   9.309  0.3458  0.2174  0.0678
   32POPC   PO4  927   9.294   0.647   8.980  0.2687  0.2897  0.0668
   32POPC   GL1  928   9.407   0.363   8.621  0.0428 -0.0609 -0.1670
   32POPC   GL2  929   9.135   0.434   8.490  0.0954 -0.1177 -0.2247
   32POPC   C1A  930   9.283   0.025   8.213 -0.0910 -0.2764 -0.0107
   32POPC   D2A  931   9.105  -0.217   7.925  0.2622 -0.1736 -0.2482
   32POPC   C3A  932   9.424  -0.335   7.681  0.0571  0.3745  0.0339
   32POPC   C4A  933   9.647  -0.619   7.472  0.0478 -0.0385  0.2684
   32POPC   C1B  934   9.018   0.667   8.162 -0.0274  0.1461 -0.1053
   32POPC   C2B  935   8.998   0.558   7.729  0.1792 -0.3247 -0.1659
   32POPC   C3B  936   8.849   0.260   7.495 -0.1455  0.0113  0.0098
   32POPC   C4B  937   8.845  -0.037   7.200 -0.0479  0.3304 -0.4294
   33POPC   NC3  938   5.630   1.314   8.806 -0.1229  0.3503 -0.4761
   33POPC   PO4  939   5.697   0.798   8.757  0.0064  0.0906 -0.0678
   33POPC   GL1  940   5.443   0.782   8.372  0.0377 -0.2271 -0.0408
   33POPC   GL2  941   5.484   0.510   8.222 -0.0473 -0.4437  0.2767
   33POPC   C1A  942   5.339   0.993   7.932  0.0694  0.1819  0.4176
   33POPC   D2A  943   5.685   0.798   7.690 -0.2208 -0.2265 -0.2651
   33POPC   C3A  944   5.780   0.990   7.291  0.2569  0.0475 -0.0728
   33POPC   C4A  945   6.144   1.337   7.145 -0.2904  0.3061 -0.2900
   33POPC   C1B  946   5.535   0.291   7.804  0.4987 -0.0326  0.3051
   33POPC   C2B  947   5.476   0.115   7.406  0.0803 -0.1146  0.2132
   33POPC   C3B  948   5.520  -0.150   7.074 -0.0207  0.1226  0.0065
   33POPC   C4B  949   5.659  -0.191   6.587  0.2395  0.1045 -0.0789
   34POPC   NC3  950   4.725   3.635   9.042 -0.2000 -0.1308 -0.1933
   34POPC   PO4  951   4.462   4.062   9.049 -0.0997 -0.2321  0.3075
   34POPC   GL1  952   4.514   3.829   8.632  0.0022 -0.2967 -0.2176
   34POPC   GL2  953   4.655   3.515   8.508 -0.1313 -0.3507 -0.2714
   34POPC   C1A  954   4.523   3.916   8.120 -0.0955 -0.2574 -0.4542
   34POPC   D2A  955   4.553   4.348   7.849 -0.0357 -0.0997 -0.2401
   34POPC   C3A  956   4.208   4.646   7.859 -0.0202  0.3667 -0.2175
   34POPC   C4A  957   3.899   4.865   8.154 -0.0430  0.0498  0.0149
   34POPC   C1B  958   4.895   3.611   8.177  0.3137  0.2275 -0.2959
   34POPC   C2B  959   4.978   3.442   7.747  0.0209  0.0304 -0.0220
   34POPC   C3B  960   4.720   3.486   7.400  0.1375  0.0337 -0.0039
   34POPC   C4B  961   4.819   3.393   7.030 -0.3478  0.1088 -0.0148
   35POPC   NC3  962   1.781   3.507   8.755 -0.0882  0.2416 -0.2430
   35POPC   PO4  963   1.340   3.672   8.790  0.0963 -0.2693  0.0959
   35POPC   GL1  964   1.300   3.520   8.328 -0.1367 -0.0834 -0.2604
   35POPC   GL2  965   1.618   3.526   8.319  0.0283  0.0395  0.1242
   35POPC   C1A  966   1.120   3.386   7.904  0.2282  0.2706  0.2201
   35POPC   D2A  967   1.096   3.324   7.473  0.0424 -0.0480  0.1058
   35POPC   C3A  968   0.841   2.955   7.479 -0.0211  0.1802 -0.0087
   35POPC   C4A  969   0.757   2.675   7.173  0.1382  0.1804  0.0483
   35POPC   C1B  970   1.801   3.651   7.929 -0.0880  0.1454  0.3499
   35POPC   C2B  971   2.077   3.888   7.826 -0.2791  0.0947  0.1176
   35POPC   C3B  972   2.287   4.244   8.020  0.0447  0.3679 -0.0534
   35POPC   C4B  973   2.593   4.499   8.018 -0.1093  0.0527  0.1015
   36POPC   NC3  974   0.592   4.938   9.244 -0.1167 -0.0197  0.0697
   36POPC   PO4  975   0.931   5.249   9.063 -0.2309  0.0475 -0.0750
   36POPC   GL1  976   0.873   5.321   8.555 -0.0914 -0.0520  0.0350
   36POPC   GL2  977   0.480   5.340   8.427 -0.2179 -0.1720  0.1392
   36POPC   C1A  978   0.689   5.227   7.998 -0.0291  0.3791  0.1320
   36POPC   D2A  979   0.904   5.157   7.587 -0.0812 -0.0841 -0.0492
   36POPC   C3A  980   1.036   5.317   7.173 -0.1470 -0.5159 -0.4012
   36POPC   C4A  981   1.160   5.452   6.750  0.2491  0.2638 -0.3561
   36POPC   C1B  982   0.827   5.654   8.133 -0.1002  0.1775  0.2115
   36POPC   C2B  983   0.870   6.078   7.925  0.2666  0.0803  0.2152
   36POPC   C3B  984   0.601   6.472   7.852 -0.2369 -0.2997  0.1941
   36POPC   C4B  985   0.195   6.815   7.771 -0.1942  0.5172 -0.1592
   37POPC   NC3  986   5.439   8.606   9.125 -0.0511 -0.2098 -0.1252
   37POPC   PO4  987   5.874   8.692   9.261 -0.3623 -0.1550  0.1545
   37POPC   GL1  988   6.086   8.844   8.858 -0.1064 -0.0646  0.1515
   37POPC   GL2  989   5.802   8.788   8.794  0.1563 -0.0939 -0.0582
   37POPC   C1A  990   6.297   8.829   8.577 -0.1428 -0.2157 -0.2175
   37POPC   D2A  991   6.558   8.643   8.311  0.3333  0.0216 -0.1423
   37POPC   C3A  992   6.680   8.182   8.321  0.2812  0.2321 -0.0208
   37POPC   C4A  993   6.855   7.773   8.038 -0.3979 -0.1302  0.0823
   37POPC   C1B  994   5.839   8.435   8.437 -0.1224 -0.0743 -0.0202
   37POPC   C2B  995   5.955   8.506   8.063 -0.1946 -0.0897  0.1575
   37POPC   C3B  996   6.091   8.433   7.623 -0.2935  0.1543  0.3956
   37POPC   C4B  997   6.072   8.400   7.227 -0.0112 -0.0988  0.1425
   38POPC   NC3  998   3.934   2.988   9.052 -0.0841 -0.1282 -0.0550
   38POPC   PO4  999   3.778   2.699   8.869  0.1167 -0.0706 -0.0757
   38POPC   GL1 1000   3.640   2.803   8.514  0.0624  0.3773 -0.0085
   38POPC   GL2 1001   3.344   2.849   8.539  0.1039 -0.0395  0.1409
   38POPC   C1A 1002   3.804   2.892   8.173  0.0879 -0.2530  0.0304
   38POPC   D2A 1003   3.619   2.876   7.733 -0.0454 -0.1344  0.3293
   38POPC   C3A 1004   3.978   2.666   7.512  0.0526 -0.1757  0.3745
   38POPC   C4A 1005   4.340   2.821   7.317 -0.0225  0.3559 -0.0004
   38POPC   C1B 1006   3.295   3.129   8.190  0.0939  0.2143  0.1530
   38POPC   C2B 1007   3.385   3.302   7.692  0.0159 -0.0241 -0.0980
   38POPC   C3B 1008   3.269   3.101   7.370 -0.1527  0.0095  0.0697
   38POPC   C4B 1009   3.332   3.151   6.859  0.0486 -0.4214 -0.1808
   39POPC   NC3 1010   8.496   6.633  10.813 -0.0215 -0.0805 -0.1386
   39POPC   PO4 1011   8.744   6.300  10.810 -0.3119  0.1776  0.1404
   39POPC   GL1 1012   8.605   6.398  10.358  0.0004 -0.0376  0.1264
   39POPC   GL2 1013   8.466   6.637  10.182  0.2475 -0.0320 -0.0848
   39POPC   C1A 1014   8.426   6.223   9.919 -0.1297  0.2467 -0.3182
   39POPC   D2A 1015   8.151   6.186   9.590  0.1848 -0.1526  0.1481
   39POPC   C3A 1016   8.309   6.253   9.267  0.0770 -0.1780 -0.0323
   39POPC   C4A 1017   8.635   6.511   9.044 -0.0089  0.2216 -0.1600
   39POPC   C1B 1018   8.194   6.717   9.874 -0.0298  0.1903 -0.1465
   39POPC   C2B 1019   8.170   6.681   9.493 -0.1241 -0.5341  0.1666
   39POPC   C3B 1020   8.539   6.928   9.245  0.3949 -0.0826  0.1864
   39POPC   C4B 1021   8.825   7.212   9.219 -0.1868 -0.0510 -0.0846
   40POPC   NC3 1022   2.748   9.375   8.865  0.0432  0.1001 -0.0245
   40POPC   PO4 1023   2.920   9.155   8.487  0.0317  0.2082  0.2570
   40POPC   GL1 1024   3.047   8.803   8.113  0.0046  0.0822 -0.0638
   40POPC   GL2 1025   2.799   8.632   7.981  0.0513 -0.0405  0.1600
   40POPC   C1A 1026   3.220   8.759   7.652  0.6095 -0.1020 -0.0698
   40POPC   D2A 1027   3.248   8.573   7.262 -0.0701 -0.2500 -0.1627
   40POPC   C3A 1028   3.490   8.522   6.837  0.1815  0.0598 -0.0970
   40POPC   C4A 1029   3.987   8.487   6.662 -0.0527 -0.0117  0.4395
   40POPC   C1B 1030   2.618   8.592   7.577  0.0581 -0.3255 -0.2750
   40POPC   C2B 1031   2.750   8.547   7.145 -0.4521  0.0340  0.1242
   40POPC   C3B 1032   3.019   8.563   6.874  0.1295  0.0404  0.1363
   40POPC   C4B 1033   3.142   8.436   6.407  0.1960  0.0563  0.2450
   41POPC   NC3 1034   9.729   7.851  10.137 -0.1330 -0.0404  0.2242
   41POPC   PO4 1035   9.388   8.041  10.240 -0.2169 -0.0692  0.0505
   41POPC   GL1 1036   9.594   8.252   9.880  0.1021 -0.2317  0.4133
   41POPC   GL2 1037   9.645   8.595   9.727  0.1741  0.0129  0.1171
   41POPC   C1A 1038   9.884   8.243   9.505  0.2256 -0.0586  0.1185
   41POPC   D2A 1039  10.310   8.199   9.362  0.0525 -0.3723  0.0725
   41POPC   C3A 1040  10.575   7.832   9.357 -0.1509  0.0530 -0.1699
   41POPC   C4A 1041  10.730   7.465   9.035  0.4134  0.1767  0.2317
   41POPC   C1B 1042   9.611   8.586   9.267 -0.1251  0.1868  0.2689
   41POPC   C2B 1043   9.303   8.566   8.983  0.0588  0.2986 -0.0803
   41POPC   C3B 1044   9.248   8.319   8.602 -0.0627  0.0604 -0.3140
   41POPC   C4B 1045   9.139   7.863   8.616 -0.2645  0.2858  0.1330
   42POPC   NC3 1046   3.378   8.460   9.243 -0.0193 -0.1926  0.0616
   42POPC   PO4 1047   3.530   8.528   8.873 -0.2069  0.0353 -0.0939
   42POPC   GL1 1048   3.629   8.358   8.468 -0.2197 -0.0617 -0.2668
   42POPC   GL2 1049   3.513   8.501   8.097  0.0859 -0.1008 -0.0165
   42POPC   C1A 1050   3.605   8.042   8.177 -0.3493  0.1538  0.2762
   42POPC   D2A 1051   3.167   7.771   8.079 -0.1086  0.0912  0.2335
   42POPC   C3A 1052   3.107   7.773   7.663  0.0765 -0.1430  0.1145
   42POPC   C4A 1053   3.311   7.740   7.276 -0.0502  0.2094 -0.1409
   42POPC   C1B 1054   3.688   8.518   7.609 -0.1320  0.0020  0.0959
   42POPC   C2B 1055   3.810   8.631   7.178 -0.0779  0.2462 -0.2614
   42POPC   C3B 1056   4.062   8.898   7.018  0.2215  0.1765  0.0538
   42POPC   C4B 1057   4.360   9.258   6.945  0.0505  0.2520  0.1618
   43POPC   NC3 1058   2.693   1.933   9.338 -0.0684 -0.2545  0.3849
   43POPC   PO4 1059   2.312   1.942   9.006 -0.0437 -0.1971 -0.2795
   43POPC   GL1 1060   2.271   2.104   8.528  0.3158  0.3090  0.0490
   43POPC   GL2 1061   2.121   2.165   8.288  0.0717  0.0212 -0.0947
   43POPC   C1A 1062   2.405   1.749   8.231  0.2391  0.4089 -0.1166
   43POPC   D2A 1063   2.701   1.417   8.256  0.0011  0.2109 -0.8569
   43POPC   C3A 1064   3.178   1.425   8.132 -0.2342 -0.1147 -0.1157
   43POPC   C4A 1065   3.438   1.632   7.842 -0.1139 -0.1439  0.0734
   43POPC   C1B 1066   2.123   1.963   7.834 -0.0910  0.4883  0.1084
   43POPC   C2B 1067   1.967   2.029   7.370 -0.1005  0.2723  0.0553
   43POPC   C3B 1068   2.119   2.371   7.093 -0.0144  0.0456 -0.3432
   43POPC   C4B 1069   2.062   2.471   6.657  0.0137 -0.2591 -0.0993
   44POPC   NC3 1070   2.565   1.145   8.837  0.0020  0.0522 -0.0296
   44POPC   PO4 1071   2.643   0.943   8.442 -0.0900  0.0673  0.0828
   44POPC   GL1 1072   2.720   0.749   8.069 -0.3751  0.2919  0.0099
   44POPC   GL2 1073   2.491   1.031   7.967  0.0180  0.2416  0.0688
   44POPC   C1A 1074   2.964   0.727   7.645  0.1970  0.1801  0.0420
   44POPC   D2A 1075   3.363   0.884   7.462  0.2165 -0.1421  0.3238
   44POPC   C3A 1076   3.478   0.996   7.069  0.5006  0.0425 -0.3237
   44POPC   C4A 1077   3.660   0.777   6.700  0.0241 -0.1518 -0.1032
   44POPC   C1B 1078   2.520   1.497   7.783  0.2060  0.0490  0.0475
   44POPC   C2B 1079   2.416   1.828   7.509 -0.0705  0.0079 -0.0285
   44POPC   C3B 1080   2.544   2.080   7.267  0.0061  0.1066  0.0757
   44POPC   C4B 1081   2.710   2.397   7.024 -0.0599 -0.0512  0.0015
   45POPC   NC3 1082   1.173   7.246   9.186  0.1777 -0.0994  0.0139
   45POPC   PO4 1083   1.405   7.730   9.293 -0.1109 -0.0566  0.2737
   45POPC   GL1 1084   1.199   7.678   8.866  0.2683  0.0447 -0.1541
   45POPC   GL2 1085   0.968   7.840   9.057  0.0838  0.2515 -0.1082
   45POPC   C1A 1086   0.790   7.561   8.638 -0.2230 -0.2668  0.1438
   45POPC   D2A 1087   0.751   7.522   8.143  0.0138 -0.1707 -0.2016
   45POPC   C3A 1088   0.572   7.958   7.968  0.0623 -0.1747  0.0923
   45POPC   C4A 1089   0.277   8.123   7.724 -0.1882  0.1140  0.0258
   45POPC   C1B 1090   0.611   8.041   8.857  0.0391  0.0970 -0.5546
   45POPC   C2B 1091   0.186   7.969   8.927  0.1115  0.2379  0.1910
   45POPC   C3B 1092  -0.168   7.741   8.662  0.2531 -0.0030  0.0555
   45POPC   C4B 1093  -0.532   7.534   8.712 -0.0687 -0.1322 -0.1411
   46POPC   NC3 1094   8.023   5.836  10.624 -0.0572  0.1623 -0.3414
   46POPC   PO4 1095   8.180   6.321  10.568  0.3785  0.1150 -0.1259
   46POPC   GL1 1096   8.000   6.412  10.207 -0.1891  0.0264  0.0526
   46POPC   GL2 1097   7.921   6.130  10.053 -0.2918 -0.1624 -0.2184
   46POPC   C1A 1098   7.739   6.539   9.818 -0.0123  0.2183  0.2857
   46POPC   D2A 1099   7.646   6.472   9.411 -0.2019 -0.0072  0.1517
   46POPC   C3A 1100   7.956   6.477   9.046  0.1045  0.2282 -0.0353
   46POPC   C4A 1101   8.219   6.419   8.783 -0.4774 -0.5975 -0.1680
   46POPC   C1B 1102   7.611   6.053   9.798 -0.0275  0.1256 -0.3594
   46POPC   C2B 1103   7.459   5.749   9.465 -0.0467  0.0798  0.0505
   46POPC   C3B 1104   7.401   5.596   9.063 -0.2522  0.1782  0.0344
   46POPC   C4B 1105   7.493   5.308   8.736 -0.0166 -0.0501 -0.0397
   47POPC   NC3 1106   8.396   3.138   9.765 -0.1377 -0.2630  0.1911
   47POPC   PO4 1107   8.720   3.064   9.460 -0.2751 -0.2117  0.0655
   47POPC   GL1 1108   8.744   3.197   8.994 -0.0620 -0.2138 -0.0991
   47POPC   GL2 1109   8.731   2.835   8.971  0.2073  0.1776  0.1000
   47POPC   C1A 1110   9.052   3.244   8.665 -0.0601  0.2712  0.0484
   47POPC   D2A 1111   9.234   3.452   8.504  0.1172 -0.0344  0.1010
   47POPC   C3A 1112   9.238   3.487   8.044  0.0694 -0.1073  0.2635
   47POPC   C4A 1113   9.123   3.230   7.650 -0.0375  0.3334  0.1075
   47POPC   C1B 1114   8.679   3.010   8.437 -0.1347 -0.3509 -0.1534
   47POPC   C2B 1115   8.373   3.073   8.112 -0.1934 -0.1053  0.0377
   47POPC   C3B 1116   8.229   3.449   8.229 -0.2015 -0.2145 -0.1943
   47POPC   C4B 1117   8.207   3.798   8.568  0.2022  0.1967 -0.0070
   48POPC   NC3 1118  10.014   4.252   9.391 -0.0541  0.0842  0.0316
   48POPC   PO4 1119   9.627   4.333   9.387  0.0442 -0.0858  0.5012
   48POPC   GL1 1120   9.692   4.398   9.026 -0.2595  0.0455  0.3054
   48POPC   GL2 1121   9.564   4.643   8.871 -0.2714  0.0895  0.4040
   48POPC   C1A 1122  10.069   4.577   8.745  0.0327 -0.2858 -0.0085
   48POPC   D2A 1123  10.336   4.471   8.341  0.2093  0.2107 -0.1596
   48POPC   C3A 1124  10.338   4.628   7.944  0.0091  0.1546  0.2505
   48POPC   C4A 1125  10.579   4.660   7.506 -0.2037  0.2240  0.1015
   48POPC   C1B 1126   9.291   4.314   8.701 -0.2037  0.1099 -0.1219
   48POPC   C2B 1127   9.248   3.932   8.432 -0.2215  0.0454 -0.3373
   48POPC   C3B 1128   8.889   3.863   8.103 -0.3330 -0.0695  0.1467
   48POPC   C4B 1129   8.828   3.790   7.722 -0.2606  0.0327 -0.0008
   49POPC   NC3 1130   2.164   2.702   9.377 -0.0371  0.0199 -0.0239
   49POPC   PO4 1131   2.512   2.414   9.130 -0.0357  0.0812 -0.2438
   49POPC   GL1 1132   2.658   2.459   8.703 -0.2468 -0.5541  0.0586
   49POPC   GL2 1133   2.893   2.628   8.489 -0.1483  0.2947 -0.2002
   49POPC   C1A 1134   2.718   2.108   8.416  0.1018  0.0484  0.2106
   49POPC   D2A 1135   2.885   1.828   7.987 -0.1864 -0.0066 -0.1645
   49POPC   C3A 1136   2.954   1.621   7.572  0.0601 -0.0420 -0.0225
   49POPC   C4A 1137   3.110   1.294   7.282 -0.0458  0.0313  0.2965
   49POPC   C1B 1138   2.840   2.736   8.096 -0.2743  0.0227  0.0607
   49POPC   C2B 1139   2.920   3.081   7.915  0.2510  0.1378 -0.1266
   49POPC   C3B 1140   2.816   3.096   7.461  0.0568 -0.3535 -0.0238
   49POPC   C4B 1141   2.862   2.839   7.099 -0.0262 -0.1257  0.1684
   50POPC   NC3 1142   6.948   7.875  10.092  0.2212  0.3981  0.0952
   50POPC   PO4 1143   6.989   7.473   9.979  0.1981 -0.0332  0.0754
   50POPC   GL1 1144   7.181   7.225   9.629 -0.1231 -0.1435 -0.1350
   50POPC   GL2 1145   7.406   7.016   9.826  0.0516  0.0855 -0.0168
   50POPC   C1A 1146   7.135   6.924   9.291  0.2305 -0.1430 -0.0693
   50POPC   D2A 1147   6.951   6.479   9.231 -0.4040 -0.2164 -0.0612
   50POPC   C3A 1148   7.139   6.307   9.554 -0.1338 -0.0240 -0.4391
   50POPC   C4A 1149   7.112   5.885   9.774 -0.3280 -0.2352 -0.1766
   50POPC   C1B 1150   7.638   6.934   9.503 -0.1783 -0.3256 -0.0899
   50POPC   C2B 1151   7.574   6.860   9.066  0.5007 -0.2590 -0.2033
   50POPC   C3B 1152   7.389   6.514   8.970  0.2374 -0.1026  0.1711
   50POPC   C4B 1153   7.185   6.368   8.620  0.0352 -0.1345 -0.2562
   51POPC   NC3 1154   4.117   1.043   8.939  0.0670 -0.0293 -0.0467
   51POPC   PO4 1155   3.733   1.146   8.745 -0.1204 -0.2355 -0.2285
   51POPC   GL1 1156   3.983   1.001   8.436  0.0173  0.2226  0.3996
   51POPC   GL2 1157   4.350   1.113   8.451  0.0804 -0.1118  0.0920
   51POPC   C1A 1158   3.952   0.859   8.014 -0.1811  0.1224 -0.1283
   51POPC   D2A 1159   3.837   0.966   7.653  0.1887 -0.1663 -0.1794
   51POPC   C3A 1160   3.622   1.322   7.466  0.0318  0.2749 -0.0063
   51POPC   C4A 1161   3.504   1.698   7.360  0.1554 -0.0907  0.0459
   51POPC   C1B 1162   4.455   1.093   8.020  0.3751 -0.1758 -0.0039
   51POPC   C2B 1163   4.325   1.187   7.580  0.0266  0.3775  0.2757
   51POPC   C3B 1164   4.662   1.124   7.346 -0.0972  0.2526  0.1849
   51POPC   C4B 1165   4.897   0.766   7.056  0.1201  0.1777 -0.0045
   52POPC   NC3 1166   2.490   2.910   8.752  0.3541 -0.1209  0.0888
   52POPC   PO4 1167   2.121   3.125   8.926 -0.0045 -0.2420 -0.3332
   52POPC   GL1 1168   2.015   2.914   8.518 -0.2501  0.0551  0.0622
   52POPC   GL2 1169   2.248   2.657   8.413 -0.0050 -0.2459  0.0780
   52POPC   C1A 1170   1.815   2.581   8.197 -0.0625 -0.0126 -0.0094
   52POPC   D2A 1171   1.670   2.152   7.986  0.1158 -0.0508 -0.1910
   52POPC   C3A 1172   1.596   2.278   7.537 -0.3154 -0.1449 -0.4816
   52POPC   C4A 1173   1.212   2.456   7.312  0.1373  0.3558 -0.0045
   52POPC   C1B 1174   2.403   2.501   8.048 -0.0850 -0.2099 -0.0820
   52POPC   C2B 1175   2.824   2.294   7.897 -0.1369 -0.3877  0.0426
   52POPC   C3B 1176   3.057   2.177   7.491 -0.1427  0.0976  0.3408
   52POPC   C4B 1177   3.237   2.266   7.191  0.3380  0.1177 -0.0103
   53POPC   NC3 1178   3.715   1.409   9.681  0.3993  0.0594  0.2817
   53POPC   PO4 1179   3.909   1.361   9.246  0.0362  0.1363 -0.1980
   53POPC   GL1 1180   4.063   1.543   8.844 -0.4206 -0.2403  0.1983
   53POPC   GL2 1181   3.976   1.781   8.885  0.1094  0.2012 -0.2081
   53POPC   C1A 1182   4.154   1.526   8.470  0.3710  0.3148 -0.1659
   53POPC   D2A 1183   4.333   1.615   8.043 -0.0485  0.0869 -0.0892
   53POPC   C3A 1184   4.383   1.901   7.690  0.1563  0.1284  0.0593
   53POPC   C4A 1185   4.359   2.323   7.443  0.0063  0.0144 -0.0874
   53POPC   C1B 1186   4.222   2.043   8.614 -0.1004  0.1581 -0.0683
   53POPC   C2B 1187   4.276   2.111   8.215  0.0171  0.1492 -0.1582
   53POPC   C3B 1188   4.148   2.442   7.923 -0.0914  0.1000  0.0826
   53POPC   C4B 1189   4.211   2.849   7.901  0.1327  0.0721  0.2468
   54POPC   NC3 1190   1.312   1.164   9.389  0.1456  0.0899 -0.1562
   54POPC   PO4 1191   1.218   0.815   9.085 -0.0176  0.2725  0.3382
   54POPC   GL1 1192   1.461   0.974   8.626 -0.0508 -0.0620 -0.3681
   54POPC   GL2 1193   1.200   1.106   8.503  0.0840  0.0431  0.1112
   54POPC   C1A 1194   1.615   0.932   8.160  0.0430  0.0936 -0.3818
   54POPC   D2A 1195   1.710   0.971   7.814 -0.0553  0.0240 -0.3142
   54POPC   C3A 1196   1.403   0.869   7.410 -0.0479  0.1550 -0.1714
   54POPC   C4A 1197   1.169   1.162   7.151  0.0555  0.2021  0.0079
   54POPC   C1B 1198   1.090   1.354   8.159  0.1495  0.0999 -0.0518
   54POPC   C2B 1199   0.831   1.366   7.891  0.1710 -0.1541 -0.0581
   54POPC   C3B 1200   0.564   1.067   7.944 -0.0205  0.0158  0.2625
   54POPC   C4B 1201   0.484   0.660   7.872 -0.0346  0.1765  0.0749
   55POPC   NC3 1202   6.152   7.326   9.816  0.2257 -0.2049 -0.1035
   55POPC   PO4 1203   5.875   7.472   9.546  0.1224  0.0303 -0.0492
   55POPC   GL1 1204   5.969   7.290   9.092 -0.0316 -0.2926 -0.5493
   55POPC   GL2 1205   5.668   7.314   8.830 -0.1120 -0.2784  0.1617
   55POPC   C1A 1206   6.054   7.543   8.821 -0.1200 -0.0420 -0.2179
   55POPC   D2A 1207   6.336   7.801   8.588  0.0892  0.1010  0.3082
   55POPC   C3A 1208   6.424   7.664   8.277 -0.2172  0.0204  0.0592
   55POPC   C4A 1209   6.360   7.458   7.823 -0.1788  0.0618 -0.2619
   55POPC   C1B 1210   5.859   7.488   8.403  0.1426  0.0404  0.0220
   55POPC   C2B 1211   5.962   7.564   8.063 -0.2414  0.1233  0.5037
   55POPC   C3B 1212   5.906   7.397   7.587  0.3044 -0.0157 -0.3308
   55POPC   C4B 1213   5.648   7.206   7.338  0.3144  0.1351  0.0531
   56POPC   NC3 1214   3.544   2.202   9.052  0.0932  0.0846 -0.0042
   56POPC   PO4 1215   3.250   2.516   8.957 -0.0208 -0.2277  0.0293
   56POPC   GL1 1216   3.320   2.371   8.609 -0.1133  0.0253 -0.0834
   56POPC   GL2 1217   3.684   2.203   8.469  0.0605  0.3326 -0.0752
   56POPC   C1A 1218   3.180   2.181   8.296 -0.1144 -0.0197 -0.1203
   56POPC   D2A 1219   3.303   2.166   7.914 -0.0344  0.0043 -0.0078
   56POPC   C3A 1220   3.490   2.414   7.619 -0.0670 -0.0738 -0.0181
   56POPC   C4A 1221   3.437   2.681   7.264 -0.0345  0.1786 -0.0234
   56POPC   C1B 1222   3.627   2.456   8.155 -0.1625 -0.1855  0.0124
   56POPC   C2B 1223   3.306   2.627   8.050  0.0583 -0.5614 -0.1948
   56POPC   C3B 1224   3.089   2.674   7.675 -0.2650  0.0422  0.1175
   56POPC   C4B 1225   2.671   2.520   7.485 -0.0511 -0.0680  0.1344
   57POPC   NC3 1226   8.455   1.813   9.358  0.1009  0.0563 -0.0936
   57POPC   PO4 1227   8.577   1.269   9.407 -0.0118  0.0990  0.4299
   57POPC   GL1 1228   8.596   1.268   9.014 -0.1287 -0.2067  0.0542
   57POPC   GL2 1229   8.572   1.603   8.972  0.1752 -0.1629 -0.2021
   57POPC   C1A 1230   8.407   1.383   8.561  0.3338  0.1388  0.1118
   57POPC   D2A 1231   8.202   1.565   8.208 -0.0519 -0.3565 -0.0297
   57POPC   C3A 1232   8.354   1.854   8.004  0.1296 -0.2076 -0.0165
   57POPC   C4A 1233   8.504   1.807   7.541  0.1487  0.3635 -0.4766
   57POPC   C1B 1234   8.622   1.883   8.603 -0.0342 -0.1208  0.1473
   57POPC   C2B 1235   8.819   2.062   8.209  0.0488  0.0080 -0.0412
   57POPC   C3B 1236   8.644   2.305   7.884 -0.1401  0.0186  0.0164
   57POPC   C4B 1237   8.633   2.301   7.495 -0.1218 -0.0261 -0.0778
   58POPC   NC3 1238   8.696   3.677  10.135  0.2026  0.1990 -0.1294
   58POPC   PO4 1239   8.637   3.677   9.659 -0.1450  0.2098  0.1948
   58POPC   GL1 1240   8.756   3.740   9.243 -0.1692 -0.1566 -0.0099
   58POPC   GL2 1241   8.502   3.729   8.944  0.1750 -0.1090 -0.0868
   58POPC   C1A 1242   8.977   3.942   8.840 -0.0144  0.1147  0.1546
   58POPC   D2A 1243   8.786   4.101   8.478  0.0673 -0.2051  0.0260
   58POPC   C3A 1244   9.043   4.356   8.293  0.2987  0.0936 -0.0204
   58POPC   C4A 1245   9.340   4.711   8.395 -0.2318  0.1685  0.2741
   58POPC   C1B 1246   8.627   3.479   8.577 -0.0592  0.0042  0.0545
   58POPC   C2B 1247   8.787   3.352   8.100  0.2165  0.1145 -0.0036
   58POPC   C3B 1248   8.643   3.316   7.672 -0.0340  0.0203  0.1801
   58POPC   C4B 1249   8.723   3.225   7.210 -0.0343 -0.4978 -0.0719
   59POPC   NC3 1250   8.813   8.347  10.382  0.1183  0.0703  0.0181
   59POPC   PO4 1251   8.431   8.577  10.194  0.2023  0.0809 -0.5160
   59POPC   GL1 1252   8.551   8.413   9.809  0.1603 -0.4424  0.0917
   59POPC   GL2 1253   8.872   8.637   9.639  0.3217  0.0038 -0.1212
   59POPC   C1A 1254   8.571   7.956   9.539  0.2974 -0.0552 -0.1335
   59POPC   D2A 1255   8.362   7.599   9.390  0.2685  0.1072 -0.0271
   59POPC   C3A 1256   8.339   7.369   9.069 -0.1531 -0.0529 -0.0033
   59POPC   C4A 1257   8.079   7.043   8.906  0.3331 -0.3327 -0.2768
   59POPC   C1B 1258   8.955   8.327   9.342  0.1262  0.3207 -0.1881
   59POPC   C2B 1259   8.904   8.317   8.891  0.0397 -0.0824 -0.1341
   59POPC   C3B 1260   8.728   8.122   8.497 -0.0651  0.0394  0.0017
   59POPC   C4B 1261   8.462   8.136   8.106  0.3584  0.1278  0.2496
   60POPC   NC3 1262   7.623   0.515   9.357 -0.1272 -0.0679 -0.0039
   60POPC   PO4 1263   7.320   0.343   9.198  0.0866  0.1784  0.1995
   60POPC   GL1 1264   7.344   0.423   8.725  0.3187 -0.0032  0.2291
   60POPC   GL2 1265   7.530   0.635   8.815  0.0994 -0.0874 -0.4595
   60POPC   C1A 1266   7.396   0.458   8.291  0.3509 -0.0006  0.0252
   60POPC   D2A 1267   7.487   0.410   7.897 -0.1003 -0.0335 -0.2723
   60POPC   C3A 1268   7.809   0.292   7.573 -0.1162 -0.3886  0.1167
   60POPC   C4A 1269   7.791  -0.082   7.205 -0.7108 -0.1547  0.0009
   60POPC   C1B 1270   7.673   1.018   8.697  0.1381 -0.1690 -0.0739
   60POPC   C2B 1271   7.764   1.269   8.247  0.0698  0.0676 -0.2244
   60POPC   C3B 1272   7.860   1.383   7.893 -0.0066 -0.3680 -0.2206
   60POPC   C4B 1273   7.517   1.595   7.634  0.0657  0.0585 -0.0189
   61POPC   NC3 1274   2.638   8.713   8.838  0.1790  0.2375 -0.1650
   61POPC   PO4 1275   2.374   9.043   8.623 -0.3011 -0.2499 -0.0636
   61POPC   GL1 1276   2.426   8.840   8.320  0.1364 -0.1336 -0.1959
   61POPC   GL2 1277   2.529   9.073   8.116  0.3009  0.2229 -0.0216
   61POPC   C1A 1278   2.292   8.432   7.971  0.1098 -0.1857 -0.1950
   61POPC   D2A 1279   2.160   8.248   7.637 -0.2161  0.0848  0.1771
   61POPC   C3A 1280   2.162   8.655   7.314  0.0855  0.2186  0.1113
   61POPC   C4A 1281   2.276   8.654   6.815 -0.2090 -0.1682 -0.5576
   61POPC   C1B 1282   2.158   9.285   8.041 -0.1029 -0.0574 -0.2754
   61POPC   C2B 1283   1.827   9.514   7.746 -0.4069 -0.0125  0.0399
   61POPC   C3B 1284   1.592   9.506   7.387  0.0081  0.0457 -0.3219
   61POPC   C4B 1285   1.367   9.678   7.068  0.3553 -0.3333  0.3585
   62POPC   NC3 1286   2.997   8.163   9.496 -0.0612  0.4395 -0.1027
   62POPC   PO4 1287   2.779   7.812   9.093  0.1099  0.0543 -0.0157
   62POPC   GL1 1288   2.894   7.914   8.615 -0.0016 -0.0332  0.1208
   62POPC   GL2 1289   2.679   7.800   8.255 -0.2452  0.2526  0.0747
   62POPC   C1A 1290   3.091   8.221   8.303 -0.2464 -0.2208  0.0828
   62POPC   D2A 1291   3.152   8.240   7.940 -0.1178 -0.0280  0.0164
   62POPC   C3A 1292   3.545   8.041   7.685 -0.2985 -0.3626 -0.1527
   62POPC   C4A 1293   3.594   8.167   7.301 -0.3812 -0.2170 -0.0020
   62POPC   C1B 1294   2.644   8.071   7.844 -0.0434  0.5079  0.1702
   62POPC   C2B 1295   2.808   8.129   7.484 -0.0583  0.1515  0.0025
   62POPC   C3B 1296   3.019   8.122   7.152  0.0937  0.0212  0.0252
   62POPC   C4B 1297   3.210   8.091   6.825  0.1220 -0.1987  0.3667
   63POPC   NC3 1298   9.500   9.697   9.481 -0.4557 -0.5223 -0.1419
   63POPC   PO4 1299   9.238   9.842   9.190 -0.0920 -0.0436  0.0429
   63POPC   GL1 1300   9.073   9.867   8.763  0.1277 -0.0166 -0.1354
   63POPC   GL2 1301   9.343   9.975   8.606 -0.2635  0.0214 -0.0564
   63POPC   C1A 1302   9.000   9.710   8.365  0.0404 -0.1624 -0.1297
   63POPC   D2A 1303   8.848   9.564   7.962 -0.0989  0.0118 -0.1044
   63POPC   C3A 1304   8.394   9.433   7.836 -0.2031  0.1116  0.1800
   63POPC   C4A 1305   7.912   9.400   7.806  0.2085  0.1160  0.4344
   63POPC   C1B 1306   9.491   9.696   8.158  0.1193 -0.2546  0.3146
   63POPC   C2B 1307   9.682   9.287   7.918  0.1037  0.1716 -0.2723
   63POPC   C3B 1308   9.813   8.977   7.689 -0.3525  0.3019 -0.1431
   63POPC   C4B 1309   9.711   8.645   7.442  0.1048  0.0136 -0.0985
   64POPC   NC3 1310   7.947   0.044   9.568 -0.2108 -0.5211  0.1037
   64POPC   PO4 1311   8.091   0.431   9.335  0.1182 -0.1178 -0.2922
   64POPC   GL1 1312   7.972   0.115   9.048  0.1298 -0.1458 -0.1022
   64POPC   GL2 1313   7.671   0.087   8.979 -0.0080 -0.2290 -0.0686
   64POPC   C1A 1314   8.157  -0.277   8.898 -0.1263 -0.1915  0.1507
   64POPC   D2A 1315   8.579  -0.259   8.725 -0.0232  0.4731  0.0429
   64POPC   C3A 1316   8.804  -0.029   8.457 -0.2010  0.1944 -0.1895
   64POPC   C4A 1317   8.864   0.178   8.119 -0.0828 -0.0376 -0.0939
   64POPC   C1B 1318   7.858   0.272   8.594  0.0657 -0.0890 -0.1033
   64POPC   C2B 1319   7.838   0.645   8.417  0.3243 -0.3701  0.1486
   64POPC   C3B 1320   7.613   0.881   8.008 -0.1858 -0.1522 -0.0149
   64POPC   C4B 1321   7.791   0.991   7.581  0.0012  0.1475 -0.3301
   65POPC   NC3 1322   3.862   3.658   9.495  0.1102  0.3749 -0.2640
   65POPC   PO4 1323   3.784   3.438   9.072 -0.0186 -0.3868  0.1726
   65POPC   GL1 1324   3.784   3.732   8.552 -0.0981 -0.0877 -0.2016
   65POPC   GL2 1325   3.688   4.090   8.584  0.2772  0.2550  0.0144
   65POPC   C1A 1326   4.039   3.740   8.288  0.2937 -0.2374 -0.0452
   65POPC   D2A 1327   4.084   3.696   7.866  0.0767 -0.4586 -0.3342
   65POPC   C3A 1328   4.456   3.776   7.667 -0.2136  0.0731  0.2497
   65POPC   C4A 1329   4.798   3.976   7.570 -0.0741  0.1506 -0.0681
   65POPC   C1B 1330   3.514   3.971   8.092 -0.1530 -0.3490 -0.0940
   65POPC   C2B 1331   3.605   3.734   7.720 -0.0977  0.1031  0.0212
   65POPC   C3B 1332   3.398   3.679   7.371 -0.0267 -0.0605 -0.0333
   65POPC   C4B 1333   3.624   3.573   6.971 -0.0162  0.1419 -0.1291
   66POPC   NC3 1334   7.989   1.378   9.571  0.2071  0.1168 -0.3094
   66POPC   PO4 1335   8.061   1.609   9.219 -0.2786  0.1754  0.0785
   66POPC   GL1 1336   8.166   1.801   8.894 -0.1309  0.1937 -0.0570
   66POPC   GL2 1337   7.919   1.605   8.712  0.0699 -0.0240  0.1646
   66POPC   C1A 1338   8.127   1.994   8.513 -0.1068 -0.5126 -0.4430
   66POPC   D2A 1339   7.973   2.292   8.227 -0.3960  0.1224  0.2254
   66POPC   C3A 1340   8.132   2.671   7.986  0.1616  0.0918  0.1728
   66POPC   C4A 1341   8.329   2.861   7.659  0.0987  0.0137  0.1623
   66POPC   C1B 1342   7.704   1.792   8.341  0.2480  0.1524 -0.4189
   66POPC   C2B 1343   7.760   1.905   7.933 -0.3140 -0.2635  0.0037
   66POPC   C3B 1344   7.783   2.310   7.768 -0.1064 -0.4144 -0.1374
   66POPC   C4B 1345   8.140   2.283   7.405 -0.0705  0.0469  0.0801
   67POPC   NC3 1346   6.814   3.001   9.364 -0.0818  0.4678  0.2300
   67POPC   PO4 1347   6.470   2.784   9.262 -0.0046 -0.0425 -0.1766
   67POPC   GL1 1348   6.341   2.983   8.885  0.0507 -0.1877  0.1495
   67POPC   GL2 1349   6.321   3.353   9.004  0.0437  0.2105  0.1952
   67POPC   C1A 1350   6.211   2.971   8.465 -0.0230  0.2638 -0.0072
   67POPC   D2A 1351   6.150   2.742   8.032 -0.0737  0.3327 -0.2607
   67POPC   C3A 1352   5.991   2.493   7.896  0.1001  0.0148  0.2496
   67POPC   C4A 1353   5.689   2.441   7.645 -0.4278  0.1215 -0.1428
   67POPC   C1B 1354   6.430   3.407   8.485  0.3259 -0.0504  0.2056
   67POPC   C2B 1355   6.623   3.513   7.995  0.0116 -0.0268  0.5174
   67POPC   C3B 1356   6.639   3.677   7.563 -0.0096 -0.1082 -0.2715
   67POPC   C4B 1357   6.574   3.719   7.169 -0.1245 -0.0345 -0.0546
   68POPC   NC3 1358   4.980   0.893   9.330  0.2200 -0.1075 -0.1944
   68POPC   PO4 1359   5.013   1.224   9.073  0.0672  0.1910  0.3511
   68POPC   GL1 1360   4.828   1.171   8.534  0.0160  0.3537  0.1189
   68POPC   GL2 1361   4.918   0.981   8.271 -0.0449  0.1262  0.1890
   68POPC   C1A 1362   4.703   1.467   8.322 -0.0789  0.0390  0.3474
   68POPC   D2A 1363   4.978   1.421   7.884  0.2469 -0.2604  0.0106
   68POPC   C3A 1364   4.686   1.567   7.569  0.1470  0.3565  0.0688
   68POPC   C4A 1365   4.468   1.702   7.135 -0.2559  0.1138 -0.0789
   68POPC   C1B 1366   4.884   0.952   7.817 -0.1478 -0.0733  0.0504
   68POPC   C2B 1367   5.213   1.112   7.397 -0.1681  0.0509 -0.2922
   68POPC   C3B 1368   5.341   1.269   7.011  0.3766  0.1240  0.1174
   68POPC   C4B 1369   5.410   1.331   6.556  0.2816  0.1543 -0.0189
   69POPC   NC3 1370   1.936   5.795   8.980 -0.1984  0.1285 -0.0983
   69POPC   PO4 1371   2.048   5.383   8.890 -0.0804  0.1496  0.0692
   69POPC   GL1 1372   2.008   5.630   8.496  0.2500  0.0494 -0.1518
   69POPC   GL2 1373   2.112   5.399   8.265 -0.0623 -0.0728  0.0665
   69POPC   C1A 1374   2.214   5.797   7.956 -0.0853 -0.0549 -0.2059
   69POPC   D2A 1375   2.265   6.065   7.629 -0.4812 -0.0429  0.3115
   69POPC   C3A 1376   1.829   6.309   7.497  0.4288  0.1713  0.1445
   69POPC   C4A 1377   1.508   6.489   7.378  0.3164  0.1416 -0.0254
   69POPC   C1B 1378   2.211   5.356   7.761 -0.1174  0.0634 -0.2838
   69POPC   C2B 1379   1.986   5.067   7.441  0.0908 -0.1014  0.0393
   69POPC   C3B 1380   1.816   5.045   7.091 -0.2120 -0.2918 -0.2281
   69POPC   C4B 1381   1.846   4.722   6.820 -0.0002 -0.1864 -0.2883
   70POPC   NC3 1382   1.698   8.633   8.941  0.1825 -0.0099  0.1506
   70POPC   PO4 1383   1.405   8.760   8.723  0.0800  0.1311  0.0651
   70POPC   GL1 1384   1.403   9.040   8.548  0.1412 -0.0072  0.0543
   70POPC   GL2 1385   1.665   9.329   8.535 -0.2830 -0.1989  0.1321
   70POPC   C1A 1386   1.205   9.286   8.297 -0.1510 -0.0779 -0.1811
   70POPC   D2A 1387   1.353   9.688   8.184 -0.1998  0.1176  0.0915
   70POPC   C3A 1388   1.307   9.842   7.822 -0.0168 -0.2540 -0.3295
   70POPC   C4A 1389   1.580   9.963   7.573  0.1552  0.0738  0.4447
   70POPC   C1B 1390   1.650   9.238   8.115 -0.1705 -0.1641 -0.3054
   70POPC   C2B 1391   1.368   9.251   7.796 -0.2006 -0.1535  0.2598
   70POPC   C3B 1392   1.160   9.254   7.412  0.1427 -0.0895 -0.1549
   70POPC   C4B 1393   0.964   9.402   6.983  0.0370 -0.2209 -0.3508
   71POPC   NC3 1394   3.148   7.507   8.959 -0.2574 -0.0873 -0.0116
   71POPC   PO4 1395   2.937   7.389   8.636  0.0885 -0.1536  0.1795
   71POPC   GL1 1396   2.968   7.321   8.279  0.0251 -0.2222  0.2981
   71POPC   GL2 1397   2.643   7.137   8.232 -0.2629 -0.0192 -0.0135
   71POPC   C1A 1398   2.997   7.340   7.913  0.2641 -0.2619  0.1242
   71POPC   D2A 1399   2.704   7.517   7.702 -0.2630  0.5399  0.0445
   71POPC   C3A 1400   2.798   7.595   7.269  0.0465  0.1685 -0.0719
   71POPC   C4A 1401   2.607   7.793   6.931  0.0525  0.0736  0.2008
   71POPC   C1B 1402   2.229   7.118   7.992  0.0325  0.1344 -0.0225
   71POPC   C2B 1403   2.213   7.523   7.738 -0.3829 -0.0498  0.0645
   71POPC   C3B 1404   2.333   7.796   7.460  0.1835 -0.0087 -0.0190
   71POPC   C4B 1405   2.390   8.171   7.180 -0.0752  0.2065  0.0249
   72POPC   NC3 1406   3.269   4.517   9.313 -0.2198 -0.1753 -0.1782
   72POPC   PO4 1407   3.323   4.234   8.963 -0.0774 -0.3196 -0.2193
   72POPC   GL1 1408   3.295   4.511   8.491  0.1368  0.4539  0.1641
   72POPC   GL2 1409   3.058   4.606   8.216 -0.0627 -0.0216 -0.2878
   72POPC   C1A 1410   3.573   4.455   8.129  0.0466  0.0511  0.2872
   72POPC   D2A 1411   3.740   4.419   7.702  0.1347 -0.1593  0.0069
   72POPC   C3A 1412   4.028   4.746   7.434  0.1308 -0.2270 -0.3007
   72POPC   C4A 1413   4.071   5.109   7.161  0.3720  0.2969  0.2043
   72POPC   C1B 1414   2.826   4.953   7.924 -0.1562 -0.1796 -0.1254
   72POPC   C2B 1415   2.667   5.160   7.524  0.3251  0.0263  0.1527
   72POPC   C3B 1416   2.365   5.206   7.244  0.2841  0.0037  0.2196
   72POPC   C4B 1417   2.087   5.532   6.988  0.1146  0.0592  0.1210
   73POPC   NC3 1418   6.629   7.250   9.705 -0.1104 -0.1831 -0.2256
   73POPC   PO4 1419   6.529   7.705   9.871  0.0200  0.2799  0.2692
   73POPC   GL1 1420   6.887   7.847   9.563 -0.0143 -0.4243  0.2237
   73POPC   GL2 1421   7.289   7.788   9.664  0.0745  0.0035 -0.3412
   73POPC   C1A 1422   7.109   7.576   9.291 -0.1562  0.1045 -0.1354
   73POPC   D2A 1423   7.409   7.374   9.186 -0.0601 -0.1327  0.3088
   73POPC   C3A 1424   7.779   7.478   8.899  0.0311 -0.0181  0.3447
   73POPC   C4A 1425   8.133   7.603   8.633 -0.2770  0.0229  0.0290
   73POPC   C1B 1426   7.541   7.837   9.302  0.1198 -0.2499 -0.1773
   73POPC   C2B 1427   7.912   8.034   9.352  0.4507 -0.4167  0.3784
   73POPC   C3B 1428   8.193   7.878   9.047 -0.0625  0.0937 -0.0018
   73POPC   C4B 1429   8.234   8.082   8.587 -0.1794 -0.0746  0.2035
   74POPC   NC3 1430   7.559   3.824   9.622 -0.0534 -0.3360 -0.1611
   74POPC   PO4 1431   7.436   3.541   9.339  0.0866  0.0047  0.2011
   74POPC   GL1 1432   7.241   3.621   8.922 -0.2314  0.1407  0.0385
   74POPC   GL2 1433   7.045   3.894   9.109 -0.0656  0.0661  0.1212
   74POPC   C1A 1434   7.428   3.708   8.469  0.0404  0.1166 -0.3965
   74POPC   D2A 1435   7.571   4.006   8.205 -0.1229 -0.2108 -0.0132
   74POPC   C3A 1436   7.899   3.841   7.908  0.2324 -0.0563  0.2511
   74POPC   C4A 1437   8.274   3.968   7.759 -0.2694  0.3611 -0.0937
   74POPC   C1B 1438   7.014   4.052   8.621  0.0110  0.0269  0.1993
   74POPC   C2B 1439   7.143   4.226   8.145  0.3297 -0.2003 -0.1197
   74POPC   C3B 1440   7.179   4.343   7.708  0.0101 -0.3482  0.1183
   74POPC   C4B 1441   7.295   4.369   7.242 -0.1287  0.0331  0.0156
   75POPC   NC3 1442   0.396   9.096   9.469  0.1286 -0.3871 -0.0020
   75POPC   PO4 1443   0.259   9.529   9.266  0.3637 -0.0010  0.0691
   75POPC   GL1 1444   0.367   9.299   8.954  0.0739  0.0301  0.2053
   75POPC   GL2 1445   0.254   8.972   9.028  0.2484 -0.0996 -0.1003
   75POPC   C1A 1446   0.275   9.317   8.510 -0.0180  0.2650  0.0234
   75POPC   D2A 1447   0.254   9.631   8.349 -0.5595 -0.3395 -0.1312
   75POPC   C3A 1448   0.337   9.659   7.945 -0.6884 -0.1031 -0.1539
   75POPC   C4A 1449   0.408   9.769   7.550  0.0009 -0.1835 -0.5229
   75POPC   C1B 1450   0.100   8.849   8.555 -0.0021  0.0105 -0.2139
   75POPC   C2B 1451   0.034   8.644   8.063  0.2567 -0.0866 -0.3241
   75POPC   C3B 1452   0.069   8.549   7.705  0.0006 -0.1566 -0.2638
   75POPC   C4B 1453  -0.147   8.236   7.444 -0.1368 -0.1192  0.1466
   76POPC   NC3 1454   5.089   7.579   9.309  0.1241 -0.1185  0.2289
   76POPC   PO4 1455   5.149   7.361   8.851  0.0284 -0.2224 -0.3905
   76POPC   GL1 1456   5.362   7.698   8.629  0.0317  0.0760  0.0679
   76POPC   GL2 1457   5.165   7.863   8.472  0.1004 -0.2542  0.1437
   76POPC   C1A 1458   5.653   7.934   8.296  0.0829 -0.1023  0.0046
   76POPC   D2A 1459   5.751   8.094   7.998 -0.0457  0.0063  0.1795
   76POPC   C3A 1460   6.055   7.888   7.713  0.1839  0.0857  0.0294
   76POPC   C4A 1461   6.278   7.821   7.360  0.0737 -0.3789 -0.5385
   76POPC   C1B 1462   5.338   7.593   8.123 -0.0265  0.2838  0.1213
   76POPC   C2B 1463   5.556   7.628   7.808  0.0774  0.0509 -0.0970
   76POPC   C3B 1464   5.639   7.822   7.390 -0.5454 -0.0759 -0.1875
   76POPC   C4B 1465   5.744   7.521   7.025 -0.2798  0.0275  0.2857
   77POPC   NC3 1466   8.587   0.625   9.556  0.2273  0.0383 -0.2676
   77POPC   PO4 1467   8.387   0.868   9.228  0.1863  0.4025 -0.1504
   77POPC   GL1 1468   8.516   0.862   8.773  0.0910 -0.0010  0.0657
   77POPC   GL2 1469   8.845   0.936   8.698 -0.0747  0.0424  0.3200
   77POPC   C1A 1470   8.193   0.951   8.445  0.0053  0.4285 -0.0490
   77POPC   D2A 1471   8.154   1.027   8.036  0.0028 -0.1296 -0.2680
   77POPC   C3A 1472   8.049   0.611   7.828  0.0221 -0.1221  0.1368
   77POPC   C4A 1473   8.295   0.419   7.397  0.2350  0.1171  0.0616
   77POPC   C1B 1474   8.672   0.999   8.324 -0.0848  0.0828 -0.1794
   77POPC   C2B 1475   8.558   0.756   7.906 -0.2218  0.3730  0.1253
   77POPC   C3B 1476   8.259   0.998   7.551 -0.1070  0.3796 -0.4965
   77POPC   C4B 1477   8.106   0.903   7.210 -0.0363  0.1151  0.0166
   78POPC   NC3 1478   7.195   4.457  10.342 -0.0678  0.1969  0.2115
   78POPC   PO4 1479   7.423   4.141  10.026 -0.1927 -0.0206  0.1326
   78POPC   GL1 1480   7.437   4.389   9.625  0.0278 -0.2815  0.2588
   78POPC   GL2 1481   7.459   4.242   9.326 -0.1484  0.0081  0.0211
   78POPC   C1A 1482   7.313   4.704   9.374  0.3367  0.2017  0.3549
   78POPC   D2A 1483   7.191   5.097   9.149 -0.2468 -0.1385  0.1704
   78POPC   C3A 1484   6.939   5.116   8.727 -0.2104 -0.4504 -0.0400
   78POPC   C4A 1485   7.182   5.215   8.347 -0.0144  0.1168  0.1510
   78POPC   C1B 1486   7.901   4.391   9.434  0.1982  0.0303 -0.0718
   78POPC   C2B 1487   8.028   4.596   8.988  0.1005  0.2699  0.4058
   78POPC   C3B 1488   8.066   4.888   8.708 -0.0802  0.0396  0.0477
   78POPC   C4B 1489   8.173   5.098   8.426 -0.1397 -0.2237 -0.3267
   79POPC   NC3 1490   5.971   9.219   9.135 -0.0303  0.2175 -0.0471
   79POPC   PO4 1491   5.520   9.218   9.023  0.1475  0.1911 -0.1681
   79POPC   GL1 1492   5.571   9.196   8.611  0.3332 -0.0704 -0.2363
   79POPC   GL2 1493   5.921   9.234   8.491  0.3188  0.0781  0.4171
   79POPC   C1A 1494   5.574   8.899   8.261 -0.0501  0.3510 -0.0086
   79POPC   D2A 1495   5.631   8.829   7.766  0.1116 -0.3250 -0.2467
   79POPC   C3A 1496   5.956   8.949   7.498 -0.0221 -0.2713  0.1894
   79POPC   C4A 1497   6.312   8.842   7.289  0.0859 -0.6186 -0.0957
   79POPC   C1B 1498   6.010   9.007   8.084  0.1973  0.1003  0.0327
   79POPC   C2B 1499   6.327   8.810   7.836 -0.0184 -0.2324  0.1080
   79POPC   C3B 1500   6.679   8.957   7.676 -0.0423  0.2476 -0.0834
   79POPC   C4B 1501   6.964   8.739   7.368  0.2701 -0.0380 -0.0994
   80POPC   NC3 1502   2.494   7.560   8.719 -0.2011 -0.4011  0.0223
   80POPC   PO4 1503   2.495   7.096   8.726 -0.0945  0.1408  0.0836
   80POPC   GL1 1504   2.240   6.873   8.445  0.0097 -0.1607  0.0622
   80POPC   GL2 1505   2.474   6.572   8.529 -0.2536  0.0631  0.2071
   80POPC   C1A 1506   1.830   6.992   8.214  0.0158 -0.1072  0.0835
   80POPC   D2A 1507   1.318   6.934   8.135 -0.0540  0.0196  0.0377
   80POPC   C3A 1508   1.050   6.925   8.610  0.1527 -0.5022  0.1848
   80POPC   C4A 1509   0.821   6.555   8.962 -0.0478 -0.1116  0.3711
   80POPC   C1B 1510   2.604   6.703   8.084 -0.1045  0.0274 -0.1740
   80POPC   C2B 1511   2.615   7.013   7.766 -0.1670 -0.0637 -0.0625
   80POPC   C3B 1512   2.548   7.138   7.376  0.0228  0.2962  0.2183
   80POPC   C4B 1513   2.306   7.377   7.205 -0.0163 -0.0431  0.1928
   81POPC   NC3 1514   4.860   6.718   9.819  0.0964 -0.0055  0.4263
   81POPC   PO4 1515   5.036   6.517   9.360 -0.0207  0.1948  0.1819
   81POPC   GL1 1516   5.332   6.280   9.173  0.2558  0.0058 -0.0283
   81POPC   GL2 1517   5.388   6.369   8.785  0.0035  0.0374 -0.0165
   81POPC   C1A 1518   5.513   5.883   8.892  0.0894  0.3219  0.0031
   81POPC   D2A 1519   5.461   5.525   8.700  0.1816 -0.1840 -0.3072
   81POPC   C3A 1520   5.726   5.130   8.777  0.0014  0.2042  0.2716
   81POPC   C4A 1521   5.977   4.828   8.936 -0.1126  0.2780  0.0751
   81POPC   C1B 1522   5.409   6.235   8.334 -0.3101 -0.1436 -0.2203
   81POPC   C2B 1523   5.353   6.254   7.898 -0.2303  0.1601 -0.0497
   81POPC   C3B 1524   5.213   6.253   7.530  0.1500 -0.1195 -0.1599
   81POPC   C4B 1525   4.908   5.964   7.397 -0.1239  0.0376  0.1136
   82POPC   NC3 1526   1.558   1.411   8.964  0.1819  0.3985  0.0538
   82POPC   PO4 1527   1.402   1.866   8.857 -0.2348  0.1024  0.0526
   82POPC   GL1 1528   1.327   1.672   8.561 -0.0921  0.1121  0.1372
   82POPC   GL2 1529   1.594   1.456   8.417 -0.2939  0.1634 -0.0494
   82POPC   C1A 1530   1.257   1.848   8.150 -0.2646  0.1715  0.0485
   82POPC   D2A 1531   1.212   1.826   7.643  0.1080  0.1076 -0.1703
   82POPC   C3A 1532   1.576   1.745   7.504 -0.0981 -0.0233  0.0855
   82POPC   C4A 1533   1.662   1.640   7.127  0.1504 -0.3515  0.2756
   82POPC   C1B 1534   1.894   1.622   8.193 -0.0961  0.0973  0.0393
   82POPC   C2B 1535   1.979   1.410   7.817 -0.0231 -0.0857 -0.4058
   82POPC   C3B 1536   2.069   1.401   7.456  0.1244  0.0339 -0.0388
   82POPC   C4B 1537   2.210   1.619   7.135 -0.1417 -0.0282  0.3505
   83POPC   NC3 1538   9.398   4.374  10.368 -0.0862  0.2058  0.1060
   83POPC   PO4 1539   9.404   4.327   9.903  0.2848  0.0458 -0.1007
   83POPC   GL1 1540   9.183   4.541   9.596  0.0223 -0.1319 -0.1120
   83POPC   GL2 1541   9.258   4.811   9.586  0.2176 -0.0898  0.0303
   83POPC   C1A 1542   9.158   4.626   9.088  0.2140  0.0407 -0.1288
   83POPC   D2A 1543   8.915   4.599   8.687  0.2473  0.0576  0.4086
   83POPC   C3A 1544   8.511   4.570   8.529  0.0932  0.0991  0.0170
   83POPC   C4A 1545   8.270   4.215   8.351 -0.1152 -0.0730  0.3272
   83POPC   C1B 1546   9.537   4.975   9.181  0.0458  0.0098 -0.0871
   83POPC   C2B 1547   9.787   5.226   8.915  0.2688 -0.2545 -0.0650
   83POPC   C3B 1548   9.872   4.956   8.522  0.0018  0.0897 -0.0507
   83POPC   C4B 1549   9.855   4.657   8.189 -0.2299 -0.1358  0.2324
   84POPC   NC3 1550   8.967   2.147   9.959 -0.1415  0.1696  0.1492
   84POPC   PO4 1551   8.844   2.101   9.483 -0.0595  0.1520  0.2134
   84POPC   GL1 1552   8.975   2.128   9.035  0.2788  0.2059  0.1751
   84POPC   GL2 1553   9.093   1.884   8.787 -0.2221 -0.2981 -0.2676
   84POPC   C1A 1554   8.769   2.398   8.721  0.1138 -0.1441 -0.1180
   84POPC   D2A 1555   8.415   2.495   8.436  0.4888  0.0004  0.0686
   84POPC   C3A 1556   8.164   2.989   8.546 -0.0185  0.0110 -0.1713
   84POPC   C4A 1557   8.260   3.294   8.853  0.0945 -0.1590 -0.5070
   84POPC   C1B 1558   9.211   1.793   8.336 -0.0063  0.2287 -0.1550
   84POPC   C2B 1559   9.429   2.057   7.994 -0.0266 -0.0738 -0.1989
   84POPC   C3B 1560   9.601   2.437   7.841  0.0212  0.1490  0.1867
   84POPC   C4B 1561   9.924   2.842   8.016 -0.1125  0.0598  0.0290
   85POPC   NC3 1562   9.216   2.985   9.235  0.1003 -0.1741  0.5089
   85POPC   PO4 1563   9.568   3.128   9.051  0.2321  0.1449 -0.5172
   85POPC   GL1 1564   9.547   3.129   8.709 -0.1669  0.1440  0.2366
   85POPC   GL2 1565   9.406   2.755   8.692  0.1866 -0.0551  0.0197
   85POPC   C1A 1566   9.665   3.216   8.209 -0.0658  0.0368  0.0515
   85POPC   D2A 1567   9.742   3.391   7.871  0.2783  0.0330 -0.0902
   85POPC   C3A 1568   9.857   3.458   7.504  0.0163  0.0888  0.0229
   85POPC   C4A 1569   9.976   3.867   7.337 -0.0580  0.1760 -0.0491
   85POPC   C1B 1570   9.249   2.966   8.338 -0.1666  0.4232  0.1645
   85POPC   C2B 1571   9.342   2.821   7.959 -0.0798 -0.1823  0.0982
   85POPC   C3B 1572   9.597   2.964   7.637 -0.0558 -0.1852 -0.2226
   85POPC   C4B 1573   9.630   2.637   7.310  0.0192 -0.0278  0.0403
   86POPC   NC3 1574   9.545   5.694  10.328  0.1063 -0.0217 -0.2078
   86POPC   PO4 1575   9.682   5.267  10.344  0.3522  0.0610  0.3212
   86POPC   GL1 1576   9.450   5.297   9.857 -0.1921 -0.1707  0.0707
   86POPC   GL2 1577   9.586   5.251   9.523 -0.1257 -0.4237 -0.0170
   86POPC   C1A 1578   9.098   5.296   9.642 -0.1078 -0.3234  0.5710
   86POPC   D2A 1579   8.799   5.494   9.390 -0.2263 -0.0667 -0.3298
   86POPC   C3A 1580   8.873   5.405   9.044  0.0122 -0.1840  0.0453
   86POPC   C4A 1581   8.965   5.585   8.541 -0.1769 -0.0107 -0.0152
   86POPC   C1B 1582   9.371   5.461   9.201  0.1461 -0.1560  0.0100
   86POPC   C2B 1583   9.370   5.778   8.764  0.1760  0.2234  0.0144
   86POPC   C3B 1584   9.537   6.137   8.698  0.1400 -0.1451 -0.0451
   86POPC   C4B 1585   9.351   6.546   8.555 -0.1652  0.3174  0.0649
   87POPC   NC3 1586   6.354   5.514  10.099  0.0902  0.0846 -0.1424
   87POPC   PO4 1587   5.988   5.654   9.736  0.1517  0.0707 -0.2555
   87POPC   GL1 1588   6.098   5.734   9.343 -0.1713 -0.0956 -0.1020
   87POPC   GL2 1589   6.224   6.088   9.346  0.0401 -0.1974 -0.1401
   87POPC   C1A 1590   6.485   5.718   9.013 -0.1094  0.2848 -0.2329
   87POPC   D2A 1591   6.482   5.831   8.582  0.0456  0.2096  0.1732
   87POPC   C3A 1592   6.243   5.368   8.418 -0.1370 -0.1331  0.0333
   87POPC   C4A 1593   5.822   5.338   8.283  0.0272 -0.0382 -0.1735
   87POPC   C1B 1594   6.163   6.123   8.907  0.1056  0.0564 -0.1760
   87POPC   C2B 1595   6.316   6.413   8.584 -0.3078  0.0486 -0.1158
   87POPC   C3B 1596   6.113   6.631   8.326  0.1498  0.1950 -0.0603
   87POPC   C4B 1597   6.267   6.632   7.928 -0.2532 -0.0818  0.0065
   88POPC   NC3 1598   4.181   7.238   8.956 -0.0729  0.2099 -0.2251
   88POPC   PO4 1599   4.271   7.529   8.520 -0.0709 -0.3106  0.2022
   88POPC   GL1 1600   4.417   7.144   8.329 -0.1552  0.1047 -0.1657
   88POPC   GL2 1601   4.614   6.772   8.351  0.0245 -0.0857  0.3153
   88POPC   C1A 1602   4.455   7.087   7.833 -0.0927  0.2276  0.2240
   88POPC   D2A 1603   4.808   6.852   7.709  0.1567 -0.0081 -0.2189
   88POPC   C3A 1604   4.715   6.412   7.538  0.3228  0.5057  0.1427
   88POPC   C4A 1605   4.481   6.183   7.101  0.0404 -0.0109 -0.0801
   88POPC   C1B 1606   4.390   6.667   8.057  0.0185  0.0385 -0.1785
   88POPC   C2B 1607   4.235   6.587   7.647 -0.1010 -0.2849 -0.0749
   88POPC   C3B 1608   4.019   6.570   7.190  0.3914  0.1211 -0.0204
   88POPC   C4B 1609   3.817   6.834   6.873 -0.2802 -0.2353 -0.2364
   89POPC   NC3 1610   9.986   3.402   9.110 -0.0377 -0.2429 -0.1651
   89POPC   PO4 1611  10.300   3.606   9.019 -0.1054  0.0934 -0.0045
   89POPC   GL1 1612  10.212   3.798   8.605 -0.0955  0.1265 -0.0720
   89POPC   GL2 1613  10.188   4.014   8.364  0.1338  0.1792 -0.0820
   89POPC   C1A 1614  10.131   3.578   8.142 -0.1971  0.0750 -0.0703
   89POPC   D2A 1615  10.250   3.243   7.933  0.1384  0.3400 -0.1195
   89POPC   C3A 1616  10.103   2.974   7.507 -0.1629  0.1684  0.0501
   89POPC   C4A 1617  10.042   2.447   7.593  0.2857 -0.1243 -0.1005
   89POPC   C1B 1618  10.027   4.177   8.043  0.3501  0.2848  0.0724
   89POPC   C2B 1619   9.766   4.316   7.710 -0.2559 -0.1979  0.3069
   89POPC   C3B 1620   9.932   4.449   7.276 -0.2558 -0.1124  0.0198
   89POPC   C4B 1621  10.127   4.335   6.988  0.2921 -0.0925  0.0815
   90POPC   NC3 1622   7.204   5.358  10.327  0.0689 -0.1289 -0.0346
   90POPC   PO4 1623   6.725   5.408  10.417 -0.2648 -0.2051  0.1831
   90POPC   GL1 1624   6.851   5.512   9.925  0.1465 -0.0267  0.0098
   90POPC   GL2 1625   6.546   5.657   9.668 -0.1531  0.2314 -0.0918
   90POPC   C1A 1626   7.039   5.383   9.522  0.1582  0.2168  0.1248
   90POPC   D2A 1627   6.821   5.413   9.177 -0.4453  0.1751 -0.1015
   90POPC   C3A 1628   6.928   5.674   8.817  0.4113  0.0966  0.0029
   90POPC   C4A 1629   7.300   5.813   8.632  0.1356  0.0919 -0.0351
   90POPC   C1B 1630   6.763   5.887   9.364  0.1754 -0.0504  0.0922
   90POPC   C2B 1631   7.130   6.048   9.134  0.1070 -0.0465  0.0474
   90POPC   C3B 1632   7.572   6.067   8.959 -0.0332 -0.1555 -0.2734
   90POPC   C4B 1633   8.015   5.956   8.789  0.2582  0.0680  0.0216
   91POPC   NC3 1634   5.994   9.966   8.867 -0.3539  0.2228 -0.1208
   91POPC   PO4 1635   5.827   9.609   8.876  0.2212 -0.1010 -0.0367
   91POPC   GL1 1636   5.957   9.687   8.456  0.1064  0.2027  0.0894
   91POPC   GL2 1637   6.081   9.990   8.263  0.2256  0.0788 -0.0134
   91POPC   C1A 1638   6.072   9.493   8.060 -0.4060  0.0692  0.1282
   91POPC   D2A 1639   6.358   9.298   7.851  0.1280 -0.0254 -0.1455
   91POPC   C3A 1640   6.227   9.356   7.358  0.0104 -0.1325 -0.0350
   91POPC   C4A 1641   6.172   9.341   6.982 -0.2261 -0.0229  0.0149
   91POPC   C1B 1642   6.165   9.876   7.805  0.3254  0.1844  0.4598
   91POPC   C2B 1643   6.470   9.776   7.637  0.0865 -0.0019 -0.0883
   91POPC   C3B 1644   6.772   9.456   7.592 -0.0974  0.3722 -0.1101
   91POPC   C4B 1645   7.131   9.202   7.479  0.3970 -0.0176 -0.4752
   92POPC   NC3 1646   0.572   3.434   8.930 -0.5402  0.1694 -0.0663
   92POPC   PO4 1647   0.711   3.006   8.848 -0.1151 -0.0902  0.1040
   92POPC   GL1 1648   0.717   3.027   8.456 -0.0016  0.2306  0.2206
   92POPC   GL2 1649   0.732   2.809   8.138  0.3107 -0.0152 -0.1554
   92POPC   C1A 1650   0.648   3.395   8.123 -0.1522  0.2547 -0.1346
   92POPC   D2A 1651   0.430   3.759   8.109 -0.1625 -0.0287  0.0399
   92POPC   C3A 1652   0.153   3.710   7.727  0.2123  0.0387  0.0545
   92POPC   C4A 1653   0.142   3.527   7.299  0.0999 -0.2506  0.1371
   92POPC   C1B 1654   1.077   2.937   8.135 -0.0671 -0.0141  0.1964
   92POPC   C2B 1655   1.494   3.089   8.107 -0.1500  0.0708 -0.3983
   92POPC   C3B 1656   1.875   3.061   7.945 -0.1521 -0.1864 -0.1126
   92POPC   C4B 1657   1.978   2.563   7.722  0.1553  0.0257 -0.1189
   93POPC   NC3 1658   8.260   7.827  10.615  0.3142  0.2234  0.0242
   93POPC   PO4 1659   8.523   7.553  10.483 -0.1149 -0.0649 -0.1702
   93POPC   GL1 1660   8.734   7.395  10.117  0.2398 -0.0116 -0.0007
   93POPC   GL2 1661   8.707   7.079  10.093  0.0081 -0.2368  0.0917
   93POPC   C1A 1662   8.793   7.556   9.736  0.1234 -0.0944 -0.0541
   93POPC   D2A 1663   9.006   7.785   9.429 -0.2351 -0.1782  0.5148
   93POPC   C3A 1664   8.739   7.887   9.095 -0.0448  0.0811 -0.0300
   93POPC   C4A 1665   8.622   7.705   8.830  0.0204 -0.2753  0.0939
   93POPC   C1B 1666   8.503   7.101   9.710 -0.0422  0.1628  0.0854
   93POPC   C2B 1667   8.116   7.195   9.612 -0.1101  0.0694  0.0083
   93POPC   C3B 1668   7.907   7.562   9.497 -0.2307 -0.0014  0.0132
   93POPC   C4B 1669   7.742   7.736   9.822  0.2278 -0.1248 -0.1001
   94POPC   NC3 1670   0.430   5.980   9.639 -0.2849 -0.2156 -0.3507
   94POPC   PO4 1671   0.107   5.651   9.797 -0.1130 -0.2003 -0.0780
   94POPC   GL1 1672  -0.108   5.749   9.516 -0.2888 -0.1024 -0.0184
   94POPC   GL2 1673   0.094   5.807   9.261 -0.2824  0.3264  0.2176
   94POPC   C1A 1674  -0.294   5.646   9.099  0.2006 -0.2322 -0.0620
   94POPC   D2A 1675  -0.332   5.751   8.662  0.0675  0.1315  0.0769
   94POPC   C3A 1676  -0.525   5.627   8.363  0.1855 -0.3753 -0.2204
   94POPC   C4A 1677  -0.710   5.665   7.913  0.1483  0.1387  0.2159
   94POPC   C1B 1678   0.130   5.839   8.857  0.2751  0.0626  0.3589
   94POPC   C2B 1679  -0.022   6.048   8.444 -0.0488  0.0899  0.0503
   94POPC   C3B 1680  -0.414   6.154   8.263 -0.1439  0.1447  0.0058
   94POPC   C4B 1681  -0.800   6.159   8.213 -0.2501  0.5256  0.1199
   95POPC   NC3 1682  10.021   7.089  10.874  0.1224  0.2834 -0.1590
   95POPC   PO4 1683   9.978   6.926  10.422 -0.2673 -0.0028  0.0714
   95POPC   GL1 1684   9.969   7.028   9.931 -0.1048  0.0442 -0.1316
   95POPC   GL2 1685   9.977   6.739   9.681 -0.1515 -0.2135  0.1203
   95POPC   C1A 1686   9.772   7.157   9.467  0.1575 -0.1559 -0.2680
   95POPC   D2A 1687   9.774   7.317   9.110  0.2423  0.2929  0.2023
   95POPC   C3A 1688   9.962   7.136   8.685  0.1723  0.2192  0.1222
   95POPC   C4A 1689  10.302   6.860   8.685  0.0678 -0.0919  0.0991
   95POPC   C1B 1690   9.645   6.641   9.419  0.1687  0.0327 -0.0669
   95POPC   C2B 1691   9.397   6.460   9.051  0.1574  0.1068 -0.0581
   95POPC   C3B 1692   9.026   6.244   8.815  0.1762 -0.0405  0.0370
   95POPC   C4B 1693   8.739   6.151   8.479 -0.0203  0.0680 -0.2973
   96POPC   NC3 1694   9.272   1.885   9.332 -0.0841  0.2601  0.0683
   96POPC   PO4 1695   9.555   2.023   9.084  0.3631 -0.1989  0.1487
   96POPC   GL1 1696   9.494   2.148   8.579 -0.2712 -0.2761 -0.0958
   96POPC   GL2 1697   9.786   2.281   8.416  0.1326  0.2228  0.3326
   96POPC   C1A 1698   9.245   2.378   8.336 -0.0135 -0.2705 -0.3748
   96POPC   D2A 1699   8.943   2.601   8.216  0.1775  0.1389 -0.1263
   96POPC   C3A 1700   8.850   2.811   7.942  0.0415 -0.1766  0.0032
   96POPC   C4A 1701   8.817   2.838   7.512  0.2495 -0.2105  0.1506
   96POPC   C1B 1702  10.097   2.380   8.183  0.1657 -0.0188  0.0465
   96POPC   C2B 1703  10.391   2.700   7.881 -0.3808 -0.3778  0.2014
   96POPC   C3B 1704  10.658   3.018   7.779  0.1097  0.1433  0.0677
   96POPC   C4B 1705  10.747   3.441   7.646 -0.0179 -0.2349 -0.0190
   97POPC   NC3 1706   1.110   4.153   9.458  0.3124 -0.3286  0.3415
   97POPC   PO4 1707   0.931   3.838   8.994  0.0128 -0.0043 -0.1523
   97POPC   GL1 1708   0.986   4.015   8.541 -0.2695  0.0311 -0.0667
   97POPC   GL2 1709   0.859   4.321   8.505  0.2529  0.2916  0.2055
   97POPC   C1A 1710   0.937   3.888   8.207 -0.0213  0.0553  0.0050
   97POPC   D2A 1711   0.946   3.840   7.730 -0.0044 -0.1640 -0.0213
   97POPC   C3A 1712   1.221   4.120   7.525 -0.4568  0.0113  0.1459
   97POPC   C4A 1713   1.311   4.502   7.667  0.0342 -0.2214  0.1439
   97POPC   C1B 1714   0.559   4.223   8.279  0.0173 -0.2447 -0.0348
   97POPC   C2B 1715   0.337   4.228   7.861  0.0554  0.1972  0.0763
   97POPC   C3B 1716   0.254   4.054   7.380 -0.0868 -0.1876  0.3752
   97POPC   C4B 1717   0.211   3.928   6.903 -0.1985 -0.1590  0.1219
   98POPC   NC3 1718   3.388   1.398   9.218  0.1508 -0.2389  0.3905
   98POPC   PO4 1719   3.468   1.768   8.908 -0.2796 -0.0114 -0.2559
   98POPC   GL1 1720   3.642   1.681   8.511 -0.0785  0.1717  0.0305
   98POPC   GL2 1721   3.646   1.369   8.353  0.1498 -0.3094  0.0222
   98POPC   C1A 1722   3.833   1.836   8.158 -0.2971  0.1323 -0.1380
   98POPC   D2A 1723   3.789   2.068   7.830  0.3346  0.0226  0.0814
   98POPC   C3A 1724   4.000   1.969   7.373  0.0571 -0.2055  0.0935
   98POPC   C4A 1725   4.089   1.955   6.875 -0.1961 -0.0319 -0.3218
   98POPC   C1B 1726   3.942   1.330   8.025  0.0688 -0.2560  0.2104
   98POPC   C2B 1727   3.967   1.599   7.658 -0.2806 -0.1083 -0.1056
   98POPC   C3B 1728   4.007   1.486   7.227 -0.0841 -0.1211 -0.0119
   98POPC   C4B 1729   4.115   1.043   7.131 -0.3201 -0.0935 -0.2499
   99POPC   NC3 1730   7.986   2.385   9.851  0.2514  0.0446  0.3097
   99POPC   PO4 1731   7.865   2.895   9.683 -0.0775  0.2570 -0.2156
   99POPC   GL1 1732   7.857   3.130   9.257  0.1411  0.0650 -0.1059
   99POPC   GL2 1733   7.769   2.988   9.046 -0.3591  0.0893  0.0699
   99POPC   C1A 1734   7.957   3.645   9.044 -0.4303 -0.0409  0.1498
   99POPC   D2A 1735   8.082   4.059   9.014 -0.1883  0.2877  0.2531
   99POPC   C3A 1736   8.469   4.222   9.111 -0.0723  0.0151  0.0981
   99POPC   C4A 1737   8.769   4.369   9.364 -0.1005 -0.0203 -0.0779
   99POPC   C1B 1738   7.666   2.805   8.652  0.1584  0.3570  0.4083
   99POPC   C2B 1739   7.670   2.788   8.180 -0.2970  0.3351 -0.0249
   99POPC   C3B 1740   7.493   2.819   7.855  0.0323 -0.1049 -0.3214
   99POPC   C4B 1741   7.042   2.863   7.627  0.0498  0.3103  0.2768
  100POPC   NC3 1742   1.466   5.996   9.623  0.1260  0.1276  0.1304
  100POPC   PO4 1743   1.454   5.927   9.154 -0.2235 -0.1566  0.4800
  100POPC   GL1 1744   1.197   6.089   8.842 -0.1270 -0.4159  0.1338
  100POPC   GL2 1745   1.016   5.806   8.839  0.2026 -0.3678 -0.0111
  100POPC   C1A 1746   0.957   6.278   8.557  0.1156  0.1211  0.1585
  100POPC   D2A 1747   1.066   6.469   8.106 -0.1515  0.1217  0.0107
  100POPC   C3A 1748   1.209   6.734   7.682  0.1880 -0.2739 -0.0777
  100POPC   C4A 1749   1.453   6.975   7.360  0.3083 -0.3523  0.1631
  100POPC   C1B 1750   1.182   5.733   8.467 -0.0299 -0.0957  0.0940
  100POPC   C2B 1751   1.330   5.978   8.126  0.1986 -0.0571  0.1714
  100POPC   C3B 1752   1.302   6.161   7.709  0.4428 -0.1848  0.2408
  100POPC   C4B 1753   0.929   6.426   7.485  0.2473 -0.1619  0.1144
  101POPC   NC3 1754   7.525   4.836  10.574  0.2431 -0.1930  0.2158
  101POPC   PO4 1755   7.713   5.135  10.255  0.0760 -0.3705  0.2354
  101POPC   GL1 1756   7.909   5.225   9.855  0.1979  0.4377  0.0427
  101POPC   GL2 1757   7.744   5.073   9.696 -0.1843 -0.1926 -0.1145
  101POPC   C1A 1758   7.899   5.601   9.675  0.1217 -0.2375 -0.1649
  101POPC   D2A 1759   7.903   5.831   9.305 -0.1407 -0.1580  0.1022
  101POPC   C3A 1760   8.255   5.727   9.180 -0.4037  0.0179  0.1667
  101POPC   C4A 1761   8.615   5.958   8.961 -0.1638 -0.0371 -0.0833
  101POPC   C1B 1762   7.919   5.078   9.246  0.0674  0.2495 -0.3103
  101POPC   C2B 1763   8.005   5.340   8.915 -0.0622 -0.0416  0.0556
  101POPC   C3B 1764   7.893   5.531   8.546  0.1377 -0.0066 -0.1916
  101POPC   C4B 1765   7.731   5.900   8.348  0.2018 -0.1801  0.4853
  102POPC   NC3 1766   4.280   4.949   9.361  0.2899 -0.1046  0.0125
  102POPC   PO4 1767   4.425   4.606   8.988  0.3364 -0.1088 -0.0553
  102POPC   GL1 1768   4.541   4.591   8.581  0.0102  0.0775 -0.2810
  102POPC   GL2 1769   4.428   4.929   8.524 -0.5642 -0.0850 -0.0228
  102POPC   C1A 1770   4.368   4.458   8.287  0.1805  0.0811  0.3156
  102POPC   D2A 1771   4.106   4.172   8.078  0.0342 -0.2940  0.1581
  102POPC   C3A 1772   4.132   4.127   7.611  0.0764  0.0251 -0.0147
  102POPC   C4A 1773   4.462   4.238   7.383 -0.4452 -0.1763  0.0830
  102POPC   C1B 1774   4.328   5.209   8.192  0.3909 -0.1267  0.0019
  102POPC   C2B 1775   4.039   5.222   7.816  0.0307  0.4024 -0.1655
  102POPC   C3B 1776   3.950   5.496   7.476 -0.1371  0.2159 -0.0554
  102POPC   C4B 1777   3.897   5.883   7.232  0.4643  0.0076 -0.1722
  103POPC   NC3 1778   8.863   5.278  10.729 -0.1549  0.2130 -0.1647
  103POPC   PO4 1779   8.715   5.517  10.332  0.2734 -0.3241 -0.0119
  103POPC   GL1 1780   8.667   5.477   9.966  0.2861 -0.0467 -0.1743
  103POPC   GL2 1781   8.383   5.319   9.974 -0.1461 -0.0855 -0.3456
  103POPC   C1A 1782   8.451   5.779   9.686  0.1692  0.0601  0.0258
  103POPC   D2A 1783   8.650   6.000   9.416 -0.0721  0.0519 -0.2502
  103POPC   C3A 1784   9.073   5.838   9.715  0.1664  0.0666 -0.0517
  103POPC   C4A 1785   9.427   5.714   9.615 -0.0515 -0.0013  0.1278
  103POPC   C1B 1786   8.384   5.226   9.525 -0.0466 -0.0865  0.2512
  103POPC   C2B 1787   8.401   5.173   9.098 -0.2054  0.2821  0.2759
  103POPC   C3B 1788   8.435   5.479   8.736 -0.2496  0.2874  0.2411
  103POPC   C4B 1789   8.404   5.800   8.502 -0.1222  0.0243  0.1558
  104POPC   NC3 1790   3.724   7.133   8.615 -0.5253 -0.1926 -0.0921
  104POPC   PO4 1791   3.381   7.435   8.468  0.0550 -0.3313  0.1124
  104POPC   GL1 1792   3.733   7.435   8.119  0.1924  0.0398 -0.1399
  104POPC   GL2 1793   3.994   7.636   8.068  0.1631 -0.1771  0.2070
  104POPC   C1A 1794   3.612   7.551   7.688  0.0519  0.2196  0.0751
  104POPC   D2A 1795   3.774   7.505   7.327  0.1383  0.2194  0.0998
  104POPC   C3A 1796   3.526   7.269   6.976 -0.0138 -0.0826 -0.2409
  104POPC   C4A 1797   3.118   7.146   6.987 -0.2907 -0.2378  0.0725
  104POPC   C1B 1798   4.167   7.609   7.686  0.0369 -0.0958 -0.0967
  104POPC   C2B 1799   4.517   7.406   7.469 -0.0508  0.0765  0.0630
  104POPC   C3B 1800   4.691   7.060   7.311  0.1166  0.1574  0.1057
  104POPC   C4B 1801   4.613   6.747   7.034 -0.2522  0.2385  0.1216
  105POPC   NC3 1802   0.191   6.775  10.149 -0.2654 -0.1958 -0.0509
  105POPC   PO4 1803   0.329   6.394   9.892  0.2729  0.2058  0.4261
  105POPC   GL1 1804   0.014   6.247   9.709 -0.4790  0.2473  0.2350
  105POPC   GL2 1805   0.074   6.427   9.437 -0.1428 -0.0280 -0.1832
  105POPC   C1A 1806  -0.392   6.167   9.590  0.0073  0.0156 -0.1063
  105POPC   D2A 1807  -0.760   6.321   9.761 -0.1363  0.0420 -0.0426
  105POPC   C3A 1808  -1.221   6.343   9.664  0.0637  0.0187  0.2410
  105POPC   C4A 1809  -1.586   6.556   9.617  0.1088 -0.2990 -0.0554
  105POPC   C1B 1810   0.184   6.327   9.054  0.1425 -0.0128  0.1236
  105POPC   C2B 1811   0.436   6.368   8.672  0.2360 -0.2815  0.0133
  105POPC   C3B 1812   0.587   6.608   8.402  0.0383  0.2627 -0.0267
  105POPC   C4B 1813   0.800   6.913   8.152 -0.0073 -0.1412  0.1794
  106POPC   NC3 1814   1.634   0.534   8.889  0.1972 -0.0311 -0.0142
  106POPC   PO4 1815   1.940   0.156   8.733  0.1889  0.0718  0.1320
  106POPC   GL1 1816   1.965   0.107   8.347 -0.0768 -0.0112  0.3317
  106POPC   GL2 1817   1.814  -0.184   8.237  0.2030 -0.0635 -0.2372
  106POPC   C1A 1818   1.982   0.019   7.819  0.1863  0.0651  0.2508
  106POPC   D2A 1819   2.127  -0.228   7.529 -0.0805  0.0786  0.2465
  106POPC   C3A 1820   1.988  -0.388   7.241 -0.1038  0.1609 -0.0782
  106POPC   C4A 1821   1.812  -0.514   6.849  0.0350  0.3071 -0.0171
  106POPC   C1B 1822   1.386  -0.001   8.147 -0.1416 -0.1815 -0.1057
  106POPC   C2B 1823   1.238   0.283   7.772 -0.0506  0.1278 -0.0065
  106POPC   C3B 1824   1.046   0.499   7.504  0.2845 -0.0940  0.3512
  106POPC   C4B 1825   0.749   0.809   7.432 -0.1798  0.1206  0.0309
  107POPC   NC3 1826   6.955   9.235   9.477  0.2071 -0.2300 -0.4070
  107POPC   PO4 1827   7.183   9.593   9.554  0.1284  0.2663 -0.0017
  107POPC   GL1 1828   7.218   9.755   9.068  0.4064 -0.2061  0.2912
  107POPC   GL2 1829   7.082  10.048   8.874 -0.2758  0.0622 -0.3243
  107POPC   C1A 1830   7.442   9.760   8.560  0.0118  0.0591 -0.0075
  107POPC   D2A 1831   7.628   9.563   8.221 -0.3678 -0.0971 -0.0115
  107POPC   C3A 1832   7.435   9.220   7.961  0.0130  0.0674  0.1828
  107POPC   C4A 1833   7.663   8.988   7.609  0.1564 -0.0407 -0.0009
  107POPC   C1B 1834   7.209  10.193   8.431  0.1511  0.0177  0.2212
  107POPC   C2B 1835   7.375  10.135   7.926 -0.0846  0.2665  0.1386
  107POPC   C3B 1836   7.772  10.021   7.803  0.0027  0.1881  0.1737
  107POPC   C4B 1837   8.100   9.818   7.966 -0.1273  0.1018  0.0030
  108POPC   NC3 1838   4.295   5.873   9.331  0.0746 -0.3869 -0.0453
  108POPC   PO4 1839   4.581   5.679   9.087 -0.2454 -0.1199 -0.3172
  108POPC   GL1 1840   4.578   5.564   8.691 -0.1248 -0.0447 -0.0022
  108POPC   GL2 1841   4.924   5.502   8.710  0.1208 -0.1067  0.0423
  108POPC   C1A 1842   4.605   5.723   8.261  0.0305 -0.2512  0.2612
  108POPC   D2A 1843   4.889   5.933   7.887  0.0293 -0.0522  0.0495
  108POPC   C3A 1844   5.247   5.687   7.784 -0.1225 -0.0132  0.3057
  108POPC   C4A 1845   5.446   5.407   7.611  0.0074 -0.1517  0.0717
  108POPC   C1B 1846   4.830   5.218   8.424  0.0147  0.0625  0.3254
  108POPC   C2B 1847   4.902   5.293   8.032 -0.1097  0.0834  0.2170
  108POPC   C3B 1848   4.923   5.260   7.639 -0.3409  0.0546  0.0159
  108POPC   C4B 1849   5.086   5.249   7.213 -0.1348 -0.1867  0.0424
  109POPC   NC3 1850   0.062  10.069   9.137  0.1841  0.2126 -0.0767
  109POPC   PO4 1851  -0.395  10.116   9.257  0.0105  0.0082 -0.2483
  109POPC   GL1 1852  -0.415  10.002   8.794 -0.5508  0.1014  0.2975
  109POPC   GL2 1853  -0.374  10.220   8.562  0.3931 -0.1078  0.0003
  109POPC   C1A 1854  -0.380   9.772   8.519  0.0714  0.2117  0.0540
  109POPC   D2A 1855  -0.191   9.761   8.107 -0.0545  0.1530  0.3586
  109POPC   C3A 1856  -0.085   9.545   7.690  0.1753  0.3302 -0.1472
  109POPC   C4A 1857   0.183   9.154   7.599 -0.1799  0.1627 -0.0861
  109POPC   C1B 1858   0.008  10.053   8.446 -0.1316 -0.3595 -0.1540
  109POPC   C2B 1859   0.040  10.156   7.903 -0.0380  0.4089  0.3846
  109POPC   C3B 1860  -0.008  10.443   7.651  0.0273 -0.1063  0.0589
  109POPC   C4B 1861  -0.153  10.435   7.192  0.0236  0.1572 -0.2496
  110POPC   NC3 1862   3.251   5.527   9.135 -0.4021  0.0043 -0.1772
  110POPC   PO4 1863   3.639   5.222   8.880 -0.0498 -0.2377 -0.1101
  110POPC   GL1 1864   3.339   5.293   8.563 -0.2856 -0.1056  0.1160
  110POPC   GL2 1865   3.178   5.030   8.541  0.1264 -0.2066 -0.0595
  110POPC   C1A 1866   3.149   5.346   8.133 -0.0263  0.0145  0.0053
  110POPC   D2A 1867   3.208   5.280   7.708 -0.2175  0.0511  0.1504
  110POPC   C3A 1868   3.191   5.586   7.517  0.1952  0.0718  0.1711
  110POPC   C4A 1869   3.408   5.911   7.233 -0.1692  0.1737  0.2969
  110POPC   C1B 1870   3.393   4.933   8.174  0.0038 -0.2093 -0.1723
  110POPC   C2B 1871   3.226   4.759   7.721  0.0408 -0.0619  0.0940
  110POPC   C3B 1872   3.483   4.718   7.324  0.0192 -0.0556 -0.2234
  110POPC   C4B 1873   3.720   4.704   6.933  0.1384  0.1111  0.1084
  111POPC   NC3 1874   1.101   9.171   8.939 -0.3915  0.0823  0.2228
  111POPC   PO4 1875   0.759   9.025   9.128 -0.0253 -0.3768 -0.1289
  111POPC   GL1 1876   0.652   8.842   8.681  0.3427  0.1725  0.0520
  111POPC   GL2 1877   0.419   8.471   8.780  0.1709  0.1153 -0.2761
  111POPC   C1A 1878   0.476   8.793   8.302 -0.1747  0.2553 -0.2601
  111POPC   D2A 1879   0.589   8.525   7.916 -0.0741 -0.1607  0.1712
  111POPC   C3A 1880   1.027   8.439   7.907  0.1944  0.5562 -0.3843
  111POPC   C4A 1881   1.323   8.316   8.132 -0.1148  0.0263  0.0017
  111POPC   C1B 1882   0.041   8.398   8.587 -0.1143 -0.0577  0.0439
  111POPC   C2B 1883   0.042   8.125   8.208  0.1882 -0.0678  0.0850
  111POPC   C3B 1884  -0.130   7.799   7.878 -0.1696 -0.2357  0.0410
  111POPC   C4B 1885  -0.488   7.556   7.886  0.1359 -0.0260 -0.1054
  112POPC   NC3 1886   5.338   0.265   8.745  0.0881  0.0684 -0.0851
  112POPC   PO4 1887   5.448  -0.216   8.833 -0.0287 -0.1955 -0.0444
  112POPC   GL1 1888   5.424  -0.407   8.387  0.1442  0.0055  0.1105
  112POPC   GL2 1889   5.061  -0.426   8.314  0.0862  0.0332 -0.0043
  112POPC   C1A 1890   5.565  -0.329   7.996  0.0698 -0.0930 -0.1243
  112POPC   D2A 1891   5.674  -0.257   7.622 -0.0244  0.0837 -0.0520
  112POPC   C3A 1892   5.937  -0.407   7.353  0.1485  0.1078 -0.1948
  112POPC   C4A 1893   5.943  -0.395   6.952  0.1411 -0.2291  0.1971
  112POPC   C1B 1894   5.074  -0.456   7.850 -0.1265  0.3130  0.1068
  112POPC   C2B 1895   5.174  -0.663   7.421 -0.1006  0.5763  0.1000
  112POPC   C3B 1896   5.173  -1.080   7.360  0.2334  0.0501  0.0517
  112POPC   C4B 1897   5.455  -1.324   7.309 -0.3454 -0.3525 -0.1273
  113POPC   NC3 1898   3.463  10.001   8.576  0.1503  0.3874  0.1160
  113POPC   PO4 1899   3.137   9.649   8.513 -0.1052 -0.2535 -0.1652
  113POPC   GL1 1900   3.351   9.594   8.219 -0.0340  0.0222 -0.0742
  113POPC   GL2 1901   3.290   9.236   8.214 -0.1497  0.1131 -0.2212
  113POPC   C1A 1902   3.328   9.867   7.830 -0.1959  0.3845 -0.0351
  113POPC   D2A 1903   3.116   9.884   7.528 -0.0822 -0.1692  0.2542
  113POPC   C3A 1904   2.831   9.703   7.293 -0.1152 -0.0499  0.0870
  113POPC   C4A 1905   2.464   9.922   7.086  0.0109  0.1754 -0.2321
  113POPC   C1B 1906   3.308   9.281   7.830 -0.3631 -0.2189 -0.0524
  113POPC   C2B 1907   3.274   9.447   7.463  0.0784  0.0657  0.1572
  113POPC   C3B 1908   3.200   9.467   7.008 -0.2966 -0.2616 -0.2298
  113POPC   C4B 1909   3.444   9.785   6.835 -0.3294  0.2302  0.3167
  114POPC   NC3 1910   4.461   2.707   9.030  0.0459  0.0513 -0.2261
  114POPC   PO4 1911   4.861   2.814   9.127  0.0126 -0.0704  0.0150
  114POPC   GL1 1912   5.052   2.702   8.779 -0.1164 -0.2230  0.0126
  114POPC   GL2 1913   5.247   2.499   8.599 -0.1696 -0.0169 -0.1420
  114POPC   C1A 1914   5.204   2.970   8.419  0.1712  0.0096 -0.0330
  114POPC   D2A 1915   4.993   2.813   8.131  0.1200 -0.1364  0.3560
  114POPC   C3A 1916   5.216   2.822   7.671 -0.0659  0.0119 -0.2136
  114POPC   C4A 1917   5.512   2.990   7.413  0.2895  0.0151 -0.0189
  114POPC   C1B 1918   5.063   2.155   8.438  0.1902 -0.2973 -0.1463
  114POPC   C2B 1919   5.220   1.881   8.202  0.1519  0.2279  0.0261
  114POPC   C3B 1920   5.506   1.585   7.892  0.1238  0.1269 -0.0525
  114POPC   C4B 1921   5.614   1.413   7.535  0.0510 -0.1124 -0.0358
  115POPC   NC3 1922   8.880   0.861   9.177  0.0485 -0.1627 -0.1218
  115POPC   PO4 1923   8.991   0.448   9.306  0.4432  0.4590  0.0591
  115POPC   GL1 1924   8.821   0.382   8.904  0.1206 -0.0845  0.3752
  115POPC   GL2 1925   8.498   0.417   9.000 -0.3281  0.0283 -0.0918
  115POPC   C1A 1926   8.634   0.511   8.469  0.5088  0.0296  0.3468
  115POPC   D2A 1927   8.286   0.458   8.234  0.1927 -0.0457 -0.1286
  115POPC   C3A 1928   7.922   0.215   8.082 -0.0215  0.2572 -0.0377
  115POPC   C4A 1929   7.710  -0.103   8.284 -0.0883  0.3076  0.2109
  115POPC   C1B 1930   8.339   0.185   8.712  0.0285  0.1773  0.1795
  115POPC   C2B 1931   8.319  -0.035   8.368 -0.0756  0.0273 -0.1411
  115POPC   C3B 1932   8.572  -0.241   7.966 -0.0980 -0.2159 -0.2766
  115POPC   C4B 1933   8.539  -0.388   7.474  0.2454 -0.0112 -0.1711
  116POPC   NC3 1934   6.546   6.496  10.102  0.1511 -0.0755  0.1818
  116POPC   PO4 1935   6.328   6.853   9.855 -0.1917  0.1614  0.1276
  116POPC   GL1 1936   6.421   6.744   9.524  0.2644  0.1277 -0.1882
  116POPC   GL2 1937   6.527   6.974   9.306 -0.1793  0.0292  0.1635
  116POPC   C1A 1938   6.440   6.454   9.151 -0.0965 -0.1190 -0.2025
  116POPC   D2A 1939   6.618   6.174   8.972 -0.1696 -0.3694 -0.1067
  116POPC   C3A 1940   6.740   6.192   8.482 -0.2049  0.3646  0.1018
  116POPC   C4A 1941   6.629   6.064   8.050  0.2558 -0.3620  0.0026
  116POPC   C1B 1942   6.464   7.223   8.957 -0.0330  0.2506  0.0689
  116POPC   C2B 1943   6.640   7.302   8.604 -0.4053 -0.1816 -0.1689
  116POPC   C3B 1944   6.753   7.323   8.177 -0.1471 -0.0664 -0.0026
  116POPC   C4B 1945   6.627   7.033   7.937  0.0164  0.1746 -0.3173
  117POPC   NC3 1946   4.569   0.149   8.706  0.1836  0.2600  0.1424
  117POPC   PO4 1947   4.806   0.335   8.931  0.0541 -0.2492  0.1603
  117POPC   GL1 1948   4.691   0.618   8.511  0.1597 -0.3352 -0.2513
  117POPC   GL2 1949   4.893   0.426   8.384 -0.0790 -0.1978 -0.2194
  117POPC   C1A 1950   4.416   0.659   8.195 -0.1324  0.4394  0.1917
  117POPC   D2A 1951   4.469   0.670   7.764 -0.0686  0.2016 -0.0353
  117POPC   C3A 1952   4.698   0.523   7.511  0.3001 -0.1372 -0.0689
  117POPC   C4A 1953   5.091   0.302   7.122  0.2375  0.4303 -0.4130
  117POPC   C1B 1954   5.039   0.524   7.958 -0.4393  0.3309 -0.4015
  117POPC   C2B 1955   5.198   0.635   7.529 -0.0406 -0.0952  0.2463
  117POPC   C3B 1956   5.418   0.640   7.209  0.4238 -0.2026 -0.0481
  117POPC   C4B 1957   5.524   0.350   6.922  0.1260 -0.2493 -0.0374
  118POPC   NC3 1958   8.714   5.009  10.188  0.2891 -0.3787  0.2279
  118POPC   PO4 1959   8.450   4.627  10.114 -0.1158  0.2844 -0.1370
  118POPC   GL1 1960   8.536   4.803   9.776 -0.3409 -0.0924  0.1346
  118POPC   GL2 1961   8.774   4.766   9.685 -0.0961 -0.0467 -0.0129
  118POPC   C1A 1962   8.381   4.687   9.352  0.1948  0.1578 -0.1594
  118POPC   D2A 1963   8.570   4.702   8.966 -0.0923  0.1884 -0.1900
  118POPC   C3A 1964   8.687   5.051   8.676 -0.2354 -0.4249 -0.1622
  118POPC   C4A 1965   8.989   5.086   8.395 -0.0890 -0.0688  0.0492
  118POPC   C1B 1966   8.870   4.982   9.292 -0.2295  0.1468 -0.0030
  118POPC   C2B 1967   9.141   5.030   8.925  0.0288 -0.2051  0.2370
  118POPC   C3B 1968   9.399   5.267   8.575  0.1191  0.0291 -0.1134
  118POPC   C4B 1969   9.591   5.107   8.151 -0.2116 -0.3834  0.0723
  119POPC   NC3 1970   6.186   0.749   8.771  0.0564 -0.4414  0.1181
  119POPC   PO4 1971   6.351   0.267   8.784  0.1437 -0.1052 -0.2640
  119POPC   GL1 1972   6.296   0.318   8.287 -0.0884  0.0574  0.0733
  119POPC   GL2 1973   6.406   0.609   8.241  0.0206  0.2918 -0.1680
  119POPC   C1A 1974   6.433   0.173   7.786 -0.1681 -0.0589 -0.1158
  119POPC   D2A 1975   6.422   0.199   7.313 -0.0503  0.0068  0.0612
  119POPC   C3A 1976   6.471  -0.162   7.035  0.3510  0.2895 -0.0187
  119POPC   C4A 1977   6.569  -0.516   7.181 -0.2522  0.4358  0.1138
  119POPC   C1B 1978   6.406   0.928   7.956 -0.2189 -0.0392  0.2855
  119POPC   C2B 1979   6.071   1.134   7.783 -0.2326 -0.0383  0.1201
  119POPC   C3B 1980   5.740   1.151   8.139 -0.2498 -0.0927  0.0581
  119POPC   C4B 1981   5.251   1.318   8.306  0.0363  0.1620  0.1611
  120POPC   NC3 1982   1.676   7.756   8.890  0.2199 -0.2671  0.1052
  120POPC   PO4 1983   2.043   7.965   8.866  0.0246 -0.3619 -0.2309
  120POPC   GL1 1984   2.114   7.882   8.529 -0.1761 -0.0612 -0.1919
  120POPC   GL2 1985   2.310   8.103   8.353 -0.1364  0.3507  0.0803
  120POPC   C1A 1986   1.974   7.584   8.174  0.0913 -0.0065 -0.0140
  120POPC   D2A 1987   1.733   7.385   7.895  0.2059 -0.1466 -0.0411
  120POPC   C3A 1988   1.453   7.561   7.610 -0.2422 -0.1358  0.1788
  120POPC   C4A 1989   1.325   7.438   7.259 -0.3067  0.3244  0.3043
  120POPC   C1B 1990   1.982   8.085   8.106 -0.1540  0.0316  0.2165
  120POPC   C2B 1991   1.710   8.351   7.858  0.0439  0.1415 -0.0092
  120POPC   C3B 1992   1.729   8.307   7.423  0.1099 -0.1019  0.2751
  120POPC   C4B 1993   1.921   8.092   7.221 -0.0297 -0.1361  0.1614
  121POPC   NC3 1994   5.462   7.831   9.622 -0.0762  0.0382  0.3538
  121POPC   PO4 1995   5.773   8.235   9.402  0.0062  0.0864  0.0931
  121POPC   GL1 1996   5.728   8.283   8.979  0.0625 -0.1717 -0.0464
  121POPC   GL2 1997   5.461   8.142   8.806  0.1045 -0.0493  0.0176
  121POPC   C1A 1998   5.957   7.999   8.726  0.2761 -0.0113  0.0282
  121POPC   D2A 1999   6.188   8.119   8.237  0.0034 -0.4370 -0.4239
  121POPC   C3A 2000   6.438   8.030   7.899 -0.1846 -0.1854  0.4115
  121POPC   C4A 2001   6.737   7.862   7.581  0.1880  0.2482 -0.3665
  121POPC   C1B 2002   5.345   8.425   8.511 -0.0859 -0.1102 -0.1793
  121POPC   C2B 2003   5.393   8.421   8.082  0.3095 -0.3540 -0.1911
  121POPC   C3B 2004   5.319   8.294   7.668 -0.1320 -0.3751 -0.2418
  121POPC   C4B 2005   5.562   8.325   7.305 -0.0286  0.2042 -0.0378
  122POPC   NC3 2006   0.452   1.992   9.325 -0.0942 -0.1130  0.0106
  122POPC   PO4 2007   0.374   2.040   8.946  0.0148 -0.0828 -0.0794
  122POPC   GL1 2008   0.396   2.002   8.578 -0.2572 -0.2070  0.2639
  122POPC   GL2 2009   0.284   1.645   8.576 -0.1235 -0.0811  0.0889
  122POPC   C1A 2010   0.045   1.883   8.184  0.2194 -0.0442 -0.1978
  122POPC   D2A 2011  -0.145   1.976   7.789 -0.2630  0.1839  0.1254
  122POPC   C3A 2012  -0.034   1.997   7.359  0.1693 -0.4020 -0.1466
  122POPC   C4A 2013  -0.104   1.876   6.937 -0.1426  0.2264  0.5629
  122POPC   C1B 2014  -0.003   1.401   8.352  0.1994 -0.0044 -0.0817
  122POPC   C2B 2015  -0.039   1.364   7.873  0.1855  0.3226 -0.0975
  122POPC   C3B 2016  -0.307   1.078   7.584  0.1605  0.1685  0.3880
  122POPC   C4B 2017  -0.437   0.859   7.293 -0.3279  0.2008  0.2235
  123POPC   NC3 2018   0.747   0.695   8.923 -0.0510  0.2867  0.2496
  123POPC   PO4 2019   1.175   0.511   8.697  0.0041 -0.0736 -0.1137
  123POPC   GL1 2020   1.471   0.436   8.383 -0.3231  0.1086 -0.0828
  123POPC   GL2 2021   1.877   0.630   8.474  0.2013 -0.2497  0.1552
  123POPC   C1A 2022   1.643   0.404   8.028  0.0673  0.0415  0.0785
  123POPC   D2A 2023   1.700   0.511   7.626  0.0097  0.1468 -0.1438
  123POPC   C3A 2024   1.999   0.326   7.379 -0.3441 -0.1464  0.0696
  123POPC   C4A 2025   2.375   0.242   7.134 -0.0507 -0.1347  0.0020
  123POPC   C1B 2026   2.158   0.457   8.097  0.1754 -0.1169  0.1809
  123POPC   C2B 2027   2.203   0.528   7.773 -0.0743  0.0114  0.2176
  123POPC   C3B 2028   2.427   0.642   7.555 -0.2265  0.1724 -0.0508
  123POPC   C4B 2029   2.566   0.682   7.145 -0.2709 -0.1343 -0.1527
  124POPC   NC3 2030   9.353   3.943   9.409 -0.0225 -0.0348 -0.2549
  124POPC   PO4 2031   9.708   3.848   9.127 -0.5158  0.0544  0.2058
  124POPC   GL1 2032   9.648   3.934   8.846 -0.0478 -0.2548  0.0759
  124POPC   GL2 2033   9.727   3.697   8.645 -0.3183  0.1595 -0.0859
  124POPC   C1A 2034   9.769   4.238   8.545 -0.0070  0.4444  0.0844
  124POPC   D2A 2035   9.529   4.268   8.121 -0.1441  0.1873 -0.2585
  124POPC   C3A 2036   9.233   4.260   7.785  0.2767  0.0332 -0.2969
  124POPC   C4A 2037   8.816   4.315   7.569 -0.1209  0.0597 -0.0992
  124POPC   C1B 2038   9.704   3.796   8.186  0.2995  0.1753 -0.0954
  124POPC   C2B 2039   9.566   3.894   7.739  0.2073  0.4589 -0.1206
  124POPC   C3B 2040   9.269   3.789   7.502 -0.0949 -0.1846 -0.0768
  124POPC   C4B 2041   8.924   3.810   7.245  0.0663  0.3346 -0.0444
  125POPC   NC3 2042  10.188   0.890   8.749 -0.1263  0.0015  0.0464
  125POPC   PO4 2043   9.792   0.770   8.931  0.0781 -0.0398 -0.2875
  125POPC   GL1 2044   9.566   0.995   8.684 -0.2320  0.2148  0.3494
  125POPC   GL2 2045   9.828   1.066   8.399 -0.1475  0.0201 -0.0127
  125POPC   C1A 2046   9.255   1.140   8.377 -0.0468  0.0575 -0.1081
  125POPC   D2A 2047   9.064   1.234   7.995 -0.0209  0.0256  0.2885
  125POPC   C3A 2048   8.861   1.027   7.663 -0.2192 -0.1949 -0.2267
  125POPC   C4A 2049   8.702   0.777   7.382  0.0493 -0.0731 -0.1446
  125POPC   C1B 2050   9.549   0.766   8.180  0.0282  0.0218  0.0251
  125POPC   C2B 2051   9.421   0.860   7.840 -0.0102 -0.2071 -0.1253
  125POPC   C3B 2052   9.383   1.109   7.575  0.1003  0.3473 -0.0965
  125POPC   C4B 2053   9.401   1.248   7.162 -0.4259  0.1039 -0.2213
  126POPC   NC3 2054  10.037   2.058   9.089 -0.0471 -0.0556  0.0401
  126POPC   PO4 2055  10.216   1.643   9.082 -0.0469 -0.4437 -0.0079
  126POPC   GL1 2056   9.832   1.862   8.741 -0.0641 -0.1378  0.0818
  126POPC   GL2 2057   9.562   1.640   8.684  0.0023 -0.0834  0.1701
  126POPC   C1A 2058   9.745   1.817   8.253 -0.0147  0.1001 -0.0963
  126POPC   D2A 2059   9.642   1.387   7.901  0.0549  0.0063 -0.1831
  126POPC   C3A 2060   9.396   1.640   7.569  0.1056 -0.3089  0.0194
  126POPC   C4A 2061   9.723   1.737   7.405  0.2123  0.2420  0.0722
  126POPC   C1B 2062   9.297   1.400   8.766 -0.0907  0.1790 -0.2574
  126POPC   C2B 2063   8.882   1.443   8.537  0.0338  0.2812  0.0248
  126POPC   C3B 2064   8.697   1.517   8.154 -0.0684  0.3563  0.1580
  126POPC   C4B 2065   8.470   1.360   7.822 -0.2655 -0.5699 -0.1380
  127POPC   NC3 2066   2.430   5.690   8.658 -0.1912  0.0186 -0.7280
  127POPC   PO4 2067   2.320   6.090   8.734 -0.2036  0.1691  0.1399
  127POPC   GL1 2068   2.306   6.108   8.335  0.1543 -0.1239  0.1949
  127POPC   GL2 2069   2.541   5.938   8.259 -0.2563  0.0058 -0.0409
  127POPC   C1A 2070   2.149   6.321   8.012 -0.1225 -0.1057  0.1210
  127POPC   D2A 2071   2.190   6.669   7.724  0.1990 -0.3674 -0.0631
  127POPC   C3A 2072   2.260   6.568   7.402 -0.1866 -0.1112 -0.0205
  127POPC   C4A 2073   2.574   6.723   7.036 -0.1842 -0.0501  0.0820
  127POPC   C1B 2074   2.628   6.144   7.928 -0.1801 -0.0759  0.1369
  127POPC   C2B 2075   2.731   6.495   7.629  0.1412  0.0467  0.0904
  127POPC   C3B 2076   2.922   6.772   7.357  0.0570 -0.2166 -0.0411
  127POPC   C4B 2077   3.027   7.200   7.460  0.0382 -0.1622  0.0283
  128POPC   NC3 2078   4.839   4.740   9.188 -0.1525  0.3226  0.0346
  128POPC   PO4 2079   5.175   4.463   9.256  0.1734  0.0458 -0.0155
  128POPC   GL1 2080   5.414   4.301   8.933  0.2896  0.0692 -0.0194
  128POPC   GL2 2081   5.378   4.333   8.576  0.0957  0.1352  0.2400
  128POPC   C1A 2082   5.886   4.375   8.735 -0.1406  0.4058  0.0007
  128POPC   D2A 2083   6.041   4.216   8.289 -0.0177  0.1577 -0.0600
  128POPC   C3A 2084   5.743   4.321   7.956 -0.3164  0.0449  0.0328
  128POPC   C4A 2085   5.472   4.475   7.650 -0.1629  0.1343 -0.1006
  128POPC   C1B 2086   5.360   4.154   8.207 -0.1008  0.1015  0.2004
  128POPC   C2B 2087   5.161   3.877   7.882  0.3663  0.1251  0.1678
  128POPC   C3B 2088   5.204   3.672   7.372 -0.1643  0.3070 -0.0596
  128POPC   C4B 2089   5.401   3.378   7.179 -0.1945 -0.0466  0.0073
  129POPC   NC3 2090   2.067   7.226   9.046  0.0055 -0.1096  0.1812
  129POPC   PO4 2091   1.605   7.211   8.873 -0.1486  0.3914  0.0115
  129POPC   GL1 2092   1.482   7.379   8.426  0.1392 -0.2451  0.2292
  129POPC   GL2 2093   1.524   7.744   8.414  0.1109 -0.2310  0.0999
  129POPC   C1A 2094   1.254   7.385   8.085  0.0791 -0.2173  0.2749
  129POPC   D2A 2095   1.033   7.235   7.708 -0.0878 -0.2002  0.1129
  129POPC   C3A 2096   0.631   7.089   7.644  0.0045  0.0904  0.0850
  129POPC   C4A 2097   0.466   6.841   7.344  0.1448  0.1122  0.1812
  129POPC   C1B 2098   1.520   7.860   8.020 -0.0843 -0.0070 -0.2207
  129POPC   C2B 2099   1.859   7.869   7.677  0.1135  0.2589 -0.0884
  129POPC   C3B 2100   1.893   7.628   7.260  0.2146  0.1139 -0.1429
  129POPC   C4B 2101   1.838   7.287   6.968  0.0693  0.0253 -0.0095
  130POPC   NC3 2102   9.179   9.258  10.426 -0.3924  0.2495  0.0265
  130POPC   PO4 2103   9.178   9.038   9.953 -0.0598  0.0627  0.2512
  130POPC   GL1 2104   9.294   8.999   9.484 -0.1084  0.1305 -0.3046
  130POPC   GL2 2105   9.352   9.221   9.268  0.0101  0.1214  0.1395
  130POPC   C1A 2106   8.954   8.853   9.203  0.0351 -0.0612  0.1728
  130POPC   D2A 2107   8.743   8.828   8.843 -0.2446 -0.0053  0.0886
  130POPC   C3A 2108   8.934   8.634   8.452 -0.1184 -0.1934  0.1806
  130POPC   C4A 2109   8.892   8.415   8.011  0.0212  0.0164  0.2677
  130POPC   C1B 2110   9.529   8.981   9.006 -0.2125  0.1515  0.1557
  130POPC   C2B 2111   9.388   8.831   8.609  0.1353 -0.1617  0.0152
  130POPC   C3B 2112   9.361   8.921   8.125 -0.0259  0.0565  0.1224
  130POPC   C4B 2113   9.324   8.712   7.736 -0.0387  0.0977 -0.1976
  131POPC   NC3 2114   6.876   1.162   9.245  0.0121 -0.0119 -0.0372
  131POPC   PO4 2115   7.239   0.874   9.254  0.2088 -0.0661 -0.0372
  131POPC   GL1 2116   7.153   0.989   8.797  0.2752 -0.0973 -0.0180
  131POPC   GL2 2117   7.031   1.267   8.728  0.1019 -0.1966  0.0581
  131POPC   C1A 2118   7.229   0.928   8.426 -0.1011  0.0402 -0.4080
  131POPC   D2A 2119   6.996   0.810   8.049  0.0898  0.1007  0.3558
  131POPC   C3A 2120   6.777   1.124   7.689  0.0917 -0.1035 -0.1019
  131POPC   C4A 2121   6.575   1.384   7.437 -0.0948  0.3284 -0.1744
  131POPC   C1B 2122   7.372   1.445   8.554 -0.0368  0.2461 -0.0946
  131POPC   C2B 2123   7.339   1.607   8.103 -0.0967 -0.2895  0.1193
  131POPC   C3B 2124   7.281   2.005   7.836 -0.0504  0.0032  0.4453
  131POPC   C4B 2125   6.950   2.291   7.602 -0.0165  0.0867 -0.3916
  132POPC   NC3 2126   1.154   2.818   8.988 -0.0467  0.1547  0.0121
  132POPC   PO4 2127   1.178   2.369   8.961 -0.2526  0.2103 -0.1329
  132POPC   GL1 2128   1.068   2.129   8.554  0.1787 -0.1091  0.2397
  132POPC   GL2 2129   1.388   2.220   8.437 -0.0894 -0.0993 -0.0193
  132POPC   C1A 2130   0.686   2.343   8.256  0.1192  0.1557 -0.0094
  132POPC   D2A 2131   0.345   2.219   7.948  0.1200 -0.1596  0.0411
  132POPC   C3A 2132   0.518   2.060   7.477  0.2171 -0.0464 -0.0084
  132POPC   C4A 2133   0.370   1.720   7.119  0.1588 -0.1677  0.2694
  132POPC   C1B 2134   1.305   2.485   8.028  0.2194 -0.0245 -0.1245
  132POPC   C2B 2135   1.021   2.443   7.913 -0.1931  0.1574  0.1395
  132POPC   C3B 2136   0.696   2.495   7.682 -0.2163  0.3181 -0.3511
  132POPC   C4B 2137   0.330   2.622   7.435  0.0788 -0.0438 -0.4008
  133POPC   NC3 2138   2.388   6.599   9.091  0.0557 -0.1505  0.1626
  133POPC   PO4 2139   2.035   6.272   9.097 -0.0836  0.4146  0.1423
  133POPC   GL1 2140   1.749   6.268   8.778  0.1676 -0.1524  0.1746
  133POPC   GL2 2141   1.617   5.956   8.602  0.2592  0.1310 -0.1400
  133POPC   C1A 2142   1.799   6.452   8.377  0.0690 -0.2515  0.1696
  133POPC   D2A 2143   1.612   6.515   7.975  0.0877 -0.0012 -0.0198
  133POPC   C3A 2144   1.699   6.880   7.775 -0.2868  0.1022 -0.1777
  133POPC   C4A 2145   1.950   7.177   7.506  0.1621 -0.0044 -0.1025
  133POPC   C1B 2146   1.799   5.990   8.273 -0.0568  0.1143  0.2206
  133POPC   C2B 2147   1.741   5.979   7.814 -0.4083  0.3250 -0.0177
  133POPC   C3B 2148   1.615   5.869   7.347 -0.0770  0.2347  0.0039
  133POPC   C4B 2149   1.240   5.769   7.138 -0.0213  0.0009 -0.0210
  134POPC   NC3 2150   3.724   6.232   8.665 -0.0447 -0.0329  0.0250
  134POPC   PO4 2151   3.710   6.652   8.726 -0.0590 -0.2075  0.5055
  134POPC   GL1 2152   3.784   6.563   8.298 -0.1062 -0.1565 -0.2103
  134POPC   GL2 2153   4.038   6.337   8.264  0.0931 -0.1254 -0.2114
  134POPC   C1A 2154   3.891   6.757   7.951 -0.0416 -0.0918  0.3070
  134POPC   D2A 2155   3.937   7.101   7.804  0.0437  0.2493  0.0535
  134POPC   C3A 2156   4.125   7.101   7.390 -0.0043 -0.3697 -0.1804
  134POPC   C4A 2157   4.235   7.121   6.910 -0.3064  0.0777 -0.3936
  134POPC   C1B 2158   3.929   6.222   7.800 -0.0474  0.3923  0.3083
  134POPC   C2B 2159   3.718   6.283   7.504 -0.1714  0.1972  0.1160
  134POPC   C3B 2160   3.309   6.507   7.606 -0.1022  0.0910  0.1094
  134POPC   C4B 2161   3.048   6.713   7.928 -0.2750  0.0329  0.1379
  135POPC   NC3 2162   6.792   2.180   9.124  0.0504 -0.2583 -0.1941
  135POPC   PO4 2163   6.323   2.216   9.176 -0.0562  0.0873 -0.1612
  135POPC   GL1 2164   6.489   2.436   8.832  0.2383 -0.2326 -0.2466
  135POPC   GL2 2165   6.690   2.575   8.875  0.2017 -0.0944  0.0531
  135POPC   C1A 2166   6.294   2.362   8.396  0.0133  0.2139 -0.1685
  135POPC   D2A 2167   6.188   1.937   8.380  0.3311  0.2907  0.2514
  135POPC   C3A 2168   6.026   1.620   8.051 -0.1683 -0.1764 -0.0187
  135POPC   C4A 2169   6.134   1.587   7.540  0.1907  0.1299  0.0725
  135POPC   C1B 2170   6.622   2.754   8.480  0.2764 -0.1489  0.0413
  135POPC   C2B 2171   6.695   3.001   8.078 -0.0409 -0.0851  0.0907
  135POPC   C3B 2172   6.542   3.027   7.624  0.3703 -0.1777  0.0693
  135POPC   C4B 2173   6.535   2.876   7.247 -0.0700 -0.0138  0.0119
  136POPC   NC3 2174   1.262   5.026   9.333 -0.2886 -0.1079  0.0087
  136POPC   PO4 2175   1.077   4.725   9.304  0.2132 -0.1285 -0.0387
  136POPC   GL1 2176   1.053   4.826   8.805 -0.1543  0.1455  0.1288
  136POPC   GL2 2177   1.323   4.980   8.819  0.2658 -0.4248 -0.5838
  136POPC   C1A 2178   1.008   4.897   8.366 -0.1183 -0.0594 -0.2044
  136POPC   D2A 2179   1.137   4.803   8.006 -0.1709 -0.2033 -0.0763
  136POPC   C3A 2180   1.432   5.042   7.716 -0.1003  0.0599  0.3168
  136POPC   C4A 2181   1.539   5.391   7.405  0.1832  0.1276  0.1944
  136POPC   C1B 2182   1.325   5.290   8.511 -0.0897 -0.0148  0.0451
  136POPC   C2B 2183   1.599   5.405   8.284  0.0275 -0.0802 -0.2225
  136POPC   C3B 2184   1.719   5.459   7.899 -0.1614  0.5524  0.1009
  136POPC   C4B 2185   1.965   5.619   7.453 -0.3603  0.4381  0.0334
  137POPC   NC3 2186   3.343   6.614   9.159  0.0385  0.1329  0.2144
  137POPC   PO4 2187   3.249   6.511   8.765  0.1935  0.2249  0.1388
  137POPC   GL1 2188   3.330   6.547   8.471  0.2842  0.3862  0.0805
  137POPC   GL2 2189   3.361   6.972   8.247 -0.1851  0.1532  0.2731
  137POPC   C1A 2190   3.411   6.183   8.066 -0.0139  0.0775  0.1605
  137POPC   D2A 2191   3.511   5.893   7.800  0.4120 -0.1461  0.2237
  137POPC   C3A 2192   3.600   5.518   7.809  0.1070  0.1811 -0.2135
  137POPC   C4A 2193   3.816   5.311   8.244 -0.0893 -0.1921  0.3638
  137POPC   C1B 2194   3.414   7.070   7.773  0.1745  0.1651  0.1539
  137POPC   C2B 2195   3.669   6.851   7.430  0.3291  0.1291 -0.2502
  137POPC   C3B 2196   3.354   6.680   7.118 -0.0691  0.0407 -0.2973
  137POPC   C4B 2197   3.067   6.352   7.112 -0.2540  0.1491 -0.2614
  138POPC   NC3 2198   6.690   3.617   9.717 -0.1728  0.0671 -0.1129
  138POPC   PO4 2199   6.566   4.063   9.572  0.2801  0.0212 -0.2192
  138POPC   GL1 2200   6.741   4.282   9.257 -0.1039  0.2364  0.1293
  138POPC   GL2 2201   6.868   4.441   9.365 -0.0338 -0.1503 -0.3065
  138POPC   C1A 2202   6.698   4.342   8.804  0.2688  0.1081  0.2169
  138POPC   D2A 2203   6.380   4.360   8.578  0.2532 -0.1663 -0.0615
  138POPC   C3A 2204   6.454   4.530   8.114 -0.2464  0.2342 -0.2396
  138POPC   C4A 2205   6.760   4.640   7.811 -0.1904 -0.0048  0.0373
  138POPC   C1B 2206   7.187   4.432   8.945 -0.1856 -0.3589 -0.1087
  138POPC   C2B 2207   7.158   4.638   8.546 -0.2030 -0.0744 -0.1396
  138POPC   C3B 2208   6.814   4.876   8.293 -0.3136  0.1793 -0.3113
  138POPC   C4B 2209   6.496   4.999   8.063 -0.0809 -0.1069 -0.0209
  139POPC   NC3 2210   5.100   9.516   8.752 -0.0176  0.0515  0.4422
  139POPC   PO4 2211   4.807   9.133   8.664 -0.0549 -0.1623 -0.1905
  139POPC   GL1 2212   4.859   9.257   8.270 -0.1288 -0.3602 -0.0709
  139POPC   GL2 2213   5.249   9.318   8.296  0.0157  0.1400  0.1178
  139POPC   C1A 2214   4.771   9.200   7.828  0.3010  0.1781 -0.1133
  139POPC   D2A 2215   4.615   9.235   7.453 -0.3541  0.0635  0.2956
  139POPC   C3A 2216   4.831   9.157   6.961  0.0245 -0.0817  0.1691
  139POPC   C4A 2217   5.274   9.152   6.884 -0.2169 -0.0688  0.2936
  139POPC   C1B 2218   5.578   9.312   7.946  0.2805 -0.0997 -0.3034
  139POPC   C2B 2219   5.716   9.431   7.671  0.0541 -0.5165 -0.0907
  139POPC   C3B 2220   5.691   9.363   7.166 -0.0351  0.1782 -0.0629
  139POPC   C4B 2221   5.735   9.443   6.623  0.2274 -0.0905 -0.0396
  140POPC   NC3 2222   3.742   0.640   8.774 -0.1396  0.0723 -0.1186
  140POPC   PO4 2223   4.255   0.557   8.795 -0.1992 -0.0719  0.2013
  140POPC   GL1 2224   4.037   0.417   8.374 -0.2966  0.1755 -0.0380
  140POPC   GL2 2225   3.688   0.488   8.217 -0.2622 -0.0195  0.0479
  140POPC   C1A 2226   4.219   0.204   7.961 -0.0441  0.1841 -0.2206
  140POPC   D2A 2227   4.616  -0.022   7.754  0.2703  0.4189 -0.1309
  140POPC   C3A 2228   5.047   0.122   7.665  0.1708  0.0300 -0.1532
  140POPC   C4A 2229   5.243   0.057   8.151 -0.1316  0.0564 -0.2417
  140POPC   C1B 2230   3.442   0.639   7.901  0.1813  0.1174 -0.0182
  140POPC   C2B 2231   3.412   1.068   7.902  0.2213  0.1872 -0.4328
  140POPC   C3B 2232   2.915   1.171   7.817 -0.0411 -0.3836  0.0916
  140POPC   C4B 2233   2.676   1.145   7.538  0.3510 -0.3563  0.5169
  141POPC   NC3 2234   8.774  10.094  10.042 -0.0484  0.1561 -0.1577
  141POPC   PO4 2235   8.347  10.017   9.852  0.2916 -0.0399  0.0684
  141POPC   GL1 2236   8.194   9.784   9.490  0.1813  0.0917  0.1536
  141POPC   GL2 2237   8.007   9.523   9.369 -0.0442  0.0770 -0.0636
  141POPC   C1A 2238   8.527   9.686   9.200  0.3256  0.1127 -0.0946
  141POPC   D2A 2239   8.788   9.401   9.043 -0.0011  0.1952 -0.0342
  141POPC   C3A 2240   9.117   9.258   8.839  0.3889  0.1097  0.1911
  141POPC   C4A 2241   9.313   9.310   8.411  0.1147  0.2616  0.0498
  141POPC   C1B 2242   8.205   9.396   8.913  0.0725 -0.2950  0.2635
  141POPC   C2B 2243   8.530   9.147   8.558 -0.0323  0.0523 -0.2184
  141POPC   C3B 2244   8.853   9.092   8.258 -0.1781 -0.0856  0.2414
  141POPC   C4B 2245   8.870   8.983   7.891  0.2171 -0.2228 -0.0807
  142POPC   NC3 2246   1.362   4.169   8.928 -0.0324  0.0275 -0.4359
  142POPC   PO4 2247   1.523   4.557   9.067  0.0441  0.0693 -0.2458
  142POPC   GL1 2248   1.586   4.629   8.629  0.2699 -0.0502  0.1301
  142POPC   GL2 2249   1.332   4.488   8.484 -0.0821  0.0565 -0.1381
  142POPC   C1A 2250   1.608   4.778   8.184 -0.0864  0.2370  0.0433
  142POPC   D2A 2251   1.839   4.995   7.970 -0.0288  0.1682  0.1093
  142POPC   C3A 2252   1.793   4.720   7.694  0.0032  0.0569  0.1123
  142POPC   C4A 2253   1.690   4.551   7.198 -0.1390 -0.2361 -0.0210
  142POPC   C1B 2254   1.199   4.315   8.131  0.4283  0.0470 -0.0609
  142POPC   C2B 2255   0.880   4.291   7.836  0.0908  0.2318 -0.0852
  142POPC   C3B 2256   0.788   4.148   7.369 -0.0288  0.0589  0.0540
  142POPC   C4B 2257   0.822   4.087   6.801  0.3084  0.0907  0.2334
  143POPC   NC3 2258   4.804   8.362   9.416 -0.1123  0.1957  0.3700
  143POPC   PO4 2259   4.601   8.166   9.003  0.2478  0.0670 -0.3429
  143POPC   GL1 2260   4.599   8.017   8.525  0.2056  0.1529  0.0083
  143POPC   GL2 2261   4.830   8.285   8.418 -0.0912 -0.0360  0.2640
  143POPC   C1A 2262   4.510   8.132   8.020 -0.5079  0.2088  0.4113
  143POPC   D2A 2263   4.739   8.205   7.608  0.0151  0.1546  0.3035
  143POPC   C3A 2264   4.943   8.624   7.536 -0.3757 -0.1341  0.1119
  143POPC   C4A 2265   5.170   8.888   7.825 -0.1840  0.1037 -0.3363
  143POPC   C1B 2266   5.000   8.037   8.062 -0.0080 -0.2813  0.1117
  143POPC   C2B 2267   5.084   7.795   7.677  0.3490 -0.0390  0.1433
  143POPC   C3B 2268   5.020   7.514   7.303  0.3049 -0.2080  0.1087
  143POPC   C4B 2269   4.704   7.363   6.947 -0.1171  0.1714 -0.1894
  144POPC   NC3 2270   2.341   3.848   8.874  0.1415 -0.0938 -0.1642
  144POPC   PO4 2271   2.042   3.875   8.522 -0.0832  0.0759  0.5584
  144POPC   GL1 2272   2.378   3.825   8.215 -0.1601 -0.0663  0.1176
  144POPC   GL2 2273   2.612   3.918   8.490 -0.0035 -0.0682 -0.1098
  144POPC   C1A 2274   2.576   3.535   7.813  0.0467 -0.1540  0.0072
  144POPC   D2A 2275   2.719   3.601   7.372  0.2751  0.2211  0.3035
  144POPC   C3A 2276   2.877   4.011   7.215 -0.0411  0.1509 -0.0389
  144POPC   C4A 2277   3.189   4.136   7.017  0.0318  0.0542  0.0398
  144POPC   C1B 2278   2.803   4.049   8.123 -0.3095  0.4176  0.0337
  144POPC   C2B 2279   3.018   4.311   7.804  0.3281  0.1489 -0.2780
  144POPC   C3B 2280   3.362   4.197   7.537 -0.0913  0.0943 -0.0879
  144POPC   C4B 2281   3.628   4.127   7.282 -0.1389  0.1000 -0.0111
  145POPC   NC3 2282   2.048   9.414   8.820  0.1451  0.3551  0.1187
  145POPC   PO4 2283   2.305   9.722   8.947  0.0397 -0.1108 -0.0541
  145POPC   GL1 2284   2.370  10.052   8.564 -0.1871  0.0913  0.0415
  145POPC   GL2 2285   2.625  10.204   8.332  0.0518 -0.1219 -0.0480
  145POPC   C1A 2286   2.331   9.908   8.089 -0.1274  0.2564 -0.1779
  145POPC   D2A 2287   2.574   9.527   7.945 -0.0128 -0.0752 -0.0371
  145POPC   C3A 2288   2.804   9.258   7.592  0.0798  0.2228  0.3787
  145POPC   C4A 2289   2.989   9.013   7.150  0.3012  0.0144  0.0279
  145POPC   C1B 2290   2.663  10.447   7.901  0.1147 -0.2039  0.2362
  145POPC   C2B 2291   2.714  10.434   7.498  0.2945  0.2848  0.0279
  145POPC   C3B 2292   2.992  10.246   7.233  0.3836 -0.0827  0.1447
  145POPC   C4B 2293   3.513  10.141   7.241  0.2789 -0.2340  0.1267
  146POPC   NC3 2294   5.792   0.557   9.323  0.0008  0.2291  0.1358
  146POPC   PO4 2295   5.877   0.314   8.892 -0.3926 -0.2123  0.0136
  146POPC   GL1 2296   5.858   0.335   8.462 -0.4778 -0.1223 -0.2258
  146POPC   GL2 2297   5.698   0.080   8.401  0.5416  0.1246 -0.2306
  146POPC   C1A 2298   5.945   0.688   8.161 -0.3907 -0.1130 -0.0803
  146POPC   D2A 2299   6.155   0.601   7.714  0.0315 -0.2541  0.1862
  146POPC   C3A 2300   6.219   0.828   7.374  0.0492  0.0369  0.2626
  146POPC   C4A 2301   5.960   0.634   6.982 -0.0336  0.3050  0.1515
  146POPC   C1B 2302   5.958   0.210   7.962  0.1889 -0.3656  0.0956
  146POPC   C2B 2303   5.954   0.170   7.608 -0.2120 -0.0208  0.0802
  146POPC   C3B 2304   5.982   0.069   7.164  0.0802  0.1705  0.3292
  146POPC   C4B 2305   6.046   0.106   6.616  0.2899 -0.0299  0.0443
  147POPC   NC3 2306   1.019   8.224   9.374 -0.0179 -0.0474  0.1510
  147POPC   PO4 2307   1.362   8.188   8.985  0.1185 -0.0289  0.2275
  147POPC   GL1 2308   1.074   8.305   8.646 -0.1105 -0.2369 -0.2126
  147POPC   GL2 2309   1.015   8.532   8.515 -0.0337  0.0238  0.0832
  147POPC   C1A 2310   0.915   7.954   8.359 -0.1713 -0.0680  0.0500
  147POPC   D2A 2311   1.037   7.885   7.906  0.0445  0.2626  0.2241
  147POPC   C3A 2312   1.327   8.104   7.656 -0.0571 -0.2162  0.2854
  147POPC   C4A 2313   1.420   7.986   7.226  0.0638  0.1348 -0.0970
  147POPC   C1B 2314   0.998   8.850   8.235  0.4142 -0.4338  0.0544
  147POPC   C2B 2315   0.872   8.925   7.858  0.1048  0.0907  0.1781
  147POPC   C3B 2316   0.589   8.817   7.483  0.0341 -0.1173 -0.0379
  147POPC   C4B 2317   0.340   8.516   7.293  0.1187  0.1197 -0.0310
  148POPC   NC3 2318   9.700   0.296   8.982  0.2644 -0.2135 -0.0362
  148POPC   PO4 2319  10.169   0.328   8.994  0.0515  0.0820 -0.0277
  148POPC   GL1 2320  10.178   0.438   8.652 -0.0969 -0.1437  0.1518
  148POPC   GL2 2321  10.020   0.583   8.387  0.2373 -0.0127  0.1478
  148POPC   C1A 2322  10.370   0.322   8.235  0.3602 -0.1801 -0.0425
  148POPC   D2A 2323  10.688  -0.056   8.206 -0.2230  0.1137  0.3113
  148POPC   C3A 2324  11.019  -0.225   7.867 -0.1781  0.1745  0.1958
  148POPC   C4A 2325  11.180  -0.452   7.421  0.1602  0.1942  0.0265
  148POPC   C1B 2326   9.810   0.293   8.141 -0.0351 -0.1915 -0.0599
  148POPC   C2B 2327   9.741  -0.004   7.881 -0.4238  0.0319 -0.0437
  148POPC   C3B 2328   9.865  -0.210   7.520 -0.0769  0.0063  0.2420
  148POPC   C4B 2329  10.153  -0.473   7.254  0.0219 -0.3730  0.1264
  149POPC   NC3 2330   1.877   8.939   8.637 -0.2647 -0.1818  0.0809
  149POPC   PO4 2331   2.167   8.489   8.638 -0.2548 -0.1705 -0.5085
  149POPC   GL1 2332   1.927   8.639   8.247 -0.3785  0.2888  0.0240
  149POPC   GL2 2333   1.578   8.685   8.259  0.0669 -0.0662  0.1190
  149POPC   C1A 2334   1.935   8.862   7.843 -0.0735 -0.2073 -0.2747
  149POPC   D2A 2335   1.740   9.033   7.584  0.0042  0.0683 -0.0861
  149POPC   C3A 2336   1.937   9.168   7.178 -0.0715 -0.0959 -0.1469
  149POPC   C4A 2337   2.244   9.446   6.964 -0.0793 -0.0810  0.1404
  149POPC   C1B 2338   1.391   8.740   7.877  0.0782 -0.3333 -0.0550
  149POPC   C2B 2339   1.358   8.651   7.470 -0.1003 -0.0292 -0.2211
  149POPC   C3B 2340   1.082   8.402   7.325  0.0261 -0.0015  0.0759
  149POPC   C4B 2341   0.749   8.192   7.544 -0.1000  0.1909 -0.2134
  150POPC   NC3 2342   5.318   5.242   9.425  0.0040  0.1127  0.0738
  150POPC   PO4 2343   4.920   5.249   9.150  0.1665  0.0376 -0.0946
  150POPC   GL1 2344   5.195   5.119   8.867  0.0283 -0.2409  0.1619
  150POPC   GL2 2345   5.250   4.830   8.784 -0.1156  0.1654  0.2519
  150POPC   C1A 2346   5.314   5.142   8.386 -0.0051  0.0436  0.2647
  150POPC   D2A 2347   5.385   5.264   8.040 -0.0826  0.0349 -0.1409
  150POPC   C3A 2348   5.675   5.018   7.937 -0.5730 -0.3252  0.1377
  150POPC   C4A 2349   6.098   4.877   7.721  0.0078  0.0579  0.0739
  150POPC   C1B 2350   4.953   4.766   8.483  0.0248  0.3982 -0.0517
  150POPC   C2B 2351   4.675   4.849   8.046 -0.0477  0.2883  0.0421
  150POPC   C3B 2352   4.473   5.037   7.705  0.3716 -0.0393 -0.0663
  150POPC   C4B 2353   4.597   5.039   7.313 -0.0790  0.1939  0.1513
  151POPC   NC3 2354   5.757   2.186   9.036  0.1299  0.2455 -0.1512
  151POPC   PO4 2355   5.787   1.793   8.805  0.0288  0.2252  0.3299
  151POPC   GL1 2356   5.688   2.100   8.439  0.2591  0.2314 -0.0386
  151POPC   GL2 2357   5.733   2.447   8.441  0.1739 -0.0885  0.0732
  151POPC   C1A 2358   5.755   2.028   8.014 -0.2503 -0.0228  0.0776
  151POPC   D2A 2359   5.568   1.955   7.609 -0.0261  0.1719  0.1833
  151POPC   C3A 2360   5.779   1.847   7.276 -0.2884 -0.1023 -0.4545
  151POPC   C4A 2361   5.695   1.539   7.030  0.3184 -0.1114 -0.0415
  151POPC   C1B 2362   5.432   2.579   8.196  0.1197  0.2542 -0.2469
  151POPC   C2B 2363   5.235   2.367   7.913  0.4589 -0.0636  0.0996
  151POPC   C3B 2364   5.191   2.228   7.492 -0.3155  0.4756 -0.2412
  151POPC   C4B 2365   4.776   2.048   7.289  0.0842 -0.4701 -0.3097
  152POPC   NC3 2366   2.847   6.208   8.639 -0.0338  0.0592 -0.1078
  152POPC   PO4 2367   2.920   5.870   8.928  0.2508 -0.0203  0.0381
  152POPC   GL1 2368   3.143   5.807   8.533  0.0757 -0.0884 -0.0238
  152POPC   GL2 2369   2.883   5.616   8.489 -0.0245 -0.1830 -0.0691
  152POPC   C1A 2370   3.484   5.727   8.284  0.0117  0.1842  0.1399
  152POPC   D2A 2371   3.935   5.834   8.253  0.1005 -0.0417 -0.1741
  152POPC   C3A 2372   4.127   5.725   7.936  0.2269 -0.1366 -0.1399
  152POPC   C4A 2373   4.485   5.568   7.810  0.0870 -0.1944  0.0341
  152POPC   C1B 2374   3.001   5.895   8.048 -0.1753 -0.0313 -0.2452
  152POPC   C2B 2375   3.044   6.022   7.590  0.0264 -0.0417  0.2331
  152POPC   C3B 2376   2.680   6.129   7.292 -0.1400  0.4460  0.0158
  152POPC   C4B 2377   2.208   6.038   7.139 -0.0890  0.1669  0.4071
  153POPC   NC3 2378   0.911   1.909   8.943  0.0812  0.5529  0.0522
  153POPC   PO4 2379   0.556   1.582   9.010 -0.2559 -0.2016  0.0192
  153POPC   GL1 2380   0.781   1.514   8.631 -0.0083 -0.0387 -0.0731
  153POPC   GL2 2381   0.713   1.235   8.389 -0.0429  0.3307 -0.0341
  153POPC   C1A 2382   0.735   1.839   8.252  0.0514  0.0407 -0.1153
  153POPC   D2A 2383   0.722   1.848   7.868 -0.0467  0.2816  0.0186
  153POPC   C3A 2384   0.760   1.575   7.460 -0.0401 -0.2474 -0.1418
  153POPC   C4A 2385   0.485   1.295   7.383  0.0849 -0.2074 -0.0603
  153POPC   C1B 2386   0.409   1.554   8.056  0.2460  0.3143 -0.0746
  153POPC   C2B 2387   0.298   1.667   7.625  0.1070  0.2225  0.1586
  153POPC   C3B 2388  -0.048   1.443   7.391 -0.1152 -0.3350  0.0149
  153POPC   C4B 2389  -0.301   1.385   7.020 -0.1335  0.2552 -0.0088
  154POPC   NC3 2390   4.608   2.078   9.646 -0.1165  0.1502 -0.0437
  154POPC   PO4 2391   4.676   2.341   9.285 -0.1311 -0.0888  0.0927
  154POPC   GL1 2392   4.762   2.221   8.858  0.0896  0.1246  0.2288
  154POPC   GL2 2393   4.510   2.405   8.644  0.0445 -0.2020 -0.3158
  154POPC   C1A 2394   4.662   1.867   8.621 -0.0375  0.1045 -0.0041
  154POPC   D2A 2395   4.723   1.934   8.168 -0.2086  0.0828  0.1633
  154POPC   C3A 2396   4.871   1.948   7.788  0.2120  0.1296 -0.0421
  154POPC   C4A 2397   5.166   1.649   7.453  0.3314  0.2325 -0.0597
  154POPC   C1B 2398   4.589   2.514   8.269  0.3184 -0.0194  0.0493
  154POPC   C2B 2399   4.693   2.451   7.858  0.3080 -0.3183  0.0181
  154POPC   C3B 2400   4.794   2.620   7.434 -0.1297  0.1535 -0.2124
  154POPC   C4B 2401   5.042   2.562   7.156  0.0328 -0.1102 -0.0890
  155POPC   NC3 2402   4.446   9.529   8.495 -0.1203  0.1583  0.0021
  155POPC   PO4 2403   4.616   9.836   8.535 -0.0795 -0.1055  0.3771
  155POPC   GL1 2404   4.605   9.685   8.008  0.0194  0.2299 -0.0384
  155POPC   GL2 2405   4.303   9.597   7.948  0.1524 -0.2803 -0.1666
  155POPC   C1A 2406   4.659   9.723   7.516 -0.2059  0.3944  0.1525
  155POPC   D2A 2407   4.729   9.608   7.064 -0.0755 -0.1101  0.1349
  155POPC   C3A 2408   4.950   9.906   6.729  0.0777  0.2243  0.1821
  155POPC   C4A 2409   5.237  10.207   6.721 -0.1577  0.2337  0.2471
  155POPC   C1B 2410   4.170   9.414   7.602 -0.2577  0.0458  0.2101
  155POPC   C2B 2411   4.170   9.723   7.272 -0.1029  0.2298  0.0545
  155POPC   C3B 2412   3.951   9.784   6.867 -0.0709 -0.0095 -0.3815
  155POPC   C4B 2413   3.830   9.725   6.447  0.0971  0.2503 -0.0064
  156POPC   NC3 2414   6.090   5.054  10.009  0.2268  0.0814  0.1421
  156POPC   PO4 2415   6.178   4.639   9.923 -0.2159 -0.1692 -0.1705
  156POPC   GL1 2416   6.482   4.737   9.498 -0.2402 -0.2562 -0.0423
  156POPC   GL2 2417   6.716   4.998   9.264 -0.1646  0.3138  0.0335
  156POPC   C1A 2418   6.400   4.644   9.062  0.1450 -0.1066  0.3894
  156POPC   D2A 2419   6.386   4.882   8.634 -0.1871 -0.4653  0.2226
  156POPC   C3A 2420   6.006   4.776   8.303  0.1427  0.2014  0.1683
  156POPC   C4A 2421   5.532   4.721   8.360  0.2131  0.0135 -0.1895
  156POPC   C1B 2422   6.308   5.235   9.001 -0.2637  0.1153  0.1490
  156POPC   C2B 2423   6.032   5.500   8.843 -0.0428 -0.2372  0.2572
  156POPC   C3B 2424   5.967   5.767   8.589  0.2118 -0.2131  0.0122
  156POPC   C4B 2425   5.861   6.179   8.495 -0.3698  0.1648  0.0730
  157POPC   NC3 2426   4.507   2.479   5.182  0.0114  0.1809  0.0892
  157POPC   PO4 2427   4.021   2.720   5.040 -0.0066  0.1096 -0.2906
  157POPC   GL1 2428   3.703   2.799   5.393  0.2816 -0.1666 -0.0128
  157POPC   GL2 2429   3.621   3.114   5.583 -0.0705 -0.1940  0.1445
  157POPC   C1A 2430   3.374   2.592   5.581  0.0743  0.1446 -0.2117
  157POPC   D2A 2431   3.224   2.248   5.739 -0.2164 -0.0380  0.1008
  157POPC   C3A 2432   3.662   1.872   5.782 -0.0557 -0.0476 -0.2310
  157POPC   C4A 2433   4.161   1.861   5.906  0.2787  0.0433  0.3291
  157POPC   C1B 2434   3.749   2.818   5.921 -0.1078  0.0616 -0.0956
  157POPC   C2B 2435   3.398   2.684   6.054  0.3325 -0.3210  0.0825
  157POPC   C3B 2436   3.246   2.347   6.295 -0.1143  0.2105 -0.1588
  157POPC   C4B 2437   3.374   1.996   6.432 -0.2357 -0.1794 -0.0854
  158POPC   NC3 2438   5.593   6.048   4.510  0.1096 -0.0685  0.1593
  158POPC   PO4 2439   5.294   6.164   4.776  0.1127  0.0921  0.2311
  158POPC   GL1 2440   5.334   6.208   5.174 -0.3209  0.3402  0.1875
  158POPC   GL2 2441   5.053   6.279   5.434 -0.3181  0.0135  0.1570
  158POPC   C1A 2442   5.537   6.552   5.493 -0.0347  0.0368 -0.2206
  158POPC   D2A 2443   5.520   6.635   5.910  0.2153 -0.2255  0.2627
  158POPC   C3A 2444   5.689   6.364   6.059 -0.1930 -0.1557  0.0094
  158POPC   C4A 2445   5.853   5.998   6.090 -0.0181  0.1521 -0.0779
  158POPC   C1B 2446   4.819   6.106   5.819 -0.0475  0.0634  0.0893
  158POPC   C2B 2447   4.828   6.152   6.260  0.1247  0.0160  0.0404
  158POPC   C3B 2448   4.644   6.426   6.540 -0.0089 -0.2878  0.0483
  158POPC   C4B 2449   4.648   6.877   6.589  0.0618 -0.2091 -0.1259
  159POPC   NC3 2450   7.015   3.578   5.152  0.3032  0.0467  0.1801
  159POPC   PO4 2451   7.171   3.247   5.409 -0.1290 -0.2882  0.1739
  159POPC   GL1 2452   7.324   3.200   5.769  0.1106 -0.0423  0.1669
  159POPC   GL2 2453   7.396   2.888   5.766  0.0791 -0.1020  0.1286
  159POPC   C1A 2454   7.184   3.540   6.100  0.1337  0.1178 -0.1391
  159POPC   D2A 2455   7.234   3.458   6.525  0.1239 -0.0222 -0.3328
  159POPC   C3A 2456   7.532   3.225   6.668  0.0631 -0.0669  0.1611
  159POPC   C4A 2457   7.824   3.304   7.026 -0.2437  0.0039  0.2895
  159POPC   C1B 2458   7.541   3.082   6.177 -0.0332  0.0934  0.0971
  159POPC   C2B 2459   7.653   3.515   6.283 -0.1494  0.0719  0.3148
  159POPC   C3B 2460   7.764   3.745   6.674 -0.4383 -0.2120  0.0938
  159POPC   C4B 2461   8.187   3.912   6.654  0.1387 -0.2436 -0.2009
  160POPC   NC3 2462   7.455   1.463   5.766 -0.1063 -0.0516  0.0107
  160POPC   PO4 2463   7.246   1.808   5.975  0.2442  0.0437 -0.0416
  160POPC   GL1 2464   7.235   1.727   6.472 -0.3307 -0.2662  0.0272
  160POPC   GL2 2465   7.114   1.979   6.576  0.0068  0.0589 -0.0886
  160POPC   C1A 2466   7.291   1.472   6.861  0.2996  0.0706 -0.0012
  160POPC   D2A 2467   7.235   1.507   7.261  0.3250 -0.1655 -0.0745
  160POPC   C3A 2468   7.228   1.936   7.335 -0.3993  0.1063  0.1792
  160POPC   C4A 2469   7.057   2.162   7.026  0.2365  0.2169  0.0212
  160POPC   C1B 2470   6.654   2.126   6.754 -0.0113 -0.2139 -0.1268
  160POPC   C2B 2471   6.558   2.344   7.189 -0.0639  0.0146  0.0523
  160POPC   C3B 2472   6.431   2.523   7.588  0.1193 -0.0561  0.0035
  160POPC   C4B 2473   6.617   2.556   7.964  0.3515 -0.0994 -0.0014
  161POPC   NC3 2474   1.086   6.780   4.317  0.1557 -0.0539  0.1938
  161POPC   PO4 2475   0.942   7.114   4.536 -0.1762 -0.1924  0.1165
  161POPC   GL1 2476   1.004   7.332   4.972 -0.0676 -0.0865 -0.0672
  161POPC   GL2 2477   0.878   7.053   5.185  0.1294  0.0856  0.0174
  161POPC   C1A 2478   0.953   7.582   5.404  0.0078 -0.2516  0.1321
  161POPC   D2A 2479   0.990   7.603   5.836 -0.0732  0.3229  0.2118
  161POPC   C3A 2480   0.735   7.452   6.153  0.0375 -0.0941  0.2041
  161POPC   C4A 2481   0.540   7.331   6.456  0.0796 -0.1596 -0.2843
  161POPC   C1B 2482   0.553   6.834   5.471 -0.3924 -0.3157 -0.1220
  161POPC   C2B 2483   0.059   6.915   5.563  0.0061  0.0438  0.0285
  161POPC   C3B 2484  -0.121   7.106   5.886  0.3211  0.0720  0.0325
  161POPC   C4B 2485  -0.434   7.329   6.152 -0.3424  0.2603 -0.1605
  162POPC   NC3 2486   4.870   4.861   5.383 -0.1827 -0.1367  0.0843
  162POPC   PO4 2487   5.081   4.483   5.364  0.3504 -0.1645  0.0151
  162POPC   GL1 2488   5.304   4.658   5.714 -0.0705 -0.0236 -0.0226
  162POPC   GL2 2489   5.467   4.551   5.901 -0.0057 -0.0792 -0.0221
  162POPC   C1A 2490   5.109   4.932   6.102 -0.2149 -0.1948 -0.1451
  162POPC   D2A 2491   4.966   5.198   6.415  0.1511  0.3734  0.0565
  162POPC   C3A 2492   5.227   5.259   6.641  0.1666 -0.1481 -0.0972
  162POPC   C4A 2493   5.413   4.906   6.770 -0.4062  0.1171 -0.2210
  162POPC   C1B 2494   5.305   4.490   6.356  0.1958 -0.4048  0.2262
  162POPC   C2B 2495   5.174   4.384   6.801 -0.3243  0.1945  0.0459
  162POPC   C3B 2496   5.346   4.629   7.133  0.0652  0.0630  0.0740
  162POPC   C4B 2497   5.506   4.946   7.468  0.3547 -0.2593  0.2554
  163POPC   NC3 2498   0.579   6.967   4.204  0.4069  0.1313 -0.1493
  163POPC   PO4 2499   0.561   6.719   4.556  0.1887 -0.3551 -0.0419
  163POPC   GL1 2500   0.415   6.728   4.955  0.0058 -0.0746  0.0348
  163POPC   GL2 2501   0.246   6.513   5.095 -0.1640 -0.2960 -0.0910
  163POPC   C1A 2502   0.129   7.033   5.108 -0.0092 -0.1131  0.0535
  163POPC   D2A 2503  -0.320   7.134   5.339  0.2869 -0.1050 -0.0491
  163POPC   C3A 2504  -0.563   7.279   5.672  0.0356  0.3278  0.1930
  163POPC   C4A 2505  -0.947   7.542   5.577 -0.1750  0.0165  0.0477
  163POPC   C1B 2506   0.008   6.310   5.133  0.0048  0.1715  0.0978
  163POPC   C2B 2507  -0.364   6.535   5.204  0.1386  0.0922 -0.1866
  163POPC   C3B 2508  -0.333   6.844   4.955  0.3163 -0.1705  0.0047
  163POPC   C4B 2509  -0.262   7.163   4.671 -0.1464  0.4203  0.0219
  164POPC   NC3 2510   2.800   4.123   5.140 -0.0573  0.0231 -0.2905
  164POPC   PO4 2511   2.861   3.673   5.127 -0.0418 -0.0226 -0.0016
  164POPC   GL1 2512   2.733   3.709   5.501  0.0468 -0.0183  0.2501
  164POPC   GL2 2513   2.705   3.403   5.666 -0.0407 -0.0494 -0.1794
  164POPC   C1A 2514   2.823   3.967   5.907  0.0086  0.0497 -0.2426
  164POPC   D2A 2515   2.981   4.001   6.341 -0.3051  0.0549 -0.2880
  164POPC   C3A 2516   2.782   4.110   6.694  0.1809 -0.0803  0.0765
  164POPC   C4A 2517   2.602   4.314   6.993  0.3006  0.1054  0.0016
  164POPC   C1B 2518   2.639   3.547   6.114 -0.0081  0.0234  0.4285
  164POPC   C2B 2519   2.465   3.747   6.332 -0.0155 -0.3612 -0.2005
  164POPC   C3B 2520   2.205   3.942   6.571  0.0710  0.1117  0.1461
  164POPC   C4B 2521   1.974   4.127   6.977 -0.2042 -0.1117 -0.0439
  165POPC   NC3 2522   2.076   9.396   4.887 -0.1336  0.0757  0.1360
  165POPC   PO4 2523   2.146   9.563   5.238 -0.2693 -0.2522 -0.0366
  165POPC   GL1 2524   2.325   9.355   5.619  0.1777 -0.2063 -0.3284
  165POPC   GL2 2525   2.154   9.047   5.722 -0.1545 -0.0962  0.0758
  165POPC   C1A 2526   2.212   9.546   6.005 -0.0274 -0.1918 -0.0774
  165POPC   D2A 2527   2.116   9.600   6.487 -0.2542  0.0710 -0.0112
  165POPC   C3A 2528   2.507   9.780   6.653 -0.2524  0.0635  0.4322
  165POPC   C4A 2529   2.621  10.154   6.545 -0.0800  0.2329 -0.0952
  165POPC   C1B 2530   2.210   9.095   6.195 -0.0285 -0.1147  0.0689
  165POPC   C2B 2531   2.209   9.094   6.617 -0.1059 -0.1060 -0.2038
  165POPC   C3B 2532   1.767   9.133   6.730 -0.1553 -0.0449 -0.1861
  165POPC   C4B 2533   1.395   9.359   6.717 -0.0299  0.0284 -0.1294
  166POPC   NC3 2534   5.701   9.453   4.306  0.0786 -0.1869 -0.1432
  166POPC   PO4 2535   5.916   9.661   4.652  0.2191  0.3153 -0.3184
  166POPC   GL1 2536   5.882   9.578   5.096 -0.2298  0.0315 -0.0320
  166POPC   GL2 2537   6.153   9.660   5.377  0.1135 -0.0105  0.2473
  166POPC   C1A 2538   5.991   9.190   5.386 -0.1138 -0.4729 -0.0677
  166POPC   D2A 2539   6.188   9.202   5.723  0.1547 -0.0519 -0.1029
  166POPC   C3A 2540   6.042   9.197   6.158 -0.2409  0.3027 -0.0632
  166POPC   C4A 2541   6.363   9.311   6.530 -0.2410 -0.1119 -0.0366
  166POPC   C1B 2542   6.149   9.664   5.748  0.0771 -0.0650  0.1999
  166POPC   C2B 2543   6.545   9.652   6.055 -0.0063  0.2695 -0.0906
  166POPC   C3B 2544   6.804   9.767   6.321 -0.2756 -0.1867 -0.0700
  166POPC   C4B 2545   6.874   9.730   6.742 -0.2152 -0.1925 -0.2361
  167POPC   NC3 2546   9.126   6.562   3.746  0.2873 -0.5226 -0.2455
  167POPC   PO4 2547   8.932   6.108   3.584 -0.0481 -0.2598 -0.0675
  167POPC   GL1 2548   8.912   6.227   4.152  0.1064  0.0891 -0.1955
  167POPC   GL2 2549   9.259   6.308   4.308  0.0665  0.1468  0.2520
  167POPC   C1A 2550   8.676   6.182   4.499  0.1597  0.1017  0.3052
  167POPC   D2A 2551   8.322   6.145   4.689 -0.0485 -0.1897  0.0768
  167POPC   C3A 2552   8.131   6.401   4.988 -0.0633 -0.0719 -0.0622
  167POPC   C4A 2553   8.389   6.650   5.270 -0.2573  0.0673  0.0882
  167POPC   C1B 2554   9.164   6.085   4.621 -0.2588  0.0257 -0.1590
  167POPC   C2B 2555   9.001   6.000   5.035  0.2143  0.1002 -0.1188
  167POPC   C3B 2556   8.863   5.787   5.407  0.0598 -0.0023 -0.1373
  167POPC   C4B 2557   8.583   5.696   5.733  0.1470 -0.0023  0.0461
  168POPC   NC3 2558   9.141  10.074   5.347  0.0701 -0.1430 -0.0655
  168POPC   PO4 2559   9.223  10.559   5.345  0.2622  0.2466 -0.1488
  168POPC   GL1 2560   9.275  10.404   5.743 -0.0991  0.1593 -0.1146
  168POPC   GL2 2561   8.925  10.262   5.788 -0.0189  0.0889  0.3434
  168POPC   C1A 2562   9.172  10.381   6.220  0.1342  0.0407 -0.0296
  168POPC   D2A 2563   9.205  10.297   6.736 -0.0935  0.1388  0.1824
  168POPC   C3A 2564   9.089  10.538   7.021 -0.1228  0.0101 -0.0186
  168POPC   C4A 2565   9.196  10.897   7.283 -0.2834 -0.1170 -0.1461
  168POPC   C1B 2566   8.845   9.748   5.751 -0.1687 -0.1371  0.0852
  168POPC   C2B 2567   8.865   9.236   5.531 -0.2089 -0.3861 -0.2430
  168POPC   C3B 2568   8.858   8.952   5.777  0.0055 -0.3090  0.1508
  168POPC   C4B 2569   8.976   8.779   5.970 -0.1579 -0.1030  0.0683
  169POPC   NC3 2570   2.517   8.456   4.640  0.0265  0.3455 -0.3378
  169POPC   PO4 2571   2.264   8.876   4.819 -0.1211  0.1999 -0.0062
  169POPC   GL1 2572   2.502   8.669   5.182  0.1808  0.0515  0.2664
  169POPC   GL2 2573   2.403   8.654   5.457 -0.2670 -0.4787 -0.0416
  169POPC   C1A 2574   2.966   8.814   5.443 -0.0489  0.4825 -0.0872
  169POPC   D2A 2575   3.309   9.012   5.568  0.1734  0.2050  0.0576
  169POPC   C3A 2576   3.530   8.731   5.824  0.3088  0.0048 -0.3373
  169POPC   C4A 2577   3.879   8.591   5.969  0.3535 -0.2971 -0.0204
  169POPC   C1B 2578   2.328   8.560   5.883 -0.3222 -0.0067  0.1824
  169POPC   C2B 2579   2.142   8.561   6.307  0.2973 -0.3019 -0.2620
  169POPC   C3B 2580   1.866   8.704   6.557  0.0701 -0.0663 -0.0872
  169POPC   C4B 2581   1.819   8.682   7.013 -0.1191  0.1461 -0.0148
  170POPC   NC3 2582   1.542   2.670   4.809 -0.3130  0.0853  0.0451
  170POPC   PO4 2583   1.448   2.953   5.181 -0.0051 -0.4152  0.0490
  170POPC   GL1 2584   1.680   2.687   5.560  0.0073 -0.2450  0.0732
  170POPC   GL2 2585   1.978   2.554   5.620 -0.1158 -0.0841  0.0032
  170POPC   C1A 2586   1.635   2.530   6.023 -0.3558  0.0166  0.3117
  170POPC   D2A 2587   1.643   2.535   6.386  0.1037  0.0129  0.1711
  170POPC   C3A 2588   1.586   2.600   6.756 -0.0568 -0.1482 -0.1938
  170POPC   C4A 2589   1.726   2.561   7.107 -0.0997  0.2708  0.3062
  170POPC   C1B 2590   2.046   2.846   6.038 -0.1210  0.2015  0.1221
  170POPC   C2B 2591   1.986   2.958   6.427 -0.1170  0.0205  0.1449
  170POPC   C3B 2592   1.908   3.104   6.944  0.1092  0.1254 -0.0541
  170POPC   C4B 2593   1.940   2.918   7.357  0.0864 -0.1581  0.0647
  171POPC   NC3 2594   1.804   9.405   5.561 -0.1259 -0.4103 -0.0164
  171POPC   PO4 2595   1.984   9.061   5.253 -0.0943 -0.2454 -0.2695
  171POPC   GL1 2596   1.852   8.665   5.525 -0.1522  0.1880 -0.2001
  171POPC   GL2 2597   1.460   8.561   5.580  0.2151 -0.0543 -0.0407
  171POPC   C1A 2598   1.778   8.275   5.830 -0.2479 -0.0090  0.2651
  171POPC   D2A 2599   1.775   8.223   6.294 -0.0067  0.0505 -0.0275
  171POPC   C3A 2600   1.633   7.882   6.502  0.0346  0.1474  0.3139
  171POPC   C4A 2601   1.562   7.706   6.821  0.0651 -0.1321  0.0683
  171POPC   C1B 2602   1.405   8.507   6.081 -0.3632  0.0780  0.0995
  171POPC   C2B 2603   1.270   8.476   6.468  0.0524 -0.1250  0.0873
  171POPC   C3B 2604   1.290   8.667   6.878  0.1071  0.1174  0.1459
  171POPC   C4B 2605   1.456   9.001   7.083  0.0549 -0.0899  0.0686
  172POPC   NC3 2606   1.886   5.445   4.892  0.1236 -0.3265 -0.2094
  172POPC   PO4 2607   1.540   5.189   5.009  0.0768  0.3259 -0.0903
  172POPC   GL1 2608   1.844   5.037   5.319 -0.1653 -0.0674 -0.2006
  172POPC   GL2 2609   1.777   4.853   5.591  0.0818  0.3570  0.0833
  172POPC   C1A 2610   2.050   5.213   5.669  0.4867 -0.1387 -0.1933
  172POPC   D2A 2611   2.331   5.282   6.126  0.1653 -0.3371  0.2710
  172POPC   C3A 2612   2.262   5.335   6.585  0.1283  0.3370  0.1652
  172POPC   C4A 2613   2.234   5.002   6.814  0.3749 -0.4053  0.2755
  172POPC   C1B 2614   1.380   4.700   5.870 -0.0882  0.1331  0.3059
  172POPC   C2B 2615   1.190   4.843   6.221 -0.0408 -0.2478 -0.2569
  172POPC   C3B 2616   1.032   5.192   6.354  0.3283 -0.0995 -0.1134
  172POPC   C4B 2617   0.912   5.620   6.196 -0.1908  0.1464  0.0425
  173POPC   NC3 2618   2.401   2.917   5.101 -0.1453 -0.1564  0.2820
  173POPC   PO4 2619   2.796   2.654   5.002 -0.1676 -0.3212  0.1419
  173POPC   GL1 2620   2.920   2.733   5.430 -0.3357 -0.0774 -0.1421
  173POPC   GL2 2621   2.700   2.914   5.515  0.2865  0.0936 -0.0998
  173POPC   C1A 2622   2.927   2.614   5.873  0.3221  0.1658  0.1415
  173POPC   D2A 2623   2.880   2.676   6.309  0.2923 -0.2589  0.0543
  173POPC   C3A 2624   3.112   3.022   6.375 -0.0887 -0.0612  0.1384
  173POPC   C4A 2625   3.558   3.185   6.281 -0.2521  0.2080 -0.1945
  173POPC   C1B 2626   2.531   3.060   5.945  0.1583 -0.1574  0.0078
  173POPC   C2B 2627   2.472   3.146   6.330 -0.1863  0.3577 -0.1046
  173POPC   C3B 2628   2.324   3.295   6.690  0.2283 -0.2361  0.1265
  173POPC   C4B 2629   2.493   3.306   7.075 -0.0139 -0.0309 -0.2475
  174POPC   NC3 2630   1.025   0.972   5.073 -0.3328  0.0739 -0.1084
  174POPC   PO4 2631   1.413   1.076   5.482 -0.2107 -0.0124 -0.1396
  174POPC   GL1 2632   1.370   0.728   5.767  0.2168  0.1372  0.1855
  174POPC   GL2 2633   1.449   0.304   5.733  0.0829  0.0656 -0.0630
  174POPC   C1A 2634   1.403   0.630   6.267 -0.0390  0.1650  0.1036
  174POPC   D2A 2635   1.431   0.776   6.696 -0.0679 -0.2651 -0.1079
  174POPC   C3A 2636   1.156   0.628   7.047  0.0383 -0.0773 -0.0347
  174POPC   C4A 2637   0.722   0.337   7.100  0.2140 -0.0447 -0.2397
  174POPC   C1B 2638   1.426  -0.127   5.777  0.1582 -0.1141 -0.1587
  174POPC   C2B 2639   1.703  -0.386   6.129  0.2129 -0.1793 -0.1739
  174POPC   C3B 2640   1.641  -0.868   6.288 -0.0321 -0.1926  0.0643
  174POPC   C4B 2641   1.695  -1.305   6.080  0.0404 -0.1136  0.1220
  175POPC   NC3 2642   6.752   3.202   4.695  0.1708  0.2663 -0.1917
  175POPC   PO4 2643   6.644   3.258   5.109 -0.1785 -0.0416  0.0942
  175POPC   GL1 2644   6.701   3.081   5.608 -0.0873 -0.0637 -0.0565
  175POPC   GL2 2645   6.843   3.189   5.931 -0.0479 -0.2448 -0.3717
  175POPC   C1A 2646   6.499   2.896   5.993  0.0833  0.0260 -0.0833
  175POPC   D2A 2647   6.358   2.800   6.423 -0.3598 -0.3888  0.2585
  175POPC   C3A 2648   6.298   3.234   6.610 -0.1657  0.1646 -0.0069
  175POPC   C4A 2649   6.205   3.738   6.752  0.1129  0.0944 -0.1636
  175POPC   C1B 2650   6.788   3.088   6.420 -0.0475 -0.1845 -0.0236
  175POPC   C2B 2651   6.715   3.379   6.824 -0.2970 -0.0216  0.4631
  175POPC   C3B 2652   6.932   3.375   7.259 -0.3717  0.0620 -0.0900
  175POPC   C4B 2653   7.077   3.393   7.655 -0.2190  0.0839 -0.1324
  176POPC   NC3 2654   3.127   9.680   4.752  0.1020 -0.2746 -0.2165
  176POPC   PO4 2655   3.061   9.257   4.992  0.0428  0.1841 -0.1963
  176POPC   GL1 2656   3.362   9.462   5.248  0.0099 -0.4510  0.1892
  176POPC   GL2 2657   3.188   9.762   5.284 -0.2433 -0.0714 -0.0161
  176POPC   C1A 2658   3.734   9.609   5.408  0.0354  0.0396 -0.2399
  176POPC   D2A 2659   4.214   9.436   5.483  0.2439  0.1847  0.2256
  176POPC   C3A 2660   4.365   8.999   5.665 -0.0292 -0.1352  0.4126
  176POPC   C4A 2661   4.653   8.665   5.375  0.1547 -0.3799  0.2066
  176POPC   C1B 2662   3.176   9.530   5.753 -0.2767 -0.1590  0.4006
  176POPC   C2B 2663   3.161   9.185   6.012  0.0529  0.0434 -0.1202
  176POPC   C3B 2664   3.289   8.919   6.210  0.0056 -0.1620 -0.1382
  176POPC   C4B 2665   3.578   8.680   6.416 -0.1087 -0.0213  0.1077
  177POPC   NC3 2666   6.537   4.271   5.202  0.2673  0.1110 -0.0810
  177POPC   PO4 2667   6.750   4.595   5.006 -0.2978 -0.4225  0.1620
  177POPC   GL1 2668   6.870   4.588   5.407 -0.0592 -0.1270  0.1280
  177POPC   GL2 2669   7.151   4.504   5.251 -0.2985  0.0522 -0.0705
  177POPC   C1A 2670   6.769   4.679   5.869  0.0228  0.1243 -0.0861
  177POPC   D2A 2671   6.508   4.227   6.098 -0.1537  0.0368  0.0223
  177POPC   C3A 2672   6.167   4.285   6.347  0.0020  0.2889 -0.2541
  177POPC   C4A 2673   5.928   4.701   6.638 -0.1280 -0.1891  0.1028
  177POPC   C1B 2674   7.294   4.714   5.607 -0.0786  0.3713 -0.0939
  177POPC   C2B 2675   7.304   4.876   6.013  0.0571 -0.2004 -0.0243
  177POPC   C3B 2676   7.673   5.078   5.950  0.1376 -0.1626 -0.1350
  177POPC   C4B 2677   7.706   5.440   5.748  0.1722 -0.0647  0.1798
  178POPC   NC3 2678   4.471   6.875   4.893  0.2060 -0.1879 -0.0928
  178POPC   PO4 2679   4.065   6.851   4.984 -0.2586  0.3921 -0.1193
  178POPC   GL1 2680   3.869   6.682   5.301 -0.0211 -0.4055 -0.2280
  178POPC   GL2 2681   3.564   6.840   5.287  0.0794  0.4600 -0.2332
  178POPC   C1A 2682   3.797   6.439   5.730 -0.1100 -0.5150 -0.1068
  178POPC   D2A 2683   3.882   6.167   6.025 -0.1129  0.0576 -0.1507
  178POPC   C3A 2684   3.709   5.880   6.212  0.2131  0.2836  0.1755
  178POPC   C4A 2685   3.534   5.829   6.709  0.0832  0.0215 -0.1186
  178POPC   C1B 2686   3.459   6.800   5.670 -0.7393 -0.0514  0.0789
  178POPC   C2B 2687   3.066   6.948   5.904 -0.3111 -0.2624  0.0109
  178POPC   C3B 2688   2.781   6.979   6.287 -0.1387 -0.0647 -0.0031
  178POPC   C4B 2689   2.862   6.767   6.594  0.3656 -0.4418 -0.0215
  179POPC   NC3 2690   4.192  10.024   5.142 -0.1708 -0.2135  0.1808
  179POPC   PO4 2691   4.414  10.369   5.100  0.1319 -0.2635 -0.2046
  179POPC   GL1 2692   4.580  10.152   5.537  0.0710 -0.1262  0.1602
  179POPC   GL2 2693   4.398  10.201   5.736 -0.1753 -0.0135 -0.3494
  179POPC   C1A 2694   4.774   9.931   5.882  0.2413  0.3749  0.0083
  179POPC   D2A 2695   4.937   9.874   6.205 -0.2163  0.2362 -0.0311
  179POPC   C3A 2696   5.234   9.589   6.429  0.2189  0.0001  0.2785
  179POPC   C4A 2697   5.322   9.657   6.915 -0.0409 -0.1156  0.2367
  179POPC   C1B 2698   4.240   9.849   5.828 -0.3408 -0.5699 -0.0161
  179POPC   C2B 2699   4.078   9.481   6.091  0.0166 -0.0210  0.1529
  179POPC   C3B 2700   4.423   9.321   6.299  0.2071  0.2796 -0.1856
  179POPC   C4B 2701   4.694   9.470   6.573 -0.4105 -0.3167 -0.0018
  180POPC   NC3 2702   8.695   8.706   3.950 -0.1742 -0.0935  0.0632
  180POPC   PO4 2703   9.078   8.899   4.254 -0.0558 -0.0291 -0.0965
  180POPC   GL1 2704   9.122   8.926   4.763 -0.0277 -0.0138 -0.0680
  180POPC   GL2 2705   9.230   9.173   5.009 -0.5550 -0.2783  0.3846
  180POPC   C1A 2706   8.839   8.689   5.051  0.1485  0.2528 -0.4338
  180POPC   D2A 2707   8.817   8.501   5.546 -0.0181  0.0032  0.1562
  180POPC   C3A 2708   8.507   8.560   5.864 -0.1619  0.1385  0.1003
  180POPC   C4A 2709   8.338   8.378   6.124 -0.1957  0.3105  0.1212
  180POPC   C1B 2710   9.238   8.892   5.375  0.2914 -0.2825  0.0348
  180POPC   C2B 2711   9.580   8.847   5.816 -0.3694  0.0834 -0.2885
  180POPC   C3B 2712   9.518   8.784   6.193 -0.0033 -0.3131 -0.2167
  180POPC   C4B 2713   9.718   8.721   6.611 -0.0834  0.1950 -0.0301
  181POPC   NC3 2714   9.732   3.398   4.988  0.2710 -0.0853  0.1899
  181POPC   PO4 2715   9.928   2.953   5.068 -0.2168  0.1618  0.0360
  181POPC   GL1 2716  10.006   2.955   5.570  0.0956  0.1868 -0.2571
  181POPC   GL2 2717   9.988   3.311   5.446  0.2166  0.3084 -0.3325
  181POPC   C1A 2718   9.952   3.125   5.975  0.0780 -0.1868  0.1925
  181POPC   D2A 2719  10.074   3.156   6.354 -0.3566 -0.2148 -0.2936
  181POPC   C3A 2720   9.902   3.503   6.432 -0.2460  0.0147 -0.1661
  181POPC   C4A 2721   9.859   3.918   6.691 -0.1492 -0.0558 -0.2324
  181POPC   C1B 2722   9.806   3.578   5.822 -0.1884 -0.2149 -0.1134
  181POPC   C2B 2723   9.808   3.940   6.067  0.1550  0.1800 -0.1378
  181POPC   C3B 2724   9.514   4.214   6.446  0.0772  0.1119  0.1642
  181POPC   C4B 2725   9.174   4.466   6.358 -0.4313 -0.0326 -0.1360
  182POPC   NC3 2726   6.596   1.750   5.195 -0.1789  0.0897 -0.1656
  182POPC   PO4 2727   6.739   1.754   5.495 -0.4536  0.1894  0.1296
  182POPC   GL1 2728   6.752   1.693   5.896 -0.1201 -0.2002 -0.0776
  182POPC   GL2 2729   6.866   1.370   5.963 -0.1228 -0.2961 -0.1085
  182POPC   C1A 2730   6.740   1.680   6.314 -0.1197 -0.0085 -0.1847
  182POPC   D2A 2731   6.780   1.483   6.752  0.1302 -0.5271 -0.0237
  182POPC   C3A 2732   6.796   1.722   7.120 -0.0349 -0.3384  0.0788
  182POPC   C4A 2733   6.594   1.880   7.476  0.0647 -0.2141  0.0487
  182POPC   C1B 2734   6.830   1.132   6.345  0.1947  0.3245 -0.2214
  182POPC   C2B 2735   6.904   0.998   6.709 -0.0291  0.2510 -0.0096
  182POPC   C3B 2736   7.308   0.906   6.779  0.0807 -0.1667  0.3032
  182POPC   C4B 2737   7.436   0.592   6.445  0.0440  0.3168  0.2161
  183POPC   NC3 2738   4.399   3.079   5.070 -0.2663  0.3413 -0.0674
  183POPC   PO4 2739   4.230   3.295   5.390 -0.1071 -0.1652 -0.0619
  183POPC   GL1 2740   4.254   3.251   5.852  0.0814  0.1319  0.0139
  183POPC   GL2 2741   4.381   2.947   6.042 -0.0419  0.0748 -0.0698
  183POPC   C1A 2742   4.122   3.271   6.310 -0.3009  0.1901 -0.1992
  183POPC   D2A 2743   3.823   3.211   6.679 -0.0820  0.1042  0.3908
  183POPC   C3A 2744   4.060   2.763   6.853 -0.2630 -0.0234  0.3115
  183POPC   C4A 2745   4.146   2.437   6.662  0.1029  0.2593  0.2567
  183POPC   C1B 2746   4.466   2.799   6.498 -0.1682 -0.1996 -0.0957
  183POPC   C2B 2747   4.858   2.480   6.607 -0.0726  0.0925  0.1809
  183POPC   C3B 2748   5.074   2.185   6.842 -0.2363 -0.1028 -0.1228
  183POPC   C4B 2749   5.334   1.972   7.086  0.1257  0.2466  0.1525
  184POPC   NC3 2750  10.018   4.989   4.420 -0.1048  0.1351  0.2072
  184POPC   PO4 2751   9.889   5.469   4.436  0.0997 -0.2186  0.2718
  184POPC   GL1 2752   9.952   5.567   4.813  0.1927  0.3785 -0.0659
  184POPC   GL2 2753  10.225   5.894   4.890  0.1956  0.1455 -0.2445
  184POPC   C1A 2754   9.804   5.577   5.230 -0.1166  0.0470 -0.0339
  184POPC   D2A 2755   9.611   5.587   5.644 -0.1716  0.0902 -0.2541
  184POPC   C3A 2756   9.246   5.553   5.795  0.0997 -0.1712 -0.0710
  184POPC   C4A 2757   8.948   5.577   6.053  0.1091  0.0437  0.1895
  184POPC   C1B 2758  10.263   5.822   5.303  0.0472 -0.0659  0.0861
  184POPC   C2B 2759  10.305   5.858   5.682 -0.0161  0.1324  0.1334
  184POPC   C3B 2760  10.584   5.599   6.029 -0.0877 -0.2171  0.0716
  184POPC   C4B 2761  10.680   5.473   6.450 -0.1900 -0.1493  0.1930
  185POPC   NC3 2762   3.386   5.874   5.147 -0.1538  0.1460  0.0434
  185POPC   PO4 2763   3.827   6.144   5.039 -0.0151 -0.1728  0.2346
  185POPC   GL1 2764   4.154   6.121   5.293 -0.0365 -0.1907  0.1391
  185POPC   GL2 2765   4.151   5.753   5.344  0.2117  0.1925  0.1398
  185POPC   C1A 2766   4.348   6.338   5.633 -0.0945 -0.1666 -0.1315
  185POPC   D2A 2767   4.473   6.366   5.980  0.1410 -0.0775  0.0730
  185POPC   C3A 2768   4.476   6.786   6.157 -0.1869 -0.0867 -0.0065
  185POPC   C4A 2769   4.826   7.014   6.071 -0.1732  0.0210 -0.0694
  185POPC   C1B 2770   3.866   5.879   5.622 -0.2492  0.1024 -0.3441
  185POPC   C2B 2771   3.481   6.105   5.777 -0.1200 -0.3445 -0.2425
  185POPC   C3B 2772   3.331   6.363   6.126  0.1915 -0.3821  0.0652
  185POPC   C4B 2773   3.259   6.755   6.324 -0.0024 -0.4031 -0.1169
  186POPC   NC3 2774   3.194   0.597   4.805  0.1229 -0.1716 -0.0870
  186POPC   PO4 2775   3.367   0.199   4.758 -0.0543  0.0944 -0.1239
  186POPC   GL1 2776   3.525   0.160   5.198  0.0803  0.2313 -0.2777
  186POPC   GL2 2777   3.703  -0.071   5.340 -0.4605  0.0235 -0.0160
  186POPC   C1A 2778   3.371   0.106   5.599 -0.1131 -0.3614 -0.0137
  186POPC   D2A 2779   3.423   0.157   5.974  0.3704 -0.0913  0.2591
  186POPC   C3A 2780   3.569  -0.303   5.896  0.1496  0.0640 -0.0740
  186POPC   C4A 2781   3.621  -0.727   5.939  0.0594  0.2974  0.1262
  186POPC   C1B 2782   3.860   0.091   5.686 -0.1560  0.2093  0.0977
  186POPC   C2B 2783   4.020  -0.004   6.112 -0.0150  0.2140 -0.0159
  186POPC   C3B 2784   4.350  -0.336   6.358 -0.0252  0.1195 -0.3058
  186POPC   C4B 2785   4.460  -0.199   6.772 -0.0650 -0.0711  0.2033
  187POPC   NC3 2786   0.134   1.133   5.093  0.1430 -0.1082 -0.0971
  187POPC   PO4 2787  -0.050   1.336   5.473 -0.1292  0.1481 -0.0824
  187POPC   GL1 2788  -0.070   1.208   5.888  0.2142  0.1846 -0.2322
  187POPC   GL2 2789  -0.291   1.396   6.000 -0.0606  0.2980  0.0185
  187POPC   C1A 2790   0.107   1.289   6.294 -0.4451  0.3410 -0.1719
  187POPC   D2A 2791   0.255   1.395   6.706 -0.3500 -0.2647  0.0768
  187POPC   C3A 2792   0.718   1.411   6.910  0.0444 -0.1887  0.2321
  187POPC   C4A 2793   1.282   1.504   6.840  0.0465  0.1160 -0.1417
  187POPC   C1B 2794  -0.439   1.560   6.385  0.1138 -0.1655  0.2712
  187POPC   C2B 2795  -0.563   1.697   6.752  0.0212  0.1221 -0.3621
  187POPC   C3B 2796  -0.845   1.763   7.069  0.0108  0.1818 -0.0392
  187POPC   C4B 2797  -1.200   1.916   7.239 -0.1053  0.3733  0.1125
  188POPC   NC3 2798   7.878   1.153   5.203 -0.1562 -0.0150  0.3102
  188POPC   PO4 2799   7.816   1.076   5.573  0.3729  0.0296  0.0850
  188POPC   GL1 2800   7.500   1.058   5.973  0.1365  0.2449  0.1001
  188POPC   GL2 2801   7.230   0.896   6.067  0.2188 -0.1869  0.0479
  188POPC   C1A 2802   7.460   1.228   6.406 -0.3075  0.2650 -0.1003
  188POPC   D2A 2803   7.743   1.482   6.725 -0.1546 -0.1233 -0.1138
  188POPC   C3A 2804   7.920   1.347   7.166 -0.2509 -0.1659 -0.1095
  188POPC   C4A 2805   8.390   1.436   7.273 -0.0845 -0.1534 -0.2490
  188POPC   C1B 2806   6.973   0.625   6.349  0.0338 -0.2965 -0.2335
  188POPC   C2B 2807   6.925   0.394   6.715 -0.0017 -0.1638 -0.1414
  188POPC   C3B 2808   7.194   0.430   7.054  0.0567 -0.1872 -0.1194
  188POPC   C4B 2809   7.589   0.617   7.267 -0.1165  0.2799  0.3697
  189POPC   NC3 2810   6.809   0.279   5.030  0.4177 -0.0035 -0.0875
  189POPC   PO4 2811   6.345   0.364   5.225 -0.1938  0.0852  0.1463
  189POPC   GL1 2812   6.460   0.228   5.641 -0.0464  0.2502  0.1649
  189POPC   GL2 2813   6.665   0.379   5.919 -0.0045  0.0482  0.1919
  189POPC   C1A 2814   6.846  -0.086   5.858  0.0541 -0.1653 -0.1086
  189POPC   D2A 2815   7.004  -0.458   5.902  0.0095  0.1480  0.1201
  189POPC   C3A 2816   7.118  -0.673   5.514 -0.2154  0.2200 -0.0901
  189POPC   C4A 2817   7.010  -1.000   5.217  0.4206 -0.1515 -0.0509
  189POPC   C1B 2818   6.523   0.684   6.328 -0.1322 -0.1345 -0.0608
  189POPC   C2B 2819   6.433   0.537   6.737 -0.0468 -0.1107  0.1775
  189POPC   C3B 2820   6.658   0.573   7.134 -0.2411 -0.0436 -0.0111
  189POPC   C4B 2821   6.672   0.603   7.599 -0.0604  0.0785  0.2184
  190POPC   NC3 2822   6.020   2.594   5.383 -0.0533  0.0230  0.3716
  190POPC   PO4 2823   6.412   2.206   5.320  0.0714  0.0501  0.0210
  190POPC   GL1 2824   6.312   2.517   5.782 -0.1264  0.0972 -0.1047
  190POPC   GL2 2825   6.462   2.347   6.132 -0.1784 -0.0558 -0.0257
  190POPC   C1A 2826   5.932   2.491   6.154 -0.2332 -0.1640 -0.3482
  190POPC   D2A 2827   5.653   2.454   6.461  0.0019  0.4031 -0.3829
  190POPC   C3A 2828   5.393   2.562   6.739  0.1729 -0.0302 -0.2306
  190POPC   C4A 2829   5.411   2.923   6.942 -0.2807 -0.0280 -0.3171
  190POPC   C1B 2830   6.215   2.209   6.530 -0.1337  0.0108  0.2297
  190POPC   C2B 2831   6.202   2.476   6.882  0.1274  0.0555 -0.1160
  190POPC   C3B 2832   6.116   2.687   7.266  0.0882  0.1693  0.1175
  190POPC   C4B 2833   5.999   2.968   7.567 -0.3051  0.1389 -0.1876
  191POPC   NC3 2834   1.960   1.505   4.590  0.2074 -0.0603  0.2012
  191POPC   PO4 2835   1.788   1.716   5.033 -0.1334  0.0561  0.0570
  191POPC   GL1 2836   1.855   1.551   5.493  0.3459  0.0370  0.1936
  191POPC   GL2 2837   2.194   1.468   5.651 -0.1298  0.1093  0.0772
  191POPC   C1A 2838   1.960   1.580   6.031 -0.1179  0.1988 -0.0337
  191POPC   D2A 2839   2.236   1.534   6.408  0.3698 -0.4161  0.3719
  191POPC   C3A 2840   2.174   1.256   6.788 -0.1296  0.0817 -0.1693
  191POPC   C4A 2841   2.372   1.137   7.129 -0.0074 -0.0437  0.1107
  191POPC   C1B 2842   2.459   1.316   5.980 -0.0084  0.0169  0.0113
  191POPC   C2B 2843   2.634   1.301   6.417  0.1605  0.1637  0.1180
  191POPC   C3B 2844   2.584   1.557   6.809  0.2395 -0.0858 -0.2626
  191POPC   C4B 2845   2.654   1.559   7.210  0.4993  0.0036 -0.0982
  192POPC   NC3 2846   5.816  10.097   4.863  0.0886 -0.2350 -0.1763
  192POPC   PO4 2847   5.369  10.134   4.903 -0.1244  0.0717  0.0632
  192POPC   GL1 2848   5.399  10.109   5.296 -0.1623  0.0320 -0.0366
  192POPC   GL2 2849   5.149  10.043   5.457  0.1301 -0.1381  0.2025
  192POPC   C1A 2850   5.615   9.823   5.565 -0.4304  0.0241  0.1471
  192POPC   D2A 2851   5.744   9.388   5.777  0.1587  0.0688  0.1271
  192POPC   C3A 2852   5.530   9.272   6.147  0.2804 -0.3578 -0.1306
  192POPC   C4A 2853   5.582   9.040   6.427 -0.2224 -0.1826 -0.0205
  192POPC   C1B 2854   5.201  10.192   5.896  0.1387  0.3221  0.2018
  192POPC   C2B 2855   5.482  10.333   6.079  0.1931 -0.2465 -0.2383
  192POPC   C3B 2856   5.696  10.615   6.412 -0.0299  0.0230 -0.1869
  192POPC   C4B 2857   5.985  10.918   6.495  0.0161  0.1705 -0.0348
  193POPC   NC3 2858   4.176   4.473   5.643  0.0081 -0.2871  0.3831
  193POPC   PO4 2859   3.751   4.528   5.350 -0.2991 -0.1792 -0.0671
  193POPC   GL1 2860   3.628   4.642   5.760 -0.0096  0.2104  0.2380
  193POPC   GL2 2861   3.729   4.447   6.021  0.0909  0.1066  0.0721
  193POPC   C1A 2862   3.324   4.906   5.985 -0.2750  0.0012 -0.1338
  193POPC   D2A 2863   3.133   4.926   6.395  0.1333  0.1632  0.1067
  193POPC   C3A 2864   3.175   4.886   6.850 -0.4355 -0.1235 -0.0624
  193POPC   C4A 2865   3.105   5.011   7.275  0.1931 -0.0622  0.4274
  193POPC   C1B 2866   3.592   4.686   6.361  0.0783 -0.0785  0.0329
  193POPC   C2B 2867   3.992   4.487   6.507  0.2620  0.0521  0.1763
  193POPC   C3B 2868   4.240   4.103   6.544 -0.1555  0.2583 -0.0930
  193POPC   C4B 2869   4.069   3.650   6.684 -0.0519 -0.0034  0.0810
  194POPC   NC3 2870   7.722   5.485   4.027  0.1107 -0.1964 -0.1660
  194POPC   PO4 2871   8.243   5.543   3.986 -0.6072 -0.1274 -0.4321
  194POPC   GL1 2872   8.085   5.392   4.418 -0.0128  0.0290 -0.3568
  194POPC   GL2 2873   7.832   5.502   4.534 -0.0356 -0.1287 -0.2288
  194POPC   C1A 2874   8.376   5.170   4.693  0.1898  0.1271 -0.4737
  194POPC   D2A 2875   8.845   5.150   4.805 -0.1733 -0.0016 -0.4975
  194POPC   C3A 2876   8.983   5.313   5.256  0.0946  0.2555 -0.0395
  194POPC   C4A 2877   8.798   5.240   5.620  0.0157 -0.1034  0.4228
  194POPC   C1B 2878   8.104   5.611   4.897  0.2996 -0.1376  0.1534
  194POPC   C2B 2879   8.162   5.602   5.372 -0.0540  0.0124 -0.0253
  194POPC   C3B 2880   8.089   5.744   5.828 -0.0492 -0.2024 -0.0713
  194POPC   C4B 2881   7.942   5.441   6.188  0.2989  0.1245  0.0849
  195POPC   NC3 2882   4.398   7.310   4.499  0.1511 -0.1348 -0.1629
  195POPC   PO4 2883   4.799   7.641   4.395  0.1380  0.3290 -0.1412
  195POPC   GL1 2884   4.712   7.756   4.837 -0.2945  0.3754  0.3067
  195POPC   GL2 2885   4.667   7.530   4.889  0.0232  0.0988 -0.0415
  195POPC   C1A 2886   4.346   7.845   5.125 -0.3018  0.1958  0.3688
  195POPC   D2A 2887   4.071   7.707   5.432 -0.2301  0.0282  0.0690
  195POPC   C3A 2888   4.163   7.747   5.964  0.3801 -0.0965  0.0080
  195POPC   C4A 2889   4.127   7.848   6.387 -0.1394 -0.1469 -0.1834
  195POPC   C1B 2890   4.661   7.619   5.426  0.2090  0.1686 -0.0036
  195POPC   C2B 2891   4.833   7.699   5.799  0.1082  0.2218  0.0010
  195POPC   C3B 2892   5.046   7.539   6.190  0.0594  0.4222 -0.0662
  195POPC   C4B 2893   4.919   7.272   6.482 -0.3702  0.0012  0.3821
  196POPC   NC3 2894   3.841   3.550   5.568 -0.1562  0.1947 -0.1479
  196POPC   PO4 2895   4.146   3.911   5.360 -0.0925 -0.0098  0.2212
  196POPC   GL1 2896   4.187   3.751   5.834 -0.1054 -0.0834  0.2333
  196POPC   GL2 2897   4.130   4.091   5.921  0.1245  0.1395 -0.1108
  196POPC   C1A 2898   4.402   3.744   6.269 -0.1954 -0.3660 -0.1410
  196POPC   D2A 2899   4.659   3.830   6.634 -0.2206  0.0906 -0.1722
  196POPC   C3A 2900   4.458   3.790   6.954 -0.0594  0.0764 -0.1791
  196POPC   C4A 2901   4.085   3.738   7.267 -0.4279 -0.3886  0.2099
  196POPC   C1B 2902   3.905   3.945   6.197  0.3413  0.1174 -0.4686
  196POPC   C2B 2903   3.594   3.673   6.346  0.0962 -0.0488 -0.0154
  196POPC   C3B 2904   3.266   3.755   6.635  0.2746  0.0116  0.3700
  196POPC   C4B 2905   3.079   3.536   7.007  0.0187  0.0039 -0.1132
  197POPC   NC3 2906   8.060   0.250   4.925  0.2775  0.4006  0.1641
  197POPC   PO4 2907   8.357   0.430   5.109 -0.1855 -0.0289 -0.0410
  197POPC   GL1 2908   8.153   0.146   5.395  0.2230  0.0154 -0.0635
  197POPC   GL2 2909   7.996  -0.163   5.306 -0.2181 -0.1080  0.0113
  197POPC   C1A 2910   7.981   0.254   5.827  0.1147  0.2271  0.0843
  197POPC   D2A 2911   7.946   0.448   6.186 -0.0690  0.0294  0.0409
  197POPC   C3A 2912   7.772   0.235   6.496  0.0295  0.0928 -0.0157
  197POPC   C4A 2913   7.570   0.178   6.764  0.1535 -0.0082  0.0726
  197POPC   C1B 2914   8.008  -0.276   5.717  0.2299  0.0030  0.1025
  197POPC   C2B 2915   8.356  -0.190   5.881 -0.1674  0.0571  0.0966
  197POPC   C3B 2916   8.609  -0.179   6.290  0.0557  0.3150  0.1851
  197POPC   C4B 2917   8.934  -0.265   6.615 -0.2489 -0.0736 -0.2085
  198POPC   NC3 2918   3.767   5.002   5.281 -0.0940 -0.0977  0.0607
  198POPC   PO4 2919   3.329   5.297   5.155 -0.1407  0.0234 -0.0911
  198POPC   GL1 2920   3.548   5.471   5.486 -0.0477  0.1507  0.1027
  198POPC   GL2 2921   3.894   5.363   5.551  0.2530  0.3987  0.2346
  198POPC   C1A 2922   3.534   5.567   5.905  0.0527 -0.2575 -0.0178
  198POPC   D2A 2923   3.308   5.363   6.172 -0.1079 -0.1980  0.1734
  198POPC   C3A 2924   3.220   5.435   6.584 -0.1789  0.1488 -0.1423
  198POPC   C4A 2925   3.194   5.457   7.022  0.0226 -0.3195  0.3093
  198POPC   C1B 2926   4.026   5.486   6.020 -0.0140  0.3281 -0.0994
  198POPC   C2B 2927   3.762   5.493   6.492  0.1759 -0.1609 -0.5735
  198POPC   C3B 2928   3.713   5.401   6.896 -0.0478  0.1048  0.1277
  198POPC   C4B 2929   3.585   5.212   7.317 -0.2209 -0.2893 -0.0336
  199POPC   NC3 2930   0.490   2.524   5.158  0.0028 -0.2016 -0.0568
  199POPC   PO4 2931   0.873   2.781   5.102  0.2068  0.4113 -0.2229
  199POPC   GL1 2932   0.670   2.819   5.550  0.0832  0.1111 -0.0992
  199POPC   GL2 2933   0.361   2.658   5.692 -0.0570  0.0211  0.0688
  199POPC   C1A 2934   0.848   2.898   5.964 -0.1430 -0.1723 -0.0732
  199POPC   D2A 2935   1.087   3.131   6.286  0.2294 -0.0012  0.2118
  199POPC   C3A 2936   0.816   3.169   6.612 -0.6694  0.1621  0.0938
  199POPC   C4A 2937   0.831   3.106   6.988 -0.1270 -0.0324  0.0490
  199POPC   C1B 2938   0.562   2.404   5.961 -0.1564  0.0009 -0.0508
  199POPC   C2B 2939   0.920   2.072   6.255 -0.2927 -0.0185 -0.0179
  199POPC   C3B 2940   1.342   2.132   6.489 -0.6876 -0.0397 -0.4543
  199POPC   C4B 2941   1.431   2.074   6.877 -0.0095 -0.3715  0.2110
  200POPC   NC3 2942   6.299   1.938   5.812  0.0523  0.1656  0.1588
  200POPC   PO4 2943   5.974   2.130   5.633 -0.1592 -0.1314 -0.0314
  200POPC   GL1 2944   5.813   1.738   5.844 -0.0640 -0.0996  0.1668
  200POPC   GL2 2945   5.992   1.448   5.928  0.1363 -0.2098  0.1736
  200POPC   C1A 2946   5.434   1.528   6.080 -0.2279  0.0446 -0.0850
  200POPC   D2A 2947   5.126   1.605   6.182  0.0443  0.1082  0.0726
  200POPC   C3A 2948   4.951   1.336   6.408 -0.2601  0.2253  0.0194
  200POPC   C4A 2949   4.997   1.061   6.683 -0.0199 -0.0017 -0.0836
  200POPC   C1B 2950   5.958   1.663   6.261  0.0231  0.2900 -0.4130
  200POPC   C2B 2951   5.839   1.799   6.667 -0.0956  0.1177 -0.1592
  200POPC   C3B 2952   5.778   2.147   6.918  0.1726 -0.2095  0.1633
  200POPC   C4B 2953   5.618   2.480   7.171 -0.0460  0.2379 -0.1506
  201POPC   NC3 2954   9.451   2.042   5.688  0.1747  0.0416 -0.0281
  201POPC   PO4 2955   8.968   2.052   5.484 -0.2153  0.0156 -0.2739
  201POPC   GL1 2956   8.924   2.088   5.904 -0.0880 -0.1709  0.0868
  201POPC   GL2 2957   8.778   1.809   6.223 -0.1311  0.0260  0.0232
  201POPC   C1A 2958   8.908   2.320   6.310  0.1564  0.0817 -0.2705
  201POPC   D2A 2959   9.137   2.677   6.379  0.0972  0.1066 -0.0003
  201POPC   C3A 2960   9.090   3.077   6.151  0.5190 -0.0783 -0.3725
  201POPC   C4A 2961   9.016   3.140   5.772  0.0240 -0.0714 -0.1991
  201POPC   C1B 2962   8.945   1.914   6.662  0.0761  0.1509 -0.0902
  201POPC   C2B 2963   9.219   2.314   6.770  0.1183  0.4426  0.2390
  201POPC   C3B 2964   9.413   2.687   6.845 -0.0387 -0.0987  0.1233
  201POPC   C4B 2965   9.618   3.039   6.662  0.0217 -0.1736  0.0330
  202POPC   NC3 2966   2.564   4.409   4.452 -0.0601  0.0709  0.3822
  202POPC   PO4 2967   2.480   4.327   4.852 -0.0554 -0.1251 -0.1939
  202POPC   GL1 2968   2.242   4.275   5.207  0.0502  0.1395  0.0148
  202POPC   GL2 2969   2.347   4.078   5.445  0.4526 -0.1861  0.1770
  202POPC   C1A 2970   2.093   4.392   5.737  0.0057 -0.1948  0.1178
  202POPC   D2A 2971   2.032   4.470   6.218  0.0354  0.2141  0.1330
  202POPC   C3A 2972   1.790   4.307   6.534 -0.0189 -0.2317  0.2842
  202POPC   C4A 2973   1.608   3.811   6.752 -0.1409  0.1511  0.2153
  202POPC   C1B 2974   2.315   3.935   5.861 -0.1165  0.0178  0.1867
  202POPC   C2B 2975   2.068   3.996   6.098 -0.0709 -0.1414 -0.0610
  202POPC   C3B 2976   1.695   3.840   6.203 -0.4874 -0.2234 -0.4474
  202POPC   C4B 2977   1.459   3.441   6.128  0.1167  0.1887  0.3706
  203POPC   NC3 2978   5.442   6.716   4.103 -0.3107 -0.0573 -0.0825
  203POPC   PO4 2979   5.228   6.405   4.304 -0.1036 -0.0686 -0.3088
  203POPC   GL1 2980   5.362   6.674   4.625 -0.1005 -0.2185 -0.0883
  203POPC   GL2 2981   5.459   6.953   4.734 -0.1436  0.0203 -0.0770
  203POPC   C1A 2982   5.776   6.626   4.934  0.1565  0.1403 -0.2598
  203POPC   D2A 2983   5.955   6.492   5.285 -0.0860  0.0069  0.0660
  203POPC   C3A 2984   6.086   6.806   5.567  0.1087 -0.2212 -0.1107
  203POPC   C4A 2985   6.357   6.806   6.040  0.1576 -0.0405  0.1782
  203POPC   C1B 2986   5.312   6.841   5.106  0.3477  0.3330 -0.0477
  203POPC   C2B 2987   5.260   6.947   5.596 -0.2428  0.2194  0.0214
  203POPC   C3B 2988   5.310   7.031   6.050  0.0221 -0.2565  0.0489
  203POPC   C4B 2989   5.440   7.153   6.431 -0.2233 -0.0987 -0.0625
  204POPC   NC3 2990   1.062   1.417   5.360  0.0447 -0.0165  0.3947
  204POPC   PO4 2991   0.879   1.601   5.185  0.2607  0.2071  0.2065
  204POPC   GL1 2992   0.706   1.675   5.574 -0.1585 -0.1277 -0.0544
  204POPC   GL2 2993   0.561   1.897   5.817 -0.3544 -0.3102  0.2422
  204POPC   C1A 2994   0.990   1.700   5.990 -0.2051  0.1284 -0.2867
  204POPC   D2A 2995   1.285   1.659   6.344 -0.0775  0.4139 -0.0727
  204POPC   C3A 2996   1.689   1.738   6.521  0.4529  0.0718  0.2609
  204POPC   C4A 2997   1.782   1.975   6.360  0.1402  0.0523  0.2449
  204POPC   C1B 2998   0.536   1.678   6.122  0.1075 -0.2073 -0.0541
  204POPC   C2B 2999   0.820   1.666   6.492 -0.2302  0.0430 -0.0387
  204POPC   C3B 3000   0.977   1.924   6.787 -0.0448  0.4180  0.2189
  204POPC   C4B 3001   1.033   1.966   7.188  0.0574 -0.0111 -0.0596
  205POPC   NC3 3002   6.499   6.273   3.573 -0.0291  0.2605  0.1537
  205POPC   PO4 3003   6.524   6.081   3.990  0.3007 -0.2445 -0.0917
  205POPC   GL1 3004   6.698   6.247   4.410  0.0876 -0.0751 -0.0616
  205POPC   GL2 3005   6.366   6.462   4.448 -0.1459  0.0613 -0.3342
  205POPC   C1A 3006   6.928   6.356   4.728 -0.0361  0.0168  0.1404
  205POPC   D2A 3007   7.236   6.653   4.820 -0.4445 -0.1176  0.1603
  205POPC   C3A 3008   7.094   7.044   4.944  0.0778  0.4916 -0.1758
  205POPC   C4A 3009   6.729   7.361   4.958 -0.2473  0.0061  0.0155
  205POPC   C1B 3010   6.359   6.247   4.778  0.1243 -0.1673 -0.0103
  205POPC   C2B 3011   6.233   6.051   5.202 -0.1934 -0.0025 -0.1842
  205POPC   C3B 3012   5.842   5.984   5.487  0.1576  0.0308  0.0712
  205POPC   C4B 3013   5.465   6.123   5.661  0.1094 -0.0247 -0.2937
  206POPC   NC3 3014   5.255   7.282   4.347  0.1192  0.0075  0.2432
  206POPC   PO4 3015   4.922   7.171   4.618 -0.0168 -0.1374 -0.0540
  206POPC   GL1 3016   4.906   7.211   5.104  0.1490 -0.0309 -0.1757
  206POPC   GL2 3017   4.845   6.876   5.228 -0.0631 -0.2258  0.2122
  206POPC   C1A 3018   4.885   7.231   5.592  0.0432  0.1564 -0.1537
  206POPC   D2A 3019   5.219   7.443   5.729  0.0223  0.2028 -0.1378
  206POPC   C3A 3020   5.303   7.962   5.799  0.2163  0.0081  0.0331
  206POPC   C4A 3021   5.615   8.344   5.916 -0.0504  0.1023  0.1817
  206POPC   C1B 3022   4.739   6.717   5.661 -0.1587  0.0247 -0.2586
  206POPC   C2B 3023   5.041   6.563   5.933  0.2411 -0.2867  0.0407
  206POPC   C3B 3024   5.127   6.648   6.344  0.0244  0.5007 -0.0530
  206POPC   C4B 3025   5.062   6.631   6.719 -0.0943  0.2009  0.1524
  207POPC   NC3 3026   5.318   2.899   5.073 -0.0358 -0.2049  0.1323
  207POPC   PO4 3027   4.952   2.747   5.338  0.1246 -0.2396 -0.0497
  207POPC   GL1 3028   5.177   2.763   5.727  0.0360  0.0618 -0.1229
  207POPC   GL2 3029   4.908   2.765   6.115  0.2290  0.0967 -0.2062
  207POPC   C1A 3030   5.426   2.728   6.124 -0.1693  0.3250 -0.2003
  207POPC   D2A 3031   5.357   3.014   6.461  0.1178  0.1859 -0.1918
  207POPC   C3A 3032   4.934   2.954   6.707  0.2430  0.2083 -0.1361
  207POPC   C4A 3033   4.623   2.946   6.910  0.1570  0.3444  0.1723
  207POPC   C1B 3034   4.703   3.203   6.335 -0.2573  0.1853 -0.2842
  207POPC   C2B 3035   4.475   3.331   6.688  0.0482 -0.1174 -0.0516
  207POPC   C3B 3036   4.247   3.322   7.077  0.1168  0.1047  0.1023
  207POPC   C4B 3037   4.282   3.284   7.518 -0.2606  0.1754 -0.1211
  208POPC   NC3 3038   5.528   3.557   5.201  0.0582  0.0376  0.0523
  208POPC   PO4 3039   5.898   3.456   5.502  0.0680  0.0607  0.1645
  208POPC   GL1 3040   6.102   3.450   5.867  0.0780 -0.0089  0.0281
  208POPC   GL2 3041   6.390   3.388   5.994 -0.2143 -0.1237  0.0618
  208POPC   C1A 3042   6.015   3.073   6.201  0.1217  0.2505  0.0181
  208POPC   D2A 3043   5.843   2.930   6.598 -0.0813 -0.0578 -0.0422
  208POPC   C3A 3044   5.991   3.165   6.990 -0.0654  0.2408 -0.1805
  208POPC   C4A 3045   6.281   3.352   7.235  0.3041  0.0282  0.0014
  208POPC   C1B 3046   6.593   3.566   6.374 -0.0812  0.1132  0.1269
  208POPC   C2B 3047   6.527   3.916   6.473 -0.2531 -0.2406  0.3095
  208POPC   C3B 3048   6.583   4.156   6.762 -0.1750 -0.1920  0.3643
  208POPC   C4B 3049   7.019   4.408   6.800  0.2054 -0.0470 -0.1745
  209POPC   NC3 3050   3.597   6.562   4.840  0.2011  0.1802 -0.3608
  209POPC   PO4 3051   3.273   6.699   4.806  0.0091 -0.4492 -0.0260
  209POPC   GL1 3052   3.112   6.848   5.130  0.2303 -0.2131  0.1316
  209POPC   GL2 3053   3.183   7.201   5.264 -0.1479  0.0769 -0.2853
  209POPC   C1A 3054   2.919   6.765   5.497  0.1475 -0.0266  0.3127
  209POPC   D2A 3055   2.976   6.282   5.747  0.3213  0.0091  0.1978
  209POPC   C3A 3056   2.656   6.045   5.988  0.2708  0.0939 -0.0414
  209POPC   C4A 3057   2.428   5.759   6.219 -0.0518  0.0442 -0.0938
  209POPC   C1B 3058   3.338   7.244   5.633  0.3665 -0.3038 -0.0085
  209POPC   C2B 3059   3.459   7.205   6.018  0.1280 -0.2217 -0.1984
  209POPC   C3B 3060   3.651   7.104   6.448  0.2307 -0.0980  0.3217
  209POPC   C4B 3061   3.997   7.399   6.570 -0.1259  0.0866  0.0692
  210POPC   NC3 3062   4.746   6.054   4.792 -0.2925 -0.4431  0.1417
  210POPC   PO4 3063   4.523   6.376   5.015 -0.3283  0.0087 -0.2139
  210POPC   GL1 3064   4.386   6.708   5.386 -0.3419  0.1071 -0.4118
  210POPC   GL2 3065   4.387   7.027   5.439 -0.0083 -0.0899 -0.2357
  210POPC   C1A 3066   4.108   6.820   5.816  0.1591 -0.1043  0.1682
  210POPC   D2A 3067   3.776   6.747   6.107  0.0307  0.0164 -0.4459
  210POPC   C3A 3068   3.699   6.514   6.441 -0.4390  0.0891  0.1651
  210POPC   C4A 3069   3.676   6.287   6.892  0.2319  0.1287  0.1075
  210POPC   C1B 3070   4.420   7.230   5.778 -0.0528 -0.1413 -0.1887
  210POPC   C2B 3071   4.541   7.431   6.123 -0.0659 -0.3136  0.1938
  210POPC   C3B 3072   4.463   7.500   6.508 -0.0093 -0.3299 -0.1348
  210POPC   C4B 3073   4.344   7.670   6.874 -0.0170 -0.1217  0.1552
  211POPC   NC3 3074   0.613   3.167   4.967  0.0225  0.1960  0.2862
  211POPC   PO4 3075   0.321   2.983   5.296  0.0154 -0.2096  0.1128
  211POPC   GL1 3076   0.273   3.178   5.716  0.2013  0.1024  0.1812
  211POPC   GL2 3077   0.386   2.985   6.031 -0.0150  0.0248  0.0105
  211POPC   C1A 3078   0.106   3.493   5.978  0.1202 -0.1577 -0.0211
  211POPC   D2A 3079   0.162   3.705   6.446  0.0828  0.0020 -0.1017
  211POPC   C3A 3080   0.618   3.642   6.652  0.4319  0.2898  0.3791
  211POPC   C4A 3081   0.605   3.581   7.133  0.2622 -0.0941 -0.0766
  211POPC   C1B 3082   0.384   3.294   6.359  0.0598  0.4193 -0.3551
  211POPC   C2B 3083   0.227   3.329   6.848  0.1346  0.2772 -0.0702
  211POPC   C3B 3084  -0.163   3.423   6.970 -0.0699  0.4398 -0.2822
  211POPC   C4B 3085  -0.579   3.143   7.180 -0.0225  0.0706 -0.1242
  212POPC   NC3 3086   2.221   7.418   4.817 -0.0958 -0.0697 -0.1493
  212POPC   PO4 3087   2.643   7.115   4.977 -0.0486 -0.1186  0.0074
  212POPC   GL1 3088   2.516   7.002   5.402  0.0216 -0.3255  0.2965
  212POPC   GL2 3089   2.120   6.940   5.417  0.0821  0.0368 -0.1468
  212POPC   C1A 3090   2.415   7.140   5.855  0.2992  0.1132 -0.0722
  212POPC   D2A 3091   2.714   7.459   5.992  0.0966  0.1763  0.2124
  212POPC   C3A 3092   2.707   7.447   6.423  0.1294  0.3192  0.2636
  212POPC   C4A 3093   2.633   7.246   6.874 -0.1163  0.1769 -0.0829
  212POPC   C1B 3094   2.046   6.676   5.837 -0.2265 -0.0784  0.3289
  212POPC   C2B 3095   2.074   6.750   6.311  0.0228  0.0588  0.0596
  212POPC   C3B 3096   2.097   6.551   6.812  0.2843 -0.2335 -0.3851
  212POPC   C4B 3097   1.884   6.705   7.127  0.0368 -0.0057  0.2745
  213POPC   NC3 3098   6.415   9.884   4.049 -0.0574  0.2689 -0.2078
  213POPC   PO4 3099   6.478   9.928   4.464 -0.2796  0.2379 -0.1603
  213POPC   GL1 3100   6.464   9.730   4.947  0.2029 -0.0232 -0.1677
  213POPC   GL2 3101   6.283   9.468   4.915 -0.2209  0.1415 -0.1441
  213POPC   C1A 3102   6.656   9.525   5.365  0.2188  0.0129  0.1884
  213POPC   D2A 3103   6.724   9.265   5.682 -0.1212 -0.2534 -0.3738
  213POPC   C3A 3104   6.703   9.198   6.121 -0.2323 -0.5550  0.1815
  213POPC   C4A 3105   6.918   9.268   6.532 -0.2467  0.2798 -0.0712
  213POPC   C1B 3106   6.085   9.099   4.863  0.0605 -0.2251 -0.1390
  213POPC   C2B 3107   5.767   8.885   4.950 -0.1000 -0.0037 -0.4502
  213POPC   C3B 3108   5.610   8.477   5.348 -0.2492  0.0599  0.1173
  213POPC   C4B 3109   5.666   8.090   5.487 -0.0751  0.1842 -0.1486
  214POPC   NC3 3110   2.622   2.170   4.898 -0.1412 -0.0259  0.0771
  214POPC   PO4 3111   2.196   2.458   4.979  0.1040 -0.1707 -0.3862
  214POPC   GL1 3112   2.456   2.478   5.409 -0.1217 -0.0560 -0.0600
  214POPC   GL2 3113   2.706   2.202   5.505 -0.7174  0.1670  0.2619
  214POPC   C1A 3114   2.431   2.613   5.803 -0.1655 -0.0794 -0.1641
  214POPC   D2A 3115   2.372   2.547   6.268  0.0082  0.1616 -0.0370
  214POPC   C3A 3116   2.210   2.142   6.243 -0.1310 -0.1577 -0.0368
  214POPC   C4A 3117   1.983   2.045   5.862  0.1811  0.1871 -0.1397
  214POPC   C1B 3118   2.748   2.176   5.997  0.2860 -0.1306 -0.1815
  214POPC   C2B 3119   2.880   2.241   6.582  0.0583 -0.1649 -0.1857
  214POPC   C3B 3120   2.978   1.994   6.855 -0.0087 -0.2887 -0.0433
  214POPC   C4B 3121   3.217   1.646   6.948 -0.0797  0.2945 -0.1256
  215POPC   NC3 3122   0.840   8.574   4.869 -0.2658  0.2935  0.1138
  215POPC   PO4 3123   1.136   8.890   4.972 -0.0969  0.0937  0.0505
  215POPC   GL1 3124   1.033   8.850   5.386 -0.1631 -0.1801 -0.2778
  215POPC   GL2 3125   0.893   8.595   5.390  0.0381  0.1331 -0.0167
  215POPC   C1A 3126   1.192   8.954   5.868 -0.2621 -0.2796  0.1577
  215POPC   D2A 3127   1.298   8.932   6.370  0.1178  0.0900 -0.2459
  215POPC   C3A 3128   1.001   8.993   6.625  0.0143  0.0336 -0.4343
  215POPC   C4A 3129   0.836   8.915   7.053 -0.1954 -0.1274 -0.1614
  215POPC   C1B 3130   0.948   8.504   5.698 -0.0551  0.1365 -0.2823
  215POPC   C2B 3131   0.887   8.587   6.119 -0.0692  0.0542  0.0776
  215POPC   C3B 3132   0.781   9.121   6.187  0.0073  0.0069  0.0202
  215POPC   C4B 3133   0.272   9.224   6.265  0.0362  0.1729 -0.1358
  216POPC   NC3 3134   9.644   2.683   5.307 -0.3049  0.1033 -0.2161
  216POPC   PO4 3135   9.314   2.422   5.390 -0.1106  0.1163 -0.3936
  216POPC   GL1 3136   9.141   2.533   5.822 -0.2167  0.2934 -0.4877
  216POPC   GL2 3137   9.376   2.402   6.034  0.2017  0.1121 -0.2280
  216POPC   C1A 3138   8.821   2.717   5.993  0.4004 -0.0589  0.1920
  216POPC   D2A 3139   8.471   2.652   6.253 -0.1980  0.1188  0.0535
  216POPC   C3A 3140   8.309   2.681   6.701 -0.1106  0.0983  0.1632
  216POPC   C4A 3141   8.457   2.594   7.181  0.1707 -0.1748  0.0720
  216POPC   C1B 3142   9.390   1.966   6.385 -0.4125 -0.2641  0.1151
  216POPC   C2B 3143   9.223   1.573   6.548 -0.2070  0.1620 -0.0233
  216POPC   C3B 3144   9.332   1.245   6.680 -0.0276 -0.0478 -0.2171
  216POPC   C4B 3145   9.551   0.939   6.838 -0.0758 -0.1691 -0.0440
  217POPC   NC3 3146   3.885   8.327   3.968 -0.3710 -0.1940  0.2660
  217POPC   PO4 3147   4.009   8.573   4.384  0.3330  0.3518  0.1917
  217POPC   GL1 3148   4.195   8.689   4.767  0.0938  0.1699  0.1619
  217POPC   GL2 3149   4.437   8.536   4.951 -0.3689 -0.0274  0.2233
  217POPC   C1A 3150   4.038   8.645   5.166  0.2112 -0.0766 -0.1956
  217POPC   D2A 3151   4.126   8.637   5.559 -0.0719  0.1568 -0.1270
  217POPC   C3A 3152   4.404   8.495   5.872 -0.1943 -0.0502 -0.0993
  217POPC   C4A 3153   4.340   8.344   6.216  0.1745  0.0435 -0.2394
  217POPC   C1B 3154   4.350   8.260   5.344 -0.3231 -0.1073  0.3344
  217POPC   C2B 3155   4.480   8.022   5.676 -0.1503  0.1342  0.2643
  217POPC   C3B 3156   4.585   7.930   6.166 -0.3603  0.0578 -0.0477
  217POPC   C4B 3157   4.791   7.867   6.452 -0.0708  0.1447 -0.1626
  218POPC   NC3 3158   9.234   5.439   3.600 -0.2803  0.1858 -0.0023
  218POPC   PO4 3159   9.210   5.145   3.947 -0.0393  0.0467  0.2492
  218POPC   GL1 3160   9.235   5.355   4.285  0.0310 -0.0222  0.1077
  218POPC   GL2 3161   9.459   5.249   4.489 -0.3299 -0.1295 -0.2337
  218POPC   C1A 3162   8.942   5.631   4.564 -0.2758 -0.0565 -0.0007
  218POPC   D2A 3163   8.649   5.655   4.891  0.0409 -0.0056 -0.1185
  218POPC   C3A 3164   8.465   5.932   5.143  0.1613 -0.1673  0.0732
  218POPC   C4A 3165   8.193   6.083   5.490 -0.2742 -0.0559  0.1116
  218POPC   C1B 3166   9.405   5.362   4.977 -0.4443  0.1956 -0.1356
  218POPC   C2B 3167   9.376   5.849   5.313  0.0714  0.0090  0.1070
  218POPC   C3B 3168   9.226   6.091   5.702  0.0462  0.3829 -0.0015
  218POPC   C4B 3169   8.882   6.106   5.942  0.0483  0.0925 -0.3241
  219POPC   NC3 3170   2.041   0.415   5.022  0.2288  0.0381  0.1883
  219POPC   PO4 3171   2.033   0.193   5.365 -0.3086  0.2276 -0.3348
  219POPC   GL1 3172   2.168   0.166   5.764 -0.1281  0.1572  0.1726
  219POPC   GL2 3173   1.868   0.091   5.893 -0.3804 -0.0620 -0.1025
  219POPC   C1A 3174   2.319   0.384   6.174  0.4790 -0.2221 -0.0053
  219POPC   D2A 3175   2.343   0.405   6.619 -0.0590 -0.3710  0.0043
  219POPC   C3A 3176   2.819   0.379   6.827 -0.1923 -0.0825 -0.0290
  219POPC   C4A 3177   3.318   0.244   6.886  0.1357 -0.2067  0.1984
  219POPC   C1B 3178   1.708   0.163   6.284  0.1608  0.2342 -0.0693
  219POPC   C2B 3179   1.450   0.212   6.613 -0.0936  0.0598  0.3658
  219POPC   C3B 3180   1.162   0.114   6.923 -0.0750 -0.0270  0.0455
  219POPC   C4B 3181   1.172  -0.032   7.381  0.0693 -0.3874 -0.3561
  220POPC   NC3 3182   0.538   8.391   4.046  0.1833  0.0119 -0.1128
  220POPC   PO4 3183   0.145   8.228   4.235  0.0477 -0.1386  0.3944
  220POPC   GL1 3184   0.032   8.217   4.602 -0.0301 -0.0062 -0.1169
  220POPC   GL2 3185  -0.199   8.366   4.797 -0.0549 -0.1141  0.0908
  220POPC   C1A 3186   0.363   8.088   4.867  0.0772 -0.0126 -0.0861
  220POPC   D2A 3187   0.485   7.858   5.249  0.0433  0.0098 -0.0097
  220POPC   C3A 3188   0.736   8.099   5.499  0.1418  0.0498 -0.1628
  220POPC   C4A 3189   0.684   7.987   6.021  0.2066 -0.0550 -0.1335
  220POPC   C1B 3190  -0.121   8.068   5.078 -0.0999  0.0094  0.5855
  220POPC   C2B 3191   0.019   8.057   5.504  0.2127  0.3051  0.1959
  220POPC   C3B 3192   0.193   7.807   5.824 -0.1446  0.2204  0.0135
  220POPC   C4B 3193   0.083   7.415   6.184 -0.1144 -0.1267  0.0649
  221POPC   NC3 3194   5.335   8.351   4.119 -0.1901 -0.0365  0.0866
  221POPC   PO4 3195   5.823   8.522   4.001 -0.0060  0.2022  0.3138
  221POPC   GL1 3196   5.864   8.477   4.425  0.0108  0.1415  0.5344
  221POPC   GL2 3197   5.730   8.150   4.469 -0.4103  0.0876  0.0356
  221POPC   C1A 3198   5.874   8.334   4.906  0.3440  0.1631  0.0871
  221POPC   D2A 3199   6.114   8.124   5.239  0.1149 -0.0678 -0.0355
  221POPC   C3A 3200   6.137   7.801   5.538 -0.1359  0.0115 -0.0477
  221POPC   C4A 3201   6.210   7.728   5.926 -0.2920 -0.4631  0.1825
  221POPC   C1B 3202   5.683   7.767   4.715 -0.0899 -0.1149 -0.2643
  221POPC   C2B 3203   5.780   7.649   5.203  0.0038 -0.0446  0.1448
  221POPC   C3B 3204   5.688   7.598   5.627 -0.2047  0.4097  0.0014
  221POPC   C4B 3205   5.648   7.638   6.017  0.1310  0.1920 -0.1402
  222POPC   NC3 3206   1.578   0.253   5.233  0.0506  0.1555  0.0784
  222POPC   PO4 3207   1.615   0.752   5.135  0.0412 -0.0905 -0.1102
  222POPC   GL1 3208   1.882   0.621   5.557  0.1376  0.0083 -0.1609
  222POPC   GL2 3209   1.906   0.927   5.551 -0.2219  0.0312 -0.0145
  222POPC   C1A 3210   1.844   0.554   5.997  0.1196  0.0467 -0.0456
  222POPC   D2A 3211   1.850   0.562   6.498  0.1847 -0.0520  0.1470
  222POPC   C3A 3212   2.031   0.784   6.873 -0.2260 -0.2157  0.3565
  222POPC   C4A 3213   1.955   0.804   7.334  0.0829  0.0716 -0.2366
  222POPC   C1B 3214   2.062   0.995   5.974 -0.0948  0.1832  0.0610
  222POPC   C2B 3215   1.965   1.122   6.260 -0.2716 -0.0295 -0.0166
  222POPC   C3B 3216   1.740   1.190   6.597  0.0276 -0.1192 -0.1275
  222POPC   C4B 3217   1.673   1.121   7.039  0.1799 -0.0572 -0.0587
  223POPC   NC3 3218   8.581   9.715   4.197 -0.0841  0.0096  0.1326
  223POPC   PO4 3219   8.504   9.750   4.615  0.0399 -0.3265 -0.0065
  223POPC   GL1 3220   8.409   9.741   5.010  0.1074 -0.0220  0.1001
  223POPC   GL2 3221   8.132   9.489   5.115  0.0525  0.2073  0.1397
  223POPC   C1A 3222   8.370   9.735   5.425  0.0737  0.1517 -0.1713
  223POPC   D2A 3223   8.325   9.490   5.752 -0.1433 -0.0518 -0.1849
  223POPC   C3A 3224   7.986   9.306   5.823  0.1196  0.0066  0.1648
  223POPC   C4A 3225   7.727   9.132   6.096 -0.2937  0.2772  0.0825
  223POPC   C1B 3226   7.979   9.082   5.263  0.0891  0.0315 -0.0311
  223POPC   C2B 3227   7.901   8.789   5.647  0.0078 -0.0388  0.0142
  223POPC   C3B 3228   7.506   8.662   5.929 -0.2151  0.0074 -0.3044
  223POPC   C4B 3229   7.413   8.538   6.344  0.3654  0.0862  0.0018
  224POPC   NC3 3230   4.843   0.288   5.333  0.0623  0.2832 -0.1593
  224POPC   PO4 3231   4.804   0.717   5.343  0.0672  0.1084 -0.1642
  224POPC   GL1 3232   5.099   0.626   5.656 -0.2678  0.1440 -0.1533
  224POPC   GL2 3233   5.372   0.414   5.589  0.0331  0.0904  0.0258
  224POPC   C1A 3234   4.900   0.400   5.926 -0.1054 -0.0459 -0.2451
  224POPC   D2A 3235   4.942   0.303   6.376  0.0201  0.1272  0.2344
  224POPC   C3A 3236   5.267   0.591   6.621  0.2232 -0.2014 -0.2595
  224POPC   C4A 3237   5.550   0.871   6.726 -0.1674 -0.1154 -0.0258
  224POPC   C1B 3238   5.666   0.094   5.639 -0.2614  0.0098 -0.3193
  224POPC   C2B 3239   5.989  -0.046   5.884  0.0398  0.0666 -0.1445
  224POPC   C3B 3240   6.418  -0.054   6.170 -0.1009 -0.2489  0.0149
  224POPC   C4B 3241   6.549   0.161   6.428  0.0078 -0.2174  0.0243
  225POPC   NC3 3242   6.837   5.578   4.259  0.2491  0.0541 -0.1159
  225POPC   PO4 3243   7.266   5.590   4.118 -0.3163  0.2188  0.3380
  225POPC   GL1 3244   7.205   5.583   4.579  0.1870  0.1054  0.1398
  225POPC   GL2 3245   7.079   5.275   4.779 -0.0612 -0.1913 -0.0133
  225POPC   C1A 3246   7.211   5.959   4.821 -0.3353 -0.0538  0.3409
  225POPC   D2A 3247   7.300   6.098   5.210 -0.0156  0.0727 -0.1379
  225POPC   C3A 3248   7.078   6.411   5.261  0.3520 -0.2739 -0.0374
  225POPC   C4A 3249   7.037   6.777   5.366  0.2772 -0.1023 -0.4507
  225POPC   C1B 3250   6.950   5.521   5.151  0.1443 -0.0970 -0.0928
  225POPC   C2B 3251   6.745   5.274   5.469 -0.2170  0.0162 -0.0101
  225POPC   C3B 3252   6.885   5.135   5.864 -0.3143  0.2749 -0.2376
  225POPC   C4B 3253   6.826   5.056   6.289 -0.2372 -0.0843  0.0151
  226POPC   NC3 3254   1.608   5.673   4.232  0.2993 -0.1093 -0.0666
  226POPC   PO4 3255   1.497   5.874   4.679  0.0808  0.2899 -0.1508
  226POPC   GL1 3256   1.416   5.655   5.161 -0.1445  0.1866  0.0289
  226POPC   GL2 3257   1.111   5.418   5.134  0.1064  0.1255  0.1387
  226POPC   C1A 3258   1.474   5.677   5.629 -0.3438 -0.1091  0.1593
  226POPC   D2A 3259   1.409   5.743   6.064 -0.1030  0.4748  0.2549
  226POPC   C3A 3260   1.709   5.957   6.229  0.2988 -0.1646  0.0468
  226POPC   C4A 3261   1.994   5.972   6.620 -0.0808  0.3089  0.1914
  226POPC   C1B 3262   0.896   5.752   5.286  0.0459 -0.1453 -0.0748
  226POPC   C2B 3263   0.999   5.943   5.709 -0.0013  0.2147 -0.1232
  226POPC   C3B 3264   1.027   6.124   6.165 -0.1580  0.1510  0.1283
  226POPC   C4B 3265   1.233   6.156   6.609 -0.1643 -0.1595 -0.0988
  227POPC   NC3 3266   8.697   4.903   3.814  0.2318  0.1799 -0.3386
  227POPC   PO4 3267   8.635   4.647   4.296 -0.1564  0.0381 -0.2265
  227POPC   GL1 3268   8.473   4.708   4.731 -0.1136  0.1458 -0.2399
  227POPC   GL2 3269   8.685   4.617   4.782  0.0245 -0.3302 -0.0533
  227POPC   C1A 3270   8.206   4.790   5.051 -0.2507  0.2984 -0.0616
  227POPC   D2A 3271   8.040   5.170   5.250  0.3025 -0.1917  0.1933
  227POPC   C3A 3272   7.707   5.147   5.319 -0.2281 -0.0994 -0.4422
  227POPC   C4A 3273   7.268   5.186   5.419 -0.1351 -0.1601 -0.0766
  227POPC   C1B 3274   8.624   4.431   5.194 -0.2477 -0.1237  0.0886
  227POPC   C2B 3275   8.747   4.339   5.577  0.4851 -0.1857  0.2032
  227POPC   C3B 3276   8.859   4.070   5.897 -0.1605 -0.3542 -0.1513
  227POPC   C4B 3277   9.129   3.957   6.221 -0.2371 -0.0446  0.0519
  228POPC   NC3 3278   6.416   0.786   5.531 -0.0118  0.3284  0.1745
  228POPC   PO4 3279   6.837   0.560   5.512 -0.0844  0.3574  0.1471
  228POPC   GL1 3280   7.155   0.334   5.623 -0.1603 -0.1264  0.2388
  228POPC   GL2 3281   7.238   0.372   5.997 -0.3371 -0.1592  0.0660
  228POPC   C1A 3282   7.364  -0.036   5.823  0.2360 -0.2278  0.1997
  228POPC   D2A 3283   7.662  -0.112   6.095  0.0580 -0.3186 -0.3069
  228POPC   C3A 3284   7.905  -0.543   6.197 -0.0773 -0.1068 -0.2919
  228POPC   C4A 3285   8.210  -0.800   6.301  0.1193 -0.1592 -0.3100
  228POPC   C1B 3286   7.163   0.088   6.229  0.2312  0.1950 -0.1699
  228POPC   C2B 3287   7.186  -0.118   6.535  0.2431 -0.0890 -0.2250
  228POPC   C3B 3288   6.935  -0.040   7.032 -0.0748 -0.2497  0.0508
  228POPC   C4B 3289   6.835  -0.110   7.433 -0.1600  0.0826 -0.0857
  229POPC   NC3 3290   4.229   9.013   4.439  0.1165  0.4151  0.1288
  229POPC   PO4 3291   4.049   9.313   4.765 -0.1216 -0.0490 -0.0449
  229POPC   GL1 3292   3.774   9.127   5.142  0.1133  0.2522 -0.1358
  229POPC   GL2 3293   3.430   8.854   5.114  0.1856 -0.1888  0.1689
  229POPC   C1A 3294   3.795   9.108   5.614  0.0407  0.0190 -0.2365
  229POPC   D2A 3295   3.796   9.050   6.140 -0.3589 -0.0886 -0.0956
  229POPC   C3A 3296   4.185   8.863   6.300 -0.0116 -0.0949 -0.0788
  229POPC   C4A 3297   4.466   8.816   6.725  0.0546  0.0135  0.1547
  229POPC   C1B 3298   3.358   8.486   5.320 -0.0286 -0.2725 -0.3506
  229POPC   C2B 3299   3.266   8.161   5.677 -0.1343 -0.0584  0.2508
  229POPC   C3B 3300   3.367   8.033   6.146  0.1113  0.0549  0.1759
  229POPC   C4B 3301   3.600   8.123   6.517 -0.0398  0.2625 -0.0767
  230POPC   NC3 3302   8.417   7.050   3.128  0.1658  0.2013  0.0273
  230POPC   PO4 3303   8.386   6.813   3.439 -0.1194 -0.1614  0.0671
  230POPC   GL1 3304   8.280   6.979   3.851 -0.1732 -0.4514  0.1691
  230POPC   GL2 3305   8.205   6.703   3.958  0.0342 -0.2209  0.2202
  230POPC   C1A 3306   8.261   7.344   4.091 -0.0579  0.2797 -0.1592
  230POPC   D2A 3307   8.427   7.476   4.448  0.1472 -0.2698  0.0490
  230POPC   C3A 3308   8.407   7.929   4.473 -0.0911  0.1525 -0.0547
  230POPC   C4A 3309   8.697   8.308   4.600 -0.1549 -0.1461 -0.1338
  230POPC   C1B 3310   8.470   6.583   4.287 -0.1026 -0.2481  0.3342
  230POPC   C2B 3311   8.566   6.796   4.719  0.2849  0.1514 -0.1630
  230POPC   C3B 3312   8.740   6.880   5.036  0.2614 -0.2236  0.0064
  230POPC   C4B 3313   8.920   6.732   5.294 -0.0762  0.1617  0.1797
  231POPC   NC3 3314   5.130   1.075   5.405 -0.0463  0.0239 -0.1494
  231POPC   PO4 3315   5.219   1.461   5.441  0.0390  0.3698  0.3658
  231POPC   GL1 3316   5.091   1.831   5.672  0.1701  0.1039  0.1544
  231POPC   GL2 3317   5.459   2.093   5.662  0.2870  0.1028  0.1652
  231POPC   C1A 3318   4.823   2.147   5.964  0.2371  0.1317  0.1217
  231POPC   D2A 3319   4.525   2.332   6.282  0.0636  0.1183 -0.1067
  231POPC   C3A 3320   4.269   1.938   6.407 -0.1648  0.0172 -0.0522
  231POPC   C4A 3321   4.416   1.556   6.667 -0.2234 -0.4395 -0.2664
  231POPC   C1B 3322   5.518   2.040   6.118  0.3362 -0.0810 -0.3196
  231POPC   C2B 3323   5.349   1.878   6.613  0.0050  0.0784  0.0488
  231POPC   C3B 3324   5.080   1.644   6.789  0.2790  0.1873  0.2894
  231POPC   C4B 3325   4.879   1.454   7.016  0.1279  0.0657 -0.2242
  232POPC   NC3 3326   8.011   9.937   4.803  0.1452  0.2602 -0.0775
  232POPC   PO4 3327   7.670  10.177   4.925 -0.3138 -0.1743  0.1096
  232POPC   GL1 3328   7.585   9.763   5.124 -0.0272  0.0463 -0.2399
  232POPC   GL2 3329   7.594   9.748   5.482  0.4757 -0.2770 -0.1670
  232POPC   C1A 3330   7.580   9.399   5.187  0.0205 -0.1708  0.2748
  232POPC   D2A 3331   7.510   9.165   5.528  0.0922  0.6121  0.2026
  232POPC   C3A 3332   7.262   9.135   5.830  0.0430 -0.1131 -0.2555
  232POPC   C4A 3333   7.223   9.044   6.208 -0.0306  0.0427  0.2727
  232POPC   C1B 3334   7.531   9.580   5.859  0.4224 -0.3001 -0.0147
  232POPC   C2B 3335   7.325   9.532   6.283 -0.1358 -0.1633 -0.0078
  232POPC   C3B 3336   7.366   9.411   6.716 -0.0319 -0.1300 -0.1344
  232POPC   C4B 3337   7.593   8.958   6.663  0.1348  0.0851  0.0482
  233POPC   NC3 3338   8.431   3.075   5.075 -0.0182  0.0346 -0.1158
  233POPC   PO4 3339   8.624   2.770   5.166  0.0777 -0.2060 -0.0769
  233POPC   GL1 3340   8.530   3.086   5.618  0.1600 -0.0802 -0.0468
  233POPC   GL2 3341   8.351   2.929   5.833  0.1235  0.0423  0.3329
  233POPC   C1A 3342   8.591   3.460   5.819 -0.0097 -0.0322 -0.0945
  233POPC   D2A 3343   8.445   3.641   6.225 -0.0713 -0.3820 -0.0924
  233POPC   C3A 3344   8.615   4.051   6.337 -0.2431  0.0483 -0.0255
  233POPC   C4A 3345   8.687   4.460   6.447  0.2787 -0.1750  0.3085
  233POPC   C1B 3346   8.560   3.134   6.198  0.0131 -0.0260 -0.2993
  233POPC   C2B 3347   8.801   3.071   6.579 -0.1291 -0.1787  0.0706
  233POPC   C3B 3348   8.818   2.721   6.856  0.0728  0.1247  0.2936
  233POPC   C4B 3349   9.003   2.485   7.206  0.3190  0.1058  0.0723
  234POPC   NC3 3350   2.884   3.196   5.067  0.1004  0.1376  0.2311
  234POPC   PO4 3351   3.229   3.354   5.389 -0.0078  0.0665  0.0394
  234POPC   GL1 3352   3.207   3.619   5.771 -0.1965 -0.0410  0.0356
  234POPC   GL2 3353   3.470   3.651   5.862 -0.0530  0.1339 -0.1372
  234POPC   C1A 3354   3.117   3.518   6.184 -0.3306 -0.2189  0.1918
  234POPC   D2A 3355   2.885   3.438   6.589  0.1145 -0.0440  0.1872
  234POPC   C3A 3356   2.608   3.688   6.799 -0.1134 -0.3149  0.2220
  234POPC   C4A 3357   2.395   3.901   7.028  0.0311  0.0126  0.1437
  234POPC   C1B 3358   3.369   4.047   6.070  0.0324  0.1714 -0.0909
  234POPC   C2B 3359   3.507   4.189   6.425 -0.1942  0.1322  0.0038
  234POPC   C3B 3360   3.690   4.077   6.760 -0.1397 -0.0647 -0.0568
  234POPC   C4B 3361   4.049   4.205   6.966 -0.0781  0.3011  0.0616
  235POPC   NC3 3362   4.682   8.189   4.564 -0.2021 -0.1119 -0.1992
  235POPC   PO4 3363   4.957   8.516   4.490  0.0162  0.0952 -0.4462
  235POPC   GL1 3364   4.955   8.436   4.900  0.0628  0.0085 -0.2020
  235POPC   GL2 3365   4.817   8.217   5.140  0.2020  0.2070 -0.0193
  235POPC   C1A 3366   5.128   8.578   5.327 -0.3905  0.1702 -0.0646
  235POPC   D2A 3367   5.233   8.533   5.662 -0.2380 -0.3055  0.0432
  235POPC   C3A 3368   4.863   8.748   5.864 -0.1512  0.3465  0.0249
  235POPC   C4A 3369   4.626   8.862   6.136  0.0228 -0.0297 -0.1566
  235POPC   C1B 3370   4.925   8.102   5.448 -0.0221 -0.2303 -0.2710
  235POPC   C2B 3371   4.875   8.225   5.846  0.1730 -0.4008  0.0853
  235POPC   C3B 3372   4.863   8.384   6.266  0.0525  0.0896  0.0857
  235POPC   C4B 3373   4.952   8.254   6.771 -0.0112 -0.2801 -0.1449
  236POPC   NC3 3374   6.392   3.422   5.492  0.0684 -0.2599 -0.0617
  236POPC   PO4 3375   6.613   3.834   5.262 -0.0783 -0.0892 -0.0339
  236POPC   GL1 3376   6.285   3.956   5.600  0.2728 -0.1531  0.4999
  236POPC   GL2 3377   6.443   3.831   5.845 -0.0220 -0.0382  0.2680
  236POPC   C1A 3378   5.931   4.121   5.785  0.2574  0.0614 -0.0918
  236POPC   D2A 3379   5.612   4.123   6.226 -0.3719  0.3165 -0.0614
  236POPC   C3A 3380   5.792   4.136   6.686  0.1343 -0.1529 -0.1684
  236POPC   C4A 3381   6.070   4.231   6.923  0.0424 -0.3743  0.1789
  236POPC   C1B 3382   6.149   3.813   6.227  0.1017 -0.0570 -0.1029
  236POPC   C2B 3383   5.892   3.504   6.392 -0.0654 -0.1278  0.2046
  236POPC   C3B 3384   5.594   3.482   6.602  0.0143  0.1351 -0.0973
  236POPC   C4B 3385   5.084   3.447   6.553 -0.2224  0.4831 -0.1299
  237POPC   NC3 3386   1.601   8.595   5.057 -0.1949 -0.0932  0.2367
  237POPC   PO4 3387   1.242   8.325   5.079 -0.1108 -0.1101 -0.1232
  237POPC   GL1 3388   1.230   8.013   5.403 -0.6755  0.3341 -0.0036
  237POPC   GL2 3389   1.481   7.704   5.536 -0.1958  0.0697  0.0590
  237POPC   C1A 3390   1.209   8.006   5.879 -0.1560 -0.1330  0.1519
  237POPC   D2A 3391   1.180   8.010   6.318  0.0975  0.0243 -0.0321
  237POPC   C3A 3392   0.817   7.894   6.584  0.0077  0.1985  0.2191
  237POPC   C4A 3393   0.571   7.796   6.823  0.1020 -0.0780 -0.1895
  237POPC   C1B 3394   1.644   7.733   5.987  0.2393  0.2110  0.0052
  237POPC   C2B 3395   1.829   7.422   6.326  0.2767 -0.0558  0.0475
  237POPC   C3B 3396   2.149   7.196   6.423  0.1829 -0.2817 -0.0643
  237POPC   C4B 3397   2.345   6.945   6.645 -0.1783  0.4195  0.2865
  238POPC   NC3 3398   1.100   3.341   5.149  0.0790  0.0156 -0.0150
  238POPC   PO4 3399   1.016   3.803   5.372  0.0902 -0.0787  0.2159
  238POPC   GL1 3400   0.800   3.842   5.720  0.1179  0.1157  0.3158
  238POPC   GL2 3401   0.498   3.704   5.674 -0.2940  0.1369  0.1020
  238POPC   C1A 3402   0.704   4.085   6.039  0.0930  0.1205 -0.1836
  238POPC   D2A 3403   0.453   4.177   6.439 -0.2077  0.2446 -0.3300
  238POPC   C3A 3404   0.428   4.525   6.705  0.0942 -0.1928  0.2094
  238POPC   C4A 3405   0.647   4.515   7.025  0.0614  0.0891  0.1491
  238POPC   C1B 3406   0.645   3.442   5.929  0.0584 -0.0239  0.4611
  238POPC   C2B 3407   0.915   3.632   6.221 -0.0105  0.2819  0.1660
  238POPC   C3B 3408   1.102   3.592   6.694  0.1996 -0.1264 -0.0466
  238POPC   C4B 3409   1.117   3.795   7.104 -0.0207  0.4533  0.1363
  239POPC   NC3 3410   3.259   4.383   5.162 -0.2787 -0.0137  0.0675
  239POPC   PO4 3411   2.849   4.679   5.186  0.0659  0.0228 -0.0530
  239POPC   GL1 3412   2.612   4.579   5.503  0.1692  0.0871 -0.1214
  239POPC   GL2 3413   2.246   4.798   5.475  0.2849  0.1640  0.3591
  239POPC   C1A 3414   2.533   4.413   5.870 -0.1255  0.0989 -0.2206
  239POPC   D2A 3415   2.520   4.324   6.304 -0.1260  0.0110 -0.1495
  239POPC   C3A 3416   2.253   4.469   6.670  0.0927  0.0050 -0.6353
  239POPC   C4A 3417   2.216   4.711   7.180 -0.0725 -0.1876 -0.3996
  239POPC   C1B 3418   2.277   4.822   5.934 -0.0277  0.2473 -0.1728
  239POPC   C2B 3419   2.426   4.861   6.333  0.2233 -0.2720 -0.0872
  239POPC   C3B 3420   2.732   4.631   6.640 -0.4403  0.1100  0.2032
  239POPC   C4B 3421   3.138   4.462   6.592  0.0162 -0.1849 -0.2666
  240POPC   NC3 3422   7.011   8.807   4.064 -0.1331 -0.0859 -0.2552
  240POPC   PO4 3423   7.436   8.882   4.264  0.0816  0.2569  0.0163
  240POPC   GL1 3424   7.243   8.627   4.515 -0.0696 -0.3819  0.2213
  240POPC   GL2 3425   7.153   8.346   4.439  0.0273 -0.0029  0.0277
  240POPC   C1A 3426   7.369   8.573   4.888 -0.1411 -0.1527 -0.0036
  240POPC   D2A 3427   7.367   8.750   5.241  0.1577 -0.0891  0.2442
  240POPC   C3A 3428   7.628   8.393   5.519 -0.2008  0.1790 -0.0951
  240POPC   C4A 3429   7.944   8.252   5.784  0.0612  0.0133 -0.1566
  240POPC   C1B 3430   7.185   8.113   4.777 -0.4574 -0.0514 -0.2082
  240POPC   C2B 3431   7.508   8.049   5.109 -0.0833  0.2272  0.0392
  240POPC   C3B 3432   7.674   7.645   5.219  0.1321 -0.3316  0.2108
  240POPC   C4B 3433   7.571   7.821   5.585 -0.3073  0.1188 -0.0835
  241POPC   NC3 3434   3.381   6.967   4.395 -0.1647  0.1705 -0.0474
  241POPC   PO4 3435   3.612   7.068   4.820  0.0371 -0.0957  0.1114
  241POPC   GL1 3436   3.788   7.309   5.142 -0.2174 -0.4019  0.1142
  241POPC   GL2 3437   3.584   7.572   5.300  0.0245 -0.0824 -0.1516
  241POPC   C1A 3438   3.927   7.160   5.528  0.0918 -0.3828  0.1552
  241POPC   D2A 3439   3.946   7.234   6.030 -0.1133 -0.0973 -0.0921
  241POPC   C3A 3440   4.114   6.924   6.421 -0.1339 -0.0609  0.1512
  241POPC   C4A 3441   4.208   6.574   6.713  0.1444 -0.1178  0.1089
  241POPC   C1B 3442   3.643   7.647   5.641 -0.5863 -0.1309 -0.0744
  241POPC   C2B 3443   3.625   7.640   6.143 -0.0451  0.0599 -0.2008
  241POPC   C3B 3444   3.501   7.614   6.558 -0.0115  0.2380  0.0688
  241POPC   C4B 3445   3.097   7.620   6.808 -0.0695 -0.1988 -0.0746
  242POPC   NC3 3446   4.587   1.278   5.149 -0.0428 -0.0192 -0.0918
  242POPC   PO4 3447   4.821   1.699   5.169 -0.0258  0.2343  0.1284
  242POPC   GL1 3448   4.744   1.494   5.601 -0.2543  0.2088 -0.0618
  242POPC   GL2 3449   4.915   1.324   5.874  0.0191  0.2873  0.0173
  242POPC   C1A 3450   4.624   1.719   6.030 -0.1568  0.2493  0.0175
  242POPC   D2A 3451   4.825   1.946   6.457  0.2204  0.0811  0.0762
  242POPC   C3A 3452   4.586   2.112   6.747  0.4294 -0.0061  0.0498
  242POPC   C4A 3453   4.587   2.466   6.970  0.1365  0.1209 -0.3882
  242POPC   C1B 3454   4.965   0.922   6.100  0.0200 -0.2729  0.3978
  242POPC   C2B 3455   5.411   0.654   6.071 -0.2003  0.1519  0.0893
  242POPC   C3B 3456   5.801   0.590   5.992 -0.1834 -0.1333 -0.2399
  242POPC   C4B 3457   6.193   0.444   6.121  0.0090  0.0034 -0.0181
  243POPC   NC3 3458   1.438   7.303   4.645  0.2252 -0.1748  0.1716
  243POPC   PO4 3459   1.844   7.164   4.565 -0.0345 -0.0302 -0.0907
  243POPC   GL1 3460   1.729   7.177   5.007 -0.1806  0.1382  0.1490
  243POPC   GL2 3461   1.447   7.265   5.164 -0.0977 -0.2299  0.2325
  243POPC   C1A 3462   1.695   7.194   5.591 -0.1375 -0.1067  0.2185
  243POPC   D2A 3463   1.761   7.001   6.084  0.0076 -0.2497  0.0743
  243POPC   C3A 3464   1.647   6.900   6.601 -0.0350 -0.0686  0.1051
  243POPC   C4A 3465   1.449   6.687   6.912  0.0906  0.1317  0.1619
  243POPC   C1B 3466   1.229   7.246   5.601 -0.3443  0.1293  0.0916
  243POPC   C2B 3467   1.362   7.342   6.083  0.0872 -0.0148 -0.0029
  243POPC   C3B 3468   1.261   7.476   6.438 -0.1292 -0.1295  0.1158
  243POPC   C4B 3469   1.074   7.608   6.883  0.1778  0.0286  0.1885
  244POPC   NC3 3470   2.935   7.887   4.387 -0.0343 -0.5853 -0.0376
  244POPC   PO4 3471   2.739   8.011   4.760  0.1970 -0.0006  0.0122
  244POPC   GL1 3472   2.564   8.145   5.193 -0.3124 -0.2438  0.2032
  244POPC   GL2 3473   2.255   8.125   5.404 -0.0268 -0.1427  0.0811
  244POPC   C1A 3474   2.851   8.328   5.528  0.1575  0.1067 -0.2287
  244POPC   D2A 3475   3.049   8.547   5.974  0.1721 -0.1257  0.0978
  244POPC   C3A 3476   2.693   8.518   6.271  0.1262 -0.0127  0.2026
  244POPC   C4A 3477   2.665   8.243   6.760  0.0800 -0.0428 -0.2061
  244POPC   C1B 3478   2.310   8.048   5.832 -0.1209  0.1716 -0.0907
  244POPC   C2B 3479   2.365   8.142   6.272  0.0276 -0.0577 -0.2331
  244POPC   C3B 3480   2.155   8.222   6.749  0.2437 -0.1521  0.0549
  244POPC   C4B 3481   1.650   8.235   6.855 -0.2386 -0.0239  0.2687
  245POPC   NC3 3482   7.104   8.082   4.005  0.1064 -0.0719  0.0169
  245POPC   PO4 3483   7.323   7.670   3.746  0.1261 -0.0088 -0.1111
  245POPC   GL1 3484   7.382   7.634   4.228  0.0168  0.0749  0.1089
  245POPC   GL2 3485   7.172   7.746   4.398 -0.0537 -0.0340 -0.1730
  245POPC   C1A 3486   7.587   7.715   4.706 -0.1485  0.0316 -0.0104
  245POPC   D2A 3487   7.935   7.886   4.808 -0.0024  0.1192 -0.2229
  245POPC   C3A 3488   8.017   8.027   5.260 -0.2596  0.2036 -0.1191
  245POPC   C4A 3489   8.102   7.808   5.716  0.1007  0.1117  0.0410
  245POPC   C1B 3490   6.738   7.793   4.690 -0.0312  0.0242  0.0389
  245POPC   C2B 3491   6.555   7.835   5.184 -0.3992  0.2468 -0.0599
  245POPC   C3B 3492   6.626   7.633   5.619 -0.1340  0.0819  0.0447
  245POPC   C4B 3493   6.762   7.368   5.987  0.0333 -0.0453 -0.0049
  246POPC   NC3 3494   0.514   5.880   4.550  0.1067  0.0057  0.2237
  246POPC   PO4 3495   0.707   6.177   4.834  0.1227  0.2138 -0.1955
  246POPC   GL1 3496   0.501   6.029   5.148 -0.0917 -0.1088  0.1863
  246POPC   GL2 3497   0.490   5.664   4.979  0.0921 -0.1035 -0.0190
  246POPC   C1A 3498   0.499   6.143   5.586 -0.1462 -0.0646  0.2803
  246POPC   D2A 3499   0.559   6.128   6.022 -0.0496 -0.0522  0.2386
  246POPC   C3A 3500   0.099   6.006   6.176 -0.0386 -0.1767 -0.3241
  246POPC   C4A 3501  -0.394   6.007   6.054  0.3096 -0.0525  0.4476
  246POPC   C1B 3502   0.467   5.551   5.419  0.1032  0.4748 -0.1739
  246POPC   C2B 3503   0.794   5.464   5.770  0.1508 -0.0445  0.5135
  246POPC   C3B 3504   1.170   5.309   5.866 -0.0575 -0.3160 -0.1729
  246POPC   C4B 3505   1.537   5.231   6.077 -0.0007  0.1343  0.0468
  247POPC   NC3 3506   9.820   4.394   4.075 -0.0771  0.3827  0.0381
  247POPC   PO4 3507  10.006   4.367   4.453  0.0673  0.0509 -0.1187
  247POPC   GL1 3508  10.075   4.652   4.835 -0.0951  0.1019 -0.1616
  247POPC   GL2 3509  10.155   4.956   4.870 -0.0436 -0.1096  0.0476
  247POPC   C1A 3510   9.880   4.550   5.263  0.2589 -0.3590  0.1007
  247POPC   D2A 3511   9.516   4.617   5.459  0.0884 -0.2632 -0.0572
  247POPC   C3A 3512   9.282   4.367   5.340  0.1616  0.3611 -0.1084
  247POPC   C4A 3513   9.297   4.033   5.040 -0.0601 -0.1070 -0.1213
  247POPC   C1B 3514  10.261   4.919   5.304  0.1370  0.1122 -0.0633
  247POPC   C2B 3515   9.986   4.907   5.655 -0.0064 -0.0170  0.0728
  247POPC   C3B 3516   9.757   5.066   5.897  0.0023  0.4126  0.2518
  247POPC   C4B 3517   9.729   5.227   6.322 -0.0882  0.0290  0.0886
  248POPC   NC3 3518   8.065   1.994   5.327  0.0524  0.1310  0.4243
  248POPC   PO4 3519   7.854   1.556   5.412 -0.1278  0.0006 -0.0413
  248POPC   GL1 3520   8.012   1.283   5.953 -0.0132 -0.0517  0.0976
  248POPC   GL2 3521   8.073   0.904   5.997 -0.0654  0.1513  0.0871
  248POPC   C1A 3522   8.136   1.330   6.353  0.0637  0.0613 -0.2375
  248POPC   D2A 3523   8.183   1.249   6.780  0.3162  0.2423  0.0855
  248POPC   C3A 3524   8.517   0.898   6.939  0.2054  0.1292  0.2067
  248POPC   C4A 3525   8.597   0.483   7.031 -0.0219  0.1070 -0.1454
  248POPC   C1B 3526   7.883   0.898   6.395 -0.2161  0.1208  0.1484
  248POPC   C2B 3527   7.804   0.962   6.798  0.0684  0.0220  0.2850
  248POPC   C3B 3528   7.450   1.076   7.219 -0.1520 -0.0860  0.0125
  248POPC   C4B 3529   7.004   0.967   7.216 -0.0189  0.3739  0.1395
  249POPC   NC3 3530   9.503   8.949   4.462  0.0795  0.0286 -0.1343
  249POPC   PO4 3531   9.778   9.003   4.791  0.1624  0.1496 -0.1761
  249POPC   GL1 3532   9.591   8.697   5.044  0.0997 -0.0999  0.0022
  249POPC   GL2 3533   9.532   8.555   4.727 -0.0747 -0.2408  0.1280
  249POPC   C1A 3534   9.488   8.481   5.402  0.0667  0.0241 -0.0619
  249POPC   D2A 3535   9.166   8.126   5.416 -0.1116 -0.2176 -0.3469
  249POPC   C3A 3536   9.043   7.959   5.826 -0.0792  0.0032 -0.1270
  249POPC   C4A 3537   8.766   7.492   5.856  0.1853 -0.0734  0.2487
  249POPC   C1B 3538   9.200   8.373   4.787  0.3027  0.0349  0.0636
  249POPC   C2B 3539   8.857   8.147   5.065 -0.1148  0.2452 -0.2617
  249POPC   C3B 3540   8.541   8.100   5.390  0.1699 -0.1662  0.0066
  249POPC   C4B 3541   8.546   7.984   5.790 -0.2160  0.1077  0.2084
  250POPC   NC3 3542   8.050   3.183   4.786 -0.0911 -0.0808 -0.1084
  250POPC   PO4 3543   7.975   2.977   5.170  0.2619 -0.0678 -0.2171
  250POPC   GL1 3544   7.790   3.167   5.416  0.0069  0.2158  0.3419
  250POPC   GL2 3545   7.857   3.094   5.703 -0.0879  0.2223 -0.0866
  250POPC   C1A 3546   7.671   3.560   5.703  0.2042 -0.1035 -0.2197
  250POPC   D2A 3547   7.473   3.871   5.898  0.1327  0.1113  0.0744
  250POPC   C3A 3548   7.507   3.948   6.321  0.0262  0.2946 -0.1187
  250POPC   C4A 3549   7.408   4.129   6.667  0.3266  0.1102  0.0588
  250POPC   C1B 3550   8.040   3.420   5.966 -0.1617  0.0957  0.3872
  250POPC   C2B 3551   7.974   3.827   6.085  0.1243  0.4790 -0.0810
  250POPC   C3B 3552   7.932   4.249   6.394  0.0975  0.2838  0.1769
  250POPC   C4B 3553   8.247   4.427   6.681 -0.1823  0.2124  0.0855
  251POPC   NC3 3554   9.059   2.837   4.940  0.3787  0.2048  0.0966
  251POPC   PO4 3555   9.419   3.106   5.205  0.1176 -0.2921  0.1494
  251POPC   GL1 3556   9.520   3.206   5.628  0.0543  0.2026  0.0214
  251POPC   GL2 3557   9.457   2.927   5.763  0.1181 -0.1065  0.1666
  251POPC   C1A 3558   9.462   3.333   6.090 -0.1364  0.0164  0.3797
  251POPC   D2A 3559   9.420   3.557   6.467  0.2599  0.2969 -0.3239
  251POPC   C3A 3560   9.183   3.381   6.833 -0.0109 -0.0897  0.0675
  251POPC   C4A 3561   9.149   2.984   7.104  0.0049 -0.2041  0.3202
  251POPC   C1B 3562   9.592   2.827   6.229  0.0112 -0.0619  0.2679
  251POPC   C2B 3563   9.854   2.618   6.591 -0.2812  0.0729  0.3990
  251POPC   C3B 3564  10.104   2.946   6.971  0.2340  0.3513  0.0525
  251POPC   C4B 3565  10.589   3.078   7.252  0.1610  0.0792  0.2284
  252POPC   NC3 3566   4.304   0.996   4.712 -0.1374  0.0423  0.1769
  252POPC   PO4 3567   4.338   0.792   5.128  0.1060 -0.2680 -0.1565
  252POPC   GL1 3568   4.164   0.941   5.458  0.2559  0.0111  0.2988
  252POPC   GL2 3569   4.502   0.945   5.652  0.0349  0.2693  0.2019
  252POPC   C1A 3570   3.971   0.880   5.835 -0.1465 -0.4402 -0.0411
  252POPC   D2A 3571   3.974   1.091   6.239  0.0724  0.2211  0.2393
  252POPC   C3A 3572   3.539   1.075   6.262  0.2922  0.1536 -0.5921
  252POPC   C4A 3573   3.061   1.053   6.286  0.3188 -0.0722  0.2071
  252POPC   C1B 3574   4.513   0.708   5.943 -0.4184 -0.1571 -0.0164
  252POPC   C2B 3575   4.454   0.364   6.107  0.0082  0.2948 -0.1291
  252POPC   C3B 3576   4.315   0.263   6.530  0.3509 -0.4543  0.2420
  252POPC   C4B 3577   4.696   0.263   6.822  0.0291 -0.1655  0.2538
  253POPC   NC3 3578   8.168   5.901   3.554  0.3972  0.0882 -0.0706
  253POPC   PO4 3579   7.909   5.890   3.904  0.2381 -0.0166 -0.1140
  253POPC   GL1 3580   7.911   5.937   4.324  0.0436  0.0127 -0.3086
  253POPC   GL2 3581   7.574   5.902   4.370  0.4061  0.0648  0.0287
  253POPC   C1A 3582   7.859   6.324   4.600 -0.2009  0.2118 -0.0372
  253POPC   D2A 3583   7.633   6.398   4.970  0.0555 -0.0101  0.0171
  253POPC   C3A 3584   7.552   6.867   5.081  0.2724  0.2573  0.1479
  253POPC   C4A 3585   7.587   7.239   4.990  0.1958 -0.1611 -0.1589
  253POPC   C1B 3586   7.751   5.919   4.825  0.3134  0.1329  0.1214
  253POPC   C2B 3587   7.803   5.936   5.153 -0.0800 -0.1098 -0.3051
  253POPC   C3B 3588   7.714   5.990   5.546  0.1807 -0.3572  0.0201
  253POPC   C4B 3589   7.548   6.150   5.832  0.2640  0.2434  0.1211
  254POPC   NC3 3590   2.704   1.259   5.163 -0.2175 -0.1226  0.0999
  254POPC   PO4 3591   2.907   0.887   5.134  0.0983 -0.0829  0.0439
  254POPC   GL1 3592   3.239   0.751   5.399 -0.0189  0.1462  0.0583
  254POPC   GL2 3593   3.444   0.607   5.347  0.1995 -0.2065 -0.2769
  254POPC   C1A 3594   3.110   0.508   5.746 -0.1381 -0.1594  0.2872
  254POPC   D2A 3595   2.889   0.455   6.174 -0.2188 -0.0158  0.2174
  254POPC   C3A 3596   3.074   0.117   6.442  0.1294 -0.0556 -0.2566
  254POPC   C4A 3597   3.014  -0.229   6.821  0.5134 -0.0536 -0.0698
  254POPC   C1B 3598   3.641   0.526   5.792  0.1454 -0.0534  0.0272
  254POPC   C2B 3599   3.924   0.572   6.214 -0.0287  0.1486 -0.3265
  254POPC   C3B 3600   4.137   0.765   6.671  0.1534 -0.2528  0.2637
  254POPC   C4B 3601   4.553   1.112   6.882  0.2073  0.0280  0.2529
  255POPC   NC3 3602   0.923   4.171   5.076 -0.3848  0.2469  0.4460
  255POPC   PO4 3603   1.277   4.508   5.015  0.2363  0.0095  0.2059
  255POPC   GL1 3604   1.096   4.625   5.444 -0.0634  0.1864  0.0919
  255POPC   GL2 3605   1.175   4.361   5.694 -0.0710  0.2722  0.0932
  255POPC   C1A 3606   0.915   4.928   5.768  0.4844 -0.2647  0.3819
  255POPC   D2A 3607   0.636   5.062   6.080 -0.0132  0.0344  0.0062
  255POPC   C3A 3608   0.586   4.957   6.496 -0.2351  0.1825 -0.0467
  255POPC   C4A 3609   0.911   4.951   6.837  0.1937  0.0036  0.1753
  255POPC   C1B 3610   0.887   4.529   6.011 -0.0203  0.1121  0.2112
  255POPC   C2B 3611   0.949   4.469   6.489  0.3749  0.0825  0.0202
  255POPC   C3B 3612   1.366   4.680   6.706  0.0854 -0.2303  0.1284
  255POPC   C4B 3613   1.400   5.057   6.719 -0.1992 -0.1574 -0.1240
  256POPC   NC3 3614  10.049   1.750   5.240 -0.1168 -0.0350 -0.1658
  256POPC   PO4 3615   9.800   1.687   5.640 -0.1372  0.0793  0.1651
  256POPC   GL1 3616   9.906   1.874   5.999 -0.2964 -0.0860  0.2866
  256POPC   GL2 3617   9.828   2.171   6.113 -0.2425  0.0613  0.0690
  256POPC   C1A 3618  10.203   1.776   6.360 -0.0897 -0.2280  0.3793
  256POPC   D2A 3619  10.601   1.866   6.655 -0.3395  0.1630  0.1269
  256POPC   C3A 3620  10.734   2.317   6.507 -0.0755  0.1924 -0.0363
  256POPC   C4A 3621  10.854   2.710   6.353 -0.1320  0.0200  0.1974
  256POPC   C1B 3622   9.790   2.134   6.612  0.2498  0.0644  0.1771
  256POPC   C2B 3623   9.710   2.131   7.109  0.0156 -0.0409 -0.2254
  256POPC   C3B 3624   9.414   2.165   7.467  0.1542 -0.1786 -0.1434
  256POPC   C4B 3625   9.109   2.441   7.696  0.1518 -0.2500  0.2153
  257POPC   NC3 3626   5.313   4.791   5.037 -0.2682  0.1407  0.0090
  257POPC   PO4 3627   5.525   4.921   5.326 -0.1887 -0.0180  0.0700
  257POPC   GL1 3628   5.673   5.027   5.763  0.0554  0.2658 -0.2743
  257POPC   GL2 3629   5.943   5.253   5.764  0.1299 -0.0219  0.1170
  257POPC   C1A 3630   5.624   4.943   6.256 -0.0295  0.0943  0.0503
  257POPC   D2A 3631   5.806   5.222   6.627  0.0729 -0.0098 -0.0061
  257POPC   C3A 3632   6.066   5.017   7.012  0.2486 -0.1925 -0.0992
  257POPC   C4A 3633   6.406   4.783   7.326  0.0983 -0.1992 -0.2355
  257POPC   C1B 3634   5.904   5.355   6.171  0.2879 -0.0828 -0.0968
  257POPC   C2B 3635   5.766   5.693   6.481 -0.1613 -0.0519  0.1682
  257POPC   C3B 3636   5.370   5.773   6.713 -0.1957 -0.2032  0.0838
  257POPC   C4B 3637   5.010   5.657   6.919 -0.2853  0.1209 -0.2146
  258POPC   NC3 3638   1.796   6.395   4.808 -0.0961 -0.1161 -0.0828
  258POPC   PO4 3639   1.663   6.151   5.052  0.2423 -0.4081  0.1701
  258POPC   GL1 3640   1.428   6.281   5.354  0.2175 -0.1030 -0.1937
  258POPC   GL2 3641   1.130   6.216   5.222  0.2525  0.0869  0.0791
  258POPC   C1A 3642   1.423   6.283   5.853 -0.4692 -0.2654  0.0837
  258POPC   D2A 3643   1.679   6.481   6.134  0.0058  0.0374 -0.2044
  258POPC   C3A 3644   1.657   6.414   6.517  0.1047  0.1245 -0.0573
  258POPC   C4A 3645   1.663   6.238   6.976  0.1685  0.0607 -0.1510
  258POPC   C1B 3646   0.841   6.470   5.388  0.2900  0.1618 -0.0180
  258POPC   C2B 3647   0.789   6.571   5.824  0.2539 -0.2008 -0.0080
  258POPC   C3B 3648   0.676   6.666   6.209 -0.0480 -0.0223 -0.1040
  258POPC   C4B 3649   0.593   6.839   6.513 -0.1362  0.1597  0.2233
  259POPC   NC3 3650   8.852   0.685   5.174 -0.0546 -0.1911 -0.2400
  259POPC   PO4 3651   8.881   1.169   5.384 -0.3196 -0.2346  0.0684
  259POPC   GL1 3652   8.632   0.896   5.639  0.1176  0.0313 -0.2520
  259POPC   GL2 3653   8.704   0.925   6.053 -0.1564  0.0353 -0.3048
  259POPC   C1A 3654   8.533   0.387   5.801  0.3333  0.1105  0.1748
  259POPC   D2A 3655   8.393   0.272   6.146  0.2171 -0.2414  0.1785
  259POPC   C3A 3656   8.166  -0.024   6.397 -0.3000  0.0827  0.1055
  259POPC   C4A 3657   7.769  -0.271   6.590  0.4173 -0.3609  0.0836
  259POPC   C1B 3658   8.830   0.580   6.202  0.0318 -0.2780  0.0128
  259POPC   C2B 3659   8.790   0.329   6.479 -0.0328 -0.1492  0.3248
  259POPC   C3B 3660   8.504   0.121   6.720  0.0207 -0.0516  0.0612
  259POPC   C4B 3661   8.300  -0.028   7.038  0.0437  0.2391  0.1779
  260POPC   NC3 3662   9.802   9.848   5.298  0.3892 -0.2855  0.2390
  260POPC   PO4 3663  10.066   9.546   5.512  0.2510  0.2033 -0.2261
  260POPC   GL1 3664   9.849   9.892   5.821  0.0647  0.3989 -0.1964
  260POPC   GL2 3665   9.510   9.836   5.748 -0.0186 -0.2401  0.2158
  260POPC   C1A 3666   9.774   9.906   6.258  0.1676 -0.2274 -0.1522
  260POPC   D2A 3667   9.552  10.130   6.432 -0.0746  0.3431 -0.0730
  260POPC   C3A 3668   9.441   9.746   6.588 -0.1918 -0.1957  0.1700
  260POPC   C4A 3669   9.162   9.520   6.804 -0.2077  0.2873  0.3049
  260POPC   C1B 3670   9.276   9.825   6.028  0.2399 -0.1497 -0.3022
  260POPC   C2B 3671   8.892   9.594   6.211  0.1798 -0.3958 -0.3045
  260POPC   C3B 3672   8.719   9.315   6.098  0.0373  0.0589 -0.0669
  260POPC   C4B 3673   8.597   8.980   6.239  0.2758 -0.0241 -0.2784
  261POPC   NC3 3674   9.699   7.250   3.911 -0.1636  0.1460 -0.2214
  261POPC   PO4 3675   9.305   7.127   3.728 -0.1696  0.0501 -0.2699
  261POPC   GL1 3676   9.224   6.933   4.120 -0.1625  0.2065  0.0565
  261POPC   GL2 3677   9.426   7.026   4.277  0.0784 -0.1869 -0.1522
  261POPC   C1A 3678   8.989   6.755   4.388 -0.0019  0.1651 -0.3897
  261POPC   D2A 3679   8.977   6.526   4.715  0.0303  0.1683 -0.0264
  261POPC   C3A 3680   8.705   6.375   5.025 -0.1119 -0.0020 -0.1900
  261POPC   C4A 3681   8.640   6.325   5.519 -0.2218 -0.2162  0.1273
  261POPC   C1B 3682   9.299   7.043   4.708 -0.0100  0.2100 -0.2027
  261POPC   C2B 3683   9.396   6.843   5.171  0.2872  0.3613  0.1459
  261POPC   C3B 3684   9.287   6.885   5.580 -0.1838 -0.1444 -0.1932
  261POPC   C4B 3685   9.045   6.541   5.742  0.2731  0.2792  0.0666
  262POPC   NC3 3686   9.260   4.646   4.087  0.1399  0.1550  0.0352
  262POPC   PO4 3687   9.613   4.708   4.464 -0.1622  0.0736  0.1957
  262POPC   GL1 3688   9.553   4.833   4.880 -0.4025  0.4086 -0.0559
  262POPC   GL2 3689   9.730   5.028   5.098  0.4080 -0.1932 -0.3136
  262POPC   C1A 3690   9.202   4.887   5.062 -0.3177  0.1127  0.2718
  262POPC   D2A 3691   8.959   4.768   5.369  0.1025  0.4825 -0.0866
  262POPC   C3A 3692   8.659   4.938   5.261 -0.1815 -0.3866  0.4928
  262POPC   C4A 3693   8.472   5.302   5.205 -0.2351 -0.1222  0.5133
  262POPC   C1B 3694   9.570   5.107   5.412 -0.1385 -0.2833 -0.0874
  262POPC   C2B 3695   9.217   4.994   5.738  0.0308 -0.1617 -0.0873
  262POPC   C3B 3696   9.143   4.954   6.196  0.0600  0.1346  0.0012
  262POPC   C4B 3697   8.715   4.932   6.357  0.2633 -0.0436  0.0776
  263POPC   NC3 3698   0.054   8.868   4.563 -0.2316 -0.0544 -0.0378
  263POPC   PO4 3699   0.438   8.583   4.472  0.3222  0.0948  0.1682
  263POPC   GL1 3700   0.319   8.571   4.894  0.4754  0.0162  0.2484
  263POPC   GL2 3701  -0.004   8.802   5.081 -0.1877 -0.1796 -0.0321
  263POPC   C1A 3702   0.328   8.420   5.304 -0.0728 -0.0077 -0.0843
  263POPC   D2A 3703   0.442   8.384   5.729  0.0932 -0.1169 -0.3362
  263POPC   C3A 3704   0.128   8.262   5.966 -0.1894  0.1847 -0.1296
  263POPC   C4A 3705   0.346   7.847   6.298  0.1129  0.0132 -0.0721
  263POPC   C1B 3706  -0.189   8.511   5.364  0.0282 -0.0652 -0.0498
  263POPC   C2B 3707  -0.319   8.393   5.754  0.1576 -0.0714  0.3932
  263POPC   C3B 3708  -0.442   8.370   6.161 -0.2264 -0.2167  0.1678
  263POPC   C4B 3709  -0.241   8.285   6.488  0.0882  0.0070 -0.2740
  264POPC   NC3 3710   8.752   7.737   3.559  0.0233  0.1643  0.3003
  264POPC   PO4 3711   9.130   7.639   3.617  0.0177 -0.2702  0.2220
  264POPC   GL1 3712   9.283   7.526   4.031  0.0184  0.1014 -0.1834
  264POPC   GL2 3713   9.539   7.569   4.260  0.0368  0.1623  0.2411
  264POPC   C1A 3714   9.022   7.310   4.397  0.0966 -0.0646  0.0312
  264POPC   D2A 3715   8.815   7.168   4.667  0.0385  0.0700  0.0770
  264POPC   C3A 3716   8.484   7.317   4.914  0.0628 -0.0113  0.1341
  264POPC   C4A 3717   8.035   7.400   4.816  0.0323 -0.0226 -0.0497
  264POPC   C1B 3718   9.401   7.664   4.754  0.4068 -0.0925 -0.0881
  264POPC   C2B 3719   9.227   7.777   5.094  0.0365 -0.0710 -0.1184
  264POPC   C3B 3720   8.878   7.711   5.306 -0.1092  0.1030  0.1705
  264POPC   C4B 3721   8.404   7.528   5.378  0.1587  0.2456 -0.0125
  265POPC   NC3 3722   6.761   9.478   4.536 -0.1362  0.0200  0.0693
  265POPC   PO4 3723   6.815   9.293   4.202  0.1973  0.3749  0.0750
  265POPC   GL1 3724   6.859   8.981   4.605 -0.0471 -0.0119 -0.1983
  265POPC   GL2 3725   6.524   9.083   4.717  0.1476 -0.1349  0.3756
  265POPC   C1A 3726   6.860   8.655   5.037  0.1051  0.1944  0.1711
  265POPC   D2A 3727   7.052   8.384   5.309  0.2158  0.1257  0.3745
  265POPC   C3A 3728   7.007   8.273   5.757  0.0585 -0.1536 -0.1888
  265POPC   C4A 3729   6.990   8.155   6.180  0.0669 -0.1192  0.0775
  265POPC   C1B 3730   6.521   9.031   5.190  0.0748 -0.0775 -0.1530
  265POPC   C2B 3731   6.575   8.809   5.586  0.0606 -0.1482  0.1972
  265POPC   C3B 3732   6.366   8.851   5.969  0.1018  0.2553 -0.0622
  265POPC   C4B 3733   6.423   8.752   6.347 -0.1208 -0.2262  0.2573
  266POPC   NC3 3734   3.920   1.755   5.168  0.1062  0.0515 -0.0427
  266POPC   PO4 3735   3.589   1.532   4.897 -0.1667 -0.3150 -0.1466
  266POPC   GL1 3736   3.645   1.354   5.433  0.1507 -0.3637  0.0611
  266POPC   GL2 3737   3.646   1.079   5.468 -0.0376 -0.4434 -0.0110
  266POPC   C1A 3738   3.898   1.432   5.841  0.1527  0.3208 -0.1861
  266POPC   D2A 3739   4.341   1.277   5.975  0.1647  0.1145 -0.0921
  266POPC   C3A 3740   4.481   1.101   6.355  0.1555  0.2964 -0.4048
  266POPC   C4A 3741   4.716   0.711   6.504 -0.1828  0.0552 -0.0318
  266POPC   C1B 3742   3.381   0.938   5.842  0.2312 -0.0756  0.3137
  266POPC   C2B 3743   3.414   0.608   6.266  0.0610  0.3675 -0.0713
  266POPC   C3B 3744   3.175   0.619   6.604  0.0942  0.0657 -0.0086
  266POPC   C4B 3745   3.068   0.737   7.049  0.2319 -0.1304  0.0338
  267POPC   NC3 3746   9.507   1.177   5.763 -0.2036 -0.0929  0.0269
  267POPC   PO4 3747   9.043   1.209   5.830  0.2926 -0.2257  0.0475
  267POPC   GL1 3748   8.940   1.323   6.235  0.0233  0.2579 -0.1947
  267POPC   GL2 3749   9.202   1.019   6.243 -0.1298 -0.1563  0.2537
  267POPC   C1A 3750   8.642   1.160   6.448  0.2880  0.0270 -0.0178
  267POPC   D2A 3751   8.388   0.772   6.394  0.1589  0.2276 -0.1528
  267POPC   C3A 3752   8.162   0.488   6.692  0.1079  0.1855 -0.0755
  267POPC   C4A 3753   7.943   0.492   6.971 -0.0615 -0.1487 -0.1106
  267POPC   C1B 3754   9.662   1.045   6.375  0.0052  0.0216  0.1021
  267POPC   C2B 3755  10.015   1.072   6.671 -0.2335  0.0872  0.3174
  267POPC   C3B 3756  10.231   1.028   7.098  0.0961  0.2374 -0.0731
  267POPC   C4B 3757  10.339   0.869   7.575  0.0523 -0.1821  0.1272
  268POPC   NC3 3758   9.547   1.872   5.239 -0.1379 -0.0511  0.2401
  268POPC   PO4 3759   9.773   2.229   5.160  0.2172 -0.1745 -0.1985
  268POPC   GL1 3760   9.915   2.187   5.526 -0.0328 -0.4753  0.0711
  268POPC   GL2 3761   9.812   2.411   5.735 -0.0109 -0.1320  0.4123
  268POPC   C1A 3762  10.218   2.192   5.786 -0.1494 -0.0888 -0.2679
  268POPC   D2A 3763  10.392   2.225   6.212  0.1276  0.2872 -0.0507
  268POPC   C3A 3764  10.265   2.267   6.682 -0.0707  0.2396 -0.1746
  268POPC   C4A 3765  10.092   2.434   7.027  0.0311 -0.5957 -0.0229
  268POPC   C1B 3766  10.002   2.621   6.098  0.1357  0.1364 -0.0937
  268POPC   C2B 3767  10.348   2.730   6.515 -0.2887  0.1403  0.3842
  268POPC   C3B 3768  10.637   2.693   6.828 -0.1777 -0.0073 -0.1433
  268POPC   C4B 3769  10.611   2.296   7.036  0.1325  0.2748  0.4003
  269POPC   NC3 3770   7.138   7.220   3.987 -0.0459  0.5626 -0.1285
  269POPC   PO4 3771   6.899   7.612   3.955  0.4319 -0.0392 -0.0808
  269POPC   GL1 3772   6.770   7.480   4.334  0.3176 -0.0913  0.0845
  269POPC   GL2 3773   6.716   7.164   4.456  0.0716 -0.0150 -0.0656
  269POPC   C1A 3774   6.332   7.425   4.548 -0.1427  0.1410  0.2354
  269POPC   D2A 3775   6.213   7.564   4.923 -0.0257  0.2370 -0.2391
  269POPC   C3A 3776   6.191   7.342   5.312 -0.1493 -0.0636  0.0560
  269POPC   C4A 3777   6.298   7.209   5.736  0.2897 -0.3352 -0.0519
  269POPC   C1B 3778   6.672   6.803   4.867  0.0074  0.1628 -0.0397
  269POPC   C2B 3779   6.612   6.500   5.125  0.0870 -0.0111  0.0236
  269POPC   C3B 3780   6.631   6.488   5.482  0.3330 -0.1530  0.1047
  269POPC   C4B 3781   6.788   6.834   5.800  0.0257  0.1997  0.1198
  270POPC   NC3 3782   4.372   9.590   5.033  0.4055  0.4117 -0.1038
  270POPC   PO4 3783   4.758   9.830   5.125 -0.0520  0.0479 -0.1347
  270POPC   GL1 3784   4.755   9.670   5.404  0.0717 -0.0729  0.2017
  270POPC   GL2 3785   5.076   9.547   5.568 -0.2226  0.1235  0.3308
  270POPC   C1A 3786   4.739   9.344   5.839 -0.1513  0.1904 -0.0726
  270POPC   D2A 3787   4.954   9.172   6.277 -0.1980  0.1288 -0.3216
  270POPC   C3A 3788   4.929   8.768   6.536 -0.1131 -0.0875  0.0004
  270POPC   C4A 3789   4.880   8.636   7.045  0.0542  0.0616 -0.0164
  270POPC   C1B 3790   5.258   9.579   5.836  0.0955  0.0834 -0.1125
  270POPC   C2B 3791   5.610   9.797   6.057 -0.3451  0.0957 -0.1626
  270POPC   C3B 3792   6.098   9.692   6.278  0.2858 -0.2830  0.1120
  270POPC   C4B 3793   6.355   9.831   6.607 -0.1935  0.1184 -0.2025
  271POPC   NC3 3794   3.601   2.301   4.976 -0.0017 -0.1265  0.1012
  271POPC   PO4 3795   3.996   2.251   5.185 -0.1820  0.1599 -0.4630
  271POPC   GL1 3796   3.830   2.295   5.579 -0.0232  0.1102  0.2764
  271POPC   GL2 3797   4.127   2.347   5.705 -0.1651  0.1171 -0.0526
  271POPC   C1A 3798   3.692   2.331   5.942 -0.0519  0.0756  0.2946
  271POPC   D2A 3799   3.801   2.196   6.337  0.2744  0.1849 -0.1349
  271POPC   C3A 3800   3.642   2.230   6.802 -0.2842 -0.1467  0.0433
  271POPC   C4A 3801   3.763   2.363   7.168 -0.2844 -0.1979  0.0836
  271POPC   C1B 3802   4.118   2.525   6.134  0.1869 -0.1083 -0.0172
  271POPC   C2B 3803   3.938   2.818   6.369  0.2424  0.1553  0.0301
  271POPC   C3B 3804   3.538   2.771   6.623 -0.0368 -0.0832 -0.0722
  271POPC   C4B 3805   3.210   2.579   6.811  0.0648  0.0560  0.0115
  272POPC   NC3 3806   2.359   0.560   5.453 -0.0296  0.1785 -0.0510
  272POPC   PO4 3807   2.303   1.005   5.268 -0.0130 -0.2856  0.1282
  272POPC   GL1 3808   2.508   1.090   5.584  0.0296  0.0966  0.0142
  272POPC   GL2 3809   2.726   0.828   5.572  0.0537  0.0040 -0.0424
  272POPC   C1A 3810   2.979   1.275   5.747  0.0649  0.2158 -0.1678
  272POPC   D2A 3811   3.343   1.417   5.830 -0.0146 -0.0118 -0.0489
  272POPC   C3A 3812   3.485   1.529   6.148  0.2220 -0.2098 -0.2256
  272POPC   C4A 3813   3.847   1.624   6.348  0.2849 -0.0317 -0.0959
  272POPC   C1B 3814   2.590   0.790   5.974 -0.1775  0.0566  0.0968
  272POPC   C2B 3815   2.403   0.877   6.375 -0.3296 -0.1409  0.1683
  272POPC   C3B 3816   2.619   0.854   6.698  0.4182  0.1246 -0.0782
  272POPC   C4B 3817   2.925   1.152   6.810 -0.0818 -0.2306  0.1983
  273POPC   NC3 3818   7.478   2.822   5.220 -0.0047 -0.1596 -0.0154
  273POPC   PO4 3819   7.714   2.590   5.591 -0.0172  0.2075 -0.0566
  273POPC   GL1 3820   7.864   2.730   6.021  0.1149 -0.2033 -0.1872
  273POPC   GL2 3821   7.576   2.620   6.204  0.2029  0.0152 -0.3398
  273POPC   C1A 3822   8.011   3.020   6.215  0.2638  0.3442  0.2235
  273POPC   D2A 3823   8.050   3.305   6.494 -0.2107  0.2157  0.2170
  273POPC   C3A 3824   8.330   3.174   6.739 -0.2691 -0.2836 -0.2213
  273POPC   C4A 3825   8.272   3.105   7.147  0.1051 -0.3072 -0.0587
  273POPC   C1B 3826   7.428   2.478   6.650 -0.1081  0.1123  0.1498
  273POPC   C2B 3827   7.610   2.223   7.020  0.1180  0.2610  0.1976
  273POPC   C3B 3828   7.686   1.929   7.262 -0.0226  0.1348 -0.1556
  273POPC   C4B 3829   8.001   1.744   7.533  0.0943 -0.3406 -0.2367
  274POPC   NC3 3830   2.480   9.941   5.036 -0.1508 -0.2017  0.1734
  274POPC   PO4 3831   2.495  10.350   5.155  0.1888 -0.0290  0.1119
  274POPC   GL1 3832   2.857  10.209   5.544 -0.5036  0.2673 -0.3478
  274POPC   GL2 3833   2.698  10.512   5.725  0.3538  0.0775  0.1300
  274POPC   C1A 3834   3.087   9.967   5.934  0.5004 -0.0431  0.1272
  274POPC   D2A 3835   3.279   9.874   6.339  0.1428 -0.2099 -0.1965
  274POPC   C3A 3836   3.576  10.169   6.419  0.0146 -0.2214 -0.0136
  274POPC   C4A 3837   3.766  10.405   6.562  0.0971  0.0226 -0.2244
  274POPC   C1B 3838   2.671  10.162   6.072 -0.0157  0.0536 -0.1654
  274POPC   C2B 3839   2.229  10.035   6.202  0.0187 -0.1230 -0.3136
  274POPC   C3B 3840   2.097  10.083   6.612 -0.3908  0.1648  0.0517
  274POPC   C4B 3841   1.957  10.415   6.860 -0.0616 -0.1311  0.1443
  275POPC   NC3 3842   5.676   1.658   5.355  0.0383  0.2435 -0.1031
  275POPC   PO4 3843   5.860   1.249   5.484  0.2408 -0.0340 -0.2096
  275POPC   GL1 3844   5.944   0.987   5.765  0.0810 -0.0042  0.1830
  275POPC   GL2 3845   6.150   0.963   6.020 -0.0173 -0.0566  0.0567
  275POPC   C1A 3846   5.740   1.131   6.187 -0.2062  0.1896 -0.0231
  275POPC   D2A 3847   5.943   1.279   6.570  0.5313 -0.0185 -0.0343
  275POPC   C3A 3848   6.339   1.054   6.705 -0.1997 -0.0250  0.2516
  275POPC   C4A 3849   6.525   1.026   7.098  0.0472 -0.2685 -0.1496
  275POPC   C1B 3850   6.344   1.329   6.276  0.2215  0.2724 -0.0606
  275POPC   C2B 3851   6.287   1.617   6.701 -0.0443  0.0076 -0.3542
  275POPC   C3B 3852   6.260   1.882   7.081 -0.3189  0.1604  0.1033
  275POPC   C4B 3853   6.070   2.205   7.414  0.0148 -0.2930  0.0546
  276POPC   NC3 3854   2.654   5.102   5.205  0.0989  0.1297  0.0735
  276POPC   PO4 3855   2.831   5.480   5.125 -0.0978 -0.1731 -0.2378
  276POPC   GL1 3856   2.925   5.469   5.486  0.0601 -0.2294  0.0627
  276POPC   GL2 3857   3.119   5.262   5.708 -0.2632  0.2002  0.3189
  276POPC   C1A 3858   3.068   5.776   5.819  0.0695 -0.0578  0.3681
  276POPC   D2A 3859   3.234   5.874   6.163  0.0493 -0.0474 -0.1330
  276POPC   C3A 3860   2.887   5.851   6.429 -0.0269 -0.1806 -0.2453
  276POPC   C4A 3861   2.989   5.846   6.793  0.0321  0.0020  0.0017
  276POPC   C1B 3862   2.847   5.414   6.031  0.2898 -0.1247  0.2525
  276POPC   C2B 3863   2.771   5.339   6.393 -0.0264  0.0161  0.0043
  276POPC   C3B 3864   2.747   5.137   6.772 -0.0128 -0.0322 -0.2320
  276POPC   C4B 3865   2.658   4.836   7.040 -0.3387  0.0360  0.2396
  277POPC   NC3 3866   6.438   5.019   4.912  0.0520 -0.1206  0.0396
  277POPC   PO4 3867   6.236   4.581   5.006 -0.2297  0.2836 -0.1986
  277POPC   GL1 3868   6.391   4.719   5.381 -0.1158  0.0151 -0.0058
  277POPC   GL2 3869   6.287   4.450   5.657 -0.2084  0.1143  0.2592
  277POPC   C1A 3870   6.343   4.950   5.692 -0.0200 -0.0798  0.0789
  277POPC   D2A 3871   6.430   5.305   6.000  0.1924 -0.0141 -0.2206
  277POPC   C3A 3872   6.292   5.756   6.179 -0.3337 -0.1490 -0.0645
  277POPC   C4A 3873   6.417   5.950   6.543 -0.0670 -0.3177 -0.1459
  277POPC   C1B 3874   6.133   4.618   5.958  0.2557  0.1812 -0.2739
  277POPC   C2B 3875   6.282   4.847   6.236  0.1788  0.1342 -0.2498
  277POPC   C3B 3876   6.321   5.216   6.566 -0.2875 -0.0744  0.3964
  277POPC   C4B 3877   6.171   5.448   6.865 -0.0077 -0.0223 -0.2626
  278POPC   NC3 3878   0.965   1.865   4.730  0.3584 -0.2170  0.0012
  278POPC   PO4 3879   1.222   1.999   5.015  0.1797  0.0102 -0.1942
  278POPC   GL1 3880   1.395   1.860   5.429  0.0601  0.0612  0.0111
  278POPC   GL2 3881   1.558   2.145   5.502 -0.1603  0.0990 -0.2184
  278POPC   C1A 3882   1.459   1.699   5.863  0.0933  0.1198 -0.0401
  278POPC   D2A 3883   1.553   1.336   6.064  0.1481 -0.5622 -0.1410
  278POPC   C3A 3884   1.302   1.107   6.286 -0.0407  0.0381 -0.0960
  278POPC   C4A 3885   1.012   1.031   6.703  0.1905 -0.3151 -0.1468
  278POPC   C1B 3886   1.246   2.318   5.759  0.0960 -0.2469 -0.0283
  278POPC   C2B 3887   1.128   2.516   6.197 -0.0060 -0.1944 -0.1093
  278POPC   C3B 3888   1.069   2.648   6.618 -0.1598  0.1214  0.0062
  278POPC   C4B 3889   1.005   2.451   6.814 -0.0833 -0.2208 -0.0298
  279POPC   NC3 3890   1.275   6.310   4.732 -0.2973  0.0586 -0.2359
  279POPC   PO4 3891   1.464   6.795   4.692 -0.1411 -0.1467  0.0401
  279POPC   GL1 3892   1.344   6.801   5.149  0.1902 -0.1175 -0.1281
  279POPC   GL2 3893   1.651   6.679   5.218 -0.2517  0.2069 -0.0829
  279POPC   C1A 3894   1.131   6.796   5.501  0.3953 -0.1955 -0.0688
  279POPC   D2A 3895   0.891   7.064   5.860  0.0698 -0.2735 -0.0289
  279POPC   C3A 3896   0.997   7.082   6.385  0.0772 -0.0344 -0.0000
  279POPC   C4A 3897   1.221   7.144   6.818  0.2855  0.1693  0.0410
  279POPC   C1B 3898   1.553   6.724   5.714 -0.3289 -0.1929 -0.0482
  279POPC   C2B 3899   1.231   6.653   6.119 -0.0373 -0.0150 -0.0996
  279POPC   C3B 3900   1.015   6.593   6.528  0.0433  0.0782 -0.3691
  279POPC   C4B 3901   0.784   6.645   6.917 -0.2547 -0.1034 -0.2570
  280POPC   NC3 3902   5.035   5.829   5.106  0.1660  0.0254  0.1063
  280POPC   PO4 3903   5.449   5.723   4.977  0.0067  0.0824  0.3465
  280POPC   GL1 3904   5.443   5.665   5.404 -0.5196  0.2772  0.2377
  280POPC   GL2 3905   5.612   5.418   5.446  0.1321 -0.0365  0.0673
  280POPC   C1A 3906   5.192   5.779   5.811  0.1338  0.1486 -0.2346
  280POPC   D2A 3907   5.363   5.978   6.218  0.1264 -0.0977  0.2153
  280POPC   C3A 3908   5.409   6.268   6.529 -0.0295  0.0576 -0.0634
  280POPC   C4A 3909   5.638   6.695   6.532  0.2791 -0.2410  0.0403
  280POPC   C1B 3910   5.618   5.560   5.862  0.0608  0.4035  0.0216
  280POPC   C2B 3911   5.330   5.445   6.190 -0.0691  0.0520  0.1056
  280POPC   C3B 3912   4.971   5.736   6.401 -0.0251  0.0553  0.0780
  280POPC   C4B 3913   4.653   5.911   6.695 -0.1009  0.2470  0.1010
  281POPC   NC3 3914   2.210   7.962   4.907  0.4177  0.0876  0.1273
  281POPC   PO4 3915   1.845   7.747   4.674  0.0227  0.2115 -0.2854
  281POPC   GL1 3916   1.792   7.728   5.133 -0.0695 -0.0072 -0.1008
  281POPC   GL2 3917   2.051   7.441   5.291  0.0479 -0.0077  0.3118
  281POPC   C1A 3918   1.953   7.792   5.597  0.0456 -0.2030 -0.0743
  281POPC   D2A 3919   2.099   7.481   5.876 -0.2343 -0.1565 -0.0532
  281POPC   C3A 3920   2.257   7.677   6.312 -0.1284 -0.0711  0.1479
  281POPC   C4A 3921   2.154   7.639   6.755 -0.1892 -0.0925  0.0739
  281POPC   C1B 3922   2.422   7.638   5.519  0.1897 -0.0523 -0.0283
  281POPC   C2B 3923   2.704   7.861   5.596  0.2149 -0.1841  0.0887
  281POPC   C3B 3924   2.842   8.081   5.972 -0.1241 -0.1257 -0.0992
  281POPC   C4B 3925   2.912   7.987   6.371  0.0370 -0.3862 -0.2138
  282POPC   NC3 3926   8.108   1.745   5.778 -0.0522  0.0988  0.2739
  282POPC   PO4 3927   8.498   2.023   5.648  0.1598  0.0900 -0.3101
  282POPC   GL1 3928   8.364   2.030   6.061  0.1351  0.0243  0.0454
  282POPC   GL2 3929   8.231   1.809   6.287 -0.1758  0.0918 -0.1802
  282POPC   C1A 3930   8.412   2.252   6.476 -0.1400  0.0609 -0.2743
  282POPC   D2A 3931   8.605   2.279   6.835  0.1711  0.1018 -0.0209
  282POPC   C3A 3932   8.459   1.974   7.078 -0.2610 -0.0438 -0.2287
  282POPC   C4A 3933   8.145   1.727   6.922  0.0162  0.1256 -0.0954
  282POPC   C1B 3934   8.504   1.609   6.603 -0.1019  0.0230  0.2423
  282POPC   C2B 3935   8.818   1.481   6.912  0.0391  0.0690 -0.5696
  282POPC   C3B 3936   8.929   1.466   7.446  0.2925  0.0547 -0.0986
  282POPC   C4B 3937   8.921   1.817   7.811 -0.0441  0.1906  0.1411
  283POPC   NC3 3938   6.990   2.871   5.192  0.0633 -0.0806  0.1037
  283POPC   PO4 3939   7.003   2.699   5.567 -0.0177  0.1530 -0.2393
  283POPC   GL1 3940   6.841   2.602   5.965 -0.3438  0.4150  0.5204
  283POPC   GL2 3941   7.066   2.751   6.082  0.1619  0.0194 -0.1415
  283POPC   C1A 3942   6.830   2.514   6.472 -0.1027 -0.1281  0.0691
  283POPC   D2A 3943   6.728   2.655   6.804 -0.0358  0.0047 -0.0521
  283POPC   C3A 3944   7.094   2.650   7.137  0.1967 -0.0875 -0.1463
  283POPC   C4A 3945   7.392   2.396   7.432 -0.1891  0.3465 -0.1365
  283POPC   C1B 3946   7.203   2.864   6.484  0.0614 -0.0401 -0.1270
  283POPC   C2B 3947   7.115   3.087   6.904 -0.0645  0.2197 -0.0080
  283POPC   C3B 3948   7.345   3.486   7.038 -0.1448 -0.1057 -0.1245
  283POPC   C4B 3949   7.535   3.892   7.080  0.1587  0.2549  0.1335
  284POPC   NC3 3950   3.009   6.299   4.896 -0.2096 -0.3145 -0.0686
  284POPC   PO4 3951   2.946   6.078   5.229 -0.2391  0.0413  0.0288
  284POPC   GL1 3952   2.614   5.934   5.450  0.1427  0.2360  0.0786
  284POPC   GL2 3953   2.327   5.992   5.593  0.2264 -0.0017  0.3437
  284POPC   C1A 3954   2.450   5.534   5.682  0.3246  0.4404 -0.1351
  284POPC   D2A 3955   2.604   5.135   5.658  0.0625  0.2349 -0.0806
  284POPC   C3A 3956   2.807   4.861   5.975  0.0699  0.0184 -0.3294
  284POPC   C4A 3957   3.035   4.437   6.044 -0.0529 -0.3619  0.0297
  284POPC   C1B 3958   2.020   5.700   5.912  0.3060  0.0364 -0.2650
  284POPC   C2B 3959   1.884   5.520   6.262  0.0505  0.1776  0.1390
  284POPC   C3B 3960   1.762   5.424   6.586  0.3906 -0.1709  0.0105
  284POPC   C4B 3961   1.631   5.669   6.886  0.1221 -0.0796  0.2299
  285POPC   NC3 3962   2.399   3.842   5.023 -0.1148 -0.2031  0.2059
  285POPC   PO4 3963   2.368   3.410   5.299  0.2581  0.3712 -0.0268
  285POPC   GL1 3964   2.222   3.458   5.659  0.2128  0.1298  0.4572
  285POPC   GL2 3965   1.908   3.462   5.622  0.0527 -0.0008 -0.0107
  285POPC   C1A 3966   2.100   3.421   6.149 -0.4059  0.2378  0.1716
  285POPC   D2A 3967   1.885   3.480   6.524  0.0078  0.3517 -0.1340
  285POPC   C3A 3968   2.030   3.595   6.981 -0.1110 -0.0707 -0.2560
  285POPC   C4A 3969   2.191   3.578   7.426 -0.2124  0.3129 -0.2043
  285POPC   C1B 3970   1.711   3.068   5.806 -0.0851  0.0375  0.2501
  285POPC   C2B 3971   1.511   2.955   6.212  0.3297  0.1081  0.0322
  285POPC   C3B 3972   1.433   3.086   6.640 -0.3927 -0.2333  0.1136
  285POPC   C4B 3973   1.349   2.954   7.152  0.0116  0.0971 -0.2062
  286POPC   NC3 3974   6.235   6.863   3.696  0.0934  0.2492 -0.2365
  286POPC   PO4 3975   5.834   7.041   3.954 -0.0067 -0.2426 -0.0709
  286POPC   GL1 3976   5.859   7.180   4.420 -0.0369 -0.1038  0.2568
  286POPC   GL2 3977   6.065   6.885   4.625  0.0940 -0.2042 -0.0300
  286POPC   C1A 3978   5.769   7.321   4.861  0.4034  0.0121 -0.0035
  286POPC   D2A 3979   5.406   7.380   5.229  0.1596  0.2257 -0.3039
  286POPC   C3A 3980   5.190   7.750   5.290  0.1219 -0.0638 -0.0489
  286POPC   C4A 3981   5.318   8.144   5.097  0.1051 -0.1144  0.0910
  286POPC   C1B 3982   6.263   6.908   5.030  0.2647  0.1804 -0.1354
  286POPC   C2B 3983   6.499   6.967   5.368  0.0283 -0.0954 -0.1048
  286POPC   C3B 3984   6.888   7.231   5.512  0.0574 -0.1429  0.2114
  286POPC   C4B 3985   7.268   7.382   5.414 -0.2110  0.1411  0.3715
  287POPC   NC3 3986   7.999   4.626   4.379  0.2097 -0.2418 -0.1299
  287POPC   PO4 3987   7.714   4.232   4.578  0.2447 -0.0475  0.0853
  287POPC   GL1 3988   7.679   4.631   4.777 -0.0183 -0.1580 -0.0223
  287POPC   GL2 3989   7.421   4.846   5.033 -0.0464 -0.2365 -0.1943
  287POPC   C1A 3990   7.795   5.048   4.825  0.1696 -0.3366 -0.0300
  287POPC   D2A 3991   7.528   5.451   4.957  0.2547 -0.0079  0.2633
  287POPC   C3A 3992   7.474   5.616   5.247  0.1544 -0.2052 -0.3065
  287POPC   C4A 3993   7.191   5.619   5.669 -0.1265  0.3917 -0.1912
  287POPC   C1B 3994   7.760   4.554   5.304 -0.0958  0.0568  0.1688
  287POPC   C2B 3995   7.890   4.758   5.678 -0.1626  0.1416 -0.0503
  287POPC   C3B 3996   8.143   5.193   5.728  0.0561 -0.4265 -0.1568
  287POPC   C4B 3997   8.476   5.215   5.992  0.1391 -0.0670 -0.0267
  288POPC   NC3 3998   5.248   9.669   4.589 -0.1416  0.1863 -0.1627
  288POPC   PO4 3999   5.148   9.242   4.531  0.1775 -0.0104 -0.1273
  288POPC   GL1 4000   5.070   9.361   4.991 -0.0954  0.0778  0.1140
  288POPC   GL2 4001   5.292   9.578   5.100  0.1161 -0.3215 -0.3706
  288POPC   C1A 4002   4.956   9.119   5.374 -0.0838 -0.1898  0.1359
  288POPC   D2A 4003   5.207   9.124   5.721  0.0636  0.2758  0.0994
  288POPC   C3A 4004   5.300   8.846   6.038 -0.2825  0.1312  0.1940
  288POPC   C4A 4005   5.440   8.576   6.277 -0.2188 -0.1212 -0.0080
  288POPC   C1B 4006   5.486   9.325   5.328  0.0612 -0.3124 -0.1014
  288POPC   C2B 4007   5.623   8.942   5.493 -0.0688 -0.0526 -0.0416
  288POPC   C3B 4008   5.797   8.819   5.893 -0.4151 -0.3081 -0.0748
  288POPC   C4B 4009   5.922   8.655   6.288 -0.2513 -0.0229 -0.0047
  289POPC   NC3 4010   0.892   9.433   4.755  0.0328  0.1091 -0.3981
  289POPC   PO4 4011   0.658   9.071   4.894 -0.1535 -0.1235 -0.0376
  289POPC   GL1 4012   0.514   9.032   5.302  0.3311 -0.0803  0.1466
  289POPC   GL2 4013   0.249   9.227   5.425  0.0953  0.0099 -0.1574
  289POPC   C1A 4014   0.597   8.915   5.763 -0.2941  0.3339 -0.0912
  289POPC   D2A 4015   0.455   8.727   6.165  0.0376  0.0363  0.2276
  289POPC   C3A 4016   0.524   8.872   6.525 -0.0662 -0.2093 -0.3826
  289POPC   C4A 4017   0.393   8.998   7.018  0.2356  0.0996 -0.0330
  289POPC   C1B 4018   0.093   8.823   5.699  0.0215 -0.3354  0.4142
  289POPC   C2B 4019  -0.057   8.749   6.063 -0.1674  0.0958 -0.1797
  289POPC   C3B 4020  -0.007   8.770   6.407  0.0445  0.0742  0.1571
  289POPC   C4B 4021   0.083   8.618   6.789  0.3081 -0.2657 -0.1808
  290POPC   NC3 4022   1.425   7.839   4.430 -0.1388 -0.2778 -0.0361
  290POPC   PO4 4023   0.994   7.654   4.608 -0.0358  0.3394 -0.2172
  290POPC   GL1 4024   0.553   7.514   4.696 -0.1890  0.0099 -0.0265
  290POPC   GL2 4025   0.510   7.262   4.879 -0.1919 -0.0097 -0.0764
  290POPC   C1A 4026   0.150   7.604   4.979 -0.1609 -0.2495 -0.0379
  290POPC   D2A 4027   0.007   7.437   5.453  0.2299 -0.0980 -0.3292
  290POPC   C3A 4028  -0.223   7.680   5.699  0.1796  0.3039  0.2798
  290POPC   C4A 4029  -0.259   7.866   6.128 -0.0998 -0.0159  0.0091
  290POPC   C1B 4030   0.513   7.345   5.290 -0.0255 -0.1386 -0.2665
  290POPC   C2B 4031   0.408   7.300   5.751 -0.0343  0.2192 -0.1657
  290POPC   C3B 4032   0.348   6.983   6.122  0.1563  0.0284  0.0878
  290POPC   C4B 4033  -0.001   6.935   6.403 -0.5277 -0.1498  0.1102
  291POPC   NC3 4034   8.403   8.649   3.481 -0.1948  0.2337 -0.2109
  291POPC   PO4 4035   8.205   8.267   3.631  0.0290  0.2765 -0.2136
  291POPC   GL1 4036   7.939   8.090   3.971  0.0179 -0.1944  0.1721
  291POPC   GL2 4037   7.636   8.035   3.909  0.1433  0.0151 -0.2767
  291POPC   C1A 4038   7.897   7.726   4.311  0.0504  0.0620  0.2324
  291POPC   D2A 4039   7.758   7.264   4.412 -0.2597 -0.0253  0.0100
  291POPC   C3A 4040   8.219   7.019   4.447 -0.2057  0.1708 -0.1261
  291POPC   C4A 4041   8.595   7.054   4.269 -0.1432 -0.0139  0.1519
  291POPC   C1B 4042   7.668   8.199   4.425 -0.0618  0.3532  0.1099
  291POPC   C2B 4043   7.805   8.379   4.800  0.1008  0.0749 -0.2878
  291POPC   C3B 4044   7.874   8.526   5.141 -0.1496  0.1462  0.3644
  291POPC   C4B 4045   8.234   8.589   5.322 -0.2467  0.6060 -0.1216
  292POPC   NC3 4046   1.412   4.123   5.319  0.0037  0.3653  0.1595
  292POPC   PO4 4047   1.891   3.908   5.277  0.1791  0.0879 -0.0697
  292POPC   GL1 4048   1.807   3.996   5.700  0.3758 -0.1729 -0.0508
  292POPC   GL2 4049   1.488   3.817   5.755 -0.1220 -0.0200  0.2309
  292POPC   C1A 4050   1.634   4.269   5.977 -0.1126  0.2874 -0.2927
  292POPC   D2A 4051   1.401   4.401   6.274 -0.0461 -0.2436  0.1081
  292POPC   C3A 4052   1.644   4.802   6.309  0.0639  0.3431  0.0590
  292POPC   C4A 4053   1.951   4.950   6.344 -0.1320 -0.0321  0.0403
  292POPC   C1B 4054   1.245   4.002   6.015 -0.1229  0.0614 -0.2082
  292POPC   C2B 4055   1.266   3.990   6.441  0.2340  0.0859  0.3001
  292POPC   C3B 4056   1.311   4.199   6.803 -0.0541  0.0854  0.3648
  292POPC   C4B 4057   1.221   4.440   7.103 -0.1999 -0.0520  0.0229
  293POPC   NC3 4058   3.121   7.225   4.758 -0.0707 -0.0949 -0.2374
  293POPC   PO4 4059   3.331   7.493   4.511  0.0908 -0.0005  0.1853
  293POPC   GL1 4060   3.461   7.655   4.773 -0.2832 -0.0762 -0.2076
  293POPC   GL2 4061   3.107   7.705   4.922 -0.0840  0.2044  0.0110
  293POPC   C1A 4062   3.518   7.999   5.159 -0.0045  0.1451  0.0939
  293POPC   D2A 4063   3.880   8.210   5.344 -0.1481  0.1633  0.0685
  293POPC   C3A 4064   4.000   8.144   5.713 -0.0868 -0.1488 -0.2546
  293POPC   C4A 4065   3.847   8.094   6.079 -0.0234 -0.0815 -0.1411
  293POPC   C1B 4066   3.077   7.674   5.382 -0.1950  0.0826 -0.1964
  293POPC   C2B 4067   3.140   7.640   5.852  0.3392 -0.1804 -0.0115
  293POPC   C3B 4068   3.130   7.588   6.233  0.0933  0.1304  0.1753
  293POPC   C4B 4069   3.192   7.249   6.478  0.3552  0.1612 -0.0977
  294POPC   NC3 4070   6.588   5.039   4.095  0.1569 -0.0810 -0.2753
  294POPC   PO4 4071   6.720   5.129   4.447  0.0130  0.4358  0.2582
  294POPC   GL1 4072   6.643   5.525   4.748 -0.2915  0.2836  0.3214
  294POPC   GL2 4073   6.783   5.802   4.721  0.2218 -0.0501 -0.0958
  294POPC   C1A 4074   6.457   5.613   5.152 -0.2059 -0.2004 -0.0980
  294POPC   D2A 4075   6.271   5.639   5.553  0.0986 -0.1888  0.4797
  294POPC   C3A 4076   6.324   6.046   5.737 -0.0320  0.1490 -0.1204
  294POPC   C4A 4077   6.098   6.395   5.810 -0.0347  0.0450  0.0114
  294POPC   C1B 4078   6.738   6.039   5.229  0.1079  0.5374 -0.1164
  294POPC   C2B 4079   6.878   6.083   5.621 -0.1529 -0.0856  0.0321
  294POPC   C3B 4080   7.001   5.971   6.072  0.3418 -0.0054 -0.0703
  294POPC   C4B 4081   7.038   5.978   6.533  0.0730  0.0742 -0.1062
  295POPC   NC3 4082   7.211   4.312   4.782  0.2609 -0.1611  0.0916
  295POPC   PO4 4083   6.980   4.102   5.039  0.0626 -0.1499  0.1197
  295POPC   GL1 4084   7.037   4.058   5.527 -0.0494 -0.0851 -0.0435
  295POPC   GL2 4085   6.792   4.174   5.642  0.0159 -0.1562  0.2109
  295POPC   C1A 4086   7.178   4.311   5.860  0.0388  0.1082  0.0185
  295POPC   D2A 4087   7.106   4.399   6.256  0.2851  0.1431 -0.1279
  295POPC   C3A 4088   6.767   4.576   6.390 -0.0665  0.0782  0.3123
  295POPC   C4A 4089   6.433   4.661   6.706  0.1222  0.2950 -0.0365
  295POPC   C1B 4090   6.884   3.923   6.019  0.0653 -0.0543 -0.1774
  295POPC   C2B 4091   7.022   3.904   6.470  0.0323 -0.2145  0.2909
  295POPC   C3B 4092   7.024   3.922   6.965 -0.1455  0.1698 -0.3387
  295POPC   C4B 4093   7.105   3.881   7.341 -0.0718  0.0111 -0.1645
  296POPC   NC3 4094   0.452   1.222   5.682 -0.1675 -0.1949  0.1369
  296POPC   PO4 4095   0.646   1.152   5.339  0.0943 -0.1163 -0.0527
  296POPC   GL1 4096   0.948   0.969   5.690 -0.0187 -0.2709  0.0501
  296POPC   GL2 4097   1.047   1.215   5.850 -0.0825 -0.0147  0.1314
  296POPC   C1A 4098   0.935   0.814   6.140  0.2581  0.0279 -0.0842
  296POPC   D2A 4099   0.624   0.494   6.231  0.1596  0.0261  0.3383
  296POPC   C3A 4100   0.693   0.065   6.590 -0.2655  0.0235 -0.0120
  296POPC   C4A 4101   0.875  -0.279   6.849  0.0542  0.5154  0.0617
  296POPC   C1B 4102   0.843   1.265   6.221 -0.2782  0.0604  0.0641
  296POPC   C2B 4103   0.566   1.094   6.452  0.0750 -0.3731 -0.1464
  296POPC   C3B 4104   0.184   0.781   6.641 -0.0386  0.1269 -0.2555
  296POPC   C4B 4105  -0.180   0.618   6.909 -0.1111  0.1661 -0.1675
  297POPC   NC3 4106   9.431   6.152   3.862  0.2145 -0.0321  0.0541
  297POPC   PO4 4107   9.629   6.515   4.117 -0.1045 -0.0234  0.1617
  297POPC   GL1 4108   9.689   6.607   4.531 -0.2508  0.3541 -0.1340
  297POPC   GL2 4109   9.892   6.322   4.670 -0.1379 -0.1777 -0.4408
  297POPC   C1A 4110   9.434   6.515   4.759 -0.1614 -0.2832 -0.1810
  297POPC   D2A 4111   9.347   6.339   5.157  0.1892  0.1258 -0.0958
  297POPC   C3A 4112   9.499   6.450   5.577  0.0414 -0.0807 -0.2050
  297POPC   C4A 4113   9.709   6.745   5.797 -0.0922 -0.2434 -0.1763
  297POPC   C1B 4114   9.756   6.026   4.994 -0.1701 -0.1329 -0.3443
  297POPC   C2B 4115   9.762   6.086   5.515 -0.1428 -0.0209  0.1948
  297POPC   C3B 4116  10.072   6.386   5.646 -0.1058 -0.4038 -0.1884
  297POPC   C4B 4117  10.464   6.569   5.842 -0.2188 -0.1206  0.0375
  298POPC   NC3 4118   1.183   4.623   4.217 -0.0753 -0.3992 -0.0718
  298POPC   PO4 4119   0.829   4.581   4.637 -0.0661 -0.2645  0.0873
  298POPC   GL1 4120   0.632   4.602   5.036 -0.0461  0.0855 -0.0294
  298POPC   GL2 4121   0.350   4.603   4.980  0.2169  0.2731  0.0457
  298POPC   C1A 4122   0.655   4.603   5.458  0.4292  0.5252  0.1316
  298POPC   D2A 4123   0.444   4.376   5.769 -0.1325  0.0979  0.1956
  298POPC   C3A 4124   0.270   4.583   6.148  0.1825  0.1057  0.4581
  298POPC   C4A 4125  -0.123   4.736   6.165 -0.2480  0.2228 -0.0115
  298POPC   C1B 4126   0.141   4.441   5.357  0.0995 -0.0492  0.0422
  298POPC   C2B 4127  -0.090   4.368   5.735  0.1732  0.0405 -0.0429
  298POPC   C3B 4128  -0.517   4.605   5.902 -0.0133 -0.0227 -0.2267
  298POPC   C4B 4129  -0.584   4.763   6.401  0.4658  0.2804  0.0054
  299POPC   NC3 4130   2.573   6.029   4.839  0.4831 -0.0456  0.1181
  299POPC   PO4 4131   2.325   6.410   4.689 -0.2344 -0.0162  0.0309
  299POPC   GL1 4132   2.215   6.333   5.187  0.4289 -0.1404  0.2740
  299POPC   GL2 4133   1.974   6.270   5.378  0.0717  0.3567  0.3101
  299POPC   C1A 4134   2.412   6.478   5.554  0.1821  0.3449 -0.0461
  299POPC   D2A 4135   2.607   6.628   5.943  0.0330  0.0887  0.4528
  299POPC   C3A 4136   2.890   6.384   6.310 -0.3718 -0.0199 -0.1003
  299POPC   C4A 4137   3.187   6.269   6.648 -0.1224  0.2364 -0.0792
  299POPC   C1B 4138   1.903   6.201   5.735  0.0607  0.1812 -0.0145
  299POPC   C2B 4139   2.144   6.165   6.127  0.1020 -0.1155 -0.0550
  299POPC   C3B 4140   2.419   6.291   6.448 -0.1605  0.2318  0.0832
  299POPC   C4B 4141   2.701   6.262   6.723  0.2050 -0.1417 -0.3793
  300POPC   NC3 4142   8.219   2.657   5.451 -0.2485  0.3038  0.2527
  300POPC   PO4 4143   8.070   2.273   5.715  0.0698  0.3283  0.0152
  300POPC   GL1 4144   7.853   2.219   6.076  0.1233  0.0367 -0.1295
  300POPC   GL2 4145   7.543   2.142   6.244  0.0730 -0.3433  0.0311
  300POPC   C1A 4146   7.930   2.465   6.447  0.0722 -0.0155 -0.0586
  300POPC   D2A 4147   7.801   2.824   6.635 -0.1483  0.0734 -0.1548
  300POPC   C3A 4148   7.534   2.874   6.988  0.0310 -0.0332 -0.1465
  300POPC   C4A 4149   7.409   3.088   7.386 -0.1510  0.1441 -0.0069
  300POPC   C1B 4150   7.842   1.968   6.551 -0.1294  0.0670  0.0958
  300POPC   C2B 4151   8.064   2.286   6.899 -0.3283  0.0821  0.0945
  300POPC   C3B 4152   7.970   2.687   7.085  0.0881 -0.0121 -0.0543
  300POPC   C4B 4153   7.850   2.960   7.536 -0.3286  0.0742  0.0503
  301POPC   NC3 4154   9.481   9.968   4.696  0.0716 -0.0057  0.1641
  301POPC   PO4 4155   9.566  10.211   5.094  0.1579 -0.0579 -0.0048
  301POPC   GL1 4156   9.755  10.338   5.566  0.0690 -0.1312  0.2610
  301POPC   GL2 4157   9.687  10.680   5.671  0.1158  0.2641 -0.0061
  301POPC   C1A 4158   9.920  10.329   6.042 -0.2096  0.1563  0.1340
  301POPC   D2A 4159  10.054  10.261   6.559  0.0455  0.0134  0.1858
  301POPC   C3A 4160  10.427  10.449   6.805  0.1085  0.0430 -0.3093
  301POPC   C4A 4161  10.472  10.736   7.180 -0.1841 -0.2192 -0.2105
  301POPC   C1B 4162   9.476  10.742   6.036  0.1288  0.0788 -0.1335
  301POPC   C2B 4163   9.272  10.740   6.469 -0.0207 -0.0306 -0.0480
  301POPC   C3B 4164   9.047  10.944   6.718  0.0296 -0.1247  0.0311
  301POPC   C4B 4165   8.942  11.243   7.064  0.1232 -0.0157 -0.1682
  302POPC   NC3 4166   9.913   8.294   3.882 -0.2871  0.1034 -0.2298
  302POPC   PO4 4167   9.739   8.086   4.138  0.1809 -0.0351 -0.1435
  302POPC   GL1 4168   9.686   8.017   4.505 -0.0796  0.2262  0.0096
  302POPC   GL2 4169   9.943   7.725   4.613  0.0351 -0.0791  0.0980
  302POPC   C1A 4170   9.587   8.107   4.957 -0.0149  0.2489 -0.0116
  302POPC   D2A 4171   9.683   8.021   5.390  0.0697  0.1294 -0.4844
  302POPC   C3A 4172   9.527   8.055   5.787  0.0435 -0.1308 -0.0363
  302POPC   C4A 4173   9.295   8.336   5.900  0.0793 -0.0443  0.1254
  302POPC   C1B 4174   9.788   7.626   5.007  0.2553  0.0354 -0.1734
  302POPC   C2B 4175   9.506   7.318   5.122 -0.0105  0.2626  0.1191
  302POPC   C3B 4176   9.056   7.227   5.170 -0.0583 -0.2579  0.1533
  302POPC   C4B 4177   8.763   7.160   5.452  0.1515  0.3304  0.2380
  303POPC   NC3 4178   6.302   8.652   3.891  0.2559 -0.3969 -0.0759
  303POPC   PO4 4179   6.685   8.461   4.062  0.0180  0.1249  0.0306
  303POPC   GL1 4180   6.622   8.427   4.455  0.4837 -0.0694 -0.1479
  303POPC   GL2 4181   6.430   8.554   4.511  0.1919  0.2397 -0.1307
  303POPC   C1A 4182   6.696   8.253   4.834 -0.0063  0.0524 -0.4635
  303POPC   D2A 4183   6.536   8.359   5.292  0.1566 -0.4082 -0.1073
  303POPC   C3A 4184   6.530   8.125   5.647 -0.2541  0.0307  0.1244
  303POPC   C4A 4185   6.553   8.415   6.001  0.2053  0.2284  0.2650
  303POPC   C1B 4186   6.407   8.634   4.905  0.0794 -0.1446 -0.0102
  303POPC   C2B 4187   6.111   8.726   5.238 -0.3205  0.4978  0.1042
  303POPC   C3B 4188   6.170   8.527   5.607  0.3002  0.1218 -0.1921
  303POPC   C4B 4189   6.098   8.240   5.911 -0.4038  0.0895 -0.1469
  304POPC   NC3 4190   0.648   9.539   5.195 -0.1883 -0.0912 -0.1336
  304POPC   PO4 4191   0.905   9.829   5.502  0.3729  0.4558 -0.2909
  304POPC   GL1 4192   1.084   9.695   5.872  0.2453 -0.5450  0.1019
  304POPC   GL2 4193   1.219   9.415   6.027  0.0917 -0.1451  0.4202
  304POPC   C1A 4194   1.248   9.930   6.282 -0.2256 -0.1178 -0.1646
  304POPC   D2A 4195   1.455   9.901   6.647 -0.0257 -0.1923 -0.0397
  304POPC   C3A 4196   1.609  10.126   7.081 -0.0968  0.0213 -0.0054
  304POPC   C4A 4197   1.565  10.546   7.177 -0.0703  0.0228 -0.1227
  304POPC   C1B 4198   0.994   9.561   6.434  0.0192  0.0910 -0.2315
  304POPC   C2B 4199   0.669   9.491   6.569  0.3393 -0.1678 -0.1622
  304POPC   C3B 4200   0.236   9.385   6.751  0.3364 -0.0445  0.0292
  304POPC   C4B 4201  -0.134   9.201   6.708 -0.1794 -0.2297  0.1324
  305POPC   NC3 4202   2.459   9.152   5.181  0.2481  0.1816  0.1544
  305POPC   PO4 4203   2.638   9.444   4.829  0.3381  0.0525 -0.0104
  305POPC   GL1 4204   2.768   9.527   5.326 -0.1118 -0.3348  0.0466
  305POPC   GL2 4205   2.833   9.267   5.471 -0.0382  0.0598  0.0833
  305POPC   C1A 4206   2.705   9.481   5.854 -0.3614  0.3453  0.1786
  305POPC   D2A 4207   2.684   9.648   6.227  0.1225 -0.1858  0.0826
  305POPC   C3A 4208   2.969   9.450   6.465  0.0203 -0.1838  0.0132
  305POPC   C4A 4209   2.693   9.357   6.910 -0.1241 -0.2774 -0.0569
  305POPC   C1B 4210   2.687   8.972   5.779 -0.0687 -0.0566 -0.1153
  305POPC   C2B 4211   2.686   8.989   6.237 -0.3678  0.0246  0.2346
  305POPC   C3B 4212   2.658   8.920   6.721  0.2432 -0.0551  0.1469
  305POPC   C4B 4213   2.491   8.991   7.190  0.0111 -0.1661 -0.1043
  306POPC   NC3 4214   2.297   1.830   5.319  0.2687  0.3526 -0.0975
  306POPC   PO4 4215   2.808   1.831   5.184 -0.2961  0.1400  0.0345
  306POPC   GL1 4216   2.675   1.645   5.570 -0.3266  0.4547 -0.0645
  306POPC   GL2 4217   3.042   1.759   5.626  0.1765  0.0737  0.1459
  306POPC   C1A 4218   2.431   1.835   5.961  0.0120 -0.0581 -0.0552
  306POPC   D2A 4219   2.661   1.868   6.412  0.4818 -0.1535  0.1800
  306POPC   C3A 4220   2.413   2.027   6.709 -0.0328 -0.0857  0.0326
  306POPC   C4A 4221   1.980   1.998   6.779 -0.2133 -0.0280 -0.1697
  306POPC   C1B 4222   2.944   1.660   6.081  0.1904 -0.3187  0.4454
  306POPC   C2B 4223   3.107   1.575   6.469  0.1918  0.0587 -0.1183
  306POPC   C3B 4224   3.484   1.339   6.660  0.0806  0.1280 -0.0017
  306POPC   C4B 4225   3.936   1.275   6.756 -0.0512  0.1906  0.0188
  307POPC   NC3 4226   5.190   3.651   5.638 -0.0580 -0.4845  0.0419
  307POPC   PO4 4227   5.011   3.972   5.513 -0.1664  0.2798 -0.0433
  307POPC   GL1 4228   5.023   4.092   5.927 -0.4524  0.3131 -0.0809
  307POPC   GL2 4229   4.895   3.774   6.132  0.1754 -0.2068 -0.1732
  307POPC   C1A 4230   4.723   4.209   6.284  0.0615 -0.2494 -0.1072
  307POPC   D2A 4231   4.681   4.367   6.684  0.0226 -0.0008  0.1703
  307POPC   C3A 4232   4.829   4.161   6.998 -0.0313  0.3718 -0.1853
  307POPC   C4A 4233   5.151   4.182   7.302 -0.3754 -0.1931  0.0813
  307POPC   C1B 4234   5.090   3.938   6.491  0.3290 -0.0466  0.0875
  307POPC   C2B 4235   5.258   3.851   6.909 -0.0372  0.1149  0.1167
  307POPC   C3B 4236   5.727   3.727   7.001  0.2146 -0.2509  0.1576
  307POPC   C4B 4237   6.097   3.849   7.267 -0.2500  0.0449 -0.4014
  308POPC   NC3 4238   8.976   3.398   4.321 -0.0816  0.1458  0.0169
  308POPC   PO4 4239   9.088   3.315   4.788  0.0578 -0.2095 -0.1336
  308POPC   GL1 4240   9.152   3.582   5.080 -0.0439  0.1169 -0.2282
  308POPC   GL2 4241   9.385   3.683   5.397  0.2180  0.2266 -0.0497
  308POPC   C1A 4242   8.948   3.859   5.384 -0.0421  0.3468  0.1200
  308POPC   D2A 4243   8.571   3.927   5.246 -0.0517 -0.0634 -0.1688
  308POPC   C3A 4244   8.407   3.886   5.742 -0.0375 -0.0018 -0.0841
  308POPC   C4A 4245   8.240   4.255   5.995 -0.0730  0.2484  0.2199
  308POPC   C1B 4246   9.192   3.622   5.833 -0.1749 -0.0434  0.2996
  308POPC   C2B 4247   8.945   3.535   6.175  0.1815 -0.4186  0.0538
  308POPC   C3B 4248   8.745   3.676   6.660 -0.4244 -0.0930  0.0588
  308POPC   C4B 4249   8.446   3.616   6.995  0.1043 -0.1502 -0.0464
  309POPC   NC3 4250   4.517   4.969   4.662  0.0023  0.0395  0.0894
  309POPC   PO4 4251   4.718   5.119   5.016 -0.2126 -0.0753 -0.1652
  309POPC   GL1 4252   4.747   5.340   5.402  0.3419  0.1045  0.0653
  309POPC   GL2 4253   4.881   5.544   5.490  0.5045 -0.1712 -0.0538
  309POPC   C1A 4254   4.432   5.533   5.698 -0.1039 -0.1860  0.2812
  309POPC   D2A 4255   4.356   5.884   5.808 -0.0450  0.3140  0.1456
  309POPC   C3A 4256   4.346   5.985   6.234  0.0899  0.0200  0.1230
  309POPC   C4A 4257   4.104   5.977   6.593 -0.0634 -0.0265 -0.0837
  309POPC   C1B 4258   4.869   5.460   5.918  0.1900  0.0328  0.0308
  309POPC   C2B 4259   4.541   5.499   6.228  0.0270 -0.0356  0.1698
  309POPC   C3B 4260   4.333   5.415   6.542  0.0001 -0.0294  0.1377
  309POPC   C4B 4261   4.229   5.611   6.927  0.1971  0.1513  0.0142
  310POPC   NC3 4262   7.764   6.778   3.636 -0.0691  0.3464 -0.4132
  310POPC   PO4 4263   7.261   6.704   3.805 -0.0046 -0.0936  0.2194
  310POPC   GL1 4264   7.479   6.837   4.167  0.1226  0.1664  0.2524
  310POPC   GL2 4265   7.301   6.987   4.439  0.0667 -0.2102 -0.0973
  310POPC   C1A 4266   7.709   6.781   4.600  0.0931 -0.2212 -0.2629
  310POPC   D2A 4267   8.080   6.906   4.858  0.0363  0.4055 -0.1460
  310POPC   C3A 4268   7.895   7.015   5.358 -0.2891  0.1150  0.1431
  310POPC   C4A 4269   7.799   7.315   5.663  0.0655  0.0610 -0.0224
  310POPC   C1B 4270   7.211   7.358   4.615 -0.0495  0.0127 -0.0963
  310POPC   C2B 4271   7.194   7.612   4.989 -0.1195 -0.1542  0.1592
  310POPC   C3B 4272   7.102   7.883   5.323 -0.0307  0.0518 -0.0789
  310POPC   C4B 4273   7.107   7.773   5.812  0.1321 -0.0788 -0.1978
  311POPC   NC3 4274   0.096   3.973   4.621 -0.0640  0.0157 -0.0975
  311POPC   PO4 4275   0.013   3.713   4.963  0.0359  0.0160 -0.0401
  311POPC   GL1 4276  -0.224   3.772   5.325  0.0448 -0.1971  0.2894
  311POPC   GL2 4277  -0.051   3.858   5.544 -0.3347  0.0362  0.1043
  311POPC   C1A 4278  -0.490   4.081   5.464  0.1876 -0.2808 -0.3706
  311POPC   D2A 4279  -0.776   4.063   5.791  0.1118 -0.1209  0.0582
  311POPC   C3A 4280  -0.994   4.442   5.854 -0.1269  0.1612 -0.2673
  311POPC   C4A 4281  -1.335   4.615   5.960 -0.0283 -0.2314 -0.0846
  311POPC   C1B 4282   0.129   3.963   6.012 -0.1939 -0.2080 -0.1189
  311POPC   C2B 4283  -0.013   4.284   6.446 -0.1334 -0.0774  0.0650
  311POPC   C3B 4284  -0.079   4.704   6.650  0.3488 -0.0387 -0.0636
  311POPC   C4B 4285  -0.362   5.082   6.804 -0.0114  0.3149 -0.1730
  312POPC   NC3 4286   4.182   4.470   5.084 -0.2040 -0.0264  0.0314
  312POPC   PO4 4287   4.402   4.783   5.329 -0.3927  0.1043 -0.1894
  312POPC   GL1 4288   4.389   5.006   5.617 -0.0851 -0.0144  0.2799
  312POPC   GL2 4289   4.019   4.933   5.762  0.2173 -0.1736 -0.0334
  312POPC   C1A 4290   4.527   5.014   6.011 -0.0561 -0.5013 -0.1298
  312POPC   D2A 4291   4.714   4.744   6.337 -0.1671  0.3648  0.0108
  312POPC   C3A 4292   4.867   4.827   6.743  0.0175 -0.2098  0.1507
  312POPC   C4A 4293   4.843   4.654   7.135 -0.0408  0.2381 -0.3614
  312POPC   C1B 4294   3.869   5.035   6.161  0.0233 -0.0138 -0.2050
  312POPC   C2B 4295   4.000   4.997   6.591  0.0029 -0.1662 -0.1361
  312POPC   C3B 4296   4.361   4.799   6.718  0.1495  0.1305 -0.1086
  312POPC   C4B 4297   4.314   4.625   7.022 -0.0502 -0.0736  0.0484
  313POPC   NC3 4298   8.825   9.431   4.973 -0.1859  0.1455 -0.3078
  313POPC   PO4 4299   9.193   9.636   5.156 -0.0911 -0.2917  0.3020
  313POPC   GL1 4300   9.294   9.529   5.478 -0.0347  0.2206  0.2614
  313POPC   GL2 4301   9.525   9.380   5.532  0.2767  0.0950  0.0984
  313POPC   C1A 4302   9.252   9.334   5.891  0.0042  0.1903  0.0827
  313POPC   D2A 4303   9.193   9.176   6.254 -0.2648  0.0091  0.2590
  313POPC   C3A 4304   9.568   9.282   6.576 -0.1075  0.0371 -0.2824
  313POPC   C4A 4305   9.717   9.525   6.957  0.0302 -0.3573 -0.2847
  313POPC   C1B 4306   9.706   9.300   6.085 -0.0761  0.0219 -0.2415
  313POPC   C2B 4307  10.034   9.488   6.287 -0.0077 -0.2013 -0.1526
  313POPC   C3B 4308  10.041   9.783   6.683  0.1132  0.3412 -0.1679
  313POPC   C4B 4309   9.779  10.022   6.986 -0.0318 -0.3323 -0.0333
  314POPC   NC3 4310   7.845   8.595   4.009 -0.1633 -0.1377  0.0956
  314POPC   PO4 4311   8.171   8.803   3.886  0.3034 -0.1191  0.0191
  314POPC   GL1 4312   8.177   8.823   4.371 -0.0774  0.1490  0.1214
  314POPC   GL2 4313   8.171   8.499   4.532 -0.0212 -0.1260  0.2204
  314POPC   C1A 4314   8.299   8.879   4.882  0.3458 -0.1408 -0.3172
  314POPC   D2A 4315   8.482   9.135   5.248  0.0742 -0.1433 -0.1835
  314POPC   C3A 4316   8.352   8.962   5.656  0.0297  0.2662  0.3354
  314POPC   C4A 4317   8.154   8.838   6.073 -0.0065 -0.0415  0.1790
  314POPC   C1B 4318   8.247   8.275   4.912  0.4642 -0.2452 -0.1038
  314POPC   C2B 4319   8.468   7.850   4.954 -0.0887 -0.2877 -0.3225
  314POPC   C3B 4320   8.883   7.706   4.701 -0.1171 -0.1700  0.2381
  314POPC   C4B 4321   9.029   7.901   4.479  0.4661 -0.0296  0.1118
  315POPC   NC3 4322   0.920   5.017   4.947 -0.0147  0.0025 -0.2360
  315POPC   PO4 4323   0.765   5.316   4.709 -0.0763 -0.2890  0.3746
  315POPC   GL1 4324   0.439   5.114   5.010 -0.1070  0.0755  0.1463
  315POPC   GL2 4325   0.129   5.374   5.125 -0.0966 -0.2897  0.0357
  315POPC   C1A 4326   0.519   5.052   5.439 -0.0870 -0.1182 -0.0159
  315POPC   D2A 4327   0.270   4.872   5.746  0.1915  0.0158  0.2688
  315POPC   C3A 4328   0.054   5.174   6.093  0.1831 -0.1777 -0.1731
  315POPC   C4A 4329   0.011   5.469   6.486  0.0430  0.0158  0.0277
  315POPC   C1B 4330  -0.008   5.392   5.609  0.0716 -0.0421 -0.4523
  315POPC   C2B 4331  -0.202   5.595   6.050 -0.0328 -0.0605  0.1078
  315POPC   C3B 4332  -0.440   5.765   6.461 -0.4657  0.6057  0.0226
  315POPC   C4B 4333  -0.614   5.903   6.619 -0.0843 -0.1207 -0.2149
  316POPC   NC3 4334   0.246   0.720   5.498  0.0931  0.0227 -0.2554
  316POPC   PO4 4335  -0.028   0.423   5.440 -0.0987  0.0388  0.2604
  316POPC   GL1 4336  -0.085   0.638   5.856  0.0289  0.0011 -0.1571
  316POPC   GL2 4337  -0.282   0.766   6.056  0.0677  0.1194  0.1365
  316POPC   C1A 4338   0.060   0.464   6.236 -0.6066  0.1099 -0.3086
  316POPC   D2A 4339   0.285   0.037   6.320  0.0325 -0.2811 -0.2352
  316POPC   C3A 4340   0.180  -0.288   6.085 -0.0965  0.0904  0.1559
  316POPC   C4A 4341   0.470  -0.672   5.922 -0.2792  0.0871  0.5419
  316POPC   C1B 4342  -0.379   0.495   6.487  0.0409 -0.0802 -0.0438
  316POPC   C2B 4343  -0.565   0.347   6.776 -0.0025  0.0305  0.0043
  316POPC   C3B 4344  -0.638   0.298   7.096  0.1421  0.3261 -0.1335
  316POPC   C4B 4345  -0.866   0.068   7.415 -0.4348  0.1513 -0.1633
  317POPC   NC3 4346   8.594   4.145   4.655 -0.0138  0.0659 -0.2894
  317POPC   PO4 4347   8.193   3.799   4.747  0.0450  0.0450 -0.2031
  317POPC   GL1 4348   7.996   4.020   5.126 -0.2640 -0.0235 -0.3143
  317POPC   GL2 4349   7.936   3.915   5.469  0.2094  0.3034 -0.0616
  317POPC   C1A 4350   8.229   4.345   5.444 -0.0893 -0.1301  0.1038
  317POPC   D2A 4351   8.388   4.706   5.649  0.1728  0.4986 -0.0951
  317POPC   C3A 4352   8.256   4.736   6.036 -0.1245 -0.0715  0.0950
  317POPC   C4A 4353   7.992   4.867   6.270 -0.1400 -0.2361  0.2646
  317POPC   C1B 4354   7.738   4.264   5.651 -0.0481  0.3892 -0.2182
  317POPC   C2B 4355   7.639   4.449   6.061  0.1261 -0.0990 -0.0985
  317POPC   C3B 4356   7.540   4.533   6.460 -0.0441 -0.2598  0.1203
  317POPC   C4B 4357   7.311   4.825   6.632  0.2386 -0.2088  0.1206
  318POPC   NC3 4358   0.593   0.054   5.490 -0.0167 -0.1394  0.2864
  318POPC   PO4 4359   0.669   0.525   5.643 -0.1678  0.1989  0.1452
  318POPC   GL1 4360   0.942   0.370   5.793  0.4176  0.1157 -0.2764
  318POPC   GL2 4361   0.972   0.017   5.845  0.0765 -0.1650 -0.1069
  318POPC   C1A 4362   1.056   0.235   6.270  0.0573 -0.3238  0.1439
  318POPC   D2A 4363   1.030   0.475   6.538  0.0642 -0.0394  0.1170
  318POPC   C3A 4364   0.655   0.654   6.743  0.2469  0.2374  0.0060
  318POPC   C4A 4365   0.588   0.968   7.007 -0.1491 -0.0737  0.2269
  318POPC   C1B 4366   0.692  -0.249   6.146  0.0196 -0.2354  0.0518
  318POPC   C2B 4367   0.360  -0.333   6.564  0.0736  0.0323 -0.2274
  318POPC   C3B 4368   0.305  -0.347   6.902 -0.3273  0.1721  0.2748
  318POPC   C4B 4369   0.243   0.006   7.264  0.1002  0.0780  0.3711
  319W        W 4370   2.716   7.089   4.145  0.3457 -0.1069  0.1359
  320W        W 4371   8.272   1.012   9.754 -0.0189 -0.0674  0.2045
  321W        W 4372   5.060   5.821   1.141 -0.0627 -0.2218  0.1043
  322W        W 4373   1.063   3.875  12.066  0.1100  0.1500  0.2674
  323W        W 4374   5.593   7.176   0.329 -0.0865  0.0483 -0.0220
  324W        W 4375   1.437   8.692   2.558 -0.2990 -0.1273 -0.0077
  325W        W 4376   6.174   3.892  13.751 -0.1510 -0.2532  0.1549
  326W        W 4377   0.549   8.580   1.851 -0.2034  0.0804  0.0302
  327W        W 4378   7.627   0.102   5.463 -0.1230  0.3061  0.0586
  328W        W 4379   7.615   3.024  12.314  0.3111  0.2182 -0.1307
  329W        W 4380   1.445   3.606   1.046  0.0441  0.0504  0.1186
  330W        W 4381   5.381  10.142   1.829 -0.0409  0.0390  0.2793
  331W        W 4382   7.375   7.960  12.663  0.2043  0.1114  0.3112
  332W        W 4383   8.456   5.546   1.272  0.2954  0.0096 -0.1152
  333W        W 4384   2.587  10.143  13.798  0.0719 -0.2552 -0.0275
  334W        W 4385   6.936   5.235  12.486  0.3169  0.0739 -0.1174
  335W        W 4386   3.767   5.040  10.348 -0.0794 -0.0839  0.0819
  336W        W 4387   7.959   2.213   0.162 -0.3231 -0.1878  0.1615
  337W        W 4388   7.747   9.426  12.796  0.4470 -0.2060 -0.0400
  338W        W 4389   8.163   7.055   0.935 -0.1462 -0.1655  0.1481
  339W        W 4390   0.519   4.441  11.552  0.0124 -0.4839  0.0650
  340W        W 4391   6.699   4.709   2.689  0.1712 -0.0002  0.1810
  341W        W 4392   8.674   4.788   0.713 -0.0586 -0.2916 -0.4460
  342W        W 4393   7.032   9.828   1.133 -0.0721 -0.0978  0.0542
  343W        W 4394   9.852   5.617   0.447 -0.1313 -0.0679  0.0593
  344W        W 4395   0.753   8.196  10.509  0.2082  0.0874  0.0858
  345W        W 4396   4.097   9.673  10.203 -0.1230 -0.2980 -0.0433
  346W        W 4397   3.968   7.936  13.573 -0.4432 -0.0036  0.1241
  347W        W 4398   2.340   4.102   1.364 -0.0719 -0.0999  0.2235
  348W        W 4399   6.126   0.539   4.174 -0.2348  0.2090 -0.1058
  349W        W 4400   6.070   1.937   0.082 -0.2242 -0.2236  0.0297
  350W        W 4401   4.452   6.705   2.157 -0.2103 -0.1153  0.3332
  351W        W 4402   7.388   0.952  10.178  0.1200 -0.0088 -0.0650
  352W        W 4403   2.155   5.075   9.434 -0.2125 -0.0404 -0.0501
  353W        W 4404   8.780   6.884   3.843  0.1796  0.0262 -0.6925
  354W        W 4405   4.989   7.541   3.976  0.1490 -0.0257  0.3959
  355W        W 4406   6.247   3.236   4.695 -0.0504 -0.3908 -0.0740
  356W        W 4407   9.025   4.604  10.115  0.0583  0.2018 -0.1488
  357W        W 4408   8.584   1.721   4.731 -0.2157 -0.0069  0.0882
  358W        W 4409   4.093   1.142   1.997  0.3656  0.1492 -0.0363
  359W        W 4410   9.218   3.498   3.032  0.0500 -0.3084 -0.2253
  360W        W 4411   9.832   1.303  12.176  0.2033 -0.0947 -0.1620
  361W        W 4412   6.048   6.518   1.105 -0.0616 -0.0942  0.0255
  362W        W 4413   5.846   2.485  12.588  0.0633  0.3406 -0.1276
  363W        W 4414   6.223   5.012  10.861  0.1919 -0.0383  0.1279
  364W        W 4415   7.509   7.054  13.671  0.0719  0.1914 -0.0982
  365W        W 4416   2.254   9.021   1.231 -0.2446  0.2038  0.0336
  366W        W 4417   3.879   6.017  12.178 -0.1425 -0.0450  0.0736
  367W        W 4418   1.513   6.339   1.851  0.1851  0.2157 -0.0207
  368W        W 4419   1.370   5.014  11.352  0.0824  0.0206 -0.0801
  369W        W 4420   6.022   0.429   5.609  0.0398 -0.2960 -0.1835
  370W        W 4421   9.175   9.594   0.688 -0.0145 -0.0619 -0.0989
  371W        W 4422   7.853   7.667   3.742  0.1614  0.3457  0.0393
  372W        W 4423   5.895   8.954  10.062  0.0165  0.2312 -0.2250
  373W        W 4424   2.773   3.308   1.138  0.0976  0.0951  0.1308
  374W        W 4425   0.258   5.737   2.096 -0.0132  0.2489  0.1706
  375W        W 4426   5.182   6.206  13.594  0.1191  0.1153  0.0862
  376W        W 4427   1.986   6.925   4.044  0.2157 -0.0506  0.0655
  377W        W 4428   6.542   7.226  12.343  0.2373  0.0402  0.2565
  378W        W 4429   9.528   5.361  13.113  0.1130 -0.1903  0.1605
  379W        W 4430   2.204   1.877  13.379  0.0456 -0.3198  0.4665
  380W        W 4431  10.149   9.537  10.825 -0.0538  0.2542  0.1460
  381W        W 4432   6.754   7.998   4.294 -0.0135 -0.0982 -0.2371
  382W        W 4433   4.232   5.416   1.724  0.5488 -0.3892 -0.3607
  383W        W 4434   5.057   9.203   9.137  0.3497 -0.4194 -0.3953
  384W        W 4435   9.729   2.569   2.282 -0.0463  0.1139  0.0883
  385W        W 4436   6.088   9.655   9.769 -0.1834 -0.0743 -0.0400
  386W        W 4437   8.057   4.558   1.957  0.0433 -0.0709  0.0849
  387W        W 4438   7.205   9.715   3.714  0.2077  0.0950 -0.1536
  388W        W 4439   7.319   9.981   0.184  0.0736  0.0898 -0.0923
  389W        W 4440   0.224   7.149   4.477 -0.1938 -0.1981 -0.0358
  390W        W 4441   0.894   4.832  11.434 -0.4253  0.1720  0.0198
  391W        W 4442   8.201   9.745   2.891  0.1118 -0.3106 -0.0878
  392W        W 4443   7.188   4.636   1.393  0.0058 -0.3008 -0.2496
  393W        W 4444   3.918   6.878   3.647  0.2121 -0.0376  0.1904
  394W        W 4445   0.262   1.536  13.792  0.1560  0.1076  0.1308
  395W        W 4446   7.885   9.467   2.506  0.2501 -0.0797 -0.0769
  396W        W 4447   1.441   4.341   0.235 -0.0285  0.1958 -0.0132
  397W        W 4448   0.782   9.523   9.196 -0.1402  0.0981 -0.0995
  398W        W 4449   5.286   0.172   3.052 -0.1008  0.1070  0.1202
  399W        W 4450   9.932   8.947  10.671 -0.0258  0.1462  0.0599
  400W        W 4451   1.933   2.406  11.010 -0.1027  0.1980 -0.2102
  401W        W 4452   7.025   7.388   2.253  0.1655  0.2375  0.0380
  402W        W 4453   1.366   4.604  13.746  0.1959 -0.1202  0.4107
  403W        W 4454   3.018   8.162  11.223 -0.1246 -0.0748 -0.0760
  404W        W 4455  10.140   3.035   2.126 -0.1612 -0.0125 -0.4039
  405W        W 4456   5.785   1.736  13.019 -0.2822 -0.4127 -0.3592
  406W        W 4457   9.969   3.120   0.475 -0.1195  0.0348  0.2594
  407W        W 4458   8.510   3.957  10.642 -0.1269  0.0109 -0.1988
  408W        W 4459   4.899   9.871   9.606  0.0527 -0.2114 -0.2249
  409W        W 4460   5.227   5.897  11.780  0.1118 -0.0378 -0.0495
  410W        W 4461   8.173   6.681  11.188  0.1249  0.2154  0.1239
  411W        W 4462   4.251   3.605  11.410  0.2046  0.0796 -0.1286
  412W        W 4463   0.347   2.518  10.901  0.1302  0.1155 -0.1585
  413W        W 4464   7.095   7.815   0.581  0.1566  0.1344  0.2080
  414W        W 4465   0.099   1.695  12.173 -0.0516  0.0043  0.0207
  415W        W 4466   0.507   9.764   1.172  0.2598 -0.1375 -0.0080
  416W        W 4467   9.387   6.345   3.377 -0.0592  0.1383  0.3827
  417W        W 4468   8.984   6.697  11.107 -0.2479 -0.0645  0.1945
  418W        W 4469   7.611   7.174  12.672 -0.2272 -0.0504 -0.0366
  419W        W 4470   0.544  10.130   0.065  0.1147 -0.2367  0.0500
  420W        W 4471   3.619   4.778  11.326  0.0347 -0.1375 -0.2902
  421W        W 4472   8.605   3.379  12.175  0.3783 -0.1640  0.0634
  422W        W 4473   5.168   1.776  13.751 -0.3632 -0.3033  0.2812
  423W        W 4474   6.219   4.128   2.359  0.0560  0.1358  0.2640
  424W        W 4475   8.542   9.632   3.694  0.1276 -0.1767  0.1955
  425W        W 4476   3.748   4.207   3.654  0.4788  0.0042  0.1414
  426W        W 4477   4.747   4.535   5.743 -0.0749 -0.0208 -0.0957
  427W        W 4478   4.136   0.363  11.511  0.1303  0.0679  0.2193
  428W        W 4479   3.994   3.457   3.837  0.0301  0.0903  0.1271
  429W        W 4480   1.525   8.659  11.026  0.0411  0.0488  0.1820
  430W        W 4481   6.608   9.900   2.561  0.3361 -0.2808  0.1147
  431W        W 4482   6.088   3.565   0.109  0.4943 -0.1613 -0.4525
  432W        W 4483   4.872  10.183   0.183  0.3097 -0.0891 -0.1480
  433W        W 4484   3.805   6.024   3.967  0.0380  0.0421  0.1446
  434W        W 4485   2.678   4.991   4.259  0.0615  0.0816  0.1713
  435W        W 4486   0.649   7.637  12.942 -0.1655  0.2549 -0.2496
  436W        W 4487   8.505   9.116   3.652 -0.1752  0.3107  0.0254
  437W        W 4488   9.837   1.398   2.663  0.2118  0.0799 -0.3187
  438W        W 4489   2.814   3.203   1.625 -0.0799 -0.2552  0.0992
  439W        W 4490   1.177   3.056  11.780 -0.0086  0.1474  0.2012
  440W        W 4491   7.668   2.645   2.221 -0.1237 -0.1200  0.5248
  441W        W 4492   0.246   7.677  11.388 -0.1709 -0.0039 -0.3780
  442W        W 4493   2.473   1.734   1.379 -0.1781  0.3838 -0.1033
  443W        W 4494   2.484   8.577  10.976  0.0544  0.0700  0.0669
  444W        W 4495   9.625   2.164   4.444  0.3571 -0.3159  0.1474
  445W        W 4496   4.238   6.264   2.001 -0.0568  0.2494  0.0878
  446W        W 4497   1.605   4.112   9.381  0.0714 -0.3357  0.0969
  447W        W 4498   8.539   8.405  13.015 -0.1036  0.0406 -0.0287
  448W        W 4499   3.133   4.111   2.494 -0.1882  0.1052  0.0546
  449W        W 4500   0.918   8.269   2.721 -0.2402  0.1520  0.0481
  450W        W 4501   7.647   0.631   5.778  0.1820 -0.3450 -0.0123
  451W        W 4502   9.486   4.239   0.010  0.0517  0.0009  0.1782
  452W        W 4503   6.882   1.060   9.750 -0.3269  0.4296 -0.0259
  453W        W 4504   1.833   9.823  11.569  0.0728 -0.0892  0.1847
  454W        W 4505   5.730   9.534   3.699 -0.0695  0.0776 -0.2200
  455W        W 4506   1.904   3.324   5.090  0.1886 -0.0404  0.1129
  456W        W 4507   8.347   4.340   3.985 -0.2509  0.2135  0.1288
  457W        W 4508   3.741   2.056  10.202 -0.1437 -0.2377  0.0225
  458W        W 4509   3.189   0.891  10.901  0.1151  0.0595 -0.1795
  459W        W 4510   8.847   3.302  10.444 -0.2378  0.1150  0.0673
  460W        W 4511   9.459   2.642   2.692  0.3956  0.2894 -0.1032
  461W        W 4512   5.653   5.638   2.191  0.1362 -0.1208 -0.1196
  462W        W 4513   8.965   3.813   4.640 -0.2059 -0.0187 -0.3056
  463W        W 4514   9.651   4.894  11.034  0.1241  0.2136  0.2013
  464W        W 4515   5.128   5.744   9.122 -0.0549  0.1235 -0.2384
  465W        W 4516   5.847   2.254  13.046 -0.3525 -0.2573 -0.0597
  466W        W 4517   8.832   8.761  13.916 -0.1725  0.2182 -0.0135
  467W        W 4518   4.536   6.908  10.650 -0.1253  0.1241 -0.1550
  468W        W 4519   7.438   0.892  13.116 -0.3715 -0.2307  0.0401
  469W        W 4520  10.010   2.152  10.883  0.0536 -0.5169 -0.2270
  470W        W 4521   5.018   3.266   5.945 -0.1682 -0.0106 -0.2895
  471W        W 4522   5.556   2.158  10.681  0.0079  0.0265 -0.2608
  472W        W 4523   7.078   7.000   0.069  0.1648  0.1156  0.3617
  473W        W 4524   6.579   0.280   9.966 -0.2068 -0.0914 -0.0486
  474W        W 4525   5.953   2.046  10.387 -0.0903  0.1772 -0.2208
  475W        W 4526   9.896   2.526   4.776 -0.3590  0.3805  0.4106
  476W        W 4527   8.738   0.454  11.808  0.0508  0.1847  0.0695
  477W        W 4528   9.684   0.621   4.400 -0.0142 -0.4227 -0.0914
  478W        W 4529   3.667   5.113  13.729 -0.1258 -0.0516  0.0638
  479W        W 4530   6.619   3.735  10.220  0.1047 -0.2049 -0.4843
  480W        W 4531  10.032   8.004  11.554  0.1723  0.3780 -0.1283
  481W        W 4532   8.913   4.708  10.575  0.2264 -0.0748 -0.4137
  482W        W 4533   1.195   9.316   5.171 -0.0511 -0.4430  0.0775
  483W        W 4534   8.484   8.240  12.476  0.4813 -0.1772  0.1863
  484W        W 4535   6.533   0.590   2.030  0.1606 -0.2235 -0.1588
  485W        W 4536   0.511   0.062   1.283  0.2976 -0.3540  0.2491
  486W        W 4537   6.791   8.067   2.233 -0.0518 -0.1638  0.1492
  487W        W 4538   8.658   3.783  13.645 -0.3944 -0.0726 -0.1961
  488W        W 4539   4.384   9.939   1.428  0.0497  0.2179 -0.0553
  489W        W 4540   0.402   5.477  12.765 -0.0722  0.0160  0.0162
  490W        W 4541   8.221   2.456  11.298 -0.1362  0.2834 -0.3002
  491W        W 4542   3.895   2.487  10.674 -0.1114 -0.2735  0.0193
  492W        W 4543   5.719   9.440   2.083  0.2980  0.0221  0.0074
  493W        W 4544   3.421   5.956  10.056 -0.1232  0.2813  0.0057
  494W        W 4545   6.051   7.102  12.589 -0.0999  0.0260 -0.0267
  495W        W 4546   3.381   8.709  10.179 -0.2948  0.3395 -0.2639
  496W        W 4547   3.007   0.604   0.821  0.1256 -0.0217 -0.2134
  497W        W 4548   4.944   1.422   3.400 -0.0867  0.4073  0.0700
  498W        W 4549   9.092   0.879  10.238 -0.0822 -0.2393 -0.1184
  499W        W 4550   3.585   2.360   2.285 -0.2413  0.5024  0.0694
  500W        W 4551   4.806   6.027   9.466 -0.2024  0.1453 -0.1337
  501W        W 4552   4.570   4.593   9.617 -0.3007 -0.0683  0.1063
  502W        W 4553   5.462   4.139   5.629 -0.0093  0.2352  0.0280
  503W        W 4554   4.180   3.118   3.007  0.2113  0.2164  0.0968
  504W        W 4555   3.523   4.032   9.401 -0.0613  0.2618  0.5075
  505W        W 4556   8.691   4.015   0.966 -0.1552 -0.2252  0.1842
  506W        W 4557   0.119   8.617  12.038 -0.1642 -0.0474  0.3938
  507W        W 4558   2.278   0.206  10.145  0.0731  0.2591  0.0977
  508W        W 4559   7.636   8.384  12.750 -0.1896 -0.0647  0.0467
  509W        W 4560   8.203  10.136   2.065  0.0269  0.1756 -0.0582
  510W        W 4561   6.976   1.376   5.061  0.2544  0.3862  0.2254
  511W        W 4562   9.932   8.296  11.132  0.2327 -0.0390  0.0582
  512W        W 4563   2.579   8.825   9.405  0.2286 -0.2572 -0.0363
  513W        W 4564   9.514   9.426   9.950 -0.2844 -0.1620 -0.0121
  514W        W 4565   0.987   4.140  13.000  0.0347  0.2176  0.0557
  515W        W 4566   3.363   1.048   9.712  0.0936 -0.0548  0.1843
  516W        W 4567   1.929   3.485   0.885  0.0263 -0.0600 -0.2964
  517W        W 4568   1.506   5.221  12.643  0.2054  0.1125 -0.0104
  518W        W 4569   2.626   1.140   2.611  0.3352  0.0832  0.3427
  519W        W 4570   4.767   5.421  11.893  0.0630  0.0283  0.1039
  520W        W 4571   7.069   1.221   4.602  0.0293  0.0503  0.0798
  521W        W 4572   6.033   5.920   4.033  0.0612  0.1772  0.3509
  522W        W 4573   6.215   7.876  10.259 -0.2522  0.1653  0.1095
  523W        W 4574   0.346   9.201   1.110 -0.4252 -0.2127  0.2178
  524W        W 4575   1.443   5.478  11.301  0.1735  0.0894  0.2085
  525W        W 4576   4.693   6.277   9.948  0.1001 -0.0920 -0.1401
  526W        W 4577   0.401   0.164  13.602 -0.0543 -0.1114  0.1166
  527W        W 4578   8.195   0.638   5.583 -0.1066 -0.0140  0.1092
  528W        W 4579   4.115   5.365  13.499 -0.0864  0.4717 -0.0256
  529W        W 4580   8.004   6.111  13.365  0.0912  0.1947 -0.0021
  530W        W 4581   1.869   6.041   4.374 -0.1422  0.0911  0.0922
  531W        W 4582   8.212   9.423  12.347 -0.1076  0.1025  0.0510
  532W        W 4583   6.231   4.621   1.549  0.0304  0.2398 -0.2967
  533W        W 4584   9.949   1.096  10.949  0.1953  0.2299  0.2272
  534W        W 4585   8.733   1.826   0.089 -0.3608  0.1365  0.0592
  535W        W 4586   3.060   1.639  10.793 -0.1495 -0.1071 -0.1630
  536W        W 4587   8.167   8.004   1.155  0.0913 -0.3458  0.0175
  537W        W 4588   6.802   6.570  12.690 -0.0533 -0.2769  0.0264
  538W        W 4589   7.972   2.318   8.852  0.0964  0.1361 -0.0328
  539W        W 4590   0.831   3.998   2.275  0.0356  0.1410  0.0150
  540W        W 4591   7.954   7.917  10.199  0.5658  0.2160  0.0823
  541W        W 4592   1.276   8.177   1.232  0.2876  0.2807  0.0325
  542W        W 4593   9.827   3.713  11.590 -0.0205 -0.1519  0.0250
  543W        W 4594   9.905   9.632  13.609  0.3183  0.1560 -0.0539
  544W        W 4595   3.689   0.617  11.518 -0.0602  0.0013  0.1631
  545W        W 4596   3.472   8.957   9.401  0.1358  0.1695 -0.3012
  546W        W 4597   9.848   7.596   3.019  0.1184 -0.0158 -0.1538
  547W        W 4598   3.188   0.979   1.196  0.0241 -0.2032 -0.2159
  548W        W 4599   7.667   3.073   4.038 -0.0885 -0.0553 -0.1313
  549W        W 4600   8.691   2.012  11.814 -0.0635 -0.0480 -0.2067
  550W        W 4601   8.869   0.223   9.737  0.0239  0.0313  0.1394
  551W        W 4602   2.646   6.767  11.321  0.3391  0.0553 -0.1455
  552W        W 4603   2.206   6.606   2.875  0.1241 -0.0126 -0.0468
  553W        W 4604   6.011   2.530   9.419  0.1783  0.0807  0.0107
  554W        W 4605   6.346   6.013   0.500 -0.0681 -0.1226  0.1191
  555W        W 4606   2.647   1.641   2.646  0.1343 -0.1094 -0.2957
  556W        W 4607   4.159   4.398   3.828  0.4571 -0.1382  0.1588
  557W        W 4608   4.282   7.462  10.079  0.1604  0.0196 -0.1098
  558W        W 4609   1.752   6.418  13.893  0.1045  0.1289  0.0309
  559W        W 4610   4.123   6.499   3.969  0.3034 -0.1235 -0.0590
  560W        W 4611   0.328   1.238   2.379 -0.2264  0.1592  0.0223
  561W        W 4612   9.321   1.076  13.588 -0.0363  0.4381 -0.1736
  562W        W 4613   4.627   1.519  12.867  0.2277 -0.0496  0.2888
  563W        W 4614   8.957   0.365  11.004  0.2885 -0.1900  0.1599
  564W        W 4615   4.068   4.157   9.505  0.1703  0.1075  0.1870
  565W        W 4616   4.174   2.105   4.338  0.2504 -0.0667 -0.2984
  566W        W 4617   5.656   0.440  13.493 -0.2061  0.2946  0.0363
  567W        W 4618   3.606   6.441   2.995 -0.2721 -0.3438 -0.3530
  568W        W 4619   6.427   6.860   2.919  0.0813  0.0328  0.1284
  569W        W 4620   0.373   4.350   3.139 -0.2430 -0.3350  0.1490
  570W        W 4621   7.099   3.771   2.859  0.0892  0.1184 -0.0757
  571W        W 4622   2.408   4.228   1.939  0.0445  0.0524  0.2225
  572W        W 4623   7.175   5.825   3.193 -0.0327  0.2565  0.2622
  573W        W 4624   2.531   2.596  12.951 -0.1215 -0.1861  0.2744
  574W        W 4625   7.869   2.661  10.825  0.1829  0.1971  0.0660
  575W        W 4626   5.118   1.344   2.201 -0.1366  0.0743  0.1972
  576W        W 4627   1.050   1.616  11.777 -0.0352 -0.2337 -0.0245
  577W        W 4628   6.499   3.512   4.286  0.0990  0.0147  0.0272
  578W        W 4629   0.529   7.633   1.959 -0.1713 -0.0843  0.2137
  579W        W 4630   9.316   6.282   2.748 -0.4070  0.3344 -0.1082
  580W        W 4631   4.620   2.304   0.377  0.2517 -0.0577  0.1080
  581W        W 4632   0.084   8.600   2.897  0.1112 -0.3687 -0.2870
  582W        W 4633   6.952   6.067   1.551 -0.1566  0.2886  0.0249
  583W        W 4634   9.442   0.981   4.060  0.1510  0.1058 -0.1320
  584W        W 4635   4.337   0.785   3.816  0.1903  0.5366  0.3132
  585W        W 4636   5.616   9.973   4.422  0.1096 -0.1580 -0.1805
  586W        W 4637   1.081   8.368   1.705  0.3868 -0.1788 -0.0346
  587W        W 4638   5.878   5.621   3.178 -0.1376  0.0411 -0.0348
  588W        W 4639   8.366   2.712  10.896 -0.3076  0.1814  0.1159
  589W        W 4640   0.427   0.432   0.865  0.1455 -0.3345 -0.1187
  590W        W 4641   0.454   3.848   4.248 -0.1019 -0.1733 -0.1497
  591W        W 4642   5.053   0.952   4.954 -0.1840 -0.1267  0.2209
  592W        W 4643   5.214   5.690  13.629 -0.0396  0.3579 -0.0485
  593W        W 4644   5.889   5.692   2.653  0.0053 -0.3313  0.2334
  594W        W 4645   9.048   9.818  12.519 -0.0236  0.1174  0.1629
  595W        W 4646   6.451   8.953   4.254  0.2229 -0.0320 -0.3853
  596W        W 4647   0.808   0.565   2.789  0.2146 -0.0646  0.1484
  597W        W 4648   5.791   4.531   5.499  0.0756  0.1733 -0.1871
  598W        W 4649   3.512   2.062   3.649  0.1452 -0.0368 -0.0668
  599W        W 4650   4.179   7.194  13.168  0.2316 -0.1173 -0.0175
  600W        W 4651   4.165   4.249   8.696  0.1177 -0.1574 -0.0248
  601W        W 4652   7.862   0.300   2.267  0.0114 -0.2096 -0.0492
  602W        W 4653   4.149   2.454  13.550 -0.2309 -0.1202 -0.1444
  603W        W 4654   5.053   5.224  10.415  0.1142  0.1365  0.0017
  604W        W 4655   8.924   6.042   2.915  0.1456  0.2115 -0.0247
  605W        W 4656   1.684   2.546   0.581 -0.0119  0.1411  0.0344
  606W        W 4657   3.516   8.092   3.666  0.1444  0.0171  0.2683
  607W        W 4658   3.138   6.836  10.119  0.3595 -0.2193  0.1279
  608W        W 4659   6.979   9.114   2.571  0.0423  0.0359 -0.0299
  609W        W 4660   2.106   4.042   9.749  0.3026  0.0356 -0.0355
  610W        W 4661   5.543   1.205   0.659  0.3070  0.1317  0.0316
  611W        W 4662   3.170   9.148   0.190 -0.1134  0.2249 -0.0030
  612W        W 4663   4.444   4.513   2.650  0.2907 -0.1229  0.2598
  613W        W 4664  10.047   5.227  12.697 -0.1455  0.0783 -0.0052
  614W        W 4665   7.509   1.176   9.614 -0.0443 -0.0068  0.0916
  615W        W 4666   6.624   3.290  11.183  0.0144  0.2911  0.2056
  616W        W 4667   5.465   4.064   9.952 -0.1037  0.1872 -0.0335
  617W        W 4668   1.255   0.316   2.667 -0.0387  0.1695  0.1020
  618W        W 4669   7.774   6.344   0.355 -0.0434  0.0638 -0.0925
  619W        W 4670   8.204   1.965  11.938 -0.0375 -0.4278  0.1711
  620W        W 4671   4.728   7.776   3.537 -0.0124 -0.4876  0.0009
  621W        W 4672   6.802   8.387  13.862  0.0671  0.0273 -0.4858
  622W        W 4673   1.334   3.830   4.383 -0.2509  0.3763 -0.1595
  623W        W 4674   5.628   0.703   2.271  0.0449  0.0854 -0.2888
  624W        W 4675   7.442   5.365  12.430 -0.1557  0.0510 -0.3626
  625W        W 4676   2.392   5.991   2.158 -0.0366 -0.0664 -0.0424
  626W        W 4677   3.981   1.583   4.375  0.1342  0.0586 -0.2649
  627W        W 4678   2.400   6.103  13.707  0.0292  0.2719 -0.1369
  628W        W 4679   4.163   2.825   5.578 -0.2968  0.1150 -0.0408
  629W        W 4680   3.438   7.266   1.369 -0.0921 -0.0674  0.3045
  630W        W 4681   7.135   1.813   4.469 -0.1520 -0.3138  0.0101
  631W        W 4682   3.066   1.136   4.728 -0.2181 -0.2798 -0.3302
  632W        W 4683   9.003   3.730   1.253 -0.1507  0.0780 -0.1431
  633W        W 4684   2.628   4.201  11.801  0.0717  0.5002 -0.0531
  634W        W 4685   4.708   3.513   5.650 -0.1033  0.3824 -0.1468
  635W        W 4686   3.450   3.480  10.391 -0.1237 -0.0697 -0.1321
  636W        W 4687   2.041   6.480  12.017 -0.0130 -0.3783 -0.1980
  637W        W 4688   2.182   3.467   3.762 -0.2579  0.2538 -0.1223
  638W        W 4689   6.496   9.801   2.080 -0.0613  0.2384  0.1337
  639W        W 4690   6.315   5.196  11.331  0.3305 -0.0351 -0.2658
  640W        W 4691   2.864   2.135   0.595 -0.0587 -0.1466 -0.1105
  641W        W 4692   6.365   1.162  11.989  0.1494 -0.3222 -0.0523
  642W        W 4693   8.026   0.646   8.910  0.0541  0.5182 -0.0457
  643W        W 4694   0.391   3.966   0.188  0.0206 -0.3296  0.1497
  644W        W 4695   8.665   6.509  12.256  0.3954 -0.0355  0.0737
  645W        W 4696   4.267   9.885   8.884  0.1279  0.0856  0.0422
  646W        W 4697   3.292   2.910   3.188  0.3654  0.0933 -0.0357
  647W        W 4698  10.127   0.462   4.065  0.0037 -0.2874 -0.0106
  648W        W 4699   2.679   7.186  10.551 -0.0092 -0.1990 -0.2746
  649W        W 4700   3.415   5.574  12.807 -0.4692  0.0718  0.1474
  650W        W 4701   5.864   6.702  11.724  0.1466  0.1375  0.1557
  651W        W 4702   2.970   7.688  11.175 -0.0843  0.0831  0.3382
  652W        W 4703  10.052   3.472   3.600 -0.1563  0.3925 -0.1818
  653W        W 4704   2.707   1.753   0.947 -0.1151  0.2799 -0.1300
  654W        W 4705   7.336  10.169   1.985 -0.1499 -0.0922  0.0694
  655W        W 4706   2.396   5.803  13.275 -0.0122  0.1382  0.0780
  656W        W 4707   3.931   1.996   4.769 -0.2468  0.1217 -0.0064
  657W        W 4708   4.353   9.342   2.606  0.0517  0.2864 -0.1627
  658W        W 4709   4.489   4.557   3.239 -0.1321 -0.0871  0.0593
  659W        W 4710   0.009   2.562   5.351 -0.3615  0.0100  0.1976
  660W        W 4711   9.910   1.321   8.798 -0.0337 -0.3468 -0.1027
  661W        W 4712   6.360   0.766   1.209  0.2210 -0.0340 -0.1611
  662W        W 4713   4.132   5.363   4.695 -0.0515 -0.3200  0.1704
  663W        W 4714   6.996   2.517  13.778  0.1354  0.2166 -0.3975
  664W        W 4715   7.985   3.205  10.050  0.0398 -0.0653 -0.0498
  665W        W 4716   4.291   2.339   4.775  0.3640 -0.1968  0.1692
  666W        W 4717   2.638   8.389   9.195  0.0892 -0.2164  0.1067
  667W        W 4718  10.142   1.168   4.065  0.2105 -0.1047  0.1146
  668W        W 4719   4.395   5.894   9.836  0.0709  0.1050 -0.1245
  669W        W 4720   9.781   3.865   0.922  0.0526 -0.0002 -0.2897
  670W        W 4721   2.558   4.944  12.520  0.3735 -0.0754  0.1420
  671W        W 4722   9.407   7.883   1.343 -0.1292 -0.0265  0.0075
  672W        W 4723   9.363   9.640   3.727  0.1669  0.1837  0.0761
  673W        W 4724   1.332   1.654   9.388 -0.4705 -0.1278  0.0108
  674W        W 4725   4.269   6.016   4.810  0.1764  0.1199  0.2090
  675W        W 4726   6.901   9.844  13.000  0.1282  0.1594 -0.0382
  676W        W 4727   1.249   8.585  12.908  0.0396 -0.0664 -0.0899
  677W        W 4728   7.187   7.474   3.206 -0.0091  0.0670  0.3172
  678W        W 4729   4.132   9.556  12.578  0.1162  0.1276 -0.0532
  679W        W 4730   7.831   1.784  11.669  0.0140  0.2329  0.3692
  680W        W 4731   5.887   1.012   9.149 -0.1928 -0.1693  0.0671
  681W        W 4732   1.515   6.535  11.791 -0.3513  0.1715  0.0681
  682W        W 4733   6.998   4.391  12.956  0.0403 -0.1294 -0.1029
  683W        W 4734   1.764   6.641   2.178  0.0440  0.1110  0.0201
  684W        W 4735   7.716   0.772   2.465  0.0881 -0.4136 -0.0752
  685W        W 4736   3.532  10.078   1.818  0.4691 -0.0938  0.0279
  686W        W 4737   0.344   1.561   9.613  0.1485 -0.1693  0.2175
  687W        W 4738   3.292   7.398   0.208 -0.0316  0.1219 -0.2540
  688W        W 4739   3.710   7.012   9.156 -0.0779  0.1672  0.0480
  689W        W 4740   5.658   5.913  11.294 -0.0059 -0.3613  0.0852
  690W        W 4741   5.776   6.643   3.653  0.1610  0.1383 -0.0211
  691W        W 4742   9.108   0.695   5.711 -0.0725  0.2703 -0.0225
  692W        W 4743   0.641   1.365   4.843 -0.0619  0.0179  0.0073
  693W        W 4744   3.449   5.474  11.758 -0.3732 -0.0931 -0.0383
  694W        W 4745   2.430   9.203   3.095  0.1829  0.0625 -0.3145
  695W        W 4746   3.303   1.966   2.833  0.1195  0.1039 -0.0800
  696W        W 4747   0.668   8.586   2.416  0.0922  0.1077 -0.0143
  697W        W 4748   6.808   8.917   1.549 -0.0665 -0.3779 -0.1992
  698W        W 4749   7.124   3.356  10.540  0.4201 -0.1593  0.2649
  699W        W 4750   1.330   9.337   2.486 -0.2250  0.1842  0.0733
  700W        W 4751   2.609   1.292   3.812 -0.2458 -0.1716  0.0971
  701W        W 4752   4.024   2.650   1.225 -0.0712 -0.0870  0.0178
  702W        W 4753   8.850   9.087  13.481 -0.2218  0.1036  0.0691
  703W        W 4754   1.179   0.110  12.296  0.2176  0.1534 -0.2020
  704W        W 4755   9.717   8.378  13.298 -0.0340 -0.2829  0.1290
  705W        W 4756   5.273   4.282  13.635 -0.2572 -0.0469  0.3652
  706W        W 4757   8.043   1.477  12.077 -0.1199 -0.2768 -0.1263
  707W        W 4758   2.344   8.316   2.264  0.3082 -0.0193  0.1902
  708W        W 4759   5.062   4.569   0.982 -0.0516  0.1568 -0.2297
  709W        W 4760   7.176   5.243   0.906  0.0127 -0.2874  0.0246
  710W        W 4761   7.460   5.218   1.785  0.0758 -0.1654 -0.0463
  711W        W 4762   9.648   3.484   9.502  0.2734  0.2517  0.1174
  712W        W 4763   1.277   3.443   3.992 -0.3544 -0.1571  0.1303
  713W        W 4764   4.315   7.935   2.755 -0.2066 -0.0203  0.0686
  714W        W 4765   0.232   7.666  11.909  0.0745 -0.0930  0.1966
  715W        W 4766   6.628   5.779  11.432 -0.1259 -0.1033  0.2482
  716W        W 4767   1.064   9.514   0.553  0.0750  0.2947  0.1471
  717W        W 4768   9.721   3.757   2.980 -0.1328 -0.1248 -0.1361
  718W        W 4769   0.003   5.541   1.517  0.1698  0.1621  0.1258
  719W        W 4770   4.765   5.443  10.051  0.0761  0.2857 -0.0887
  720W        W 4771   6.251   5.605   2.345  0.1311  0.0673 -0.0286
  721W        W 4772   0.741   0.837   0.205 -0.2020 -0.2176 -0.0645
  722W        W 4773   5.153   8.492  10.671  0.0060 -0.2914  0.0878
  723W        W 4774   1.763   5.489  12.927  0.1821  0.1091  0.0071
  724W        W 4775   2.333   1.008   3.510 -0.0802  0.2165  0.0380
  725W        W 4776   5.041   8.861   9.526 -0.0215  0.0721  0.0966
  726W        W 4777  10.081   5.910   0.062  0.0002  0.3936 -0.1768
  727W        W 4778   5.051   5.072   4.642  0.0854 -0.0235  0.1136
  728W        W 4779   7.212   0.650  12.764 -0.0085 -0.1226  0.0236
  729W        W 4780   2.272   4.537  13.346  0.0245 -0.2481 -0.3204
  730W        W 4781   3.582   1.808  12.472  0.1118 -0.0264 -0.0932
  731W        W 4782   2.281  10.096  10.518  0.1193 -0.0788  0.1305
  732W        W 4783   4.672   0.512   4.846 -0.3335 -0.1487 -0.1439
  733W        W 4784   4.287   7.805   4.543 -0.2329  0.0647 -0.0010
  734W        W 4785   5.866   8.845   0.337  0.2236 -0.0157  0.3066
  735W        W 4786  10.115   0.806  10.532  0.0694  0.0616  0.1340
  736W        W 4787   3.387   6.094   9.012  0.3571 -0.1994 -0.0568
  737W        W 4788   2.403   9.611   3.442  0.1504 -0.2109  0.0143
  738W        W 4789   7.657   7.903  13.174  0.2332 -0.3219  0.1871
  739W        W 4790   6.652  10.113  10.891  0.3075 -0.1386  0.1065
  740W        W 4791   3.533   7.920   0.076 -0.0354 -0.2558  0.0198
  741W        W 4792   5.671   9.989   2.933 -0.0380  0.0261  0.0613
  742W        W 4793   2.407   7.057  10.969 -0.0382 -0.2290  0.0769
  743W        W 4794   7.509   1.406   1.048  0.0048  0.2736  0.6827
  744W        W 4795   6.420   0.274  12.250 -0.1773 -0.4518 -0.1067
  745W        W 4796   8.133   1.964   2.580 -0.1299 -0.2967 -0.0766
  746W        W 4797   6.325   9.514   0.594  0.1658  0.0942  0.4013
  747W        W 4798   5.623   2.010  13.485  0.1727  0.3166  0.3582
  748W        W 4799  10.089   5.648  13.034  0.0971 -0.0798 -0.0351
  749W        W 4800   7.695   8.191  11.372 -0.1219 -0.3070  0.2420
  750W        W 4801   4.119   0.742  11.900 -0.1004  0.2137  0.0770
  751W        W 4802   7.540   4.219   2.657 -0.3378  0.1682  0.1580
  752W        W 4803   7.208   3.101  13.867  0.1517 -0.0089  0.0792
  753W        W 4804   7.962   1.610   4.022  0.2020  0.2751 -0.0824
  754W        W 4805   3.701   3.159   9.478 -0.3229  0.1339 -0.1798
  755W        W 4806   9.749   3.044  10.470  0.1852  0.0633  0.2924
  756W        W 4807   1.004   7.810   3.070 -0.0144  0.0857  0.4240
  757W        W 4808   3.168   4.065   8.548 -0.0848 -0.0539 -0.1695
  758W        W 4809   6.581   4.689   1.900 -0.2458 -0.1787  0.0422
  759W        W 4810   2.495   4.922   2.436  0.2455  0.3739 -0.0852
  760W        W 4811   5.763   0.586  11.640  0.1132  0.1632  0.1697
  761W        W 4812   1.358   2.705   0.052  0.0934 -0.1504  0.1304
  762W        W 4813   5.461   6.717   1.734 -0.1856  0.1117  0.2585
  763W        W 4814   1.488   8.035  13.501  0.0342 -0.1620  0.0454
  764W        W 4815   8.113   6.289   1.160 -0.1338  0.3299  0.0262
  765W        W 4816   4.440   5.097   3.410 -0.2397  0.0543 -0.0080
  766W        W 4817  10.008   3.539   0.257  0.0808  0.0191 -0.0857
  767W        W 4818   0.201   0.771   2.008 -0.2852  0.0869 -0.1851
  768W        W 4819   4.330   4.942  10.922  0.2253  0.1534  0.3208
  769W        W 4820   5.152   6.224   1.595 -0.0807 -0.2692 -0.0244
  770W        W 4821   1.156   6.345   9.378 -0.0104 -0.0618  0.1072
  771W        W 4822   5.323   9.626  12.768 -0.2745  0.2307  0.0739
  772W        W 4823   6.439   9.847   8.586  0.1924 -0.3011  0.1883
  773W        W 4824   5.848   0.814   3.212  0.1684 -0.2065  0.0999
  774W        W 4825   2.911   1.724   0.038 -0.0325  0.0833  0.0172
  775W        W 4826   2.211   1.790   2.291  0.1931  0.0461 -0.1285
  776W        W 4827   9.861   3.671  13.724  0.0597 -0.4585 -0.1592
  777W        W 4828   2.255   1.695   0.134 -0.3949 -0.1365  0.2023
  778W        W 4829   7.820   7.456  12.285  0.0268 -0.1454 -0.4162
  779W        W 4830   5.987   5.189  12.848 -0.0979  0.1735 -0.1928
  780W        W 4831   9.008   9.092   3.730  0.0837 -0.4435 -0.0164
  781W        W 4832   5.464   9.701   0.690  0.3466 -0.0294 -0.2210
  782W        W 4833   6.785   6.830   0.451  0.1148  0.2664 -0.1034
  783W        W 4834   9.889   9.056   5.377  0.0699 -0.0589  0.3481
  784W        W 4835   2.476   0.168   8.992 -0.0243  0.2649 -0.3623
  785W        W 4836   4.155   3.083  12.192  0.1611 -0.2923  0.2958
  786W        W 4837   6.236   7.305   2.767 -0.0220  0.1665  0.1311
  787W        W 4838   2.922   7.207   3.645 -0.1074 -0.0037 -0.1441
  788W        W 4839   4.341   1.219   2.895 -0.1551 -0.3967  0.1820
  789W        W 4840   4.709   6.288   1.820  0.5693 -0.2547  0.1330
  790W        W 4841   4.342   1.939   5.006 -0.1241  0.1767  0.0542
  791W        W 4842   9.262   0.507  10.547  0.0688  0.1412  0.4478
  792W        W 4843   7.658   2.800   4.754 -0.1356  0.1667  0.1617
  793W        W 4844   9.999   1.562   4.410  0.1996  0.0820  0.0244
  794W        W 4845   2.868   3.309  11.155  0.0390 -0.1041  0.3749
  795W        W 4846   6.482   9.752  12.121 -0.0257 -0.1542  0.0598
  796W        W 4847   8.468   5.995   1.388  0.2205  0.2386  0.0394
  797W        W 4848   1.774   8.584   3.891 -0.0001  0.2102 -0.0293
  798W        W 4849   3.620   3.583   5.166 -0.1168  0.1112 -0.0334
  799W        W 4850   2.376   3.346  10.132 -0.1872 -0.1587  0.2229
  800W        W 4851   2.126   9.352  11.323  0.1437  0.2619 -0.1055
  801W        W 4852   5.595   8.598  10.294 -0.1150 -0.0780  0.1999
  802W        W 4853   9.204   1.899  13.327  0.0237 -0.3011 -0.3404
  803W        W 4854   0.211   9.230   4.220  0.1872  0.0043  0.1642
  804W        W 4855   2.659   9.768   0.150  0.1123  0.1116  0.0083
  805W        W 4856   9.879   9.890   1.561  0.3185 -0.2268 -0.1251
  806W        W 4857   8.283   0.742  11.943 -0.2363  0.0625 -0.3033
  807W        W 4858   1.653   9.571   5.096 -0.2033  0.2189 -0.0363
  808W        W 4859   4.500   9.402  10.997 -0.2197  0.2248 -0.0278
  809W        W 4860  10.029   9.495   2.892 -0.2004 -0.0920 -0.1380
  810W        W 4861   3.993   7.569  12.083 -0.2909 -0.0869 -0.4109
  811W        W 4862   6.259   6.468  10.899  0.1989  0.1847  0.3608
  812W        W 4863   0.976   7.193  10.682  0.2059 -0.0001  0.1057
  813W        W 4864   6.838   3.593   5.633 -0.3490  0.0737  0.1361
  814W        W 4865   7.569   7.458   2.754  0.0340 -0.2804 -0.2658
  815W        W 4866   8.176   5.352  10.473 -0.3230  0.5035 -0.5581
  816W        W 4867   0.179   0.453  12.249 -0.3541 -0.1102 -0.1690
  817W        W 4868   1.431   6.272  10.961  0.0790  0.0825  0.4236
  818W        W 4869   9.144   7.153  11.071  0.1254  0.1821  0.2623
  819W        W 4870   2.852   2.788   9.040 -0.0939 -0.3367  0.1514
  820W        W 4871   7.470   8.074  10.956  0.1283  0.1374  0.0292
  821W        W 4872   4.151   7.290   2.867 -0.2458  0.0840  0.1204
  822W        W 4873   4.208   3.094   1.378 -0.3015  0.3057 -0.0563
  823W        W 4874   2.274   4.494   2.893 -0.3357  0.1248  0.3744
  824W        W 4875   6.295   9.519  13.620  0.0231  0.0052  0.1909
  825W        W 4876   1.876   4.573   1.329  0.1330 -0.2790 -0.1421
  826W        W 4877   8.662   8.887  11.318  0.0709  0.1791  0.2651
  827W        W 4878   2.410   7.284  11.572  0.2134  0.2273 -0.0445
  828W        W 4879   4.519   6.809   4.294  0.2006 -0.2205 -0.2328
  829W        W 4880   7.949   3.552   5.066  0.1677 -0.0348 -0.1823
  830W        W 4881   2.650   6.817   1.573  0.1578 -0.2689 -0.2417
  831W        W 4882   1.475   3.249   9.555 -0.2175 -0.3138  0.2528
  832W        W 4883   8.114   2.459   3.488 -0.1099 -0.0548  0.1045
  833W        W 4884   3.849   2.308   0.609  0.1221 -0.1562  0.1706
  834W        W 4885   7.927   1.264   1.257  0.0413 -0.0393  0.0253
  835W        W 4886   4.744   9.136  11.322  0.0947  0.3080 -0.0716
  836W        W 4887   4.831   0.838  10.123 -0.0967 -0.0184 -0.3837
  837W        W 4888   0.761   7.902   0.270 -0.1259 -0.1916 -0.0050
  838W        W 4889   2.976   4.271   5.612 -0.2286  0.0455 -0.1661
  839W        W 4890   7.196   8.869   3.549  0.2071  0.1674 -0.0119
  840W        W 4891   0.153   5.715   0.464 -0.2938  0.4095 -0.2038
  841W        W 4892   4.144   2.758   8.572  0.4694 -0.1449 -0.0779
  842W        W 4893   4.394   2.009   3.489 -0.0229 -0.1296  0.1489
  843W        W 4894   4.010   2.064  11.534  0.1393 -0.2180  0.3463
  844W        W 4895   0.053   7.506  12.942 -0.2860  0.0631 -0.0018
  845W        W 4896   9.293   6.329  13.807  0.0691  0.0377  0.0921
  846W        W 4897   2.588   5.384   2.212 -0.1473  0.1409 -0.2607
  847W        W 4898   9.282   3.760  11.925 -0.2131 -0.2032  0.0115
  848W        W 4899   8.057   7.473   1.993  0.1278  0.1343  0.1169
  849W        W 4900   9.988   2.149  11.827  0.2854  0.1660  0.0370
  850W        W 4901   5.937   2.913  11.637 -0.1444  0.2320  0.0746
  851W        W 4902   3.479   9.890  13.813  0.0526  0.3366 -0.1417
  852W        W 4903   4.816  10.097  13.681  0.1562 -0.1128 -0.3014
  853W        W 4904   2.600   6.301   2.710  0.0284  0.0644 -0.0881
  854W        W 4905   6.867   1.758  11.317  0.2890 -0.0472  0.3627
  855W        W 4906   0.258   1.913  11.677  0.1564 -0.1592 -0.4560
  856W        W 4907   6.665   1.560   9.821 -0.0102  0.2758 -0.0222
  857W        W 4908   2.223   7.341   1.753 -0.2895  0.1144 -0.0642
  858W        W 4909   5.762   0.923  10.552 -0.0634 -0.2793 -0.1347
  859W        W 4910   3.735   0.799  11.007 -0.1335  0.0662 -0.0145
  860W        W 4911   2.161   2.645   2.591  0.0816  0.1965  0.1269
  861W        W 4912   0.811   8.046   4.992 -0.0988  0.0866  0.0076
  862W        W 4913   7.347   3.604  13.581  0.2582 -0.0541 -0.0635
  863W        W 4914   7.308   0.075   4.630  0.0095  0.0097  0.2750
  864W        W 4915   6.719   2.741  11.241  0.1971 -0.4224 -0.1369
  865W        W 4916   0.561   8.087  12.157  0.3523  0.2660 -0.0954
  866W        W 4917   7.935   8.845   2.933  0.4424  0.0744  0.1934
  867W        W 4918   1.013   9.194   3.912  0.0599 -0.1095  0.0772
  868W        W 4919   6.296   7.603   0.968  0.1012  0.0043 -0.0262
  869W        W 4920   1.854   5.917   1.592  0.0770  0.0489  0.0662
  870W        W 4921   2.345   3.218  11.014  0.1572 -0.1022  0.0342
  871W        W 4922   9.180   6.520   1.742 -0.0378 -0.0827 -0.1867
  872W        W 4923   3.888   3.593   0.954 -0.1751 -0.3745  0.2015
  873W        W 4924   9.868   2.432   1.804  0.0806 -0.2515 -0.0379
  874W        W 4925   4.016   8.752   0.216 -0.0413  0.0946 -0.4148
  875W        W 4926   9.488   7.498  12.199  0.0502  0.2409 -0.0925
  876W        W 4927   4.403   2.955  13.479  0.1081 -0.1460 -0.0936
  877W        W 4928   6.016   5.564  11.522 -0.2438  0.0286 -0.0353
  878W        W 4929   3.045  10.082   0.169  0.1488  0.1653  0.0001
  879W        W 4930   1.010   7.896   4.129  0.1233  0.1329 -0.1622
  880W        W 4931   5.744   5.672  12.849 -0.0992 -0.0274 -0.2104
  881W        W 4932   4.683   0.897   0.517 -0.1912 -0.0998  0.0069
  882W        W 4933   3.669   0.924   3.444 -0.0201 -0.0952 -0.3709
  883W        W 4934   6.356   1.317   2.426 -0.5436  0.1391 -0.1624
  884W        W 4935   1.574   7.806  10.222 -0.0763  0.3006 -0.4014
  885W        W 4936   0.170   6.813   1.361  0.2420  0.1021 -0.1395
  886W        W 4937   5.818   0.335   1.274 -0.0962 -0.0307 -0.0517
  887W        W 4938   0.603   6.062   8.970 -0.0813  0.1533  0.0476
  888W        W 4939   3.025   9.598  13.822 -0.3052 -0.3032 -0.2330
  889W        W 4940   7.117   4.089   2.293  0.1237 -0.0302  0.0739
  890W        W 4941   2.661   2.073  13.713 -0.2445 -0.2663 -0.0990
  891W        W 4942   4.563   5.688   1.178 -0.1454 -0.0266  0.0083
  892W        W 4943   3.007   2.487  11.152  0.1377  0.2975 -0.2692
  893W        W 4944   2.616   2.398   1.144 -0.1285  0.3059  0.0974
  894W        W 4945   6.861   9.316  12.169  0.2169 -0.1717  0.2092
  895W        W 4946   4.840   8.476  12.783  0.0346  0.1215  0.4099
  896W        W 4947   5.132   4.077  12.031  0.1957  0.1191 -0.0027
  897W        W 4948   9.919   2.771   8.535  0.3714 -0.1420 -0.1061
  898W        W 4949   0.810   1.201   0.973  0.1063  0.0415  0.1328
  899W        W 4950   4.351   9.476   4.353  0.1667  0.0665  0.2788
  900W        W 4951   4.962   7.131  10.799  0.0973  0.1016 -0.2377
  901W        W 4952   0.454   2.654  12.905 -0.2434  0.1930  0.3512
  902W        W 4953   7.238   1.760   2.394 -0.2828  0.1221  0.0543
  903W        W 4954   0.532   9.022  11.214  0.3249 -0.0316  0.1701
  904W        W 4955   8.649   2.777   2.831  0.0860  0.0423  0.2535
  905W        W 4956   8.310   1.531   2.741  0.0736  0.0755  0.2729
  906W        W 4957   4.191   7.475  13.669 -0.0397 -0.1399 -0.0107
  907W        W 4958   8.025   6.799  10.669 -0.0881  0.0358 -0.0363
  908W        W 4959   2.715   0.135   9.869 -0.1541 -0.0072  0.1293
  909W        W 4960   4.714   6.546  10.923 -0.0410  0.1464 -0.0716
  910W        W 4961   0.566   8.535  11.373 -0.3272  0.4203  0.0815
  911W        W 4962   5.546   7.752   9.122  0.2649  0.1155  0.3457
  912W        W 4963   1.141   9.616   2.931  0.0396  0.0956  0.1522
  913W        W 4964   9.073   9.358   2.791  0.1271  0.1796 -0.1573
  914W        W 4965   2.714   4.844   0.915  0.2237  0.3162 -0.2329
  915W        W 4966   4.744   5.956  11.827 -0.2056  0.0515  0.0139
  916W        W 4967   4.860   9.072  10.763  0.4977 -0.2898  0.0016
  917W        W 4968   9.714   0.487   0.751 -0.2160 -0.1556 -0.1838
  918W        W 4969   2.930   5.505   0.957  0.3046 -0.1752  0.1105
  919W        W 4970   0.927   7.217  12.964  0.0978 -0.0724 -0.1756
  920W        W 4971   1.474   4.411   1.735 -0.1193  0.2653  0.1829
  921W        W 4972   4.658   3.551  10.780 -0.2801 -0.2410  0.0211
  922W        W 4973   9.920   1.393   3.145 -0.0886 -0.1453 -0.0421
  923W        W 4974   8.739   2.722   9.906  0.1451 -0.1581 -0.0950
  924W        W 4975   4.451   5.915  10.328  0.2167  0.0181  0.1048
  925W        W 4976   6.732   8.721  12.213  0.0670 -0.0317  0.1311
  926W        W 4977   0.065   7.779   3.800  0.2267 -0.1537 -0.0063
  927W        W 4978   7.706   0.067  11.608 -0.0696 -0.0890 -0.2770
  928W        W 4979   1.672   3.426  12.656  0.2355  0.1268  0.0813
  929W        W 4980   7.424   3.803  10.977  0.0326  0.1473  0.0695
  930W        W 4981   3.667   4.148   3.164 -0.0625  0.0818 -0.0464
  931W        W 4982   2.184   7.955  10.874 -0.0396  0.0112 -0.2652
  932W        W 4983   2.034  10.052   4.995 -0.0146 -0.1119  0.1380
  933W        W 4984   3.691   9.417   9.304  0.2095  0.3818 -0.1476
  934W        W 4985   5.671   0.300   0.349  0.2954 -0.1427  0.2167
  935W        W 4986   1.870   7.845   9.392 -0.2191  0.2464  0.3876
  936W        W 4987   5.667   1.216   2.185  0.0696 -0.1707  0.2844
  937W        W 4988   0.920   6.676   0.625 -0.2851  0.1198  0.1610
  938W        W 4989   8.246   1.138   3.774  0.0605  0.0246  0.1615
  939W        W 4990   2.294   3.560  13.248  0.0105  0.0745 -0.3828
  940W        W 4991   9.791   0.087   4.223 -0.0049 -0.0714 -0.0986
  941W        W 4992   4.441   1.353  12.290 -0.2207  0.0168 -0.0097
  942W        W 4993   4.215   3.801  10.846 -0.2610  0.1982  0.0837
  943W        W 4994   5.823   3.159  12.746  0.0111  0.1363 -0.3806
  944W        W 4995   5.501   7.056  12.827 -0.2042  0.1708 -0.1617
  945W        W 4996   5.823   9.733  13.532  0.3503  0.0368  0.0149
  946W        W 4997   7.431   5.591  13.937  0.1267 -0.2350  0.0159
  947W        W 4998   3.783   7.615   3.654  0.0768 -0.0313  0.3251
  948W        W 4999   0.313   0.480   9.702 -0.0152  0.1474  0.2667
  949W        W 5000   1.123   4.119   1.028  0.3559 -0.1995  0.0396
  950W        W 5001   9.348   2.313   0.903 -0.0236 -0.1293  0.2318
  951W        W 5002   2.747   7.084  11.991 -0.0180  0.2559  0.0157
  952W        W 5003   3.563   9.458   4.574  0.0402  0.0189 -0.2191
  953W        W 5004   5.899   4.713   0.927  0.1408  0.0814  0.0503
  954W        W 5005   2.076   2.581   8.921 -0.3818 -0.2321 -0.0848
  955W        W 5006   0.409   2.572   2.667 -0.1401  0.0340 -0.0519
  956W        W 5007   3.559   7.777   4.108  0.1169  0.2964 -0.3802
  957W        W 5008   2.783   1.632  11.797  0.0142  0.2038  0.4114
  958W        W 5009   9.108   7.038   1.914 -0.0526 -0.1313 -0.1011
  959W        W 5010   1.238   6.874  13.098 -0.1664  0.3293  0.0402
  960W        W 5011   3.676   6.380  12.998  0.1901 -0.0568 -0.0476
  961W        W 5012   1.598   7.574   9.804 -0.1869  0.0286  0.0606
  962W        W 5013   2.719   9.747   3.860  0.0990  0.1597  0.0129
  963W        W 5014   2.161   5.645  11.400 -0.1975  0.0704 -0.2976
  964W        W 5015   6.228   7.990   2.102  0.0561  0.1273  0.1572
  965W        W 5016   6.199   4.343  12.150  0.2574  0.0784  0.1737
  966W        W 5017   1.261   1.207  13.227 -0.1399  0.1242  0.0635
  967W        W 5018   9.042   0.801  11.898  0.1770 -0.1412 -0.1159
  968W        W 5019   4.606   1.959   2.256  0.2324 -0.2317 -0.0684
  969W        W 5020   8.359   1.299   3.213 -0.2863  0.4425  0.1628
  970W        W 5021   1.763   4.448  11.861  0.0966  0.0335 -0.2019
  971W        W 5022   7.087  10.152  11.487 -0.0644  0.1106 -0.0244
  972W        W 5023   0.078   6.291  10.356  0.0047  0.1927 -0.0026
  973W        W 5024   5.423   5.555  11.096  0.2759 -0.0198 -0.0111
  974W        W 5025   3.643   0.489   4.393  0.0235 -0.0698  0.0565
  975W        W 5026   9.589   5.787   3.515 -0.0666 -0.0108  0.0655
  976W        W 5027   9.517   2.926   4.762  0.0414  0.2634  0.1222
  977W        W 5028   0.005   2.322   8.679  0.0814 -0.1150  0.3836
  978W        W 5029   5.027   6.067   0.196 -0.2080 -0.2164 -0.2031
  979W        W 5030  10.141   8.774  13.870 -0.1082  0.0293 -0.0919
  980W        W 5031   1.083   5.362   1.953 -0.0428  0.1085  0.1594
  981W        W 5032   9.765   3.931  12.161 -0.1473 -0.0520  0.2455
  982W        W 5033   9.835   8.554  11.892  0.0807 -0.1705 -0.0363
  983W        W 5034   7.502   2.205  13.878  0.2744  0.0617  0.0686
  984W        W 5035   9.086   2.932   4.455  0.2436  0.0377  0.1254
  985W        W 5036   8.995   4.877   1.080  0.2206 -0.3382 -0.0870
  986W        W 5037   0.942   5.605  12.027 -0.1556  0.1106  0.4147
  987W        W 5038   4.474   6.609   0.490 -0.0487 -0.3189  0.1460
  988W        W 5039   5.388   8.616   2.373  0.2238  0.2371  0.2027
  989W        W 5040  10.121   0.078  10.100 -0.1023 -0.0593  0.0075
  990W        W 5041   8.776   7.963  11.238  0.0483  0.0895  0.1245
  991W        W 5042   9.408   9.851   2.708 -0.0489 -0.1264 -0.2744
  992W        W 5043   8.434   8.902   1.004 -0.1531  0.2341 -0.3751
  993W        W 5044   2.313   6.849  10.512  0.2975  0.0717 -0.2847
  994W        W 5045   3.190   7.725   1.531  0.2178 -0.0912 -0.2336
  995W        W 5046   5.991   0.511  13.923 -0.0756 -0.0954 -0.0003
  996W        W 5047   9.144   7.900   2.305  0.0935 -0.4210 -0.0652
  997W        W 5048   2.048   8.625   1.986 -0.1257 -0.0249  0.1444
  998W        W 5049   5.172   8.115  11.703  0.2617 -0.1450 -0.0074
  999W        W 5050   6.141   7.415   3.748  0.0697 -0.2324  0.1401
 1000W        W 5051   5.058   7.335   2.480 -0.2392  0.2076 -0.2036
 1001W        W 5052   0.473   8.367   0.843  0.1656 -0.1360 -0.1485
 1002W        W 5053   5.604   1.508  11.602  0.1227 -0.0223  0.2178
 1003W        W 5054   8.946   9.582  11.227  0.0284  0.3271  0.1355
 1004W        W 5055   4.521   2.238  11.742 -0.2350  0.0513  0.1990
 1005W        W 5056   4.357   5.686  12.631  0.1766  0.1788  0.0808
 1006W        W 5057   0.304   1.413  11.080 -0.2569  0.1175  0.2232
 1007W        W 5058   6.529   2.670   5.362  0.0969 -0.2032 -0.0924
 1008W        W 5059   9.663   8.525  10.656  0.1723  0.3473  0.1431
 1009W        W 5060   4.969   3.578   9.819  0.1212  0.1071 -0.0167
 1010W        W 5061   3.737   1.602  11.299 -0.1132  0.0157 -0.0831
 1011W        W 5062   1.637   0.832  13.373  0.1336  0.2832  0.1060
 1012W        W 5063   3.048   0.697  10.386  0.1386  0.1126 -0.0332
 1013W        W 5064   4.264   1.237   4.204  0.0214  0.1316  0.2238
 1014W        W 5065   3.987   2.876  13.780 -0.0286 -0.0284  0.3009
 1015W        W 5066   6.814   6.246   0.534  0.3425 -0.0887  0.1627
 1016W        W 5067   5.316   6.759  11.682  0.0502 -0.1981 -0.0758
 1017W        W 5068   6.679   0.325   4.545 -0.1229 -0.0454 -0.0596
 1018W        W 5069   5.842  10.072   9.637 -0.1004  0.1578 -0.0910
 1019W        W 5070   2.489   6.207   3.790 -0.1053 -0.3454  0.1982
 1020W        W 5071   2.528   9.716   2.944 -0.1782 -0.0167  0.3097
 1021W        W 5072   9.327   2.213   2.354 -0.1764  0.3572  0.3062
 1022W        W 5073   8.030   8.555  11.525  0.0246  0.2754 -0.0364
 1023W        W 5074   8.452   9.549   9.942  0.1104  0.1467 -0.0926
 1024W        W 5075   3.076   3.120   5.837  0.4116  0.1913 -0.1354
 1025W        W 5076   9.900   0.598  13.149  0.2743 -0.2029  0.3582
 1026W        W 5077   0.054   2.365   0.861 -0.4239 -0.0473  0.0537
 1027W        W 5078   9.239   1.279   3.138 -0.2636 -0.2435 -0.4008
 1028W        W 5079   2.638   7.931  13.069  0.1297  0.0431  0.1420
 1029W        W 5080   1.030   5.119   3.107  0.0147  0.2176  0.1201
 1030W        W 5081   9.420   0.832   5.326 -0.3308 -0.2448  0.3013
 1031W        W 5082   4.158   5.903   0.122 -0.1858  0.1825 -0.3800
 1032W        W 5083   3.039   1.748   8.513 -0.2437 -0.0106 -0.0091
 1033W        W 5084   2.661   0.653   3.733 -0.1280 -0.1490 -0.0382
 1034W        W 5085   8.648   1.376  10.806 -0.2568 -0.0472 -0.0002
 1035W        W 5086   8.136   0.411   1.829 -0.1538 -0.0080  0.1720
 1036W        W 5087   7.664   3.131  10.477 -0.1620  0.2230 -0.0552
 1037W        W 5088   7.582   4.234   2.146 -0.1406  0.1409  0.1349
 1038W        W 5089   6.137   4.465  10.969 -0.0306  0.1537  0.3254
 1039W        W 5090   9.548   1.961  11.687  0.0744 -0.1674 -0.0142
 1040W        W 5091   7.377   7.606  10.953 -0.0739  0.0093  0.1328
 1041W        W 5092   1.485  10.045  12.048  0.0118  0.3611  0.4777
 1042W        W 5093   3.576   9.889  10.154  0.1088 -0.0380 -0.1795
 1043W        W 5094   3.354   3.019  11.875  0.3205 -0.1138  0.0787
 1044W        W 5095  10.132   5.363   4.003 -0.1108 -0.0266 -0.3280
 1045W        W 5096   8.400   2.102   0.360 -0.1288  0.3381 -0.0115
 1046W        W 5097   3.187   0.779   8.930  0.0645  0.1767  0.2214
 1047W        W 5098   0.531   2.480  13.387 -0.0365  0.0294 -0.7377
 1048W        W 5099   2.617   7.702   3.049 -0.1650  0.0112 -0.0190
 1049W        W 5100   7.442   3.550   3.305 -0.4478 -0.2596  0.1208
 1050W        W 5101   2.478   2.890   1.020 -0.0665 -0.0568  0.1985
 1051W        W 5102   4.704   2.900   1.646 -0.0207 -0.3022 -0.0004
 1052W        W 5103   2.089   1.037   0.962 -0.0614  0.2639  0.3005
 1053W        W 5104   4.214   2.147   3.009  0.1329 -0.1093  0.2098
 1054W        W 5105   1.753   7.428   0.903  0.1996  0.1668 -0.0249
 1055W        W 5106   7.011   4.580  11.751  0.1400 -0.1341  0.0255
 1056W        W 5107   2.699   3.717   1.518  0.2486 -0.0826  0.2218
 1057W        W 5108   2.612   5.798  11.517 -0.2207 -0.0378 -0.0592
 1058W        W 5109   3.911   8.510  11.771 -0.1385  0.0769  0.1708
 1059W        W 5110   7.426   0.906  13.782  0.1612 -0.2476  0.1683
 1060W        W 5111   4.929   1.835   2.613  0.0530 -0.0347  0.0316
 1061W        W 5112   3.578   0.600   9.614  0.1920  0.0271  0.2831
 1062W        W 5113   2.354   6.313  13.166 -0.3425 -0.3693  0.2188
 1063W        W 5114   5.825   1.566  12.049 -0.1675 -0.1802  0.1484
 1064W        W 5115   0.267   3.061   8.964  0.0731  0.3443  0.0389
 1065W        W 5116   0.458   1.952  13.560  0.0247 -0.1147  0.0049
 1066W        W 5117   4.955   4.468   3.411 -0.2643  0.3904  0.1852
 1067W        W 5118   3.365   6.999  11.050 -0.2093  0.5161  0.1399
 1068W        W 5119   0.036   9.540   0.788 -0.1333  0.0607 -0.2218
 1069W        W 5120   2.636   5.182   9.783 -0.1931 -0.0001  0.1391
 1070W        W 5121   1.639   0.968   0.544 -0.1147  0.0374 -0.1394
 1071W        W 5122   4.140   1.037  11.497 -0.4141  0.0215 -0.0957
 1072W        W 5123   5.454   3.392  12.435 -0.2242  0.0054 -0.0508
 1073W        W 5124   1.938   5.346   0.915 -0.0288  0.1200 -0.2127
 1074W        W 5125   4.867   1.477  12.442 -0.2815  0.3225 -0.1624
 1075W        W 5126   0.046   2.195  10.326  0.0192 -0.0148 -0.0258
 1076W        W 5127   8.476   7.256   0.612 -0.0237 -0.3220  0.3010
 1077W        W 5128   6.496   4.047   4.266 -0.1563 -0.3789 -0.0630
 1078W        W 5129   2.150   1.878   3.090  0.1922 -0.0938  0.1977
 1079W        W 5130   1.895   9.293   1.873  0.1679 -0.2576  0.2754
 1080W        W 5131  10.056   4.968   2.260  0.2128 -0.2540 -0.0519
 1081W        W 5132   2.123   9.941   3.683  0.0416  0.3099 -0.2107
 1082W        W 5133   8.942   1.557  13.698  0.2828 -0.0999 -0.2021
 1083W        W 5134   8.058   3.905   9.514  0.2435  0.0158 -0.0024
 1084W        W 5135   7.390   2.762   4.304 -0.1440  0.0396 -0.2859
 1085W        W 5136   3.973   9.953   1.746 -0.1860  0.0809  0.0510
 1086W        W 5137   6.059   4.713  13.001 -0.0532 -0.2434  0.0201
 1087W        W 5138   6.435   0.761   9.917 -0.2360 -0.2819  0.0885
 1088W        W 5139   7.993   0.245   1.319  0.2013 -0.0199  0.2294
 1089W        W 5140  10.143   9.957   3.911  0.0537 -0.3835  0.0411
 1090W        W 5141   0.939   9.873  11.168 -0.1209 -0.4417 -0.1195
 1091W        W 5142   2.343   1.012   9.264 -0.2677 -0.0426  0.2174
 1092W        W 5143   5.828   8.618   9.760 -0.1394  0.1605 -0.0781
 1093W        W 5144   1.686   8.851   0.968  0.1930  0.1139  0.1133
 1094W        W 5145   2.644   6.565   5.108  0.3674  0.0067 -0.1292
 1095W        W 5146   8.761   9.311  11.652 -0.1006  0.0659 -0.0880
 1096W        W 5147   1.629  10.056  13.232 -0.0581 -0.1991  0.0186
 1097W        W 5148   0.564  10.024  11.498  0.0142 -0.0905 -0.2880
 1098W        W 5149   8.768   8.031   2.012 -0.2408  0.0881  0.2732
 1099W        W 5150   2.706   9.583   9.340 -0.1295  0.0956  0.2433
 1100W        W 5151   5.936   3.426  11.890 -0.2995  0.1283 -0.2531
 1101W        W 5152   3.537   2.363   1.008  0.4156  0.4619 -0.1499
 1102W        W 5153   6.353   4.632   2.320 -0.2150 -0.0555 -0.0874
 1103W        W 5154   9.690   4.976   2.761 -0.1415  0.2440  0.1491
 1104W        W 5155   0.559   6.817  11.762  0.0423 -0.1815 -0.0675
 1105W        W 5156   7.588   2.418  11.195  0.1701 -0.0623 -0.0075
 1106W        W 5157   9.433   9.696  13.685 -0.0180  0.0084 -0.0765
 1107W        W 5158   1.024   6.250   2.086 -0.3667 -0.0631  0.3000
 1108W        W 5159   9.126   4.687  11.763 -0.0793 -0.0890 -0.1709
 1109W        W 5160   0.892   2.344   4.808 -0.0097 -0.1685  0.2718
 1110W        W 5161   7.061   7.106   1.238 -0.0873  0.3122  0.0498
 1111W        W 5162  10.045   3.231   9.604  0.0133 -0.0446 -0.1251
 1112W        W 5163   7.064   2.856   1.830  0.0386  0.1614  0.0632
 1113W        W 5164   4.397   5.138  10.432 -0.0730 -0.0213 -0.0958
 1114W        W 5165   8.683   5.704   3.339 -0.0312  0.1407  0.0861
 1115W        W 5166   6.051  10.009  12.223 -0.1133  0.1212 -0.1655
 1116W        W 5167   0.492   4.719  11.017 -0.0843 -0.0682  0.3221
 1117W        W 5168   8.897   0.497   2.648  0.0151  0.1812  0.1282
 1118W        W 5169   3.117   2.567  11.653  0.0563  0.2035 -0.2519
 1119W        W 5170   4.639   6.453   3.943 -0.0219 -0.0802  0.1305
 1120W        W 5171   4.248  10.139   8.407  0.0342 -0.0961 -0.1103
 1121W        W 5172   4.979   0.804   3.570 -0.2497 -0.2830 -0.0744
 1122W        W 5173   3.092   2.018  12.984 -0.1450  0.0318 -0.0183
 1123W        W 5174   0.316   4.108  12.540 -0.0490  0.1562  0.0010
 1124W        W 5175   5.711   0.561   1.799 -0.1615  0.0144  0.0361
 1125W        W 5176   7.232   3.172  11.528 -0.1479 -0.2767 -0.1076
 1126W        W 5177   2.099   4.571  12.552  0.0006 -0.0203  0.0292
 1127W        W 5178   8.204   8.057  11.650  0.2849  0.1846  0.1304
 1128W        W 5179   5.973   1.966  11.733 -0.0540  0.1867 -0.1174
 1129W        W 5180   7.713   2.475   1.709  0.0277  0.2582 -0.1407
 1130W        W 5181   4.967   3.372  11.597 -0.4108  0.2395 -0.0570
 1131W        W 5182   2.252   6.167  11.470  0.1694 -0.1114  0.1155
 1132W        W 5183   2.608   1.449   9.719  0.0477  0.1827  0.0893
 1133W        W 5184   7.060   3.189   4.250 -0.0373  0.0414  0.1340
 1134W        W 5185   9.142   7.248   0.037  0.1619  0.1165  0.1929
 1135W        W 5186   2.314   6.893   9.965  0.1322  0.1468  0.1597
 1136W        W 5187   6.301   5.593   1.880  0.3873  0.0623  0.0738
 1137W        W 5188   9.953   5.179  10.766  0.3484 -0.1725 -0.2126
 1138W        W 5189   2.555   9.952   2.503 -0.0689  0.2029  0.0613
 1139W        W 5190   1.434   0.360  13.244 -0.1232  0.3280 -0.2166
 1140W        W 5191   8.640   8.107   0.271 -0.0513 -0.0310  0.2112
 1141W        W 5192   7.562   9.071   3.282  0.0644 -0.1073  0.0814
 1142W        W 5193   5.504   8.399  13.643 -0.1131 -0.1682 -0.1983
 1143W        W 5194   9.810   4.752   1.238 -0.2697  0.0391  0.1538
 1144W        W 5195   8.590   9.187   0.013 -0.1630 -0.1703  0.4135
 1145W        W 5196   6.796   7.504   3.511 -0.0282 -0.0158  0.0301
 1146W        W 5197   8.229   5.701  13.003 -0.0995 -0.1771 -0.2855
 1147W        W 5198   4.421   9.443  13.915  0.0059 -0.2064 -0.2105
 1148W        W 5199   3.512   9.539   0.180  0.1935  0.1148 -0.0286
 1149W        W 5200   8.540   7.869  12.915  0.1561  0.2275 -0.0852
 1150W        W 5201   2.803   6.253   4.447  0.0004  0.1555  0.1101
 1151W        W 5202   1.004   9.789   2.228  0.5574  0.0596 -0.1582
 1152W        W 5203   2.014   3.042   1.219 -0.1069  0.2137 -0.0023
 1153W        W 5204   9.513   6.354  13.367  0.3554  0.0094 -0.1755
 1154W        W 5205   8.122   9.355  13.908 -0.1363 -0.2647 -0.5154
 1155W        W 5206   1.301   2.160  13.599 -0.3767 -0.0087 -0.0247
 1156W        W 5207   1.527   8.516   1.900  0.0007 -0.0455  0.0447
 1157W        W 5208  10.115   3.012  11.970 -0.1135 -0.0946 -0.2238
 1158W        W 5209   5.766   4.696   3.147  0.2482  0.3492 -0.2259
 1159W        W 5210   3.914   1.508  13.954  0.2518  0.0223  0.2076
 1160W        W 5211   4.246   5.455  10.097  0.0728  0.2225  0.2826
 1161W        W 5212   5.794   4.338  11.354 -0.0831  0.2286 -0.0530
 1162W        W 5213   7.233   1.914   0.433 -0.3610 -0.0087 -0.3313
 1163W        W 5214   4.560   9.987   9.282 -0.1855 -0.2998 -0.5335
 1164W        W 5215   3.551   5.612   4.180 -0.0452 -0.1440  0.0546
 1165W        W 5216   6.116   1.438  11.657 -0.1049  0.2592 -0.0472
 1166W        W 5217   5.877   9.149   0.840  0.3751  0.0974 -0.0565
 1167W        W 5218   7.427   7.766  12.210  0.2907 -0.4562  0.0250
 1168W        W 5219   0.444   9.403  10.346 -0.1843 -0.1094 -0.0971
 1169W        W 5220   2.359   2.236   2.184 -0.0353 -0.0796 -0.5540
 1170W        W 5221   9.116   1.457  10.138  0.1394 -0.1390  0.0722
 1171W        W 5222   1.625   1.109   2.714  0.0832 -0.2607 -0.1625
 1172W        W 5223   8.428   7.706   2.409 -0.1921 -0.0049  0.0000
 1173W        W 5224   4.481   3.729   9.477 -0.0817 -0.1796  0.1129
 1174W        W 5225   0.186   8.824  10.403 -0.1627 -0.1888  0.1148
 1175W        W 5226   1.460   8.462   3.452 -0.3270  0.0497  0.1025
 1176W        W 5227   8.969   1.496   4.570 -0.1510  0.2018  0.0252
 1177W        W 5228   4.247   1.519   4.781  0.1312 -0.1578 -0.0043
 1178W        W 5229   4.869   0.254   1.572  0.1330 -0.1855 -0.0945
 1179W        W 5230   7.099   8.890   0.821 -0.1937  0.0932  0.1208
 1180W        W 5231   4.883   4.380   2.822 -0.3865  0.0588  0.0572
 1181W        W 5232   1.485   2.224  13.121 -0.0552  0.1985 -0.0021
 1182W        W 5233   7.133   2.924   2.353  0.2311 -0.0447  0.1411
 1183W        W 5234   9.299   0.567  12.253 -0.1343  0.1954  0.0255
 1184W        W 5235   9.506   0.958   1.508 -0.0633  0.0458  0.3277
 1185W        W 5236   2.776   5.841  12.967  0.0748  0.0147 -0.1830
 1186W        W 5237   9.191   8.343   3.238 -0.1639  0.0677  0.0453
 1187W        W 5238   8.724   2.500  11.556  0.0485  0.0388  0.0490
 1188W        W 5239   7.506   1.056   1.556  0.1158 -0.3829 -0.3541
 1189W        W 5240   7.823   0.029  12.162  0.3082 -0.0663  0.0159
 1190W        W 5241   4.378   6.445   0.944  0.0047  0.1407  0.0289
 1191W        W 5242   8.570   2.914  13.310  0.1572 -0.0363 -0.0898
 1192W        W 5243   7.785   0.833   0.208 -0.1786 -0.0275  0.0631
 1193W        W 5244   4.921   6.114  10.672  0.1596  0.2097  0.1019
 1194W        W 5245   4.076   1.836   1.575  0.0206 -0.2434  0.0599
 1195W        W 5246   4.017   1.596  12.329 -0.3493 -0.0424  0.0887
 1196W        W 5247   2.889   7.253  11.058 -0.2138 -0.1242  0.0145
 1197W        W 5248   3.011   6.082   1.838  0.0526 -0.0139 -0.1288
 1198W        W 5249   5.710   0.800   0.474  0.1570 -0.1131  0.0264
 1199W        W 5250   8.859   7.086   2.420 -0.3966  0.2309 -0.0743
 1200W        W 5251   0.474   7.224  12.117 -0.0024  0.0394 -0.1230
 1201W        W 5252   2.538   0.372   4.152  0.3724 -0.0203  0.0242
 1202W        W 5253   7.859   9.718  11.854  0.0568  0.1713 -0.0678
 1203W        W 5254   1.996   7.901  11.389  0.1050 -0.0245  0.1074
 1204W        W 5255   9.722   0.437  10.325  0.1819 -0.1169  0.1368
 1205W        W 5256   7.553   3.301  10.999 -0.1406  0.0373 -0.0514
 1206W        W 5257   6.430   1.296   5.757 -0.0213  0.1431 -0.1274
 1207W        W 5258   5.149   3.995   0.215 -0.0793 -0.3078  0.0487
 1208W        W 5259   6.633   5.723  12.335 -0.2103  0.1411  0.1260
 1209W        W 5260   8.143   7.312  10.204 -0.1039 -0.0681 -0.0916
 1210W        W 5261   8.641   2.793  10.454  0.0042  0.0689  0.1340
 1211W        W 5262   3.280   9.411   2.104 -0.0295 -0.0870 -0.3994
 1212W        W 5263   3.418   6.449   1.581  0.0332 -0.1081  0.2379
 1213W        W 5264   1.113   5.587   1.408  0.0653 -0.0531  0.0151
 1214W        W 5265   0.116   5.304   3.339 -0.2469  0.3201  0.3664
 1215W        W 5266   8.612   0.718   1.944 -0.0612 -0.2790 -0.0731
 1216W        W 5267   9.536   2.884  11.414 -0.0957  0.1493  0.0951
 1217W        W 5268   0.132   4.124   9.785  0.3026  0.0602  0.1264
 1218W        W 5269   9.751   7.091  11.817  0.3388  0.0447 -0.1151
 1219W        W 5270   2.153   5.519  11.878  0.1438  0.0419  0.0555
 1220W        W 5271   0.259   2.082   5.426 -0.2945 -0.1218 -0.1393
 1221W        W 5272   0.320   2.418   1.610  0.3692  0.2447 -0.0830
 1222W        W 5273   4.882   5.534   4.724 -0.1511 -0.3166  0.2045
 1223W        W 5274   2.955   1.671  10.232 -0.1102  0.1304 -0.1242
 1224W        W 5275   7.476   8.986  13.282 -0.0360  0.1415 -0.1917
 1225W        W 5276   0.639   1.310  11.926  0.0027  0.2825 -0.1658
 1226W        W 5277   6.000   7.847   9.208 -0.0207 -0.0144 -0.2950
 1227W        W 5278   9.736   3.885   4.818  0.0401  0.2879 -0.2947
 1228W        W 5279   5.138   5.924   2.000  0.0590  0.0845 -0.1294
 1229W        W 5280   9.823   5.262  12.178 -0.1465  0.1180 -0.4076
 1230W        W 5281   0.132   2.297  12.875  0.1459  0.2019  0.1032
 1231W        W 5282   9.669   1.210   3.505  0.0109 -0.1761  0.1062
 1232W        W 5283   9.667   4.652   2.138  0.0760  0.0086 -0.0847
 1233W        W 5284   3.501   8.398  13.867  0.1203 -0.2580  0.0209
 1234W        W 5285   0.491   3.548   0.528 -0.3851 -0.2462  0.0334
 1235W        W 5286   3.986   2.136   1.087  0.0253  0.1402  0.0525
 1236W        W 5287   6.585   7.241  10.723  0.0174  0.0176  0.3799
 1237W        W 5288   7.074   5.433   2.804 -0.1859 -0.2149  0.2935
 1238W        W 5289   8.923   4.895   2.809 -0.1784 -0.1786  0.0888
 1239W        W 5290  10.113   9.309   5.043  0.1485  0.0936 -0.0879
 1240W        W 5291   2.557   3.968   0.585  0.1924 -0.2683 -0.1855
 1241W        W 5292   4.745   3.616  13.903  0.1146  0.3425  0.2770
 1242W        W 5293   8.159   8.867   1.599  0.0744  0.4317 -0.1117
 1243W        W 5294   5.178   6.711  13.593 -0.0983  0.1213 -0.4894
 1244W        W 5295   1.198   3.906  13.437 -0.0523  0.0695  0.4301
 1245W        W 5296   4.374   1.373   1.618  0.0100 -0.2422  0.0752
 1246W        W 5297   7.214   1.845   5.429 -0.4113  0.2038 -0.2920
 1247W        W 5298   9.067   3.632  11.397  0.0893  0.2717  0.0508
 1248W        W 5299   1.848   7.671   1.844 -0.1766 -0.1302  0.1940
 1249W        W 5300   4.055   5.827   2.357 -0.1723  0.1111 -0.0728
 1250W        W 5301   8.697   9.752  12.138  0.0031  0.1643  0.1206
 1251W        W 5302   2.731   1.606   4.708 -0.1804 -0.1115  0.3988
 1252W        W 5303   7.671   1.968  13.481  0.1042  0.1277  0.1535
 1253W        W 5304   2.909   7.699  13.410 -0.0070  0.2462 -0.1762
 1254W        W 5305   2.206   1.178  10.457  0.1746 -0.0538 -0.1065
 1255W        W 5306   1.956   2.802  10.184  0.0332 -0.0306  0.2148
 1256W        W 5307   3.300   3.449   8.526 -0.2825  0.1049 -0.2381
 1257W        W 5308   0.275   8.679  12.969 -0.2398 -0.0226 -0.1034
 1258W        W 5309   7.042   1.919   4.976  0.1095 -0.4017  0.3128
 1259W        W 5310   1.140   9.607   1.073  0.0602  0.2115  0.1823
 1260W        W 5311   8.885   8.416   2.907  0.1217 -0.2277 -0.1152
 1261W        W 5312   7.500   0.655   3.662 -0.1668  0.0183  0.1881
 1262W        W 5313   0.994   2.628   8.556  0.2436  0.3449  0.0090
 1263W        W 5314   6.491   4.075  11.819 -0.2000 -0.0603 -0.2841
 1264W        W 5315   1.672   3.711   9.723 -0.1593  0.1984 -0.1148
 1265W        W 5316   1.152   1.419   4.797 -0.2823  0.1104 -0.0865
 1266W        W 5317   9.518   6.859  13.293  0.0690  0.1963 -0.0119
 1267W        W 5318   0.029   9.931   2.573 -0.1858 -0.1387  0.1165
 1268W        W 5319   3.159   4.550  10.193 -0.0183 -0.3130 -0.0839
 1269W        W 5320   3.032   5.143  12.285 -0.1062 -0.0122  0.0683
 1270W        W 5321   4.733   4.773  10.473 -0.1343 -0.2325 -0.0652
 1271W        W 5322   4.038   9.455   1.668 -0.0162  0.3328  0.1242
 1272W        W 5323   5.847   7.621   0.115  0.2030 -0.0992 -0.2923
 1273W        W 5324  10.090   6.858   3.610 -0.1154  0.0549  0.0236
 1274W        W 5325   9.753   7.174   0.229  0.3172 -0.0098 -0.1491
 1275W        W 5326   4.873   1.959  12.764  0.1648  0.0902  0.1343
 1276W        W 5327   3.912   7.466   0.275  0.1540  0.0708  0.2291
 1277W        W 5328   2.685   3.955   2.199  0.3313  0.1578  0.1259
 1278W        W 5329   0.962   8.355  12.383  0.0231 -0.4517 -0.1199
 1279W        W 5330   6.580   2.104  12.318  0.1087 -0.0238  0.0719
 1280W        W 5331   7.115   6.179   1.097 -0.4090 -0.1768 -0.1001
 1281W        W 5332  10.034   6.261  11.671  0.1198 -0.1336  0.2073
 1282W        W 5333   3.897   5.001   3.328 -0.1498  0.1344 -0.0062
 1283W        W 5334   9.284   3.502  10.311 -0.2337  0.1036 -0.0850
 1284W        W 5335   1.029   5.194  11.765 -0.2531 -0.4311  0.0284
 1285W        W 5336   1.360   7.390   1.788  0.5417 -0.1547 -0.2724
 1286W        W 5337   9.098   2.297  10.800  0.0930  0.0732 -0.0419
 1287W        W 5338   4.207   6.959  12.040  0.1739 -0.3509 -0.1828
 1288W        W 5339   1.414   4.495  11.006  0.3321 -0.0782 -0.0737
 1289W        W 5340   9.173   1.631   0.732 -0.0983 -0.2159 -0.0615
 1290W        W 5341   6.819   1.811  10.199  0.5041 -0.1499 -0.0171
 1291W        W 5342   8.616   2.958  11.938 -0.0274 -0.0515 -0.2914
 1292W        W 5343   0.900   4.283  12.336  0.2566 -0.2452 -0.2779
 1293W        W 5344   4.380   3.556   2.891 -0.0600 -0.0066 -0.1429
 1294W        W 5345   0.052   0.066  13.923  0.1773  0.0572  0.1448
 1295W        W 5346   1.937   2.085   0.181  0.0498 -0.2771 -0.1124
 1296W        W 5347   0.989   0.751   9.543  0.0803  0.1710 -0.2343
 1297W        W 5348   2.285   7.796   3.833  0.1834 -0.1940  0.1430
 1298W        W 5349   3.123   2.300   5.170 -0.0014 -0.0595  0.2144
 1299W        W 5350   8.032   3.082  11.083  0.1135  0.2442  0.2278
 1300W        W 5351   6.856   0.342  13.049 -0.1630  0.3073 -0.0662
 1301W        W 5352   2.172   3.562   9.229 -0.2463  0.2911  0.3597
 1302W        W 5353   5.179   3.288  12.888  0.0980 -0.1252  0.0614
 1303W        W 5354   4.522   3.175   9.025  0.2017 -0.2561 -0.0692
 1304W        W 5355   5.688   4.965   3.911  0.2821 -0.2137 -0.1841
 1305W        W 5356   9.419   9.118   4.000 -0.1806  0.1480  0.1019
 1306W        W 5357   3.126   1.254   8.737  0.1768  0.0193  0.2298
 1307W        W 5358   9.006   2.457   2.631  0.1913  0.0225 -0.1092
 1308W        W 5359   4.465   9.816   3.393 -0.1290  0.3227 -0.0529
 1309W        W 5360   3.356   2.243  10.651 -0.0623 -0.2456  0.2938
 1310W        W 5361   1.472   5.317   0.773  0.1196 -0.0441  0.0212
 1311W        W 5362   8.194   1.720  13.957 -0.0154  0.0620 -0.0516
 1312W        W 5363   6.556   4.622  13.036  0.1563  0.2770 -0.1225
 1313W        W 5364   6.944   6.252   3.868  0.1370 -0.1175  0.2119
 1314W        W 5365   9.566   9.368   1.502 -0.0069 -0.1323 -0.0902
 1315W        W 5366   5.728   8.192   9.971  0.0448 -0.0737 -0.0643
 1316W        W 5367   8.331   6.152  11.030  0.2508  0.0468 -0.0313
 1317W        W 5368   6.791   2.262   1.694  0.1807 -0.1759  0.1801
 1318W        W 5369   4.534   1.426   8.850 -0.0096  0.0019 -0.2334
 1319W        W 5370   0.579   2.192   0.666  0.2178 -0.0367  0.1632
 1320W        W 5371   5.574   7.351   2.457 -0.2253 -0.1061  0.1187
 1321W        W 5372   4.716   3.699  11.244  0.3501  0.2643  0.0638
 1322W        W 5373   0.471   0.204   8.732 -0.1982 -0.0970  0.3091
 1323W        W 5374   7.809   5.285  11.358  0.2661  0.0688  0.0638
 1324W        W 5375   0.258  10.121  10.543  0.0363 -0.2545  0.1726
 1325W        W 5376   5.280   0.894  12.513  0.0084  0.0857  0.1416
 1326W        W 5377   3.866   0.519  13.956  0.1109 -0.1722 -0.3579
 1327W        W 5378   3.877   0.439   3.756  0.1666  0.1294  0.1887
 1328W        W 5379   9.676   3.895  10.230  0.1869  0.0368  0.0566
 1329W        W 5380   5.820   2.296   1.638 -0.1546 -0.1928  0.1587
 1330W        W 5381   9.450   7.890   3.258  0.4214  0.2746 -0.0703
 1331W        W 5382   4.584   6.926  13.406  0.0802  0.1103 -0.1345
 1332W        W 5383   8.187   4.073  10.988  0.1029  0.1048  0.0765
 1333W        W 5384   9.095   7.428   3.179 -0.2837  0.0480 -0.1959
 1334W        W 5385   1.516   1.783   4.616 -0.2328  0.0574  0.2877
 1335W        W 5386   7.573   2.059   4.952 -0.0409 -0.0963  0.0921
 1336W        W 5387   7.867   1.581   3.046 -0.0236  0.5255  0.1899
 1337W        W 5388   1.023   6.718  11.767 -0.0892  0.2199 -0.0540
 1338W        W 5389   2.629   9.941  10.218  0.0441 -0.1853  0.1045
 1339W        W 5390   7.150   6.215  10.573  0.1128  0.0055  0.0302
 1340W        W 5391   2.057   9.970   2.620 -0.5124  0.2697  0.1135
 1341W        W 5392   7.679   7.912   1.867 -0.0434 -0.1719  0.0236
 1342W        W 5393   8.827   1.573   2.986 -0.4135  0.0039 -0.1980
 1343W        W 5394   5.498   4.048  13.255  0.0930  0.2130 -0.0875
 1344W        W 5395   3.757   0.047  12.386  0.0291 -0.0529  0.1330
 1345W        W 5396   5.347   8.123   2.161  0.1767 -0.1259 -0.1915
 1346W        W 5397   8.135   5.634   3.136 -0.0595 -0.1445 -0.0501
 1347W        W 5398   3.337   7.921   9.198  0.1869 -0.2567 -0.0964
 1348W        W 5399   4.410   3.705   2.411  0.1766  0.0010  0.2375
 1349W        W 5400   2.829   5.665   9.450  0.0799 -0.1538  0.0320
 1350W        W 5401   4.791   0.701  13.144 -0.0685  0.3586 -0.2589
 1351W        W 5402   3.580   2.549  13.777 -0.1652 -0.3946 -0.1649
 1352W        W 5403   4.029   6.430   0.231  0.0769 -0.3443  0.1598
 1353W        W 5404   0.926   8.218  10.037  0.2456  0.2403 -0.1608
 1354W        W 5405   9.677  10.000  12.644  0.1612 -0.0442  0.1791
 1355W        W 5406   5.650   4.113   2.278  0.1781  0.0326 -0.2649
 1356W        W 5407   1.200   9.040   0.648 -0.0805 -0.3739  0.2314
 1357W        W 5408   8.995   4.056   9.687  0.1959 -0.0172 -0.3043
 1358W        W 5409   8.457   4.167  11.871  0.1522 -0.0808 -0.3253
 1359W        W 5410   4.592   2.532   5.735  0.0646  0.1137 -0.3328
 1360W        W 5411   3.603   5.879   2.924  0.0808  0.4329  0.4828
 1361W        W 5412   6.765   8.359  11.018  0.0317  0.0554 -0.0373
 1362W        W 5413   0.094   9.919  13.399 -0.4752  0.1204 -0.1463
 1363W        W 5414   9.963   9.674   9.352 -0.3466  0.0101  0.2962
 1364W        W 5415   5.359   7.765  12.513  0.2096  0.1934 -0.1267
 1365W        W 5416   3.514   9.395  12.041  0.2998 -0.2456 -0.2742
 1366W        W 5417   9.154   2.843  11.732  0.0141  0.0150  0.0392
 1367W        W 5418   5.365   5.372   3.715  0.4242  0.1653  0.0097
 1368W        W 5419   7.507   6.951   3.141 -0.0040  0.1415  0.1106
 1369W        W 5420   4.625   8.133  11.365  0.0512  0.2285  0.1132
 1370W        W 5421   6.499   4.694   4.511 -0.2207 -0.0372  0.1830
 1371W        W 5422   1.420   9.639  11.799 -0.0016  0.0071 -0.7038
 1372W        W 5423   7.072   4.681  10.809  0.3002  0.0276  0.3239
 1373W        W 5424   1.582   9.109   4.870 -0.0412  0.0239  0.2104
 1374W        W 5425   2.593   3.376  11.567 -0.1394 -0.0282  0.2161
 1375W        W 5426   1.989   4.589   9.266  0.2611  0.2276  0.0838
 1376W        W 5427   4.948   2.758   4.326  0.1025 -0.0498 -0.0786
 1377W        W 5428   1.674   1.692   2.512 -0.2390 -0.0847 -0.0390
 1378W        W 5429   6.034   8.277   1.707  0.1287  0.2437 -0.4088
 1379W        W 5430   0.967   3.391   4.628  0.0289  0.2707  0.0662
 1380W        W 5431   0.423   3.136   1.979 -0.2581  0.0894 -0.0544
 1381W        W 5432   2.950   1.611   9.019 -0.0369  0.0986 -0.2233
 1382W        W 5433   2.633   0.030   1.423  0.1428  0.1663 -0.3755
 1383W        W 5434   1.173   8.788   2.085 -0.1533 -0.2591  0.0045
 1384W        W 5435   0.873   3.485   8.545  0.2614  0.1095 -0.2174
 1385W        W 5436   9.961   1.288  10.519  0.1160 -0.1682  0.0416
 1386W        W 5437   4.075   5.393   9.154 -0.0902  0.3330  0.2969
 1387W        W 5438   8.888   2.769  10.928  0.1146 -0.1284  0.2044
 1388W        W 5439   0.178   1.223   4.557  0.0438  0.2407  0.2461
 1389W        W 5440   4.500   7.799   3.987  0.0909  0.0049 -0.2793
 1390W        W 5441   5.909   8.481   1.247  0.0590 -0.1433 -0.0042
 1391W        W 5442   6.728   3.641  10.753  0.3751  0.2097 -0.0760
 1392W        W 5443   5.675   3.366  13.784  0.1272  0.2920  0.0795
 1393W        W 5444   4.405   9.811   9.730 -0.0559 -0.0876 -0.2884
 1394W        W 5445   3.835   3.342   2.096 -0.0238 -0.1955  0.1403
 1395W        W 5446   6.282   1.105  13.180 -0.2715 -0.1029 -0.3159
 1396W        W 5447   1.768  10.125  12.457 -0.1433 -0.1745 -0.1957
 1397W        W 5448   1.270   1.403   2.817  0.0010 -0.0568  0.1089
 1398W        W 5449   6.253   1.716  13.043 -0.1739  0.2671  0.1268
 1399W        W 5450   8.297   0.151  10.219 -0.1110  0.2218 -0.0081
 1400W        W 5451   2.486   5.985   9.196  0.0746 -0.3265 -0.0831
 1401W        W 5452   8.948   4.262   4.313  0.0601  0.1157  0.4940
 1402W        W 5453   9.861   0.246   4.688  0.0904  0.0386 -0.0136
 1403W        W 5454   5.418   3.151   4.242 -0.0989 -0.1333  0.2109
 1404W        W 5455   5.214   9.142  12.827  0.1431 -0.1674 -0.1441
 1405W        W 5456   1.880   6.116  10.659  0.0886 -0.1072  0.1358
 1406W        W 5457   6.428   0.002   3.488 -0.0173  0.1268  0.0277
 1407W        W 5458   0.212   8.240   1.627 -0.1809  0.1965  0.0153
 1408W        W 5459   3.269   8.775   4.639  0.1782  0.2937  0.0044
 1409W        W 5460   3.609   5.348   9.399 -0.2640 -0.2450  0.1288
 1410W        W 5461   6.007   4.876  12.447  0.3790  0.3296 -0.0962
 1411W        W 5462   8.964   1.590  11.701  0.1020  0.4569 -0.0710
 1412W        W 5463   2.137   7.286   0.521  0.0932  0.1719  0.2891
 1413W        W 5464   2.320   7.649   9.171  0.1111 -0.0688 -0.1051
 1414W        W 5465   5.277   8.044   3.179 -0.0841 -0.1604 -0.0060
 1415W        W 5466   9.391   7.596   0.361  0.0586 -0.1872 -0.1997
 1416W        W 5467   1.393   1.329   2.284  0.0119 -0.0283 -0.1839
 1417W        W 5468   4.970   1.360   1.693  0.1732  0.2084 -0.1659
 1418W        W 5469   6.897   6.721  10.472  0.0631  0.1363 -0.3343
 1419W        W 5470   7.278   2.291   4.565  0.1803 -0.2051  0.0778
 1420W        W 5471   9.165   0.327  13.174 -0.0019 -0.2720 -0.0615
 1421W        W 5472   6.554   6.905  13.870  0.0067 -0.1315  0.0470
 1422W        W 5473   2.026   2.356   9.840 -0.0802  0.2361  0.3462
 1423W        W 5474   6.504   9.740  10.075 -0.0315  0.1392  0.2898
 1424W        W 5475   7.587   1.209  11.716  0.2763  0.1678 -0.1341
 1425W        W 5476   1.508   9.965  10.840 -0.1046 -0.1733  0.0062
 1426W        W 5477   6.379   0.988   9.407 -0.0495 -0.1782 -0.0633
 1427W        W 5478   1.721   8.191   5.311  0.1794  0.0136 -0.2122
 1428W        W 5479   2.139   4.960  11.782  0.0343  0.2310  0.0294
 1429W        W 5480   2.946   6.240   3.966  0.0421 -0.1367 -0.2447
 1430W        W 5481   5.095   9.505   1.036  0.1001  0.4106 -0.0291
 1431W        W 5482   3.241   8.432  13.417  0.0031 -0.0563  0.6147
 1432W        W 5483   4.933   3.478   3.206  0.1222 -0.2496  0.1637
 1433W        W 5484   5.381   4.519   2.957  0.0207 -0.0315 -0.1666
 1434W        W 5485   9.108   0.629   4.346  0.1747  0.2735 -0.3568
 1435W        W 5486   2.893   7.124   2.431 -0.1203  0.1618 -0.3726
 1436W        W 5487   0.101   3.480   4.067 -0.0039  0.1450 -0.0313
 1437W        W 5488   1.744   9.890   8.691 -0.0963  0.0161 -0.0645
 1438W        W 5489   2.980   9.527   0.464  0.2877 -0.1285 -0.1931
 1439W        W 5490   2.703   4.699  10.013 -0.1899  0.1662  0.1451
 1440W        W 5491   5.936   6.322   1.542  0.1948  0.1851 -0.1586
 1441W        W 5492   1.462   4.113   9.879 -0.4340  0.3103  0.3712
 1442W        W 5493   5.630   6.280   3.938 -0.1705  0.1846 -0.1002
 1443W        W 5494   5.366   1.565   3.213 -0.0030 -0.1896  0.0532
 1444W        W 5495   3.057   0.043   1.148  0.1071 -0.0079 -0.4156
 1445W        W 5496   5.846   4.852  13.954  0.0913 -0.0662  0.0402
 1446W        W 5497   9.618   0.054   1.832 -0.0269  0.3833 -0.0829
 1447W        W 5498   2.556   6.292  12.289 -0.0427 -0.1182 -0.4084
 1448W        W 5499   7.322   0.453   2.275  0.1380 -0.1245  0.1343
 1449W        W 5500   2.089   2.935  11.309 -0.2973 -0.2673 -0.0426
 1450W        W 5501   9.708   7.564   1.142 -0.1396  0.2962  0.0104
 1451W        W 5502   7.179   5.562   2.184 -0.2568  0.0156 -0.1265
 1452W        W 5503   2.356   5.193   3.308 -0.4479 -0.2005 -0.3788
 1453W        W 5504   8.355   7.657  11.079 -0.0177  0.4649  0.5211
 1454W        W 5505   2.789   0.304   3.324 -0.0060 -0.2418  0.1509
 1455W        W 5506   4.390   9.983   4.672  0.1502  0.0005  0.2322
 1456W        W 5507   3.969   8.798   1.968 -0.2277 -0.2294 -0.0572
 1457W        W 5508   4.929   4.937   1.936  0.0758  0.6032 -0.2712
 1458W        W 5509   5.149   0.267   3.566 -0.2919 -0.2695 -0.0866
 1459W        W 5510   0.699   0.556   9.990  0.0753 -0.1730  0.3143
 1460W        W 5511   8.257   4.910   2.334  0.3208  0.0402  0.1681
 1461W        W 5512   7.775   2.658   3.151  0.1117 -0.4049  0.1379
 1462W        W 5513   1.840   0.582  11.521 -0.2054  0.0841 -0.3070
 1463W        W 5514   4.997   4.426  12.384 -0.0378  0.2018  0.1550
 1464W        W 5515   8.742   0.913  11.071  0.1336 -0.0122 -0.1183
 1465W        W 5516  10.050   3.662   1.373 -0.6210  0.0971  0.1802
 1466W        W 5517   6.576   5.933  13.260 -0.0422 -0.2174 -0.2908
 1467W        W 5518   6.439   5.796   3.389  0.5168 -0.5617 -0.2324
 1468W        W 5519   4.597   7.048  12.806  0.3575  0.0707  0.1054
 1469W        W 5520   0.853   4.733   3.363  0.0654 -0.1461  0.0134
 1470W        W 5521   7.912   5.209   3.042  0.1936  0.2727 -0.0703
 1471W        W 5522   2.405   6.378  10.620  0.3935 -0.1203  0.2973
 1472W        W 5523   0.385   1.591   5.241 -0.0223 -0.2357 -0.1206
 1473W        W 5524   6.785   2.783   3.961  0.1284  0.0823 -0.0730
 1474W        W 5525   4.950   8.576   3.108 -0.2174  0.1819 -0.1161
 1475W        W 5526   7.306   3.042  12.711 -0.0292 -0.3872  0.2403
 1476W        W 5527   2.487   1.651  10.448 -0.4209  0.0542 -0.0303
 1477W        W 5528   1.503   2.087   9.260 -0.0520 -0.2531  0.0291
 1478W        W 5529  10.134   0.229   0.843  0.3585  0.1189 -0.2784
 1479W        W 5530   0.643   7.005   2.851 -0.0837 -0.0332 -0.0513
 1480W        W 5531   7.578   0.260   3.382  0.1713 -0.2618  0.1167
 1481W        W 5532   0.580   7.972   4.416  0.2935  0.2710  0.2668
 1482W        W 5533   5.892   5.346  11.100  0.2151 -0.0044  0.1530
 1483W        W 5534   5.763   9.259  10.422  0.0482 -0.0895  0.0543
 1484W        W 5535   9.153   1.631   2.126 -0.2257 -0.1573 -0.0145
 1485W        W 5536   1.537   4.984   1.814 -0.0347 -0.2941  0.3330
 1486W        W 5537   3.276   3.930   5.377 -0.0723  0.0018  0.1586
 1487W        W 5538   0.780   3.766   0.909 -0.2790 -0.1710  0.0389
 1488W        W 5539   5.204   8.841   4.891 -0.6161 -0.0024 -0.1679
 1489W        W 5540   6.415   7.707   4.033 -0.0417 -0.1071 -0.1877
 1490W        W 5541   0.565   3.041  12.480 -0.2358 -0.1259  0.2908
 1491W        W 5542   8.732   1.399   1.804 -0.3274  0.1218 -0.1428
 1492W        W 5543   9.982   0.852   1.717  0.0811  0.1041 -0.1937
 1493W        W 5544   7.584   7.897  13.742 -0.1431 -0.0438 -0.3009
 1494W        W 5545   8.066   0.693   0.604 -0.1299 -0.1218  0.0721
 1495W        W 5546   2.310   0.695   1.313  0.1872 -0.2741  0.0411
 1496W        W 5547   6.113   6.435   4.013 -0.0839 -0.1735 -0.0190
 1497W        W 5548   5.724   4.400  10.691  0.4645  0.1629  0.0240
 1498W        W 5549   5.828   6.639   0.084 -0.1011 -0.1100  0.1902
 1499W        W 5550   8.131   9.215   2.048  0.1469  0.0451 -0.0129
 1500W        W 5551   2.414   5.460  13.658 -0.0194 -0.1551 -0.0633
 1501W        W 5552   9.974   2.835   9.129 -0.0607 -0.1433 -0.1762
 1502W        W 5553   7.429   1.015   4.973  0.1763 -0.0614 -0.0526
 1503W        W 5554   7.393   9.070   4.809  0.0856  0.2721 -0.1286
 1504W        W 5555   2.046   2.481   1.162 -0.4425  0.0914  0.2247
 1505W        W 5556   3.550   1.098   2.598  0.0949  0.0336  0.1760
 1506W        W 5557   8.223   5.350   2.039 -0.1259  0.0459 -0.2537
 1507W        W 5558   4.584   2.103   0.917  0.1407 -0.0006 -0.1392
 1508W        W 5559   6.009   5.584   1.434 -0.3184  0.4186 -0.0854
 1509W        W 5560   6.331   6.791  10.411 -0.4091  0.0190  0.2745
 1510W        W 5561   3.482   8.885  13.326 -0.0758  0.2241 -0.0854
 1511W        W 5562   3.054   2.454  13.588 -0.1960 -0.0743  0.1448
 1512W        W 5563   7.777   9.841   0.014 -0.3226  0.0552 -0.0762
 1513W        W 5564   1.569   5.596   1.192 -0.0623 -0.0259  0.0159
 1514W        W 5565   0.419   1.622   3.644  0.1612  0.0237 -0.0720
 1515W        W 5566   1.454   8.612   1.372  0.2332  0.0693 -0.0486
 1516W        W 5567   6.994   0.084   0.969  0.0349  0.0342 -0.2432
 1517W        W 5568   1.673   6.472   9.402 -0.2393  0.2212 -0.1234
 1518W        W 5569   1.798   5.868   3.131 -0.0624 -0.2508  0.2774
 1519W        W 5570   1.553   9.326   0.849  0.1284  0.2003 -0.0164
 1520W        W 5571   5.910   6.852   1.556  0.2814 -0.3113  0.1989
 1521W        W 5572   3.285   3.415   3.274 -0.0636  0.0896  0.2529
 1522W        W 5573   1.783   5.907  11.617 -0.0593 -0.0494 -0.2069
 1523W        W 5574   9.083   9.931  11.562 -0.1921  0.1181  0.2550
 1524W        W 5575   8.789   3.154   0.490  0.0621 -0.1973  0.1215
 1525W        W 5576   5.767   3.015  12.224  0.2204 -0.0425  0.0777
 1526W        W 5577   7.146   3.215   1.005 -0.0964  0.3083 -0.2970
 1527W        W 5578   0.308   5.729   3.013 -0.1469  0.0278 -0.1579
 1528W        W 5579   9.923   9.128  13.508 -0.1229  0.0819  0.2983
 1529W        W 5580   0.710   9.566   4.302 -0.0700  0.2172 -0.2258
 1530W        W 5581   7.186   2.710  11.236 -0.0815  0.3563  0.2822
 1531W        W 5582   9.043   5.376  13.964  0.1167 -0.0937  0.1277
 1532W        W 5583   1.499   8.028  11.050  0.1753  0.0698  0.1210
 1533W        W 5584   1.369   5.098   4.194  0.1747 -0.0968 -0.0047
 1534W        W 5585   8.324   4.968   0.010  0.0322  0.4144 -0.0357
 1535W        W 5586   1.244   3.632  12.526  0.3693  0.1002  0.0154
 1536W        W 5587   5.538   8.440   3.098  0.0918 -0.0853  0.0667
 1537W        W 5588   3.414   6.939   2.173 -0.0170 -0.2187 -0.1084
 1538W        W 5589   7.089   5.995   4.275 -0.0152 -0.1061 -0.3686
 1539W        W 5590   1.482  10.083   4.902  0.2876 -0.1214  0.1871
 1540W        W 5591   3.778   1.712  11.861 -0.1663 -0.1606  0.2426
 1541W        W 5592   6.777   9.967  13.959  0.0754  0.3161  0.2808
 1542W        W 5593   0.893   8.047   0.830 -0.0531 -0.0986  0.0968
 1543W        W 5594   2.478   2.135   2.672  0.2617 -0.1365 -0.0205
 1544W        W 5595   6.034   3.926  11.848  0.2730  0.0416  0.0078
 1545W        W 5596   1.307   8.105  10.548  0.2409  0.3684  0.0115
 1546W        W 5597   8.019   9.747  10.218 -0.0680  0.0720 -0.0790
 1547W        W 5598   8.735   7.040   0.223 -0.1384  0.0678 -0.2570
 1548W        W 5599   1.912   5.674  13.493  0.0823 -0.0361  0.0953
 1549W        W 5600   7.622   5.750  11.622 -0.0929  0.1042  0.1936
 1550W        W 5601   7.317   1.216  10.869  0.0938 -0.1352 -0.0934
 1551W        W 5602   2.433   2.491  10.715 -0.2779 -0.0479  0.0277
 1552W        W 5603   1.477   0.641   9.469  0.1490 -0.3233  0.2138
 1553W        W 5604   4.132   6.735  11.449 -0.2073 -0.0295  0.0200
 1554W        W 5605   3.458   7.830   3.246 -0.2111  0.1493 -0.3129
 1555W        W 5606   3.049   3.768   9.826 -0.0156  0.0764  0.1360
 1556W        W 5607   1.941   5.929  12.977  0.0024 -0.0716  0.3030
 1557W        W 5608   8.043   6.145   3.071  0.1750  0.3551 -0.1480
 1558W        W 5609   2.824   2.788   3.269  0.0654 -0.1497 -0.3142
 1559W        W 5610   3.411   4.253   4.480  0.3649 -0.0026 -0.0111
 1560W        W 5611   4.065   0.681   0.467  0.0977 -0.0499 -0.1871
 1561W        W 5612   1.573   8.308   9.432 -0.0989  0.1319  0.2524
 1562W        W 5613   1.741   5.009   9.119 -0.2186 -0.0510  0.0969
 1563W        W 5614   6.321   4.432   0.901  0.0010 -0.0014 -0.1836
 1564W        W 5615   7.828   1.527  10.947 -0.0124  0.0022  0.2717
 1565W        W 5616   1.484   2.505   1.087  0.0004  0.0949 -0.5096
 1566W        W 5617   2.667   2.251  11.597 -0.4004  0.0113  0.1174
 1567W        W 5618   2.338   8.338  13.240 -0.1337  0.1584 -0.2591
 1568W        W 5619   9.511   2.680  10.103 -0.2273  0.0798  0.0707
 1569W        W 5620   9.513   6.994  12.690  0.1713 -0.0945  0.1824
 1570W        W 5621   2.883   9.216  13.499  0.0665 -0.0730  0.3229
 1571W        W 5622   3.595   7.950   1.490  0.0689 -0.1065 -0.0806
 1572W        W 5623   2.644   1.956  12.157  0.3740  0.1102  0.0656
 1573W        W 5624   1.033   3.423   1.306  0.0268  0.0870 -0.0628
 1574W        W 5625   0.031   8.431  13.404  0.2576 -0.3122  0.0829
 1575W        W 5626  10.082   0.976   3.370 -0.2058 -0.1773 -0.0007
 1576W        W 5627   2.261   8.102   1.222 -0.0977 -0.2093 -0.1999
 1577W        W 5628   4.726   3.176   2.052  0.3515 -0.2581 -0.2561
 1578W        W 5629   9.416   3.697   4.438  0.0236  0.1363  0.0189
 1579W        W 5630   0.761   2.909   0.774  0.2135  0.0020  0.0051
 1580W        W 5631   4.620   5.986   5.369 -0.1742  0.2557 -0.2370
 1581W        W 5632   4.095   6.730   9.123 -0.2222 -0.1185 -0.1735
 1582W        W 5633  10.075   5.766   3.349 -0.0517  0.0119  0.2241
 1583W        W 5634   3.695   3.112   4.071 -0.1390 -0.2126 -0.1091
 1584W        W 5635   3.933   6.417  12.518  0.3696 -0.1860  0.0821
 1585W        W 5636   5.117   6.333   1.077 -0.0159  0.0898 -0.1911
 1586W        W 5637   5.735   2.351   4.531  0.1725 -0.2045  0.0473
 1587W        W 5638   6.332   0.198  12.748 -0.0177  0.0315 -0.0620
 1588W        W 5639   6.433   9.646  12.957  0.0942  0.2134  0.0658
 1589W        W 5640   8.298   9.256   1.414  0.0995 -0.3740 -0.0132
 1590W        W 5641   7.573   4.347  12.440 -0.0592 -0.2363 -0.0136
 1591W        W 5642   4.608   8.756  12.350  0.0833  0.1513  0.1386
 1592W        W 5643   8.241   7.633   9.893 -0.1739  0.0294  0.2901
 1593W        W 5644   1.993   1.011   4.328  0.0257 -0.3296 -0.2127
 1594W        W 5645   0.115   2.144   4.975 -0.2755  0.0574  0.0490
 1595W        W 5646   5.747   9.845  11.335 -0.2728  0.2352 -0.0947
 1596W        W 5647   7.716   4.870  11.051 -0.2082 -0.3548 -0.0180
 1597W        W 5648   6.035   6.166   2.945 -0.0009  0.1006 -0.1772
 1598W        W 5649   6.904   9.994   4.803  0.1016  0.0512  0.0059
 1599W        W 5650   7.404   3.657  11.625 -0.0874  0.0636  0.2066
 1600W        W 5651   5.552   8.282   1.736  0.3171  0.1921 -0.1784
 1601W        W 5652   9.828   9.958   9.772  0.2234 -0.0276  0.1356
 1602W        W 5653   1.020   3.868   9.928 -0.0509 -0.0510  0.1457
 1603W        W 5654   2.926   7.331   1.366 -0.0464 -0.0011 -0.1346
 1604W        W 5655   5.207   8.709   0.617 -0.3377  0.2591  0.1114
 1605W        W 5656   6.984   8.036  12.302  0.0570  0.0589  0.1361
 1606W        W 5657   6.710   9.545   3.740  0.0127 -0.3201  0.0796
 1607W        W 5658   1.789   2.920  12.687  0.0555  0.3419 -0.3428
 1608W        W 5659   7.569   2.219   4.099 -0.1728  0.0905  0.4448
 1609W        W 5660   3.342   4.451  11.108  0.1933 -0.5236 -0.2350
 1610W        W 5661   6.960   8.117   1.693 -0.2164  0.0732  0.0092
 1611W        W 5662   1.860   2.645   3.852 -0.1184  0.2103 -0.2937
 1612W        W 5663   5.857   6.574   2.007  0.0855 -0.1084 -0.0479
 1613W        W 5664   6.447   3.630  13.412 -0.0369 -0.1574 -0.0777
 1614W        W 5665   8.199   3.817  13.411 -0.3090  0.1115 -0.0965
 1615W        W 5666   2.309   6.026  11.936  0.3415  0.0382  0.0916
 1616W        W 5667   9.505   0.029  10.732  0.3209  0.2338  0.0213
 1617W        W 5668   1.906   6.738   8.960  0.0653 -0.3243  0.2260
 1618W        W 5669   2.958   3.479   0.551 -0.1442 -0.1031  0.3947
 1619W        W 5670   1.509   8.174  11.558 -0.0464  0.0801 -0.2492
 1620W        W 5671   3.252   3.152   1.467 -0.0139 -0.4942  0.0366
 1621W        W 5672   7.365   2.933   9.624  0.3185 -0.1288  0.2908
 1622W        W 5673   1.339   0.012  13.587  0.0720 -0.1487 -0.1072
 1623W        W 5674   9.642   4.344   0.943  0.1377  0.0339 -0.1226
 1624W        W 5675   8.293   1.905  10.194 -0.3379  0.1712 -0.0142
 1625W        W 5676   6.665   1.995  13.583  0.1497 -0.1357  0.1287
 1626W        W 5677   8.769   1.142  11.634 -0.0197  0.0303  0.0972
 1627W        W 5678   6.371   7.547   0.194  0.0487 -0.1199 -0.3620
 1628W        W 5679   8.640   1.327  12.528 -0.0110 -0.1031  0.1751
 1629W        W 5680   6.983   8.944  13.102  0.1340  0.2433  0.2285
 1630W        W 5681   5.512   5.658   9.463  0.0576  0.0660  0.1775
 1631W        W 5682   5.961   9.297   2.784  0.1047 -0.0749 -0.0455
 1632W        W 5683   0.113   4.328  13.132  0.0909 -0.2090  0.3497
 1633W        W 5684   7.874   7.709  10.980 -0.1435 -0.1070 -0.0800
 1634W        W 5685   9.473   1.129   9.205  0.0526  0.2285  0.0975
 1635W        W 5686   5.154   0.759  13.530 -0.4680  0.1864 -0.0408
 1636W        W 5687   6.704   1.611  12.277  0.0903 -0.2471  0.1263
 1637W        W 5688   6.600   2.684   2.674 -0.0964  0.2088 -0.2255
 1638W        W 5689   4.724   7.788  10.064  0.0063  0.1517 -0.1165
 1639W        W 5690   6.738   9.808  10.534 -0.1817  0.1630 -0.0366
 1640W        W 5691   9.384   7.630   2.819  0.2759 -0.1005  0.2756
 1641W        W 5692   4.198   6.841   1.250  0.2503 -0.1694  0.1244
 1642W        W 5693   0.007   8.091  12.174 -0.0725  0.4201  0.3366
 1643W        W 5694   8.301   1.559   1.615  0.1993 -0.0342  0.0411
 1644W        W 5695   8.207   4.645   3.627 -0.3255  0.2253 -0.0994
 1645W        W 5696   4.972   5.942  13.190  0.3795  0.2520  0.1351
 1646W        W 5697   8.406   9.250  10.986 -0.1391 -0.0216 -0.2001
 1647W        W 5698   3.618   1.852   1.237  0.1347 -0.1593  0.0839
 1648W        W 5699   9.372   4.888  10.581  0.0991 -0.2295 -0.0582
 1649W        W 5700   2.445   2.279   9.583 -0.0975 -0.0692 -0.0249
 1650W        W 5701   7.945   4.525   2.493  0.0674 -0.1451 -0.2166
 1651W        W 5702   5.769   0.922   1.454  0.0735  0.1840 -0.0933
 1652W        W 5703   5.990   1.498   9.133  0.0621 -0.0172 -0.1547
 1653W        W 5704   8.054   8.588   1.081  0.4265  0.1224  0.0225
 1654W        W 5705   3.544   8.822   2.307 -0.2050 -0.2253  0.3831
 1655W        W 5706   1.598   2.634   9.134 -0.0577  0.2210 -0.0663
 1656W        W 5707   3.972   3.486   2.594  0.0637  0.2232 -0.0766
 1657W        W 5708   1.844  10.158   0.422  0.1945 -0.0742  0.2760
 1658W        W 5709   4.675   4.936   0.318 -0.0087 -0.0340  0.2548
 1659W        W 5710   2.848   6.130   9.690  0.1054  0.2434 -0.0302
 1660W        W 5711   0.717   4.718   9.668 -0.0327  0.1363  0.1304
 1661W        W 5712   2.315   4.010   3.031 -0.0879 -0.2275  0.0455
 1662W        W 5713  10.141   6.316   1.355  0.1130  0.1013 -0.0110
 1663W        W 5714   0.300   4.899  11.434 -0.2412  0.0144  0.2429
 1664W        W 5715   4.370   4.132   1.924 -0.3213 -0.1112 -0.1683
 1665W        W 5716   3.917   9.771   1.300 -0.1403 -0.2501 -0.3016
 1666W        W 5717   9.394   4.012  11.461 -0.0160  0.0171 -0.4014
 1667W        W 5718   9.980   8.481  12.377 -0.0754  0.2733  0.2626
 1668W        W 5719   8.708   0.479  10.143 -0.0677  0.1385  0.0305
 1669W        W 5720   6.653   3.555   1.893 -0.2096 -0.0310 -0.3584
 1670W        W 5721   5.282   2.958   1.644 -0.2697  0.1158  0.1897
 1671W        W 5722   8.762   3.520   2.675 -0.0672 -0.2895 -0.0661
 1672W        W 5723   2.877   2.134   4.366 -0.1769 -0.0929 -0.2268
 1673W        W 5724   3.351   1.218  13.235  0.1814 -0.4133  0.2257
 1674W        W 5725   0.015   5.126   1.170 -0.1890  0.1605 -0.6069
 1675W        W 5726   7.442   3.428   0.654  0.0867  0.0520 -0.1099
 1676W        W 5727   5.446   1.107   5.822 -0.1125 -0.0604 -0.0842
 1677W        W 5728   7.125   0.615   4.662  0.0941 -0.1068 -0.0568
 1678W        W 5729   5.334   3.061   9.126  0.3520 -0.1096  0.1370
 1679W        W 5730   8.587   8.480   2.269  0.0101 -0.1322 -0.0379
 1680W        W 5731   6.931   3.321  12.891 -0.1602  0.1729 -0.2956
 1681W        W 5732   1.375   6.687  13.709 -0.1241  0.3058  0.1765
 1682W        W 5733   7.848   7.912   0.224 -0.3585  0.0970  0.2473
 1683W        W 5734   9.872   9.922   3.094 -0.2107  0.3256 -0.2538
 1684W        W 5735   1.662   2.440   2.498  0.4281 -0.4927  0.2267
 1685W        W 5736  10.137   3.365   2.860  0.0842 -0.1517  0.2002
 1686W        W 5737   4.613   8.257  10.746  0.1180 -0.1621 -0.1710
 1687W        W 5738   5.914   6.124  10.835 -0.2751  0.2365 -0.4262
 1688W        W 5739   3.859   7.534  13.304 -0.2110  0.0739  0.1798
 1689W        W 5740   8.658   7.210  11.640  0.1144  0.0022  0.5539
 1690W        W 5741   3.133   2.376   2.053 -0.4819 -0.1153 -0.2674
 1691W        W 5742   5.347   5.116   1.637  0.1006  0.0011 -0.0343
 1692W        W 5743   9.442   4.237   1.765 -0.0756 -0.1143  0.1198
 1693W        W 5744   9.430   1.532  11.883  0.1954  0.1657  0.2924
 1694W        W 5745   0.559   4.693   2.838  0.2590 -0.2861 -0.4970
 1695W        W 5746   3.182   0.315  10.769 -0.0613 -0.6426  0.0743
 1696W        W 5747   4.942   9.016   3.715  0.1230  0.0019  0.0756
 1697W        W 5748   3.738   4.846   9.309 -0.2440 -0.1602  0.0685
 1698W        W 5749   1.593   7.952   0.045  0.1207 -0.0147 -0.2144
 1699W        W 5750   7.093   8.630   0.363 -0.2060  0.0709  0.0908
 1700W        W 5751   7.690   9.284  11.590 -0.0688 -0.0969 -0.1942
 1701W        W 5752   6.811   7.716  12.678 -0.3481 -0.0194  0.0995
 1702W        W 5753   3.785   8.804  12.871 -0.0808 -0.1205  0.0859
 1703W        W 5754   8.450   1.213   2.187 -0.1409  0.1006  0.2673
 1704W        W 5755   6.227   5.836  11.141 -0.3656 -0.0413 -0.0988
 1705W        W 5756   8.588   9.999   2.716 -0.2975 -0.1772  0.1882
 1706W        W 5757   2.483   7.878  13.762 -0.1020  0.0629  0.0239
 1707W        W 5758   0.518   9.046   2.603 -0.0889 -0.0777 -0.0916
 1708W        W 5759   3.208   0.709   3.381 -0.1201  0.1320 -0.0431
 1709W        W 5760   1.055   6.470  12.223  0.3025  0.2437  0.0174
 1710W        W 5761   5.355   8.794   3.881 -0.1212  0.0605 -0.1691
 1711W        W 5762   8.510   4.980   1.179 -0.0228 -0.0755  0.2791
 1712W        W 5763   9.207   6.066  11.264  0.1231 -0.0946  0.2711
 1713W        W 5764   0.386   2.844  11.949 -0.1601 -0.1337 -0.0652
 1714W        W 5765   3.036  10.172  13.635 -0.2908  0.1389  0.1065
 1715W        W 5766   0.034   3.094  11.129 -0.0599 -0.0846  0.1665
 1716W        W 5767   5.976   2.922   2.992  0.1626  0.2094  0.1649
 1717W        W 5768   3.048   8.434   4.970 -0.3096 -0.1065  0.0968
 1718W        W 5769   7.495   6.398  13.544  0.0270 -0.0166  0.0250
 1719W        W 5770   0.539   7.890   3.917  0.2233  0.1498 -0.1198
 1720W        W 5771   9.359   6.134  10.257 -0.1843 -0.0041 -0.0259
 1721W        W 5772   3.434   1.651   3.198  0.2690 -0.0777  0.2554
 1722W        W 5773   9.783   6.479   1.782  0.2169 -0.0095 -0.0529
 1723W        W 5774   6.594   0.353   0.794 -0.1944  0.0939 -0.3304
 1724W        W 5775   2.393   2.703  11.666 -0.2199 -0.0697  0.0160
 1725W        W 5776   8.062   0.730   2.160 -0.4192  0.1318 -0.0528
 1726W        W 5777   6.429   9.110  12.820 -0.3349 -0.0378 -0.0975
 1727W        W 5778   2.928   1.120  12.560  0.3051 -0.2250  0.2385
 1728W        W 5779   5.139   4.197   2.115  0.1545  0.2304  0.0010
 1729W        W 5780   9.217   1.159   3.676 -0.1590 -0.1445 -0.2008
 1730W        W 5781   5.622   3.369   9.357 -0.0510  0.2441  0.2095
 1731W        W 5782   3.484   4.497   2.539 -0.2458 -0.4564  0.1009
 1732W        W 5783   5.497   0.640   2.906  0.1239  0.0000 -0.1014
 1733W        W 5784   6.256   1.639  12.475 -0.0144  0.1224  0.4949
 1734W        W 5785   2.787   2.869  11.415 -0.0895 -0.2472 -0.3223
 1735W        W 5786   2.642   4.175  13.739 -0.4286  0.1532  0.1272
 1736W        W 5787   7.943   2.581   9.312  0.0389 -0.5194  0.3593
 1737W        W 5788   1.275   8.952  13.779  0.0965  0.1627 -0.0838
 1738W        W 5789   8.995   2.490  13.578 -0.1164  0.0502 -0.1175
 1739W        W 5790   8.670   5.714  12.732  0.2992 -0.3116 -0.2530
 1740W        W 5791   9.358   0.724   0.062  0.0777  0.3402 -0.0366
 1741W        W 5792   3.600   4.218   2.151 -0.0352 -0.0619 -0.1845
 1742W        W 5793   2.377   8.708  10.082  0.2855  0.1942  0.2894
 1743W        W 5794   8.143   1.106  11.658  0.1084  0.2205  0.0237
 1744W        W 5795   7.255   4.131   1.380  0.0148  0.3005 -0.0327
 1745W        W 5796   5.481   7.046  10.906 -0.1417  0.1297  0.1840
 1746W        W 5797   1.375   9.107  11.243 -0.0595 -0.1343  0.1226
 1747W        W 5798   9.110   2.716   3.581 -0.0254 -0.2291 -0.1255
 1748W        W 5799   5.445   7.828   4.162  0.1424  0.1241  0.0491
 1749W        W 5800   2.966   4.723  12.706 -0.1705  0.1978 -0.0796
 1750W        W 5801   3.795   6.155  11.642  0.0203 -0.1595  0.0133
 1751W        W 5802   9.313   5.257   2.749  0.3914 -0.3396  0.4232
 1752W        W 5803   0.709   4.966   1.987 -0.2081 -0.0862 -0.0766
 1753W        W 5804   6.647   5.514   1.536 -0.2119  0.0948 -0.1615
 1754W        W 5805   7.904   1.385   0.311  0.1079  0.2652  0.0415
 1755W        W 5806   9.320   0.199  13.830  0.2591 -0.0537  0.1309
 1756W        W 5807   8.834   1.667   1.373  0.3510  0.0950 -0.1312
 1757W        W 5808   9.350   9.391   2.320  0.1445 -0.1100 -0.0933
 1758W        W 5809  10.187   1.622   0.278 -0.1188  0.1269  0.0697
 1759W        W 5810   2.596   5.769  10.551 -0.1397  0.1111 -0.0326
 1760W        W 5811   4.138   1.298  12.683 -0.4861  0.1780 -0.0781
 1761W        W 5812   7.998   3.581  10.971 -0.0037 -0.2823  0.1984
 1762W        W 5813   9.520   1.163  10.043  0.4224  0.0750  0.3300
 1763W        W 5814   6.850   8.525   3.450  0.0156  0.0257 -0.2066
 1764W        W 5815   5.426   0.988   9.168  0.3178 -0.0843 -0.3376
 1765W        W 5816   0.050   9.731   4.338 -0.1101 -0.4202 -0.0256
 1766W        W 5817   2.758   4.821   0.298  0.0853 -0.0764 -0.1121
 1767W        W 5818   0.458   7.837   0.672  0.0825  0.3023  0.1435
 1768W        W 5819   5.037   4.761   1.471  0.0423  0.0597  0.0414
 1769W        W 5820   2.197   6.595   3.627 -0.0805 -0.1393  0.3142
 1770W        W 5821   5.244   4.956  12.444  0.0074  0.1389 -0.0188
 1771W        W 5822   2.430   3.869  10.119 -0.3386  0.0318 -0.0534
 1772W        W 5823   9.657   2.867   1.867  0.3571  0.0096  0.4763
 1773W        W 5824   5.872   4.243  10.174  0.1708 -0.1470  0.3077
 1774W        W 5825   9.355   3.671   2.176 -0.0937  0.0975  0.3285
 1775W        W 5826   4.725   8.841   1.849 -0.3553 -0.0192  0.1534
 1776W        W 5827   8.694   1.991   2.704  0.0658 -0.0078  0.0449
 1777W        W 5828   3.122   5.230  12.968  0.1856 -0.2031 -0.2359
 1778W        W 5829   7.258   2.809  12.044  0.1830  0.1389 -0.0981
 1779W        W 5830   3.313   0.295  10.261 -0.1679  0.1267  0.1535
 1780W        W 5831   8.248   7.531  13.134  0.1599  0.1250  0.0910
 1781W        W 5832   1.749   3.669   1.899 -0.0763  0.1971  0.4698
 1782W        W 5833   3.927   4.855  12.271  0.3072 -0.0435 -0.0418
 1783W        W 5834   0.404   3.950  10.610 -0.1788  0.0462  0.4340
 1784W        W 5835   5.318   0.240  13.849  0.1625  0.2677  0.1593
 1785W        W 5836   2.760   3.299  10.618 -0.0811  0.1418  0.0059
 1786W        W 5837   6.436   0.291   2.637 -0.0204 -0.0202 -0.4124
 1787W        W 5838   9.136   4.842   4.576 -0.1015  0.1530  0.2099
 1788W        W 5839   1.881   3.699   2.423  0.1784  0.1537  0.0546
 1789W        W 5840   6.891   9.016   3.130  0.0541  0.1443 -0.0672
 1790W        W 5841   7.382   2.681   0.079  0.0469 -0.0007 -0.3143
 1791W        W 5842   9.107   4.980  12.999  0.1064 -0.2465 -0.3400
 1792W        W 5843   2.937   3.293   9.254 -0.1500 -0.2394  0.0468
 1793W        W 5844   9.485   6.165   2.284  0.0541  0.4414 -0.2732
 1794W        W 5845   4.698   2.346   4.498 -0.1955  0.0489 -0.1605
 1795W        W 5846   2.129   0.275   1.206  0.1062 -0.2892 -0.0708
 1796W        W 5847   4.667   2.117   4.052 -0.2313 -0.2655  0.1702
 1797W        W 5848   5.616   3.485   3.899  0.0271  0.0031  0.3034
 1798W        W 5849   4.896   0.625  12.591  0.0893 -0.3971 -0.1887
 1799W        W 5850   6.070   4.684   2.738 -0.0212 -0.1894  0.1366
 1800W        W 5851   4.934   8.064   4.069 -0.2743  0.2207  0.1459
 1801W        W 5852   5.768   2.535   2.242  0.2254 -0.1817 -0.2473
 1802W        W 5853   7.982   0.735   3.682  0.1086 -0.1305 -0.2037
 1803W        W 5854   9.520   5.953  13.081  0.1550  0.2826  0.0267
 1804W        W 5855   2.068   4.581   1.786 -0.1847  0.0148  0.2563
 1805W        W 5856   0.765   5.438   3.874 -0.2670  0.3206 -0.1001
 1806W        W 5857   8.938   9.608  10.158 -0.0312 -0.0374 -0.1563
 1807W        W 5858   0.131   6.997  13.304  0.2352  0.0543 -0.0963
 1808W        W 5859   4.016   3.836  12.888  0.1876  0.1848 -0.2091
 1809W        W 5860   1.848   6.938  11.858 -0.1747 -0.1378 -0.2050
 1810W        W 5861   6.003   4.251   4.475 -0.2396  0.0298  0.5071
 1811W        W 5862   9.914   0.669   2.613 -0.1004  0.1904 -0.1357
 1812W        W 5863   1.565   8.302  12.497 -0.2102 -0.2055  0.2175
 1813W        W 5864   8.378   9.950  11.019  0.1131  0.2012  0.0597
 1814W        W 5865   3.202   7.720   3.696 -0.0596 -0.1190  0.0531
 1815W        W 5866   8.218   9.947  12.123  0.0461  0.0915 -0.3705
 1816W        W 5867   7.971   2.950  12.617 -0.1791 -0.3006  0.0553
 1817W        W 5868   4.198   9.122   3.504 -0.2103 -0.0801  0.0150
 1818W        W 5869   4.959   2.723   0.596  0.0883  0.0385 -0.2436
 1819W        W 5870   0.128   5.988  12.145  0.1338  0.2102 -0.3014
 1820W        W 5871   2.855   1.756   4.057 -0.2940  0.0017  0.1171
 1821W        W 5872   3.721   0.220  12.829  0.3078  0.1503  0.0249
 1822W        W 5873   0.408   4.939   1.552 -0.1018  0.1075  0.0473
 1823W        W 5874   1.259   6.567  11.314  0.2821 -0.1629  0.2426
 1824W        W 5875   4.253   8.508  11.035 -0.4444  0.0952  0.0315
 1825W        W 5876   0.699   2.976   2.931  0.2371  0.0900  0.0461
 1826W        W 5877   3.389   0.492  12.635  0.2229  0.0661 -0.0190
 1827W        W 5878   4.203   4.969  13.945  0.1093  0.0516 -0.1388
 1828W        W 5879   7.183   6.125  12.284  0.2596  0.0240 -0.1871
 1829W        W 5880   2.372   4.131   3.964  0.1241  0.1176  0.1146
 1830W        W 5881   8.831   3.095  12.861  0.0593  0.0718  0.3606
 1831W        W 5882   5.191   5.087  11.224 -0.0989  0.0287 -0.2048
 1832W        W 5883   6.568   1.146   1.895 -0.0875 -0.0251  0.0367
 1833W        W 5884   2.403   5.360   0.613 -0.0796 -0.2284 -0.0285
 1834W        W 5885   9.756   1.932   4.010 -0.1203  0.3921 -0.1010
 1835W        W 5886   8.742   5.089   2.020  0.2278 -0.0800  0.1056
 1836W        W 5887   6.710   6.335   1.860 -0.1860 -0.3041 -0.1572
 1837W        W 5888   7.459   4.715  10.009  0.2168 -0.1029  0.1743
 1838W        W 5889   3.820   3.785   0.482 -0.0638  0.2888  0.0780
 1839W        W 5890   7.644   1.099  11.207 -0.0873 -0.0295 -0.3161
 1840W        W 5891   8.611   8.755   4.485  0.1707 -0.1888 -0.4280
 1841W        W 5892   9.825   4.104   0.524  0.1997 -0.1567 -0.0597
 1842W        W 5893   2.598   9.163   0.579  0.0112  0.0686  0.3703
 1843W        W 5894   8.712   8.819   1.480  0.0524  0.0777 -0.2211
 1844W        W 5895   6.224   8.033   2.690  0.1722  0.1575  0.0219
 1845W        W 5896   4.532   7.542   8.087 -0.0990  0.0697 -0.0600
 1846W        W 5897   8.128   9.528  11.371  0.1453  0.2930  0.0225
 1847W        W 5898   1.620   2.558   2.981 -0.0866 -0.0082  0.4291
 1848W        W 5899   2.251   9.567   4.010 -0.1086 -0.1513  0.2239
 1849W        W 5900   4.700   9.403   9.530  0.1495 -0.0839 -0.0302
 1850W        W 5901   7.437   2.090   1.559 -0.1669 -0.0462 -0.0718
 1851W        W 5902   9.978   9.097   0.757 -0.3339 -0.0309  0.0268
 1852W        W 5903   9.754   3.433  11.989 -0.0357  0.1388 -0.2580
 1853W        W 5904   7.727   4.863   2.258  0.1515  0.1893 -0.2330
 1854W        W 5905   6.921   9.766  11.854  0.1864  0.0092 -0.0071
 1855W        W 5906   0.439   1.744   0.800 -0.2248  0.2978 -0.1846
 1856W        W 5907   1.971   6.489  10.323  0.1107 -0.0533  0.0915
 1857W        W 5908   4.697   6.813   1.033  0.0033  0.0954 -0.0943
 1858W        W 5909   6.881   0.286  10.455 -0.0900  0.3961  0.2401
 1859W        W 5910   5.872   9.237  13.778  0.1509 -0.2866  0.3297
 1860W        W 5911   9.985   2.276   2.600 -0.1035 -0.0601 -0.1739
 1861W        W 5912   4.705   6.369   4.422 -0.0142 -0.0365 -0.0643
 1862W        W 5913   1.268   2.201   0.706  0.0375 -0.0219  0.0225
 1863W        W 5914   6.087   0.929   4.718  0.0326  0.1320 -0.0775
 1864W        W 5915   2.260   7.780   2.073  0.2101  0.1058  0.1771
 1865W        W 5916   0.414   7.419   3.597  0.0084  0.2573  0.0300
 1866W        W 5917   5.135   3.323   1.342  0.1248 -0.0458  0.0648
 1867W        W 5918   1.579   5.778   2.581 -0.3415 -0.0499 -0.0000
 1868W        W 5919   3.351   1.685   3.944  0.4354 -0.2498 -0.3303
 1869W        W 5920   3.073   6.043   0.791  0.1077  0.2358 -0.0637
 1870W        W 5921   7.286   1.803  10.820  0.2355 -0.1153  0.0145
 1871W        W 5922   3.048   3.924   9.309  0.1060  0.1544 -0.3037
 1872W        W 5923   9.380   0.853   3.346  0.1745  0.4128  0.2853
 1873W        W 5924   3.871   7.719   9.758 -0.0219 -0.0331 -0.2735
 1874W        W 5925   0.643  10.163  13.087  0.0777  0.1192 -0.4213
 1875W        W 5926   0.779   0.706  11.819 -0.1284 -0.2761  0.0087
 1876W        W 5927   7.845   9.422   4.712 -0.1483  0.0406 -0.0155
 1877W        W 5928   4.154   3.525   3.396 -0.2318 -0.0155 -0.0754
 1878W        W 5929   8.757   1.172   4.879  0.1504 -0.0354  0.0572
 1879W        W 5930   6.364   5.020  13.907  0.1402 -0.0995  0.2351
 1880W        W 5931   3.413   3.893  12.133 -0.2541  0.0351  0.0954
 1881W        W 5932   9.974   7.142   1.152 -0.1527  0.1392  0.1222
 1882W        W 5933   2.156   1.976  12.453  0.1800 -0.0181 -0.2373
 1883W        W 5934   2.664   2.601   2.393 -0.2758 -0.1758  0.2808
 1884W        W 5935   7.076   4.854   1.945  0.0591  0.0974 -0.2074
 1885W        W 5936   8.322   3.315  11.696 -0.1427 -0.2467  0.0053
 1886W        W 5937   9.578   4.765   3.629  0.2933 -0.1766 -0.3664
 1887W        W 5938   3.445   9.501  11.117 -0.0687  0.1671  0.0884
 1888W        W 5939   4.077   3.463  11.834 -0.2259  0.1842 -0.1398
 1889W        W 5940   2.634   3.137   3.954 -0.0087  0.0629 -0.0520
 1890W        W 5941   4.228   0.246  12.082  0.2322 -0.2706  0.0256
 1891W        W 5942   8.844   7.370   3.954 -0.0674  0.2318  0.0740
 1892W        W 5943   2.475   8.851  11.392 -0.1296  0.1506 -0.0570
 1893W        W 5944   5.577   6.306   0.850  0.0342 -0.0848 -0.1154
 1894W        W 5945   1.641   3.340   3.077  0.0272 -0.2071 -0.1981
 1895W        W 5946   6.091   1.472   4.520 -0.0036 -0.1358  0.2156
 1896W        W 5947   2.606   6.051   1.054  0.0563  0.0338 -0.2303
 1897W        W 5948   9.662   7.315  10.184  0.1392 -0.0687  0.1752
 1898W        W 5949   3.802   1.421  13.446  0.0047  0.0191 -0.1829
 1899W        W 5950   7.997   5.450   0.197  0.2953  0.0897 -0.4169
 1900W        W 5951   6.676   5.615   2.556  0.1489 -0.3477 -0.1281
 1901W        W 5952   6.115   7.884   0.567  0.1493 -0.1720 -0.2944
 1902W        W 5953   4.687   6.034   0.808 -0.1601 -0.1266  0.0280
 1903W        W 5954   9.255   6.950   0.444  0.0175  0.4114 -0.1601
 1904W        W 5955   0.478   1.283   0.572 -0.2816  0.0829  0.0860
 1905W        W 5956   5.596   0.054  10.116  0.1527  0.0796  0.0539
 1906W        W 5957   1.033   0.275  12.964 -0.0375  0.0551  0.0201
 1907W        W 5958   3.716   0.219  11.802  0.3818  0.0306 -0.1329
 1908W        W 5959   2.069   3.592   0.433 -0.0671 -0.1229 -0.1587
 1909W        W 5960   5.373   2.128   2.557 -0.1181 -0.0908  0.0109
 1910W        W 5961   4.522   5.111   2.157 -0.0179 -0.0462  0.1573
 1911W        W 5962   6.984   5.288   0.444  0.0004 -0.2260  0.2228
 1912W        W 5963   4.299   5.326   0.305  0.0993  0.1741  0.0327
 1913W        W 5964   0.244   4.447  13.923 -0.0148 -0.0335 -0.0291
 1914W        W 5965   5.718   7.759  10.522  0.2068 -0.4978 -0.1937
 1915W        W 5966   5.218   5.793   2.544 -0.0492 -0.0714  0.2005
 1916W        W 5967   0.747   6.687   2.076  0.0081  0.0610  0.0135
 1917W        W 5968  10.030   1.919  11.388  0.2932 -0.2575  0.0712
 1918W        W 5969   4.093   0.880  13.538  0.0029  0.0280 -0.2621
 1919W        W 5970   0.449   1.370  13.349 -0.0684 -0.0130 -0.1810
 1920W        W 5971   2.319   8.532   1.485  0.0007 -0.1583  0.0783
 1921W        W 5972   4.923   4.612  13.956  0.0725  0.2007  0.1514
 1922W        W 5973   1.119   7.427   3.291 -0.0584  0.1712  0.0662
 1923W        W 5974   0.870   9.191   0.075 -0.1836 -0.0090  0.3228
 1924W        W 5975   8.537   0.474   1.459 -0.0480  0.0860  0.0701
 1925W        W 5976   7.657   1.139   2.836 -0.0775 -0.1935 -0.0102
 1926W        W 5977   6.904   7.496   0.922  0.3125  0.0383  0.0151
 1927W        W 5978   0.255   2.534   3.624 -0.0025 -0.1250  0.1327
 1928W        W 5979   1.050   1.305   3.851 -0.1114 -0.0328  0.1697
 1929W        W 5980   4.289   0.197   1.660 -0.5153 -0.3932 -0.2445
 1930W        W 5981  10.187   1.578   2.340  0.2241 -0.2968 -0.0063
 1931W        W 5982   4.998   2.133  11.180  0.1238 -0.2632  0.1768
 1932W        W 5983   1.040   3.571  11.663 -0.0448  0.2923  0.0461
 1933W        W 5984   1.743   5.134   4.572  0.0340 -0.0642  0.1240
 1934W        W 5985   2.821   5.189   1.324  0.1263  0.1970 -0.0694
 1935W        W 5986   5.255   5.087  11.728 -0.1107  0.0426 -0.4031
 1936W        W 5987   7.792   7.867   2.369  0.0030 -0.0316 -0.2511
 1937W        W 5988   3.345   8.094   4.589 -0.3064 -0.0317 -0.0288
 1938W        W 5989   6.093   7.069  13.837 -0.2477 -0.0673  0.0926
 1939W        W 5990   8.085   4.761   0.905 -0.3031  0.2484 -0.1490
 1940W        W 5991   7.931   0.084  10.551 -0.2248  0.2998  0.2256
 1941W        W 5992   3.623   2.659  11.671  0.1853  0.0137  0.0990
 1942W        W 5993   1.261   4.901   4.641  0.1041  0.1998  0.0084
 1943W        W 5994   7.856   4.259  13.303  0.0586  0.1529  0.1858
 1944W        W 5995   6.025   5.098   5.248 -0.0194 -0.2556 -0.0787
 1945W        W 5996   1.864   1.898   3.614 -0.0271 -0.2402  0.0577
 1946W        W 5997   4.538   9.006   1.341  0.0316  0.1446  0.2431
 1947W        W 5998   9.234   0.563   0.532 -0.2189  0.1840  0.0116
 1948W        W 5999   0.170   3.872   1.045  0.0683  0.2158 -0.0376
 1949W        W 6000   5.193   7.019   0.034 -0.0739 -0.1170  0.3120
 1950W        W 6001   6.783   6.923  13.222 -0.0766 -0.2019  0.3825
 1951W        W 6002   6.264   2.496  12.298  0.0635  0.1589  0.2777
 1952W        W 6003   0.456   4.363   2.413 -0.0334  0.4400  0.2373
 1953W        W 6004   1.194   2.096  11.924 -0.1810 -0.0882 -0.1207
 1954W        W 6005   2.337   2.230   1.546  0.0595  0.1493  0.0366
 1955W        W 6006   5.618   0.211   3.670  0.0418  0.1548  0.1221
 1956W        W 6007   3.981   6.158   9.644 -0.1462 -0.3714  0.1996
 1957W        W 6008   7.086   3.596  11.224 -0.1060  0.4753 -0.2165
 1958W        W 6009   0.130   6.176   2.455 -0.0926  0.0816 -0.0482
 1959W        W 6010   2.927   0.397   5.242 -0.2184  0.0282 -0.0772
 1960W        W 6011   4.551   1.272   3.814  0.0012 -0.1732 -0.0707
 1961W        W 6012  10.179   9.584   8.817  0.1027  0.1451 -0.0101
 1962W        W 6013   0.889   1.412  13.578  0.1520 -0.2259  0.0628
 1963W        W 6014   1.337   6.570   8.540 -0.0308 -0.1871  0.2085
 1964W        W 6015   8.078   9.718   4.359  0.1647 -0.2494 -0.0411
 1965W        W 6016   9.554   3.487  13.374 -0.1755 -0.0948 -0.1263
 1966W        W 6017   0.121   2.345   3.096  0.1893 -0.0958  0.1364
 1967W        W 6018   7.112   2.429   4.020 -0.0569 -0.0642 -0.0397
 1968W        W 6019   5.784   8.821   2.110  0.0292 -0.3395  0.2451
 1969W        W 6020   5.954   1.006   2.539 -0.0090 -0.1896  0.1737
 1970W        W 6021   2.374   5.094   0.185 -0.0227 -0.4559  0.0066
 1971W        W 6022   5.846   9.596   3.182  0.1927  0.0160  0.0541
 1972W        W 6023   7.071   1.093  12.566 -0.2611  0.1326  0.0072
 1973W        W 6024   1.887   1.694  11.548 -0.3054 -0.1313  0.0847
 1974W        W 6025   0.302   0.872  11.000 -0.2025  0.1803 -0.0533
 1975W        W 6026   2.675   2.459   1.834  0.1458  0.1782 -0.1881
 1976W        W 6027   7.648   5.394   1.145  0.0547  0.0116  0.0163
 1977W        W 6028   3.850   4.572   8.501 -0.3025  0.0250  0.0404
 1978W        W 6029   2.778   4.331   0.940 -0.1607 -0.0688 -0.0453
 1979W        W 6030   5.128   6.362  10.208  0.0713  0.2198  0.1330
 1980W        W 6031   8.591   9.021   9.932 -0.2058 -0.0617  0.0977
 1981W        W 6032   6.912   2.761  12.890  0.1825  0.1107 -0.1184
 1982W        W 6033   3.923   9.345   0.104 -0.0975  0.0870 -0.0575
 1983W        W 6034   1.472   8.842  10.011  0.0917  0.0788  0.1250
 1984W        W 6035   1.399   6.762   3.287  0.0313 -0.0459  0.1006
 1985W        W 6036   4.486   9.721  13.544 -0.0587  0.1956  0.0458
 1986W        W 6037   2.217   1.300  11.939  0.1092  0.0802 -0.2025
 1987W        W 6038   4.316   8.985  11.130  0.1469  0.1532  0.0618
 1988W        W 6039   9.366   0.154   2.498  0.0947  0.0971 -0.1097
 1989W        W 6040   4.644   4.978  13.759 -0.0872 -0.0213 -0.0184
 1990W        W 6041   7.136   1.119  13.477  0.0022  0.2600  0.3468
 1991W        W 6042   7.208   7.161   0.709 -0.0579  0.0998  0.1745
 1992W        W 6043   0.505   9.954   9.253 -0.5908  0.2467 -0.1985
 1993W        W 6044   6.657   7.151  10.210  0.4256 -0.1964  0.0104
 1994W        W 6045   7.809   8.364  13.325  0.0772  0.1258 -0.0030
 1995W        W 6046   0.165   4.665   1.960 -0.1556 -0.1805 -0.2735
 1996W        W 6047   2.291   8.715   4.292 -0.1305 -0.0797 -0.1930
 1997W        W 6048   0.697   6.765  11.299  0.2814 -0.0581 -0.3739
 1998W        W 6049   0.025   8.296   0.691 -0.0634  0.4198 -0.1184
 1999W        W 6050   9.829   0.902   4.897  0.0640  0.1834  0.0273
 2000W        W 6051   4.045   5.029   1.954  0.1153  0.1964 -0.0685
 2001W        W 6052   2.119   2.129  12.942  0.4287  0.3231 -0.0510
 2002W        W 6053   1.636   7.810  12.545 -0.1029  0.0726 -0.1933
 2003W        W 6054   7.364   3.512  13.077  0.0677 -0.0810 -0.1763
 2004W        W 6055   9.105   0.254   0.918 -0.0850 -0.2060  0.2135
 2005W        W 6056   3.858   4.853   1.511  0.2028  0.1320 -0.2025
 2006W        W 6057   4.098   9.267  10.766 -0.3610  0.2497  0.0195
 2007W        W 6058   7.512   7.576   0.435 -0.1362  0.2075 -0.0041
 2008W        W 6059   8.478  10.027   3.196 -0.3822  0.0632 -0.1439
 2009W        W 6060   3.267   7.246   9.826  0.0767 -0.1121  0.0223
 2010W        W 6061   1.717   5.429  12.134 -0.0471 -0.0223  0.0298
 2011W        W 6062   8.448   1.529  13.530  0.0760  0.5797  0.0935
 2012W        W 6063   1.687   3.787   3.420 -0.2020  0.1283  0.1374
 2013W        W 6064   9.085   2.996   2.888 -0.0585  0.1674 -0.1443
 2014W        W 6065   3.106   2.499   3.630  0.2053  0.0817 -0.0988
 2015W        W 6066   5.022   8.412   8.872  0.2661 -0.0313 -0.2085
 2016W        W 6067   9.614   0.246   0.308  0.3913  0.0838 -0.0448
 2017W        W 6068   0.277   6.318   4.598 -0.1603  0.0751  0.1061
 2018W        W 6069   1.061   4.615  12.697  0.3163  0.0977 -0.1251
 2019W        W 6070   0.340   9.944   4.642 -0.3100  0.1562  0.0818
 2020W        W 6071   4.783   0.129   9.872 -0.0046 -0.1533  0.2147
 2021W        W 6072   1.011   7.731  10.766 -0.2492 -0.1265  0.0715
 2022W        W 6073   6.384   4.385  13.791 -0.1613  0.2739 -0.1395
 2023W        W 6074   0.916   3.723   3.564 -0.0064 -0.1220 -0.0542
 2024W        W 6075   8.352   2.023   3.575  0.2944  0.3166 -0.1621
 2025W        W 6076   2.998   7.947  13.839  0.1201  0.1344 -0.0862
 2026W        W 6077   5.019   4.454   0.482 -0.2739  0.0924 -0.1285
 2027W        W 6078   7.844   7.501  13.613  0.1983  0.0010  0.0535
 2028W        W 6079   3.014   8.463   3.019  0.0854 -0.0956 -0.0870
 2029W        W 6080   5.361   8.910   9.946  0.0846  0.2342  0.2140
 2030W        W 6081   2.299   6.666  13.618 -0.1029  0.1303  0.2086
 2031W        W 6082   8.502   8.872   1.970  0.2127  0.1905 -0.3389
 2032W        W 6083   3.611   0.067   1.237  0.2548  0.2230  0.3434
 2033W        W 6084   7.248   2.332  12.054  0.2075 -0.1218 -0.1853
 2034W        W 6085   5.704   0.033  10.995  0.5112 -0.0328 -0.0900
 2035W        W 6086   1.948   9.917   4.209  0.0224 -0.1639  0.0721
 2036W        W 6087   8.745   7.383  13.747 -0.1154 -0.2767  0.0516
 2037W        W 6088   3.146   6.506   0.505 -0.0911 -0.1058  0.2626
 2038W        W 6089   7.906   0.712   1.518 -0.0921 -0.1306 -0.4598
 2039W        W 6090   3.847   8.069   4.457  0.0146  0.4065  0.1413
 2040W        W 6091   2.239   9.681   2.221  0.0334 -0.0328  0.0898
 2041W        W 6092   4.490   4.605  11.718  0.0211 -0.2738 -0.0860
 2042W        W 6093   3.133  10.057  10.486 -0.1169  0.0324 -0.1351
 2043W        W 6094   0.901   6.713  10.843 -0.0909  0.0605  0.0886
 2044W        W 6095   3.834   9.269   2.504 -0.1370  0.0304  0.0071
 2045W        W 6096   5.848   6.490   4.448 -0.1719  0.2904 -0.2628
 2046W        W 6097   7.887   8.795  11.933 -0.0991 -0.0622  0.1082
 2047W        W 6098   1.963   3.228  10.539 -0.1422  0.0069  0.2016
 2048W        W 6099   3.574   6.685  11.735 -0.1163 -0.0860 -0.0397
 2049W        W 6100   6.244   9.444   4.363 -0.2294 -0.3135  0.1173
 2050W        W 6101   5.772   2.688   3.533  0.3439  0.2559  0.1590
 2051W        W 6102   2.542   7.340  13.079  0.0406  0.1932 -0.3003
 2052W        W 6103   7.281   4.035  11.407 -0.1869 -0.1302  0.1112
 2053W        W 6104   8.842   8.257   3.744 -0.1537 -0.1014  0.0082
 2054W        W 6105   0.878   4.661   1.252 -0.1026 -0.1557  0.3091
 2055W        W 6106   3.453   0.663   2.046 -0.3690 -0.1721 -0.0050
 2056W        W 6107   0.489   2.475  12.480 -0.1006  0.0408  0.1606
 2057W        W 6108   3.991   0.927   2.713 -0.2055  0.0236 -0.1626
 2058W        W 6109   3.444   0.294  13.585  0.2738 -0.0599 -0.1601
 2059W        W 6110   3.429   7.957  11.015 -0.3291 -0.1480 -0.0554
 2060W        W 6111   7.640   9.261  13.808  0.1617 -0.1848  0.1833
 2061W        W 6112   0.804   7.321   1.590  0.2016 -0.2190 -0.3017
 2062W        W 6113   9.128   2.501  11.283  0.0744  0.0290 -0.0177
 2063W        W 6114   9.370   3.179  12.704 -0.3383 -0.1709 -0.0825
 2064W        W 6115   0.905   5.188   9.616  0.0472 -0.1536 -0.0868
 2065W        W 6116   8.123   4.111   1.100 -0.2431 -0.0207  0.1793
 2066W        W 6117   6.292   3.496   3.381 -0.1724 -0.0812  0.0073
 2067W        W 6118   2.034   8.254   4.536 -0.0051  0.1448  0.2243
 2068W        W 6119   4.349   1.727   4.028 -0.3066  0.0832  0.0626
 2069W        W 6120   3.782   2.278   1.524 -0.3128  0.1135 -0.0010
 2070W        W 6121   8.497   4.606   0.314  0.1356 -0.1785 -0.0724
 2071W        W 6122   7.857   5.603  13.280  0.0062 -0.0491 -0.2291
 2072W        W 6123   5.744   9.021  11.943  0.1069 -0.1107  0.0600
 2073W        W 6124   9.494   4.751   0.064  0.2693 -0.0390  0.2304
 2074W        W 6125   7.384  10.055   4.090  0.2204  0.0489  0.4053
 2075W        W 6126   8.026   4.150   0.329  0.0433  0.1860 -0.1105
 2076W        W 6127   5.096   4.531   3.852 -0.0877 -0.1012  0.0227
 2077W        W 6128   8.133   6.619  13.044 -0.0658 -0.0673  0.0023
 2078W        W 6129  10.088   8.392  12.950  0.0939  0.1374  0.0308
 2079W        W 6130   4.861   8.780   2.661  0.4954  0.0380 -0.4362
 2080W        W 6131   7.425   2.368   3.616  0.0306 -0.0750  0.1957
 2081W        W 6132   3.412   3.503   0.303 -0.3901 -0.0730  0.0464
 2082W        W 6133   2.483   5.548   1.075 -0.1210  0.0410  0.1483
 2083W        W 6134   0.838  10.095   2.999 -0.2902  0.0145 -0.0655
 2084W        W 6135   6.675   0.714  12.644  0.1159 -0.0185  0.0710
 2085W        W 6136   0.976   2.729  10.322  0.2723 -0.0207  0.0070
 2086W        W 6137   3.275   3.169   2.557 -0.0208 -0.0020 -0.1797
 2087W        W 6138   0.515   1.796   0.223  0.0485  0.0010  0.0837
 2088W        W 6139   0.906   2.125  12.329 -0.0406  0.0053 -0.2971
 2089W        W 6140   4.371   8.533   3.821 -0.0700  0.3459  0.2808
 2090W        W 6141   1.431   0.758  12.921 -0.3009 -0.0399 -0.0339
 2091W        W 6142   2.567   1.872   1.872  0.4366  0.1191  0.0631
 2092W        W 6143   2.721   3.055   0.260 -0.1308  0.0264  0.2174
 2093W        W 6144   3.423   7.900  13.568  0.1137  0.1297 -0.1542
 2094W        W 6145   3.933   4.497   2.773 -0.1161 -0.3301  0.0613
 2095W        W 6146   2.749   6.557  10.330  0.0088 -0.2301  0.0865
 2096W        W 6147   9.812   3.496   9.991 -0.0787 -0.1192 -0.0473
 2097W        W 6148   2.203   9.241  12.711 -0.1716  0.1790  0.0629
 2098W        W 6149   4.075   1.030  12.282  0.0755 -0.2718  0.2171
 2099W        W 6150   9.956   9.778   4.749  0.0254 -0.3633 -0.1368
 2100W        W 6151   6.771   9.491  13.781 -0.1816  0.2091 -0.0202
 2101W        W 6152   1.382   3.946  11.698 -0.1240  0.3535  0.0049
 2102W        W 6153   0.289   6.979   3.207 -0.0525  0.1237 -0.2563
 2103W        W 6154   0.067   3.737  12.739 -0.1993 -0.1819 -0.3326
 2104W        W 6155   3.871   1.586   1.961  0.2038  0.1801  0.2409
 2105W        W 6156   8.983   7.400   0.554  0.0380 -0.0241  0.0435
 2106W        W 6157   9.623   4.294   3.055  0.2000 -0.2753 -0.0757
 2107W        W 6158   9.020   6.749  13.895 -0.1897 -0.2146  0.5092
 2108W        W 6159   0.715   0.881   2.355  0.0832  0.0720  0.2891
 2109W        W 6160   4.821   8.060  12.414 -0.0027 -0.4616 -0.2028
 2110W        W 6161   9.208   5.665  12.757 -0.2053  0.1830  0.0054
 2111W        W 6162   9.299   4.777   2.496  0.0430  0.2619  0.0453
 2112W        W 6163   8.190   2.026   4.797  0.2357  0.0469 -0.0687
 2113W        W 6164   7.586   7.203  10.768  0.0663  0.2140  0.1092
 2114W        W 6165   1.570   4.587  12.606  0.0607 -0.0004  0.0791
 2115W        W 6166   7.659   7.609   3.290 -0.2450  0.1527  0.0468
 2116W        W 6167   9.104   1.788  10.839  0.2739 -0.2501 -0.3779
 2117W        W 6168   9.257   7.628   9.993 -0.4552  0.2552 -0.0618
 2118W        W 6169   6.613   7.879   0.659 -0.1668 -0.2579 -0.0885
 2119W        W 6170   9.085   4.807   3.554 -0.0706 -0.0583  0.0397
 2120W        W 6171   0.241   2.187  12.116  0.0380 -0.0164 -0.2588
 2121W        W 6172   7.460   0.930   4.402  0.5547 -0.2225 -0.1450
 2122W        W 6173   5.759   6.862   0.719  0.0123  0.3682  0.0975
 2123W        W 6174   5.330   7.837  10.106 -0.0728  0.0526  0.0711
 2124W        W 6175   7.980   4.064   2.495 -0.1110 -0.1050  0.2070
 2125W        W 6176   8.682   9.822   2.066  0.2513 -0.4578 -0.0497
 2126W        W 6177   3.650   9.757  12.431  0.3541  0.1271  0.0282
 2127W        W 6178   9.957   6.561   2.358 -0.0880  0.4672  0.0715
 2128W        W 6179  10.029   4.808  10.141 -0.0360 -0.0582 -0.1223
 2129W        W 6180   1.292   5.629  12.799 -0.0553  0.0088  0.0384
 2130W        W 6181   4.579   3.738   5.234  0.1789 -0.2595 -0.2975
 2131W        W 6182   6.743   8.297   0.399  0.1778 -0.1404  0.1300
 2132W        W 6183   5.656   6.904  13.674  0.0105 -0.1907 -0.0617
 2133W        W 6184   6.036   7.441   2.281  0.1247 -0.1216 -0.2318
 2134W        W 6185   1.478   1.297  12.755  0.4486 -0.3486  0.1070
 2135W        W 6186   3.473   1.385  12.114  0.1111 -0.0516  0.0413
 2136W        W 6187   6.655   1.844  12.723 -0.0267 -0.1965 -0.0743
 2137W        W 6188   4.574   3.983   5.759 -0.1892 -0.1033  0.0532
 2138W        W 6189   5.589   0.084   9.202  0.2156 -0.0517 -0.3652
 2139W        W 6190   3.005   9.725  11.558  0.0715 -0.2016  0.1287
 2140W        W 6191   3.562   0.935   9.223 -0.2391  0.2637 -0.0961
 2141W        W 6192   6.500   7.667   2.452 -0.1570  0.3252  0.0574
 2142W        W 6193   1.119   0.913   2.010 -0.2123 -0.4102  0.0944
 2143W        W 6194   8.505   0.364  12.861 -0.0774 -0.0312  0.2008
 2144W        W 6195   8.844   6.521   0.508 -0.0504 -0.1268  0.0430
 2145W        W 6196   1.714   9.317  11.552  0.1370 -0.0357 -0.0610
 2146W        W 6197   8.834   9.330   3.318 -0.2967  0.0236 -0.1557
 2147W        W 6198   8.089   5.227   1.281 -0.1891 -0.0541  0.3959
 2148W        W 6199   7.750   8.874  10.151 -0.0594 -0.2006 -0.1246
 2149W        W 6200   9.946   1.075   9.314  0.2286  0.1587 -0.1226
 2150W        W 6201   2.214   0.461  11.128  0.1342  0.0250 -0.0487
 2151W        W 6202   2.611   1.870   9.941  0.2226  0.1011 -0.0321
 2152W        W 6203   8.222   2.792   3.877 -0.1929  0.0499  0.3572
 2153W        W 6204   9.768   5.524   3.033  0.0462 -0.0731 -0.0848
 2154W        W 6205   6.721   8.323   9.407 -0.3342 -0.1190 -0.0041
 2155W        W 6206   3.029   4.747   9.679 -0.1385  0.0377  0.1151
 2156W        W 6207   6.255   7.370   1.828 -0.4041 -0.1615 -0.1434
 2157W        W 6208   8.701   0.453   4.155 -0.1691 -0.3031 -0.0668
 2158W        W 6209   3.416   6.287   3.875  0.1707 -0.1442  0.0935
 2159W        W 6210   3.373   8.530  11.010  0.2570 -0.0399  0.1091
 2160W        W 6211   6.302   3.029  12.221 -0.0291 -0.1881  0.4104
 2161W        W 6212   6.518   1.201   8.846 -0.1611 -0.0328 -0.0446
 2162W        W 6213   2.930   8.426  13.898 -0.0279 -0.0434 -0.2073
 2163W        W 6214   4.980   7.195  13.588 -0.0019 -0.0661 -0.0888
 2164W        W 6215   4.332   7.029  11.127 -0.2485  0.1769 -0.2711
 2165W        W 6216   8.721   0.145   5.309  0.1853  0.0999  0.2408
 2166W        W 6217   7.822   8.419  10.173 -0.0036  0.1880 -0.2844
 2167W        W 6218   1.225   4.618   3.053  0.1731 -0.1552 -0.0262
 2168W        W 6219   9.288   1.540   5.478 -0.1425 -0.1495 -0.0341
 2169W        W 6220   7.642   7.825  10.535 -0.2260  0.0229 -0.2236
 2170W        W 6221   2.925   4.383   4.105  0.0424 -0.2456 -0.4355
 2171W        W 6222   9.036   9.438   1.368 -0.1768  0.0987  0.3605
 2172W        W 6223   5.096   1.576  11.883  0.0186  0.0364 -0.3945
 2173W        W 6224   8.443   2.352   3.942  0.0845 -0.0732 -0.0728
 2174W        W 6225   5.957   2.277   1.057  0.2782 -0.0545 -0.0796
 2175W        W 6226   1.363   2.926   1.706  0.0914  0.2291  0.0904
 2176W        W 6227   0.689   7.774  11.567  0.2173  0.2751 -0.4614
 2177W        W 6228   3.831   1.762   2.927  0.1414  0.0068  0.0557
 2178W        W 6229   9.391   2.357  13.234  0.2234  0.0553 -0.1711
 2179W        W 6230   0.793   8.878   9.653 -0.0559  0.0471  0.1249
 2180W        W 6231   0.832   2.165   5.428  0.0429 -0.0067 -0.1500
 2181W        W 6232   8.393   4.255  13.297  0.2233 -0.1973 -0.1788
 2182W        W 6233   9.360   1.867   1.112  0.0835 -0.0247 -0.2967
 2183W        W 6234   4.869   7.540   1.558  0.1376 -0.4905 -0.0871
 2184W        W 6235   1.922   2.830   5.092  0.0236 -0.1454  0.0732
 2185W        W 6236   1.620   7.853  11.996 -0.0311 -0.1491  0.1782
 2186W        W 6237   1.848   4.717   3.444 -0.2246  0.1454  0.2153
 2187W        W 6238   9.876   4.374   9.989  0.0788 -0.0495 -0.1134
 2188W        W 6239   5.791   1.815   1.534 -0.4039  0.2062  0.0769
 2189W        W 6240   3.734   2.234   2.756  0.2227  0.1892 -0.2814
 2190W        W 6241   2.055   2.631  13.052  0.0866 -0.4686 -0.0087
 2191W        W 6242   0.789   9.394   1.383 -0.1818  0.3373  0.2629
 2192W        W 6243   0.078   6.396   0.217 -0.0226 -0.1163 -0.3727
 2193W        W 6244   0.501   7.219   0.165  0.1287 -0.0152 -0.2847
 2194W        W 6245   7.699   6.374   4.019 -0.2562 -0.1018 -0.3888
 2195W        W 6246   7.763   3.916  13.723  0.1641  0.2333  0.1200
 2196W        W 6247   7.014   6.470  11.988  0.0427 -0.1887 -0.1390
 2197W        W 6248   4.086   5.918   2.980  0.2061  0.2326 -0.1327
 2198W        W 6249   3.876   1.376   1.484 -0.0714  0.0497 -0.0514
 2199W        W 6250  10.138   4.357   1.009  0.0875  0.0418  0.1754
 2200W        W 6251   3.721   6.436  10.133 -0.0809  0.1323  0.0788
 2201W        W 6252   3.595   9.860   9.475  0.0020 -0.0924  0.2955
 2202W        W 6253   7.161   9.543   4.931  0.1916  0.2725  0.0489
 2203W        W 6254   5.525   9.677   1.696 -0.4501  0.4602  0.1513
 2204W        W 6255   1.446   9.693   2.024 -0.0437 -0.1525  0.2638
 2205W        W 6256   3.819   2.771   0.768  0.1172  0.1813 -0.1374
 2206W        W 6257   8.367   2.791   2.385 -0.0746  0.0321 -0.1822
 2207W        W 6258   8.401   0.447  11.133 -0.3559  0.0616  0.0332
 2208W        W 6259   1.155   9.123  13.214  0.1275  0.1960 -0.2263
 2209W        W 6260   0.395   6.443  12.001  0.0565  0.1328  0.4749
 2210W        W 6261   7.613   1.281  13.504  0.1207 -0.2349  0.3552
 2211W        W 6262   4.338  10.047   0.155 -0.0050 -0.0395  0.1318
 2212W        W 6263   4.036   9.989   9.360 -0.0541  0.1377 -0.1558
 2213W        W 6264   1.988   8.864  11.227  0.0163  0.1266 -0.0874
 2214W        W 6265   9.082   8.490   2.396  0.0897  0.1398 -0.1111
 2215W        W 6266  10.170   3.299  10.343 -0.0456  0.1118  0.1229
 2216W        W 6267   1.454   8.298  10.126  0.3007 -0.2854  0.0258
 2217W        W 6268   0.094   1.756   3.269 -0.0300  0.0526  0.3614
 2218W        W 6269   6.564   8.392   2.509 -0.0761 -0.1091  0.0832
 2219W        W 6270   5.350   8.234  12.748  0.3409  0.2105 -0.0930
 2220W        W 6271   1.034   7.708   2.136 -0.0097  0.0454  0.3410
 2221W        W 6272   2.360   9.698  10.979 -0.0876  0.1136  0.1296
 2222W        W 6273   8.454   0.334  10.670 -0.0580 -0.2208 -0.4559
 2223W        W 6274   2.105   0.885   8.809 -0.2082 -0.0801  0.0915
 2224W        W 6275  10.110   2.569   1.271 -0.2116  0.2075 -0.3659
 2225W        W 6276   2.862   1.149  13.028  0.2195  0.0011 -0.2881
 2226W        W 6277   4.835   2.317   3.406 -0.0448 -0.2954  0.0560
 2227W        W 6278   0.957   3.844   4.039  0.0623  0.0467 -0.2097
 2228W        W 6279   8.923   1.677   9.730  0.2991  0.1138 -0.1598
 2229W        W 6280   2.589   1.320  10.867  0.3260  0.1470  0.2696
 2230W        W 6281   2.784   5.185  13.880  0.2786  0.2579 -0.2057
 2231W        W 6282   5.286   9.794  11.565  0.1934  0.0370  0.1588
 2232W        W 6283   5.197   3.197   5.470 -0.1109  0.0806  0.3533
 2233W        W 6284   5.519   0.393   0.877 -0.2186 -0.0571  0.2443
 2234W        W 6285   5.881   9.945   0.405  0.2786  0.0534  0.1109
 2235W        W 6286   4.906   4.101   5.064  0.0542  0.0423  0.1488
 2236W        W 6287   6.440   7.714   3.037 -0.0310 -0.1626 -0.0473
 2237W        W 6288   4.536   6.775   3.013  0.0465  0.1492 -0.1794
 2238W        W 6289   6.550   0.285   3.930 -0.0448 -0.3493  0.0641
 2239W        W 6290   1.396   7.109   0.049  0.0252  0.2227  0.0228
 2240W        W 6291   3.204   6.159  13.020 -0.1732 -0.2066 -0.0016
 2241W        W 6292   9.643   9.470   5.028 -0.2438 -0.0654 -0.0474
 2242W        W 6293   9.096   1.395  12.703  0.1581  0.2094  0.0602
 2243W        W 6294   1.341   0.499   1.867  0.1900  0.2287  0.1333
 2244W        W 6295   5.299   0.598  12.944 -0.0030 -0.3620  0.0550
 2245W        W 6296   0.302   5.410   2.566  0.0683  0.3189  0.0698
 2246W        W 6297   8.198   9.819   0.383 -0.3681 -0.1780 -0.0669
 2247W        W 6298   1.514   0.151  12.838  0.1966  0.0201 -0.1649
 2248W        W 6299   5.909   2.158   2.488  0.0262  0.0686 -0.0970
 2249W        W 6300   6.001   0.979  11.398  0.0949  0.1280 -0.0423
 2250W        W 6301   7.702   9.541   0.816 -0.0161 -0.0270 -0.1049
 2251W        W 6302   8.100   6.482   2.602  0.1686 -0.0276 -0.0598
 2252W        W 6303   0.287   5.949   1.544  0.2706  0.1152  0.0287
 2253W        W 6304   9.530   7.819  11.820  0.0146 -0.0417  0.3095
 2254W        W 6305   2.003   8.653   3.449 -0.0646 -0.0301  0.0044
 2255W        W 6306   8.491   2.513   0.581 -0.0153 -0.3273 -0.2753
 2256W        W 6307   1.431   7.980   1.918 -0.1000 -0.0193  0.1275
 2257W        W 6308   4.344   9.054   5.145 -0.0443  0.1291 -0.0633
 2258W        W 6309   8.393   1.915  13.169 -0.0511  0.0272  0.1970
 2259W        W 6310   5.430   6.894  12.259  0.2271  0.1047 -0.5011
 2260W        W 6311   0.656   9.627   0.145  0.2340  0.0715 -0.0836
 2261W        W 6312   7.108   8.614   1.282  0.0342  0.0615 -0.1760
 2262W        W 6313   3.316   1.702  11.632  0.0752  0.0035  0.0680
 2263W        W 6314   0.285   0.393   4.588  0.1854  0.2004  0.0610
 2264W        W 6315   6.976   9.735   4.154  0.2288  0.0041  0.1912
 2265W        W 6316   0.115   5.076  13.742  0.0449  0.0732 -0.1829
 2266W        W 6317   3.088   1.495   9.585  0.1661 -0.1579 -0.0668
 2267W        W 6318   5.776   4.441   9.294  0.1040 -0.1049 -0.0387
 2268W        W 6319   8.069   9.049   3.409 -0.0182 -0.3173 -0.3248
 2269W        W 6320   4.043   1.998  13.348  0.0964  0.5084  0.1062
 2270W        W 6321   2.333   9.689  13.756  0.1783 -0.0144 -0.0679
 2271W        W 6322   2.275   6.519  11.085 -0.0796  0.2465  0.2080
 2272W        W 6323   3.446   3.992   0.200 -0.2672  0.2823 -0.2935
 2273W        W 6324   3.347   9.596   9.791  0.1134  0.1127  0.4360
 2274W        W 6325   8.585   3.846   1.874 -0.4435  0.3999  0.0800
 2275W        W 6326   5.008   4.942   0.657 -0.1680 -0.1309  0.3022
 2276W        W 6327   1.356   7.980   3.378  0.1682 -0.0010 -0.3068
 2277W        W 6328   2.576   8.439   3.480  0.0600  0.2607  0.0158
 2278W        W 6329   2.626   9.936   1.882  0.1245 -0.0307  0.0919
 2279W        W 6330   6.967   3.630   2.363  0.0827  0.2309 -0.0015
 2280W        W 6331   9.694   2.604   4.312 -0.3233 -0.0487  0.1454
 2281W        W 6332   3.657   8.061  11.839  0.0505 -0.2048 -0.0989
 2282W        W 6333   4.715   8.258   3.491 -0.1025 -0.0502 -0.1528
 2283W        W 6334   2.512   3.134  12.807  0.3600 -0.0048  0.2995
 2284W        W 6335   5.289   7.149   1.527  0.0519  0.1347 -0.0031
 2285W        W 6336  10.007   9.767   0.095  0.0669 -0.1176 -0.0478
 2286W        W 6337   9.730   6.128   0.371  0.3540  0.0757 -0.0490
 2287W        W 6338   0.879   3.702  11.190 -0.0363 -0.1801 -0.3541
 2288W        W 6339   6.851   5.393  11.212  0.0086  0.2506  0.1642
 2289W        W 6340   9.212   9.561  13.231 -0.1176 -0.0066  0.0792
 2290W        W 6341   9.099   4.752   0.468  0.1889  0.0483 -0.3017
 2291W        W 6342   1.790   5.941  13.913  0.1862 -0.1466 -0.2906
 2292W        W 6343   3.262   0.204   2.092  0.2133 -0.1634  0.0527
 2293W        W 6344   8.489   9.850  10.461  0.1006  0.2403  0.1690
 2294W        W 6345   5.293   4.635  12.007  0.0536  0.0781  0.0074
 2295W        W 6346   9.618   8.729  12.799  0.1719  0.2109  0.1427
 2296W        W 6347   7.324   8.164   2.141 -0.0686 -0.4891 -0.2106
 2297W        W 6348   1.914   9.088   4.005 -0.1797  0.0981  0.1065
 2298W        W 6349   6.764   3.039   0.700  0.1870 -0.0048  0.0703
 2299W        W 6350   9.336   5.867   0.138  0.0359 -0.2247 -0.1099
 2300W        W 6351   8.476   2.376  13.901 -0.1612 -0.0798 -0.2222
 2301W        W 6352   0.764   3.255   3.644 -0.1707 -0.0017 -0.1392
 2302W        W 6353   5.645   0.330   4.647 -0.1491  0.2017  0.0793
 2303W        W 6354   1.301   6.486   9.872 -0.0221  0.0344 -0.2073
 2304W        W 6355   7.793   2.021  10.236 -0.1132 -0.0798 -0.0036
 2305W        W 6356   9.994   4.649  13.918 -0.0219 -0.0376  0.0499
 2306W        W 6357   7.277   0.749  11.692  0.1064  0.0899 -0.1646
 2307W        W 6358   9.895   9.678  10.242 -0.2776 -0.2050 -0.1582
 2308W        W 6359   2.600   1.087   1.961  0.2298 -0.1175 -0.1717
 2309W        W 6360   9.614   3.054   3.683 -0.0151  0.0438 -0.0789
 2310W        W 6361   0.079   4.390  11.227  0.0257  0.1778  0.1418
 2311W        W 6362   7.207   8.348   0.729  0.3152  0.1636  0.0641
 2312W        W 6363   0.270   3.097   3.750  0.2457  0.0224 -0.1166
 2313W        W 6364   3.246   4.526   0.194 -0.1216 -0.0114 -0.1913
 2314W        W 6365   4.753   8.933  11.791  0.0403 -0.0966 -0.0444
 2315W        W 6366   8.794   8.865  13.008 -0.1915  0.3003  0.0680
 2316W        W 6367   0.758   6.099   2.979  0.0754  0.3214 -0.1589
 2317W        W 6368   8.443   4.962  10.665  0.2239  0.2543  0.3527
 2318W        W 6369   8.139   1.455  10.496  0.1836 -0.3455 -0.3476
 2319W        W 6370   2.647   9.609  12.529  0.2017  0.1257 -0.0158
 2320W        W 6371   2.214   7.471   3.419 -0.1898 -0.2712 -0.1655
 2321W        W 6372   3.725   3.097  10.699  0.0757 -0.0870  0.1153
 2322W        W 6373   7.246   3.324  12.058 -0.1968  0.0987  0.0812
 2323W        W 6374   9.839   5.104   0.359 -0.2471  0.1023  0.1774
 2324W        W 6375   9.991   5.420   1.967 -0.2032  0.1530 -0.2488
 2325W        W 6376   9.096   9.432  12.125  0.2014  0.0728 -0.0294
 2326W        W 6377   7.421   7.091  12.259  0.0943  0.1421  0.2757
 2327W        W 6378   0.448   8.921   0.056  0.1299 -0.0505  0.2130
 2328W        W 6379   4.006   2.916   4.545  0.1460 -0.0832  0.1460
 2329W        W 6380   7.112   3.093   0.393 -0.2383 -0.0951  0.0210
 2330W        W 6381   9.097   4.696  13.539  0.1839 -0.1524  0.2381
 2331W        W 6382   5.671   9.325   9.885  0.1315 -0.0220 -0.0610
 2332W        W 6383   0.065   2.201   9.566  0.0981 -0.0396  0.0267
 2333W        W 6384   9.705   3.577   2.541  0.2856  0.0129  0.2006
 2334W        W 6385   6.882   6.776   2.179 -0.2189  0.0369  0.0526
 2335W        W 6386   2.886   8.966  11.839 -0.0719 -0.0378 -0.2372
 2336W        W 6387   6.277   6.430  12.689  0.1567  0.0429  0.1950
 2337W        W 6388   5.572   4.896   9.196 -0.1967  0.2696 -0.2291
 2338W        W 6389   3.786   2.867  11.152 -0.2691 -0.2113 -0.2439
 2339W        W 6390   4.943   9.657   0.592  0.1409 -0.0304 -0.0087
 2340W        W 6391   1.460   8.947   4.060 -0.0072 -0.0367  0.5240
 2341W        W 6392   2.605   1.299   1.169  0.1351 -0.0260 -0.0103
 2342W        W 6393   8.317   0.247  12.084 -0.1983 -0.0780 -0.0603
 2343W        W 6394  10.181   1.411  13.097 -0.5612  0.0562 -0.2608
 2344W        W 6395   2.736   3.829  10.525  0.3518  0.0234 -0.1414
 2345W        W 6396   7.914   4.441  11.999  0.1047 -0.1252  0.2939
 2346W        W 6397   4.203   1.974  12.012  0.0409  0.2174 -0.0398
 2347W        W 6398   7.244   5.346  11.551 -0.0814  0.0701 -0.3563
 2348W        W 6399   1.273   5.039   0.025 -0.1199 -0.0194  0.2691
 2349W        W 6400   5.737   9.189  10.925  0.1231  0.1844  0.4590
 2350W        W 6401   6.137   7.282   1.369 -0.2433 -0.3229 -0.2231
 2351W        W 6402   5.298   9.703   3.099 -0.0617 -0.1866 -0.2172
 2352W        W 6403   7.371   6.622   0.018  0.0028 -0.1536 -0.0069
 2353W        W 6404   2.330   9.787   4.564 -0.0091  0.4871 -0.1438
 2354W        W 6405   2.516   4.978  13.486  0.0425  0.0535 -0.3319
 2355W        W 6406   4.889  10.069  11.233 -0.3324  0.0342 -0.0768
 2356W        W 6407   9.904   8.364   1.396 -0.0173  0.0842 -0.1481
 2357W        W 6408   8.273   8.687  11.039 -0.0302 -0.0575  0.0335
 2358W        W 6409   9.160   5.340   1.787  0.1990  0.0374 -0.2630
 2359W        W 6410   7.062   6.141  13.245  0.0010  0.1581  0.1485
 2360W        W 6411   0.908   0.631  10.841 -0.0595 -0.0098 -0.0155
 2361W        W 6412   0.090   9.551   1.379  0.3423  0.1916 -0.0325
 2362W        W 6413   0.465   5.511   1.170 -0.2357 -0.0282  0.1989
 2363W        W 6414   3.601   2.540   3.751  0.1773  0.1729 -0.0486
 2364W        W 6415   5.871   1.466  10.449  0.0344  0.3609 -0.2781
 2365W        W 6416   0.015   7.361  13.869  0.0806  0.0873  0.1208
 2366W        W 6417   9.259   0.647   4.839 -0.2629 -0.0276 -0.3944
 2367W        W 6418   8.770   7.461   2.112 -0.0816  0.0684 -0.3529
 2368W        W 6419   4.390   2.680  13.105  0.0289 -0.0053 -0.4114
 2369W        W 6420   2.343   7.836   2.604  0.2040  0.1263 -0.0173
 2370W        W 6421   2.980   0.598   1.827 -0.0026 -0.2096  0.0146
 2371W        W 6422   0.077   4.608   2.727  0.1058  0.0730  0.2173
 2372W        W 6423   4.724   7.938  11.822 -0.2913  0.2386  0.1004
 2373W        W 6424   3.198   5.805   3.843  0.2170  0.4990 -0.1471
 2374W        W 6425   4.332   0.449   5.512  0.1795 -0.0588  0.0150
 2375W        W 6426   7.019   5.092   2.373  0.0852  0.2493  0.2260
 2376W        W 6427   8.445   6.811   2.569 -0.1382  0.0612  0.1142
 2377W        W 6428   6.378   8.517  12.493 -0.2002  0.0298 -0.2641
 2378W        W 6429   9.842   7.130  12.326 -0.0705  0.2133 -0.1292
 2379W        W 6430   2.357   3.359   4.804 -0.2313 -0.0043  0.2329
 2380W        W 6431   8.128   1.167  12.444 -0.2568  0.5226  0.0871
 2381W        W 6432   5.847   0.818  12.940 -0.1356  0.0334  0.3182
 2382W        W 6433   6.993   9.523  10.038 -0.1827  0.0600 -0.0111
 2383W        W 6434   3.523   4.662   3.043 -0.2015  0.3207 -0.2355
 2384W        W 6435   5.445   8.878   4.346  0.0077 -0.0931  0.1936
 2385W        W 6436   4.077   0.097   4.373  0.3868  0.3185 -0.1828
 2386W        W 6437   4.048   0.655  13.056  0.1511  0.0360  0.0426
 2387W        W 6438   3.538   2.778   4.726  0.1715  0.2626 -0.1616
 2388W        W 6439   6.733   2.311   3.692  0.0260 -0.0589  0.3177
 2389W        W 6440   6.633   7.905   1.201  0.0797 -0.1569  0.1709
 2390W        W 6441   3.997   0.598   9.177 -0.0283  0.2219  0.1234
 2391W        W 6442   4.611   4.241   3.626 -0.2750  0.0479 -0.1730
 2392W        W 6443   6.742   0.886   5.902 -0.2290 -0.0477  0.0027
 2393W        W 6444   6.803  10.145  12.096 -0.1293  0.0245 -0.1177
 2394W        W 6445   4.669   2.031  10.296 -0.1712 -0.0023  0.2962
 2395W        W 6446  10.066   9.096   1.258 -0.0102 -0.1200  0.0421
 2396W        W 6447   5.742   1.761  10.795 -0.0294 -0.0609 -0.2071
 2397W        W 6448   4.149   8.144   4.830  0.2678 -0.0229 -0.1886
 2398W        W 6449   3.101   6.620   2.869 -0.2975 -0.3347 -0.1067
 2399W        W 6450   8.345   1.356  11.263  0.3506  0.3161  0.1104
 2400W        W 6451   9.276   4.502  12.814  0.1512  0.4071 -0.1781
 2401W        W 6452   9.193   8.971   1.473  0.5036 -0.0191 -0.1480
 2402W        W 6453   2.033   4.384   4.608  0.1081  0.2320 -0.1976
 2403W        W 6454   1.406   0.613   4.300 -0.6574  0.1655 -0.1182
 2404W        W 6455   6.488   3.784   3.789 -0.2283  0.1387 -0.0008
 2405W        W 6456   9.246   1.977  13.842 -0.1574 -0.1363  0.0059
 2406W        W 6457   7.479   9.811   4.581 -0.1830 -0.1548 -0.1459
 2407W        W 6458   1.718   1.269  12.208 -0.1088  0.0200 -0.2867
 2408W        W 6459   1.633   6.687   3.747 -0.0214 -0.1909 -0.0923
 2409W        W 6460   2.875   0.020   3.963 -0.2179  0.0950 -0.1119
 2410W        W 6461   9.609   7.415  10.984 -0.0465 -0.1727 -0.3362
 2411W        W 6462   3.172   5.662   2.865  0.4893 -0.1095  0.0957
 2412W        W 6463   3.485   0.716  10.085 -0.1143  0.0583 -0.0331
 2413W        W 6464   6.205   3.631  11.491 -0.1452  0.0934 -0.0587
 2414W        W 6465   1.872   3.405  10.989  0.4132  0.0740  0.0450
 2415W        W 6466   6.519   8.941   2.382 -0.3838 -0.1391 -0.2146
 2416W        W 6467   6.426   3.286   9.478  0.0286 -0.0334  0.0007
 2417W        W 6468   9.036   4.412   0.099  0.0738  0.1612  0.2797
 2418W        W 6469   9.103   9.961   1.068 -0.0093  0.0137  0.2626
 2419W        W 6470   4.629   5.465  13.864  0.1281 -0.1722  0.1135
 2420W        W 6471   7.785   7.170   3.908  0.4921 -0.0038  0.3165
 2421W        W 6472   6.393   3.497  12.931  0.0737  0.1407 -0.0331
 2422W        W 6473   8.585  10.122  12.417  0.0398 -0.1323 -0.1001
 2423W        W 6474  10.108   0.291  10.616 -0.2455  0.0723  0.1533
 2424W        W 6475   0.399   8.263   3.119  0.0786 -0.0927 -0.1886
 2425W        W 6476   9.761   0.494   5.156  0.0271 -0.0877  0.0578
 2426W        W 6477   9.820   2.405   9.383  0.0298  0.2505  0.0138
 2427W        W 6478   4.419   7.835  10.469 -0.4924 -0.0277 -0.0191
 2428W        W 6479   5.113   0.363   4.513  0.0737 -0.2605  0.2282
 2429W        W 6480   8.318   4.202   1.600 -0.0323  0.0655  0.2956
 2430W        W 6481   0.761   5.493   2.260 -0.1961  0.2240 -0.1017
 2431W        W 6482   6.337   2.306   2.264 -0.2518 -0.1247  0.0299
 2432W        W 6483   7.873   6.825   1.310 -0.2099  0.2461 -0.1409
 2433W        W 6484   4.769   1.862   0.499 -0.2300 -0.0882  0.0806
 2434W        W 6485   8.386   0.894   0.121  0.1268  0.0461  0.4787
 2435W        W 6486   1.967   5.949   9.502 -0.0377  0.0723 -0.0984
 2436W        W 6487   7.834   0.575   4.310  0.0611 -0.1040 -0.1198
 2437W        W 6488   5.679   7.205  10.304 -0.1364 -0.2864 -0.3317
 2438W        W 6489   4.995   6.197  12.211  0.0325  0.0048  0.0095
 2439W        W 6490   7.929   1.198   2.308 -0.0935  0.2952 -0.0122
 2440W        W 6491   0.184   6.850   2.167 -0.2868 -0.0636  0.1911
 2441W        W 6492   0.662   5.035   1.074 -0.0973 -0.0858 -0.0079
 2442W        W 6493   2.973  10.073   0.696  0.2226  0.2910 -0.1974
 2443W        W 6494   4.192   4.850   2.974  0.0034 -0.0766  0.1859
 2444W        W 6495   7.831   6.364  10.923  0.2876 -0.2824  0.2158
 2445W        W 6496   1.556   4.142  13.774  0.1794  0.2044  0.1189
 2446W        W 6497   9.943   8.958   3.092  0.3076 -0.0013 -0.0054
 2447W        W 6498   1.711   1.095  10.794 -0.4818 -0.3545  0.1080
 2448W        W 6499   8.909   6.182   0.069  0.1225  0.1384 -0.0855
 2449W        W 6500   9.551   8.865  13.273 -0.2070  0.1319  0.2373
 2450W        W 6501   3.698   9.092  11.043  0.0645  0.0025  0.1404
 2451W        W 6502   2.625   4.664   8.495  0.2589 -0.3020 -0.1569
 2452W        W 6503   2.296   8.414  10.581  0.1621 -0.2637 -0.4606
 2453W        W 6504   4.478   3.507   4.218 -0.0634 -0.1623  0.0993
 2454W        W 6505   6.436   0.027  11.801  0.0157 -0.0769 -0.2554
 2455W        W 6506   9.797   7.410   1.624 -0.2332 -0.2831 -0.0636
 2456W        W 6507   7.193   6.861  10.836 -0.1503  0.1151 -0.3953
 2457W        W 6508   2.092   3.373   2.775 -0.1233 -0.2594 -0.2584
 2458W        W 6509   6.514   1.974   9.566 -0.2305 -0.1926  0.3615
 2459W        W 6510   1.071   1.008  13.777  0.2758  0.4236 -0.0630
 2460W        W 6511   0.241   0.728   9.166  0.0127 -0.3113 -0.0982
 2461W        W 6512   5.436   0.971   9.719  0.2737  0.1425 -0.1533
 2462W        W 6513   3.218   9.964   3.680  0.0088 -0.0573 -0.1783
 2463W        W 6514   4.247   5.260   5.201  0.3709 -0.1315 -0.0885
 2464W        W 6515   0.288   3.163   0.212 -0.0144  0.2571 -0.1457
 2465W        W 6516   0.483   1.481   1.258  0.2694  0.2831  0.3131
 2466W        W 6517   8.247   7.714  12.532 -0.2258 -0.0066  0.0307
 2467W        W 6518   7.072   6.393  11.050 -0.0778  0.0436  0.0537
 2468W        W 6519  10.111   5.036   1.665  0.0317  0.0717  0.1699
 2469W        W 6520   6.257   9.765  10.534 -0.0655  0.0792 -0.0694
 2470W        W 6521   2.367   6.103   4.300 -0.1438 -0.0955  0.3649
 2471W        W 6522   4.377   2.565   4.277  0.2392  0.0441 -0.0884
 2472W        W 6523   6.288   3.916  12.316  0.0355  0.1751 -0.0485
 2473W        W 6524   9.118   0.111   0.367 -0.3061 -0.0396 -0.1134
 2474W        W 6525   3.281   9.108   9.869 -0.2602 -0.2292 -0.1338
 2475W        W 6526   5.180   7.565  11.038 -0.1203  0.0489 -0.1408
 2476W        W 6527   3.643   3.270   4.582  0.1470 -0.1129  0.0647
 2477W        W 6528  10.186   2.579   4.356 -0.1612  0.4442 -0.4282
 2478W        W 6529   4.913   1.578   0.122 -0.0847 -0.2236 -0.2077
 2479W        W 6530   5.987   8.150   3.186  0.4198 -0.3065  0.1178
 2480W        W 6531   1.366   0.584   0.801  0.0702  0.1270 -0.0469
 2481W        W 6532   0.268   9.132   9.946 -0.1205  0.0151  0.0457
 2482W        W 6533   5.941   2.436  11.808 -0.0025  0.0187  0.2684
 2483W        W 6534   4.329   5.100  11.973  0.0129  0.0420  0.0941
 2484W        W 6535   4.749   2.843  10.599 -0.1177 -0.0612 -0.4550
 2485W        W 6536   9.964   9.242   1.730 -0.2956  0.1550 -0.4645
 2486W        W 6537   9.604   3.094   2.437  0.1366  0.2856 -0.0185
 2487W        W 6538   8.933   1.033   2.271 -0.1025  0.2682 -0.0217
 2488W        W 6539  10.016   2.667  10.984  0.1048  0.1533 -0.1356
 2489W        W 6540   5.199   5.156   5.652  0.1697  0.0700  0.1719
 2490W        W 6541   1.539   2.389   9.994  0.3478 -0.0882  0.1104
 2491W        W 6542   1.727   8.117   1.406 -0.0917 -0.1359  0.2904
 2492W        W 6543   3.470   8.348  10.499 -0.1287 -0.0606  0.0151
 2493W        W 6544   3.341   5.234  10.525  0.1287 -0.1112  0.2364
 2494W        W 6545   6.068   0.408   9.715 -0.0985 -0.0498 -0.0258
 2495W        W 6546   7.237   4.134  13.815  0.4166  0.3247  0.3149
 2496W        W 6547   2.501   3.626   2.537 -0.2518  0.0713  0.0217
 2497W        W 6548   6.594   1.453  11.655 -0.0192  0.1736  0.3200
 2498W        W 6549   8.279   0.484   4.522 -0.2601  0.0452  0.2996
 2499W        W 6550   3.314   5.011   0.088 -0.0685 -0.3397 -0.0038
 2500W        W 6551   8.946   9.351   4.468 -0.0940 -0.1314  0.1172
 2501W        W 6552   5.631   4.378   4.152  0.1109 -0.0277  0.0414
 2502W        W 6553   4.267   7.937  10.983 -0.1831 -0.3341  0.0078
 2503W        W 6554   1.463   9.708  13.621 -0.0493  0.1305 -0.0878
 2504W        W 6555   9.083   9.999  10.933  0.3518  0.1177  0.1138
 2505W        W 6556   1.101   4.744   1.798 -0.0139  0.0451 -0.2332
 2506W        W 6557   8.462   3.798   2.344  0.4267  0.0230 -0.3670
 2507W        W 6558   1.487   3.369   4.695  0.1613  0.0110 -0.0476
 2508W        W 6559   0.541   2.715   4.189  0.2901  0.2454  0.1949
 2509W        W 6560   6.295   3.226  13.674  0.1624  0.0148  0.0388
 2510W        W 6561   9.429   0.439  11.146 -0.0602 -0.0659 -0.0761
 2511W        W 6562   1.352   9.181   2.970 -0.5577 -0.0561  0.0241
 2512W        W 6563   1.388   9.880   2.523  0.1173  0.0289  0.0039
 2513W        W 6564   5.531   0.763   4.852  0.4220 -0.0829 -0.0500
 2514W        W 6565   8.893   2.082   2.244 -0.2314  0.4631  0.1125
 2515W        W 6566   3.392   0.329   8.638 -0.0614  0.1400 -0.1341
 2516W        W 6567   1.815   0.251   1.929  0.0959 -0.2103 -0.0796
 2517W        W 6568   3.997   5.957  10.126 -0.1443 -0.1054  0.0354
 2518W        W 6569   7.306   1.677  11.778 -0.0302  0.2069 -0.1765
 2519W        W 6570   4.422   2.035   5.471 -0.2621 -0.3275  0.0002
 2520W        W 6571   2.127   5.568   1.866 -0.2157 -0.0693 -0.2307
 2521W        W 6572   3.780   5.835   9.273 -0.2457  0.2122  0.1801
 2522W        W 6573   2.033   2.740  10.737  0.0927 -0.0339  0.1132
 2523W        W 6574   8.470   0.116   9.489 -0.2676 -0.3102  0.2912
 2524W        W 6575   3.450   7.682  12.780  0.1629  0.0230 -0.2038
 2525W        W 6576  10.047   4.693  13.433 -0.1931 -0.1319  0.1138
 2526W        W 6577   9.551   2.044   1.938 -0.1388  0.1199  0.1533
 2527W        W 6578   4.884   7.882   2.114 -0.3311 -0.0830 -0.4170
 2528W        W 6579   8.327   7.825  12.085  0.0385 -0.0137  0.4851
 2529W        W 6580   7.422   9.043   1.170  0.1308 -0.1946 -0.0165
 2530W        W 6581   6.253   1.797  10.846 -0.1040  0.2186  0.1548
 2531W        W 6582   4.264   1.477   5.442 -0.1218 -0.1304 -0.2745
 2532W        W 6583   5.182   7.570   4.797 -0.0641  0.1429  0.0597
 2533W        W 6584   7.701   3.012   3.566 -0.1486  0.2524 -0.0306
 2534W        W 6585   5.383   6.705   0.464  0.0924  0.2877 -0.1460
 2535W        W 6586   8.429   4.358  12.761 -0.0527 -0.1156 -0.3960
 2536W        W 6587   5.962   9.050   4.350  0.0820  0.0762  0.0927
 2537W        W 6588   3.690   3.980   9.880  0.1165 -0.1359  0.2772
 2538W        W 6589   3.489   5.439   9.942 -0.0150 -0.1498  0.0051
 2539W        W 6590   0.685   0.619   5.162 -0.0126  0.0449 -0.0627
 2540W        W 6591   2.891   1.151  12.053 -0.2949  0.1956  0.1896
 2541W        W 6592   8.486   4.517  12.273 -0.1449  0.0963 -0.3202
 2542W        W 6593   8.949   3.901   2.304 -0.1529  0.0926  0.2917
 2543W        W 6594   9.626   1.809   1.513 -0.0360  0.1355  0.0582
 2544W        W 6595   2.221   9.849   0.298 -0.1442 -0.1496 -0.1831
 2545W        W 6596   2.216   7.822  13.336 -0.2303  0.0469 -0.2520
 2546W        W 6597   7.745   7.162   0.744  0.2131 -0.4074 -0.0448
 2547W        W 6598   1.342   8.307   2.965 -0.1683 -0.2978 -0.0577
 2548W        W 6599   9.940   8.693  10.194 -0.1212 -0.1619 -0.0411
 2549W        W 6600   6.508   0.446  13.887 -0.0638  0.2991 -0.2454
 2550W        W 6601   1.824   9.510   0.011  0.0700 -0.2473  0.1280
 2551W        W 6602   2.797   6.975   0.943 -0.1191 -0.3896 -0.3546
 2552W        W 6603  10.010   1.069   2.339  0.1834 -0.0714 -0.0313
 2553W        W 6604   8.676   6.451  13.621 -0.0732  0.1422  0.0739
 2554W        W 6605   6.213   6.079  12.335  0.1748  0.0192 -0.1138
 2555W        W 6606   1.273   2.523  10.868  0.1226  0.0442  0.0510
 2556W        W 6607   4.976   9.342  11.882 -0.1184 -0.1684 -0.0901
 2557W        W 6608   4.922   7.998   1.298  0.1823  0.2129  0.2028
 2558W        W 6609   6.523   9.154  11.337  0.1402 -0.0924 -0.0178
 2559W        W 6610   9.494   1.086   2.487  0.0251  0.0043 -0.0667
 2560W        W 6611   2.464   8.482   0.942  0.0789  0.1411 -0.2618
 2561W        W 6612   6.397   0.516  11.744  0.0555  0.1354  0.0184
 2562W        W 6613   3.194   1.975  13.652  0.1651  0.3816 -0.0747
 2563W        W 6614  10.098   3.288  13.299  0.1554 -0.0474  0.2047
 2564W        W 6615   3.388   1.904  11.051  0.1146 -0.1672 -0.0639
 2565W        W 6616   7.978   2.507  10.365 -0.3761  0.2101  0.0108
 2566W        W 6617   7.636   5.655   2.948  0.0286 -0.3182  0.2826
 2567W        W 6618   8.063   2.884  11.536  0.1750  0.0925  0.1735
 2568W        W 6619   0.406   0.218   9.303  0.3266 -0.0962  0.2010
 2569W        W 6620   9.087   7.320  12.463  0.0560 -0.2134  0.1366
 2570W        W 6621   3.910   1.059   0.745 -0.1666 -0.0601  0.0913
 2571W        W 6622   7.171   4.504  11.289  0.1305  0.0023 -0.0278
 2572W        W 6623   1.084   1.583  11.014  0.0707  0.1101 -0.0912
 2573W        W 6624   2.325   5.483  12.837  0.3451 -0.1011 -0.0435
 2574W        W 6625   8.452   5.201   2.948  0.2760 -0.0068  0.2317
 2575W        W 6626  10.077   2.626   0.446  0.1221  0.1893  0.1511
 2576W        W 6627   3.812   5.283  10.782 -0.1084 -0.3103  0.2558
 2577W        W 6628   6.935  10.177  12.646  0.0021 -0.1090 -0.2109
 2578W        W 6629   8.898   5.540   2.817  0.1110  0.2195 -0.0531
 2579W        W 6630   3.498   5.800  11.370 -0.3291  0.1164 -0.3207
 2580W        W 6631   3.676   5.603  10.406  0.1740  0.2183  0.0079
 2581W        W 6632   7.415   2.137   9.285 -0.1439  0.1013 -0.0532
 2582W        W 6633   3.901   2.964  12.660  0.2544  0.3349  0.0970
 2583W        W 6634   1.453   3.903   0.664  0.1343 -0.3584 -0.1771
 2584W        W 6635   6.201   9.686   9.254  0.1877 -0.1073 -0.2685
 2585W        W 6636   7.025   2.137   0.912  0.2629  0.0745 -0.0892
 2586W        W 6637   2.397   7.047   9.382 -0.2523  0.3073 -0.0189
 2587W        W 6638   7.078   3.693   0.944  0.0425  0.0092 -0.3691
 2588W        W 6639   4.306   5.600  12.116  0.2044 -0.0967  0.0398
 2589W        W 6640   2.465   4.074  13.229 -0.1298  0.1006 -0.1243
 2590W        W 6641   0.977   4.774  10.960 -0.2600 -0.0104 -0.4030
 2591W        W 6642   8.118   2.656   0.289 -0.0709  0.0053  0.1777
 2592W        W 6643   0.956   6.514  13.385 -0.2829  0.0460  0.2075
 2593W        W 6644   7.268   1.329  13.003 -0.0595 -0.4373  0.2357
 2594W        W 6645   4.608   0.119  12.517  0.0276  0.0447  0.1444
 2595W        W 6646   7.673   4.294   1.130  0.1597  0.0670 -0.3217
 2596W        W 6647   5.200   3.627   2.718  0.2278  0.0425  0.1940
 2597W        W 6648   1.615   3.682  13.618  0.1877 -0.0477  0.1334
 2598W        W 6649   5.508   9.272   3.048 -0.1011 -0.1232  0.2205
 2599W        W 6650   9.842   4.733   3.184  0.0089 -0.1848  0.3907
 2600W        W 6651   9.629   7.416   3.376  0.0708 -0.1108  0.0930
 2601W        W 6652   2.597   8.579   2.666 -0.1444  0.0175 -0.4931
 2602W        W 6653   4.604   9.928   2.405 -0.0485  0.0272 -0.1872
 2603W        W 6654   6.829   2.493  13.341  0.3907 -0.4703 -0.0808
 2604W        W 6655   6.631   5.893   2.041 -0.0406 -0.0406  0.2509
 2605W        W 6656   6.852   0.630   1.162 -0.2057  0.1230  0.1297
 2606W        W 6657   8.766   3.372   1.523  0.1727 -0.2004  0.2271
 2607W        W 6658   9.901   0.250   3.664 -0.1322 -0.1108 -0.2226
 2608W        W 6659   1.400  10.094   3.005  0.3074  0.0239  0.0927
 2609W        W 6660   0.592   4.712   4.003 -0.2124  0.0216  0.0212
 2610W        W 6661   6.306   5.251  12.247 -0.1090 -0.3663  0.0151
 2611W        W 6662   2.168   4.479  11.601 -0.1818  0.1537  0.0830
 2612W        W 6663   1.821   3.203   9.903  0.1123 -0.0961 -0.3197
 2613W        W 6664   8.122   3.033  12.134 -0.1624 -0.2780  0.0632
 2614W        W 6665   3.600   7.424   1.816  0.3726 -0.1650 -0.1963
 2615W        W 6666   5.206   9.790   2.111  0.0290  0.1458 -0.0677
 2616W        W 6667   4.989   3.781  13.050 -0.0176  0.3626  0.1103
 2617W        W 6668   0.315   9.424   3.006 -0.1331 -0.1263 -0.2400
 2618W        W 6669   9.765   2.450   8.911 -0.1462 -0.1148  0.0969
 2619W        W 6670   1.877   6.900   0.096  0.1427 -0.0647 -0.2205
 2620W        W 6671   2.537   7.310   2.764 -0.0089 -0.1013 -0.2070
 2621W        W 6672   2.769   6.790   4.526  0.0144 -0.2081 -0.1114
 2622W        W 6673   3.463   3.104  13.848  0.0151 -0.1886  0.2489
 2623W        W 6674   1.975   6.938   2.500  0.0603 -0.1480 -0.0422
 2624W        W 6675   2.553   2.713   3.683 -0.3104  0.2554  0.1357
 2625W        W 6676   4.590   9.466   1.407 -0.2706  0.0826 -0.1450
 2626W        W 6677   9.824   7.459   0.626 -0.1158  0.1485 -0.1153
 2627W        W 6678   8.314   5.801  10.175 -0.3151  0.1145 -0.0531
 2628W        W 6679   0.759   1.168   3.473  0.2992 -0.0460  0.0361
 2629W        W 6680   6.880   3.636   3.449 -0.2098 -0.4507  0.1022
 2630W        W 6681   3.329   3.259   2.060 -0.0094 -0.0214  0.0454
 2631W        W 6682   7.319   1.324  13.938 -0.1191 -0.1795  0.4490
 2632W        W 6683   0.113   9.803   5.103 -0.0400  0.2301  0.0259
 2633W        W 6684  10.043   1.825   2.879 -0.0166  0.1761  0.2969
 2634W        W 6685   2.131   6.737  11.512 -0.0698 -0.1927  0.0943
 2635W        W 6686   2.395   1.876   4.321 -0.2915 -0.2679 -0.1498
 2636W        W 6687   2.899   8.658   0.722 -0.0416 -0.2167 -0.2006
 2637W        W 6688   0.755   8.451  12.918 -0.1512 -0.1489  0.0165
 2638W        W 6689   4.480   9.331  12.087 -0.0079 -0.1919 -0.0971
 2639W        W 6690   6.855   6.805   9.772 -0.0742 -0.0029 -0.2899
 2640W        W 6691   1.377   1.846   2.063 -0.0431  0.1571 -0.0662
 2641W        W 6692   1.568   7.259   2.652  0.0024  0.2027 -0.0390
 2642W        W 6693   4.646   7.296   9.217 -0.1671 -0.2677  0.1870
 2643W        W 6694   1.743   2.138   1.468  0.4073  0.0340  0.0105
 2644W        W 6695   8.517   0.714   3.573 -0.0050  0.0139  0.0225
 2645W        W 6696   8.526   5.938  10.596 -0.2387 -0.0889  0.0138
 2646W        W 6697   8.129   7.058  13.420 -0.1705  0.2964  0.0242
 2647W        W 6698   5.800   3.796   1.365  0.2392 -0.3423  0.0747
 2648W        W 6699   4.618   6.583  13.040  0.3414 -0.0215  0.1911
 2649W        W 6700   7.317   9.161   1.695 -0.0618 -0.1560  0.1483
 2650W        W 6701   8.312   1.164   0.739 -0.0501  0.3800  0.0442
 2651W        W 6702   4.908   0.868   2.239 -0.3164  0.4199  0.3642
 2652W        W 6703   8.874   6.842  11.975 -0.1366  0.4237 -0.1842
 2653W        W 6704   1.285   1.136  11.082 -0.1388  0.1301 -0.0950
 2654W        W 6705   7.939   5.763  11.067  0.0335  0.0878  0.0859
 2655W        W 6706   3.010   2.425   3.066  0.2875  0.0336 -0.2558
 2656W        W 6707   5.553   9.734   1.146 -0.1733 -0.4585  0.0542
 2657W        W 6708   2.133   3.126  11.766 -0.0560  0.2604  0.0059
 2658W        W 6709   4.339   1.538   2.112 -0.3849 -0.0094  0.0850
 2659W        W 6710   2.854   1.115  13.528  0.3548  0.0363  0.0943
 2660W        W 6711   1.224   3.695   9.423 -0.3949  0.0671 -0.0911
 2661W        W 6712   3.727   3.056   1.734 -0.0045 -0.2500 -0.0097
 2662W        W 6713  10.144   5.405   0.087  0.0879  0.1921  0.0553
 2663W        W 6714   1.474   2.643  13.430  0.1091 -0.2310 -0.1376
 2664W        W 6715   2.701   7.585  12.140 -0.2599 -0.0728  0.1012
 2665W        W 6716   4.621   1.875   4.531  0.2769  0.1311 -0.3737
 2666W        W 6717   8.062   2.031   0.734 -0.1548 -0.0409 -0.0531
 2667W        W 6718   3.584   9.013   0.439 -0.0563  0.0129 -0.1952
 2668W        W 6719   4.143   2.546  12.477 -0.0024  0.1407 -0.0360
 2669W        W 6720   4.783   2.709   9.652  0.1141  0.1307 -0.1492
 2670W        W 6721   1.675   3.535  11.728 -0.1244 -0.1702 -0.0254
 2671W        W 6722   0.766   6.260  11.503  0.1204 -0.1034  0.1317
 2672W        W 6723   0.972   5.633   9.823  0.0060 -0.1497  0.0254
 2673W        W 6724   2.641   2.149  12.726 -0.0147 -0.1827  0.2457
 2674W        W 6725   6.101   3.205  11.273  0.1720  0.0840 -0.0748
 2675W        W 6726   6.034   8.941   1.259 -0.0057 -0.1425  0.2965
 2676W        W 6727   6.448   6.557   0.762  0.1770 -0.3271 -0.2320
 2677W        W 6728   1.266   9.049   1.208 -0.0318 -0.0703  0.2663
 2678W        W 6729   9.065   6.655  13.382  0.3469 -0.2408 -0.2570
 2679W        W 6730   0.865   3.198  11.283 -0.0364  0.3661  0.1038
 2680W        W 6731   8.495   3.493   0.921 -0.2006 -0.3055  0.0229
 2681W        W 6732   6.026   5.705  13.836 -0.1579  0.0356 -0.3053
 2682W        W 6733   3.641   9.694   4.021  0.1343  0.1944  0.0883
 2683W        W 6734   8.345   2.340   3.030 -0.1498  0.0554 -0.2951
 2684W        W 6735   1.289   8.379  12.011 -0.0270  0.1216  0.1229
 2685W        W 6736   8.774   5.193   4.317 -0.1427 -0.1108  0.2467
 2686W        W 6737   6.919   9.257   1.109 -0.0908 -0.1760  0.2462
 2687W        W 6738   6.369   5.634   2.944  0.1468 -0.1537  0.1416
 2688W        W 6739   1.402   5.577  11.778  0.1404  0.0674 -0.3186
 2689W        W 6740   9.703   0.862   0.399  0.1051  0.2258  0.0895
 2690W        W 6741   8.359   5.023   4.139  0.0735  0.0416 -0.3225
 2691W        W 6742   1.504   5.767   3.518 -0.0977  0.2245 -0.2891
 2692W        W 6743   0.467   3.567  12.531 -0.0392 -0.3400 -0.0127
 2693W        W 6744   0.590   2.004   5.026 -0.4061 -0.1295 -0.4623
 2694W        W 6745   3.247   8.286  12.187  0.0852  0.0357  0.0427
 2695W        W 6746   6.189   8.906  11.085 -0.4795 -0.1103  0.0836
 2696W        W 6747   1.048   5.700   0.563 -0.1469 -0.1920  0.2249
 2697W        W 6748   4.955   4.745  11.481  0.1459 -0.3479  0.1707
 2698W        W 6749   4.846   4.892  11.984 -0.1719  0.1152 -0.0244
 2699W        W 6750   5.178   8.323  10.184  0.0420 -0.2328  0.2868
 2700W        W 6751   8.834   7.839   4.045  0.2306  0.0251  0.1654
 2701W        W 6752   9.213   5.698  11.682 -0.1334 -0.0853 -0.2383
 2702W        W 6753   2.865   4.150  10.134 -0.1114 -0.0421  0.4460
 2703W        W 6754   5.883   0.700  10.141  0.0966 -0.0820 -0.1742
 2704W        W 6755   5.208   5.734  10.434 -0.0170 -0.1478  0.0057
 2705W        W 6756   8.844   8.811   3.327  0.1326  0.1660  0.0460
 2706W        W 6757   4.766   3.295  12.569  0.1736 -0.0684 -0.1316
 2707W        W 6758   8.583   9.758  11.508 -0.0760 -0.1751  0.0583
 2708W        W 6759   7.120   5.774   0.304 -0.3923 -0.2762 -0.0326
 2709W        W 6760   0.865   0.972  12.235  0.2099 -0.2192  0.3414
 2710W        W 6761   0.142   8.605   9.770  0.4290  0.0804 -0.0331
 2711W        W 6762   8.272   6.586  12.528  0.0840 -0.1907 -0.1718
 2712W        W 6763   1.215   7.153   1.338  0.0229 -0.0242  0.0389
 2713W        W 6764   1.360   0.761  11.567  0.0487 -0.1309 -0.0659
 2714W        W 6765   4.470   2.481  10.422  0.3121 -0.4240 -0.1118
 2715W        W 6766   5.704   2.180   0.516 -0.1894  0.2977 -0.1762
 2716W        W 6767   6.419   9.236   1.424  0.1140  0.2755 -0.0537
 2717W        W 6768   9.100   0.155   3.966  0.0807 -0.1691 -0.0454
 2718W        W 6769   8.599   5.315  12.987  0.2466 -0.1445  0.0167
 2719W        W 6770   9.524   5.706   2.011 -0.0361  0.0865 -0.0028
 2720W        W 6771   9.965   2.988   4.568  0.1376  0.1550 -0.0582
 2721W        W 6772   6.828   1.111  13.862 -0.1396  0.1622  0.2534
 2722W        W 6773   9.637   3.158   0.992  0.2381  0.1453  0.1865
 2723W        W 6774   7.832   4.031  10.633 -0.4558  0.1222 -0.1994
 2724W        W 6775   1.010   8.872  12.147 -0.1765  0.0640 -0.1395
 2725W        W 6776   2.600   1.800   3.480 -0.1396  0.1408  0.0350
 2726W        W 6777   6.730   3.806   1.329 -0.1115 -0.1934  0.0727
 2727W        W 6778   6.785   3.208   1.361 -0.1477 -0.0293 -0.3126
 2728W        W 6779   5.323   4.238  11.565 -0.0623  0.3644  0.1990
 2729W        W 6780   5.924   9.869   4.050  0.1330 -0.0963  0.1391
 2730W        W 6781   1.097   0.388   3.940 -0.0908  0.0654 -0.2546
 2731W        W 6782   8.063   5.482   0.824 -0.1546  0.0826  0.0357
 2732W        W 6783   2.445   5.266   1.632  0.0881  0.0424 -0.3082
 2733W        W 6784   5.428   7.851  11.363  0.2154 -0.0696  0.2354
 2734W        W 6785   4.333   0.211  13.776  0.0828  0.0908 -0.0564
 2735W        W 6786   9.576   1.880  10.912  0.3641 -0.0846 -0.5139
 2736W        W 6787   9.010   7.752   0.130  0.0625 -0.0641 -0.2598
 2737W        W 6788   9.802   0.459  13.843  0.0557 -0.2234 -0.1918
 2738W        W 6789   0.150   1.365  10.107 -0.0539 -0.0254  0.0287
 2739W        W 6790   5.318   3.661  10.186  0.1344 -0.3245 -0.1506
 2740W        W 6791   3.028   0.555   2.442  0.1433 -0.0277 -0.2416
 2741W        W 6792   4.560   0.458   2.559 -0.0713  0.1395  0.0379
 2742W        W 6793   2.643   7.316  13.599 -0.0958 -0.0949 -0.0102
 2743W        W 6794   2.117   0.401  12.591 -0.2229 -0.0040  0.1712
 2744W        W 6795   6.712   3.365  12.482  0.3664 -0.0112 -0.3106
 2745W        W 6796   0.496   6.541   3.050  0.0210 -0.3435  0.2948
 2746W        W 6797   5.613   4.499   9.809  0.1917  0.2690  0.0572
 2747W        W 6798   9.236   6.985  11.566 -0.0320 -0.2033 -0.1814
 2748W        W 6799   4.382   5.445   2.460 -0.0424 -0.0868  0.1649
 2749W        W 6800   9.238   0.234  10.062  0.0908  0.1149  0.4045
 2750W        W 6801   9.752   4.370  13.095  0.0120  0.0543  0.2950
 2751W        W 6802   4.953   6.688  12.111  0.1549 -0.3240  0.2235
 2752W        W 6803   4.964   2.867  12.680  0.0967 -0.3908 -0.0127
 2753W        W 6804   6.325   7.362  12.924  0.1480 -0.0090 -0.1713
 2754W        W 6805   5.821   6.858  11.189  0.3750 -0.0432  0.1085
 2755W        W 6806   3.774   3.973  11.851  0.2101 -0.0948  0.1983
 2756W        W 6807   6.428   4.375   2.945 -0.2186 -0.0542  0.2884
 2757W        W 6808   2.695   4.496  10.456 -0.0415 -0.1163  0.0133
 2758W        W 6809   8.434   5.353  12.352  0.0687 -0.0797  0.3242
 2759W        W 6810   6.087   4.756  13.511  0.0662  0.0211  0.0149
 2760W        W 6811   6.119   5.396  10.553  0.0885 -0.0193  0.2837
 2761W        W 6812   0.218   2.827   8.486  0.0204 -0.0944 -0.1406
 2762W        W 6813   9.831   2.291   0.105 -0.1932  0.0612  0.1710
 2763W        W 6814   2.557   0.695  12.530  0.0146  0.2179  0.1632
 2764W        W 6815   8.312   1.413  12.981  0.0423  0.1463 -0.0660
 2765W        W 6816   5.352   4.467  10.257 -0.3570  0.1094 -0.4071
 2766W        W 6817   4.257   6.083   3.760  0.0308  0.0646 -0.0022
 2767W        W 6818   3.269   5.779   9.577  0.0607  0.1976 -0.2781
 2768W        W 6819   8.878   2.100   3.821 -0.1570 -0.1547 -0.1087
 2769W        W 6820   3.071   4.180   1.953  0.0642 -0.0728  0.0833
 2770W        W 6821   3.190   2.689   0.066  0.2575  0.0859  0.1286
 2771W        W 6822  10.185   0.015   3.357 -0.2140  0.1541  0.1095
 2772W        W 6823   6.905   7.464  13.145 -0.1612 -0.0265 -0.0367
 2773W        W 6824   1.174   2.263   3.294  0.3301  0.0195 -0.0748
 2774W        W 6825   2.814   8.409  13.027 -0.0673  0.3378  0.0353
 2775W        W 6826   1.388   5.093   1.323 -0.0712 -0.1495  0.2098
 2776W        W 6827   9.190   2.944   0.088  0.0843 -0.0790 -0.1131
 2777W        W 6828   4.622   4.122  12.148  0.1961 -0.0265 -0.1816
 2778W        W 6829   7.565   2.945   1.847 -0.2063  0.1392  0.1337
 2779W        W 6830   3.719   2.841  12.216 -0.1977  0.0573  0.1714
 2780W        W 6831   6.675   0.038   3.032 -0.0146 -0.0633 -0.0174
 2781W        W 6832   1.006   9.742   1.660  0.1015 -0.0243 -0.3187
 2782W        W 6833   1.901   6.904   9.407  0.1238 -0.0903  0.0249
 2783W        W 6834   4.452   4.179  11.394 -0.1162  0.0971  0.0067
 2784W        W 6835   7.089   2.290  11.010 -0.0744  0.0217 -0.2650
 2785W        W 6836   7.309   9.330   4.361 -0.1549 -0.0172  0.2548
 2786W        W 6837   4.907   1.745   9.074  0.0831 -0.1229 -0.0574
 2787W        W 6838   7.024   6.801   3.089 -0.0519  0.1030  0.2823
 2788W        W 6839   3.373  10.073   9.053 -0.0173 -0.3354 -0.1333
 2789W        W 6840   9.450   8.478   1.390 -0.0258  0.2906  0.1584
 2790W        W 6841   3.540   1.986   1.878  0.2020 -0.2820 -0.0109
 2791W        W 6842   2.185   6.178   0.755 -0.3393  0.0498 -0.1441
 2792W        W 6843   7.251  10.129  10.573 -0.0669 -0.0974  0.1218
 2793W        W 6844   4.608   0.577   1.269  0.0212  0.1606 -0.1422
 2794W        W 6845   6.449   9.730   1.622 -0.0838 -0.0233  0.0987
 2795W        W 6846   0.374   8.147  11.691 -0.1461  0.1082 -0.3369
 2796W        W 6847   2.066   5.111  12.587  0.0639 -0.3470 -0.1644
 2797W        W 6848   5.304   3.184   9.686  0.0425  0.1953  0.1537
 2798W        W 6849   1.640   9.109   0.422 -0.1660 -0.0866  0.0580
 2799W        W 6850   0.125   1.863   9.940  0.0779  0.0884  0.0638
 2800W        W 6851   2.820   5.990   3.489 -0.1022  0.1668  0.1014
 2801W        W 6852   4.761   0.988   2.754  0.1997 -0.0807 -0.2108
 2802W        W 6853   4.988   9.285   2.759 -0.0680 -0.2717 -0.2738
 2803W        W 6854   4.944   5.664  10.993 -0.1093 -0.1051  0.0758
 2804W        W 6855   4.585   2.603   1.187 -0.1271 -0.0277 -0.1245
 2805W        W 6856   5.131   7.337  12.234  0.2445  0.0242 -0.5234
 2806W        W 6857   9.073   0.725  11.388  0.0406  0.1663  0.1775
 2807W        W 6858   8.397   6.856  12.009  0.2036  0.2630 -0.1128
 2808W        W 6859   1.858   7.965   0.911 -0.0441 -0.4472 -0.1445
 2809W        W 6860   0.813   5.114   2.632 -0.2668  0.0038 -0.0234
 2810W        W 6861   8.027   4.714  10.650  0.2449  0.2404  0.1231
 2811W        W 6862   9.771   4.773   9.630 -0.0135 -0.0052 -0.0120
 2812W        W 6863   8.669  10.169  11.890 -0.0911 -0.2415  0.0608
 2813W        W 6864   7.234   1.600  12.532 -0.0577 -0.1900 -0.2292
 2814W        W 6865   1.404   6.677   9.049  0.0285  0.0919  0.0861
 2815W        W 6866   1.143   9.948  13.194 -0.1117 -0.0953 -0.0151
 2816W        W 6867   8.963   9.494   3.962  0.1253  0.1073 -0.3724
 2817W        W 6868   0.562   6.696   0.310  0.2158 -0.2067 -0.0458
 2818W        W 6869   5.070   7.022  13.122  0.2220 -0.0345 -0.0694
 2819W        W 6870   1.786   0.084   4.570 -0.1753 -0.1127  0.2657
 2820W        W 6871   4.714   9.872  11.712  0.1354  0.1110  0.2713
 2821W        W 6872   5.181   0.458   2.499 -0.2082 -0.4118  0.0615
 2822W        W 6873   0.806   5.984   1.336 -0.0326 -0.1155  0.1127
 2823W        W 6874   7.650   1.883   4.500  0.0221  0.1115  0.3428
 2824W        W 6875   0.855   2.710  11.628  0.1450 -0.0229 -0.1178
 2825W        W 6876   2.574   0.657   2.942 -0.0280  0.1523  0.4294
 2826W        W 6877   1.022   6.219   0.412 -0.1379 -0.3036  0.0963
 2827W        W 6878   2.191   8.558   9.612  0.1302  0.0552 -0.3346
 2828W        W 6879   6.777   5.032  11.547 -0.1929  0.1566 -0.2021
 2829W        W 6880   0.930   4.675   2.397  0.2713 -0.0515  0.3952
 2830W        W 6881   6.410   3.156   1.737 -0.3341  0.0010  0.1765
 2831W        W 6882   1.915   0.206   3.630  0.2978 -0.2321  0.1726
 2832W        W 6883   6.121   2.607   2.630 -0.0548 -0.2690  0.0022
 2833W        W 6884   2.039  10.079   9.171  0.1206  0.1245 -0.0217
 2834W        W 6885   6.014   3.212   9.731  0.3392  0.0799  0.0206
 2835W        W 6886   3.334   8.068   0.823  0.0926 -0.2546 -0.0875
 2836W        W 6887   2.966   3.877   0.198 -0.0660 -0.0069 -0.1740
 2837W        W 6888   3.422   2.734   4.248  0.0668  0.0791 -0.2290
 2838W        W 6889   7.177   4.905   2.904 -0.0717 -0.0640 -0.0562
 2839W        W 6890   4.876   6.217   2.402  0.0269  0.1608 -0.1625
 2840W        W 6891   8.063   4.241  11.531  0.3102  0.0912 -0.1791
 2841W        W 6892   6.238   7.846   1.570  0.0350 -0.1646 -0.2123
 2842W        W 6893   3.880   8.666  11.286  0.3251  0.4539  0.0990
 2843W        W 6894   4.950   4.990   3.558 -0.1036 -0.1647 -0.0313
 2844W        W 6895   3.485   1.380  10.150 -0.0466 -0.1509 -0.1292
 2845W        W 6896   8.263   0.956  10.704 -0.0590 -0.1778  0.2693
 2846W        W 6897   3.085   4.649   1.205 -0.3432  0.0839  0.0197
 2847W        W 6898   4.077   0.843  10.617 -0.0853  0.1317  0.1214
 2848W        W 6899   5.241   1.657  12.819 -0.0062  0.0245 -0.3088
 2849W        W 6900   7.010   6.349  10.066 -0.2542 -0.0757  0.0401
 2850W        W 6901   0.604   7.396   3.138  0.0187 -0.1419  0.0662
 2851W        W 6902   3.563   2.574   1.808  0.0905 -0.0168  0.1642
 2852W        W 6903   5.000   3.577  12.095 -0.0156  0.1042 -0.0252
 2853W        W 6904   0.498   9.399  11.615  0.2076 -0.2763 -0.2559
 2854W        W 6905   1.779   8.939  13.907  0.1918  0.0255 -0.0210
 2855W        W 6906   3.288   8.563   2.615  0.1787  0.0140 -0.4506
 2856W        W 6907   6.082   4.271  13.338  0.0063  0.1327  0.0369
 2857W        W 6908   1.783   9.016   2.642  0.0900 -0.2037 -0.0057
 2858W        W 6909   9.549   3.913   3.935 -0.1925 -0.0283  0.1487
 2859W        W 6910   4.695  10.169  10.729  0.1415  0.1669 -0.0657
 2860W        W 6911   1.984   0.573   2.243  0.2696  0.3843 -0.1439
 2861W        W 6912   0.470   7.211   2.385  0.2088  0.3581 -0.0600
 2862W        W 6913   5.619   1.708   4.795  0.2027 -0.2612 -0.2579
 2863W        W 6914   2.891   4.921  10.586 -0.2661  0.1975  0.1241
 2864W        W 6915   5.492   7.653   0.464 -0.2646 -0.1194 -0.0735
 2865W        W 6916   2.381   8.712   0.517 -0.0322  0.1084  0.1108
 2866W        W 6917   8.612   4.169  10.043 -0.0631  0.0459 -0.2392
 2867W        W 6918   6.960   3.490   0.048 -0.1210  0.1598  0.1802
 2868W        W 6919   1.790   9.459   2.354 -0.0713 -0.0170 -0.2347
 2869W        W 6920  10.074   7.308  11.325  0.0027  0.2539  0.0515
 2870W        W 6921   8.927   7.846  10.320  0.2738  0.1836 -0.0313
 2871W        W 6922   5.202   3.199   2.319 -0.2198 -0.0941 -0.4152
 2872W        W 6923   8.303   9.736   2.411  0.3355  0.1355  0.0279
 2873W        W 6924   2.009   3.290  13.574  0.0581  0.1219  0.2112
 2874W        W 6925   4.312   1.358  10.735 -0.0090  0.0763 -0.0779
 2875W        W 6926   2.738   2.946  10.070 -0.0683 -0.1887 -0.0539
 2876W        W 6927   0.867   9.358  10.918  0.0134  0.0277 -0.0420
 2877W        W 6928   6.140  10.149  10.067 -0.2793 -0.2137 -0.2287
 2878W        W 6929   2.152   7.112  13.657 -0.1008 -0.0622 -0.0216
 2879W        W 6930   7.829   2.421  12.703  0.1910  0.1694  0.0365
 2880W        W 6931   3.198   1.036   1.718 -0.1087  0.0228  0.0390
 2881W        W 6932   8.761   0.962   4.329  0.1991 -0.1235 -0.1896
 2882W        W 6933   7.545   9.163   2.699 -0.0894 -0.3122 -0.0735
 2883W        W 6934   2.858   9.552   0.969 -0.1547  0.2917  0.2887
 2884W        W 6935   0.903   9.471  12.892 -0.0348 -0.2361  0.1665
 2885W        W 6936   6.124   9.851  11.719  0.0522  0.1936  0.3361
 2886W        W 6937   2.351   3.981   4.470 -0.1460 -0.0188  0.0044
 2887W        W 6938   7.749   5.064   0.813  0.1529  0.0141  0.2106
 2888W        W 6939   4.780   9.126   9.955  0.0050  0.1189  0.3456
 2889W        W 6940   5.476   4.934  10.154  0.2638  0.2590  0.2510
 2890W        W 6941   9.635   7.679  12.675 -0.1286  0.1540  0.0834
 2891W        W 6942   6.916   2.716   4.547 -0.0295  0.0016  0.0245
 2892W        W 6943   7.442   2.340  13.126  0.1464 -0.0470  0.1960
 2893W        W 6944   6.602   5.064   9.849 -0.0244  0.1151 -0.3298
 2894W        W 6945   7.707   4.428  10.384 -0.0719  0.1542  0.0287
 2895W        W 6946   9.523   1.521   4.839  0.1896 -0.4157 -0.3831
 2896W        W 6947   1.840   3.786   2.966 -0.0060  0.2807  0.0220
 2897W        W 6948   6.902  10.087  10.162 -0.1772  0.0069  0.0021
 2898W        W 6949   4.835   9.596  10.619  0.1434  0.0577  0.0388
 2899W        W 6950   3.054   1.500   3.514 -0.1314  0.0906  0.1092
 2900W        W 6951   8.613   3.465  11.295  0.0428 -0.1265 -0.1540
 2901W        W 6952   7.024   7.642  11.388  0.1508 -0.0455 -0.0750
 2902W        W 6953   3.855   7.228   1.103 -0.5409 -0.0206  0.2413
 2903W        W 6954   5.923   4.860  10.471 -0.2594 -0.1304 -0.0945
 2904W        W 6955   4.943   3.185   4.829  0.0031 -0.0234  0.2323
 2905W        W 6956   9.964   2.593  12.188  0.0193 -0.0590 -0.1217
 2906W        W 6957   2.138   6.430   9.596  0.0611 -0.1167 -0.0356
 2907W        W 6958   2.054   1.455  13.600 -0.0810  0.1380 -0.2734
 2908W        W 6959   2.865   8.378   1.192 -0.2376  0.0299 -0.2010
 2909W        W 6960   7.834   5.325  10.837  0.0619 -0.2139 -0.3099
 2910W        W 6961   2.470   7.695  11.206  0.0841  0.3161 -0.0045
 2911W        W 6962   1.000   8.032  11.857 -0.1505 -0.1576  0.2654
 2912W        W 6963   8.112   7.575  11.482 -0.1088 -0.0666  0.0685
 2913W        W 6964   3.905   4.144   0.171 -0.1392 -0.0769  0.2500
 2914W        W 6965   7.062   8.262  10.582  0.3581 -0.0495  0.0920
 2915W        W 6966   6.909   0.400  11.811 -0.2259 -0.3776 -0.0683
 2916W        W 6967   4.090   8.400   9.757  0.0249  0.1034 -0.2666
 2917W        W 6968   8.451   5.593  13.509 -0.0316  0.1615 -0.0048
 2918W        W 6969   8.426   2.136   9.789  0.0089 -0.0381 -0.0853
 2919W        W 6970   3.440   3.702   2.209 -0.0331  0.1193 -0.0777
 2920W        W 6971   6.171   2.954   3.552 -0.4950  0.0521  0.0267
 2921W        W 6972   8.357   4.957  12.656 -0.0423 -0.0699 -0.0103
 2922W        W 6973   6.267   5.260   9.554 -0.0080 -0.2108 -0.0365
 2923W        W 6974   5.622   0.225   2.197 -0.0062 -0.0307  0.1649
 2924W        W 6975   0.757   4.248   4.224 -0.1180  0.1519 -0.0394
 2925W        W 6976   6.536   0.883  11.198 -0.0904  0.1887 -0.2239
 2926W        W 6977   9.985   4.371   3.541  0.2199 -0.0232  0.3261
 2927W        W 6978   4.527   8.864   2.321 -0.6500  0.2212 -0.0994
 2928W        W 6979   0.991   4.137   0.485  0.0066 -0.3061 -0.0429
 2929W        W 6980   4.640   6.177   1.326 -0.0305  0.2435 -0.0603
 2930W        W 6981   1.126   9.087   4.470  0.1227  0.0388  0.2544
 2931W        W 6982   4.622   1.148  11.656  0.1224 -0.1608 -0.1867
 2932W        W 6983   6.703   6.690  10.963 -0.1470  0.0386 -0.2005
 2933W        W 6984   9.374   8.613   1.866  0.1633 -0.0545  0.1793
 2934W        W 6985   1.049   8.231   3.770  0.0777 -0.3479 -0.0147
 2935W        W 6986   5.310   0.519   9.162  0.0775  0.2899 -0.0055
 2936W        W 6987   3.535   1.180   2.099 -0.3973  0.2367  0.2563
 2937W        W 6988   9.310  10.046  13.013 -0.0041 -0.0425  0.1911
 2938W        W 6989   4.382   8.307  12.382 -0.0829 -0.5208 -0.2024
 2939W        W 6990   5.868   9.741  10.186 -0.2537 -0.0291  0.1567
 2940W        W 6991   0.324   1.566   1.708  0.2148  0.0977 -0.2265
 2941W        W 6992   6.530   9.276   1.901  0.0944 -0.1903  0.0069
 2942W        W 6993   0.810   9.256   2.976 -0.0055 -0.0731  0.0634
 2943W        W 6994   4.018   9.966   3.129  0.0186 -0.0419  0.0500
 2944W        W 6995   6.339   8.504  10.822 -0.0288 -0.0726 -0.3020
 2945W        W 6996   0.448   5.896  11.193  0.3401 -0.0488  0.1204
 2946W        W 6997   8.365   8.009   0.716  0.3041  0.0336  0.1207
 2947W        W 6998   8.672   1.165   2.772  0.0803 -0.0329 -0.3010
 2948W        W 6999   7.424   1.277  12.171  0.0313 -0.1157 -0.0744
 2949W        W 7000   8.353   7.094   2.088  0.0837 -0.0245 -0.1892
 2950W        W 7001   0.269   1.534   2.796  0.0605 -0.1254 -0.2046
 2951W        W 7002   3.255   5.025   9.224 -0.3957  0.1064 -0.0421
 2952W        W 7003   1.861   5.295  11.503 -0.0104 -0.0141 -0.1248
 2953W        W 7004   6.170   8.175   4.181 -0.1541 -0.1155 -0.1706
 2954W        W 7005   9.133   7.151  13.487  0.1157 -0.1888 -0.2220
 2955W        W 7006   4.563   2.179  13.835 -0.0834  0.0962  0.2848
 2956W        W 7007   6.888   5.335   3.807  0.1064  0.0123  0.2824
 2957W        W 7008   8.823   5.788  13.806  0.1504 -0.1321 -0.2107
 2958W        W 7009   4.596   5.872  11.317 -0.0673  0.3350 -0.0185
 2959W        W 7010   4.372   8.042  12.787  0.3913 -0.2529 -0.2530
 2960W        W 7011   0.847   4.075  11.632  0.0652  0.1002 -0.0916
 2961W        W 7012   5.665   1.853   9.477 -0.3240  0.2280  0.1563
 2962W        W 7013  10.135   4.789  11.015 -0.1347 -0.4860 -0.1025
 2963W        W 7014   3.072   4.776   4.377 -0.3616  0.3717 -0.1904
 2964W        W 7015   0.243   3.667  13.354  0.3410 -0.0130 -0.0463
 2965W        W 7016   6.868   0.551   2.367  0.1446 -0.1314 -0.1762
 2966W        W 7017   8.747   0.200   3.515  0.0349 -0.0948 -0.0685
 2967W        W 7018   1.423   6.359  13.153 -0.0332 -0.1983  0.3172
 2968W        W 7019   7.611   2.952  11.319 -0.1410  0.0074  0.1967
 2969W        W 7020   9.230   1.338   1.200 -0.1707 -0.0081  0.3086
 2970W        W 7021   9.822   4.412  12.121  0.2093  0.0766 -0.3232
 2971W        W 7022   4.705   3.774  11.750  0.2583 -0.0066 -0.0540
 2972W        W 7023   6.029   9.855   1.860  0.0208  0.0419 -0.1436
 2973W        W 7024   0.257   9.481   2.492 -0.1595 -0.2458 -0.1535
 2974W        W 7025   1.739   0.049   1.409 -0.1538  0.1120 -0.0536
 2975W        W 7026   0.787   1.524   2.993  0.1334  0.0494 -0.1663
 2976W        W 7027   7.828   2.359   4.608  0.0851  0.0773 -0.0288
 2977W        W 7028   9.483   7.094  10.611  0.1780 -0.1466 -0.0475
 2978W        W 7029   1.274   0.193   0.491 -0.0774 -0.0220 -0.0976
 2979W        W 7030   3.756   5.602  13.300  0.1579  0.0168 -0.1146
 2980W        W 7031   8.940   2.302   5.068 -0.0627  0.4159 -0.2328
 2981W        W 7032  10.137   1.470   3.646 -0.3170 -0.4519 -0.0028
 2982W        W 7033   7.268   3.285   2.727 -0.0213 -0.3586 -0.1705
 2983W        W 7034   5.366   4.964   1.042  0.3864 -0.1734 -0.0389
 2984W        W 7035   1.849   0.250  13.481 -0.1338 -0.1948 -0.0537
 2985W        W 7036   1.242   8.149   0.468 -0.0103  0.3358 -0.2989
 2986W        W 7037   7.423   4.385  11.941 -0.0923  0.1725 -0.0272
 2987W        W 7038   4.934   8.829  10.361  0.2197 -0.2195  0.0896
 2988W        W 7039   1.114   5.386   3.489  0.2476  0.1295  0.0189
 2989W        W 7040   6.091   2.014   4.452 -0.2751 -0.0972 -0.0443
 2990W        W 7041   1.589   5.431   1.671 -0.1932 -0.0181  0.0896
 2991W        W 7042   6.250   4.112  11.340 -0.1993 -0.2584 -0.3134
 2992W        W 7043   5.584   2.412  12.148 -0.1775  0.1484 -0.0332
 2993W        W 7044   0.265   3.129   0.669 -0.0325  0.1890 -0.1019
 2994W        W 7045   7.965   4.696   3.190 -0.3292  0.0644 -0.2791
 2995W        W 7046   1.887   0.622   3.200  0.0427  0.1004  0.2057
 2996W        W 7047   5.169   3.095   2.824 -0.1389  0.4106 -0.0180
 2997W        W 7048   2.723   5.620   3.098 -0.2029 -0.2784 -0.2032
 2998W        W 7049   8.477   5.180   1.615 -0.2590 -0.1791 -0.0811
 2999W        W 7050   7.312   7.492  13.926 -0.0301 -0.0405 -0.3733
 3000W        W 7051   7.892   8.543  12.382  0.1148  0.1944 -0.3399
 3001W        W 7052   8.133   1.570   3.568 -0.0565  0.3754 -0.2827
 3002W        W 7053   4.727   1.177   4.549  0.0620  0.0115  0.3320
 3003W        W 7054   8.660   3.704  11.744  0.3338 -0.3148 -0.0636
 3004W        W 7055   5.881   5.896   1.805  0.0206 -0.1025 -0.0055
 3005W        W 7056   0.513   3.807  12.081  0.0035 -0.1244 -0.4079
 3006W        W 7057   0.699   4.601  13.808 -0.1799  0.1917  0.1640
 3007W        W 7058   4.723   1.838   3.132  0.1393 -0.0371  0.0991
 3008W        W 7059   0.456   6.477  10.970  0.0196  0.1354  0.3792
 3009W        W 7060   7.596   3.790   2.872  0.0720 -0.3046 -0.0264
 3010W        W 7061   8.267   9.144   2.588  0.3200  0.0582 -0.1400
 3011W        W 7062   5.258   9.363  10.211  0.1260  0.0669  0.1603
 3012W        W 7063   2.306   4.208  10.569 -0.1832 -0.0864 -0.0414
 3013W        W 7064   1.471   8.213   2.417  0.1418 -0.1413  0.0656
 3014W        W 7065   9.345   5.173  11.960  0.0319  0.0545 -0.4868
 3015W        W 7066   4.152  10.076  13.434 -0.2136  0.0207  0.1016
 3016W        W 7067   1.599   4.624   2.171 -0.5039  0.1391  0.1864
 3017W        W 7068   8.717   3.495   3.886  0.2126 -0.1508  0.0653
 3018W        W 7069   0.098   8.721  11.128  0.3360  0.0874 -0.0342
 3019W        W 7070   2.700   4.785   4.721  0.0454  0.1160  0.2016
 3020W        W 7071   9.390   4.031   1.262  0.2315 -0.2706  0.4269
 3021W        W 7072   3.652   0.073  11.287 -0.1164  0.1457  0.2319
 3022W        W 7073   6.847   6.350  11.513  0.0312  0.3393 -0.1932
 3023W        W 7074   6.182   2.643   0.815 -0.1618  0.0573 -0.2020
 3024W        W 7075   6.396   2.193   2.798 -0.2017 -0.0020 -0.1303
 3025W        W 7076   9.863   3.911  11.119 -0.1450  0.2847  0.0061
 3026W        W 7077   5.233   4.484  12.767  0.1361 -0.0471 -0.1886
 3027W        W 7078   9.881   6.450  13.810 -0.3817 -0.1814 -0.2084
 3028W        W 7079   6.283   6.440  11.984 -0.5041 -0.0412 -0.0659
 3029W        W 7080   6.441   6.570   2.463  0.1462 -0.0548  0.1371
 3030W        W 7081   5.617   2.677   1.286 -0.0163  0.2345 -0.3068
 3031W        W 7082   1.278   6.007   1.599  0.2038  0.1880 -0.3850
 3032W        W 7083   5.002   3.300   0.717 -0.2593 -0.0639  0.1344
 3033W        W 7084   3.491   1.902   4.541 -0.0248  0.2664  0.5493
 3034W        W 7085   6.136   1.881   4.937  0.0351 -0.0021 -0.1133
 3035W        W 7086   7.734   1.832   0.415 -0.1452 -0.1517  0.2219
 3036W        W 7087   5.325   0.907  10.917 -0.1497  0.1345  0.1401
 3037W        W 7088   4.655   6.741   9.142  0.0213  0.2346 -0.3128
 3038W        W 7089   7.425   7.997  11.759 -0.0881  0.0763  0.0708
 3039W        W 7090   8.035   6.133  12.868 -0.0567  0.2979  0.0158
 3040W        W 7091   4.748   3.897   4.023  0.1219 -0.2923 -0.1380
 3041W        W 7092   9.143   0.984   0.832  0.0155  0.2977 -0.1095
 3042W        W 7093   5.352   3.672   2.257 -0.1502  0.1639 -0.1283
 3043W        W 7094   6.181   3.574   5.072  0.2077 -0.0980 -0.3922
 3044W        W 7095   1.952   7.504   2.459 -0.0857 -0.2274  0.1662
 3045W        W 7096   2.861   9.970  12.291 -0.0691  0.2454 -0.1727
 3046W        W 7097   8.632   2.482   3.500 -0.1884 -0.2239 -0.0699
 3047W        W 7098   3.969   6.618   9.619 -0.1174 -0.3005  0.1064
 3048W        W 7099   2.105   9.660  12.412  0.2439  0.0071 -0.0123
 3049W        W 7100   6.132   2.590   3.961  0.2872 -0.0843 -0.1691
 3050W        W 7101   0.693   3.415   4.169 -0.3658  0.0742  0.0346
 3051W        W 7102   1.990   2.472   1.903  0.1553 -0.1129 -0.1803
 3052W        W 7103   2.228   4.823   4.953  0.0931 -0.0749 -0.2357
 3053W        W 7104   9.320   0.056   9.504  0.0006 -0.2683 -0.2357
 3054W        W 7105   3.478   4.890   1.909 -0.2207 -0.1272 -0.1306
 3055W        W 7106   4.224   3.065   4.077  0.0818 -0.1038 -0.2140
 3056W        W 7107   8.709   2.016  13.581 -0.0416 -0.0737 -0.0521
 3057W        W 7108   0.170   7.536   0.331  0.0196 -0.2014 -0.4213
 3058W        W 7109   7.107   6.113   2.138 -0.1761 -0.1326  0.1175
 3059W        W 7110   4.368   7.091   3.317 -0.1775  0.3019 -0.3634
 3060W        W 7111   0.687   5.019  12.716  0.0721 -0.0125  0.2621
 3061W        W 7112   9.270   8.960   0.106  0.0418 -0.1506  0.3645
 3062W        W 7113  10.010   1.682   1.869 -0.1074 -0.1636 -0.1897
 3063W        W 7114   5.254   6.184   9.725  0.2503  0.0429 -0.1749
 3064W        W 7115   4.208   4.028   2.727 -0.0760 -0.0551 -0.2609
 3065W        W 7116   9.797   3.056  12.415  0.4928 -0.0644 -0.6149
 3066W        W 7117   5.711   3.864   3.064 -0.3016  0.1076 -0.1548
 3067W        W 7118   2.619   7.241   0.488 -0.1445  0.0307 -0.1724
 3068W        W 7119   9.943   6.705  12.647 -0.0492 -0.4504  0.2477
 3069W        W 7120   6.015   2.403   3.070  0.1528  0.4216 -0.1896
 3070W        W 7121   2.591   7.626   5.083  0.1523 -0.0631  0.5761
 3071W        W 7122   7.312   8.692  13.790  0.1769  0.4357 -0.0117
 3072W        W 7123   6.148   4.164   3.862 -0.2319 -0.2277 -0.0564
 3073W        W 7124   7.988   3.798   1.443 -0.2447 -0.1869  0.0385
 3074W        W 7125   8.875   7.024   2.942  0.1766 -0.0162 -0.2238
 3075W        W 7126   6.621   3.660   4.798 -0.1021 -0.0690  0.0995
 3076W        W 7127   4.495   0.679   9.347 -0.1330  0.0521 -0.3274
 3077W        W 7128   1.820   9.616   9.248 -0.1694 -0.1385  0.1289
 3078W        W 7129   2.874   5.833  13.706 -0.1905 -0.0785  0.0774
 3079W        W 7130   9.166   7.703  11.493 -0.0379 -0.2089 -0.2113
 3080W        W 7131   1.371   6.708   2.629  0.1542  0.1362 -0.0459
 3081W        W 7132   2.434   7.209   1.331  0.0944  0.0102  0.1185
 3082W        W 7133   3.835   0.413  10.370  0.0888 -0.0408  0.0244
 3083W        W 7134   5.743   9.548   9.445  0.0287 -0.0359  0.1808
 3084W        W 7135   3.280   4.022   3.916 -0.1605  0.0060  0.3276
 3085W        W 7136   1.864   5.226   4.071  0.1047 -0.0233  0.3027
 3086W        W 7137   3.744   4.044  12.488  0.1971 -0.3388  0.1566
 3087W        W 7138   2.800   3.362   4.518 -0.3828  0.3648  0.2253
 3088W        W 7139   9.488   3.582  11.184  0.0193  0.0782  0.2472
 3089W        W 7140   9.047   4.393   0.921 -0.2432  0.2477 -0.0200
 3090W        W 7141   8.677   9.355  13.071 -0.2652 -0.1008  0.2342
 3091W        W 7142   2.303   4.440   3.532  0.1492 -0.0849  0.1524
 3092W        W 7143  10.022   9.732  11.934 -0.1659  0.0067  0.3480
 3093W        W 7144   6.489   9.976  12.597 -0.1945  0.0437 -0.1062
 3094W        W 7145   7.584   1.620   9.394 -0.3764  0.2424  0.0191
 3095W        W 7146   6.932   2.836   9.824 -0.2054 -0.2182 -0.1683
 3096W        W 7147   5.304   3.797   1.557 -0.0330 -0.1567  0.1302
 3097W        W 7148   5.154   4.255   1.538  0.1302 -0.0155 -0.2707
 3098W        W 7149   4.299   3.994   0.604  0.3394  0.3172 -0.2640
 3099W        W 7150   0.460   6.818   9.693 -0.0678  0.2923 -0.1463
 3100W        W 7151   1.772   4.255   3.672 -0.0373 -0.0735  0.0202
 3101W        W 7152   5.327   5.551   3.251  0.0841 -0.4810  0.0815
 3102W        W 7153   6.867   2.440   4.939  0.2526 -0.1693 -0.0711
 3103W        W 7154   1.016   5.808   4.818  0.0156 -0.1750  0.0534
 3104W        W 7155   9.058   7.689  12.932  0.0982  0.0421  0.1373
 3105W        W 7156   4.356   4.495   4.596 -0.0258  0.1101  0.0077
 3106W        W 7157   4.912   4.708  10.976 -0.1990  0.1622 -0.1426
 3107W        W 7158   1.422   9.020   1.657 -0.0901  0.0403 -0.0476
 3108W        W 7159   2.731   7.312   9.117  0.2629 -0.1131 -0.2674
 3109W        W 7160   3.716   9.617   1.996  0.1821 -0.1337  0.1414
 3110W        W 7161   7.182   7.225   1.710 -0.0182 -0.2413  0.3288
 3111W        W 7162   6.019   0.797  13.465 -0.0202 -0.1708 -0.2359
 3112W        W 7163   9.102   7.833  12.065 -0.0872  0.3425  0.0910
 3113W        W 7164   5.775   3.226   1.510  0.1898 -0.0017 -0.1912
 3114W        W 7165   3.121   2.361   2.575 -0.1290  0.1196  0.2263
 3115W        W 7166   1.332  10.053  11.476 -0.3799 -0.0756  0.1010
 3116W        W 7167   0.873   4.513   0.753 -0.0221 -0.2694  0.2716
 3117W        W 7168   7.886   6.645   3.134 -0.1982  0.0804 -0.1847
 3118W        W 7169   6.999   2.636   0.974 -0.2140 -0.2564  0.1658
 3119W        W 7170   9.744   3.202  11.004 -0.1000 -0.0504 -0.0376
 3120W        W 7171   0.097   7.300  10.253  0.1674 -0.1069  0.2904
 3121W        W 7172   6.981   2.667   3.494  0.2982 -0.1554  0.1996
 3122W        W 7173   4.602   8.675   0.910  0.0833  0.3077 -0.1459
 3123W        W 7174   1.307   5.911   0.176  0.1560  0.1096 -0.0313
 3124W        W 7175   9.468   6.865  13.787 -0.1961  0.1367 -0.0608
 3125W        W 7176   1.755   2.689   1.496  0.2202 -0.4015 -0.0046
 3126W        W 7177   7.403   5.514   9.849  0.2161 -0.1521  0.3133
 3127W        W 7178   1.927   6.190  13.500  0.4179  0.3271  0.1712
 3128W        W 7179   2.706   5.399  13.270  0.2622 -0.1542 -0.0779
 3129W        W 7180   2.275   5.949   0.237 -0.0516 -0.1641  0.0656
 3130W        W 7181   7.696   5.999   3.355  0.3159  0.0901 -0.0489
 3131W        W 7182   4.449   1.693   0.179  0.1185  0.2439 -0.1651
 3132W        W 7183   4.134   3.146   0.922  0.0676 -0.1527 -0.0520
 3133W        W 7184   1.424   4.555   9.611  0.2249  0.0384  0.0501
 3134W        W 7185   7.514   5.844   1.279  0.1724  0.2795 -0.1550
 3135W        W 7186   6.060   8.778   2.561  0.2157  0.1281 -0.1392
 3136W        W 7187   3.166   2.552   0.517 -0.2062  0.1522 -0.2141
 3137W        W 7188   6.168   5.059  11.816 -0.1977 -0.0306 -0.0020
 3138W        W 7189   4.357   8.555   9.147 -0.0831  0.0877 -0.1483
 3139W        W 7190   4.505   4.371  10.913 -0.1210 -0.0809  0.0651
 3140W        W 7191   1.633   2.072   3.154  0.1751 -0.0544 -0.0237
 3141W        W 7192   2.217   2.020  10.178 -0.3209 -0.1917 -0.0888
 3142W        W 7193   8.242   3.187  12.984  0.0876  0.1297  0.1217
 3143W        W 7194   8.275   8.039  13.321 -0.3263 -0.1390  0.1731
 3144W        W 7195   5.804   3.217   4.925  0.1870  0.2762  0.2167
 3145W        W 7196   7.832   4.276   3.570 -0.2180  0.1747  0.2413
 3146W        W 7197   2.786   0.247  10.342 -0.1510 -0.5012  0.3005
 3147W        W 7198   5.298   7.183  11.367  0.0540 -0.1932 -0.0264
 3148W        W 7199   0.780   3.817   1.420 -0.1249  0.1947 -0.2255
 3149W        W 7200   4.409   8.658  11.492 -0.0606 -0.1461 -0.2747
 3150W        W 7201   5.040   8.172  13.704 -0.3166 -0.1423 -0.2681
 3151W        W 7202   3.843   0.360   1.950 -0.1561  0.0849  0.1070
 3152W        W 7203   2.100   6.278   1.852 -0.1741 -0.0083 -0.0242
 3153W        W 7204   5.640   4.924   2.710 -0.2827 -0.1331 -0.2926
 3154W        W 7205   5.689   7.418   1.650  0.0380  0.2118  0.2320
 3155W        W 7206   9.275   1.928   4.729 -0.1664  0.2162 -0.5387
 3156W        W 7207   3.168   7.167   1.832  0.0512  0.1005  0.2951
 3157W        W 7208   9.755   8.810   1.584  0.2824  0.0986  0.2977
 3158W        W 7209   0.030   6.714   4.574  0.0859 -0.2190  0.3053
 3159W        W 7210   6.083   0.027   4.420 -0.1309 -0.0666 -0.1174
 3160W        W 7211   3.349   3.155  12.496 -0.2191 -0.0657 -0.2029
 3161W        W 7212   2.915   0.278   9.102  0.0988  0.1368  0.0191
 3162W        W 7213   6.732   1.095  10.261  0.0026  0.1861  0.0101
 3163W        W 7214   6.725   0.737   0.280 -0.0804 -0.0543 -0.0145
 3164W        W 7215   8.692   1.595   2.322  0.3279 -0.1020  0.1188
 3165W        W 7216   9.133   7.776   1.728 -0.2036  0.0083 -0.2758
 3166W        W 7217   5.452   3.029   0.625  0.2766 -0.2356 -0.2330
 3167W        W 7218   6.846   4.637   3.234 -0.1610 -0.1259 -0.2009
 3168W        W 7219   0.166   2.841   2.985  0.0204  0.0635  0.2844
 3169W        W 7220   3.502   5.052  12.660  0.1586  0.1617 -0.0381
 3170W        W 7221   2.182   1.206   8.407 -0.1421  0.4293 -0.4026
 3171W        W 7222   1.234   5.012   2.213  0.0440  0.1635 -0.2163
 3172W        W 7223   2.559   9.411   1.329 -0.1604 -0.1135  0.3339
 3173W        W 7224   7.599   4.406  11.488 -0.0453 -0.2146  0.0773
 3174W        W 7225   5.453   2.758  11.792  0.1942 -0.1007 -0.1307
 3175W        W 7226   7.726   5.402   2.139  0.2444 -0.1130 -0.0130
 3176W        W 7227   2.150   1.564   2.716  0.0988  0.0544 -0.2744
 3177W        W 7228   2.308   2.290  11.956 -0.0569 -0.2019 -0.0449
 3178W        W 7229  10.020   9.606  12.798 -0.1268 -0.0332  0.0018
 3179W        W 7230   5.066   1.846   2.001 -0.1814  0.0883  0.2704
 3180W        W 7231   7.712   1.109   0.692 -0.0636 -0.0076 -0.0971
 3181W        W 7232   1.856   8.015   4.098 -0.0820 -0.1049 -0.0392
 3182W        W 7233   6.383   5.827   4.415  0.1929 -0.2263  0.1860
 3183W        W 7234   8.661   6.066   0.466 -0.1610  0.3479  0.2231
 3184W        W 7235   0.767   8.193   1.338 -0.0494 -0.3437 -0.1199
 3185W        W 7236   2.986   5.079   2.168  0.0943 -0.2008  0.0719
 3186W        W 7237   5.569   2.327   9.568 -0.0563  0.1043  0.3497
 3187W        W 7238   4.907   4.792  13.387 -0.1115 -0.1025 -0.3196
 3188W        W 7239   7.342   4.838   0.505 -0.4446 -0.3686 -0.0863
 3189W        W 7240   4.852   0.032   4.829  0.1731 -0.0062 -0.0853
 3190W        W 7241   7.224   9.082   0.192 -0.2703 -0.0721 -0.1980
 3191W        W 7242   1.926   9.174   9.395  0.1524 -0.0326 -0.1886
 3192W        W 7243   6.262   2.194   3.491 -0.1562  0.1705 -0.1249
 3193W        W 7244   9.307   1.136  11.515  0.0324  0.1606 -0.2200
 3194W        W 7245   3.427   1.571   1.655  0.0152  0.0179 -0.2200
 3195W        W 7246   1.374   1.469   4.252 -0.0075  0.0287  0.1357
 3196W        W 7247   8.546   4.480   1.149 -0.1478 -0.0058 -0.1505
 3197W        W 7248   0.926   6.356   3.339 -0.0212 -0.0925  0.2018
 3198W        W 7249   5.869   4.037  10.984  0.0359  0.1578  0.2345
 3199W        W 7250   9.949   3.959   2.619  0.2107  0.2122 -0.0067
 3200W        W 7251   5.033   9.059   3.242 -0.2035 -0.4112  0.0299
 3201W        W 7252   3.290   7.049   8.813 -0.0329 -0.3690  0.0350
 3202W        W 7253   3.914   3.793   2.232  0.1358  0.0396 -0.3982
 3203W        W 7254   8.269   8.468  12.024  0.0292 -0.2700 -0.3264
 3204W        W 7255   6.036   1.717   3.608 -0.0964 -0.0844  0.1468
 3205W        W 7256   8.099   3.659  10.486 -0.1291  0.1019  0.3099
 3206W        W 7257   7.540   0.537   2.872  0.3344 -0.0135  0.1483
 3207W        W 7258   0.378   4.760  13.430  0.2484 -0.0210  0.3286
 3208W        W 7259   9.810   8.695   2.123 -0.0065 -0.0643 -0.0855
 3209W        W 7260   1.590   3.369   0.530 -0.2200 -0.1822 -0.0163
 3210W        W 7261   4.487   0.473  12.807 -0.0225  0.0147 -0.0796
 3211W        W 7262   0.501   4.153   0.742 -0.1760 -0.3127 -0.4453
 3212W        W 7263   8.684   7.675  11.718 -0.0975  0.1740 -0.0014
 3213W        W 7264   6.930   7.370   0.332  0.2172 -0.2234  0.0040
 3214W        W 7265   9.782   9.636   2.451 -0.2376  0.2392 -0.1552
 3215W        W 7266   6.979   8.369   9.907  0.1470 -0.0037 -0.4445
 3216W        W 7267   2.502   0.114   3.673 -0.1052  0.3317  0.3677
 3217W        W 7268   2.259   2.077  10.720 -0.2343 -0.0513  0.1067
 3218W        W 7269   2.131   5.214  13.288  0.2247  0.0175 -0.1010
 3219W        W 7270   4.566   7.459  11.886  0.1331  0.1339 -0.1456
 3220W        W 7271   0.832   9.382   2.494 -0.1144 -0.2819  0.1211
 3221W        W 7272   0.997   4.011  10.816  0.0497 -0.0676 -0.1611
 3222W        W 7273   2.947   6.052   2.987 -0.0312  0.1951  0.1279
 3223W        W 7274   9.078   5.768   3.963 -0.1185 -0.0086  0.1306
 3224W        W 7275   6.438   5.000  12.644 -0.0794 -0.1278 -0.1485
 3225W        W 7276   2.687   7.533   2.271  0.0847  0.2550  0.2888
 3226W        W 7277   6.650   6.131  10.991  0.1339 -0.0813 -0.1550
 3227W        W 7278   5.378   9.226   0.688 -0.3281  0.0768 -0.1509
 3228W        W 7279   1.357   4.121  12.532 -0.2516  0.4777  0.0261
 3229W        W 7280   0.467   6.017  10.645  0.0065  0.1572  0.1673
 3230W        W 7281   7.379   4.659   0.950  0.0741 -0.2817 -0.0819
 3231W        W 7282   4.251   0.095  11.125  0.1406 -0.0409  0.0697
 3232W        W 7283   9.595   8.319  11.568 -0.2802 -0.1606  0.2867
 3233W        W 7284   3.293   9.954  10.950 -0.1105  0.0514 -0.0834
 3234W        W 7285   7.392   5.399  13.440 -0.0185  0.0173 -0.0234
 3235W        W 7286   6.668   5.355   1.073  0.0594  0.1850  0.1609
 3236W        W 7287   5.771   6.615   2.844  0.0811  0.4157  0.0751
 3237W        W 7288   9.104   3.845   1.742  0.0714 -0.1852  0.0334
 3238W        W 7289   2.477   6.031  11.008 -0.0866 -0.1717  0.1843
 3239W        W 7290   9.561   6.923   1.256  0.0746  0.0022 -0.1231
 3240W        W 7291   2.416   5.627  12.342 -0.1752  0.0302 -0.0792
 3241W        W 7292   8.816   9.903   1.588 -0.0516 -0.2998  0.2054
 3242W        W 7293   2.216   2.232  13.756  0.2093 -0.2472 -0.1684
 3243W        W 7294   5.773   1.371   3.969  0.1991  0.3513 -0.1399
 3244W        W 7295   3.929   2.431   0.118 -0.0683  0.2030  0.0715
 3245W        W 7296   5.340   4.874  13.735 -0.1081  0.1137  0.0666
 3246W        W 7297   4.099   0.088   1.155  0.1697 -0.4757 -0.0918
 3247W        W 7298   7.820   8.791  13.637 -0.1771  0.1326 -0.0284
 3248W        W 7299   5.483   7.488   3.042 -0.0464 -0.1361  0.1017
 3249W        W 7300   4.937   7.680  11.468  0.0288  0.2832  0.1807
 3250W        W 7301   1.640   9.276  13.561 -0.1272 -0.0743 -0.0178
 3251W        W 7302   4.279   4.457   1.561  0.1431  0.0968  0.0823
 3252W        W 7303   9.985   6.154   0.843  0.0448  0.1850 -0.2622
 3253W        W 7304   4.967   9.790   3.686 -0.1451 -0.1098  0.1113
 3254W        W 7305   7.244   3.980  10.528  0.1742  0.3299  0.1060
 3255W        W 7306   8.900   3.016  12.371  0.2849 -0.1340  0.1387
 3256W        W 7307   7.104   1.247  11.614 -0.3786 -0.0755 -0.0055
 3257W        W 7308   8.662   5.348   0.838  0.0425  0.2365  0.3708
 3258W        W 7309   2.995   9.474  10.132  0.3291  0.2382  0.0989
 3259W        W 7310   7.727   2.592  12.052  0.1271  0.1899 -0.4054
 3260W        W 7311   5.878   6.588  12.271  0.2077  0.2030  0.1319
 3261W        W 7312   1.738   7.637   3.414 -0.1356 -0.1091  0.2180
 3262W        W 7313   1.661   8.726   3.018 -0.0282 -0.3990 -0.2489
 3263W        W 7314   3.282   6.188   2.613 -0.2628 -0.1150  0.1043
 3264W        W 7315   7.493   1.879   0.968  0.2788 -0.1548 -0.0071
 3265W        W 7316   1.044   9.902  13.861  0.3381 -0.1812  0.0876
 3266W        W 7317   2.947   5.184   3.246 -0.2622 -0.3324 -0.2682
 3267W        W 7318   2.697   1.114  11.617 -0.2059  0.1034  0.1395
 3268W        W 7319   6.464   7.417  13.580 -0.0105  0.1246  0.1490
 3269W        W 7320   1.530   7.010   4.229 -0.1364  0.1122 -0.2956
 3270W        W 7321   7.978   7.184  11.146  0.0408  0.2984  0.0734
 3271W        W 7322   9.853   0.620   1.282 -0.3441 -0.1559  0.1671
 3272W        W 7323   1.314   0.125   3.594  0.0102  0.4052  0.0509
 3273W        W 7324   6.873   1.412   0.380  0.0508 -0.2401  0.1391
 3274W        W 7325   2.106   4.968   2.970  0.2882 -0.0581  0.3049
 3275W        W 7326   7.004   0.631   0.657  0.2959  0.2537 -0.0581
 3276W        W 7327   1.132   1.471  12.444 -0.3733 -0.1080  0.5054
 3277W        W 7328   1.009   1.023   3.094 -0.0260  0.0132  0.0018
 3278W        W 7329   7.203   8.629  10.970 -0.0900 -0.0344 -0.2508
 3279W        W 7330   8.204   0.513  13.169  0.0974 -0.2612  0.1049
 3280W        W 7331   7.406   3.754   5.359 -0.1655  0.2995  0.1247
 3281W        W 7332   9.348   2.737  12.210  0.1459  0.2011  0.0551
 3282W        W 7333   3.343   4.491   1.595 -0.3928  0.0392  0.1060
 3283W        W 7334   1.158   0.611   5.357  0.2097 -0.1489 -0.1272
 3284W        W 7335   0.051   2.158   0.370  0.0263 -0.3649  0.0952
 3285W        W 7336   7.798   8.287  11.888  0.2169  0.1056  0.1355
 3286W        W 7337   4.192   8.009  10.082  0.4512  0.1895 -0.0553
 3287W        W 7338   2.318   4.138  12.257  0.0852  0.1814 -0.0519
 3288W        W 7339   9.616   5.532   3.994 -0.2280 -0.1046  0.0648
 3289W        W 7340   9.482   8.613  12.285 -0.1309  0.0285  0.4394
 3290W        W 7341   1.907   5.642   5.396 -0.1199  0.0665 -0.2972
 3291W        W 7342   3.934   1.158   5.041 -0.0433 -0.1476  0.0043
 3292W        W 7343   7.315   4.829  13.313 -0.0760 -0.2257 -0.2898
 3293W        W 7344   1.521   8.551  10.508  0.0572 -0.2039 -0.2044
 3294W        W 7345   5.013  10.121   8.640 -0.0621  0.2633  0.2149
 3295W        W 7346   4.311   6.555   9.984 -0.2661  0.0246 -0.0836
 3296W        W 7347   4.446   1.574   0.748 -0.0015  0.0312  0.1355
 3297W        W 7348   6.248   3.390   3.870 -0.0163  0.1398  0.1286
 3298W        W 7349   6.268   4.957   1.142  0.4377  0.0247 -0.1928
 3299W        W 7350   2.053   7.511  12.690 -0.1615 -0.1881 -0.0525
 3300W        W 7351   0.245   8.139  11.210  0.2184 -0.1364 -0.1206
 3301W        W 7352   4.656   3.001   2.903 -0.2798 -0.0619 -0.2164
 3302W        W 7353   4.636   7.104  12.224 -0.0414 -0.2617  0.1005
 3303W        W 7354   7.476   2.582  11.639  0.2293 -0.3602  0.1017
 3304W        W 7355   3.178   6.554  10.511 -0.2919  0.1460  0.3520
 3305W        W 7356   9.167   0.969   2.790 -0.1593  0.1515 -0.0722
 3306W        W 7357   0.255   9.813   0.407 -0.0799 -0.1101 -0.1302
 3307W        W 7358   6.260   0.544   9.200 -0.2496  0.1136  0.1670
 3308W        W 7359   4.596   0.582  12.093  0.1940 -0.0758  0.0562
 3309W        W 7360   0.095   4.378  10.285 -0.0650  0.2186 -0.0449
 3310W        W 7361   5.395   8.462  11.407 -0.1647 -0.0484 -0.1452
 3311W        W 7362   8.178   0.376   3.392 -0.1898 -0.1160  0.1460
 3312W        W 7363   3.501   8.596   3.177 -0.3419  0.2899  0.0057
 3313W        W 7364   7.401   0.478   0.062  0.0506 -0.2454  0.2840
 3314W        W 7365   4.608   1.677  11.843 -0.0572 -0.2004 -0.1539
 3315W        W 7366   5.329   8.658  13.059  0.3460 -0.1154  0.1332
 3316W        W 7367   1.905   5.497   3.697 -0.2272 -0.3695 -0.0627
 3317W        W 7368   7.820   0.527  10.315  0.3159 -0.0178  0.0726
 3318W        W 7369   1.243   8.714   9.208  0.0080  0.1466 -0.3139
 3319W        W 7370   1.474   4.488  10.261 -0.0050 -0.2631 -0.0306
 3320W        W 7371   8.146   3.725  13.965 -0.2325  0.1747 -0.1291
 3321W        W 7372   5.057   2.814   2.039 -0.0056 -0.1612  0.1288
 3322W        W 7373   7.879   4.199   9.852 -0.0914  0.3562  0.0700
 3323W        W 7374   2.929   5.206   4.643 -0.1863 -0.1122 -0.0554
 3324W        W 7375   7.615   9.616   4.009  0.0617  0.0558  0.1778
 3325W        W 7376   7.710   0.652  13.428 -0.2621 -0.4274 -0.4568
 3326W        W 7377   4.181   6.598  13.330 -0.3524  0.1203  0.2336
 3327W        W 7378   9.545   1.002  10.497 -0.0862  0.0595 -0.0951
 3328W        W 7379   3.016   3.388  13.919  0.1212 -0.0811  0.1346
 3329W        W 7380   8.024   8.764   2.349  0.0657  0.0051 -0.1127
 3330W        W 7381   2.454   2.867  12.162  0.0562 -0.1009 -0.1002
 3331W        W 7382   6.652   3.005   2.127  0.1777 -0.1096 -0.1382
 3332W        W 7383   5.147   6.467   2.080 -0.1631  0.2399  0.1321
 3333W        W 7384   4.433   7.885   2.193 -0.1486  0.4752  0.1072
 3334W        W 7385   5.734   4.919  12.036 -0.1372  0.0615 -0.1980
 3335W        W 7386   3.020   6.685   4.064  0.1753  0.0452 -0.1202
 3336W        W 7387   6.751   4.231  10.495  0.0572 -0.2698  0.0811
 3337W        W 7388   6.628   1.698   4.324  0.2654  0.0085 -0.0033
 3338W        W 7389   7.663   7.226   1.706 -0.0235 -0.1792 -0.2468
 3339W        W 7390   4.106   7.519   0.752  0.0511  0.0838  0.1422
 3340W        W 7391   4.561   9.217  13.405 -0.0829  0.0997  0.1068
 3341W        W 7392   9.863   9.172   2.226 -0.1066  0.0033  0.1587
 3342W        W 7393   0.368   6.998  10.671  0.1405 -0.1578  0.1247
 3343W        W 7394   6.002   9.553   1.416 -0.0834  0.1102  0.0104
 3344W        W 7395   9.454   3.920  10.701 -0.1853  0.0375  0.0528
 3345W        W 7396   5.396   0.037  11.429 -0.0240  0.1189  0.0889
 3346W        W 7397   4.346   7.811  13.242 -0.1847 -0.1369 -0.0800
 3347W        W 7398   1.866   1.748   9.223 -0.0482  0.0335 -0.3358
 3348W        W 7399   7.543   3.269   4.952 -0.1177  0.0517 -0.1189
 3349W        W 7400   1.559   1.379   3.731  0.1786 -0.0388 -0.1606
 3350W        W 7401   1.332   3.445  12.061  0.0114 -0.2266 -0.2667
 3351W        W 7402   8.809   4.250   0.502 -0.1470  0.1045 -0.1836
 3352W        W 7403   3.610   3.843   1.300  0.3145 -0.1213  0.0556
 3353W        W 7404   5.044   0.028   2.284  0.0290 -0.3686  0.1308
 3354W        W 7405   7.695   9.111   3.779  0.2993  0.0865  0.2167
 3355W        W 7406   3.776   8.867  13.754  0.3129 -0.0621 -0.2400
 3356W        W 7407   4.303   9.170  12.968 -0.0244  0.3284  0.1234
 3357W        W 7408   9.367   6.976  12.155 -0.0812  0.0073 -0.0754
 3358W        W 7409   6.868   4.140   3.651 -0.0125  0.0541  0.3188
 3359W        W 7410   6.963   9.388  11.502  0.1094  0.1099  0.1212
 3360W        W 7411   5.331   7.655   1.240  0.2635  0.1805  0.2018
 3361W        W 7412  10.073   7.943  13.257 -0.1067  0.0463  0.0293
 3362W        W 7413   3.060   6.855   3.301 -0.2956  0.0813 -0.0249
 3363W        W 7414   3.530   8.186  12.569  0.2285  0.1437 -0.1583
 3364W        W 7415   3.985   1.551  10.120 -0.0552 -0.1960 -0.2444
 3365W        W 7416   2.912   1.490   3.034  0.0044  0.3083  0.0028
 3366W        W 7417   2.132   4.539   2.296  0.3707 -0.2442 -0.0816
 3367W        W 7418   0.231   7.490  13.398  0.1173 -0.1718  0.0835
 3368W        W 7419   1.214   0.559  12.058  0.2124  0.3205 -0.2653
 3369W        W 7420   1.424   5.443   9.894  0.0008 -0.1010 -0.1381
 3370W        W 7421   4.724   3.181   1.126 -0.2170  0.2104 -0.1194
 3371W        W 7422   5.408   3.666   6.080  0.1297  0.0088 -0.0677
 3372W        W 7423   5.829   3.345   3.444 -0.4383  0.0918 -0.2670
 3373W        W 7424   8.545   6.041  13.247 -0.0958 -0.1174  0.1216
 3374W        W 7425   8.245   7.409   3.563  0.1981 -0.0589  0.2624
 3375W        W 7426   2.396   8.415  13.706  0.1661  0.1903 -0.0792
 3376W        W 7427   3.936   7.002  13.670 -0.0712  0.1431 -0.1643
 3377W        W 7428   5.841   3.565  10.304  0.2461 -0.3215 -0.1080
 3378W        W 7429   4.125   4.748  11.310 -0.2106  0.2342 -0.0895
 3379W        W 7430   3.834   6.586   2.140  0.2232  0.0916 -0.3960
 3380W        W 7431   3.682   7.984  13.112  0.1630 -0.1231 -0.0859
 3381W        W 7432   6.516   7.947  13.651 -0.2135  0.0889 -0.0489
 3382W        W 7433   6.851   1.088   2.378 -0.0508 -0.0530 -0.1656
 3383W        W 7434   9.362   1.224   0.481  0.2187  0.0482 -0.1792
 3384W        W 7435   2.153   7.735   9.795  0.0605  0.1095  0.2113
 3385W        W 7436   3.414   3.479   3.815 -0.2630 -0.2330  0.3110
 3386W        W 7437   6.211  10.105   3.047  0.1010 -0.0194 -0.0942
 3387W        W 7438   1.250   6.136   2.996  0.1868  0.0933 -0.0138
 3388W        W 7439   6.369   7.539   9.389  0.1438  0.1356  0.1061
 3389W        W 7440   4.134   1.677   9.642  0.3049  0.0662 -0.2503
 3390W        W 7441   4.815   9.084  13.795 -0.1896 -0.3760 -0.0909
 3391W        W 7442   9.353   9.201  13.609  0.0445  0.1243 -0.1145
 3392W        W 7443   3.901   3.707  13.796 -0.0088  0.0107 -0.3512
 3393W        W 7444   5.936   0.241  11.966 -0.2072  0.0257 -0.0267
 3394W        W 7445   5.593   5.221   4.852 -0.2031 -0.1835 -0.2341
 3395W        W 7446   2.777  10.034   4.565 -0.1741 -0.0146  0.1412
 3396W        W 7447   1.372   3.011  12.360 -0.0158 -0.1182 -0.4329
 3397W        W 7448  10.071   8.497   3.327 -0.0854 -0.0569 -0.2340
 3398W        W 7449   3.720   6.901  12.495 -0.1711  0.2754 -0.0918
 3399W        W 7450   7.312   9.491   3.000 -0.0188 -0.0641 -0.0252
 3400W        W 7451   2.734   5.401   8.985 -0.1967  0.0915  0.1502
 3401W        W 7452   6.660   8.750   0.586  0.1332  0.2899 -0.0971
 3402W        W 7453   8.991   8.933   2.070  0.0253 -0.2961 -0.0972
 3403W        W 7454   4.059  10.101  10.443 -0.0632  0.3645 -0.3885
 3404W        W 7455   0.771   9.771  10.121 -0.2620 -0.0620 -0.0486
 3405W        W 7456   3.199   6.372  10.000  0.2176 -0.1306 -0.1173
 3406W        W 7457   2.558   0.954   9.770 -0.1577  0.0818 -0.0291
 3407W        W 7458   1.179   7.052   2.916 -0.1724 -0.2339  0.4565
 3408W        W 7459   8.640   3.804   4.261  0.1975 -0.0369 -0.1868
 3409W        W 7460   3.519   3.516   1.659 -0.2390 -0.1388  0.1042
 3410W        W 7461   7.653   2.150   2.600  0.0146 -0.0750 -0.1140
 3411W        W 7462   0.390   8.430   0.364 -0.0243 -0.0329 -0.0984
 3412W        W 7463   1.721   0.969  11.263  0.2502 -0.1896 -0.2377
 3413W        W 7464   7.763   1.236   3.523 -0.3657 -0.0273  0.0705
 3414W        W 7465   0.592   2.428   9.651  0.0888 -0.4081  0.1828
 3415W        W 7466   5.771   7.612  10.055 -0.1421  0.1391  0.0490
 3416W        W 7467   5.501   2.565   0.804  0.1539 -0.0977 -0.1924
 3417W        W 7468   0.188   0.543   1.341  0.0381 -0.2443 -0.0890
 3418W        W 7469   7.924   1.098   4.232  0.1002  0.0517  0.1048
 3419W        W 7470   5.270   6.521   3.648  0.0976 -0.1495  0.1492
 3420W        W 7471   2.346   7.973   3.395 -0.2670 -0.0526  0.0340
 3421W        W 7472   5.744   8.400   2.646  0.1867 -0.1941 -0.2080
 3422W        W 7473   4.919   2.097   1.344 -0.5108  0.0631 -0.1201
 3423W        W 7474   4.026   8.174   2.309  0.2324 -0.2807 -0.1850
 3424W        W 7475   3.610   0.031  10.595  0.1263  0.3367  0.0934
 3425W        W 7476   2.268   0.606   4.515 -0.2542  0.0078  0.1052
 3426W        W 7477   1.032   0.209   4.959  0.0204  0.0963 -0.2925
 3427W        W 7478   7.386   1.386   3.138  0.0154 -0.1779  0.1342
 3428W        W 7479   5.516   6.219   1.937 -0.3378 -0.1223 -0.0526
 3429W        W 7480   9.511   9.475   4.560  0.1864 -0.1182 -0.2153
 3430W        W 7481   7.192   0.823   2.641  0.1273 -0.2556 -0.2107
 3431W        W 7482   5.891   8.803  13.416 -0.2374  0.0466 -0.2489
 3432W        W 7483   2.725   0.918   1.457  0.0741 -0.2761  0.0095
 3433W        W 7484   1.140   5.256  10.955 -0.2791 -0.2296  0.1215
 3434W        W 7485   5.646   2.617  11.343  0.3260  0.1845  0.2289
 3435W        W 7486   4.802   9.484   3.224 -0.1409 -0.2118  0.0272
 3436W        W 7487   1.553   6.865   1.782  0.0500  0.0251  0.0737
 3437W        W 7488   5.420   6.641   9.724 -0.0454 -0.0756  0.2693
 3438W        W 7489   5.050   9.549   1.519  0.3143  0.1105  0.3184
 3439W        W 7490   7.734   5.042   4.365  0.0160 -0.1501 -0.0043
 3440W        W 7491   7.772   0.211  13.285  0.1405 -0.0201  0.1850
 3441W        W 7492   0.854   5.610  13.487  0.4212 -0.2152 -0.2306
 3442W        W 7493   8.902   5.242   3.279 -0.1017 -0.0367  0.0003
 3443W        W 7494   8.977   2.177   1.215 -0.0043  0.1067  0.1784
 3444W        W 7495   1.659   3.015   0.847  0.0096  0.1166  0.3406
 3445W        W 7496   9.368   2.385   4.864  0.1591 -0.0051 -0.3048
 3446W        W 7497   0.235   0.799   3.904  0.2986  0.0879  0.2268
 3447W        W 7498   2.192   0.601   3.752  0.1582  0.0974  0.1122
 3448W        W 7499   3.259   2.252   1.488  0.2438  0.0256 -0.1467
 3449W        W 7500   5.667   3.122   2.633 -0.1941 -0.1003  0.5061
 3450W        W 7501   9.061   0.239   1.431  0.1091 -0.1021  0.0892
 3451W        W 7502   0.540   4.652  12.365  0.2260  0.0013 -0.0396
 3452W        W 7503   4.606   0.631  11.516 -0.0964 -0.2949 -0.0671
 3453W        W 7504   1.925   7.137  10.797 -0.0135  0.0612  0.0711
 3454W        W 7505   0.524   2.298   0.063 -0.1805 -0.1358  0.0851
 3455W        W 7506   2.232   1.711   3.873 -0.0370 -0.1211  0.2251
 3456W        W 7507   6.601   7.221   3.840  0.0483  0.4712 -0.3321
 3457W        W 7508   5.018   5.862   9.968 -0.1024  0.1247  0.1173
 3458W        W 7509   2.526   9.716  11.989 -0.0831 -0.0507  0.0037
 3459W        W 7510   6.903   5.804   3.602  0.1304 -0.3725 -0.1518
 3460W        W 7511   5.205   3.005  11.384  0.4891 -0.0439  0.2010
 3461W        W 7512   2.651   1.504   2.210  0.1758  0.1314 -0.0122
 3462W        W 7513   9.250   2.001  10.417 -0.2778  0.0684  0.3015
 3463W        W 7514   2.019   7.305   8.570 -0.2063  0.1605 -0.1604
 3464W        W 7515   7.597   0.822   1.970  0.3925  0.1140  0.0732
 3465W        W 7516   0.123   8.818  12.551  0.0876 -0.2759  0.2803
 3466W        W 7517   9.981   1.056  10.040 -0.1820  0.2726 -0.1309
 3467W        W 7518   5.659   4.243  11.925 -0.0534  0.1844 -0.2809
 3468W        W 7519   2.380   6.021  12.752 -0.0362  0.2667  0.1024
 3469W        W 7520   5.170   2.892   1.065  0.2406  0.2048  0.0422
 3470W        W 7521   1.083   1.389   8.957  0.2866  0.1616 -0.0312
 3471W        W 7522   3.484   2.722   1.307 -0.0312 -0.1928 -0.0171
 3472W        W 7523   8.101   6.382   3.595 -0.2507 -0.0733 -0.2235
 3473W        W 7524   5.480   8.642  12.515  0.0948 -0.1080 -0.1727
 3474W        W 7525   6.205   8.245   3.650  0.2666  0.1008  0.1748
 3475W        W 7526   0.954   1.108  12.761 -0.1481 -0.1317  0.0704
 3476W        W 7527   6.132   3.015   5.695 -0.0607  0.2210 -0.0295
 3477W        W 7528   2.018   7.628   1.315 -0.3110 -0.3329 -0.1759
 3478W        W 7529   7.095   1.822  13.928 -0.0187  0.1165 -0.0044
 3479W        W 7530   2.572   8.884  10.507 -0.1521  0.1196 -0.2355
 3480W        W 7531   0.551   7.820   2.842  0.2090 -0.0202  0.0239
 3481W        W 7532   5.335   9.309   3.549  0.1847  0.1806 -0.2729
 3482W        W 7533   8.432   4.471  10.580 -0.0829 -0.0771  0.2148
 3483W        W 7534   9.659   9.398  10.598 -0.1246 -0.0031  0.0647
 3484W        W 7535   5.797   7.106   2.888 -0.1401 -0.2349  0.1127
 3485W        W 7536   8.852   6.505   2.816  0.2305 -0.0221  0.0585
 3486W        W 7537   7.902   9.959  13.090 -0.1162 -0.3906 -0.1796
 3487W        W 7538   3.274   5.320   3.733  0.2327 -0.0376  0.2313
 3488W        W 7539   9.006   9.931   0.066 -0.1347  0.2187  0.1328
 3489W        W 7540   7.816   0.733   1.043  0.1201 -0.0445 -0.1611
 3490W        W 7541   9.168   5.310   0.807  0.1898 -0.0296 -0.0516
 3491W        W 7542   2.643   5.678   4.458  0.5030 -0.1050 -0.2258
 3492W        W 7543   0.040   1.053  11.382 -0.0155 -0.3868 -0.0450
 3493W        W 7544   6.428   0.108  10.488 -0.1841 -0.0103  0.4409
 3494W        W 7545   2.195   0.871   2.654  0.0238 -0.0298  0.2732
 3495W        W 7546   4.966   7.950  10.496  0.0212 -0.0848  0.1311
 3496W        W 7547   3.049   8.272   8.897  0.1997  0.2340 -0.0916
 3497W        W 7548   1.718   9.826   9.694  0.1027  0.0479  0.0512
 3498W        W 7549   0.685   8.997  10.552  0.0500 -0.0508 -0.1817
 3499W        W 7550   5.336   1.325   0.219 -0.0049  0.3778  0.1774
 3500W        W 7551   8.218   3.697  12.029  0.0109 -0.2600 -0.0407
 3501W        W 7552   7.293   7.490  12.861  0.0844 -0.0717  0.0037
 3502W        W 7553   6.509   8.237   3.230 -0.2966 -0.2009  0.0135
 3503W        W 7554   6.368   7.921  11.104  0.1353 -0.0318 -0.1073
 3504W        W 7555   4.205   7.323  10.533  0.2762  0.2971 -0.1058
 3505W        W 7556   6.958   7.541   2.776  0.0416 -0.0414 -0.1616
 3506W        W 7557   4.672   8.165   0.639 -0.4319 -0.1504 -0.0764
 3507W        W 7558   0.971   6.462  13.893  0.0444 -0.2655 -0.2115
 3508W        W 7559   8.351   3.211   1.377  0.1616 -0.1026  0.0237
 3509W        W 7560   1.201   8.329   0.031 -0.3528  0.1505 -0.1771
 3510W        W 7561   8.559   2.976  11.415  0.1804 -0.2971 -0.0651
 3511W        W 7562   9.099   6.009   1.933  0.2343 -0.0583  0.0276
 3512W        W 7563   2.527   0.661   4.953 -0.1162 -0.2543 -0.1070
 3513W        W 7564   9.162   2.455   4.415  0.0091 -0.1170  0.0463
 3514W        W 7565   8.553   4.625   1.811 -0.3385 -0.1076 -0.2763
 3515W        W 7566   8.883   2.397   1.629  0.2978  0.0560  0.1058
 3516W        W 7567   8.923   5.336   1.357  0.0187  0.0774 -0.1072
 3517W        W 7568   8.949   7.617   1.203 -0.1065  0.3413  0.1464
 3518W        W 7569   5.094   0.429  10.205  0.0972  0.0744  0.0066
 3519W        W 7570   7.093   4.176  12.464  0.0971  0.0584 -0.1667
 3520W        W 7571   1.991   5.640   9.882  0.0811 -0.1309 -0.0154
 3521W        W 7572   5.600   4.881  12.777 -0.1174  0.3873 -0.1252
 3522W        W 7573   3.922   0.999   0.135  0.1239 -0.1846 -0.0196
 3523W        W 7574   6.754   9.344  13.219  0.1679 -0.3013 -0.0943
 3524W        W 7575   7.701   1.601   2.525  0.0146 -0.1195 -0.0936
 3525W        W 7576   2.641   8.134   0.215 -0.2721 -0.2879  0.2261
 3526W        W 7577   6.694   4.895  12.128 -0.0261  0.1744 -0.1954
 3527W        W 7578   5.882   3.804   4.129  0.0702 -0.0082  0.2375
 3528W        W 7579   3.178   5.043   0.976  0.0085 -0.1670  0.1313
 3529W        W 7580   5.701   3.528  10.992  0.0995  0.5760  0.1772
 3530W        W 7581   4.646   5.544  10.563 -0.1832 -0.2436  0.5579
 3531W        W 7582   9.707   5.072  13.647 -0.0518 -0.0078  0.1167
 3532W        W 7583   4.237   3.244  10.831 -0.0845 -0.1898 -0.0461
 3533W        W 7584   0.594   5.064   3.581 -0.3046  0.0054  0.0262
 3534W        W 7585   0.447   0.169   2.781  0.0384 -0.1722 -0.0663
 3535W        W 7586   0.401   2.650   0.378 -0.2066 -0.1112  0.0217
 3536W        W 7587   2.272   3.336   1.615 -0.0596  0.3526  0.3743
 3537W        W 7588   2.548   0.361   1.754  0.2244 -0.1011  0.1331
 3538W        W 7589   8.311   4.527  11.159 -0.1609  0.0055  0.2036
 3539W        W 7590   6.203   0.104   0.250  0.3536 -0.2309 -0.0670
 3540W        W 7591   3.798   8.496   2.764  0.3246  0.2684  0.3422
 3541W        W 7592   9.429  10.146  11.289 -0.1462 -0.3386 -0.1848
 3542W        W 7593   8.244   8.944  12.281 -0.0748  0.0462  0.1730
 3543W        W 7594   7.912   9.397   3.015  0.2616  0.1933 -0.0376
 3544W        W 7595   7.009   8.563  11.845 -0.1205  0.5120  0.2798
 3545W        W 7596   5.353   3.221   3.479  0.2661  0.0619 -0.1222
 3546W        W 7597   3.020   2.049   9.718 -0.1033  0.1709 -0.4421
 3547W        W 7598   0.358   4.395   4.516 -0.2926 -0.2695  0.1080
 3548W        W 7599   1.343   5.091   5.476 -0.0077 -0.0680 -0.0135
 3549W        W 7600   2.123   0.675  13.436 -0.0695 -0.2001  0.0891
 3550W        W 7601   5.981  10.034   1.348 -0.0055 -0.0295 -0.0396
 3551W        W 7602   0.243   9.846   9.627  0.0186 -0.3694 -0.2385
 3552W        W 7603   1.019   5.440   0.973 -0.0714  0.1124 -0.1381
 3553W        W 7604   9.692   6.646  10.835 -0.0522  0.0557  0.1585
 3554W        W 7605   5.545   4.952   4.469  0.0390  0.1044  0.1968
 3555W        W 7606   8.783   6.580   3.325  0.1503 -0.0472  0.1296
 3556W        W 7607   5.189   1.966   3.485 -0.0261 -0.0396 -0.0078
 3557W        W 7608   3.586   4.405  12.094  0.2550 -0.1128  0.0195
 3558W        W 7609   5.029   7.740  13.331  0.0832 -0.1301  0.1625
 3559W        W 7610   0.744   8.510  11.930  0.0712  0.0738  0.1471
 3560W        W 7611   5.564   0.820   1.021 -0.0571 -0.0206  0.0262
 3561W        W 7612   1.750   6.769   2.952  0.2439  0.1008  0.0238
 3562W        W 7613   2.295   4.113   2.489 -0.2627 -0.1330  0.0790
 3563W        W 7614   4.212   8.703   1.154  0.1648 -0.0350  0.3166
 3564W        W 7615   3.123   9.093  10.440 -0.1488 -0.2185  0.0020
 3565W        W 7616   0.430   6.036   3.359  0.2585 -0.0801  0.0407
 3566W        W 7617   3.037   4.897   3.912  0.1262  0.0764 -0.1424
 3567W        W 7618   7.103   5.711  12.651  0.0049  0.3903  0.1352
 3568W        W 7619   1.701   3.799   3.902 -0.5060 -0.1169  0.0749
 3569W        W 7620   4.146   9.296   1.109 -0.1094  0.1477 -0.2591
 3570W        W 7621   2.805   8.544  12.177 -0.0729  0.2275  0.1167
 3571W        W 7622   0.902   0.275   0.956 -0.2070  0.2649 -0.1971
 3572W        W 7623   4.547   7.017  10.154 -0.1085 -0.2358 -0.0129
 3573W        W 7624   3.115  10.054  10.011 -0.0380  0.0470 -0.0338
 3574W        W 7625   0.831   6.986   3.289  0.0809 -0.0888 -0.5130
 3575W        W 7626   2.244   2.018   1.118 -0.0643  0.2343  0.2412
 3576W        W 7627   5.022   0.844  11.601 -0.0436 -0.0007  0.3772
 3577W        W 7628   7.021   4.128  10.936  0.2128 -0.1416  0.0948
 3578W        W 7629   9.475   7.401  13.214  0.1247  0.1060  0.2343
 3579W        W 7630   0.873   1.304   2.440  0.2506 -0.4155  0.0668
 3580W        W 7631   6.437   3.571  11.953 -0.2455 -0.1962  0.1633
 3581W        W 7632   6.795   1.833  10.811  0.1669  0.1699 -0.0416
 3582W        W 7633   2.196   2.354   3.633 -0.0579  0.2753 -0.1360
 3583W        W 7634   8.195   8.214   2.415  0.0993 -0.2377  0.0403
 3584W        W 7635   2.729   6.760  12.401  0.0999  0.2083 -0.0703
 3585W        W 7636   4.217   6.577  10.968 -0.0151 -0.0830  0.0487
 3586W        W 7637   9.682   1.980  12.759  0.2156 -0.0603  0.0977
 3587W        W 7638   6.138   1.825  13.566 -0.1345 -0.0566  0.0327
 3588W        W 7639   5.787   7.762   0.924  0.0492 -0.0186  0.1729
 3589W        W 7640   8.320   4.325   9.673  0.0547 -0.2396 -0.0983
 3590W        W 7641   7.527   6.319   1.409 -0.1202 -0.0291 -0.0913
 3591W        W 7642   1.427   5.435   0.294  0.0748 -0.1889  0.0986
 3592W        W 7643   8.196   4.914  12.161  0.0657 -0.0713  0.2852
 3593W        W 7644   9.126   5.377   2.305  0.1161  0.3291  0.1872
 3594W        W 7645   6.986   3.862  13.043  0.1514 -0.0022  0.0221
 3595W        W 7646   5.356   7.548  13.841  0.1421  0.1150  0.0979
 3596W        W 7647   6.182   7.023   0.913 -0.2363 -0.0128  0.2110
 3597W        W 7648   5.025   9.971  12.595 -0.3309 -0.1765 -0.1883
 3598W        W 7649   9.905   7.647   2.478  0.4510 -0.2401  0.0965
 3599W        W 7650   2.375   4.324  10.098 -0.0804 -0.2688  0.0787
 3600W        W 7651   3.108   5.059  10.063  0.3714  0.0751  0.0674
 3601W        W 7652   6.672   4.070   2.033 -0.1019  0.1421 -0.1740
 3602W        W 7653   5.294   8.691   1.887  0.2122 -0.1627  0.0967
 3603W        W 7654   2.085   0.958   4.818 -0.0169 -0.1347  0.0209
 3604W        W 7655   3.369   4.467   3.524 -0.0156  0.1547  0.0150
 3605W        W 7656   3.213   0.091   9.499  0.2190 -0.0778  0.1839
 3606W        W 7657   8.554   8.172   3.275 -0.1813 -0.2786 -0.3278
 3607W        W 7658   8.694   3.038   3.644  0.0165  0.0168  0.0702
 3608W        W 7659   2.951   9.820   1.430  0.1907  0.2259  0.3193
 3609W        W 7660   2.650   8.493   3.980 -0.0198 -0.0976  0.2736
 3610W        W 7661   6.110   7.506  11.804  0.4141 -0.1524 -0.0501
 3611W        W 7662   1.796   4.654  13.476  0.2691 -0.3557  0.1040
 3612W        W 7663   8.224   8.478   1.940 -0.1398 -0.0107  0.1146
 3613W        W 7664   9.549   9.241   0.554 -0.1065  0.0607 -0.1807
 3614W        W 7665   7.901   0.942   9.315 -0.0216 -0.0734  0.0968
 3615W        W 7666   3.538   7.765  12.261  0.0142 -0.1189 -0.0961
 3616W        W 7667   7.342   0.932   1.018 -0.0214  0.0942  0.1334
 3617W        W 7668   7.467   3.945  12.735  0.0571  0.0824  0.0312
 3618W        W 7669   0.761   2.824   2.425 -0.1037  0.2154  0.1597
 3619W        W 7670   3.878   1.907   2.368 -0.0594  0.1592 -0.0169
 3620W        W 7671  10.091   5.796   2.745  0.3279 -0.3335  0.0424
 3621W        W 7672   5.107   9.456  12.355 -0.1670  0.0512  0.2761
 3622W        W 7673   3.189   5.683   0.486  0.2636  0.1642 -0.1015
 3623W        W 7674   5.655   7.077   2.005  0.0832  0.0152 -0.1531
 3624W        W 7675   9.560   7.379  13.778 -0.2814  0.0499  0.3996
 3625W        W 7676   2.337   7.055   4.493  0.1658  0.0703 -0.0769
 3626W        W 7677   8.452   2.032   1.502  0.0437  0.3020  0.0431
 3627W        W 7678   8.976   6.757  10.610  0.0248  0.0350  0.0087
 3628W        W 7679   4.869   0.127   2.774  0.0973 -0.0719 -0.0028
 3629W        W 7680   3.427   3.940  12.934 -0.1107 -0.1819 -0.0798
 3630W        W 7681   8.005   0.923   3.232  0.0005  0.0772 -0.0208
 3631W        W 7682   2.238   6.347   1.303 -0.1859 -0.1502 -0.4546
 3632W        W 7683   2.240   3.687  10.564 -0.1317  0.0038  0.0427
 3633W        W 7684   9.428   5.878  10.773  0.3143  0.0253 -0.2939
 3634W        W 7685   4.801   5.439   3.322  0.1164  0.1604  0.0257
 3635W        W 7686   6.960   8.837  11.306 -0.0119  0.0586  0.2413
 3636W        W 7687   7.205   9.696   1.948  0.1074 -0.0275  0.1216
 3637W        W 7688   8.035   0.785   4.859  0.0577 -0.0888  0.1554
 3638W        W 7689   0.850   6.434   1.635  0.0744  0.0480  0.0916
 3639W        W 7690   2.144   2.986   3.611 -0.1284 -0.1635  0.2031
 3640W        W 7691   5.172   8.233  13.219  0.2012  0.1324 -0.0657
 3641W        W 7692   8.787   7.848  12.496  0.1288 -0.1268  0.3920
 3642W        W 7693   0.500   1.942   2.995  0.0854 -0.2759  0.2099
 3643W        W 7694   3.455   1.754  10.419  0.3029  0.1278 -0.2012
 3644W        W 7695   4.619   9.501   9.026 -0.1107 -0.0519 -0.1706
 3645W        W 7696   2.274  10.132   3.232 -0.1061 -0.1265  0.0468
 3646W        W 7697   6.031   4.727   3.653 -0.2893 -0.2197 -0.2400
 3647W        W 7698   1.021   5.480  13.941 -0.0979  0.0206  0.0241
 3648W        W 7699   6.945   5.724  10.794 -0.1245 -0.1902  0.0978
 3649W        W 7700   8.799   0.699   1.096 -0.0477  0.1425  0.4821
 3650W        W 7701   0.678   6.845   1.367  0.1550  0.3558  0.0168
 3651W        W 7702   8.980   4.153  11.713  0.3571  0.1229  0.4065
 3652W        W 7703   4.243   5.038   3.827  0.3997  0.1581 -0.0760
 3653W        W 7704   2.481   5.780   9.843  0.2080 -0.3767  0.1355
 3654W        W 7705   0.519   2.132  10.247 -0.1543 -0.2803  0.2908
 3655W        W 7706  10.043   2.931   3.438 -0.1696  0.0720 -0.2363
 3656W        W 7707   2.074   0.864  12.249 -0.1009 -0.0728 -0.3250
 3657W        W 7708   3.014   7.553   9.488 -0.1085  0.0918 -0.1187
 3658W        W 7709   0.502   6.248   0.024 -0.1928  0.0529  0.3355
 3659W        W 7710   1.475   4.157  13.110 -0.1443  0.1730  0.0325
 3660W        W 7711   3.890   6.131  10.870 -0.0615 -0.0217  0.1069
 3661W        W 7712   1.807   1.501   0.086  0.1663  0.1222  0.1476
 3662W        W 7713   0.379   5.185   4.140  0.1597  0.0207  0.0173
 3663W        W 7714   9.349   9.473  11.439  0.0942  0.0688  0.1526
 3664W        W 7715   6.891   3.280  10.114 -0.1035 -0.0973 -0.0350
 3665W        W 7716   5.772   0.944  13.846 -0.0683 -0.4398  0.1272
 3666W        W 7717   4.503   2.884  12.560  0.1049 -0.1059  0.1150
 3667W        W 7718   2.976   5.674   9.965  0.2505 -0.0141 -0.0858
 3668W        W 7719   5.614   0.775   5.391 -0.5951 -0.1004  0.1475
 3669W        W 7720   2.766   9.979   3.439 -0.0326 -0.1977 -0.0097
 3670W        W 7721   7.185   8.727   9.642 -0.0658 -0.1879 -0.0580
 3671W        W 7722   7.901   3.569   2.530  0.0037 -0.0800  0.3814
 3672W        W 7723   7.437   8.819  12.144 -0.1929 -0.1275  0.1827
 3673W        W 7724   0.603   1.880  10.694  0.1301  0.1587 -0.0948
 3674W        W 7725   7.689   2.840   1.264  0.0724  0.1369  0.0342
 3675W        W 7726   8.955   7.470  10.680  0.0821  0.0281  0.4110
 3676W        W 7727   4.628   5.011   2.636  0.0047  0.0939 -0.0048
 3677W        W 7728   6.295   6.073  11.606 -0.0439 -0.0167  0.0293
 3678W        W 7729   2.710   9.549   4.303  0.1977  0.2521 -0.0492
 3679W        W 7730   6.114   6.342  10.412  0.0873 -0.1642  0.0825
 3680W        W 7731   1.134   6.787   3.714  0.1689 -0.2453 -0.2706
 3681W        W 7732   3.181   4.606   2.119  0.0419 -0.0078  0.0690
 3682W        W 7733   3.607   0.025   4.026 -0.3062 -0.0336 -0.3442
 3683W        W 7734   5.037   1.855   0.932 -0.1095  0.1035 -0.0609
 3684W        W 7735   9.279   3.315  10.779  0.0326  0.1273 -0.0060
 3685W        W 7736   1.830   9.921   5.525 -0.0336 -0.0964  0.1246
 3686W        W 7737   0.536   4.113   1.757  0.1916  0.1711  0.0601
 3687W        W 7738   2.009   2.247   9.304 -0.0739 -0.0470 -0.0629
 3688W        W 7739   8.386   0.345   2.289 -0.3668  0.3938  0.0818
 3689W        W 7740   9.443   5.675   4.663  0.2005 -0.1270  0.0022
 3690W        W 7741   2.064   8.526  12.808 -0.0064 -0.1172 -0.2254
 3691W        W 7742   1.223   4.259   4.546 -0.1177 -0.0098  0.1094
 3692W        W 7743   4.040   9.326   3.989  0.0825 -0.3607 -0.0118
 3693W        W 7744   6.138   0.540  11.236  0.3361  0.1075  0.0015
 3694W        W 7745   5.329   0.862  10.253  0.0689 -0.0057 -0.0933
 3695W        W 7746   6.145   3.757   1.903 -0.1549 -0.0568  0.2213
 3696W        W 7747   4.193   2.579   1.735 -0.0665 -0.2623  0.2726
 3697W        W 7748   2.183   6.023  10.290  0.1306  0.1103  0.2909
 3698W        W 7749   8.592   0.071  11.390  0.1977 -0.0312  0.3424
 3699W        W 7750   2.912   6.877   8.585 -0.0725  0.2082  0.1151
 3700W        W 7751   4.254   6.007  11.712 -0.1262  0.0889  0.1603
 3701W        W 7752   1.105   3.566   2.279 -0.1782  0.0083  0.0361
 3702W        W 7753   5.291   1.097   1.416  0.1085 -0.1768  0.0324
 3703W        W 7754   7.742   5.063  13.258 -0.1214  0.2015 -0.2402
 3704W        W 7755   6.933   8.368  12.692 -0.0195  0.0270  0.0522
 3705W        W 7756   2.979   5.174  11.769 -0.1724  0.0747  0.0201
 3706W        W 7757   5.485   7.475   3.807  0.3668 -0.0169  0.4583
 3707W        W 7758   7.374   1.563   4.839  0.0511 -0.0714  0.1138
 3708W        W 7759   1.436   6.914  10.807  0.2609  0.3609 -0.0324
 3709W        W 7760   0.939   6.820   9.314 -0.3010  0.0307 -0.0844
 3710W        W 7761   1.872   7.680   0.473  0.0345  0.0314  0.2887
 3711W        W 7762   9.312   6.437   0.354 -0.0277  0.1573  0.0284
 3712W        W 7763   8.636   3.420  13.213  0.0027 -0.0827  0.2137
 3713W        W 7764   4.492   2.715  12.082 -0.0912 -0.2775  0.1708
 3714W        W 7765   8.727   7.230   3.456 -0.0169  0.0556  0.1873
 3715W        W 7766   2.131   5.177   2.218  0.0623  0.1190  0.1520
 3716W        W 7767   1.519   2.644   8.654  0.0636 -0.0205  0.0525
 3717W        W 7768   7.181   9.588  13.306 -0.0114 -0.0485 -0.1292
 3718W        W 7769   4.694   6.261   3.454 -0.1165 -0.0678 -0.4340
 3719W        W 7770   3.123   8.041  13.097 -0.1472  0.1245 -0.1746
 3720W        W 7771   7.294   6.175   0.574  0.2364  0.0505  0.3033
 3721W        W 7772   7.272  10.008   9.812 -0.0918  0.2359 -0.1113
 3722W        W 7773   2.488   3.235  13.733 -0.1010  0.0157 -0.2946
 3723W        W 7774   1.928   2.099   2.727  0.4101  0.0467 -0.1436
 3724W        W 7775   5.739   8.471   0.681  0.0784  0.3585  0.1409
 3725W        W 7776   5.988   1.766   0.674 -0.2541  0.3064  0.0631
 3726W        W 7777   8.858   4.264   3.421  0.0744 -0.0434 -0.0420
 3727W        W 7778   9.460   1.559  13.622 -0.2737 -0.0577  0.0280
 3728W        W 7779   2.944   2.127   8.855  0.0894  0.1723  0.2398
 3729W        W 7780   7.901   6.616   0.750  0.2611  0.0143  0.0106
 3730W        W 7781   8.150   3.852   3.821 -0.1961  0.0031  0.0864
 3731W        W 7782   6.767   2.187   4.338 -0.0376  0.2598  0.1226
 3732W        W 7783   2.718   9.000   1.025  0.0506 -0.1310 -0.1971
 3733W        W 7784   3.028   2.035  11.896 -0.2327 -0.1623 -0.1833
 3734W        W 7785   9.032   4.037  11.097  0.0846  0.1676 -0.1160
 3735W        W 7786   4.682   7.347  13.150  0.0242 -0.0416  0.3407
 3736W        W 7787   8.470   8.483   0.668  0.0773 -0.1938  0.1070
 3737W        W 7788   9.977   7.998   3.321 -0.1718 -0.2311 -0.3826
 3738W        W 7789   0.667   2.187  12.956  0.1342 -0.0394 -0.1096
 3739W        W 7790   0.870   5.620   4.346 -0.1137 -0.0929  0.1400
 3740W        W 7791   5.062  10.150   9.153  0.1316  0.0957 -0.3531
 3741W        W 7792  10.106   3.050   1.106  0.0534  0.0484 -0.1322
 3742W        W 7793   4.129   6.741   1.794  0.3550 -0.2275  0.0862
 3743W        W 7794   6.038   8.093  13.603  0.0672  0.0417  0.0765
 3744W        W 7795   2.114   2.614   0.272 -0.0087 -0.0289 -0.1130
 3745W        W 7796   3.408   4.948   3.435  0.0223 -0.2045  0.1056
 3746W        W 7797   9.778   6.694   0.318  0.1142 -0.0499  0.3109
 3747W        W 7798   8.398   5.752   2.326 -0.0495  0.1678  0.2048
 3748W        W 7799   2.483   4.624   1.458 -0.0985 -0.0404 -0.1147
 3749W        W 7800   4.678   3.146  11.116  0.1336  0.0437  0.1295
 3750W        W 7801   8.670   2.153  10.629 -0.0212  0.1583 -0.1933
 3751W        W 7802   5.440   1.575   9.882  0.0828 -0.0573  0.0198
 3752W        W 7803   8.005   3.950   1.932 -0.0658  0.2626  0.0082
 3753W        W 7804   5.967   9.463  11.963 -0.0477  0.2560 -0.1412
 3754W        W 7805   1.160   1.039   0.618  0.2039 -0.0021 -0.0162
 3755W        W 7806   1.342   0.953  12.439 -0.0652  0.0068  0.0418
 3756W        W 7807   1.755   7.245   1.511  0.0501 -0.0010  0.1635
 3757W        W 7808   6.744   2.256  11.430 -0.0548  0.0735  0.2307
 3758W        W 7809   4.262   3.582  13.479  0.0791  0.1183 -0.0518
 3759W        W 7810   8.165  10.056  11.560  0.0578  0.0703  0.2262
 3760W        W 7811   4.003   9.224  12.059  0.0828 -0.1724  0.2993
 3761W        W 7812   5.704   1.876   2.904  0.1128 -0.0429 -0.3962
 3762W        W 7813   1.002   9.890   4.608  0.2796  0.1160 -0.1926
 3763W        W 7814   0.723   0.303   0.399 -0.1466  0.1603 -0.3161
 3764W        W 7815   3.160   5.696  13.264  0.2375 -0.0370 -0.3318
 3765W        W 7816   7.206   9.424   0.690  0.4311 -0.0518 -0.0526
 3766W        W 7817   0.305   4.914  10.552  0.1026  0.0504  0.0539
 3767W        W 7818   1.154   7.625  12.692  0.0009  0.1244  0.0650
 3768W        W 7819   7.862   1.668   4.950  0.1408  0.4195  0.0312
 3769W        W 7820   3.659   3.981   2.650 -0.0436  0.0359 -0.0144
 3770W        W 7821   6.510   3.445   1.013 -0.1287 -0.3411 -0.1119
 3771W        W 7822   0.998   1.941  13.215  0.4342  0.0027 -0.0101
 3772W        W 7823   3.101   8.745   4.054 -0.3313 -0.1305  0.0912
 3773W        W 7824   1.503   9.402   9.741  0.1257 -0.0689  0.1194
 3774W        W 7825   1.681   2.339  12.673  0.4731  0.0316 -0.0864
 3775W        W 7826   1.661   8.235   8.494 -0.1453 -0.0960 -0.1183
 3776W        W 7827   2.502   5.295  11.528  0.1542 -0.2260 -0.0086
 3777W        W 7828   7.347   5.573   3.617  0.1133  0.1287 -0.2849
 3778W        W 7829   3.245   4.821  13.216  0.0122  0.0697 -0.2947
 3779W        W 7830   0.826   3.440  12.163  0.1884 -0.4123  0.2266
 3780W        W 7831   1.744   4.262  11.359  0.0969  0.0612 -0.2675
 3781W        W 7832   9.741   1.560   0.634 -0.2574  0.1170 -0.0172
 3782W        W 7833   1.465   6.657  12.683 -0.2330  0.0207  0.4769
 3783W        W 7834   0.965   6.147  10.997  0.0516 -0.0517  0.2716
 3784W        W 7835   8.263   0.334   3.925 -0.0900  0.0764 -0.2985
 3785W        W 7836   0.304   9.110   1.647 -0.0772 -0.1361  0.0563
 3786W        W 7837   5.204   3.770  11.654 -0.3904  0.0366 -0.0060
 3787W        W 7838   1.665   1.656   0.937  0.2948  0.1749 -0.0470
 3788W        W 7839   9.315   5.065   1.400  0.0727 -0.2421  0.0366
 3789W        W 7840   2.925   5.980  12.468 -0.0818 -0.1100 -0.1814
 3790W        W 7841   6.998   1.992   2.786  0.2669 -0.0296 -0.0330
 3791W        W 7842   3.571   4.700   1.089  0.0329  0.0050  0.0465
 3792W        W 7843   2.126   6.006   2.806  0.3592 -0.3014  0.1143
 3793W        W 7844   7.147  10.095   5.289 -0.0571 -0.1666  0.0812
 3794W        W 7845   9.105   7.342  11.932 -0.1055 -0.4026  0.2592
 3795W        W 7846   9.703   5.302   1.613  0.2043  0.1471 -0.0395
 3796W        W 7847   8.287   5.698   1.712  0.1936  0.2202 -0.3059
 3797W        W 7848   1.215   5.653   3.936  0.1599 -0.4348  0.0127
 3798W        W 7849  10.043   2.889  10.060  0.1011  0.0723  0.3067
 3799W        W 7850   0.751   6.926  10.321 -0.0906  0.0364 -0.1995
 3800W        W 7851   5.656   1.512  13.769 -0.1708 -0.1056 -0.0804
 3801W        W 7852   3.732   9.748   8.952  0.0238 -0.1507  0.2002
 3802W        W 7853   0.020   8.647   1.783 -0.0434  0.0559  0.0421
 3803W        W 7854   7.435   0.192  12.897  0.0559 -0.0233  0.0967
 3804W        W 7855   2.083   9.207   3.547  0.0274  0.0543 -0.0961
 3805W        W 7856   2.803   9.407   2.419 -0.1616 -0.1612  0.0870
 3806W        W 7857   0.830   3.417  12.795 -0.1774  0.1142  0.1932
 3807W        W 7858   5.756   4.008   0.173 -0.3931 -0.1550 -0.0857
 3808W        W 7859   7.563   9.967  13.520 -0.2524  0.2756  0.1417
 3809W        W 7860   9.851   2.742   2.993  0.1534  0.2794 -0.1901
 3810W        W 7861   5.449   6.929   3.208  0.1299 -0.0523  0.0054
 3811W        W 7862   9.254   6.347  10.799  0.1681  0.0230  0.5065
 3812W        W 7863   0.030   3.485   2.388  0.2278 -0.0953  0.4633
 3813W        W 7864   9.460   6.056   1.612  0.0799  0.1583 -0.1098
 3814W        W 7865   5.848   8.149   0.246 -0.1910  0.0076  0.3649
 3815W        W 7866   2.442   3.923  11.389  0.1141 -0.0199 -0.0454
 3816W        W 7867   3.783   0.541  12.185  0.0060 -0.1129 -0.0393
 3817W        W 7868   9.389   1.478  12.360  0.0571  0.1223  0.1043
 3818W        W 7869   5.457   7.236   9.284 -0.1004 -0.0074 -0.0999
 3819W        W 7870  10.158   9.265  10.315 -0.0151  0.1674 -0.6567
 3820W        W 7871   3.724   1.008  11.925 -0.0712 -0.0202 -0.1603
 3821W        W 7872   8.254   3.433   1.814 -0.2909 -0.0231 -0.2741
 3822W        W 7873   1.377   5.338  10.391  0.0031 -0.2983 -0.0718
 3823W        W 7874   8.863   6.037  10.091  0.1777 -0.1300  0.0792
 3824W        W 7875   3.487   2.280   3.196 -0.1417  0.0249 -0.1826
 3825W        W 7876   4.216   7.354   4.995  0.0039 -0.1589 -0.0265
 3826W        W 7877   4.376   9.183   0.340  0.0626 -0.2849  0.1044
 3827W        W 7878   1.206   2.026   4.154  0.1168 -0.0889  0.0129
 3828W        W 7879   9.885   4.694  11.447  0.2430  0.0727 -0.1383
 3829W        W 7880   1.665   0.463  12.348  0.1220  0.0847  0.0009
 3830W        W 7881   7.199   4.626  13.736  0.4564  0.1097  0.0463
 3831W        W 7882   9.921   3.963   2.077  0.0563  0.0755 -0.2810
 3832W        W 7883   3.591   3.697  13.309  0.0285 -0.1850  0.0018
 3833W        W 7884   4.055   4.680   9.703 -0.1037 -0.2562 -0.0793
 3834W        W 7885   6.413   2.885  12.705  0.1949 -0.0193 -0.3438
 3835W        W 7886   6.744   3.255   3.865 -0.0079 -0.2474  0.2264
 3836W        W 7887   9.825   2.167   9.954 -0.0612 -0.2226 -0.0312
 3837W        W 7888   9.074   2.252  12.505 -0.2398 -0.1407 -0.0114
 3838W        W 7889   7.509   1.449   4.328 -0.0909  0.2737  0.4281
 3839W        W 7890   8.519   3.756   1.334  0.2117  0.0868 -0.0201
 3840W        W 7891   5.115   7.802  12.093 -0.4370 -0.1759  0.2546
 3841W        W 7892   6.393   0.589  13.113 -0.1289 -0.0438  0.1689
 3842W        W 7893   7.583   0.996  12.554  0.0354 -0.4070  0.2360
 3843W        W 7894   3.847   4.132  13.298 -0.0982 -0.0655 -0.0063
 3844W        W 7895   4.543   5.632   5.054  0.1669 -0.1846  0.4231
 3845W        W 7896   3.086   5.356   1.758  0.0650 -0.2366  0.2026
 3846W        W 7897   6.445   5.138   2.464  0.1388 -0.2762  0.0175
 3847W        W 7898   9.964   6.163  12.724 -0.0707  0.2683 -0.1055
 3848W        W 7899   4.591   1.257  10.275 -0.0098 -0.2539 -0.2604
 3849W        W 7900   5.291   5.555  13.099 -0.0874  0.1088  0.2772
 3850W        W 7901   5.371   1.617  13.309 -0.0772  0.1682  0.0774
 3851W        W 7902   1.975   8.142  13.638  0.1395  0.1107  0.3074
 3852W        W 7903   2.549   3.639  10.956  0.1328  0.0801  0.0320
 3853W        W 7904   0.821   1.448  10.570 -0.2984  0.5219  0.1297
 3854W        W 7905   9.674   3.216   2.923  0.1118 -0.0762  0.0217
 3855W        W 7906   6.387   8.429  13.606  0.2153  0.2540 -0.1981
 3856W        W 7907   0.020   1.110   2.809  0.0075 -0.1349 -0.0574
 3857W        W 7908   9.658   7.839  11.275 -0.0077 -0.0297 -0.2021
 3858W        W 7909   3.000   5.418  11.272  0.3586  0.1827  0.0026
 3859W        W 7910   8.506   8.278   4.105  0.1075  0.1864  0.0196
 3860W        W 7911   1.354   2.887   3.797  0.1381  0.0585 -0.1538
 3861W        W 7912   2.629   8.102  10.800 -0.0257 -0.0186 -0.1606
 3862W        W 7913   4.604   2.962   8.569  0.1362  0.0418  0.0028
 3863W        W 7914   7.524   3.261   4.469  0.1463 -0.0678  0.0484
 3864W        W 7915   8.220   3.693   9.958  0.2304  0.2243 -0.1461
 3865W        W 7916   2.446   9.212  12.190 -0.0543  0.0019  0.1322
 3866W        W 7917   7.817   0.714  11.528  0.0222  0.1356 -0.2065
 3867W        W 7918   5.306   2.716   2.448 -0.1476 -0.2623  0.0244
 3868W        W 7919   2.683   7.615   3.526 -0.2303 -0.0638  0.0169
 3869W        W 7920   6.332   5.567   0.692  0.0362 -0.1082  0.0763
 3870W        W 7921   6.459   0.601  10.396 -0.0832  0.0136 -0.0842
 3871W        W 7922   3.666   3.761   3.479 -0.1112 -0.0632  0.0127
 3872W        W 7923   0.245   4.478   1.485 -0.0240 -0.2438 -0.1529
 3873W        W 7924   8.468   5.571   0.474  0.1170  0.2481 -0.1794
 3874W        W 7925   8.658   3.359   0.020  0.1604  0.1795 -0.1871
 3875W        W 7926   1.246   4.077  11.252  0.0048  0.2631  0.1529
 3876W        W 7927   3.061   1.596  12.319  0.3187 -0.0007  0.0251
 3877W        W 7928   3.812   7.126   2.588  0.0379  0.0725 -0.1348
 3878W        W 7929   4.760   3.894   2.705 -0.1922 -0.1453  0.0701
 3879W        W 7930   2.776   0.304   4.719 -0.2622 -0.0470 -0.0109
 3880W        W 7931   3.111   3.484  12.063 -0.3819  0.1544 -0.2149
 3881W        W 7932   0.454   0.402   2.261  0.1721  0.0242 -0.1024
 3882W        W 7933   5.213   9.384   9.628  0.2815  0.2148 -0.3096
 3883W        W 7934   6.878   2.844  12.428 -0.4286  0.2949 -0.1112
 3884W        W 7935   2.671   6.304   0.595 -0.1249  0.1666 -0.4666
 3885W        W 7936  10.177   3.839  10.245 -0.2023  0.0098  0.2034
 3886W        W 7937   3.641   0.307   3.330 -0.2421  0.1217 -0.1382
 3887W        W 7938   7.273   8.538  13.048  0.2616  0.1334 -0.2433
 3888W        W 7939   4.502   1.881  12.405  0.1235 -0.4303 -0.2750
 3889W        W 7940   9.615  10.102  10.183  0.0062  0.0500 -0.1374
 3890W        W 7941   4.791   5.578   0.756 -0.0720 -0.3612 -0.1573
 3891W        W 7942   6.745   5.937  10.259  0.1256 -0.4371  0.2471
 3892W        W 7943   5.091   5.254  13.401 -0.2675 -0.0585  0.0698
 3893W        W 7944   0.468   0.207   3.274  0.2215  0.0232 -0.1966
 3894W        W 7945   2.440   2.359   4.496  0.0393 -0.0298  0.1392
 3895W        W 7946   4.087   4.310   2.308 -0.1139 -0.1089 -0.1862
 3896W        W 7947   4.018   8.611   3.458 -0.2114 -0.0158 -0.0755
 3897W        W 7948   4.472   1.043   3.308  0.1043  0.0708 -0.1328
 3898W        W 7949   7.172   2.892  10.277  0.1038 -0.3953 -0.1128
 3899W        W 7950   7.439   6.774   1.009  0.4301  0.0776  0.0750
 3900W        W 7951   7.542   0.306  10.700  0.1444 -0.0106  0.2104
 3901W        W 7952   1.821   4.253   2.618  0.2217 -0.0042  0.0063
 3902W        W 7953   9.432   1.024  12.048 -0.0470 -0.1682 -0.2510
 3903W        W 7954   2.493   3.338   0.715 -0.0154  0.2103 -0.0174
 3904W        W 7955   5.216   5.365   2.051 -0.1245 -0.3665  0.1229
 3905W        W 7956   9.772   2.791   0.070  0.1557 -0.0356  0.0089
 3906W        W 7957   3.614   6.630  10.753 -0.1712 -0.0970  0.4567
 3907W        W 7958   6.816   8.076   2.836  0.0551  0.0286 -0.0925
 3908W        W 7959   2.045   7.299  13.193  0.0471 -0.2081 -0.1003
 3909W        W 7960   0.918   2.768  12.144  0.1474 -0.1782  0.0186
 3910W        W 7961   4.360   0.916   2.391 -0.1053  0.2389  0.2501
 3911W        W 7962   4.368   7.644   0.323 -0.0455 -0.1274  0.0671
 3912W        W 7963   9.864   5.841   9.969  0.0867  0.1558  0.0244
 3913W        W 7964   0.263   5.673   3.686  0.1386  0.0484  0.0141
 3914W        W 7965   0.563   8.864   3.881  0.1356  0.0779 -0.0024
 3915W        W 7966   2.060   7.244   9.740 -0.1827  0.2916 -0.1501
 3916W        W 7967   0.845   6.716  12.714 -0.0660 -0.0056  0.0595
 3917W        W 7968   8.319   4.581   2.826 -0.0080 -0.0667 -0.0555
 3918W        W 7969   3.482   4.285  11.578  0.2403  0.2027  0.1610
 3919W        W 7970   8.440   8.364   1.470  0.1740 -0.0748  0.0759
 3920W        W 7971   7.614   4.858   3.503  0.0429 -0.3738  0.1152
 3921W        W 7972   6.593   6.435  13.108  0.0278  0.1447 -0.0197
 3922W        W 7973   6.333   9.049   0.357 -0.1925 -0.4662 -0.0661
 3923W        W 7974   3.554   6.154  10.482 -0.2009  0.0166 -0.0599
 3924W        W 7975   4.264   4.839   4.262  0.0076 -0.3066  0.0259
 3925W        W 7976   0.583   9.608   0.715 -0.1069 -0.0815 -0.0710
 3926W        W 7977   1.547   9.521   3.387 -0.3038  0.2737  0.1482
 3927W        W 7978   8.037   4.503  12.479 -0.0189 -0.2360  0.2060
 3928W        W 7979   8.920   5.094  11.549 -0.1058 -0.2488 -0.1183
 3929W        W 7980   1.300   7.145   2.248 -0.2697 -0.2996 -0.1276
 3930W        W 7981   6.836   5.712   0.696  0.1884 -0.3213 -0.1800
 3931W        W 7982   7.404  10.017   3.219  0.0136 -0.0295 -0.0731
 3932W        W 7983   8.762   5.577   1.961  0.0939 -0.2606  0.4070
 3933W        W 7984   3.335   9.599   1.641  0.0221  0.0130 -0.2811
 3934W        W 7985   2.581   2.595  13.476  0.0972  0.0286  0.0240
 3935W        W 7986   7.450   8.253   1.559 -0.0936 -0.1174 -0.0890
 3936W        W 7987   5.616   4.721   1.835 -0.0093 -0.0263  0.3148
 3937W        W 7988   6.904   6.406   2.675 -0.0224  0.1630 -0.2795
 3938W        W 7989   5.312   7.485  10.564 -0.2376 -0.1570  0.2996
 3939W        W 7990   5.384   2.482   5.378  0.3669 -0.1342 -0.1862
 3940W        W 7991   9.496   5.152   2.114 -0.5503 -0.0108  0.1587
 3941W        W 7992   6.923   1.883   3.921 -0.0358 -0.0912 -0.2647
 3942W        W 7993   2.083   8.435   5.017  0.2733  0.1383  0.5082
 3943W        W 7994   5.222   6.944   2.216  0.0589  0.0487  0.1621
 3944W        W 7995  10.047   9.295   0.306  0.1987 -0.1370 -0.1176
 3945W        W 7996   2.069   5.497   1.435 -0.0410  0.0556  0.0348
 3946W        W 7997   4.514   0.710   4.281  0.0279 -0.1404  0.1153
 3947W        W 7998  10.163   3.741   9.494  0.0116  0.3374  0.1897
 3948W        W 7999   4.807   2.126   4.945 -0.1753  0.1136  0.2350
 3949W        W 8000   9.060   3.622  12.549  0.1351 -0.1287 -0.4285
 3950W        W 8001   1.811   0.285  10.653  0.2405  0.0886  0.1576
 3951W        W 8002   6.588   2.846   1.115  0.0843 -0.1274  0.2133
 3952W        W 8003   5.719   8.270  13.201  0.0181 -0.1752 -0.2764
 3953W        W 8004   9.004   5.833  10.552 -0.0335 -0.4808  0.1503
 3954W        W 8005   3.427   4.511   4.016 -0.2317 -0.0827  0.0328
 3955W        W 8006   5.166   0.064  10.539 -0.0549  0.1589 -0.1871
 3956W        W 8007   9.014   8.942  11.727 -0.2498  0.1338 -0.4291
 3957W        W 8008   1.921   4.813  10.971  0.0687  0.3062  0.2221
 3958W        W 8009   3.748   9.653  10.610 -0.2089 -0.2727  0.0109
 3959W        W 8010   6.380   2.675  11.588  0.0540 -0.0945  0.0070
 3960W        W 8011   0.254   8.883  13.474 -0.0790 -0.0468  0.1826
 3961W        W 8012   0.241   8.354  13.815 -0.2652 -0.1672 -0.1942
 3962W        W 8013   8.662   8.715  12.477 -0.0047 -0.3281 -0.1543
 3963W        W 8014   6.695   0.806   4.498  0.1936 -0.1214 -0.0201
 3964W        W 8015   9.738   6.137  11.082 -0.0224 -0.1166 -0.0046
 3965W        W 8016   8.920   5.841   2.400  0.2130 -0.0572 -0.1616
 3966W        W 8017   1.814   2.232  12.186  0.1711  0.0455 -0.0456
 3967W        W 8018   0.672   4.516   1.953 -0.0848 -0.0679 -0.1229
 3968W        W 8019   2.524   7.537   9.613  0.0097 -0.0268  0.3822
 3969W        W 8020   4.337   4.073  12.555  0.1559  0.1462  0.2919
 3970W        W 8021   7.809   3.261   2.940  0.1271 -0.0912  0.1818
 3971W        W 8022   8.567   6.368   3.793 -0.0722 -0.4211 -0.2534
 3972W        W 8023   4.350   9.077   9.116  0.1364  0.1411  0.0858
 3973W        W 8024   5.358   0.866   1.882 -0.1658  0.0046  0.0037
 3974W        W 8025   5.052   3.866  10.752  0.1473  0.0879 -0.1581
 3975W        W 8026   5.158   7.438  12.919 -0.2440 -0.1459 -0.3321
 3976W        W 8027   5.227   1.050   3.103 -0.0742  0.0139 -0.2218
 3977W        W 8028   7.706   9.547   2.015 -0.1556  0.0294 -0.1021
 3978W        W 8029   1.335   2.201   0.161 -0.0023  0.3070 -0.0284
 3979W        W 8030   5.861   4.432   0.399  0.0249 -0.2373 -0.2958
 3980W        W 8031   7.819   0.985  12.076  0.1431  0.1101  0.1797
 3981W        W 8032   2.752   4.428   9.444 -0.1445  0.0636 -0.0022
 3982W        W 8033   9.976   5.931   1.764  0.1341 -0.2964  0.1822
 3983W        W 8034   4.546   2.583   2.099 -0.1848  0.1004  0.3148
 3984W        W 8035   4.739   9.570   4.657  0.2586  0.0445  0.2212
 3985W        W 8036   1.655   3.078  11.961 -0.3200 -0.0696  0.1483
 3986W        W 8037   6.872   2.442   3.050  0.0436  0.1072  0.0198
 3987W        W 8038   9.517   1.357  10.916  0.1426 -0.3749  0.1278
 3988W        W 8039   8.390   1.129   4.595 -0.0485 -0.2226 -0.0509
 3989W        W 8040   3.881   7.251   3.326  0.0871  0.1947  0.0563
 3990W        W 8041   4.936   4.677   4.402  0.2929  0.5084  0.1280
 3991W        W 8042   5.301   1.976   5.204 -0.1617  0.3253  0.2847
 3992W        W 8043   6.815   4.155  11.415  0.4027  0.0317 -0.1465
 3993W        W 8044   6.910   4.453   4.329  0.0992  0.1432  0.1514
 3994W        W 8045   1.063   8.748   3.619  0.2823 -0.1685 -0.0191
 3995W        W 8046   3.491   2.145  11.592  0.0891  0.0476 -0.3338
 3996W        W 8047   9.761   4.618   0.416 -0.3029  0.0102 -0.3274
 3997W        W 8048   9.798   1.983  10.403 -0.1444  0.1018 -0.0487
 3998W        W 8049  10.174   3.029   1.587 -0.2059  0.0034 -0.0098
 3999W        W 8050   2.749   7.571   1.776 -0.0223 -0.2844  0.2949
 4000W        W 8051   6.782   1.573   1.604  0.0495 -0.0723 -0.2796
 4001W        W 8052   7.467   2.391  10.516  0.1283  0.2663  0.2432
 4002W        W 8053   7.054   1.450   4.117  0.2314  0.1834 -0.0384
 4003W        W 8054   0.424   0.868   4.814  0.1112 -0.4752  0.0014
 4004W        W 8055   8.609   2.789   0.172  0.1181 -0.3881 -0.2297
 4005W        W 8056   4.223   3.458   0.531 -0.0962 -0.2568 -0.0779
 4006W        W 8057   8.927   0.118  10.558 -0.1839 -0.0554 -0.1171
 4007W        W 8058   5.904   1.740  11.286 -0.0295 -0.0015 -0.0043
 4008W        W 8059   4.537   2.717   3.671 -0.0816 -0.0324  0.2523
 4009W        W 8060   8.512   1.381   0.011  0.0656 -0.0936  0.3643
 4010W        W 8061   3.975   2.087  12.560 -0.2715  0.0569  0.1576
 4011W        W 8062   9.509   4.873  13.160  0.0335  0.1581  0.1124
 4012W        W 8063   0.123   6.397  12.500 -0.0640  0.2045  0.1203
 4013W        W 8064   6.010   8.335  11.271  0.1284 -0.2536  0.1309
 4014W        W 8065   8.934   7.531   2.662  0.0588 -0.4605 -0.0880
 4015W        W 8066   4.779   3.420  13.402  0.2298 -0.3171  0.0069
 4016W        W 8067   3.740   6.010  13.866  0.3446  0.0074  0.0968
 4017W        W 8068   9.432   7.605  10.455  0.1351  0.2271 -0.2048
 4018W        W 8069   1.450   1.156   0.123  0.2425  0.0112 -0.1127
 4019W        W 8070   3.569   7.274   3.972  0.0001 -0.0105  0.3090
 4020W        W 8071   1.658   2.221   5.047 -0.0458  0.2885 -0.0312
 4021W        W 8072   3.057   0.536   9.875 -0.1059  0.1321 -0.1350
 4022W        W 8073   0.529   5.867   2.523 -0.0153 -0.1165 -0.2175
 4023W        W 8074   6.213   1.042  10.292  0.0638  0.2787 -0.0937
 4024W        W 8075   2.135   1.535   1.056  0.1521 -0.0127 -0.2712
 4025W        W 8076   7.756   0.273   3.912  0.0324  0.1345  0.0105
 4026W        W 8077   8.490   1.979   1.956  0.0180  0.0284  0.1461
 4027W        W 8078   8.056   7.365  10.683 -0.0683  0.1192  0.0194
 4028W        W 8079   4.271   5.918   1.613  0.0452 -0.0896  0.0759
 4029W        W 8080   7.118   5.878  11.456 -0.2908  0.1181 -0.2386
 4030W        W 8081   1.534   5.458   8.936 -0.0623  0.4182 -0.1973
 4031W        W 8082   0.431   7.222   1.221  0.0281 -0.4194 -0.2357
 4032W        W 8083   4.246   9.520   9.349  0.0379 -0.1405 -0.0243
 4033W        W 8084   2.929   3.516   3.702 -0.3073 -0.1970 -0.0227
 4034W        W 8085   8.732   9.666   0.379 -0.2317 -0.0578  0.1564
 4035W        W 8086   9.351   5.581  12.262 -0.2685  0.1481  0.0544
 4036W        W 8087   7.115   1.388  10.099 -0.2005 -0.1708  0.2602
 4037W        W 8088   5.827   1.331   0.233 -0.0449 -0.3414  0.0508
 4038W        W 8089   4.909   5.382   0.351 -0.0734  0.1706 -0.2862
 4039W        W 8090   0.992   8.577  10.379 -0.2366 -0.0048  0.2000
 4040W        W 8091   4.598   6.463  11.454 -0.3456  0.0577  0.1502
 4041W        W 8092   5.734   5.121  11.530  0.0625  0.2250 -0.1215
 4042W        W 8093   0.827   5.072  12.155 -0.1544  0.1028  0.1069
 4043W        W 8094   1.468   0.598  11.011  0.2107 -0.1494 -0.0851
 4044W        W 8095   3.947   3.716   3.017  0.1217 -0.1980 -0.1785
 4045W        W 8096  10.125   9.927  12.384 -0.0940 -0.2546 -0.3364
 4046W        W 8097   7.428   9.699  10.198  0.0752  0.0563 -0.1993
 4047W        W 8098   3.721   6.746   1.209 -0.3512 -0.2963 -0.0903
 4048W        W 8099   5.302   7.458   2.031 -0.1513 -0.0246  0.1527
 4049W        W 8100   4.341   8.624   1.640  0.0461 -0.1333 -0.1234
 4050W        W 8101   1.013   5.912   3.543 -0.0557 -0.3438  0.2242
 4051W        W 8102   3.997   5.261   0.752 -0.4339 -0.2043 -0.0683
 4052W        W 8103   8.315  10.143   1.527 -0.0874 -0.1794  0.1934
 4053W        W 8104   4.369   9.740   1.955  0.1221 -0.0893 -0.0596
 4054W        W 8105   6.964   1.460  10.534 -0.1196 -0.0983  0.1665
 4055W        W 8106   3.021  10.147   5.013  0.2291  0.2011  0.2784
 4056W        W 8107   6.113   4.759   4.191 -0.1813  0.0934 -0.1439
 4057W        W 8108   9.146   3.448   0.238 -0.0177  0.1165 -0.0164
 4058W        W 8109   1.177   6.027   4.322  0.0003 -0.1534  0.1662
 4059W        W 8110   3.640   7.006   0.131 -0.0407  0.2007  0.1962
 4060W        W 8111   1.340   9.510  10.764 -0.4465 -0.3370  0.2180
 4061W        W 8112   1.217   5.987   1.023  0.0412 -0.0168 -0.1855
 4062W        W 8113   6.576   6.808  11.780  0.2473 -0.1369 -0.0472
 4063W        W 8114   7.441   1.793  12.999 -0.1398 -0.0350  0.1835
 4064W        W 8115   7.182   3.651  10.149 -0.0981 -0.1841  0.0298
 4065W        W 8116   6.721   3.278   2.598  0.2434 -0.2517 -0.1924
 4066W        W 8117   2.738   6.734  13.418  0.1187 -0.2071  0.0397
 4067W        W 8118   5.255   7.851   1.708  0.1171  0.1395  0.0888
 4068W        W 8119   0.776   7.328  12.515  0.2866 -0.0453 -0.0639
 4069W        W 8120   0.366   0.496   0.020  0.3174  0.1957 -0.2120
 4070W        W 8121   8.463   5.437  13.949 -0.1607 -0.0199  0.0321
 4071W        W 8122   1.734   1.673  12.499 -0.0603  0.1178 -0.0542
 4072W        W 8123   1.939   3.627  10.128 -0.0024 -0.0143 -0.1690
 4073W        W 8124   6.972   2.208  10.543  0.3081 -0.0597 -0.1927
 4074W        W 8125   0.666   7.956   2.358  0.0724  0.3724  0.2116
 4075W        W 8126   0.785   6.318   4.348 -0.1632  0.0508  0.1707
 4076W        W 8127   8.002   7.023   2.817  0.1795 -0.0554  0.2377
 4077W        W 8128   8.138   2.983  10.511  0.0459 -0.0452  0.1505
 4078W        W 8129   4.601   9.246   0.830 -0.1209  0.1220  0.0242
 4079W        W 8130   5.899   5.236   2.413 -0.1134 -0.0344  0.1337
 4080W        W 8131   1.131   4.952  13.512  0.1439  0.1596  0.1676
 4081W        W 8132   9.935   7.512  10.597 -0.1793 -0.0046  0.2333
 4082W        W 8133   4.207   3.297   9.382 -0.0857 -0.2205 -0.3312
 4083W        W 8134   1.907   5.672  12.514  0.1741  0.2731  0.4302
 4084W        W 8135   6.779   5.083  10.845 -0.1165  0.2327  0.1427
 4085W        W 8136   7.057   1.440   2.720 -0.2706  0.3834 -0.0712
 4086W        W 8137   2.300   0.418  10.603 -0.1092 -0.1367 -0.0163
 4087W        W 8138   4.830   2.470  12.990 -0.3397 -0.0296  0.2068
 4088W        W 8139   8.446   3.355  10.789 -0.2034 -0.2201 -0.1700
 4089W        W 8140   6.349   6.014   1.570  0.2401 -0.0546  0.0005
 4090W        W 8141   7.711   8.368  13.887 -0.0024  0.0754  0.3752
 4091W        W 8142   2.224   7.638   0.880 -0.3342  0.2741 -0.0545
 4092W        W 8143   7.965   2.376   1.248  0.4262  0.0903  0.1971
 4093W        W 8144   4.162   8.102   8.330  0.2650  0.5067  0.1552
 4094W        W 8145   2.831   3.893   4.651 -0.4021  0.3549  0.0962
 4095W        W 8146   5.421   1.301  10.455  0.2816  0.2059 -0.2000
 4096W        W 8147   8.166   9.011  11.354 -0.2223 -0.3375 -0.2003
 4097W        W 8148   7.806   8.378   2.098  0.3380 -0.4266 -0.0082
 4098W        W 8149   4.006   9.038  11.549 -0.2462  0.3124 -0.1844
 4099W        W 8150   8.563   8.424  11.482 -0.0130 -0.0116  0.0818
 4100W        W 8151   9.629   9.363   1.000  0.3579 -0.3303  0.0066
 4101W        W 8152   4.093   3.748  12.274 -0.2282  0.0608 -0.2743
 4102W        W 8153   1.250   0.199   4.490 -0.0015 -0.0095 -0.0486
 4103W        W 8154   3.053   0.623   4.022  0.0137 -0.1284 -0.0705
 4104W        W 8155   0.362   0.987   1.554  0.1774  0.3115 -0.0560
 4105W        W 8156   7.308   0.396   5.075 -0.1684  0.1486  0.2117
 4106W        W 8157   4.689   3.670   4.645  0.2263 -0.2798  0.0986
 4107W        W 8158   7.713   9.313  10.434  0.0365  0.1385 -0.0913
 4108W        W 8159   3.347   2.700  10.770  0.1484 -0.1061 -0.2833
 4109W        W 8160   3.881   1.269   3.151  0.0145 -0.1316  0.0179
 4110W        W 8161   4.329   7.420   3.689 -0.2120 -0.1889 -0.2246
 4111W        W 8162   2.227   4.140   9.287  0.1276 -0.1886 -0.0550
 4112W        W 8163   3.161   9.598  12.520 -0.0319 -0.2248  0.5011
 4113W        W 8164   3.013   5.824   4.783  0.0105 -0.0447 -0.2075
 4114W        W 8165   1.849   1.066  13.785 -0.1548  0.1546 -0.1287
 4115W        W 8166   1.388   1.964  12.386 -0.0273 -0.3369  0.2371
 4116W        W 8167   3.165   0.587  13.862 -0.2800 -0.3120 -0.0110
 4117W        W 8168   6.079   4.980   2.042 -0.2058 -0.1264 -0.1315
 4118W        W 8169   0.330   8.261   2.631 -0.2667 -0.1353 -0.2661
 4119W        W 8170   6.184   7.074  11.556  0.2787 -0.0550 -0.1465
 4120W        W 8171   3.074   7.757  12.433 -0.0229  0.1504  0.0066
 4121W        W 8172   5.309   6.474   0.059 -0.3261  0.4460  0.3242
 4122W        W 8173   4.829   9.467   2.343  0.0559 -0.1275  0.1083
 4123W        W 8174   8.447   2.415  13.328 -0.0127  0.1030 -0.1921
 4124W        W 8175   0.459   2.877  11.367 -0.2788 -0.0341  0.2123
 4125W        W 8176   1.826   9.625  11.021  0.0419  0.1581  0.2548
 4126W        W 8177   2.339   9.911   5.508  0.0621 -0.0824 -0.0663
 4127W        W 8178   5.502   4.728   0.594  0.0276 -0.1338  0.0750
 4128W        W 8179   2.257   9.613  10.398  0.0756  0.1825  0.0149
 4129W        W 8180   6.591  10.123   1.173 -0.2790  0.2180 -0.1480
 4130W        W 8181   3.430   4.677  13.672  0.1020  0.3113  0.2497
 4131W        W 8182   1.396   5.769  10.617  0.0171  0.0677 -0.0861
 4132W        W 8183   7.503   0.033   2.713  0.2434 -0.1612 -0.0395
 4133W        W 8184   1.759  10.041   3.344  0.2184 -0.2825  0.1292
 4134W        W 8185   0.967   9.428   9.811  0.0177 -0.2394  0.0269
 4135W        W 8186   9.388   3.341  11.637 -0.0851 -0.2856 -0.2087
 4136W        W 8187   2.538   1.650   8.696 -0.1937 -0.1550  0.0345
 4137W        W 8188   1.100   5.069  12.969 -0.4070  0.1909 -0.0313
 4138W        W 8189   6.567   4.585  11.206 -0.0268  0.1690 -0.1078
 4139W        W 8190   2.743   8.985   1.505 -0.1992  0.0761 -0.0964
 4140W        W 8191   5.631   3.858  13.676  0.0121  0.2521  0.0336
 4141W        W 8192   5.252   5.965  12.614 -0.4210 -0.1156 -0.1742
 4142W        W 8193   0.718   8.000  12.636 -0.1523  0.2228 -0.1135
 4143W        W 8194   8.733   8.487  13.501  0.0648  0.0143  0.3666
 4144W        W 8195   6.583   2.365   1.169  0.1012  0.1514 -0.0252
 4145W        W 8196   7.363   6.540   2.892  0.3426  0.1253 -0.1337
 4146W        W 8197   2.196   6.382   2.388  0.1534 -0.0187 -0.1870
 4147W        W 8198   9.102   3.449  13.617  0.1620 -0.1853  0.2863
 4148W        W 8199   8.143   5.340   2.544 -0.0583  0.1447 -0.1138
 4149W        W 8200   0.539   2.952  10.318  0.0164  0.0729  0.1490
 4150W        W 8201   4.430   3.235   0.097  0.0654 -0.3428 -0.6981
 4151W        W 8202   1.167   9.855   3.374 -0.1308 -0.3206  0.0688
 4152W        W 8203   1.265   2.830   0.529  0.0829  0.1375 -0.2624
 4153W        W 8204   0.642   1.177   1.938  0.1519 -0.0711 -0.0050
 4154W        W 8205   2.559   0.308  12.034 -0.0690  0.1081 -0.1103
 4155W        W 8206   5.646   2.516   2.767 -0.2493 -0.3671 -0.0935
 4156W        W 8207   9.678   5.971  13.777 -0.2497 -0.3010 -0.1452
 4157W        W 8208   0.621   4.414  12.795 -0.0634 -0.0058 -0.1523
 4158W        W 8209   6.738   1.953   0.422  0.3794  0.0980 -0.0499
 4159W        W 8210   9.138  10.025  12.028  0.0556  0.0603 -0.3242
 4160W        W 8211   2.352   1.845  11.658  0.0068  0.1469 -0.2955
 4161W        W 8212   8.744   3.072   1.089 -0.0499 -0.3903 -0.1476
 4162W        W 8213   4.100   6.847   0.770 -0.2554 -0.0869  0.3860
 4163W        W 8214   4.335   6.792  13.894  0.1592  0.1278 -0.1454
 4164W        W 8215   2.068   9.593   8.379  0.1760  0.0628  0.1450
 4165W        W 8216   0.671   8.652   2.949 -0.0878  0.0853  0.1659
 4166W        W 8217   6.058   2.242  10.833 -0.1973  0.0805 -0.1198
 4167W        W 8218   4.822   5.190  10.885  0.1556  0.0172  0.0719
 4168W        W 8219   6.474   9.614   0.160  0.2205  0.0966  0.0103
 4169W        W 8220   7.786   8.877   1.961  0.0572  0.0359  0.1689
 4170W        W 8221   7.718   3.249  13.187 -0.0791 -0.1298  0.2303
 4171W        W 8222   8.814   5.005  12.194 -0.3579  0.0236  0.2271
 4172W        W 8223   0.444   7.646  13.889  0.3851  0.2289  0.2128
 4173W        W 8224   7.129   3.053  13.310 -0.0479  0.0859  0.1480
 4174W        W 8225   8.413   6.083  13.795 -0.2640  0.0006  0.0153
 4175W        W 8226   8.732   1.873  12.649  0.1458 -0.3128  0.2906
 4176W        W 8227   4.896   1.098  12.793  0.0297  0.0967 -0.1358
 4177W        W 8228   1.840   2.094   2.230 -0.0975  0.2893  0.1931
 4178W        W 8229   2.458   6.790   2.366 -0.2518  0.0091 -0.0693
 4179W        W 8230   1.821   0.979   3.605  0.1156 -0.3269  0.1634
 4180W        W 8231   6.605   3.661   2.953  0.0581  0.1999  0.0238
 4181W        W 8232   7.354   5.742   0.824  0.2296  0.0964 -0.1292
 4182W        W 8233   2.992   2.204   0.112  0.2139  0.0999  0.0561
 4183W        W 8234   7.318   9.252  12.349 -0.3190 -0.3093  0.0018
 4184W        W 8235   6.205   4.393  10.420 -0.1658  0.1575  0.0733
 4185W        W 8236   3.292   6.456   4.372  0.4040 -0.0423  0.1811
 4186W        W 8237   2.006   8.652  13.506  0.3722 -0.0192  0.0436
 4187W        W 8238   5.637   5.179  13.194  0.2422 -0.0871 -0.0150
 4188W        W 8239   3.289   5.152   2.883 -0.2202  0.2739  0.1599
 4189W        W 8240   1.773   9.531   3.828 -0.1753  0.4063  0.1726
 4190W        W 8241   2.107   1.319   9.595 -0.0342 -0.0858  0.0167
 4191W        W 8242   6.684   5.363  11.878 -0.4261 -0.3280  0.3217
 4192W        W 8243   4.969   2.397   0.974 -0.4963 -0.1396  0.2107
 4193W        W 8244   6.197   9.230  10.692  0.1947 -0.0716 -0.2284
 4194W        W 8245   9.462   2.811  10.880 -0.1146  0.1762 -0.1762
 4195W        W 8246   4.914   8.724   8.233  0.1082  0.0439  0.0495
 4196W        W 8247   0.152   2.732   4.849  0.0439  0.2205 -0.2728
 4197W        W 8248   9.468   9.566  12.738  0.1270  0.1160  0.0967
 4198W        W 8249   1.651   1.178  10.308 -0.3568  0.0317 -0.0302
 4199W        W 8250   2.146   2.994   5.537  0.0563 -0.1114  0.1611
 4200W        W 8251   5.133   8.158  11.109  0.1069  0.0230 -0.1151
 4201W        W 8252   6.968   6.623   0.869  0.0226 -0.1638 -0.1409
 4202W        W 8253   4.938   5.509   4.066 -0.0474 -0.0396 -0.2862
 4203W        W 8254   1.383   5.576   3.060  0.2260  0.0679 -0.0485
 4204W        W 8255   6.036   4.893   0.444 -0.1993  0.1716 -0.0124
 4205W        W 8256   0.235   1.663   4.205  0.0100  0.0749 -0.1781
 4206W        W 8257   9.799   9.864   3.568 -0.2119 -0.0726  0.0655
 4207W        W 8258   5.469   8.130   1.093 -0.2189  0.2119 -0.0412
 4208W        W 8259   9.312   2.279   3.987 -0.0017  0.0866 -0.2435
 4209W        W 8260   5.205   5.960   0.686  0.0810 -0.0968 -0.2298
 4210W        W 8261   0.717   9.774  10.663  0.2302  0.0325 -0.1727
 4211W        W 8262   5.128   2.179   0.584 -0.1836  0.2224  0.2856
 4212W        W 8263   7.483   6.980   2.631 -0.0783 -0.0497 -0.1448
 4213W        W 8264   8.368   5.847   0.928 -0.1688 -0.0544 -0.0634
 4214W        W 8265   4.890   1.041   4.011  0.1504  0.4518  0.0172
 4215W        W 8266   8.681   0.144   1.873 -0.1943  0.0443 -0.2362
 4216W        W 8267   3.689   9.125  12.493 -0.1379 -0.0932  0.0737
 4217W        W 8268   3.354   3.634   2.765 -0.0000 -0.0416  0.0757
 4218W        W 8269   6.323   1.249   0.331 -0.1790  0.0356 -0.0658
 4219W        W 8270   6.626   7.628  10.409  0.3162 -0.1238 -0.0134
 4220W        W 8271   4.269   0.644  11.074  0.0242 -0.3656  0.1060
 4221W        W 8272   7.011   8.897  10.601 -0.2371  0.2384  0.1593
 4222W        W 8273   6.276   7.259   3.288 -0.2730 -0.1142 -0.1268
 4223W        W 8274   2.013   4.444   4.041  0.1152  0.0126 -0.3708
 4224W        W 8275   1.564   1.084   4.607  0.0660  0.0318 -0.1733
 4225W        W 8276   2.517   2.089  11.147  0.4355 -0.0852 -0.1975
 4226W        W 8277   9.185   8.121  10.687  0.1003  0.1378  0.1238
 4227W        W 8278   2.325   3.741  11.862 -0.1961  0.2998 -0.3044
 4228W        W 8279   9.100   1.968  11.303 -0.3337  0.0276  0.0811
 4229W        W 8280   9.432   6.542  11.340 -0.0190 -0.1429  0.2268
 4230W        W 8281   8.315   0.436   0.963 -0.2470  0.0651 -0.1712
 4231W        W 8282   2.661   7.078   1.972  0.0761  0.3926 -0.2022
 4232W        W 8283   3.919   0.474   1.399  0.0771  0.2456  0.2020
 4233W        W 8284   9.682   5.054   4.088  0.2108 -0.1147  0.0640
 4234W        W 8285   2.002   1.916   1.817  0.0379  0.1413  0.0946
 4235W        W 8286   2.963   6.502   0.987  0.0518 -0.0126  0.1719
 4236W        W 8287   7.775   8.519   3.513  0.1032 -0.5048 -0.0653
 4237W        W 8288   9.766   3.445   2.058 -0.2193 -0.1938 -0.1285
 4238W        W 8289   1.450   7.854   3.847  0.2272  0.0124  0.0338
 4239W        W 8290   0.084   3.791   3.067 -0.1624  0.2228  0.3626
 4240W        W 8291   6.212   1.560   1.704  0.0520 -0.3441 -0.2589
 4241W        W 8292   9.667   1.831   0.077  0.0054  0.1627 -0.1079
 4242W        W 8293   3.945   5.804   4.465 -0.0514 -0.1569  0.1844
 4243W        W 8294   0.069   2.777  10.526  0.1042 -0.1552 -0.1488
 4244W        W 8295   2.683   4.566   2.190 -0.4663  0.1954 -0.1407
 4245W        W 8296   0.159   9.737  11.528 -0.3785  0.0380  0.0815
 4246W        W 8297   2.102   5.692  10.699 -0.2921 -0.2440  0.0345
 4247W        W 8298   5.243   2.631  11.073 -0.1434  0.1592 -0.1629
 4248W        W 8299   1.808   8.772   4.625 -0.2706 -0.0983  0.0100
 4249W        W 8300   4.450   7.615  11.441  0.2705 -0.1106  0.0162
 4250W        W 8301   2.121  10.046  12.098  0.4751 -0.4078 -0.1969
 4251W        W 8302   5.495   8.535   0.135  0.1326 -0.2770 -0.3183
 4252W        W 8303   9.829   6.332  10.101  0.1026  0.1410  0.0248
 4253W        W 8304   4.649   8.301  10.279  0.0249  0.0906 -0.1539
 4254W        W 8305   3.509   2.489  11.197  0.2296  0.1720 -0.0913
 4255W        W 8306  10.134   5.801  11.273  0.0464  0.0902  0.2666
 4256W        W 8307   1.836   3.578   1.366 -0.2659 -0.0144 -0.2102
 4257W        W 8308   0.981   9.401  10.402  0.0153 -0.0368  0.1245
 4258W        W 8309   4.939   6.889   4.016  0.1718  0.0095  0.0603
 4259W        W 8310   9.705   0.606  10.797 -0.1167  0.1146 -0.0770
 4260W        W 8311   6.297   4.816   3.182  0.2176  0.0209 -0.0631
 4261W        W 8312   2.954   4.716  13.772 -0.2909 -0.4866 -0.1943
 4262W        W 8313   5.686   4.832  11.042 -0.1123 -0.2744 -0.1755
 4263W        W 8314   3.307   7.106  12.907  0.1022 -0.0184  0.1529
 4264W        W 8315   7.491   1.959   9.743  0.4030  0.0581 -0.0232
 4265W        W 8316   8.818   1.440   0.430 -0.1300 -0.0079  0.1065
 4266W        W 8317   2.997   2.460  13.043  0.2067 -0.1442 -0.2178
 4267W        W 8318   1.689   4.950   9.657 -0.1208  0.0562 -0.0568
 4268W        W 8319   3.131   6.593  11.194 -0.1137 -0.4369 -0.1050
 4269W        W 8320   4.763   5.986  13.750  0.1841 -0.1216 -0.2054
 4270W        W 8321   3.840   8.177   3.180 -0.2048  0.0355 -0.1522
 4271W        W 8322   1.790   7.229   2.047 -0.1664  0.0954  0.0058
 4272W        W 8323   7.342   7.601  13.408  0.0166  0.1823  0.0705
 4273W        W 8324   0.289   3.203  12.928  0.1483 -0.2080  0.0749
 4274W        W 8325   7.070   9.349   3.434  0.2083 -0.1122 -0.1212
 4275W        W 8326   6.460   5.024  10.332  0.2010  0.1750 -0.1156
 4276W        W 8327   1.263   6.093  11.895 -0.2752 -0.0044 -0.1463
 4277W        W 8328   6.303   6.022   9.992  0.2308 -0.1140 -0.0189
 4278W        W 8329   2.409   5.317   2.738  0.0980  0.1832 -0.3675
 4279W        W 8330   9.963   2.425   3.922 -0.1125  0.1584 -0.0582
 4280W        W 8331   0.820   7.656  12.117  0.0353 -0.1234 -0.0342
 4281W        W 8332   3.889   4.321   4.210 -0.0481  0.1777 -0.1238
 4282W        W 8333   4.676   2.580  13.517 -0.0512 -0.0396 -0.1591
 4283W        W 8334   5.283   6.838   0.957  0.0965 -0.0859 -0.0533
 4284W        W 8335   0.194   7.192   3.963  0.1958  0.2868  0.0735
 4285W        W 8336   9.705   9.791  13.206  0.0278 -0.0302 -0.0458
 4286W        W 8337   4.221   8.064   3.618 -0.1517 -0.0579 -0.1940
 4287W        W 8338   6.285   4.130   0.459 -0.1296 -0.0212  0.1262
 4288W        W 8339   8.008   5.742  13.798 -0.0675 -0.4987 -0.1116
 4289W        W 8340   1.973   9.603  13.416 -0.2518 -0.0198  0.0818
 4290W        W 8341   7.801   7.936   2.931  0.1505  0.0325  0.0289
 4291W        W 8342   3.946   1.401   2.524 -0.0804  0.1267  0.1864
 4292W        W 8343  10.101   7.959  12.677 -0.0036  0.1554 -0.2954
 4293W        W 8344   6.431   6.648  11.376 -0.0364 -0.2003  0.2106
 4294W        W 8345   2.676   0.494   9.519  0.3218  0.0549  0.1223
 4295W        W 8346   6.891   1.232   5.506  0.1405  0.5932 -0.0114
 4296W        W 8347   3.224   4.221   9.752  0.2486 -0.1798 -0.1720
 4297W        W 8348   4.658   4.210   2.305 -0.1005  0.1160  0.1216
 4298W        W 8349   7.942   8.242   1.525  0.0041  0.1392 -0.0489
 4299W        W 8350   2.669   6.755   3.710  0.0306 -0.2138  0.2765
 4300W        W 8351   9.963   4.426   1.791  0.1212  0.0590 -0.0293
 4301W        W 8352   1.036   4.637   0.264  0.4593 -0.3347 -0.1187
 4302W        W 8353   6.691   1.365  12.826 -0.0682  0.3490  0.0780
 4303W        W 8354   7.792  10.001   0.501  0.3734  0.2399  0.2178
 4304W        W 8355   6.650   1.768   1.142 -0.1561  0.1294  0.2434
 4305W        W 8356   9.228   6.109   1.128 -0.0031 -0.2336 -0.0704
 4306W        W 8357   1.923   3.975  11.737 -0.0841  0.0284  0.0326
 4307W        W 8358   2.759   8.859   3.307  0.0301 -0.0460 -0.0085
 4308W        W 8359   9.978   4.097  10.696  0.2838 -0.0101  0.1889
 4309W        W 8360   0.805   1.553   9.449 -0.0261  0.1782  0.2606
 4310W        W 8361   4.293   3.154   2.322  0.0738  0.1803  0.1069
 4311W        W 8362   8.713   2.500   5.590  0.2149 -0.0028  0.1968
 4312W        W 8363   1.637   0.181  11.194  0.1435  0.1071 -0.0379
 4313W        W 8364   4.333   7.792  12.363  0.3218  0.1795 -0.0367
 4314W        W 8365   4.615   0.112   1.172 -0.0052 -0.0711  0.1890
 4315W        W 8366   5.722   5.305  12.422  0.1637 -0.1918  0.1025
 4316W        W 8367   6.079   4.337   1.887 -0.0305 -0.1406  0.0175
 4317W        W 8368   2.632   4.804   3.479 -0.3371  0.2038 -0.0994
 4318W        W 8369   4.676   1.708  13.695  0.2273 -0.1134  0.0967
 4319W        W 8370   8.249   6.246   0.674  0.4639 -0.1223 -0.0674
 4320W        W 8371   6.863   4.495   2.277 -0.2251 -0.1755 -0.2009
 4321W        W 8372   2.085   8.293   9.227  0.2293  0.1215 -0.0192
 4322W        W 8373   4.842   8.532   9.873 -0.0606 -0.1220 -0.2873
 4323W        W 8374   9.721   3.530  10.580  0.1088 -0.0584  0.2103
 4324W        W 8375   0.486   9.044  12.121  0.0062 -0.0474  0.0058
 4325W        W 8376   3.971   8.879   3.863  0.5077  0.3634  0.0686
 4326W        W 8377   4.459   5.376   2.966  0.1379  0.1927  0.2000
 4327W        W 8378   8.689   7.432  12.181  0.0569  0.0646 -0.2475
 4328W        W 8379   0.795   8.896  13.610  0.2207  0.0391 -0.1200
 4329W        W 8380   2.072   6.820   4.947 -0.0189  0.1941  0.0576
 4330W        W 8381   4.918   8.536  11.506 -0.3555 -0.0534  0.4178
 4331W        W 8382   5.481   8.864   3.390 -0.1517  0.3320 -0.0609
 4332W        W 8383   6.097   5.180   2.894  0.0510 -0.3157 -0.1217
 4333W        W 8384   6.117   3.484   2.938  0.1112 -0.1190 -0.1012
 4334W        W 8385   0.318   9.747  11.992  0.1012 -0.2125  0.2236
 4335W        W 8386   1.016   0.369   0.016  0.1136 -0.0521 -0.1410
 4336W        W 8387   2.177   9.935   1.310  0.0836  0.2207  0.1332
 4337W        W 8388   9.217   6.832   2.658 -0.0243 -0.0873 -0.0916
 4338W        W 8389   6.165   3.748   4.610  0.1253  0.4762  0.0564
 4339W        W 8390   8.109  10.182   2.580  0.0304 -0.3872 -0.0544
 4340W        W 8391   8.430   9.435  13.506 -0.2695  0.1315 -0.0983
 4341W        W 8392   4.982   5.373   2.880 -0.0384 -0.0087  0.0073
 4342W        W 8393   8.933   0.681  12.773  0.0901  0.0055 -0.2184
 4343W        W 8394   1.756   0.963   9.163 -0.0966  0.0612 -0.0836
 4344W        W 8395   0.925   4.173  13.937 -0.2930  0.0409  0.1947
 4345W        W 8396   2.283   2.917   2.048 -0.2094 -0.0305 -0.0903
 4346W        W 8397   0.528   0.401  11.270 -0.0706  0.0848 -0.2410
 4347W        W 8398   6.258   2.024   1.425  0.1266 -0.1386  0.1635
 4348W        W 8399   6.195   0.568   1.633 -0.1032 -0.1206  0.1965
 4349W        W 8400   7.882   3.155   0.941  0.0184  0.0978  0.1429
 4350W        W 8401   6.932   0.082   4.188 -0.4952  0.2070  0.0027
 4351W        W 8402   2.099   9.059  11.713  0.0280 -0.2722 -0.5402
 4352W        W 8403   2.226   2.551  12.535  0.0692  0.1013  0.0154
 4353W        W 8404   0.086   1.674  10.538  0.4048 -0.2614 -0.1320
 4354W        W 8405   4.639   9.854   2.881 -0.0733 -0.0502  0.1219
 4355W        W 8406   1.094   2.845   1.184  0.2499 -0.1222  0.0906
 4356W        W 8407   6.652   9.287  10.478  0.0861  0.4137  0.2671
 4357W        W 8408   9.149   8.378   4.296  0.0729  0.0984  0.1123
 4358W        W 8409   1.684   7.121   0.498 -0.0495  0.1403  0.2131
 4359W        W 8410   1.575   0.160   4.072 -0.0623  0.2404 -0.2336
 4360W        W 8411   9.287   1.805   3.896  0.0435 -0.0512 -0.0479
 4361W        W 8412   6.930   2.703  10.660 -0.1715 -0.1782 -0.1804
 4362W        W 8413   4.930   6.175  11.172 -0.1810 -0.0138  0.0998
 4363W        W 8414   0.215   9.790  10.127  0.0728 -0.0058  0.0801
 4364W        W 8415   3.452   9.498   3.595 -0.1005 -0.1167 -0.4547
 4365W        W 8416   4.069   0.392   2.444 -0.3123  0.1007  0.1088
 4366W        W 8417   0.801   1.085  10.125 -0.1682 -0.0064 -0.0050
 4367W        W 8418   6.709   0.211  13.540 -0.0189  0.0557  0.2056
 4368W        W 8419   4.009   7.212   1.568  0.2511  0.0783 -0.2961
 4369W        W 8420   4.002  10.032   9.924  0.0813 -0.1494  0.0729
 4370W        W 8421   6.871   9.546   2.325 -0.2744  0.6096  0.3307
 4371W        W 8422   5.257   1.658   1.403  0.0310 -0.2307 -0.3588
 4372W        W 8423   4.441   5.660   4.426  0.0379 -0.2224 -0.0840
 4373W        W 8424   6.336   6.910  13.397  0.1462  0.0152 -0.1486
 4374W        W 8425   4.335   7.173   2.389  0.0499 -0.1471  0.1014
 4375W        W 8426   2.993   5.872  11.071 -0.1359  0.0910 -0.3452
 4376W        W 8427   2.817   4.120   8.957  0.1989  0.2560 -0.0721
 4377W        W 8428   5.974   4.272   3.186  0.1711 -0.0967  0.0051
 4378W        W 8429   6.966   7.284  13.600 -0.0123  0.1419 -0.2143
 4379W        W 8430   9.042   1.299  11.094  0.1894  0.0595  0.2901
 4380W        W 8431   6.616   5.167   2.941 -0.0777 -0.0510  0.0692
 4381W        W 8432   0.709   2.164   1.423 -0.2220 -0.2260 -0.0872
 4382W        W 8433   6.371   5.133  13.191  0.2185  0.1422  0.1022
 4383W        W 8434   5.291   9.915  10.934 -0.2282 -0.4234  0.0186
 4384W        W 8435   6.076   0.493   2.251 -0.1930  0.0406 -0.0604
 4385W        W 8436   7.860   9.959   1.754 -0.0572 -0.1729  0.0700
 4386W        W 8437   8.075   0.578  13.749 -0.0637  0.2340 -0.2204
 4387W        W 8438   4.888   3.774   1.202  0.1393  0.3658 -0.0227
 4388W        W 8439   5.706   0.228   4.170 -0.0071  0.0690  0.0074
 4389W        W 8440   9.882   3.221  11.542  0.0068  0.0517 -0.0967
 4390W        W 8441   0.716   3.598   1.869  0.1854  0.0919  0.0383
 4391W        W 8442   8.591   0.003   4.859 -0.1876  0.0066 -0.1389
 4392W        W 8443   7.762   3.007   0.446 -0.0661  0.0511  0.0767
 4393W        W 8444   2.159   7.797  10.313  0.0732  0.1388 -0.2130
 4394W        W 8445   2.589   9.587   8.463 -0.1342 -0.0011  0.1776
 4395W        W 8446   8.635   6.281   0.946 -0.1578  0.0148  0.0283
 4396W        W 8447   5.736   7.261   3.428  0.4234 -0.1145 -0.0547
 4397W        W 8448   2.634  10.114   9.425  0.0381 -0.0584 -0.0479
 4398W        W 8449   4.064   5.506   1.252 -0.1017  0.1512  0.2424
 4399W        W 8450   2.485   3.099   9.283 -0.1404  0.3236 -0.0695
 4400W        W 8451   9.155   8.675  12.654  0.0253  0.0832 -0.1348
 4401W        W 8452   6.307   8.758   1.669  0.0274 -0.2603  0.0009
 4402W        W 8453   9.607   8.274   2.322  0.2641 -0.1123 -0.1116
 4403W        W 8454   9.265   1.417  13.204 -0.0953 -0.1092  0.1721
 4404W        W 8455   7.487   8.611  11.656  0.0582 -0.2438  0.2264
 4405W        W 8456   5.958   5.311   0.950  0.1965  0.1101  0.0457
 4406W        W 8457   2.255   8.781   0.043  0.1708 -0.2110 -0.0131
 4407W        W 8458   7.156   8.279  11.400 -0.0073 -0.2575  0.1264
 4408W        W 8459   9.389   8.300  11.060  0.1381 -0.0862 -0.5394
 4409W        W 8460   5.276   9.432  10.793 -0.0980  0.0130  0.1002
 4410W        W 8461   9.497   0.607  13.476 -0.1192 -0.3528 -0.1121
 4411W        W 8462   4.405   5.436  11.013 -0.0067  0.0474 -0.3981
 4412W        W 8463   2.970   7.294   3.065  0.1672  0.0071  0.1308
 4413W        W 8464   4.160   1.942  13.832 -0.1630  0.2552 -0.0282
 4414W        W 8465   9.696   1.177  13.289 -0.2624 -0.0001 -0.1864
 4415W        W 8466  10.116   7.354   3.540 -0.1187  0.1379 -0.0169
 4416W        W 8467   5.581   5.968  13.883  0.0976 -0.2830 -0.1324
 4417W        W 8468   3.777   4.338   1.388  0.2385 -0.2118  0.2018
 4418W        W 8469   3.344   6.090  13.582 -0.3101  0.1873 -0.3391
 4419W        W 8470   9.335   9.799  10.468 -0.1345 -0.0106  0.3095
 4420W        W 8471   0.220   2.042   2.562 -0.0580 -0.0593 -0.1134
 4421W        W 8472   2.982   4.821   1.709 -0.1359  0.2118  0.1438
 4422W        W 8473   6.833   3.508  11.663 -0.1545 -0.1116  0.2585
 4423W        W 8474   3.152   6.649  13.729  0.0442 -0.2843  0.1422
 4424W        W 8475   7.417   7.223  11.351 -0.0696 -0.1218 -0.0626
 4425W        W 8476   0.842   9.144   0.948  0.4105  0.0953 -0.0869
 4426W        W 8477   2.518   6.518   3.287 -0.0042  0.1997 -0.0415
 4427W        W 8478   8.406   3.257  10.265 -0.0304 -0.1871  0.1076
 4428W        W 8479   6.474   9.023   2.864  0.2389 -0.0782  0.0545
 4429W        W 8480   6.734   0.763   1.623 -0.0500 -0.0699  0.1187
 4430W        W 8481   7.393   0.294  11.920  0.1841  0.0538  0.1091
 4431W        W 8482   8.394   4.295   2.184  0.1690 -0.2602 -0.0630
 4432W        W 8483   9.233   7.767  11.031 -0.2474 -0.0359 -0.1576
 4433W        W 8484   0.267   7.638   2.405 -0.0624 -0.4650 -0.1715
 4434W        W 8485   0.856  10.061  12.665 -0.2380 -0.0538 -0.2124
 4435W        W 8486   3.318   0.244   3.681 -0.0499  0.1729  0.2403
 4436W        W 8487   0.438   5.981  10.152  0.0072 -0.0231 -0.3056
 4437W        W 8488   4.509   1.670   9.946 -0.1332  0.0216  0.0326
 4438W        W 8489   9.514   0.152  11.739 -0.0966  0.2206 -0.0089
 4439W        W 8490   2.580   7.774  12.605 -0.3074 -0.0869  0.1432
 4440W        W 8491   6.554   0.850   0.771  0.1948  0.0212 -0.1608
 4441W        W 8492   4.084   3.431   4.450  0.0794  0.2282  0.1093
 4442W        W 8493   7.965   5.357  12.343 -0.2562 -0.1470  0.2867
 4443W        W 8494   0.797   0.580   4.595  0.0319 -0.0947 -0.1116
 4444W        W 8495   8.042   5.105   3.793  0.3944 -0.3120 -0.1716
 4445W        W 8496   5.378   9.722   4.034 -0.1347  0.1158  0.2020
 4446W        W 8497   4.798   3.904  12.563 -0.0065 -0.1057 -0.1944
 4447W        W 8498   0.250   2.599   9.179 -0.0702 -0.2184 -0.1823
 4448W        W 8499   8.151   6.871   0.324 -0.2371  0.0139 -0.0089
 4449W        W 8500   9.158   8.077   0.484 -0.1496 -0.1352  0.1289
 4450W        W 8501   5.565   9.612   2.638 -0.0320  0.1480 -0.0692
 4451W        W 8502   0.072   9.336  11.825 -0.1542  0.0034 -0.1445
 4452W        W 8503  10.002   8.934  11.554  0.0006  0.0562 -0.0570
 4453W        W 8504   0.514   3.012  10.871  0.0654  0.3113 -0.2753
 4454W        W 8505   9.899   7.685   0.160 -0.0929  0.0492 -0.4278
 4455W        W 8506   1.687   2.950   3.352  0.2933 -0.0233  0.1874
 4456W        W 8507   7.524   7.457  10.226  0.0768  0.0441  0.0935
 4457W        W 8508   0.533   3.683  11.601  0.1043  0.2409 -0.2416
 4458W        W 8509   0.038   4.692   4.087  0.0051 -0.0826 -0.6695
 4459W        W 8510   5.420   4.160   3.378  0.2541 -0.0950  0.1479
 4460W        W 8511   5.121  10.007  10.121  0.0287 -0.1947  0.2637
 4461W        W 8512   7.447   9.290   9.930 -0.4706  0.0393  0.2567
 4462W        W 8513   5.015   3.234   8.769 -0.1435 -0.0593 -0.0312
 4463W        W 8514   2.801   7.071   9.633  0.0143  0.1188 -0.1412
 4464W        W 8515   9.870   8.580   4.331 -0.2205  0.0485 -0.3203
 4465W        W 8516   9.062  10.013  13.479  0.2379 -0.1352  0.0563
 4466W        W 8517   6.869   5.006  13.148  0.1075  0.4818 -0.0417
 4467W        W 8518   5.569   1.948   0.008  0.0477  0.0127  0.0377
 4468W        W 8519   1.043   7.779  10.226 -0.0237  0.1179 -0.1328
 4469W        W 8520   5.314   2.840   3.765  0.1272  0.0023  0.1309
 4470W        W 8521   7.237   2.355  10.074  0.2162 -0.0820 -0.1962
 4471W        W 8522   1.214   7.988   9.752 -0.2281  0.0827  0.0374
 4472W        W 8523   8.074   2.850   1.582  0.1964  0.1140  0.0520
 4473W        W 8524   3.258   6.009   0.100 -0.0834  0.1306 -0.0763
 4474W        W 8525   3.896   3.403  11.142  0.0024 -0.0089 -0.2957
 4475W        W 8526   8.088   8.150  12.849 -0.1466  0.0338  0.1121
 4476W        W 8527   8.550   9.929  13.467  0.0763 -0.0076 -0.2494
 4477W        W 8528   9.374   9.740   3.202 -0.3202  0.2142  0.3380
 4478W        W 8529   6.109   9.188   2.177  0.2167  0.0419 -0.3526
 4479W        W 8530   8.184   0.134   0.566 -0.1739 -0.2200  0.2897
 4480W        W 8531   0.883   5.602   2.987 -0.0949 -0.1027  0.1043
 4481W        W 8532   0.686   3.247  11.696  0.2039  0.1520  0.0772
 4482W        W 8533   5.774   5.483   4.250 -0.0554 -0.1029  0.3375
 4483W        W 8534   6.560   0.234   9.379 -0.6529  0.0760 -0.0848
 4484W        W 8535   2.921   9.602  11.067 -0.1418 -0.2004  0.3109
 4485W        W 8536   2.922   4.322   3.585 -0.1088 -0.2784 -0.2118
 4486W        W 8537   2.722   6.478  13.926 -0.0777  0.2378  0.2980
 4487W        W 8538   0.377   0.207   1.819  0.2250 -0.1508  0.0086
 4488W        W 8539   8.201   7.184   1.474 -0.0623 -0.3248 -0.1067
 4489W        W 8540   3.875   1.685   3.910 -0.1549 -0.1155  0.1149
 4490W        W 8541   5.393   7.293   0.788  0.0076  0.1188 -0.1076
 4491W        W 8542   1.324   4.862  12.271 -0.0623 -0.2340 -0.0163
 4492W        W 8543   3.271   6.627  13.223 -0.1025 -0.0536  0.0061
 4493W        W 8544   9.076   1.370   4.107 -0.3950  0.2607  0.3846
 4494W        W 8545   9.488   8.145   1.754 -0.1500 -0.1672 -0.5498
 4495W        W 8546   0.164   1.693   5.722  0.1997  0.0432 -0.4927
 4496W        W 8547   0.257   9.135  10.802  0.0263 -0.1909  0.1372
 4497W        W 8548   1.101   0.989   4.410 -0.2568  0.2154 -0.2535
 4498W        W 8549   5.525   5.537  11.607  0.1731  0.2075  0.0759
 4499W        W 8550   1.452   4.682  13.120 -0.0395  0.2381 -0.0419
 4500W        W 8551   2.231   3.793   1.840  0.3140  0.3063 -0.2962
 4501W        W 8552   5.813   4.910   1.423  0.2970 -0.2988  0.2946
 4502W        W 8553   4.528   9.912   4.167 -0.3720 -0.1471 -0.1768
 4503W        W 8554   1.008   9.397  11.450 -0.0852 -0.0587 -0.0332
 4504W        W 8555   2.493   9.099   2.618  0.0783  0.1015 -0.1407
 4505W        W 8556   7.462   1.142   3.899  0.4075 -0.1408 -0.1019
 4506W        W 8557   9.916   3.327  12.854 -0.0181 -0.1198 -0.1070
 4507W        W 8558   6.616   6.328   9.654  0.1824  0.2785 -0.4629
 4508W        W 8559   6.823   2.075   2.275  0.0734  0.2774  0.0155
 4509W        W 8560   1.809   6.939  12.878  0.1618  0.2212  0.0168
 4510W        W 8561   0.031   1.381   0.872 -0.4055  0.0658  0.1449
 4511W        W 8562   4.728   7.820  10.984 -0.2212  0.3339  0.0472
 4512W        W 8563   2.371   0.811  11.870  0.0940 -0.2856 -0.2822
 4513W        W 8564   7.370   3.872  12.147  0.2680 -0.0048 -0.1735
 4514W        W 8565   1.136   0.192  10.848  0.0892  0.1092 -0.0482
 4515W        W 8566   9.660   8.712  11.082  0.2602 -0.4453  0.1451
 4516W        W 8567   5.988   2.809   4.472  0.0317 -0.3414  0.1206
 4517W        W 8568   1.913   8.556   2.542  0.0968  0.0085 -0.3721
 4518W        W 8569   6.460   5.480  10.895 -0.0718 -0.0570 -0.2074
 4519W        W 8570   8.120   4.400  13.734 -0.1804 -0.2376  0.1320
 4520W        W 8571   1.826   2.217   4.578 -0.2032 -0.2197 -0.2393
 4521W        W 8572   2.740   9.979  10.782 -0.0631 -0.0716 -0.0181
 4522W        W 8573   5.824   0.029  13.768 -0.2370  0.3094 -0.5294
 4523W        W 8574   3.547   5.497   2.607 -0.2489  0.0387 -0.0773
 4524W        W 8575   8.771   7.470  13.278 -0.0479  0.1399 -0.0561
 4525W        W 8576   8.665   5.088  11.140 -0.1837  0.0173  0.0895
 4526W        W 8577   0.860   1.130   1.475 -0.0398  0.3180 -0.1946
 4527W        W 8578   6.549   3.054  13.234  0.4299  0.1449  0.2543
 4528W        W 8579   0.945   6.966  12.196 -0.2207 -0.0556  0.0788
 4529W        W 8580   2.872   5.287   2.617  0.1142  0.1690 -0.0862
 4530W        W 8581   2.159   3.351   2.221  0.3691 -0.1146 -0.2779
 4531W        W 8582   8.348   0.958   5.223 -0.0940  0.3080 -0.1361
 4532W        W 8583   0.392   5.028  10.051 -0.2041  0.0179 -0.1094
 4533W        W 8584   8.091   0.524   2.715  0.1272 -0.2897  0.0072
 4534W        W 8585   0.331   9.517   3.818 -0.2070 -0.2285  0.2665
 4535W        W 8586   6.323  10.179   4.902 -0.2647  0.2329  0.3144
 4536W        W 8587   5.959   3.739  13.319 -0.0150 -0.0415 -0.0014
 4537W        W 8588   1.564   6.918   1.028 -0.1375 -0.3539  0.0452
 4538W        W 8589   6.024   7.912  13.084 -0.3267  0.2850 -0.0675
 4539W        W 8590   7.263   2.904   3.820 -0.1938 -0.1002  0.1927
 4540W        W 8591   6.198   9.837  11.069 -0.0923  0.1178  0.2247
 4541W        W 8592   0.510   9.386  13.489 -0.3244 -0.2763 -0.1215
 4542W        W 8593   5.556   6.253  11.645  0.6477  0.0331  0.2933
 4543W        W 8594   3.864   9.516  11.656  0.0487 -0.0262 -0.1555
 4544W        W 8595   9.291   4.439  10.852  0.0427  0.2736  0.0217
 4545W        W 8596   3.544   1.390   3.597  0.0341 -0.0307 -0.0154
 4546W        W 8597   6.044   9.290  13.264 -0.0293  0.2142 -0.1061
 4547W        W 8598   9.158   2.001   2.859 -0.0679  0.3060 -0.1451
 4548W        W 8599   8.825   4.695  12.674  0.1419  0.0986 -0.0175
 4549W        W 8600   1.908   2.261  10.487 -0.1234 -0.1519  0.0579
 4550W        W 8601   0.262   9.973   2.992  0.2837 -0.1664 -0.1158
 4551W        W 8602   0.287   5.948  11.651 -0.0910 -0.1813 -0.0535
 4552W        W 8603   5.421   3.926  11.104  0.1004  0.0533 -0.1029
 4553W        W 8604   9.436   2.871   3.208  0.3286 -0.0134  0.1417
 4554W        W 8605   7.190   8.210   3.527  0.0696 -0.1587  0.0606
 4555W        W 8606   5.195   8.888   8.745  0.0340 -0.1046  0.1156
 4556W        W 8607   7.172   4.625  12.241 -0.0908 -0.1941  0.0958
 4557W        W 8608   7.565   3.780   4.677  0.1378  0.5477  0.3095
 4558W        W 8609   7.961   2.104   9.319  0.0495 -0.0756  0.0184
 4559W        W 8610   2.056   7.810  12.245 -0.3129  0.2154  0.0722
 4560W        W 8611   6.793   4.607   0.616  0.1658  0.2935 -0.2754
 4561W        W 8612   2.484   3.564   3.039 -0.2598  0.2158 -0.1337
 4562W        W 8613   4.437   6.107  10.826 -0.1954  0.0031  0.1800
 4563W        W 8614   2.807   4.052  12.807  0.0862  0.0396  0.1724
 4564W        W 8615   9.233   1.208   5.061  0.1277  0.1237 -0.1627
 4565W        W 8616   4.712   8.598  13.851  0.1693  0.1553  0.0086
 4566W        W 8617   2.560   2.559   2.932  0.0043 -0.1919 -0.1705
 4567W        W 8618   0.074   5.546  11.909 -0.0477  0.0093  0.2917
 4568W        W 8619   2.979   3.782  11.314 -0.2269 -0.1792  0.1782
 4569W        W 8620   3.801   4.708   3.748  0.1037  0.0257  0.1233
 4570W        W 8621   7.640   8.576   0.349  0.0228  0.1146 -0.1878
 4571W        W 8622   2.078   6.873   3.260  0.1247 -0.1841  0.0300
 4572W        W 8623   2.686   2.107  10.371  0.2127 -0.4466 -0.0327
 4573W        W 8624   1.384   2.635   4.288 -0.2246 -0.2052 -0.3162
 4574W        W 8625   9.440   5.122  12.644  0.1055  0.1910 -0.1159
 4575W        W 8626   3.552   7.417   2.322 -0.3381 -0.0416  0.0905
 4576W        W 8627   4.307   9.218   9.851 -0.0932 -0.2738  0.0375
 4577W        W 8628   9.637   2.932  11.882  0.0642  0.0871  0.1151
 4578W        W 8629   5.281   0.064   9.689 -0.1856  0.2388 -0.2130
 4579W        W 8630   0.576   1.743   2.334 -0.2482  0.0330 -0.0922
 4580W        W 8631   7.188   9.238   3.889 -0.1847  0.1997  0.2675
 4581W        W 8632   7.191   5.610  11.992 -0.1467  0.0115 -0.1445
 4582W        W 8633   8.792   4.672   2.360  0.6232 -0.0376  0.3666
 4583W        W 8634   8.090   8.399   3.124 -0.3060  0.0369 -0.1835
 4584W        W 8635   8.878   2.595   4.014 -0.1898  0.0902  0.1522
 4585W        W 8636   3.404   6.359   5.311  0.1186 -0.2889  0.2165
 4586W        W 8637   0.561   9.579   1.982  0.0666 -0.0153  0.4257
 4587W        W 8638   0.668   4.693  10.265  0.0680  0.0714 -0.2582
 4588W        W 8639   8.827   5.774  11.028 -0.3191 -0.1328 -0.0722
 4589W        W 8640   7.531   5.853   2.356  0.0287 -0.3311  0.0349
 4590W        W 8641   6.008   2.599   8.813  0.0191 -0.1123  0.1706
 4591W        W 8642   4.784   1.276  13.338 -0.1191  0.1881  0.2086
 4592W        W 8643   1.716   1.787  13.244  0.0304  0.1464  0.1209
 4593W        W 8644   8.679   2.212  11.136 -0.0020  0.0672  0.0742
 4594W        W 8645   8.425   8.885  11.760 -0.1604 -0.0168 -0.1920
 4595W        W 8646   0.987   7.136   0.392 -0.3712 -0.2253 -0.1522
 4596W        W 8647   1.089   7.861   1.564 -0.2803 -0.0121  0.1906
 4597W        W 8648   0.895   0.182  13.487 -0.2257 -0.0673 -0.2675
 4598W        W 8649   2.121   3.526  11.389 -0.0787 -0.1501 -0.0533
 4599W        W 8650   3.594   2.384  12.595 -0.0285  0.1226  0.1330
 4600W        W 8651   0.981   3.229   9.569  0.2795 -0.0022  0.0569
 4601W        W 8652   5.689   5.821  12.370  0.1666 -0.1630 -0.4074
 4602W        W 8653  10.058   2.206  12.458  0.1236 -0.0393 -0.0205
 4603W        W 8654   0.498   9.588  11.156  0.2556 -0.2936  0.0201
 4604W        W 8655   7.710   3.787  13.201 -0.1042 -0.1865 -0.1945
 4605W        W 8656   4.368   4.520   0.086  0.1934 -0.1910 -0.4374
 4606W        W 8657   6.816  10.032   3.781  0.2051  0.0451  0.0430
 4607W        W 8658   1.624   1.272   9.814 -0.2554  0.0336  0.2055
 4608W        W 8659   9.371   2.303   9.660 -0.1679  0.3292 -0.1676
 4609W        W 8660   0.770   3.153   1.640 -0.0089  0.4204 -0.0841
 4610W        W 8661   7.697   9.818   2.931 -0.0698  0.0278  0.2203
 4611W        W 8662   3.849   5.918  12.848  0.2167 -0.2611  0.0265
 4612W        W 8663   6.620   8.954  10.851  0.3480  0.0296  0.3520
 4613W        W 8664   5.575   6.037   1.372  0.0865  0.2249 -0.0371
 4614W        W 8665   5.454   4.684  11.466  0.0197  0.1240 -0.0168
 4615W        W 8666   5.350   9.931  13.702 -0.1755 -0.0013  0.0455
 4616W        W 8667   4.862   2.336  10.735  0.3205 -0.1926 -0.5699
 4617W        W 8668  10.066   4.408   2.335 -0.3481 -0.1199 -0.2401
 4618W        W 8669   2.422   9.307  13.257  0.0179 -0.1246 -0.1494
 4619W        W 8670   0.599   5.523   3.383 -0.0713  0.0141  0.0227
 4620W        W 8671   2.226   9.752   9.505 -0.0552 -0.1177 -0.1098
 4621W        W 8672   1.140   7.389   4.100 -0.2530  0.0848 -0.1222
 4622W        W 8673   3.813   1.115  13.065  0.2510  0.0778  0.1817
 4623W        W 8674   8.858   4.259   1.972  0.3737  0.2462 -0.1661
 4624W        W 8675   5.997   6.447   0.604  0.1766  0.1263 -0.0692
 4625W        W 8676   3.555   7.697   1.068 -0.3528  0.0240 -0.0419
 4626W        W 8677   4.948   2.270   5.472  0.1041 -0.1450  0.0191
 4627W        W 8678   5.173   6.587  10.760  0.0648  0.0456 -0.0483
 4628W        W 8679   6.045   0.437  10.584 -0.3478  0.2004  0.1810
 4629W        W 8680   2.040   5.156  10.014  0.2987 -0.0169  0.0091
 4630W        W 8681   7.778   0.830   9.839 -0.3008  0.4223  0.2115
 4631W        W 8682   7.106   9.164  13.640 -0.2828 -0.1353 -0.1351
 4632W        W 8683   2.996   5.904   1.304  0.0022  0.2472 -0.2110
 4633W        W 8684   5.249   7.799   2.601 -0.1479  0.0596  0.0789
 4634W        W 8685   2.752   9.743  13.407 -0.0181 -0.1559 -0.0338
 4635W        W 8686   2.667   1.301   0.125  0.0014 -0.3901  0.1395
 4636W        W 8687   3.197   0.123   4.300  0.2506 -0.1834  0.4576
 4637W        W 8688   3.113   8.136   1.875 -0.2923  0.1513  0.1166
 4638W        W 8689   3.949   5.626  11.176 -0.1026  0.1798  0.1840
 4639W        W 8690   4.111   6.708   2.615 -0.1503  0.0875 -0.1868
 4640W        W 8691   8.618   5.058  13.440  0.1602 -0.2201  0.0350
 4641W        W 8692   2.215   7.769  11.794 -0.2794  0.2640 -0.2679
 4642W        W 8693   2.752   5.068  11.046  0.2810  0.1220  0.1904
 4643W        W 8694   0.460   6.365   1.221  0.2495  0.2037  0.0471
 4644W        W 8695   5.467   1.652   2.434 -0.2200 -0.2480  0.1944
 4645W        W 8696   8.899   9.700   2.494 -0.5187  0.0454 -0.0756
 4646W        W 8697   3.625   6.519   3.469 -0.1297 -0.0985 -0.4910
 4647W        W 8698   2.342   5.897   1.435  0.0007 -0.0107 -0.1566
 4648W        W 8699   1.419   9.517   1.497 -0.0569 -0.1287  0.2538
 4649W        W 8700   1.488   6.380  10.397  0.1800 -0.3853  0.0233
 4650W        W 8701   2.982   0.592  12.314 -0.0881 -0.1458 -0.0430
 4651W        W 8702   2.263   1.799   9.566 -0.1087 -0.1523  0.0127
 4652W        W 8703   3.256   3.439   4.870  0.0405 -0.0474  0.0449
 4653W        W 8704   9.002   8.223  12.774  0.1807  0.2185 -0.1891
 4654W        W 8705   2.474   4.504   8.982  0.2764  0.1660  0.2281
 4655W        W 8706   5.693   8.751   1.581  0.1493  0.0476  0.1652
 4656W        W 8707   7.551   1.766   3.518  0.0316  0.1252 -0.0480
 4657W        W 8708   5.582   6.431   3.261 -0.3106  0.0065  0.1225
 4658W        W 8709   3.143   0.442   2.958  0.2874 -0.2371 -0.0596
 4659W        W 8710   6.553   1.307  10.700  0.0157 -0.1291  0.0752
 4660W        W 8711   2.754   4.492  13.342 -0.4423 -0.1620 -0.0053
 4661W        W 8712   0.901   8.682   4.214 -0.0256  0.1891  0.1052
 4662W        W 8713   1.086   9.799   5.067 -0.0311 -0.1114  0.0193
 4663W        W 8714   4.099   4.285  10.027 -0.1362 -0.1060 -0.2260
 4664W        W 8715   3.057   0.946   2.773  0.0420  0.1536  0.1719
 4665W        W 8716   8.685   1.785   0.851 -0.0739 -0.0155 -0.1883
 4666W        W 8717   0.934   6.886   2.482  0.2437  0.0663  0.0447
 4667W        W 8718   5.935   7.093  13.137 -0.0172 -0.0929  0.3384
 4668W        W 8719   2.612   9.652   9.829  0.2508 -0.1009 -0.1477
 4669W        W 8720   2.957   2.387   9.367  0.3225 -0.2852  0.0548
 4670W        W 8721   9.430   2.930  13.623  0.0954  0.4123  0.0509
 4671W        W 8722   1.418   1.508  11.423 -0.3274  0.3750 -0.0260
 4672W        W 8723   6.073   3.446  12.334 -0.0043 -0.2021  0.1325
 4673W        W 8724   8.129   4.654   1.428 -0.0900 -0.5432 -0.3884
 4674W        W 8725   3.151   8.987   1.953 -0.0893  0.0973  0.0119
 4675W        W 8726   0.998   1.174  11.521  0.0566 -0.2149  0.0757
 4676W        W 8727   3.078   8.103  10.608  0.2867  0.1128  0.1578
 4677W        W 8728   8.565   1.170  10.322  0.0663  0.0587 -0.2024
 4678W        W 8729   2.284   9.039   1.733  0.0513  0.1365 -0.3914
 4679W        W 8730   4.912   9.212   0.350  0.1405  0.1633 -0.0011
 4680W        W 8731   6.430   2.094  10.527 -0.0362  0.1871 -0.0376
 4681W        W 8732   5.476   9.818  10.442  0.0497  0.2532  0.1853
 4682W        W 8733   4.199   2.129  10.191  0.0405  0.0967  0.0429
 4683W        W 8734   1.658   9.381   4.336  0.0906  0.1624 -0.2687
 4684W        W 8735   1.268   6.680   2.121 -0.1170  0.0315  0.0111
 4685W        W 8736   5.091   3.069  10.906 -0.0505  0.0294  0.0267
 4686W        W 8737   9.518   3.704  12.907 -0.0955 -0.0100 -0.0465
 4687W        W 8738   8.924   3.298  11.807  0.2201  0.1323  0.0306
 4688W        W 8739  10.046   7.340   2.102  0.1596  0.3256 -0.1964
 4689W        W 8740   1.291   5.522   9.397  0.0042 -0.0314 -0.3304
 4690W        W 8741   1.431   7.786   0.803  0.0066 -0.2767  0.1176
 4691W        W 8742   7.037   0.368   3.825 -0.0677  0.0245 -0.2145
 4692W        W 8743   5.068   8.933   1.535  0.0426 -0.1782 -0.1628
 4693W        W 8744   5.750   1.183  10.078  0.2435 -0.2449  0.0887
 4694W        W 8745   9.191   7.688  13.571  0.0541  0.4528  0.3182
 4695W        W 8746   4.911   3.083   9.972  0.0493  0.0935 -0.2716
 4696W        W 8747   5.692   3.796   4.782 -0.1811  0.0028  0.1741
 4697W        W 8748   1.634   7.170  13.487  0.3357  0.2092 -0.1307
 4698W        W 8749   7.768   9.273  12.068 -0.0802  0.0624 -0.2595
 4699W        W 8750   5.670   3.283  11.492 -0.1104 -0.3142  0.0101
 4700W        W 8751   0.034   9.378  13.264 -0.1134  0.1399  0.7024
 4701W        W 8752   7.899   9.036   1.023 -0.1892  0.1694 -0.2944
 4702W        W 8753   1.011  10.027   4.113 -0.2557 -0.1295 -0.0538
 4703W        W 8754   5.589   3.656  12.843 -0.0920 -0.0215 -0.2602
 4704W        W 8755   1.726  10.008  10.295 -0.0704  0.0547  0.3427
 4705W        W 8756   9.739   9.354   3.426 -0.1748 -0.1000 -0.2823
 4706W        W 8757   6.097   6.066  13.439 -0.0020 -0.1767  0.1900
 4707W        W 8758   4.181   6.377   3.008  0.2474  0.0909 -0.2021
 4708W        W 8759   9.162   0.968  12.487 -0.0946 -0.0055  0.1978
 4709W        W 8760   4.284   7.094   0.337  0.0066 -0.0598 -0.0177
 4710W        W 8761   4.170   0.152   3.495 -0.1295 -0.0040  0.1702
 4711W        W 8762   5.559   2.039  12.596  0.0826  0.0658 -0.1680
 4712W        W 8763   6.837   9.466   2.859  0.1571  0.0817  0.0479
 4713W        W 8764   7.442   6.513   3.364  0.0778  0.3253 -0.1545
 4714W        W 8765   3.070   1.951   4.774  0.3353 -0.0435 -0.1086
 4715W        W 8766   0.358   5.675   4.153  0.1048 -0.0458  0.2500
 4716W        W 8767   3.530   8.874   8.488 -0.2993  0.0044  0.1331
 4717W        W 8768  10.120   3.488  12.344 -0.0340  0.1475  0.1848
 4718W        W 8769   1.116   7.183  13.441  0.1342 -0.0132  0.1064
 4719W        W 8770   4.992   3.381   4.354 -0.2573 -0.0908 -0.1689
 4720W        W 8771   5.014   2.445  11.976 -0.0146 -0.2435 -0.0196
 4721W        W 8772   4.497   2.166  13.302  0.0735  0.0505 -0.2052
 4722W        W 8773   1.906   8.078   2.178 -0.4000  0.1155  0.2138
 4723W        W 8774   5.210   8.323   2.745  0.2015 -0.2027  0.0565
 4724W        W 8775   2.911   9.115   2.845 -0.4698  0.1201 -0.1486
 4725W        W 8776   3.715   9.038   3.326 -0.0498  0.3635 -0.1029
 4726W        W 8777   2.365   0.499   8.571 -0.0834  0.5439  0.2300
 4727W        W 8778   8.653   6.917   1.687 -0.1826  0.2666  0.0763
 4728W        W 8779   3.736   8.971   9.875 -0.2128 -0.2527  0.2888
 4729W        W 8780   9.944   8.253   1.950 -0.2331 -0.0624 -0.0867
 4730W        W 8781   4.243   1.314   1.144 -0.4609  0.0932  0.0391
 4731W        W 8782   2.852   3.915   2.914  0.1708  0.0904 -0.1316
 4732W        W 8783   3.507   9.979   4.561 -0.0558 -0.1153  0.2444
 4733W        W 8784   5.531   2.784   9.471  0.1641  0.4837  0.1452
 4734W        W 8785   6.607   6.891   1.112 -0.0524  0.1787 -0.2593
 4735W        W 8786   2.645   2.160  13.232 -0.1371 -0.3591  0.3206
 4736W        W 8787   1.759   1.855   9.700 -0.1947 -0.0325  0.2021
 4737W        W 8788   6.698   2.310  10.095  0.2518  0.2867 -0.1005
 4738W        W 8789   8.015   2.848  13.330  0.1640  0.1763 -0.2045
 4739W        W 8790   3.722   8.144  10.007  0.1985 -0.1551 -0.0355
 4740W        W 8791   9.261   2.983  10.377  0.0013  0.2664  0.2771
 4741W        W 8792   4.358   1.301  13.758  0.0825 -0.6033  0.1323
 4742W        W 8793   8.344  10.151   4.357  0.0577  0.2184 -0.1013
 4743W        W 8794   3.442   0.584   1.166 -0.0510 -0.0247 -0.2076
 4744W        W 8795   2.553   5.560  11.083 -0.2473 -0.0720  0.1776
 4745W        W 8796   0.831   3.682   0.162 -0.2553 -0.1151 -0.0652
 4746W        W 8797   2.395   7.186  12.539 -0.2817  0.4747 -0.1168
 4747W        W 8798   5.162   1.454   4.818  0.0084 -0.2635 -0.0302
 4748W        W 8799   4.014   3.333   9.926 -0.1260  0.2942  0.0131
 4749W        W 8800   5.006   0.316  11.550  0.1617  0.0250 -0.2590
 4750W        W 8801   7.520   9.458  10.988 -0.1242 -0.0748 -0.0900
 4751W        W 8802   3.763  10.042   3.580  0.2341  0.1782  0.0234
 4752W        W 8803   7.912   2.402   5.132  0.2192 -0.1269 -0.1276
 4753W        W 8804   2.886   9.943  12.809  0.0159  0.0300  0.0106
 4754W        W 8805   4.865   3.652   2.178  0.0662  0.0294  0.0647
 4755W        W 8806   5.724   4.283  12.866 -0.0106 -0.2636 -0.1242
 4756W        W 8807   2.283   8.182  10.028  0.0978 -0.1102  0.0686
 4757W        W 8808   1.337   1.278   1.722  0.1734  0.2158  0.3094
 4758W        W 8809   7.724   3.712  10.095 -0.0590 -0.0220  0.1156
 4759W        W 8810   7.079   1.034   3.146 -0.2827  0.2557  0.3653
 4760W        W 8811   0.198   3.992   3.485  0.1583  0.1406  0.3091
 4761W        W 8812   7.764   4.994  12.749 -0.1221 -0.0987  0.1397
 4762W        W 8813   1.439   6.222   2.385  0.2296 -0.1799 -0.2700
 4763W        W 8814   4.302   0.552   2.006 -0.1640  0.1750 -0.0681
 4764W        W 8815   8.875   5.806   0.933  0.0079  0.1279  0.1669
 4765W        W 8816   8.622   3.527   4.978 -0.0939 -0.0107 -0.1652
 4766W        W 8817   8.896   8.855  10.294  0.2157 -0.2920 -0.2546
 4767W        W 8818   0.208   4.840   0.248  0.3703 -0.6514 -0.1264
 4768W        W 8819   5.560   6.627   1.256 -0.1119  0.1470 -0.1656
 4769W        W 8820   1.747   7.634  10.672  0.1120  0.0400  0.0532
 4770W        W 8821   4.561   3.129   3.380 -0.1267 -0.0044 -0.2220
 4771W        W 8822   5.277   1.165  11.863  0.0751  0.0511 -0.4283
 4772W        W 8823   8.391   3.352   2.406  0.0422  0.1246  0.0547
 4773W        W 8824   8.735   2.624   2.065 -0.1100  0.1277 -0.2535
 4774W        W 8825   0.597   1.267   3.935 -0.1456  0.0629 -0.2617
 4775W        W 8826   4.714   1.556   9.502  0.2373  0.2348 -0.0332
 4776W        W 8827   0.007   7.857   2.831 -0.2953 -0.1008  0.1319
 4777W        W 8828   5.576   5.879   3.562 -0.1542 -0.2562  0.0294
 4778W        W 8829   3.988   5.388   2.888  0.2273 -0.0208  0.0769
 4779W        W 8830   4.977   5.306   1.183  0.1466 -0.4037  0.0533
 4780W        W 8831   8.595   9.640  12.639 -0.1060 -0.0229  0.1120
 4781W        W 8832   0.428   0.186  11.800  0.0486  0.0741  0.2177
 4782W        W 8833   8.232   5.095   0.489 -0.0119  0.0363 -0.0916
 4783W        W 8834   4.022   4.524   3.336  0.5251 -0.0967  0.1161
 4784W        W 8835   9.691   0.833   9.702  0.0773  0.1592 -0.0726
 4785W        W 8836   0.941   9.731  12.284 -0.0977  0.1083 -0.3269
 4786W        W 8837   6.877  10.032   1.737  0.1669 -0.2213 -0.0714
 4787W        W 8838   6.589   8.216  12.033  0.0367  0.2447  0.2324
 4788W        W 8839   3.339   5.010   1.421 -0.2983 -0.0990 -0.2540
 4789W        W 8840   2.825   0.756   4.483 -0.1230  0.1690  0.0666
 4790W        W 8841   6.686   6.716   3.857  0.3689  0.1216 -0.0349
 4791W        W 8842   3.774   7.028  11.341 -0.0567 -0.2366 -0.1763
 4792W        W 8843   1.895   4.195   3.162  0.2284  0.3188 -0.0583
 4793W        W 8844   3.855   6.229   2.540  0.0673 -0.3307 -0.0454
 4794W        W 8845   6.261   3.947   0.979  0.0767 -0.2263 -0.1707
 4795W        W 8846   1.733   3.041  13.188  0.1999  0.0691 -0.1757
 4796W        W 8847   0.282   8.880  11.642  0.2799  0.0622  0.1048
 4797W        W 8848   7.557   8.481   3.071  0.1057  0.1238  0.0975
 4798W        W 8849   8.533   2.159  12.289  0.0310  0.0080  0.1750
 4799W        W 8850   4.281   8.373   3.127  0.1055 -0.2760  0.1088
 4800W        W 8851   5.282   4.035   1.114 -0.2914  0.0825  0.1322
 4801W        W 8852   3.904   7.469   4.460 -0.0735 -0.0372 -0.1786
 4802W        W 8853   7.581   7.033   0.308 -0.1825 -0.2141  0.1515
 4803W        W 8854   2.995   8.913   2.420 -0.1140 -0.1210 -0.0294
 4804W        W 8855   7.892   9.240   4.197  0.0186 -0.1555 -0.0640
 4805W        W 8856   4.251   3.920   3.890 -0.1766 -0.2457  0.1159
 4806W        W 8857   2.858   8.931  13.079 -0.3063  0.0193  0.0831
 4807W        W 8858   9.017   1.057   0.091 -0.3808  0.1892 -0.0761
 4808W        W 8859   0.013   4.957  12.271  0.0249  0.0546 -0.2670
 4809W        W 8860   3.001   7.193  13.270 -0.0896 -0.3016 -0.2094
 4810W        W 8861   8.960   4.209  10.572 -0.2326  0.0209 -0.0434
 4811W        W 8862   2.868   5.629  12.043 -0.0029 -0.1048  0.2484
 4812W        W 8863   6.825  10.160   0.515 -0.3086 -0.3095  0.3932
 4813W        W 8864   7.378   0.193   0.458  0.4028 -0.0244 -0.1951
 4814W        W 8865   9.036   0.207  11.528  0.1886 -0.4856  0.1333
 4815W        W 8866   0.086   2.637  13.953  0.1896  0.0053  0.0103
 4816W        W 8867   4.333   4.170  13.112 -0.0545  0.0324  0.1723
 4817W        W 8868   6.090   1.049   4.177  0.1687 -0.1252 -0.1759
 4818W        W 8869   1.229   7.663  11.679 -0.0682  0.2330 -0.1009
 4819W        W 8870   2.786   6.107  11.895 -0.1316  0.0613  0.3598
 4820W        W 8871   4.366   2.637   0.703 -0.1796  0.2529 -0.1240
 4821W        W 8872   1.870   0.558   1.564  0.1800  0.0000  0.0770
 4822W        W 8873   0.950   7.508  11.240 -0.2424  0.2028 -0.4339
 4823W        W 8874   1.641   4.773   3.954  0.2145 -0.1571 -0.0083
 4824W        W 8875   5.568   5.312  13.825 -0.2342  0.0058 -0.2099
 4825W        W 8876   3.403   0.125   0.730 -0.3222 -0.1412  0.1273
 4826W        W 8877   8.800   4.490  11.028 -0.0929 -0.3018 -0.0268
 4827W        W 8878   1.271   5.337  12.225 -0.2082  0.1350  0.2914
 4828W        W 8879   9.602   2.521   3.559  0.0357 -0.1138  0.1455
 4829W        W 8880   5.416   3.503   1.021 -0.0639 -0.3030 -0.2673
 4830W        W 8881   9.206   9.138   0.946 -0.0090  0.2645 -0.0541
 4831W        W 8882   4.068   7.179   4.047  0.1674  0.0562  0.0587
 4832W        W 8883   2.631   5.792   0.641 -0.0393  0.0161 -0.0536
 4833W        W 8884   9.506   3.594   1.189  0.0602  0.2904  0.2291
 4834W        W 8885   3.734   6.185   1.800 -0.0131  0.1833 -0.1070
 4835W        W 8886   4.751   9.623  10.038  0.0234  0.0020  0.1943
 4836W        W 8887   5.594   4.673  13.278 -0.3456  0.2564  0.3076
 4837W        W 8888   7.583   7.439   2.188 -0.1456 -0.2252  0.1599
 4838W        W 8889   9.289   4.187  13.254 -0.1305 -0.0464  0.1903
 4839W        W 8890   1.809   1.075   1.762  0.1835  0.0569  0.0455
 4840W        W 8891   0.709   0.954  13.227  0.1234 -0.2768  0.2113
 4841W        W 8892   3.496   2.591  10.307 -0.0653 -0.1267 -0.0662
 4842W        W 8893   7.012   7.269  11.074  0.3284 -0.1496  0.0264
 4843W        W 8894   3.830   9.953  11.970  0.1663 -0.1305 -0.2153
 4844W        W 8895   9.797   9.193  11.141  0.1191 -0.1139  0.0688
 4845W        W 8896   3.888   8.113  12.230 -0.1709  0.0516  0.1211
 4846W        W 8897   6.081   9.456  11.375 -0.0257 -0.2301  0.0107
 4847W        W 8898   6.350   9.040  13.796 -0.1331  0.0165 -0.0152
 4848W        W 8899   4.921   8.489  12.016  0.0458 -0.2795  0.0305
 4849W        W 8900   3.755   9.802   0.813  0.0890 -0.0600  0.1481
 4850W        W 8901   1.714   0.217   9.468 -0.2049  0.0408 -0.1459
 4851W        W 8902   1.648   3.631   9.205 -0.1590 -0.1111 -0.1356
 4852W        W 8903   3.505   9.245  11.574 -0.0344 -0.1751  0.1154
 4853W        W 8904   7.785   1.272   4.720  0.2512  0.1804 -0.1226
 4854W        W 8905   3.475   9.603  12.887 -0.1823  0.1054 -0.1901
 4855W        W 8906   5.015   7.939   8.899 -0.2607  0.1731 -0.1724
 4856W        W 8907   8.728   1.639  11.296 -0.1222 -0.0935 -0.1832
 4857W        W 8908   7.559   4.678   1.771  0.4224  0.0886 -0.2154
 4858W        W 8909   1.231   2.412   3.804 -0.0613 -0.2510  0.0244
 4859W        W 8910   3.910   5.218   4.290  0.1180 -0.0314 -0.0154
 4860W        W 8911   1.038   0.543  10.306  0.2758  0.0989 -0.4760
 4861W        W 8912   2.164   9.248   0.295  0.0411  0.1560  0.1099
 4862W        W 8913   0.584   5.500   1.667 -0.1199 -0.1867 -0.2097
 4863W        W 8914   0.381   0.656   3.083 -0.0636 -0.1237  0.0211
 4864W        W 8915   0.966   2.451  13.823  0.1188  0.1601 -0.0600
 4865W        W 8916   9.158   3.359   0.786  0.2131 -0.1097 -0.4327
 4866W        W 8917   2.241   0.340   2.693  0.1114  0.5299  0.3306
 4867W        W 8918   1.520   9.860   0.167 -0.0130 -0.3685 -0.1077
 4868W        W 8919   9.760   9.779  11.048  0.2979 -0.5365 -0.0380
 4869W        W 8920   3.719   9.675  13.384  0.0531  0.2063  0.2746
 4870W        W 8921   6.794   2.761   0.184 -0.0333  0.2511  0.1782
 4871W        W 8922   6.110   4.088   4.969 -0.0273  0.3241  0.0465
 4872W        W 8923   7.742   4.246   1.624 -0.2328  0.0813  0.0645
 4873W        W 8924   1.345  10.174   8.661  0.0545 -0.0613  0.0542
 4874W        W 8925   6.008   6.365   2.471  0.2603 -0.0554 -0.0078
 4875W        W 8926   3.869   0.116   8.791  0.4139  0.0713  0.0349
 4876W        W 8927   2.044   1.066   9.991 -0.1311  0.4371 -0.1210
 4877W        W 8928   7.751   3.925  11.294  0.1803 -0.1907 -0.0169
 4878W        W 8929   4.412   4.629   2.070  0.3552 -0.1978 -0.0387
 4879W        W 8930   3.431   5.006   2.454 -0.3094  0.1388  0.1760
 4880W        W 8931   6.332   2.841   9.790  0.4067  0.0472  0.0713
 4881W        W 8932   9.482   6.059  12.589  0.0415 -0.1577  0.1891
 4882W        W 8933   3.254   0.149  12.217 -0.3390 -0.0238 -0.1062
 4883W        W 8934   1.901   9.677  12.876  0.4611 -0.0664  0.2583
 4884W        W 8935   3.793   8.232  10.919 -0.2816 -0.1373 -0.1180
 4885W        W 8936   2.956   7.847   1.094 -0.4759 -0.1701  0.0719
 4886W        W 8937   3.364   7.320   3.403 -0.1577 -0.0617  0.1510
 4887W        W 8938   2.910   3.427   2.879 -0.2072  0.1823 -0.4523
 4888W        W 8939   8.163   4.028   4.309 -0.1822 -0.0118  0.0971
 4889W        W 8940   2.660   0.813  10.711 -0.2484  0.0420 -0.0984
 4890W        W 8941   4.640   2.312   2.684  0.0706  0.1741 -0.0368
 4891W        W 8942   6.927   6.947   2.658  0.0738 -0.1563  0.2596
 4892W        W 8943   7.289   1.882  10.310 -0.1016 -0.2531 -0.0936
 4893W        W 8944   1.874   5.188   0.352 -0.1190  0.2806  0.1713
 4894W        W 8945   7.610   1.554   1.540 -0.0305  0.2384  0.0439
 4895W        W 8946   2.581   4.874   2.989 -0.1065  0.2621 -0.1463
 4896W        W 8947   3.339  10.047  12.697 -0.0421  0.2143 -0.0703
 4897W        W 8948   3.701   0.610   4.812 -0.2127  0.3178 -0.1007
 4898W        W 8949   8.338   4.225   3.367 -0.0946 -0.0930 -0.2360
 4899W        W 8950   9.154   5.271  10.304 -0.0729 -0.2063  0.1960
 4900W        W 8951   4.754   7.408   2.034  0.1141  0.3140 -0.2107
 4901W        W 8952   0.620   4.942   0.598  0.1111  0.2183  0.0362
 4902W        W 8953   6.783   8.578   2.907 -0.4037  0.0459  0.0188
 4903W        W 8954   0.402   7.058   1.782 -0.2253  0.2502  0.0237
 4904W        W 8955   2.084   2.192   4.112  0.1229  0.2124  0.1489
 4905W        W 8956   5.480   7.223   9.824  0.1410  0.2015 -0.1915
 4906W        W 8957   3.163   8.777   1.183 -0.0777  0.0639  0.3118
 4907W        W 8958   2.714   9.072  10.962  0.1897 -0.0943 -0.0737
 4908W        W 8959   7.125   7.609   1.332 -0.0165 -0.0512  0.0615
 4909W        W 8960   4.834   6.655   0.092 -0.1372  0.2020 -0.3053
 4910W        W 8961   3.546   1.581   2.382  0.0411 -0.1397  0.4488
 4911W        W 8962   4.010   0.770   4.228  0.0662  0.2045 -0.3083
 4912W        W 8963   7.255   0.696  10.585  0.2746  0.6092 -0.2197
 4913W        W 8964   5.097   0.848   4.470 -0.0041 -0.0839  0.0793
 4914W        W 8965   5.863   3.871   3.529  0.0498  0.2803  0.1277
 4915W        W 8966   3.346   9.865   0.496 -0.1018 -0.5362  0.1369
 4916W        W 8967   6.891   9.432   1.539 -0.1837 -0.0039 -0.0699
 4917W        W 8968   2.556   3.096   2.568 -0.1761 -0.0983  0.0190
 4918W        W 8969   1.584   1.584  10.973 -0.0162  0.2495 -0.0673
 4919W        W 8970   3.274   2.895   9.345 -0.0933 -0.0577  0.3142
 4920W        W 8971   3.086   4.825  11.405  0.3325  0.1972  0.1774
 4921W        W 8972   7.064   4.810   4.626  0.1580 -0.1271 -0.1489
 4922W        W 8973   7.304   5.251  10.793  0.1306 -0.0429  0.0398
 4923W        W 8974   3.217   1.504  12.827  0.0526  0.4425 -0.0008
 4924W        W 8975   0.084   3.237   4.882 -0.0177  0.0746  0.0073
 4925W        W 8976   2.305   8.210   2.916  0.1054  0.2864 -0.1136
 4926W        W 8977   1.337   4.923   3.425 -0.1854  0.0688  0.2404
 4927W        W 8978   3.227   1.199  11.701 -0.3759 -0.0586  0.0297
 4928W        W 8979   3.137   8.173   0.352 -0.0614  0.1037  0.1391
 4929W        W 8980   4.390   0.491  13.338  0.0403 -0.0823 -0.1973
 4930W        W 8981   9.638   2.524  12.557  0.4146 -0.1449 -0.1816
 4931W        W 8982  10.112   8.104   2.390 -0.0240 -0.4063  0.0522
 4932W        W 8983   7.316  10.053   1.485  0.0695 -0.0246 -0.1701
 4933W        W 8984   2.164   4.959   3.734 -0.0033  0.1585 -0.0130
 4934W        W 8985   9.159   8.847   2.933  0.2151  0.3154 -0.1657
 4935W        W 8986   5.737   7.770   3.427 -0.2092 -0.0654  0.0255
 4936W        W 8987   5.016   0.838   1.007  0.1191 -0.2473  0.1320
 4937W        W 8988   4.784   0.396  13.592 -0.3961 -0.1768 -0.4982
 4938W        W 8989   0.287   0.182   3.766 -0.1828  0.0698 -0.2566
 4939W        W 8990   9.369   2.836   4.057 -0.1769  0.1856  0.1155
 4940W        W 8991   7.702   4.841  12.233 -0.0143 -0.2765 -0.4564
 4941W        W 8992   8.822   9.880  13.053  0.1083 -0.1066  0.3746
 4942W        W 8993   1.101   3.509  13.728  0.0393 -0.0181  0.1201
 4943W        W 8994   7.449   6.812   1.501  0.2057 -0.2358 -0.1097
 4944W        W 8995   2.552   3.432  12.153  0.0676  0.3097 -0.2985
 4945W        W 8996   8.370   2.505   1.688  0.2943 -0.0662  0.1162
 4946W        W 8997   8.263   1.399   4.982  0.1183 -0.0720  0.0590
 4947W        W 8998   9.570  10.123   0.755 -0.0588 -0.2719  0.0058
 4948W        W 8999   9.583   2.331  11.109  0.0259  0.1589  0.3434
 4949W        W 9000   4.404   9.806  11.263  0.0543  0.0062  0.1198
 4950W        W 9001   4.890   9.661   0.055 -0.0709 -0.0122 -0.1446
 4951W        W 9002   1.988   8.916  12.343  0.1794 -0.3059  0.1243
 4952W        W 9003   0.776   7.496  13.422 -0.1239 -0.2827 -0.2181
 4953W        W 9004   5.384   0.278  11.891  0.0801 -0.0042 -0.2181
 4954W        W 9005   4.270   8.809  11.988  0.0301  0.0476  0.1088
 4955W        W 9006   9.972   8.955  12.172 -0.0456 -0.2881  0.3850
 4956W        W 9007   0.353   3.397   3.359  0.1952 -0.0709  0.1169
 4957W        W 9008   9.179   2.296  11.820  0.1216 -0.2950  0.6311
 4958W        W 9009   8.458   2.340   9.129 -0.0463 -0.4262 -0.0466
 4959W        W 9010   3.802   6.337   9.183 -0.1223  0.2489  0.4062
 4960W        W 9011   3.906   5.688   9.731 -0.0099  0.4444  0.2040
 4961W        W 9012   2.128   0.701   0.522  0.1051  0.2085 -0.0456
 4962W        W 9013   6.287   6.961   4.199 -0.0629  0.1310 -0.1447
 4963W        W 9014   9.261   8.056   3.915 -0.0859  0.0949 -0.0757
 4964W        W 9015   8.213   8.221  11.138 -0.0627  0.1190 -0.1791
 4965W        W 9016   3.227   9.615   8.971  0.0626  0.2326  0.0958
 4966W        W 9017   5.536   9.224  12.339  0.0789 -0.2448 -0.1975
 4967W        W 9018   6.264   2.709  11.124  0.2804 -0.1248  0.1930
 4968W        W 9019   8.101   1.602   4.533 -0.3362 -0.2591  0.1546
 4969W        W 9020   1.719   4.648   2.979  0.1058  0.2547 -0.0887
 4970W        W 9021   6.354   4.120   1.554  0.2544 -0.1665  0.3055
 4971W        W 9022   1.866   0.953  12.682 -0.0151 -0.1426  0.0270
 4972W        W 9023   1.352   7.165  11.610 -0.1439  0.0484  0.1177
 4973W        W 9024   0.023   5.894   4.409  0.0533 -0.0521  0.1687
 4974W        W 9025   3.514   8.529   9.720 -0.0915  0.3959 -0.2762
 4975W        W 9026   7.529   3.790   1.744 -0.1247 -0.1697 -0.2225
 4976W        W 9027   4.515   8.166   9.795 -0.2392  0.0295  0.1244
 4977W        W 9028   1.431   4.161   2.919 -0.2019 -0.3582  0.1571
 4978W        W 9029   8.188   3.222   0.110 -0.1461  0.1876  0.0445
 4979W        W 9030   2.726   8.727  13.482 -0.0856  0.1164 -0.3798
 4980W        W 9031   9.095   4.364   4.783 -0.0003 -0.0014  0.1053
 4981W        W 9032   0.302   8.905   3.204 -0.4509  0.0429  0.0030
 4982W        W 9033   7.443   3.676   4.207  0.1603 -0.0859 -0.2957
 4983W        W 9034   4.279   6.557   3.470 -0.0137  0.1193  0.0960
 4984W        W 9035   2.640   0.761  11.226  0.1898 -0.2494  0.1777
 4985W        W 9036   4.480   8.755  10.589 -0.3260  0.0798 -0.0060
 4986W        W 9037   7.359  10.124  12.415 -0.2142 -0.1150 -0.2238
 4987W        W 9038   5.837   5.166   3.365 -0.1282  0.0891 -0.0552
 4988W        W 9039   3.474   1.992   0.681 -0.0790  0.4112 -0.0951
 4989W        W 9040   2.222   5.662   2.484  0.1109  0.1647  0.0792
 4990W        W 9041   8.412   5.269   3.507  0.1040 -0.0615 -0.0651
 4991W        W 9042   7.088   4.325   2.799  0.0163 -0.1705  0.1002
 4992W        W 9043   9.808   6.507   3.159 -0.1669  0.0877 -0.3338
 4993W        W 9044   0.557   1.431  12.437 -0.1999  0.1776  0.1299
 4994W        W 9045   2.046  10.109  10.969 -0.1478 -0.1494 -0.2000
 4995W        W 9046   0.318   0.891   6.050 -0.1639 -0.0523 -0.2258
 4996W        W 9047   7.811   0.222  11.142  0.1568  0.1292 -0.0140
 4997W        W 9048   2.319   6.610  12.664 -0.0053 -0.0979 -0.2060
 4998W        W 9049   9.340   9.026   3.376 -0.0646  0.1312  0.0338
 4999W        W 9050   3.175   7.093  10.608  0.1177  0.1012 -0.1406
 5000W        W 9051   7.923   4.127  12.800  0.0131 -0.1433 -0.2840
 5001W        W 9052   0.023   0.916   0.099 -0.1925 -0.1860  0.4918
 5002W        W 9053   1.532   1.362  13.595  0.0056 -0.0489 -0.1773
 5003W        W 9054   8.769   8.111   2.554 -0.5565  0.0530  0.1649
 5004W        W 9055   2.800   6.028   0.212  0.0616  0.0090  0.0038
 5005W        W 9056   5.799   8.322   2.148  0.0894 -0.2054 -0.0085
 5006W        W 9057   7.292   0.736   9.716  0.0353 -0.0968  0.3971
 5007W        W 9058   6.930   3.475  13.375  0.3705  0.1082  0.0858
 5008W        W 9059   6.186   3.697   9.759 -0.0577  0.0024 -0.0655
 5009W        W 9060   2.934   0.681  12.873  0.2004  0.1085 -0.1411
 5010W        W 9061   2.806   4.362   0.292  0.0633 -0.0209  0.3014
 5011W        W 9062   6.702   9.038   3.789 -0.0836 -0.1039 -0.0871
 5012W        W 9063   2.516   1.515   9.216 -0.0014 -0.2316 -0.2895
 5013W        W 9064   3.116   4.230  11.962 -0.0194  0.1035 -0.0135
 5014W        W 9065   6.983   4.768   3.951 -0.0138  0.1813  0.0927
 5015W        W 9066   4.221   6.133   0.587  0.1409 -0.1656 -0.0512
 5016W        W 9067   1.586   7.201   3.218  0.2101 -0.0163 -0.0677
 5017W        W 9068   4.569   7.310   4.089  0.2691  0.0466  0.0331
 5018W        W 9069   4.067   2.394   3.389 -0.0789  0.0690  0.0958
 5019W        W 9070   1.238   3.122   2.931 -0.0960  0.2524 -0.1308
 5020W        W 9071   8.105   4.816  11.581 -0.2306  0.0075 -0.4296
 5021W        W 9072   3.660   5.667   3.633  0.5381 -0.2128 -0.0537
 5022W        W 9073   4.313   4.036   4.863  0.1523  0.0424 -0.0962
 5023W        W 9074   2.525   1.600  11.269 -0.0649  0.1596 -0.1042
 5024W        W 9075   6.287   3.648   0.622 -0.0520 -0.1790  0.0682
 5025W        W 9076   5.658   2.617   4.109 -0.0506  0.0560 -0.0128
 5026W        W 9077   1.276   0.641   4.811  0.0332  0.2479  0.3418
 5027W        W 9078   6.689   4.035   2.565  0.0331 -0.1318 -0.1101
 5028W        W 9079   7.901   6.939  12.270  0.0792  0.1727 -0.1476
 5029W        W 9080   1.481   4.851   0.484 -0.0653  0.1527  0.0672
 5030W        W 9081   0.294   9.911   1.697  0.1631  0.0892  0.1848
 5031W        W 9082   1.120   4.764  10.435 -0.1079 -0.0644  0.0902
 5032W        W 9083   9.886   0.413  11.524  0.2074  0.3585  0.0085
 5033W        W 9084   9.047   6.878   1.368 -0.3167 -0.1093 -0.0809
 5034W        W 9085   4.498   3.193  13.047  0.1544  0.3295 -0.1135
 5035W        W 9086   5.711   8.900  11.351 -0.1268  0.1408  0.2727
 5036W        W 9087   6.776   9.261   0.548  0.1819  0.4494 -0.4878
 5037W        W 9088   1.840   6.715  13.416 -0.0260  0.3634  0.0851
 5038W        W 9089   4.824   4.921   3.076  0.0675 -0.3233 -0.0873
 5039W        W 9090   8.328   0.895   1.152 -0.2036 -0.1255 -0.1680
 5040W        W 9091   6.322   2.748   0.302 -0.0618  0.2055  0.1009
 5041W        W 9092   4.547   6.447  10.410 -0.1374 -0.0365  0.0250
 5042W        W 9093   5.155   0.924   0.491 -0.0281  0.0050  0.0810
 5043W        W 9094   7.179  10.154  13.259  0.1361  0.3170  0.1077
 5044W        W 9095   1.257   1.480   1.217 -0.2075  0.3014 -0.1170
 5045W        W 9096   3.769   8.101   8.979  0.0178 -0.3774 -0.1528
 5046W        W 9097   5.715   2.988   5.396 -0.0650 -0.1055  0.2359
 5047W        W 9098   4.092  10.032   3.933  0.0016 -0.0023 -0.1102
 5048W        W 9099   6.812   3.492   0.547  0.0199 -0.2266  0.2033
 5049W        W 9100   7.165   0.924   0.275 -0.0991  0.1335 -0.0645
 5050W        W 9101   7.952   9.680   1.236 -0.0676  0.0646 -0.0705
 5051W        W 9102   3.779   5.918   1.387  0.2288 -0.0933  0.0654
 5052W        W 9103   5.795   1.099  11.871 -0.2426  0.0643 -0.0708
 5053W        W 9104   7.845   5.507   3.518 -0.2019 -0.0447  0.3170
 5054W        W 9105  10.170   0.144   9.549  0.1827 -0.1411 -0.0825
 5055W        W 9106   3.136   4.354   2.891  0.1865 -0.2198 -0.1162
 5056W        W 9107   0.958   8.572   1.086  0.0167  0.1225  0.2877
 5057W        W 9108   6.167   2.622   1.358  0.0511  0.0119  0.1768
 5058W        W 9109   6.392   2.090   4.016 -0.3167  0.1526  0.2327
 5059W        W 9110   3.181   5.635   3.348  0.0254  0.0831 -0.0095
 5060W        W 9111   6.831   4.406  13.949 -0.3108  0.0533 -0.1555
 5061W        W 9112   5.126   1.938   4.589  0.0286  0.1488  0.0205
 5062W        W 9113   4.803   5.830   1.608 -0.0754  0.2148  0.2397
 5063W        W 9114   1.009   4.258   1.554 -0.0629  0.1746 -0.0493
 5064W        W 9115   1.041   0.236  11.304  0.0353 -0.0589 -0.2029
 5065W        W 9116   4.519   4.680  12.299  0.0347  0.0257  0.2829
 5066W        W 9117   7.326   4.635   2.445 -0.1589  0.0304 -0.0367
 5067W        W 9118   3.806   4.690   2.254 -0.0103 -0.3730 -0.2434
 5068W        W 9119   8.916   5.292  12.595  0.3301 -0.0751  0.2498
 5069W        W 9120   9.982   3.293   8.638  0.0582  0.1914  0.1143
 5070W        W 9121   8.423   8.556   2.733 -0.1309  0.0798 -0.2001
 5071W        W 9122   4.020   8.836  13.349 -0.1132  0.0747  0.2579
 5072W        W 9123   3.047   4.290  11.429  0.2530  0.0295 -0.0522
 5073W        W 9124   5.441   3.502  13.378 -0.1879  0.3360 -0.0034
 5074W        W 9125   1.274   7.096  12.611  0.0145 -0.1092  0.2551
 5075W        W 9126   8.484   6.420  11.733 -0.1799  0.2919 -0.1924
 5076W        W 9127   0.509   5.724  12.283  0.0443  0.0762 -0.1548
 5077W        W 9128   2.250   6.817   0.557  0.0304 -0.1838 -0.1997
 5078W        W 9129   2.419   4.879   1.950 -0.1381  0.0887  0.1120
 5079W        W 9130   9.896   8.309  13.750 -0.2872  0.1809 -0.2401
 5080W        W 9131   2.483   8.040   9.497  0.1128  0.4266  0.0447
 5081W        W 9132   7.010   5.359  13.820 -0.0929  0.1791 -0.1902
 5082W        W 9133   3.297   9.352  13.264  0.2644  0.0386  0.1533
 5083W        W 9134   0.635   0.380   4.087  0.0938  0.1580 -0.5285
 5084W        W 9135   3.343   3.794  11.636  0.4313  0.0019  0.1396
 5085W        W 9136   1.363   2.125   2.742  0.3812 -0.1511 -0.0605
 5086W        W 9137   9.745   9.470  12.270 -0.1543  0.3713  0.1537
 5087W        W 9138   8.613   6.999  13.410 -0.0179  0.0831 -0.0806
 5088W        W 9139   5.302   4.099   2.668  0.1772 -0.1734 -0.3137
 5089W        W 9140   0.582   3.523   2.355  0.0530  0.1007 -0.0104
 5090W        W 9141   4.186   7.975   0.702 -0.1077 -0.0110  0.1222
 5091W        W 9142   2.669   2.606   0.561  0.1215 -0.1846  0.0452
 5092W        W 9143   4.149   5.690  10.631  0.4357  0.0603 -0.0340
 5093W        W 9144   3.092   7.738   0.575  0.0134 -0.1113  0.0261
 5094W        W 9145   0.056   1.982  13.856  0.0237 -0.0679  0.0848
 5095W        W 9146   7.418  10.118  11.067 -0.0398 -0.1876  0.1059
 5096W        W 9147   8.599   4.646  11.581 -0.2152 -0.0565 -0.1710
 5097W        W 9148   2.262   2.963   9.750 -0.1081  0.1145  0.1969
 5098W        W 9149   9.070   1.227  10.601 -0.1307 -0.3819  0.0587
 5099W        W 9150   3.178   3.175   9.836  0.1188  0.3332 -0.0601
 5100W        W 9151   6.423   8.734   3.341  0.1187 -0.0550 -0.2838
 5101W        W 9152   8.063   7.965  13.743  0.3507 -0.1995 -0.0035
 5102W        W 9153   6.085   3.911  12.805  0.2467  0.1031 -0.0107
 5103W        W 9154   4.616   0.047   3.743 -0.0583  0.1960 -0.1252
 5104W        W 9155   5.675   3.573   1.892  0.2348 -0.1214 -0.2877
 5105W        W 9156   4.220   8.308  13.209 -0.0794 -0.0700  0.2518
 5106W        W 9157   1.859   6.423  12.940  0.0255 -0.2245 -0.2683
 5107W        W 9158   4.135   3.511   4.917 -0.1508  0.0583  0.0886
 5108W        W 9159   8.555   5.874  12.220 -0.0330  0.0526 -0.6922
 5109W        W 9160   6.248   0.964   2.992  0.1417 -0.1267  0.2175
 5110W        W 9161   3.370   2.787  12.859  0.0798 -0.2188  0.1633
 5111W        W 9162   3.447   4.854  11.799  0.1446 -0.4419 -0.2338
 5112W        W 9163   6.907   7.898   3.295 -0.1472 -0.3251 -0.3513
 5113W        W 9164   4.237   3.063  11.301  0.0303 -0.0328  0.0222
 5114W        W 9165   0.558   7.312   0.678 -0.3244  0.2102  0.2381
 5115W        W 9166   5.673   3.638   9.750  0.2377 -0.0863  0.1430
 5116W        W 9167   4.413   2.239   1.468  0.1799 -0.0745  0.0898
 5117W        W 9168   7.182   0.831  12.164  0.1245  0.2251  0.1102
 5118W        W 9169   8.494   6.495   0.130  0.0145  0.4639  0.1243
 5119W        W 9170   6.985   0.841   3.626 -0.2939 -0.2399  0.0056
 5120W        W 9171   4.220   7.907   8.849 -0.2775 -0.0445 -0.0374
 5121W        W 9172   2.809   2.095   1.457  0.1705 -0.2103  0.1304
 5122W        W 9173   7.627  10.006   1.000  0.0187  0.1260 -0.0978
 5123W        W 9174   3.665   7.470  13.825 -0.1675 -0.0646 -0.5667
 5124W        W 9175   9.049   2.441   3.154 -0.1367 -0.2353 -0.2344
 5125W        W 9176   4.141   8.507   0.608  0.1656 -0.2484 -0.0041
 5126W        W 9177   9.316   8.565  10.156 -0.0429  0.1501 -0.1863
 5127W        W 9178   5.484   1.173   3.536  0.0060  0.0179 -0.1724
 5128W        W 9179   3.753   6.895  13.099 -0.5112 -0.0024  0.1370
 5129W        W 9180   6.896   6.024  11.880 -0.0897  0.1955  0.1212
 5130W        W 9181   8.571   2.139   4.379 -0.2698 -0.3485 -0.1008
 5131W        W 9182   8.675   0.334   0.605 -0.0017 -0.0549 -0.1399
 5132W        W 9183   4.734   7.629  13.692  0.0577 -0.0787 -0.2993
 5133W        W 9184   1.062   9.446  13.560 -0.3156 -0.3316  0.0199
 5134W        W 9185   6.984   4.569   9.863  0.1969 -0.1067 -0.1516
 5135W        W 9186   8.345   4.324   0.687 -0.1077  0.1162  0.0421
 5136W        W 9187   8.308   2.757   1.076 -0.1858 -0.4682 -0.4703
 5137W        W 9188   3.174   0.789   8.347 -0.3170  0.1471 -0.1470
 5138W        W 9189   1.794   7.412  11.815  0.0599 -0.0178  0.0345
 5139W        W 9190   0.670   0.702   1.798 -0.0389 -0.2320  0.0339
 5140W        W 9191   3.603   0.082   2.883 -0.0815  0.0938 -0.2122
 5141W        W 9192   5.402   5.783   4.076 -0.0080  0.1311 -0.2627
 5142W        W 9193   1.316   2.246   4.568  0.0898 -0.2642 -0.1689
 5143W        W 9194   5.496   0.443  10.567  0.2294 -0.0094  0.1012
 5144W        W 9195   0.334   0.429  13.122  0.0442  0.1531 -0.3091
 5145W        W 9196   3.228   8.379  11.694  0.1825 -0.4323  0.0912
 5146W        W 9197   0.776   2.676   1.490  0.3294 -0.1722 -0.0514
 5147W        W 9198   5.705   8.072  10.958 -0.0778 -0.0867 -0.3579
 5148W        W 9199   5.849   0.755   3.820 -0.2317  0.1093 -0.0676
 5149W        W 9200   7.617   7.670  11.394 -0.0173 -0.3271  0.0870
 5150W        W 9201   8.185   2.670   4.752 -0.2456  0.0221 -0.0666
 5151W        W 9202   0.897   5.442  12.506 -0.1917 -0.0043  0.2988
 5152W        W 9203   0.963   0.225  11.803 -0.2129  0.1712 -0.2830
 5153W        W 9204  10.142   1.866  13.301 -0.0333  0.0736 -0.1891
 5154W        W 9205  10.029   6.595  13.311 -0.1860  0.0893 -0.1587
 5155W        W 9206   5.064   8.622  13.510  0.1529 -0.1360 -0.1848
 5156W        W 9207   4.501   8.821   9.526  0.0592 -0.2518 -0.0466
 5157W        W 9208   4.004   9.455   0.570 -0.3305  0.3299  0.3745
 5158W        W 9209   9.607   1.425   3.959  0.1760  0.1042  0.0793
 5159W        W 9210   3.492   7.330  12.458  0.2545 -0.1341 -0.2221
 5160W        W 9211   9.890   1.015  11.755  0.0640 -0.1574 -0.0762
 5161W        W 9212   4.120   1.721  11.006 -0.3892 -0.2343  0.0019
 5162W        W 9213   6.258   9.718   3.531  0.2231  0.0174  0.0030
 5163W        W 9214   1.615   8.760   9.553  0.2339  0.1317  0.0708
 5164W        W 9215   8.438   7.559   1.131  0.0035  0.0487  0.1250
 5165W        W 9216   7.853   9.033  12.543  0.2996 -0.0302 -0.2028
 5166W        W 9217   8.994   8.183   9.924 -0.0846  0.0031  0.0685
 5167W        W 9218   2.728   7.464   4.503  0.1732 -0.0156  0.0057
 5168W        W 9219   7.883   5.226  13.757  0.0553 -0.1193  0.2637
 5169W        W 9220   2.261   5.007  11.227  0.1294 -0.1297  0.0418
 5170W        W 9221   1.168   2.902   5.581 -0.4248 -0.0260  0.3714
 5171W        W 9222   5.157   3.774  13.656 -0.0174  0.0450 -0.1534
 5172W        W 9223   8.464   3.440   4.517  0.0079 -0.1086  0.0904
 5173W        W 9224   1.693   9.214  12.634 -0.0550 -0.1435 -0.0885
 5174W        W 9225   9.618   1.307   2.074  0.2915  0.1251 -0.2031
 5175W        W 9226   5.006   5.583   9.570 -0.2704  0.1402  0.0178
 5176W        W 9227   3.514   6.259   9.557 -0.0987 -0.2720  0.4510
 5177W        W 9228   8.398   1.062   1.613 -0.0194  0.1874 -0.2645
 5178W        W 9229   2.992   9.851   2.185 -0.4094  0.2873  0.0043
 5179W        W 9230  10.067   0.163  13.445 -0.1567 -0.2601 -0.1558
 5180W        W 9231   8.125   1.107  13.350  0.1400  0.0179  0.0447
 5181W        W 9232   5.057   7.138  10.082  0.0126 -0.0056  0.1344
 5182W        W 9233   5.478   4.516   1.315  0.0244 -0.0928 -0.2477
 5183W        W 9234   3.089   9.391   3.926  0.0367 -0.1838  0.0474
 5184W        W 9235   3.356   1.133   3.114 -0.0674 -0.1747 -0.4481
 5185W        W 9236   9.602   4.368   4.870  0.2984  0.2799 -0.0184
 5186W        W 9237   0.874   2.137   2.782 -0.1049 -0.2534  0.0201
 5187W        W 9238   8.336   9.297   4.636  0.2625  0.2393 -0.1420
 5188W        W 9239   2.098   3.211  12.345  0.2087  0.1960 -0.2621
 5189W        W 9240   4.499   0.128   3.104 -0.1299  0.0745 -0.0180
 5190W        W 9241   5.799   7.894  12.618  0.0905 -0.0250 -0.1726
 5191W        W 9242   7.184   1.695   1.380 -0.0910  0.0815 -0.2355
 5192W        W 9243   4.111   9.417   8.861 -0.1957 -0.0385 -0.2343
 5193W        W 9244   1.223   4.896   9.883  0.2169 -0.3631  0.0301
 5194W        W 9245  10.020   6.481  11.253  0.0293 -0.0374 -0.3667
 5195W        W 9246   4.193   0.527   4.651 -0.3055 -0.2524  0.4218
 5196W        W 9247   4.100   6.740  10.462  0.0424  0.0785  0.1679
 5197W        W 9248   4.507   3.611   0.892 -0.0973  0.1334 -0.0096
 5198W        W 9249   7.164   8.108   1.186  0.1013 -0.0151  0.0087
 5199W        W 9250   7.796   6.699  12.700  0.1260 -0.0198 -0.1642
 5200W        W 9251   0.968   0.309   3.272  0.0046 -0.0129 -0.0460
 5201W        W 9252   1.316   0.969  10.031 -0.0349 -0.0215 -0.0677
 5202W        W 9253   4.885   3.082  12.084 -0.1599  0.0229 -0.4384
 5203W        W 9254   4.718   7.369  10.415  0.1342 -0.0148  0.0480
 5204W        W 9255   1.309   9.905   0.674 -0.0132 -0.0347 -0.2174
 5205W        W 9256   0.563   0.791  10.467 -0.0312  0.1290 -0.1924
 5206W        W 9257   1.236   3.795   4.887  0.1606  0.2294  0.0244
 5207W        W 9258   6.395   5.870  10.596  0.1748 -0.0867 -0.0954
 5208W        W 9259   2.330   5.616   5.182 -0.2752  0.0919 -0.2640
 5209W        W 9260   9.678   1.328   5.303 -0.0948  0.0646  0.1186
 5210W        W 9261   6.029   7.912   9.701 -0.0057 -0.1343  0.1589
 5211W        W 9262   1.980   3.113   4.622  0.2426  0.0023 -0.1283
 5212W        W 9263   5.813   3.922   5.362 -0.0907 -0.1705 -0.1306
 5213W        W 9264   0.475   9.967   4.080 -0.1719  0.0327  0.0051
 5214W        W 9265   5.603   6.061   2.409 -0.3061 -0.1588 -0.0418
 5215W        W 9266   6.794   4.459  13.428  0.2052  0.0811  0.0268
 5216W        W 9267   8.794   7.455  11.233 -0.0830  0.1216 -0.2235
 5217W        W 9268   4.788   3.095   3.961 -0.1094  0.1036  0.0234
 5218W        W 9269   5.113   1.299  11.404 -0.2576  0.1389  0.2757
 5219W        W 9270   7.950   2.649   0.747  0.0597  0.0900  0.3987
 5220W        W 9271   3.849   3.900  10.315 -0.0031 -0.0330 -0.0179
 5221W        W 9272   2.224   0.739   1.819  0.1375 -0.1074  0.0336
 5222W        W 9273   3.148   2.162  12.419  0.0931  0.0929  0.2518
 5223W        W 9274   3.569   1.366   1.003 -0.0209  0.3134  0.0989
 5224W        W 9275   5.293   0.988   2.609  0.1393  0.0070  0.3134
 5225W        W 9276   6.593   6.348  10.567  0.0063 -0.1342 -0.0806
 5226W        W 9277   6.932   4.075  10.027  0.4425  0.0533 -0.2948
 5227W        W 9278   0.943   2.390   1.044  0.0288 -0.3147  0.1032
 5228W        W 9279   0.829   2.842   9.860  0.1115 -0.0804  0.1298
 5229W        W 9280   3.469   7.511  11.222  0.0377  0.0740 -0.2858
 5230W        W 9281   1.059   5.928   2.468 -0.2189  0.1066 -0.1623
 5231W        W 9282   5.744   3.836  11.476 -0.3260  0.1161 -0.2023
 5232W        W 9283   7.937   1.562   0.819  0.2321  0.1488  0.2594
 5233W        W 9284   3.897   7.802  12.639  0.0674  0.2602 -0.0388
 5234W        W 9285   1.338   3.380  11.236 -0.1261 -0.1320 -0.0399
 5235W        W 9286   7.360   2.273   3.086 -0.0884 -0.0760 -0.2115
 5236W        W 9287   3.050   4.683   3.214  0.2711 -0.1967 -0.4434
 5237W        W 9288   5.097   7.798   0.821 -0.0320  0.1738 -0.2353
 5238W        W 9289   8.799   7.804   0.738 -0.1666 -0.1406 -0.0468
 5239W        W 9290   5.519   9.233   1.260  0.1262 -0.2148  0.2265
 5240W        W 9291   2.765   5.388  10.273  0.2094  0.0718 -0.0854
 5241W        W 9292   7.619   1.869   8.966  0.1245 -0.1398 -0.0251
 5242W        W 9293   6.744   7.201   3.110  0.3280  0.1392  0.2560
 5243W        W 9294   6.561   5.893   1.162  0.1052 -0.3297  0.1076
 5244W        W 9295   0.667   9.893  13.521  0.0024  0.1119 -0.1276
 5245W        W 9296   4.971   9.574  11.200 -0.2020  0.1641  0.0373
 5246W        W 9297   0.679   5.161  13.408  0.5092 -0.2317  0.0282
 5247W        W 9298   5.902   8.549  11.726  0.1749  0.1935 -0.1874
 5248W        W 9299   2.022   5.081   1.690  0.0594  0.0995 -0.0056
 5249W        W 9300   9.309   4.694   3.173 -0.0347  0.1361 -0.1358
 5250W        W 9301   5.291   4.789   9.648  0.0943 -0.1276  0.2778
 5251W        W 9302   2.026   4.628  10.248  0.2512 -0.1406  0.0341
 5252W        W 9303   1.884   6.766  12.397  0.0719  0.2603  0.0788
 5253W        W 9304   7.552   3.130   2.320 -0.2494 -0.1255 -0.2239
 5254W        W 9305   7.380   6.037   3.832  0.2251 -0.2554  0.1706
 5255W        W 9306   0.469   7.123  13.623  0.0527  0.0543 -0.1583
 5256W        W 9307   7.798   3.458  12.026 -0.0986 -0.0022 -0.0082
 5257W        W 9308   9.282   2.863   0.892  0.2388 -0.1325 -0.2105
 5258W        W 9309   9.500   9.161  11.909  0.4528 -0.0397  0.2975
 5259W        W 9310   3.207   9.036  10.947 -0.3622 -0.1565  0.1009
 5260W        W 9311   7.825   6.754   1.837 -0.2142 -0.2319 -0.1125
 5261W        W 9312   3.979   1.686   0.762 -0.0034  0.0876 -0.2323
 5262W        W 9313   3.692   7.834   0.595 -0.0248 -0.1898  0.1706
 5263W        W 9314   3.521   6.525   0.096  0.0936 -0.1023  0.0409
 5264W        W 9315   8.416   7.051  10.491 -0.2280 -0.0930  0.1480
 5265W        W 9316   4.055   7.281  11.686  0.0839  0.0516  0.0139
 5266W        W 9317   2.970   3.584   2.410 -0.1552 -0.0198  0.0839
 5267W        W 9318   0.259   3.952   2.158 -0.1149  0.0181 -0.1110
 5268W        W 9319   1.850   3.576   4.299  0.1465  0.1778  0.0092
 5269W        W 9320   4.982   1.757   9.992  0.3848 -0.0087  0.3904
 5270W        W 9321   3.190   7.413  13.734  0.1893  0.0965 -0.0345
 5271W        W 9322   0.502   3.853   8.631  0.1808 -0.2054 -0.0260
 5272W        W 9323   7.988   1.843   9.733  0.1297  0.2761 -0.0711
 5273W        W 9324   5.857   4.311  13.747  0.0997 -0.2182  0.0538
 5274W        W 9325   3.490   8.645  12.444  0.1170  0.2613 -0.1794
 5275W        W 9326   2.091   3.376   3.273 -0.3913  0.0976  0.0110
 5276W        W 9327   1.091   2.600   2.832  0.1523 -0.0984 -0.2125
 5277W        W 9328   1.839   8.038   2.685  0.0804  0.1822 -0.3555
 5278W        W 9329   5.025   6.928  12.557 -0.1075 -0.0435 -0.0391
 5279W        W 9330   0.354   3.081   2.495 -0.0607 -0.4968 -0.0946
 5280W        W 9331   1.277   3.570  10.793 -0.1952 -0.1208  0.1712
 5281W        W 9332   6.199   6.952   0.369 -0.0733 -0.1452  0.0430
 5282W        W 9333   1.255   3.715  12.967  0.2236 -0.1713 -0.2715
 5283W        W 9334   0.316   8.000  12.970 -0.0522  0.1547 -0.1750
 5284W        W 9335   6.153   0.010   2.188 -0.1681 -0.1068  0.0461
 5285W        W 9336   0.873   9.882   9.593 -0.0394  0.0633  0.1214
 5286W        W 9337   0.358   0.257   5.071 -0.2391  0.2674 -0.1406
 5287W        W 9338   9.133   3.214  13.191  0.0880  0.1034  0.1082
 5288W        W 9339   9.607   9.260   2.833 -0.3140  0.0036 -0.3140
 5289W        W 9340   9.296   2.124   3.499  0.1346 -0.1737 -0.0202
 5290W        W 9341   8.108  10.046   3.840  0.2050  0.1318 -0.2896
 5291W        W 9342   3.695   3.689  10.748 -0.1144  0.2971 -0.2476
 5292W        W 9343   1.685   9.116  10.839 -0.0618  0.2855 -0.4123
 5293W        W 9344   3.385   8.122   2.865 -0.1097  0.1448 -0.2663
 5294W        W 9345   4.966   8.928   4.209 -0.1481 -0.1551  0.0470
 5295W        W 9346   3.140   7.877  11.968  0.3004  0.0330 -0.0168
 5296W        W 9347   0.948   5.737  10.363  0.1751  0.1412  0.0014
 5297W        W 9348   3.120   5.665   2.327 -0.0321 -0.2183  0.3582
 5298W        W 9349   9.351   0.203   4.381 -0.1661 -0.1546 -0.1095
 5299W        W 9350   0.606   2.451   3.137 -0.0241 -0.0838  0.0800
 5300W        W 9351   6.273   2.635  10.598 -0.3044  0.2021  0.1820
 5301W        W 9352   2.712   4.120  10.960  0.2650 -0.4365  0.0242
 5302W        W 9353   4.329   1.989  12.905  0.1406  0.0396  0.0040
 5303W        W 9354   9.421   3.170   9.919  0.1691  0.4173 -0.3152
 5304W        W 9355   3.034   9.676   2.846 -0.0443 -0.1354  0.3047
 5305W        W 9356   6.188   8.018  12.332 -0.0869  0.0382  0.0045
 5306W        W 9357   8.315   8.000   2.819  0.4101  0.2533  0.1883
 5307W        W 9358   1.221   6.614   1.260 -0.0022  0.2035 -0.0215
 5308W        W 9359   5.666   8.115  11.715  0.1077  0.3227  0.1639
 5309W        W 9360   2.834   2.655  12.572 -0.4621  0.1356 -0.0519
 5310W        W 9361   4.445   9.376  10.423  0.2243 -0.2347  0.2498
 5311W        W 9362   1.554   2.960  10.906  0.0487  0.1518  0.3173
 5312W        W 9363   4.693   9.027   4.686  0.1989  0.1606 -0.1632
 5313W        W 9364   4.153   6.809  12.847 -0.1124  0.1902 -0.4448
 5314W        W 9365   4.599   0.857  13.605 -0.0274  0.0276  0.1400
 5315W        W 9366   6.611   2.380  12.673  0.1451 -0.1988 -0.1061
 5316W        W 9367   3.615   6.496  13.555 -0.1010  0.3453  0.0914
 5317W        W 9368   1.353   9.856  12.723  0.0714  0.0444 -0.0503
 5318W        W 9369   6.733   3.117  13.734 -0.1645 -0.1375  0.3691
 5319W        W 9370   5.565   0.444   9.800  0.2222 -0.1826  0.0167
 5320W        W 9371   2.043   5.915   4.851  0.1183  0.0035 -0.1168
 5321W        W 9372   1.564   6.043  12.638 -0.4044  0.1870  0.0066
 5322W        W 9373   9.195   0.861  13.177  0.1442  0.0398 -0.0948
 5323W        W 9374   7.254   4.290   1.830  0.0127 -0.2122 -0.2987
 5324W        W 9375   2.613   2.197   3.868 -0.0563  0.0788  0.2688
 5325W        W 9376   5.368   8.964  10.559 -0.1650 -0.0898 -0.0257
 5326W        W 9377   2.593   4.752  11.655  0.1657  0.2310 -0.3299
 5327W        W 9378   4.779   1.095   9.738  0.1040  0.0690  0.1363
 5328W        W 9379   1.447   6.908  12.109  0.0604 -0.1573  0.0776
 5329W        W 9380   2.248   1.409   4.989 -0.0265 -0.0949  0.1266
 5330W        W 9381   5.219   2.389   4.888  0.0266  0.0179 -0.0381
 5331W        W 9382   8.953   5.815   1.504 -0.0256  0.0455  0.2427
 5332W        W 9383   1.390   4.556   1.277  0.1694 -0.0616  0.0171
 5333W        W 9384   4.844   1.059  12.186  0.0555 -0.4205 -0.2540
 5334W        W 9385   2.614   5.569   0.164  0.0090  0.2343  0.1379
 5335W        W 9386   0.687   6.426   3.841  0.1585 -0.2360 -0.0648
 5336W        W 9387   0.976   2.014   9.411 -0.0939  0.0242  0.0174
 5337W        W 9388   0.694   9.679   3.293  0.2111 -0.1492 -0.4325
 5338W        W 9389   3.247   0.104  11.740 -0.1283  0.2060 -0.0136
 5339W        W 9390   2.940   1.904  11.297 -0.0186  0.1815  0.2003
 5340W        W 9391   8.903  10.148   4.396 -0.1377  0.3856  0.1375
 5341W        W 9392   8.439   2.883   3.248  0.3731 -0.1087  0.2797
 5342W        W 9393   5.522   2.443  13.760 -0.0549  0.1419 -0.0538
 5343W        W 9394   0.124   6.398   3.560 -0.0458 -0.0357 -0.2876
 5344W        W 9395   1.619   0.888   2.188  0.1122  0.2127 -0.3829
 5345W        W 9396   6.215   3.959   2.831 -0.0298  0.0194 -0.0238
 5346W        W 9397   2.277   7.757   4.467  0.0634 -0.0057 -0.0021
 5347W        W 9398   4.194   4.881   0.479  0.0830 -0.2144  0.5977
 5348W        W 9399   3.063   9.232   9.351  0.0873 -0.0044  0.1517
 5349W        W 9400   8.503   6.163   3.297  0.2271 -0.0603  0.1816
 5350W        W 9401   2.053   7.086   1.073 -0.1194  0.1290 -0.0621
 5351W        W 9402   2.188   4.916   0.673 -0.2181 -0.0047  0.1351
 5352W        W 9403   8.760  10.167   9.107 -0.1993 -0.3594 -0.1357
 5353W        W 9404   1.213   7.944  12.301 -0.1647 -0.0757 -0.0656
 5354W        W 9405   8.004   9.559  10.796  0.2798 -0.3788  0.1841
 5355W        W 9406   8.660   3.890  13.085 -0.1428 -0.0528 -0.0128
 5356W        W 9407   3.332   4.190  13.367  0.1239  0.2282 -0.0041
 5357W        W 9408   3.182   0.236  13.141 -0.1211  0.5598  0.1345
 5358W        W 9409   4.334   7.706   1.460 -0.0644 -0.0540  0.1746
 5359W        W 9410   4.909   0.148  12.056 -0.1968  0.0078 -0.2556
 5360W        W 9411   1.901   9.986  13.729 -0.2380  0.0526 -0.0687
 5361W        W 9412   0.923   4.282   2.764 -0.2062  0.0430  0.0378
 5362W        W 9413   9.500   8.599   4.075  0.0385 -0.1938 -0.0798
 5363W        W 9414   0.482   2.658   2.026 -0.0563  0.2195 -0.2553
 5364W        W 9415   3.706   4.062   5.099  0.2132 -0.2289 -0.1178
 5365W        W 9416   7.705   4.901   1.303  0.0715  0.0926 -0.4515
 5366W        W 9417   8.888   8.492   1.846  0.0007 -0.1725  0.2505
 5367W        W 9418   9.134   8.623   3.715 -0.1017 -0.1684  0.0498
 5368W        W 9419   3.830   7.819  11.447 -0.0621  0.0722  0.1915
 5369W        W 9420  10.042   9.326   4.531  0.0534 -0.1812 -0.3181
 5370W        W 9421   4.356   5.522  11.627 -0.0804 -0.1980 -0.0284
 5371W        W 9422   8.661   0.068   1.155 -0.0483  0.0924  0.0969
 5372W        W 9423   9.317   3.725   9.832 -0.5814 -0.1988 -0.0948
 5373W        W 9424   1.606   2.206   4.063 -0.2306  0.2002  0.2146
 5374W        W 9425   5.119   0.628  12.066  0.1084 -0.1474 -0.2088
 5375W        W 9426   9.775   8.038   0.971 -0.1964  0.2297 -0.2520
 5376W        W 9427   7.717   9.757  12.342  0.0551 -0.0271 -0.3456
 5377W        W 9428   3.916   1.888   3.399  0.0702  0.1316 -0.1099
 5378W        W 9429   1.462   8.805  12.319  0.0569 -0.0998  0.1019
 5379W        W 9430   9.698   1.180   4.448 -0.3266  0.0892 -0.0442
 5380W        W 9431   6.217   2.440  10.122  0.0230 -0.1152 -0.1741
 5381W        W 9432   5.448   9.928   3.530  0.0568  0.1195 -0.0061
 5382W        W 9433   3.461   3.754   8.908  0.3410 -0.0252 -0.1728
 5383W        W 9434   0.620   2.911   9.408 -0.2193 -0.0223 -0.1243
 5384W        W 9435   8.945   9.044   0.513 -0.1241  0.0224  0.1861
 5385W        W 9436   9.834   1.314   1.594 -0.3743  0.1978 -0.2190
 5386W        W 9437   2.700   8.312  10.313  0.0576  0.3523 -0.0023
 5387W        W 9438   6.286   5.721  11.983  0.5087  0.1732  0.0651
 5388W        W 9439   2.448   0.369  12.974 -0.0860 -0.0540  0.3545
 5389W        W 9440   3.816   8.210   0.932 -0.0182  0.0016 -0.2262
 5390W        W 9441   4.713   1.391   2.419 -0.1454 -0.1026 -0.2081
 5391W        W 9442   1.309   5.767   2.063 -0.5477 -0.0866  0.1976
 5392W        W 9443   1.877   8.786   1.509  0.0533  0.2613 -0.0127
 5393W        W 9444   8.100   5.786  12.536 -0.6393  0.2538  0.0055
 5394W        W 9445   5.134   7.528   3.454  0.2520 -0.1271 -0.0396
 5395W        W 9446   6.978  10.113   9.371  0.2515 -0.3081  0.1045
 5396W        W 9447   4.105   0.734   3.384  0.1114  0.0815 -0.0683
 5397W        W 9448   7.338   0.434   4.262 -0.2483  0.2622  0.0134
 5398W        W 9449   3.994   5.364  12.863  0.0630  0.1364 -0.0187
 5399W        W 9450   1.471   9.559  13.124 -0.4995  0.1598 -0.2537
 5400W        W 9451   1.475   0.661  10.516 -0.2166  0.0984 -0.0367
 5401W        W 9452   1.218   3.368   5.663 -0.0724  0.1109 -0.2168
 5402W        W 9453   6.377   6.879  12.904  0.1782 -0.4345 -0.3096
 5403W        W 9454   9.630   7.732   3.755 -0.0590 -0.4209  0.0384
 5404W        W 9455   5.484   7.273  13.447  0.1658  0.0114  0.0392
 5405W        W 9456   8.690   2.836   1.525  0.0295 -0.0600 -0.2573
 5406W        W 9457   5.384   3.682   4.324 -0.3387  0.0424  0.2855
 5407W        W 9458   5.921   2.811   1.717 -0.4373 -0.2021 -0.1781
 5408W        W 9459   0.545   2.295  11.468  0.1838 -0.2713  0.1345
 5409W        W 9460   0.705   3.255   5.454  0.0792 -0.0430  0.1432
 5410W        W 9461   2.483   6.531  11.780  0.2169  0.1410 -0.1284
 5411W        W 9462   5.055   6.350  11.618 -0.0637  0.2275 -0.2257
 5412W        W 9463   3.523   4.354   0.559 -0.1930 -0.1137 -0.2600
 5413W        W 9464   0.854   6.395   1.017 -0.2040  0.0309  0.3473
 5414W        W 9465   0.845   1.776  12.723  0.0929 -0.0025 -0.1546
 5415W        W 9466   0.425   3.472  10.311 -0.0830 -0.0219 -0.2092
 5416W        W 9467   5.780   6.133   4.955 -0.2066  0.1206 -0.1009
 5417W        W 9468   6.176   3.106   1.307 -0.3374  0.0304  0.0117
 5418W        W 9469   3.918   0.173   4.847 -0.1353 -0.3219  0.1622
 5419W        W 9470   8.430   2.265   0.995  0.1121 -0.1100  0.2863
 5420W        W 9471   0.603   3.354   0.962  0.2588 -0.1016  0.0652
 5421W        W 9472   1.546   5.031  11.829  0.0632  0.1104  0.0153
 5422W        W 9473   5.250   1.746  11.375 -0.0372  0.1205  0.0068
 5423W        W 9474   3.387   5.795   1.692  0.0340 -0.0266  0.3743
 5424W        W 9475   4.525   4.487  13.570  0.0502 -0.2487 -0.0327
 5425W        W 9476   0.084   1.292  12.568  0.3396 -0.2452  0.1305
 5426W        W 9477   4.427   0.422   0.791 -0.1697  0.0655  0.0453
 5427W        W 9478   3.913   9.780   4.471  0.0775 -0.0184 -0.0832
 5428W        W 9479   3.915   0.332  13.416 -0.1991 -0.1867 -0.1309
 5429W        W 9480   8.493   0.776   2.442 -0.1297  0.1070 -0.1764
 5430W        W 9481   1.848   7.248   3.696 -0.1172  0.1340 -0.1103
 5431W        W 9482   8.638   7.402  12.783  0.0083 -0.1961  0.4576
 5432W        W 9483   5.989   7.374   0.569  0.1276  0.0934 -0.0648
 5433W        W 9484   6.609   7.217  11.347 -0.2129  0.0389 -0.5894
 5434W        W 9485   3.742   3.212   0.640  0.0101  0.1691  0.2632
 5435W        W 9486   7.063   7.924  13.091  0.1805 -0.1714  0.0329
 5436W        W 9487   9.149   6.569   0.931  0.0684  0.3863  0.2563
 5437W        W 9488   6.015   4.834   9.473  0.2360  0.2583  0.0097
 5438W        W 9489   9.016   6.017  12.378  0.1515  0.0140  0.2624
 5439W        W 9490   9.868   5.771  12.164 -0.1432 -0.0607 -0.2234
 5440W        W 9491   2.669   9.014   2.092  0.4196  0.0449 -0.4422
 5441W        W 9492   1.345   7.705   4.986  0.2036 -0.1061 -0.2379
 5442W        W 9493   4.027   3.492   1.530  0.4004 -0.0841 -0.2080
 5443W        W 9494   6.315  10.038   0.723 -0.3499  0.1123 -0.0091
 5444W        W 9495   1.113  10.049   1.218  0.0579 -0.1680  0.0965
 5445W        W 9496   4.920  10.065   3.258  0.0024 -0.0287 -0.2250
 5446W        W 9497   5.353   4.484  10.984  0.0641 -0.0383 -0.1636
 5447W        W 9498   1.366   4.006   2.455  0.0732 -0.0813  0.0457
 5448W        W 9499   1.166   4.871   0.894  0.2488  0.2342 -0.0154
 5449W        W 9500   1.122   6.277  12.729  0.1423 -0.0787  0.1624
 5450W        W 9501   4.396   1.837   9.188 -0.2214  0.0128  0.2952
 5451W        W 9502   0.389   4.351   8.791 -0.1652  0.1862  0.0208
 5452W        W 9503   1.276   9.138  11.750 -0.0885  0.0654 -0.1264
 5453W        W 9504   7.405   9.965  11.946  0.2768 -0.3851  0.2073
 5454W        W 9505   2.213   8.112   1.765 -0.1671  0.0690 -0.0496
 5455W        W 9506   8.478   7.151  10.985  0.1469 -0.0303 -0.1768
 5456W        W 9507   1.421   5.019   2.764  0.2664 -0.0661  0.0181
 5457W        W 9508   7.210   9.020  11.734  0.1860  0.0354  0.0466
 5458W        W 9509   1.829   1.240  13.144 -0.0185  0.0968 -0.1276
 5459W        W 9510   1.271   7.685  13.176 -0.2159 -0.3170 -0.0154
 5460W        W 9511   4.611   5.794   2.718  0.0977 -0.1791  0.0039
 5461W        W 9512   5.699   6.408  13.659  0.0362 -0.0377  0.0815
 5462W        W 9513   6.881   2.134   6.075 -0.1729 -0.0561 -0.0910
 5463W        W 9514   1.296   3.179  12.830 -0.1473  0.1782  0.1879
 5464W        W 9515   2.836   0.638  11.727 -0.3270 -0.1195  0.1137
 5465W        W 9516   8.094   1.145   8.886 -0.2222  0.1069  0.0868
 5466W        W 9517   6.651   7.702   1.854  0.1967 -0.0107 -0.4851
 5467W        W 9518   4.458   5.233  13.001 -0.0865  0.1035  0.0946
 5468W        W 9519   2.132   8.336  12.321 -0.0764 -0.5180  0.1495
 5469W        W 9520   5.946   7.602  13.455  0.1135  0.2785  0.0917
 5470W        W 9521   0.468   1.030  13.815 -0.2070  0.5045 -0.1067
 5471W        W 9522   9.674   8.095  12.216 -0.3157  0.1779  0.0429
 5472W        W 9523  10.166   9.590   2.009  0.1991  0.2161 -0.0761
 5473W        W 9524   5.479   9.441  11.211 -0.0874  0.1570  0.0135
 5474W        W 9525   1.586   2.099  10.829 -0.0825 -0.0572 -0.1033
 5475W        W 9526   3.068   9.250   4.409 -0.0644 -0.2753 -0.3006
 5476W        W 9527   5.761   7.839   1.957 -0.1538  0.0406 -0.1079
 5477W        W 9528   2.738   7.599   4.001  0.0000 -0.2872 -0.1187
 5478W        W 9529   0.889   5.994  13.792  0.0371 -0.3177 -0.1259
 5479W        W 9530   2.600   0.039   0.353  0.3004 -0.0661  0.0541
 5480W        W 9531   5.721   1.257  13.346 -0.0653  0.0043  0.0792
 5481W        W 9532   4.566   4.024   3.128  0.2231 -0.2977 -0.2046
 5482W        W 9533   1.358   4.456   0.735 -0.2153  0.1826  0.0841
 5483W        W 9534   1.858   4.907   2.511  0.0543 -0.0095 -0.0165
 5484W        W 9535   4.690   4.127   0.336 -0.1937  0.3106 -0.1816
 5485W        W 9536   1.246   9.290  12.299 -0.2046  0.0617 -0.3120
 5486W        W 9537   7.431   3.062   3.164  0.1638  0.0407  0.0191
 5487W        W 9538   4.648   4.376   4.117 -0.1031  0.2391 -0.0743
 5488W        W 9539   9.768   4.575  10.694 -0.0406 -0.1921  0.2371
 5489W        W 9540   5.863   5.387  11.965  0.1985 -0.2641 -0.0531
 5490W        W 9541   6.923   7.878  10.934  0.1283  0.1260 -0.4171
 5491W        W 9542   6.596   6.368   1.178  0.1707  0.2398  0.4014
 5492W        W 9543   6.618   2.749   1.611  0.1314  0.1024  0.1106
 5493W        W 9544   2.484   2.181   0.251 -0.0464  0.0094 -0.1150
 5494W        W 9545   6.343   9.112  12.164  0.3741  0.3669  0.1909
 5495W        W 9546   3.795   4.425   9.097 -0.0810 -0.1759  0.0687
 5496W        W 9547   3.666   4.522  12.613  0.1909 -0.0315  0.0321
 5497W        W 9548   7.267   4.831  12.723  0.2019 -0.1179 -0.1494
 5498W        W 9549  10.165   0.505  12.690 -0.0143  0.0349  0.0471
 5499W        W 9550   5.576   9.124  13.263 -0.1661 -0.0852  0.0010
 5500W        W 9551   5.890   3.597   2.494 -0.1497  0.0191 -0.1301
 5501W        W 9552   1.033   2.801   3.311  0.0647 -0.3362 -0.1130
 5502W        W 9553   0.551   8.691  10.074 -0.1560 -0.4345  0.0965
 5503W        W 9554   2.390   9.755  12.953 -0.1163 -0.0353 -0.0723
 5504W        W 9555   9.458   5.769   0.716  0.3343  0.1280 -0.3346
 5505W        W 9556   5.215   2.749  13.608  0.0290 -0.1529  0.1688
 5506W        W 9557   0.477   3.482   2.807 -0.1699  0.0536  0.0589
 5507W        W 9558   4.107   7.629   9.301 -0.0829 -0.2624 -0.0917
 5508W        W 9559   7.622   5.274  11.953 -0.1296 -0.0546  0.0516
 5509W        W 9560   8.476   1.702   5.286  0.2093 -0.0233  0.5203
 5510W        W 9561   0.063   7.887   9.994  0.0047  0.0094  0.0157
 5511W        W 9562   3.779   5.156   0.318 -0.1559 -0.2358  0.3807
 5512W        W 9563   7.010   0.957   4.093 -0.2218 -0.1009 -0.0958
 5513W        W 9564   7.987   8.320   0.652 -0.0178 -0.1389  0.0213
 5514W        W 9565   3.326   4.233   1.089  0.0919 -0.1530 -0.1328
 5515W        W 9566   5.217   8.967  11.594  0.1229  0.3952  0.4571
 5516W        W 9567   7.766   7.309  11.768 -0.3315  0.2118  0.1224
 5517W        W 9568   4.194   3.375  12.581  0.1200 -0.1151 -0.0128
 5518W        W 9569   8.879   4.406  13.104 -0.3063  0.0773 -0.0906
 5519W        W 9570   2.187   4.999   1.179  0.2104 -0.1731 -0.1431
 5520W        W 9571   9.571   8.304   3.577  0.1421 -0.1270  0.2182
 5521W        W 9572   9.037   2.806   5.446 -0.3254 -0.1887  0.0813
 5522W        W 9573   2.264   9.582   1.696 -0.0899  0.1871  0.1919
 5523W        W 9574   1.439   3.753   0.191  0.3058 -0.0237  0.0371
 5524W        W 9575   0.253   9.776  13.845 -0.0967  0.0696 -0.1197
 5525W        W 9576   5.395   6.480  11.243  0.0425 -0.1362 -0.2137
 5526W        W 9577   9.806   5.394   2.462  0.0894  0.0438  0.0002
 5527W        W 9578   2.376   3.482   4.279  0.2078 -0.0706  0.0473
 5528W        W 9579   3.350   0.968  12.811  0.0580 -0.0465  0.0314
 5529W        W 9580   1.665   1.888  10.186  0.2356 -0.3482 -0.0836
 5530W        W 9581   9.106   3.997  10.176 -0.3880  0.0284 -0.3482
 5531W        W 9582   7.708   0.950  10.622 -0.0771 -0.0825 -0.0041
 5532W        W 9583   2.604   0.685   0.451 -0.0971  0.0727  0.0936
 5533W        W 9584   2.131   2.793  13.662  0.0654  0.0877 -0.1465
 5534W        W 9585   9.944   9.802   1.085 -0.0879 -0.1837  0.0755
 5535W        W 9586   5.244   3.533   0.206  0.0664 -0.0136  0.0405
 5536W        W 9587   5.402   2.779   4.614 -0.2106 -0.0832 -0.4073
 5537W        W 9588   8.958   0.132  12.796  0.0795  0.1537  0.0768
 5538W        W 9589   5.690   5.674  13.467  0.0343 -0.2584  0.1391
 5539W        W 9590   1.393   6.923   9.530  0.0926  0.2026 -0.1308
 5540W        W 9591   2.030   1.166   3.029  0.1580 -0.1513  0.0410
 5541W        W 9592   6.246   3.134   2.560 -0.1948  0.1292 -0.1447
 5542W        W 9593   9.927   7.420  13.452 -0.0419  0.5018  0.0439
 5543W        W 9594   2.886   6.269  13.451  0.1331  0.4085  0.2977
 5544W        W 9595   4.931   1.386  10.931 -0.4508 -0.1948  0.0048
 5545W        W 9596   0.044   5.565  12.404 -0.1146  0.2414  0.1323
 5546W        W 9597   0.977   6.615   2.948  0.0728 -0.1724  0.0574
 5547W        W 9598   3.532   5.279  11.221  0.0403  0.2335 -0.0636
 5548W        W 9599   2.052  10.122  12.991  0.3451 -0.1220  0.1856
 5549W        W 9600   9.924   2.156   3.430  0.0943 -0.0338 -0.0326
 5550W        W 9601   2.979   0.519   1.351 -0.0015  0.0965 -0.1156
 5551W        W 9602   4.067   4.958   8.918 -0.0774 -0.0294 -0.2128
 5552W        W 9603   4.998   2.018  11.703  0.1408  0.0739  0.0214
 5553W        W 9604   7.255   3.091   9.144 -0.2989 -0.3276  0.0032
 5554W        W 9605   2.203   8.346   3.868  0.0455  0.0007 -0.0614
 5555W        W 9606   9.663   5.229   0.920  0.3551  0.1812  0.2086
 5556W        W 9607   4.608   7.748   1.005 -0.0211  0.1925 -0.1604
 5557W        W 9608   5.993   0.581   2.774 -0.0533  0.0835 -0.0996
 5558W        W 9609   9.017   0.674   1.686  0.1553 -0.6038  0.1411
 5559W        W 9610   0.032   5.287  10.327 -0.0756  0.0086 -0.1296
 5560W        W 9611   2.231   7.359  12.117  0.0673 -0.2432  0.1196
 5561W        W 9612   1.769   6.643   0.494 -0.1576  0.1400  0.1159
 5562W        W 9613   7.155   1.357   1.847  0.1870 -0.2452  0.0480
 5563W        W 9614   4.856   5.188  12.367 -0.1261 -0.1535  0.1797
 5564W        W 9615   0.723   9.236  12.488  0.0215 -0.1970  0.1820
 5565W        W 9616   4.438   6.149  12.351  0.1214  0.1238  0.1368
 5566W        W 9617   5.809   9.644  13.010  0.2186 -0.1581 -0.1138
 5567W        W 9618   1.127   0.820   1.140 -0.1070 -0.4970 -0.2312
 5568W        W 9619   5.739   1.591  12.519 -0.1597  0.0353 -0.1198
 5569W        W 9620   2.583   0.672   8.982  0.2998 -0.2862  0.1976
 5570W        W 9621   7.774   8.421   2.608 -0.0556  0.3622 -0.0940
 5571W        W 9622   6.205   3.018   5.184  0.4275 -0.0713 -0.0166
 5572W        W 9623   9.305   4.280   2.256  0.0247 -0.1552  0.0738
 5573W        W 9624   8.406   6.452   1.624  0.2303  0.1262 -0.0569
 5574W        W 9625   0.858   7.260  11.767 -0.0461 -0.1787 -0.2222
 5575W        W 9626   6.150   9.044  11.621  0.3587  0.0264 -0.0850
 5576W        W 9627  10.119   0.776   0.879 -0.0387 -0.1333  0.1104
 5577W        W 9628   6.533   8.730   1.133  0.2638  0.2556 -0.0431
 5578W        W 9629   3.496   6.055  12.545 -0.0943 -0.0822 -0.0428
 5579W        W 9630   7.240   0.490  13.285 -0.0579  0.1274 -0.1055
 5580W        W 9631   0.310   5.195  11.017 -0.2072  0.0051  0.1298
 5581W        W 9632   0.675   9.051   2.066 -0.1036  0.0851 -0.1936
 5582W        W 9633   4.929   6.593   8.727 -0.0959  0.0927  0.0645
 5583W        W 9634   7.590   6.656  10.556 -0.1615  0.2936 -0.4684
 5584W        W 9635   8.357   0.411   0.170 -0.0938 -0.1271  0.1742
 5585W        W 9636   5.814   7.449  12.847  0.0435 -0.3689  0.1953
 5586W        W 9637   8.194   0.490   9.852 -0.1780 -0.3299 -0.1610
 5587W        W 9638   8.529   2.348  10.224  0.0521 -0.3498  0.1393
 5588W        W 9639   2.990   8.387   4.401 -0.0441 -0.0729 -0.0379
 5589W        W 9640   3.925   3.971   1.740 -0.3191  0.1709 -0.0262
 5590W        W 9641   2.084   5.552   4.482 -0.4187  0.2043 -0.0745
 5591W        W 9642   7.165   9.615  10.634  0.3573 -0.6330 -0.1091
 5592W        W 9643   3.280   2.918  11.338 -0.3436  0.0327 -0.0333
 5593W        W 9644   2.679   6.832   2.853  0.0369  0.2010  0.0302
 5594W        W 9645   6.067   9.772   2.511 -0.2984 -0.1390 -0.1497
 5595W        W 9646   2.416   4.989  10.245  0.3763 -0.2087 -0.2779
 5596W        W 9647   4.168   3.794   9.900 -0.0241  0.2290 -0.0919
 5597W        W 9648   6.128   5.348   0.230 -0.0473  0.1203  0.1383
 5598W        W 9649   5.699   7.516  11.011 -0.2776  0.1424  0.1723
 5599W        W 9650   6.763   2.542   2.131 -0.0092 -0.1350  0.1250
 5600W        W 9651   9.956   5.157  13.205 -0.2051  0.1487 -0.2039
 5601W        W 9652   4.527   5.837   3.321  0.2320  0.4036  0.0368
 5602W        W 9653   0.834   1.799   3.454  0.2721  0.0319 -0.1442
 5603W        W 9654   2.776   7.512   0.098 -0.3875 -0.0493  0.1512
 5604W        W 9655   1.322   1.803  12.869 -0.0408 -0.0653  0.0407
 5605W        W 9656   5.714   2.703   4.955  0.1510 -0.0622  0.1659
 5606W        W 9657   4.725   4.117   0.824 -0.0511 -0.0684  0.0840
 5607W        W 9658   9.465   4.989  11.468  0.0637 -0.1178  0.1641
 5608W        W 9659   5.733   2.568  10.888  0.1575 -0.1438  0.0016
 5609W        W 9660   0.041  10.121   5.505  0.1410  0.0328  0.0482
 5610W        W 9661   0.667   8.997  13.032  0.1773  0.1398  0.4495
 5611W        W 9662   7.914   8.831  13.021 -0.0461 -0.0581 -0.0035
 5612W        W 9663   5.375   1.744   0.491  0.0678  0.0119 -0.1432
 5613W        W 9664   4.459   8.357  11.869 -0.1623 -0.1586  0.2268
 5614W        W 9665   8.975   1.641   5.132  0.0193  0.1973  0.0577
 5615W        W 9666   4.717   2.597  11.161 -0.2001  0.0166  0.0958
 5616W        W 9667   0.346   3.545   1.394 -0.0147  0.1350  0.1641
 5617W        W 9668   1.698   4.624   4.408 -0.0840  0.2147 -0.2849
 5618W        W 9669   1.519   5.777   0.687  0.3665  0.0416  0.2026
 5619W        W 9670   3.594   0.472   2.467 -0.1500 -0.0991 -0.1739
 5620W        W 9671   0.075   4.072  12.078  0.0715 -0.0740 -0.2984
 5621W        W 9672   0.510   4.291  12.012  0.0460 -0.3054 -0.1208
 5622W        W 9673   3.959   7.830  10.572  0.1236 -0.2440  0.1187
 5623W        W 9674   0.992   2.779  12.658 -0.0548  0.0608  0.4580
 5624W        W 9675   5.111   1.925   4.080  0.0173 -0.1783 -0.0520
 5625W        W 9676   1.739   7.486   4.162  0.1263  0.1152 -0.3303
 5626W        W 9677   2.444   8.838  12.542 -0.1192  0.3003 -0.1910
 5627W        W 9678   9.018   2.723   0.513 -0.1597 -0.0395 -0.1212
 5628W        W 9679   8.948   8.538   0.380  0.1484  0.0745 -0.1438
 5629W        W 9680   6.030   2.444   0.003 -0.2165  0.0298  0.1247
 5630W        W 9681   3.398   1.773   5.295 -0.0391  0.1723  0.2443
 5631W        W 9682   0.825   9.959   0.416 -0.3481 -0.1029 -0.1293
 5632W        W 9683   4.014   9.576   3.497 -0.1571 -0.0255 -0.1206
 5633W        W 9684   5.747   0.429  12.599 -0.0962 -0.2116  0.5242
 5634W        W 9685   7.277   7.755   2.493  0.0419 -0.2230  0.0911
 5635W        W 9686   9.927   5.847   2.266  0.1060  0.1772 -0.1474
 5636W        W 9687   8.911   9.517  13.691 -0.1025  0.0550  0.1199
 5637W        W 9688  10.171   9.076   3.544  0.1435 -0.3222 -0.5849
 5638W        W 9689   4.955   3.885   3.548  0.2068 -0.2701 -0.1850
 5639W        W 9690   2.744   8.075   0.728 -0.0277  0.0428  0.0505
 5640W        W 9691   7.391   1.214   2.376  0.1566 -0.0234  0.0105
 5641W        W 9692   8.443   8.879  13.576  0.0937 -0.2482 -0.2111
 5642W        W 9693   9.754   2.628   0.877 -0.1795  0.0202  0.0107
 5643W        W 9694   3.692   1.196   4.033 -0.0601  0.2328 -0.1911
 5644W        W 9695   4.630   4.671   3.739  0.1822 -0.3823  0.0492
 5645W        W 9696   3.582   0.958  10.558  0.1344  0.1554 -0.1304
 5646W        W 9697   6.271   6.238   2.073 -0.0335  0.4279  0.4017
 5647W        W 9698   0.594   9.754   2.700  0.0193 -0.2515 -0.0320
 5648W        W 9699   3.853   1.918   0.249  0.0347 -0.0058  0.1661
 5649W        W 9700   1.593   4.952  10.179  0.0294 -0.1319  0.0927
 5650W        W 9701   2.752   0.011  13.183  0.3459 -0.2331 -0.0098
 5651W        W 9702   3.134  10.169   2.576  0.1047  0.1718  0.0997
 5652W        W 9703   3.529   3.212  13.012  0.0168  0.0805 -0.0669
 5653W        W 9704   5.483   9.508  11.927  0.0933 -0.0154  0.2900
 5654W        W 9705   3.576   7.234   0.576 -0.3525  0.2865  0.1058
 5655W        W 9706   1.133   2.321   2.314 -0.2101  0.1373  0.0077
 5656W        W 9707   5.965   7.001   9.548  0.0509  0.1260 -0.2806
 5657W        W 9708   1.257   9.647   9.356  0.2288  0.0414 -0.0565
 5658W        W 9709   5.540   3.175   5.824 -0.1992 -0.0799 -0.0671
 5659W        W 9710   3.695   7.102  12.039  0.1648  0.4075 -0.2773
 5660W        W 9711   0.975   2.974   4.219 -0.1037 -0.3296 -0.2937
 5661W        W 9712   2.385   4.013   0.132 -0.2291  0.3239  0.0481
 5662W        W 9713   3.264   2.896   5.125 -0.3015  0.1766  0.3125
 5663W        W 9714   6.534   7.687  12.152 -0.1703 -0.0814 -0.1410
 5664W        W 9715   7.304   8.283  13.536 -0.1168  0.1233  0.3625
 5665W        W 9716   2.814   2.828   9.544  0.0258 -0.1662 -0.0872
 5666W        W 9717   7.627   3.594  10.587  0.0871 -0.2310  0.2771
 5667W        W 9718   6.156   1.434   2.857 -0.0152  0.1492  0.3373
 5668W        W 9719   0.005   2.046   1.625  0.1962 -0.4109  0.1119
 5669W        W 9720   7.995   6.176   1.691 -0.0618 -0.0529  0.1124
 5670W        W 9721   5.239   0.019   3.976 -0.1957  0.0329  0.0280
 5671W        W 9722   3.813   0.209   9.431 -0.3144  0.2566 -0.2584
 5672W        W 9723   5.851   6.798  10.099  0.1117 -0.4332 -0.0811
 5673W        W 9724   5.800   6.139  12.730 -0.1264 -0.1614 -0.1686
 5674W        W 9725   7.410   5.592  11.152 -0.1754  0.1395 -0.0477
 5675W        W 9726   0.317   0.266   5.846 -0.2538 -0.0457  0.0372
 5676W        W 9727   1.763   9.560  10.524  0.0043 -0.1118  0.1764
 5677W        W 9728   9.758   6.209  10.616 -0.2370 -0.0272  0.1059
 5678W        W 9729   7.250   2.087  11.450 -0.0534 -0.1950  0.4456
 5679W        W 9730   1.690   3.298   3.712 -0.1405 -0.2913  0.2921
 5680W        W 9731   1.373   9.581   4.723 -0.2549 -0.1398  0.1550
 5681W        W 9732   1.844   5.058   8.556  0.1132  0.0846 -0.0680
 5682W        W 9733   1.032   2.671   1.939  0.1318 -0.2624  0.0678
 5683W        W 9734   9.619   2.263   2.998  0.0249 -0.1718 -0.1148
 5684W        W 9735   9.903   9.042   4.121  0.3548 -0.2121  0.0175
 5685W        W 9736  10.053   0.028   5.096 -0.0730  0.0919 -0.1829
 5686W        W 9737   8.821   0.742  10.633 -0.0452  0.2815  0.1622
 5687W        W 9738   3.221   3.246   4.232 -0.6616  0.0045 -0.0101
 5688W        W 9739   3.159   7.663   2.744 -0.2183 -0.5316 -0.1349
 5689W        W 9740   2.288   4.306   8.542  0.1131  0.1123 -0.4798
 5690W        W 9741   7.031   3.181   3.424 -0.2119 -0.0889 -0.1476
 5691W        W 9742   1.284   0.416   9.875  0.2596 -0.0528  0.0572
 5692W        W 9743   2.030   9.647   3.104  0.3660 -0.3573 -0.1666
 5693W        W 9744   7.762   0.245   0.789 -0.0113  0.2053  0.2263
 5694W        W 9745   3.636  10.175   2.414  0.2519  0.1082  0.1333
 5695W        W 9746   6.422   3.149  11.681 -0.1035 -0.0711 -0.0232
 5696W        W 9747   9.531   3.581  12.390  0.2576  0.0607 -0.2069
 5697W        W 9748   0.743   0.667  12.827 -0.2146  0.2211 -0.0348
 5698W        W 9749   7.245   5.115   1.364 -0.0832  0.1064  0.2482
 5699W        W 9750   6.006   2.284  11.348  0.2403  0.1675  0.2895
 5700W        W 9751   5.147   2.523   1.494  0.0685  0.1123  0.0188
 5701W        W 9752   7.798   1.273  13.013  0.0213  0.1530 -0.2038
 5702W        W 9753   6.289   6.951  11.025  0.1158 -0.0805 -0.1777
 5703W        W 9754   5.216   4.896   0.220 -0.1722  0.0929 -0.2060
 5704W        W 9755   0.095  10.043  12.930 -0.0688 -0.4482  0.1415
 5705W        W 9756   2.013   5.483   0.008  0.3642 -0.1405 -0.2256
 5706W        W 9757   6.361   2.564  13.111 -0.2515 -0.1058 -0.0049
 5707W        W 9758   6.070   6.388   9.724 -0.3369 -0.1197  0.2039
 5708W        W 9759   4.411   6.373   9.455  0.5114 -0.0245 -0.1080
 5709W        W 9760   0.834   4.349  11.134 -0.0119 -0.0963 -0.1103
 5710W        W 9761   4.319   0.349  10.692  0.0117 -0.0946 -0.0107
 5711W        W 9762   6.838   0.442  11.345 -0.0647 -0.2415 -0.1596
 5712W        W 9763   9.088   1.643   3.435  0.0772  0.1563 -0.0574
 5713W        W 9764   6.922   8.978   9.980 -0.2726 -0.1615 -0.0962
 5714W        W 9765   0.870   7.208   2.086 -0.0480  0.0111 -0.1031
 5715W        W 9766   4.555   6.919  11.700 -0.2215 -0.1478  0.4447
 5716W        W 9767   8.682   5.665  11.702 -0.1117  0.0137  0.2535
 5717W        W 9768   7.062   3.903   9.583 -0.2713 -0.1042  0.1462
 5718W        W 9769   2.824   6.385   1.481  0.4950  0.5087 -0.1096
 5719W        W 9770   3.683   7.513   8.966  0.0760  0.0573 -0.1949
 5720W        W 9771   6.098   8.738   0.811  0.1910  0.1122 -0.2001
 5721W        W 9772   9.366   2.473  13.932 -0.0691 -0.0657  0.2218
 5722W        W 9773   8.152   8.175   9.798  0.0834 -0.0384  0.0687
 5723W        W 9774   2.513   9.237  10.164  0.1551  0.3570 -0.2938
 5724W        W 9775   7.338   6.420  11.528  0.2600 -0.0864  0.1383
 5725W        W 9776   4.062   7.485  11.054  0.0141 -0.2071  0.0591
 5726W        W 9777   4.132   2.955   0.374 -0.0958 -0.1631  0.1821
 5727W        W 9778   4.837   5.343   1.698  0.1608  0.0658  0.0742
 5728W        W 9779   4.908   7.371   1.124  0.0863  0.2295 -0.0793
 5729W        W 9780   8.388   8.392  10.684  0.1736 -0.0624  0.0738
 5730W        W 9781   9.397   7.420   2.024 -0.3454 -0.2137  0.1676
 5731W        W 9782   3.098   9.139   0.743  0.2993  0.1580 -0.1282
 5732W        W 9783   4.160   7.949  11.814  0.0773 -0.0995 -0.0603
 5733W        W 9784   3.258   3.940   4.867  0.0233 -0.0921  0.1503
 5734W        W 9785   6.422   0.058   1.697  0.1200  0.1934  0.1767
 5735W        W 9786   3.821   4.493   1.839 -0.1013 -0.0145  0.1161
 5736W        W 9787   8.141   3.060   4.329  0.2339  0.0860 -0.2152
 5737W        W 9788   6.720   8.332   0.928 -0.0381  0.2683  0.0685
 5738W        W 9789   5.095   5.264  13.898  0.1681  0.0999  0.1925
 5739W        W 9790   4.838   4.362   8.858 -0.2826  0.1348  0.1951
 5740W        W 9791   0.024   0.617  13.631 -0.0171 -0.1961 -0.0956
 5741W        W 9792   7.421   1.379   5.324 -0.0209  0.0158 -0.2903
 5742W        W 9793   6.688   1.435  13.494 -0.2056 -0.0811  0.0380
 5743W        W 9794   8.530   9.694   1.281  0.5315 -0.1864  0.1126
 5744W        W 9795   7.543   0.876   3.240  0.4855  0.2179 -0.1793
 5745W        W 9796   4.722   6.031  12.759  0.3322 -0.1961  0.3453
 5746W        W 9797   7.677   8.181   1.109 -0.1076 -0.1170 -0.0531
 5747W        W 9798   5.284   7.034   3.659 -0.0693  0.0590  0.3136
 5748W        W 9799   0.924   4.621  11.928  0.0028 -0.0851 -0.0346
 5749W        W 9800   4.738   1.718  11.350  0.1774  0.2629  0.0742
 5750W        W 9801   5.388   2.255   3.844 -0.0160 -0.3437 -0.0521
 5751W        W 9802   2.913   9.433  12.094 -0.2751  0.0253  0.0010
 5752W        W 9803   9.445   7.175   2.958  0.2119  0.0728 -0.0254
 5753W        W 9804   4.309   8.973  13.824  0.1991  0.0477  0.3293
 5754W        W 9805   9.492  10.134   3.830  0.1856 -0.0522  0.3909
 5755W        W 9806   3.347   4.066  10.182 -0.2905 -0.1237 -0.2169
 5756W        W 9807   7.663   4.360   0.023 -0.0904 -0.0605 -0.2121
 5757W        W 9808   3.313   2.709   9.867  0.0909 -0.0728  0.1436
 5758W        W 9809   5.813   9.010   3.893 -0.0352  0.1463  0.1519
 5759W        W 9810   0.035   7.558   1.155  0.2008 -0.1589 -0.0861
 5760W        W 9811   0.713   1.160  10.982  0.0821  0.0984  0.2048
 5761W        W 9812   3.977   1.215  11.082 -0.0358 -0.1300 -0.1315
 5762W        W 9813   1.883   2.693   4.362  0.1937 -0.1465  0.1548
 5763W        W 9814   6.370   8.083   0.156 -0.1240  0.0303 -0.0139
 5764W        W 9815   8.119   1.669   2.115 -0.1077 -0.1234 -0.2389
 5765W        W 9816   1.416   9.610  11.248 -0.0012 -0.1556 -0.1823
 5766W        W 9817   5.052   3.604   5.117  0.0029 -0.2740  0.2917
 5767W        W 9818   9.610   5.677  11.243 -0.1341  0.4407 -0.1430
 5768W        W 9819   4.964   2.516   3.883 -0.0382 -0.0379  0.0384
 5769W        W 9820   7.307   2.548  12.593 -0.2033 -0.0314  0.1641
 5770W        W 9821   9.607   6.836   3.489 -0.0467 -0.2413  0.0243
 5771W        W 9822   7.284   5.293  12.908 -0.0351 -0.2792 -0.0589
 5772W        W 9823   3.668   7.352  10.622  0.2245 -0.0696  0.1974
 5773W        W 9824   0.806   8.522   9.029  0.0622 -0.1435 -0.0440
 5774W        W 9825   7.003   6.830  11.349  0.2300  0.0612  0.0312
 5775W        W 9826   7.909   8.204  10.706 -0.0408  0.1789 -0.0705
 5776W        W 9827   4.851   6.898   1.887 -0.0821  0.0523 -0.0912
 5777W        W 9828   6.587   0.447  10.890  0.0045  0.0302 -0.1024
 5778W        W 9829   3.891   5.411   2.272  0.2989 -0.0452 -0.1440
 5779W        W 9830   2.091   1.266   3.917 -0.3602  0.4432  0.2681
 5780W        W 9831   3.629   5.624   0.292  0.2563 -0.3705  0.1816
 5781W        W 9832   0.615   2.755   4.713  0.0356  0.0926  0.1643
 5782W        W 9833   2.729   6.258  11.413  0.1780 -0.1188 -0.3325
 5783W        W 9834   6.555   2.343  10.914  0.0156 -0.0412  0.1270
 5784W        W 9835   0.482   6.806   3.621 -0.0465  0.2005  0.1639
 5785W        W 9836   7.853   8.932   4.822  0.3055  0.1746 -0.0955
 5786W        W 9837   0.746   5.863  12.691  0.2213 -0.0596 -0.0174
 5787W        W 9838   6.089   0.100   3.888 -0.0825  0.2418  0.1501
 5788W        W 9839   6.161   1.788   3.169  0.0027  0.0104  0.1739
 5789W        W 9840   9.835   4.035  12.594 -0.1915 -0.1125 -0.3383
 5790W        W 9841   7.826   6.729  13.901 -0.1951  0.1975  0.0734
 5791W        W 9842   1.129   9.322   1.915 -0.0604 -0.0366  0.2064
 5792W        W 9843   8.028   2.980   2.051 -0.1797 -0.1076 -0.3379
 5793W        W 9844   4.889   7.940  12.887 -0.2055  0.0464 -0.3249
 5794W        W 9845   9.807   0.560   3.230 -0.2503 -0.2049 -0.0396
 5795W        W 9846   4.102   2.667   2.233  0.0875  0.0542 -0.2201
 5796W        W 9847   7.531   7.222   1.208 -0.0296  0.2275 -0.1382
 5797W        W 9848   7.000   1.171   1.342 -0.1914 -0.1642  0.1588
 5798W        W 9849   1.178   9.039  12.705  0.1165  0.3180 -0.0620
 5799W        W 9850   0.810   0.018   3.651  0.3447 -0.0203 -0.0331
 5800W        W 9851   9.327   7.259   2.465  0.1326 -0.2151 -0.2081
 5801W        W 9852   6.150   2.306  13.421 -0.0956  0.1591  0.1791
 5802W        W 9853   1.494   0.279  11.754 -0.1038 -0.3062  0.0739
 5803W        W 9854   2.382   7.138   3.773  0.1209  0.1038  0.0958
 5804W        W 9855   6.214   1.238   9.826 -0.3232  0.0749 -0.1556
 5805W        W 9856   9.625   3.295  13.965  0.1617 -0.0246  0.0059
 5806W        W 9857   1.735   3.010   2.709  0.1584 -0.1849  0.0238
 5807W        W 9858   1.585   6.111   3.971  0.0997 -0.4094  0.0293
 5808W        W 9859   4.962   0.632   3.043 -0.2162  0.0067 -0.1776
 5809W        W 9860   8.599   9.935   0.758 -0.1325 -0.0709  0.0826
 5810W        W 9861   1.256   3.274   0.148  0.2695 -0.3459  0.0277
 5811W        W 9862   7.253   8.763   2.832 -0.2539  0.1061  0.4323
 5812W        W 9863   1.724   2.778   9.662 -0.2232 -0.0200  0.1445
 5813W        W 9864   8.192   5.004  11.119  0.4387  0.0747  0.0784
 5814W        W 9865   3.688   1.981  13.723  0.0810  0.1593 -0.0406
 5815W        W 9866   8.330   7.805   3.856 -0.1573 -0.2540 -0.1180
 5816W        W 9867   1.250   2.444   5.205 -0.0135 -0.2116 -0.0741
 5817W        W 9868   4.596   6.447  11.927  0.1732  0.1041  0.1303
 5818W        W 9869   7.570   0.280   1.659  0.0329  0.3959 -0.2061
 5819W        W 9870   7.756   9.805   9.800  0.2526 -0.2637 -0.2868
 5820W        W 9871   5.000   2.202  13.545 -0.1359 -0.0057 -0.0329
 5821W        W 9872   8.176   2.219  10.811 -0.2226 -0.0560 -0.1326
 5822W        W 9873   2.879   4.584  10.956  0.0807 -0.2078  0.2940
 5823W        W 9874   2.712   7.917   9.890 -0.1602  0.0392 -0.1660
 5824W        W 9875   3.885   9.876   0.316  0.1146  0.1178  0.0007
 5825W        W 9876   7.422   6.901   2.079  0.3230 -0.1967 -0.0102
 5826W        W 9877   7.114   9.952   2.842  0.1583  0.4038 -0.3352
 5827W        W 9878   7.911   6.925   2.343  0.3461  0.2109  0.0552
 5828W        W 9879   8.785   6.928   0.750 -0.2174  0.0649 -0.3653
 5829W        W 9880   6.986   0.324   1.929  0.1276  0.0088  0.2633
 5830W        W 9881   7.506   6.235  11.928 -0.2192  0.2709 -0.2994
 5831W        W 9882   0.731   2.981  13.259  0.1661  0.0514  0.0767
 5832W        W 9883   2.121   8.022  12.879  0.2417 -0.1470 -0.0819
 5833W        W 9884   7.696   7.394  13.110  0.3284 -0.1135  0.0164
 5834W        W 9885   7.440   7.661   0.945 -0.2963 -0.1466  0.1284
 5835W        W 9886   7.837   7.658  12.753  0.0216 -0.3410  0.0883
 5836W        W 9887   2.208   1.928   4.804 -0.0746 -0.1318 -0.1534
 5837W        W 9888   8.859   2.188   0.625  0.2027 -0.1800  0.3214
 5838W        W 9889   4.305   9.784  11.914  0.4988 -0.0409  0.1869
 5839W        W 9890   5.151   9.018   2.240  0.0332  0.0070  0.0863
 5840W        W 9891   5.096   3.502   3.833 -0.0852  0.1777 -0.1747
 5841W        W 9892   1.867   7.401  10.206  0.2678 -0.3270  0.1084
 5842W        W 9893  10.079   0.369   1.746  0.0440 -0.1393 -0.0469
 5843W        W 9894  10.118   9.489   9.764  0.1655  0.1574 -0.1300
 5844W        W 9895   8.037   9.148  13.363 -0.0271 -0.1071 -0.1881
 5845W        W 9896   3.972   8.986   0.736  0.1080  0.2687 -0.1169
 5846W        W 9897   2.690   5.809   3.986 -0.1890  0.1784 -0.0915
 5847W        W 9898   0.553   8.856   0.530 -0.1432 -0.0656  0.2051
 5848W        W 9899   1.366   9.646   5.492  0.1973  0.1540 -0.2121
 5849W        W 9900   2.465   6.563   0.949 -0.2868 -0.0831  0.0780
 5850W        W 9901   7.558   3.669   1.141  0.0493 -0.2407 -0.0655
 5851W        W 9902   6.382   8.637   0.109 -0.1251  0.2664  0.1650
 5852W        W 9903   9.222   8.678  13.612  0.3179 -0.1821 -0.1392
 5853W        W 9904   9.466   8.456   0.159 -0.0505 -0.1313  0.3203
 5854W        W 9905   2.797   1.951   3.024 -0.1607  0.0268 -0.0438
 5855W        W 9906   0.114   8.694   4.060 -0.0012 -0.1763 -0.2177
 5856W        W 9907   7.630   1.513   2.065  0.3228  0.0027  0.1275
 5857W        W 9908   1.987   8.982   9.861 -0.3256 -0.1881 -0.0413
 5858W        W 9909   7.741   9.981   2.343  0.1091  0.1591  0.1747
 5859W        W 9910   1.569   7.340  12.875 -0.0796  0.2337 -0.0862
 5860W        W 9911  10.012   1.424   4.873 -0.2077 -0.0042  0.1068
 5861W        W 9912   7.203   7.021  11.751  0.2913 -0.0257  0.0972
 5862W        W 9913   4.375   7.146   1.918  0.0961 -0.1686 -0.2812
 5863W        W 9914   6.564   4.501   4.010 -0.1665 -0.2435 -0.2785
 5864W        W 9915   6.051  10.059  13.241  0.0296  0.2414  0.0150
 5865W        W 9916   8.425   9.159   4.113 -0.1106  0.3263  0.2646
 5866W        W 9917   3.327   9.348   2.610  0.1800 -0.1427 -0.3810
 5867W        W 9918   4.476   5.210   1.303 -0.1919 -0.0039  0.1987
 5868W        W 9919   0.228   2.844  13.385 -0.0807 -0.5129 -0.0216
 5869W        W 9920   8.229   0.161  13.541  0.2498 -0.0782 -0.1177
 5870W        W 9921   7.584   7.733   1.444  0.0198  0.0565  0.3355
 5871W        W 9922   2.962   4.364   4.718  0.1278  0.3136 -0.3259
 5872W        W 9923   2.115   1.341  11.107  0.1848 -0.1684 -0.0499
 5873W        W 9924   0.868   9.652   3.761 -0.0630 -0.1973 -0.0535
 5874W        W 9925   1.870   7.623  13.576 -0.1224 -0.0626  0.0217
 5875W        W 9926   3.830   1.992  10.659  0.0995  0.2295  0.1145
 5876W        W 9927   5.974   8.272  10.573  0.1734 -0.1575 -0.0900
 5877W        W 9928   2.430   1.411  13.271  0.2262 -0.1775 -0.0790
 5878W        W 9929   2.933   6.251  10.764  0.2168 -0.0111 -0.1244
 5879W        W 9930   4.136   5.972   1.023  0.1042 -0.1326  0.2473
 5880W        W 9931   5.533   3.977  10.491 -0.0112 -0.2414  0.0581
 5881W        W 9932   3.529   5.202  12.166 -0.1482 -0.2118  0.0452
 5882W        W 9933   9.962   3.000   4.039 -0.3908  0.2629  0.2763
 5883W        W 9934   1.157   2.692   9.509 -0.1026 -0.1349 -0.0339
 5884W        W 9935   1.211   3.762   3.165 -0.1722  0.0847 -0.0708
 5885W        W 9936   8.145   8.850   0.014 -0.2070 -0.1240  0.1152
 5886W        W 9937   8.312   2.998   0.607 -0.0049 -0.3146  0.0827
 5887W        W 9938   4.383   8.231   1.065 -0.0987 -0.2706 -0.1433
 5888W        W 9939   9.126   3.208   3.449 -0.3380  0.2417 -0.2752
 5889W        W 9940   0.398   9.922   8.768 -0.0198 -0.0587  0.2656
 5890W        W 9941  10.086   4.201   5.034 -0.2159  0.2220  0.0597
 5891W        W 9942   4.287   3.888   1.334  0.1104 -0.0445 -0.0804
 5892W        W 9943   4.680   4.859  12.739  0.0767  0.0725 -0.1891
 5893W        W 9944   6.891   0.227   1.460  0.1810  0.2154 -0.0072
 5894W        W 9945   2.907   7.010  13.919 -0.4085 -0.1143 -0.1591
 5895W        W 9946   8.502   7.857   1.579 -0.2154 -0.1223 -0.0894
 5896W        W 9947   2.052   1.855  11.090  0.1121 -0.1880 -0.1611
 5897W        W 9948   8.950   8.276  13.864 -0.1834 -0.0216 -0.1319
 5898W        W 9949   3.506   9.300  13.720  0.2284 -0.2069  0.4395
 5899W        W 9950   3.833   4.561  13.119  0.0146  0.1458 -0.0122
 5900W        W 9951   4.839   2.870   2.475 -0.1299  0.0777 -0.4021
 5901W        W 9952   3.761   5.062  13.255 -0.2095 -0.2496  0.1557
 5902W        W 9953   1.773   0.631   4.610 -0.1785 -0.0030  0.1138
 5903W        W 9954   7.126   4.967   3.469  0.0152 -0.1073 -0.0352
 5904W        W 9955   0.607   8.741  12.561 -0.0961 -0.2948  0.3795
 5905W        W 9956   8.077   3.298   3.335  0.1303 -0.2944 -0.4216
 5906W        W 9957   8.929   9.319  12.609  0.0050  0.1412  0.2332
 5907W        W 9958   7.131   7.126  10.361 -0.0928  0.2328 -0.1383
 5908W        W 9959   6.115   0.722  12.128  0.1709 -0.1826  0.4551
 5909W        W 9960   3.461   1.779  13.265  0.1614 -0.3891 -0.3480
 5910W        W 9961   8.037   9.546   3.724 -0.0148 -0.1047 -0.3944
 5911W        W 9962   8.851   3.925  12.190 -0.2154  0.1558  0.0458
 5912W        W 9963   9.766   4.374  11.088 -0.0618 -0.3575 -0.1133
 5913W        W 9964   7.494   5.323   0.441  0.0791 -0.0617  0.0940
 5914W        W 9965   9.048   2.954   1.824 -0.1206  0.1174 -0.0441
 5915W        W 9966   7.584   5.909  12.562 -0.0941 -0.4127 -0.0868
 5916W        W 9967   7.299   7.498  11.809  0.0503 -0.3702  0.0792
 5917W        W 9968  10.142   0.759   4.487 -0.0278 -0.0246 -0.0544
 5918W        W 9969   5.976   9.099   3.395  0.0947  0.0467  0.1812
 5919W        W 9970   7.464   2.869   0.771 -0.0435  0.0482  0.3596
 5920W        W 9971   1.186   9.576   4.231  0.0503 -0.0164  0.0665
 5921W        W 9972   5.855   9.373   0.398 -0.5581 -0.1571  0.1740
 5922W        W 9973   5.154   2.258  10.315 -0.0616  0.0447  0.0828
 5923W        W 9974   5.740   1.312   9.528  0.1142 -0.1199  0.1776
 5924W        W 9975   5.716   2.575   5.770 -0.2007 -0.2406 -0.0665
 5925W        W 9976   7.056   2.126  12.887  0.1561 -0.1456 -0.0874
 5926W        W 9977   1.087   9.213   3.379  0.0543 -0.1500 -0.1484
 5927W        W 9978   4.845   6.655   2.646 -0.3958 -0.2104  0.0752
 5928W        W 9979   1.800   0.620   0.147 -0.1385 -0.0098 -0.0708
 5929W        W 9980   7.648   6.175  10.485  0.2528 -0.0671 -0.1406
 5930W        W 9981   5.795   7.882   2.439 -0.4188 -0.0114  0.1139
 5931W        W 9982   0.843   0.279   9.550 -0.0952 -0.0883  0.0643
 5932W        W 9983   3.734   6.751   4.098  0.0031  0.2659 -0.0998
 5933W        W 9984   9.656   6.579  11.872 -0.1275 -0.1136 -0.1168
 5934W        W 9985   6.760   4.946   1.514 -0.1413 -0.3521 -0.0356
 5935W        W 9986   5.958   7.699   2.976 -0.2332  0.2018 -0.0226
 5936W        W 9987   0.409   9.950   3.542  0.1436  0.1300 -0.1400
 5937W        W 9988   1.886   4.101   1.600 -0.0637 -0.3360  0.0514
 5938W        W 9989   6.677  10.031   5.402 -0.0700 -0.1794 -0.0493
 5939W        W 9990   2.123   1.108   2.186  0.2411 -0.3347  0.0261
 5940W        W 9991   9.783   1.913   9.547 -0.0704 -0.1525 -0.0806
 5941W        W 9992   6.712   6.973   1.673 -0.0379  0.2300  0.2036
 5942W        W 9993   8.719   0.669  13.206  0.0500 -0.2800  0.0285
 5943W        W 9994   2.022   3.156   4.111 -0.0975 -0.2160  0.0383
 5944W        W 9995   1.964   0.654  10.324 -0.2747  0.1053  0.0203
 5945W        W 9996   6.173   7.415  11.161 -0.1590  0.0177 -0.0483
 5946W        W 9997   2.450   6.346  10.022  0.0475  0.0847 -0.1114
 5947W        W 9998   0.334   2.061   2.035 -0.1382 -0.0072  0.0513
 5948W        W 9999   3.923   2.885  13.196  0.1386 -0.0256 -0.0256
 5949W        W10000   9.021   7.090  12.965  0.0150 -0.1406 -0.0401
 5950W        W10001   9.324   3.429   3.840 -0.0083  0.4246 -0.3685
 5951W        W10002   2.303   4.706  10.696  0.0155  0.2503 -0.2812
 5952W        W10003   2.554   7.736   1.347  0.0835  0.4796  0.0874
 5953W        W10004   7.624   9.053   0.627  0.3245 -0.3807 -0.1029
 5954W        W10005   6.707   0.040   8.442 -0.0684 -0.2344 -0.0622
 5955W        W10006   5.686   7.104   1.175 -0.1296 -0.0723  0.0116
 5956W        W10007   6.367   0.481   3.111 -0.3484 -0.2462  0.2689
 5957W        W10008   6.521  10.121  13.116  0.1210  0.1195  0.0093
 5958W        W10009   9.095   3.712  13.194  0.2144  0.0669 -0.0532
 5959W        W10010   8.961   2.674  13.141 -0.0137 -0.0668 -0.0257
 5960W        W10011   4.072   7.767   3.279  0.1913  0.1507  0.0630
 5961W        W10012   5.817   6.690  12.816 -0.0123 -0.1225  0.1473
 5962W        W10013   3.778   1.436  10.589 -0.1108  0.0585 -0.0819
 5963W        W10014   8.014   7.400   2.494  0.2818 -0.2071  0.1416
 5964W        W10015   9.063   3.086  11.232 -0.2124 -0.0161 -0.2331
 5965W        W10016   2.931   1.142   0.847 -0.0081 -0.1082 -0.0117
 5966W        W10017   3.576   8.983   2.793 -0.0602  0.0837 -0.1234
 5967W        W10018  10.057   3.958   3.886  0.1777 -0.1034  0.1302
 5968W        W10019   1.533   1.021   3.198 -0.0971 -0.1555  0.0446
 5969W        W10020   5.670   3.124  10.536 -0.2800  0.0918 -0.1575
 5970W        W10021   1.470   7.566   1.284 -0.1031  0.2761  0.2805
 5971W        W10022   6.022   6.172   0.133 -0.1059  0.0918  0.0478
 5972W        W10023  10.078   7.823  11.003 -0.1719 -0.1748  0.2338
 5973W        W10024   8.299   1.753  10.881 -0.0714  0.1399  0.0399
 5974W        W10025   3.061   6.541  11.783  0.0360  0.1963 -0.3933
 5975W        W10026   0.285   5.242  13.139  0.2113  0.2293  0.2709
 5976W        W10027   1.020   2.981  13.689 -0.2200  0.3037 -0.0552
 5977W        W10028   4.759   6.741   3.575 -0.1714 -0.0063 -0.2787
 5978W        W10029   3.768   2.570   9.334 -0.0316  0.0760 -0.1093
 5979W        W10030   4.861   9.549  12.979 -0.3227 -0.3185 -0.0945
 5980W        W10031   9.327   3.901   2.640 -0.2257 -0.0680 -0.2678
 5981W        W10032   3.469   2.277   0.213 -0.1139 -0.1101 -0.0965
 5982W        W10033   3.512   0.145   0.234  0.1562  0.1301 -0.1138
 5983W        W10034   9.604   2.449  11.601 -0.0032  0.1223 -0.0217
 5984W        W10035  10.047   4.047   0.098 -0.1618 -0.0727  0.4344
 5985W        W10036   4.550   6.642   1.506 -0.0017 -0.0243 -0.1074
 5986W        W10037   4.538   8.697  13.410  0.0175  0.0375 -0.2883
 5987W        W10038   6.372   8.985  13.316 -0.4514  0.0617  0.0231
 5988W        W10039   0.392   4.938   2.433 -0.2122  0.0688  0.1034
 5989W        W10040   0.059   4.025   1.660  0.1225 -0.1283 -0.2591
 5990W        W10041   8.215   8.440  13.643 -0.1543 -0.1121 -0.0329
 5991W        W10042   4.040   9.710  13.787  0.1672  0.0077 -0.1383
 5992W        W10043   9.302   3.386   1.792  0.3692 -0.2262  0.1628
 5993W        W10044   8.891   9.772   3.023  0.2298  0.2883  0.0469
 5994W        W10045   3.679   5.713   8.796  0.0483 -0.2052 -0.0595
 5995W        W10046   4.041   9.756   2.345 -0.0855  0.5510 -0.1499
 5996W        W10047   8.605   5.885   3.836 -0.1075  0.2176 -0.3029
 5997W        W10048   9.504   0.140   1.210  0.2247 -0.0276 -0.2924
 5998W        W10049   4.311   1.726   2.669  0.0473 -0.0312 -0.0399
 5999W        W10050   7.675   1.664  13.874 -0.0422 -0.0243  0.0047
 6000W        W10051   4.083   4.846   0.991 -0.0596 -0.0297  0.1212
 6001W        W10052   9.169   1.473   2.632 -0.3844  0.1465  0.1469
 6002W        W10053   9.759   8.837   3.639  0.3094  0.1893 -0.0745
 6003W        W10054   0.117   3.923   0.581 -0.1222 -0.1457  0.2364
 6004W        W10055   3.741   7.380  10.138 -0.1036 -0.1854  0.0652
 6005W        W10056   2.947   5.411   4.129 -0.1923  0.2003  0.4556
 6006W        W10057   6.709   2.573  12.075  0.1036  0.2879 -0.0627
 6007W        W10058   3.107   9.798   9.400 -0.0811  0.1026 -0.1657
 6008W        W10059   3.609   9.065  10.554 -0.3286 -0.1081  0.1921
 6009W        W10060   4.503   8.609   4.353 -0.1337 -0.1501  0.1332
 6010W        W10061   1.519   1.043   4.084 -0.0157 -0.0023 -0.0308
 6011W        W10062   3.045   2.782   1.756  0.1952 -0.0452 -0.0722
 6012W        W10063   4.531   5.180   0.739 -0.0989  0.0085  0.2855
 6013W        W10064   0.130   6.111  13.631 -0.1465 -0.1313 -0.2015
 6014W        W10065   7.434   5.045   0.046 -0.1758  0.0429 -0.0022
 6015W        W10066   9.436   4.272  11.885  0.2759  0.2187  0.1065
 6016W        W10067   6.969   6.307   3.375 -0.0672 -0.1478 -0.2033
 6017W        W10068   1.580   4.042  10.914  0.1552  0.0282 -0.0455
 6018W        W10069   6.654   6.368  13.608  0.2733  0.1247 -0.1741
 6019W        W10070   8.765   0.842   0.536  0.0132 -0.1856  0.2630
 6020W        W10071   8.458   7.992  10.183  0.2484  0.2070  0.1193
 6021W        W10072   2.667   3.957   3.461  0.2715  0.0978 -0.0207
 6022W        W10073   8.947   7.903   3.016 -0.1355  0.2161 -0.1553
 6023W        W10074   6.698   8.084   3.705 -0.1625 -0.1632 -0.3812
 6024W        W10075   8.838   3.095   2.436 -0.0632 -0.2726  0.0419
 6025W        W10076   5.918   0.128   1.754  0.0112  0.0467 -0.0328
 6026W        W10077   6.120   5.975   1.073  0.0408  0.1180  0.0191
 6027W        W10078   3.184   3.026  10.330  0.1895  0.2615  0.0271
 6028W        W10079   9.759   1.333  11.375 -0.2725 -0.2624  0.0752
 6029W        W10080   9.774   8.878   0.302  0.1296  0.3536 -0.0951
 6030W        W10081   1.932   3.169   9.432  0.0531  0.0895  0.4269
 6031W        W10082   6.118   7.514  12.370  0.3412 -0.1544 -0.0115
 6032W        W10083   9.563   0.540   1.709 -0.1322  0.1480 -0.2038
 6033W        W10084   3.618   3.380  11.596  0.1734 -0.1990 -0.0824
 6034W        W10085   6.965   6.648   4.246  0.2735 -0.2777  0.0014
 6035W        W10086   5.208   3.510  11.203  0.0035  0.0378 -0.0017
 6036W        W10087   5.175   0.210  11.012 -0.1989  0.0848 -0.0431
 6037W        W10088   0.326   6.531   1.721  0.0705  0.0649  0.1226
 6038W        W10089   6.751   0.636   2.892  0.0432 -0.2610 -0.0825
 6039W        W10090   6.486   0.821   3.897 -0.1561  0.1400  0.1485
 6040W        W10091   3.818   6.260   4.420 -0.2161 -0.0136 -0.0168
 6041W        W10092   6.788   7.844   0.179  0.2343 -0.0845  0.0752
 6042W        W10093   7.056   3.841   1.782  0.1519  0.1306 -0.0974
 6043W        W10094   9.161   2.785   9.735  0.1028  0.1700 -0.0081
 6044W        W10095   6.420   9.168   0.937  0.2521 -0.0127  0.2723
 6045W        W10096   8.685   0.636   4.738 -0.0086  0.1119  0.0924
 6046W        W10097   3.918   0.460   5.212 -0.2315  0.0912  0.3472
 6047W        W10098   4.946   0.466   0.634  0.0483 -0.1036  0.0381
 6048W        W10099   7.114   5.117  12.000  0.1324  0.1536  0.1914
 6049W        W10100   1.427   8.447   0.846  0.2481  0.1666 -0.1911
 6050W        W10101   2.682   5.685   1.820  0.0407 -0.1586  0.0892
 6051W        W10102   9.723   7.807   2.050  0.2288 -0.1112 -0.0257
 6052W        W10103   0.010   0.380   2.949 -0.0426  0.0409  0.0935
 6053W        W10104   7.490   3.950   0.261  0.1109 -0.0594  0.2491
 6054W        W10105   8.077   7.530   2.984 -0.1268 -0.0077  0.0296
 6055W        W10106   3.188   1.315   5.272  0.4524  0.0073  0.3781
 6056W        W10107   1.781   2.712  12.236  0.1256 -0.3490  0.2020
 6057W        W10108   5.494   2.867   3.124  0.0915 -0.1356 -0.2878
 6058W        W10109   2.815   2.462  12.037  0.2415  0.0059 -0.2576
 6059W        W10110   9.458   9.700  11.880  0.2041  0.1577  0.1464
 6060W        W10111   7.865   7.785  11.921 -0.4453 -0.5681  0.4462
 6061W        W10112  10.159   5.084  11.762 -0.0161 -0.0100 -0.4465
 6062W        W10113   9.682   9.307  13.101  0.1778  0.6035  0.1730
 6063W        W10114   0.193   8.248   3.665  0.0809 -0.0721  0.3915
 6064W        W10115   5.049   7.084   9.537 -0.0324 -0.1895  0.0170
 6065W        W10116   0.398   4.892   4.531  0.2896 -0.0782 -0.3339
 6066W        W10117   1.183   1.824   9.871  0.0385 -0.0130 -0.1555
 6067W        W10118   4.212   8.111   9.341 -0.1753 -0.1753 -0.1576
 6068W        W10119   0.373   0.943   1.003  0.0918 -0.1349  0.1586
 6069W        W10120   5.889   1.348   3.271  0.2672 -0.1855  0.0941
 6070W        W10121  10.132   7.802   0.695  0.0462 -0.1151 -0.1295
 6071W        W10122   3.945   3.039  11.708 -0.2489 -0.2776 -0.2564
 6072W        W10123   1.317   1.635   0.087  0.0381 -0.0854 -0.1340
 6073W        W10124   0.402   4.112   5.043  0.1958  0.0577 -0.2847
 6074W        W10125   8.498   1.179  12.092  0.0465 -0.0789 -0.0072
 6075W        W10126   9.928   7.575  11.776  0.4858 -0.0018  0.0958
 6076W        W10127   8.170   3.756  11.549 -0.2277  0.2155 -0.1992
 6077W        W10128   4.375   8.032  13.767  0.4518 -0.0568 -0.0593
 6078W        W10129   0.257   4.809  12.911  0.1656  0.0351 -0.1062
 6079W        W10130   1.039   2.287  11.460 -0.1202 -0.0553  0.1182
 6080W        W10131   7.630   9.852  10.636 -0.0438  0.2405 -0.2860
 6081W        W10132   0.803   1.366   0.154  0.2158 -0.2691 -0.1735
 6082W        W10133   9.573   9.014  10.251 -0.2738 -0.1668 -0.0560
 6083W        W10134   0.231   4.074  11.629 -0.1526  0.1192  0.0154
 6084W        W10135   6.596   3.794  11.227  0.1354 -0.0111 -0.0893
 6085W        W10136   0.478   7.797   1.454 -0.3463  0.2734  0.1897
 6086W        W10137   4.619   9.785   0.966  0.3426 -0.1022 -0.1860
 6087W        W10138   0.898   6.968  13.887 -0.0464  0.2174  0.0181
 6088W        W10139   6.107   1.286  13.733  0.0872 -0.1717  0.0015
 6089W        W10140   5.265   4.821  10.575 -0.0789  0.2551  0.0114
 6090W        W10141   0.158   2.475  11.735  0.0002  0.1208  0.1681
 6091W        W10142   9.507   3.206   4.362 -0.0543 -0.1387 -0.3916
 6092W        W10143   9.988   3.502   4.574  0.3679  0.0878 -0.0288
 6093W        W10144   4.153   8.299  10.518 -0.3844  0.2156 -0.1898
 6094W        W10145   9.921   7.088   3.166  0.2728 -0.0783 -0.1442
 6095W        W10146   1.008   3.133   2.045 -0.2041  0.2319  0.1076
 6096W        W10147   5.378   4.195   5.123 -0.0791  0.1414 -0.1715
 6097W        W10148   2.108   1.374  12.513  0.1782  0.0480 -0.2555
 6098W        W10149   0.298   0.915  10.059  0.0396  0.1421 -0.0378
 6099W        W10150   7.445   8.885  12.741 -0.0121  0.2146  0.0573
 6100W        W10151   6.634   7.390   1.352 -0.3052 -0.1045  0.0750
 6101W        W10152   8.800   1.620  13.133  0.2094  0.2489 -0.2298
 6102W        W10153   2.910   8.757  10.108  0.1568 -0.1539 -0.0165
 6103W        W10154   0.561   1.616  10.183  0.3864  0.1469 -0.2165
 6104W        W10155   1.230   5.440   2.533 -0.1399 -0.2012  0.2606
 6105W        W10156  10.096   0.481   0.278 -0.1497  0.0252  0.1723
 6106W        W10157   3.273   1.980   2.336 -0.1575  0.1702  0.0937
 6107W        W10158   7.984   5.785   1.279 -0.2581 -0.1255 -0.2349
 6108W        W10159   5.961   4.302   1.274  0.1073  0.1781 -0.1641
 6109W        W10160   2.821   1.496   1.630  0.0950 -0.0208  0.1355
 6110W        W10161   1.818   9.941   2.212  0.1828  0.2539 -0.0713
 6111W        W10162   0.408   0.944  12.480 -0.0699 -0.2511  0.3921
 6112W        W10163   1.349   8.614   4.569  0.1997 -0.1893  0.0939
 6113W        W10164   4.489   0.910  12.527 -0.1267  0.0289 -0.4528
 6114W        W10165   8.270   2.790  10.079  0.0135  0.2861  0.2023
 6115W        W10166   0.034   2.515   2.210 -0.5331  0.3612  0.1758
 6116W        W10167   1.153   1.414  10.200  0.0098 -0.1095 -0.0840
 6117W        W10168   8.749   2.029   3.288 -0.4910  0.0465 -0.1108
 6118W        W10169   5.975   2.952   0.034  0.0003 -0.2006  0.1068
 6119W        W10170  10.053   9.445   3.888  0.1670 -0.0207  0.0292
 6120W        W10171   8.986   1.462   9.239 -0.2407 -0.3567 -0.1116
 6121W        W10172   8.222   6.581  13.589  0.0513 -0.1609  0.2603
 6122W        W10173   5.954   8.546  13.856 -0.1723 -0.0374 -0.0771
 6123W        W10174   6.865   1.304  11.124 -0.0560 -0.2014  0.0961
 6124W        W10175   6.405   2.495   4.400 -0.3407 -0.0298 -0.1738
 6125W        W10176   9.389   4.499  11.406 -0.1619 -0.0800  0.1577
 6126W        W10177   6.512   0.072  11.336  0.2948 -0.2418  0.1681
 6127W        W10178   3.745   9.841   4.943 -0.0236 -0.1104 -0.1440
 6128W        W10179   0.080   2.330  11.293  0.0717 -0.2380  0.0992
 6129W        W10180  10.001   8.215  10.327 -0.0968  0.1626 -0.2379
 6130W        W10181   5.558   1.289  12.846 -0.1212 -0.1352  0.0219
 6131W        W10182   9.465   6.723   2.266  0.1303 -0.1859  0.1727
 6132W        W10183   3.470   5.374   0.729 -0.4459  0.0864 -0.2513
 6133W        W10184   0.091   9.382  12.356  0.4417 -0.2018 -0.2185
 6134W        W10185   3.063   2.479   0.991 -0.0879 -0.1771 -0.0459
 6135W        W10186   6.535   8.040  10.637  0.3177  0.1983  0.0547
 6136W        W10187   0.567   8.502  13.349  0.0174  0.2623 -0.0749
 6137W        W10188   2.059   0.193   4.097  0.3848  0.1694 -0.0448
 6138W        W10189   4.870   1.044   0.051  0.1284 -0.1832 -0.1174
 6139W        W10190  10.162   1.714   1.309  0.1275  0.5373 -0.2833
 6140W        W10191   2.556   5.198  12.097  0.0669  0.2460  0.0382
 6141W        W10192   1.117   8.528  13.431 -0.3261  0.0909  0.1057
 6142W        W10193   6.486   4.614  11.693  0.1947  0.0183  0.0739
 6143W        W10194   6.278   8.207   1.075  0.3278 -0.1462 -0.1024
 6144W        W10195   3.968   6.798   3.112 -0.2372 -0.0051  0.3208
 6145W        W10196   0.464   0.386  10.756 -0.2894 -0.0438  0.0289
 6146W        W10197   3.942   8.346  12.738  0.2162  0.3108 -0.2093
 6147W        W10198   9.667   1.039   0.909  0.0849 -0.0417  0.1991
 6148W        W10199   2.772   0.161   2.231  0.2238 -0.0638  0.2229
 6149W        W10200   0.378   9.744   5.547  0.0809 -0.1150  0.0236
 6150W        W10201   3.651   9.144   1.883 -0.2818 -0.3419  0.2505
 6151W        W10202   3.746   3.280  13.482 -0.0000 -0.0927  0.0468
 6152W        W10203   7.842   2.073   3.725 -0.1172 -0.1584  0.1782
 6153W        W10204   6.555   0.833  13.523  0.0452  0.1080  0.0346
 6154W        W10205   4.646   6.263   2.937  0.1313 -0.1584  0.1025
 6155W        W10206   3.506   0.713   0.304 -0.2752  0.3962  0.6710
 6156W        W10207   7.904   0.177   3.000  0.1165 -0.0330  0.1790
 6157W        W10208   4.201   2.234   2.498  0.0330 -0.2080  0.1104
 6158W        W10209   4.964   4.234  11.181 -0.2817  0.1724 -0.1403
 6159W        W10210   8.462   9.018   0.430 -0.1434  0.2294 -0.0222
 6160W        W10211  10.171   6.295   1.999  0.0028  0.4745 -0.2804
 6161W        W10212   4.180   6.822   8.625  0.0950 -0.1933  0.1251
 6162W        W10213   0.690   3.494  10.771 -0.1561 -0.3291  0.2247
 6163W        W10214   9.137   4.910  11.051  0.0536 -0.4528  0.0373
 6164W        W10215   7.932   7.342   0.080 -0.0012 -0.0209  0.0620
 6165W        W10216   8.927   8.081  13.260 -0.3847  0.1881 -0.1811
 6166W        W10217   9.721   1.454   1.117  0.0494 -0.1753 -0.0912
 6167W        W10218   7.801   3.424   2.014  0.0068  0.0171  0.1181
 6168W        W10219   9.438   0.619  11.679 -0.0720  0.1365 -0.1790
 6169W        W10220   5.359   4.541   2.452 -0.0352 -0.2816  0.0402
 6170W        W10221   7.027   9.770  11.113 -0.1948  0.0410  0.1129
 6171W        W10222   5.963   9.155   1.712  0.0825  0.1088  0.4172
 6172W        W10223   0.355   1.911  11.136  0.0534 -0.1239 -0.1595
 6173W        W10224   9.799   5.548  13.484 -0.1255 -0.2568 -0.2724
 6174W        W10225   1.213   7.838   2.633 -0.2442 -0.2237  0.0367
 6175W        W10226   6.005   6.141   3.465 -0.1825  0.0527 -0.5880
 6176W        W10227   5.549  10.139  12.264 -0.2306  0.1261 -0.3053
 6177W        W10228   4.267   9.468   3.134  0.2767 -0.1646  0.3793
 6178W        W10229   4.008   9.069   9.463  0.3278  0.1193 -0.2075
 6179W        W10230   8.297   0.793   4.137 -0.1422  0.1207 -0.1585
 6180W        W10231   7.844   9.286   1.583  0.1226  0.2382  0.0031
 6181W        W10232   1.401   0.848   1.527 -0.2355 -0.1073 -0.3081
 6182W        W10233   2.935   4.185   1.422 -0.3949  0.3173  0.2512
 6183W        W10234   3.388   7.522  13.266  0.0295  0.2209  0.3286
 6184W        W10235   0.441   5.312   0.238 -0.1087  0.1953  0.1961
 6185W        W10236   0.169   9.321  13.903  0.0679 -0.0453  0.2554
 6186W        W10237   6.006   5.261  13.614 -0.1732  0.0962 -0.1353
 6187W        W10238  10.176   9.631   3.406  0.0825 -0.1719 -0.0068
 6188W        W10239   9.776   0.111   2.824  0.0096 -0.0355  0.1095
 6189W        W10240   2.542   9.617   0.608 -0.0793  0.2230  0.0906
 6190W        W10241   5.048  10.052   4.391 -0.1069  0.2650  0.1217
 6191W        W10242   9.294   5.677  13.624  0.1458 -0.0193  0.0398
 6192W        W10243   2.957   2.972  13.082  0.0085  0.2072  0.1858
 6193W        W10244   9.846   0.242  12.412 -0.1613  0.4288  0.1033
 6194W        W10245   1.678   2.968   0.304 -0.0460 -0.0332 -0.0765
 6195W        W10246   0.485   6.671  13.279 -0.0488 -0.1947 -0.0338
 6196W        W10247   5.456   1.538   1.865 -0.0952 -0.1234 -0.0436
 6197W        W10248   3.557   2.156  12.098 -0.3500 -0.0513 -0.1538
 6198W        W10249   2.695   8.396   9.801  0.0969 -0.1198  0.4749
 6199W        W10250   1.767   4.762  11.447 -0.0672  0.1515 -0.1098
 6200W        W10251   5.029   5.529  11.482 -0.0809  0.0534  0.1901
 6201W        W10252   4.019   7.975   0.208 -0.0431 -0.0866  0.1580
 6202W        W10253   2.349   8.839   3.770 -0.3190  0.2113  0.0077
 6203W        W10254   1.556   3.103   4.267 -0.1729 -0.1543  0.0728
 6204W        W10255   4.489   4.117   9.800 -0.1317 -0.1790  0.4220
 6205W        W10256   0.322   4.553   3.600 -0.1420 -0.1554  0.4321
 6206W        W10257   7.798   5.537   1.647  0.0737  0.1222 -0.0380
 6207W        W10258   1.931   4.646   0.191  0.3326  0.2969  0.0828
 6208W        W10259   3.377   5.610  10.861  0.0342  0.0222  0.1661
 6209W        W10260   6.790   4.910  13.640  0.0725 -0.0774 -0.1373
 6210W        W10261   4.722   8.494   1.362  0.3326 -0.2518 -0.0653
 6211W        W10262   2.611   4.055   9.687 -0.1127  0.0782  0.0927
 6212W        W10263   8.606  10.108   0.305 -0.0647 -0.1216  0.2151
 6213W        W10264   2.453   1.436   3.135  0.0643 -0.1571 -0.2317
 6214W        W10265   9.413   1.862   9.990 -0.0492 -0.2545 -0.0732
 6215W        W10266   2.053   1.611  12.962 -0.1562 -0.2234 -0.0033
 6216W        W10267   6.670   3.123  10.635  0.1652 -0.1238 -0.2037
 6217W        W10268   3.222   9.081  12.350 -0.0387 -0.1851 -0.4858
 6218W        W10269   8.734   9.348   0.933  0.2907 -0.3727 -0.1287
 6219W        W10270   9.972   5.618   0.908 -0.1689 -0.2186  0.1913
 6220W        W10271   8.383   6.567   2.984 -0.1289  0.3624  0.2337
 6221W        W10272   7.038   5.914  13.692 -0.1978  0.0468  0.0809
 6222W        W10273   1.546   0.100   0.922  0.0266 -0.0304 -0.4979
 6223W        W10274   4.333   3.641   1.895  0.2374  0.2286  0.0767
 6224W        W10275   6.345   1.981  10.063 -0.0269  0.0912  0.1429
 6225W        W10276  10.010  10.147   0.400  0.0423 -0.0524  0.2562
 6226W        W10277   4.593   9.047   3.045  0.1127 -0.1056 -0.0992
 6227W        W10278   0.832   6.536  10.040  0.0236 -0.0041 -0.0866
 6228W        W10279   0.944   8.866   1.579  0.1951 -0.0246  0.0236
 6229W        W10280   9.830   7.159   2.603 -0.0995  0.0396 -0.0335
 6230W        W10281   8.142   6.999  11.568  0.0363 -0.2668 -0.1237
 6231W        W10282   7.039   6.646  13.629 -0.2025  0.0957 -0.1880
 6232W        W10283   3.314   3.435   0.911  0.2961  0.0450 -0.1865
 6233W        W10284   0.341   3.326  12.108 -0.0193 -0.0494  0.0134
 6234W        W10285   3.435   5.635   1.197  0.1442  0.1469 -0.0811
 6235W        W10286   9.874   6.226   2.703 -0.1142 -0.0181  0.0195
 6236W        W10287   4.896   9.534   4.155  0.1482 -0.0201 -0.1803
 6237W        W10288   5.966   5.877  10.319  0.1694 -0.1235  0.2256
 6238W        W10289   9.345   8.774   0.607 -0.2678 -0.0181  0.1920
 6239W        W10290   0.888   5.036   4.336 -0.0173  0.1150 -0.1103
 6240W        W10291   6.988   5.608  13.135  0.1697  0.4394 -0.1530
 6241W        W10292   7.264   2.540   1.486  0.1258 -0.1734 -0.0317
 6242W        W10293   0.934   8.088  13.201  0.0178  0.0034 -0.4880
 6243W        W10294   3.231   3.171  10.829 -0.2597 -0.3501 -0.2508
 6244W        W10295   5.502   3.667  12.011  0.0600 -0.0345 -0.0889
 6245W        W10296   3.114   1.514   1.232 -0.0086  0.1632  0.3641
 6246W        W10297   0.240   3.110   4.345 -0.2594  0.2751  0.0864
 6247W        W10298   5.452   2.986   0.083 -0.0708 -0.1075  0.2351
 6248W        W10299   9.732   2.140   0.631  0.0084 -0.0055  0.0360
 6249W        W10300   8.574   9.466   2.825  0.2184 -0.2516  0.3238
 6250W        W10301   3.180   6.973  11.582  0.1146 -0.1666  0.3900
 6251W        W10302   0.178   7.380   2.827 -0.1313 -0.1139 -0.3286
 6252W        W10303   7.559   6.039  11.222  0.2816  0.3322  0.2579
 6253W        W10304   1.814   8.088   9.811 -0.0222  0.3563 -0.1136
 6254W        W10305   4.698  10.162   0.672 -0.0860 -0.1108  0.1186
 6255W        W10306   2.290   5.488  10.290 -0.2573 -0.2676  0.2015
 6256W        W10307   5.339   5.627   1.647  0.1484 -0.0478  0.1448
 6257W        W10308   4.312   2.697   2.681 -0.1294 -0.3121 -0.2287
 6258W        W10309   2.655   9.038   4.131 -0.3934  0.2131 -0.1310
 6259W        W10310   7.830   0.484  11.950  0.0749  0.0402 -0.1008
 6260W        W10311   3.088   5.896   4.324 -0.0184  0.2287  0.0663
 6261W        W10312  10.021   7.566  12.309  0.4891 -0.4699 -0.2601
 6262W        W10313   0.199   0.571  11.588  0.0639 -0.0572 -0.0806
 6263W        W10314   3.352   1.401   4.409  0.3957  0.0247  0.0735
 6264W        W10315   9.286   8.526  11.836 -0.0634  0.0003 -0.3239
 6265W        W10316   3.219   5.027  10.988  0.0737  0.1784  0.0145
 6266W        W10317   0.033   4.465  12.390 -0.2657 -0.2438  0.1185
 6267W        W10318   6.614   2.772  10.304 -0.1491 -0.0654 -0.0015
 6268W        W10319   5.343   0.554   3.994 -0.2204  0.2339  0.1608
 6269W        W10320   4.316   9.762  10.724  0.1830  0.1752  0.1939
 6270W        W10321   5.334   0.735   0.041  0.4095  0.1632  0.1214
 6271W        W10322   5.685   9.711  12.393 -0.0251 -0.0462 -0.2313
 6272W        W10323   3.123   3.776  10.831  0.0717  0.1498 -0.3889
 6273W        W10324   6.181   6.545  13.721  0.0542 -0.0935  0.0321
 6274W        W10325   7.341   4.450   3.717  0.2067  0.0076  0.0405
 6275W        W10326   4.456   8.348   2.109  0.0962  0.3862  0.2207
 6276W        W10327   4.810   9.997   1.822 -0.0346 -0.3615  0.5065
 6277W        W10328   8.079   5.569  11.863  0.2756 -0.0701  0.1235
 6278W        W10329   8.018   2.521   2.628  0.1572  0.0842  0.1849
 6279W        W10330   0.473  10.091   0.792  0.1057 -0.1562 -0.1444
 6280W        W10331   4.558   3.063   0.657  0.0269  0.1046  0.0323
 6281W        W10332   2.116   2.994   0.617 -0.0908 -0.2856 -0.2086
 6282W        W10333   9.565   4.510  13.551 -0.3113  0.1529  0.0062
 6283W        W10334   6.486   1.121  12.474  0.0781  0.0039  0.3489
 6284W        W10335   6.219   5.344   4.361 -0.1023 -0.2021  0.0572
 6285W        W10336   5.544   5.207  10.637 -0.0883  0.0082 -0.0593
 6286W        W10337   7.717   4.147   4.073  0.1641 -0.4200 -0.1276
 6287W        W10338   3.685   8.106   9.507 -0.2756  0.1349  0.0205
 6288W        W10339   5.590   4.101   1.779  0.0699  0.0923 -0.1133
 6289W        W10340   1.314   3.989   3.686  0.1261  0.2134  0.3460
 6290W        W10341   1.800   4.443  10.667 -0.1254  0.1259  0.1379
 6291W        W10342   6.216   8.332   9.107  0.1196 -0.0343  0.1147
 6292W        W10343   9.110   1.124   9.580 -0.2739 -0.1565 -0.0627
 6293W        W10344   4.343   1.742  10.432  0.0877  0.1842 -0.1432
 6294W        W10345   0.425   7.179  12.975  0.3019  0.1494  0.2438
 6295W        W10346   5.731   1.327   1.127  0.0855 -0.1148 -0.0643
 6296W        W10347   4.067   9.088  10.293  0.3880  0.1200  0.0375
 6297W        W10348   2.374   8.746  12.013  0.3457 -0.3854  0.0638
 6298W        W10349   0.572   5.498   0.677  0.3958  0.2373 -0.0490
 6299W        W10350   9.804   9.414  11.592  0.0562 -0.1549 -0.1651
 6300W        W10351   5.902  10.105  10.521 -0.0295 -0.0132  0.0953
 6301W        W10352   6.337   1.739  11.977 -0.2725  0.0457 -0.1008
 6302W        W10353   1.687   7.019  11.241  0.0583  0.4257  0.1266
 6303W        W10354   4.770   8.799   9.057  0.1308  0.2259 -0.3534
 6304W        W10355   3.662   9.774   2.684 -0.1969 -0.1350 -0.1452
 6305W        W10356   0.761   2.442   9.197  0.0824  0.2109 -0.1762
 6306W        W10357   7.718   4.824   2.806  0.1434 -0.1557  0.1305
 6307W        W10358   0.427   6.562   2.565  0.0846  0.1230  0.3484
 6308W        W10359   8.376   4.062   2.925  0.4600  0.1218 -0.1024
 6309W        W10360   4.157   1.386  11.888 -0.1414  0.0495 -0.1187
 6310W        W10361   6.534   9.498  10.920 -0.4226  0.4235 -0.0002
 6311W        W10362   7.665   3.391  12.711  0.3550 -0.2184 -0.0682
 6312W        W10363   8.007   9.818   3.355  0.1285 -0.2765  0.1084
 6313W        W10364   9.870   6.243  12.208  0.0273  0.0512  0.1727
 6314W        W10365   7.084   1.620   0.862  0.0788  0.3862  0.3057
 6315W        W10366   9.780   3.945   9.706  0.0470 -0.2174  0.2357
 6316W        W10367   4.517   3.704  13.000  0.0416 -0.2384 -0.0412
 6317W        W10368   2.497   8.127   8.805  0.0409  0.0302 -0.0970
 6318W        W10369   3.375   2.920   0.839  0.3304  0.3380  0.0647
 6319W        W10370   9.529   2.306   1.423 -0.2209  0.1597 -0.1969
 6320W        W10371   5.584   8.809   1.008  0.0446 -0.0524 -0.0598
 6321W        W10372   0.421   0.006   9.887 -0.3196  0.0952 -0.1571
 6322W        W10373   0.134   0.052   4.265  0.3966 -0.1001  0.2412
 6323W        W10374   7.994   1.164  13.816  0.2370 -0.0850  0.3114
 6324W        W10375   0.999   2.300   9.948 -0.1134  0.0137  0.4294
 6325W        W10376   7.710   5.739  12.147 -0.0462  0.2972 -0.4309
 6326W        W10377   6.490   0.740   4.949 -0.1043  0.3961  0.3312
 6327W        W10378   2.065   9.098   0.752 -0.0973  0.0821 -0.0814
 6328W        W10379   8.634   7.927  13.667  0.1727 -0.1749  0.1345
 6329W        W10380   3.101   8.186  10.103 -0.3494  0.1859  0.0712
 6330W        W10381   5.535   6.617   2.416 -0.2934 -0.2016  0.1566
 6331W        W10382   6.974   2.625  11.672 -0.0408 -0.2753  0.2142
 6332W        W10383   3.621   3.230   2.997  0.1698 -0.1120  0.3372
 6333W        W10384   8.828   9.898   9.608 -0.2759  0.2180 -0.0533
 6334W        W10385   0.709   0.477  12.255 -0.1836  0.1732 -0.4989
 6335W        W10386   0.593   6.263  12.477  0.0583 -0.0581  0.2485
 6336W        W10387   2.501   7.745   0.476  0.0500  0.0849 -0.0081
 6337W        W10388   4.978   0.222  12.852 -0.1637  0.2119 -0.1639
 6338W        W10389   2.851   9.418  12.987 -0.1362  0.1524  0.0030
 6339W        W10390   9.191   5.682   3.176  0.1890  0.2020  0.2189
 6340W        W10391   4.270   0.204  10.103 -0.2092 -0.1175 -0.3275
 6341W        W10392   0.580   7.869   3.406 -0.0081  0.3320 -0.0333
 6342W        W10393   6.391   9.372   2.504 -0.0422 -0.2264  0.1015
 6343W        W10394   7.057   9.236  11.024 -0.2575 -0.2611 -0.0008
 6344W        W10395   9.656   0.857  11.290  0.1056  0.3341 -0.1116
 6345W        W10396   7.786   6.957  10.260 -0.1974 -0.5055  0.0857
 6346W        W10397   5.342   8.842   2.865  0.3157 -0.3545  0.1585
 6347W        W10398   0.629   9.089   4.387 -0.3318 -0.0829  0.2506
 6348W        W10399   5.123   9.879  11.997  0.1683 -0.0730  0.0034
 6349W        W10400   3.520   5.900   2.182  0.2104  0.4338 -0.1111
 6350W        W10401   2.047   6.253  12.442  0.3298 -0.2287  0.0103
 6351W        W10402   6.418   6.094   2.571  0.0243  0.2236 -0.0105
 6352W        W10403   0.177   5.593  10.835  0.0159 -0.1085  0.1797
 6353W        W10404   4.245   1.633  11.489  0.0443  0.2611  0.2468
 6354W        W10405   7.074   0.365  12.331 -0.2388  0.1101 -0.1468
 6355W        W10406   7.446   1.829   2.957  0.1557 -0.0777  0.0496
 6356W        W10407   8.074   7.100  12.907 -0.0179 -0.0822  0.2319
 6357W        W10408   7.438   2.695  13.545 -0.1689 -0.1206  0.0907
 6358W        W10409   2.082   2.265  11.488 -0.0850  0.2794 -0.1662
 6359W        W10410   3.371   6.829   0.910 -0.1187 -0.0129  0.0565
 6360W        W10411   5.920   5.587   5.087 -0.1057 -0.0405 -0.1729
 6361W        W10412   6.975   0.797   5.104 -0.0526  0.2162  0.1221
 6362W        W10413   8.225   2.695  12.908  0.0594 -0.1219 -0.0975
 6363W        W10414   9.288   0.665   2.416 -0.1719 -0.0676 -0.2694
 6364W        W10415   2.393   8.202  11.354 -0.0520 -0.1431 -0.3370
 6365W        W10416   1.765   1.490   1.416  0.0012 -0.1699 -0.1334
 6366W        W10417   1.207   6.815  10.276  0.2450 -0.1812 -0.1573
 6367W        W10418   7.091   1.507   9.539 -0.1389 -0.2509 -0.1421
 6368W        W10419   4.664   7.144   2.753  0.1702  0.1032 -0.0234
 6369W        W10420   7.383   1.778   4.009  0.1028  0.0628  0.3655
 6370W        W10421   2.896   2.974   2.202 -0.0406 -0.1283 -0.0706
 6371W        W10422   1.773   6.336  11.363 -0.1712 -0.0156 -0.1749
 6372W        W10423   3.939   5.168   9.742 -0.0804 -0.3115 -0.0518
 6373W        W10424   5.321   8.216   0.599 -0.0180 -0.1663 -0.0218
 6374W        W10425   7.265   2.328   5.276  0.2568  0.0214  0.1055
 6375W        W10426   0.138  10.021  11.003  0.0897  0.0785  0.0794
 6376W        W10427   3.690   9.417   3.043 -0.4570 -0.1669 -0.1290
 6377W        W10428   8.187   2.026  13.585  0.0188  0.1910  0.2345
 6378W        W10429   7.552   4.486  12.893  0.0889 -0.1954 -0.0074
 6379W        W10430   0.306   6.174   4.029 -0.0276 -0.0670 -0.0508
 6380W        W10431   8.772   2.638   0.993 -0.2695  0.3503 -0.1474
 6381W        W10432   0.425   3.914  12.984  0.0432  0.2039 -0.0570
 6382W        W10433   4.769   0.292   9.404 -0.0548 -0.2367 -0.2068
 6383W        W10434   0.240   3.492   5.316 -0.1015  0.0035 -0.0750
 6384W        W10435   8.560   7.569   3.106  0.0626  0.2251 -0.1262
 6385W        W10436   8.178   3.397  12.499  0.0877 -0.1984 -0.2245
 6386W        W10437   5.991   2.054  12.221 -0.0140  0.0118  0.0566
 6387W        W10438   4.584   8.751   3.424  0.1416 -0.1342  0.0237
 6388W        W10439   0.296   0.804   0.491  0.2088  0.1065 -0.0700
 6389W        W10440   9.308   7.714   0.848 -0.2040  0.5396  0.1279
 6390W        W10441   6.087   3.970  10.532  0.0130  0.3637  0.2796
 6391W        W10442   7.227   4.177   4.074  0.2758  0.2508  0.1704
 6392W        W10443   0.190   6.893  11.189  0.0446 -0.0365 -0.2078
 6393W        W10444   8.164   2.576  12.348  0.3289 -0.2368  0.0703
 6394W        W10445   9.140   8.969  11.230  0.2175  0.2239  0.2028
 6395W        W10446   5.113   6.467  13.134  0.1243 -0.1372  0.0848
 6396W        W10447   3.758   5.194   3.795  0.0383  0.1165  0.2011
 6397W        W10448   0.703   3.634   9.367 -0.0292 -0.1315 -0.0377
 6398W        W10449   0.216   4.429  10.735 -0.0005  0.2666 -0.1355
 6399W        W10450   4.988   8.254   1.811  0.1615  0.1298  0.0367
 6400W        W10451   4.486   2.137  11.291 -0.1422 -0.1673 -0.0979
 6401W        W10452   9.440   4.795   0.852  0.1335 -0.1254 -0.0491
 6402W        W10453   3.554   7.582  11.770 -0.1313 -0.0987 -0.1325
 6403W        W10454   2.575   3.710  13.674  0.0694 -0.0576 -0.0298
 6404W        W10455   6.217   3.636  10.965 -0.1181  0.0954  0.2102
 6405W        W10456   9.002   5.621   0.430  0.0138  0.0353  0.0535
 6406W        W10457   5.966   0.122  11.458  0.0131  0.2186  0.2302
 6407W        W10458   0.161   7.654   4.347 -0.0084 -0.0446 -0.0519
 6408W        W10459   9.771  10.110   2.322  0.1772  0.0920  0.1035
 6409W        W10460   5.867   6.727  10.629 -0.0226 -0.1193 -0.1333
 6410W        W10461   8.084   2.314   2.108  0.2340  0.0279  0.0112
 6411W        W10462   5.417   2.498   1.899 -0.0088  0.0625 -0.0984
 6412W        W10463   4.296   0.138   9.623 -0.0338  0.1424 -0.0463
 6413W        W10464   9.319   4.538   1.301  0.1727  0.0369 -0.1961
 6414W        W10465   4.779   3.923   1.759 -0.2326 -0.3613  0.0899
 6415W        W10466   9.100   4.344   2.860 -0.1235  0.1597  0.0005
 6416W        W10467   7.372   0.413   1.180 -0.1150  0.1199  0.0831
 6417W        W10468   9.627   5.505   0.004  0.1801  0.3106 -0.1169
 6418W        W10469   2.780   8.853   4.643 -0.5571 -0.2311  0.0167
 6419W        W10470   9.087   3.418   9.511  0.2038 -0.1497 -0.2149
 6420W        W10471   2.139   9.941   9.992  0.1232  0.1606  0.2195
 6421W        W10472   5.547   4.424  12.390 -0.0651 -0.0889 -0.1972
 6422W        W10473   1.587   1.904   0.489 -0.2589 -0.0643  0.1772
 6423W        W10474   8.400   6.695   1.145 -0.1700 -0.1460 -0.0114
 6424W        W10475   2.835   6.160   2.288 -0.0787 -0.0328  0.4132
 6425W        W10476   3.102   4.294  13.780  0.0303 -0.2563 -0.1618
 6426W        W10477   6.431   4.643   0.280  0.0683  0.1191  0.1480
 6427W        W10478   8.698   6.509  13.038  0.1111 -0.2294  0.0163
 6428W        W10479   4.167   2.313   9.041 -0.1039  0.2484 -0.1758
 6429W        W10480   4.393   6.267   2.491  0.3563 -0.0857  0.1581
 6430W        W10481   5.427   8.911  13.722  0.2587  0.0133  0.2789
 6431W        W10482   5.421   9.793   9.856 -0.0382  0.1322  0.0876
 6432W        W10483   4.865   0.497   3.950 -0.2303  0.0517 -0.0337
 6433W        W10484   2.062   8.816  10.725  0.0108 -0.2142  0.0055
 6434W        W10485   7.735   2.615   3.905  0.3306 -0.1642 -0.0758
 6435W        W10486   8.384   2.654   4.321  0.1732 -0.1090  0.1122
 6436W        W10487   7.580  10.187  10.228  0.1625  0.3002  0.0612
 6437W        W10488   0.208   5.999   1.006  0.0396  0.0258  0.0972
 6438W        W10489   3.740   1.838   9.355 -0.1565  0.0017  0.1670
 6439W        W10490   8.053   9.802  13.573 -0.0311  0.0262  0.1118
 6440W        W10491   5.917   2.116   3.964  0.2148  0.0996  0.4213
 6441W        W10492   6.091   2.180   9.707  0.1046  0.2071 -0.1255
 6442W        W10493   9.628   6.417   1.272 -0.2667  0.1368  0.1007
 6443W        W10494   8.267   1.659  12.578  0.0726 -0.3516 -0.1278
 6444W        W10495   0.405   2.322   4.582  0.1355 -0.1487  0.1647
 6445W        W10496   7.777   3.029  13.911  0.0897 -0.0537 -0.0203
 6446W        W10497   6.302   0.899   0.012 -0.0144  0.1145  0.0356
 6447W        W10498   8.358   1.477   1.144 -0.1862 -0.0621 -0.0700
 6448W        W10499   8.604   2.988   4.627 -0.1976 -0.1448  0.0264
 6449W        W10500   4.691   9.808  12.244 -0.4269  0.2156  0.2503
 6450W        W10501   9.780   0.940  13.735  0.2428 -0.1445  0.4198
 6451W        W10502   9.678  10.032  12.129  0.3351  0.0186 -0.0539
 6452W        W10503   9.874   8.669   2.641  0.4952  0.2793  0.0931
 6453W        W10504   2.397   2.612  11.167 -0.4670 -0.1981  0.1333
 6454W        W10505   3.618   7.475   2.917  0.0769 -0.0356  0.2234
 6455W        W10506   4.186   4.600  12.652  0.1604  0.2108 -0.2353
 6456W        W10507   5.294   5.402   0.731 -0.2178 -0.1444 -0.0039
 6457W        W10508   1.778   5.252   3.246  0.3085 -0.1417  0.3970
 6458W        W10509   5.724   2.214   5.091 -0.1568  0.2116  0.0865
 6459W        W10510   2.549   3.536   0.262 -0.3634  0.0329 -0.1247
 6460W        W10511   9.195   2.710  12.697  0.0909  0.2589  0.3559
 6461W        W10512   5.884   0.280   3.144 -0.1336 -0.2981 -0.1242
 6462W        W10513   2.059   1.448   3.462 -0.2849  0.1647 -0.2746
 6463W        W10514   6.130   7.288  10.311 -0.2215  0.0098  0.1271
 6464W        W10515   7.451   9.773  11.407 -0.2839  0.2083 -0.2272
 6465W        W10516   3.478   1.250  10.995 -0.2160 -0.2691  0.3117
 6466W        W10517   9.519   7.401  11.455  0.2378 -0.1966  0.1014
 6467W        W10518   8.549   0.634  13.682 -0.3733 -0.0851  0.0481
 6468W        W10519   4.566   9.892  12.766  0.3273  0.0900 -0.1265
 6469W        W10520   0.779   1.095   9.224  0.0313 -0.0589  0.1568
 6470W        W10521   0.909   7.497   0.030 -0.0372 -0.0912  0.0634
 6471W        W10522   8.230   5.920  11.502 -0.0241  0.0401 -0.0116
 6472W        W10523   1.707   8.176   0.467 -0.0281  0.0532  0.0832
 6473W        W10524   8.308   1.849   3.093  0.0299 -0.0607  0.0085
 6474W        W10525   9.646   9.709   1.952  0.1839 -0.3720 -0.1239
 6475W        W10526   7.170   0.063  13.730 -0.1125 -0.3031  0.2752
 6476W        W10527   3.974   0.940   9.560 -0.3157 -0.0771  0.1978
 6477W        W10528   6.274   1.550   4.007 -0.1243 -0.0594  0.2340
 6478W        W10529   3.929   8.713  10.740 -0.0794  0.2444 -0.1913
 6479W        W10530   5.029   8.070   9.695  0.0113 -0.0523  0.0554
 6480W        W10531   0.893   2.499   0.419 -0.0373 -0.0689  0.0908
 6481W        W10532   2.853   5.257   0.494  0.0160 -0.1932  0.0382
 6482W        W10533   5.529   1.021  11.463 -0.4840 -0.0485  0.2390
 6483W        W10534   2.594   0.293   1.030 -0.3307  0.0586 -0.0515
 6484W        W10535   5.596   3.071  11.062  0.0622 -0.0793  0.1445
 6485W        W10536   6.462   6.471   0.148 -0.1869  0.0679  0.0057
 6486W        W10537   6.587   1.713   2.846  0.2676 -0.0923  0.2004
 6487W        W10538   8.901   0.033   2.312  0.0264  0.1811  0.2058
 6488W        W10539   4.206   3.143   1.872  0.3365  0.2615  0.0155
 6489W        W10540   4.466   0.387   0.242  0.1045 -0.2739 -0.1276
 6490W        W10541   2.196   3.412   8.409 -0.1766 -0.2053  0.1978
 6491W        W10542   3.205   4.372  12.906  0.2545  0.2031  0.1067
 6492W        W10543   3.104   6.414   3.521  0.0527  0.0573 -0.1282
 6493W        W10544   3.513   9.388  10.225 -0.1541  0.0648  0.2028
 6494W        W10545   3.667   3.079  10.192 -0.0491  0.0851  0.0705
 6495W        W10546   3.047   6.405  12.259  0.0507  0.1017 -0.2744
 6496W        W10547   3.527   7.472   9.452 -0.2617  0.0849  0.0737
 6497W        W10548   9.631   8.191  12.781 -0.0362 -0.1907  0.0511
 6498W        W10549   1.763   1.762   4.179 -0.2047  0.3474 -0.4706
 6499W        W10550   7.245   8.242   2.686 -0.2652 -0.0825  0.3092
 6500W        W10551   3.744   8.730   1.076 -0.0234 -0.0305  0.2100
 6501W        W10552   4.485   5.439   9.531  0.4277 -0.0535 -0.3308
 6502W        W10553   2.373   1.306   0.650  0.0601 -0.0035 -0.0067
 6503W        W10554   7.278   3.349   1.959 -0.1800 -0.0767 -0.4205
 6504W        W10555   6.083   4.775  11.338  0.0905  0.2132 -0.0668
 6505W        W10556   5.103   1.410   2.791  0.0836 -0.4662 -0.1088
 6506W        W10557   0.017   2.333  13.538  0.0752  0.1003 -0.2452
 6507W        W10558   3.687   4.125   5.665  0.1227 -0.1545 -0.1194
 6508W        W10559   0.049   4.417   0.562 -0.1775 -0.3307  0.2920
 6509W        W10560   7.297   0.839   5.508  0.0412  0.0633 -0.0900
 6510W        W10561   7.496   3.269   9.991  0.2875  0.1416  0.2800
 6511W        W10562   7.413   1.436   0.424 -0.0175  0.0293 -0.0276
 6512W        W10563   2.790   7.940  11.597 -0.1625  0.3241 -0.1974
 6513W        W10564   5.197   1.700   8.622  0.1445 -0.2054  0.2767
 6514W        W10565   0.997   7.957  13.719 -0.1749 -0.1007  0.1987
 6515W        W10566   6.701   4.025   0.702  0.1605  0.2503  0.0686
 6516W        W10567   9.685   2.437  10.556  0.0307  0.0173  0.0776
 6517W        W10568   8.475   8.919  10.638  0.0291  0.1357  0.1558
 6518W        W10569   0.862   1.452   4.415  0.2948 -0.4528  0.0657
 6519W        W10570   1.761   6.954  10.356  0.1221  0.1531  0.1132
 6520W        W10571   0.730   4.415  10.669 -0.2539 -0.1510 -0.1035
 6521W        W10572   6.176   2.063  12.687 -0.3245 -0.0134  0.2690
 6522W        W10573   3.193   5.235  13.520 -0.0388  0.2858 -0.1101
 6523W        W10574   6.143   2.290   0.471 -0.2725  0.1875  0.4353
 6524W        W10575   9.674   1.706  13.176 -0.0390  0.0584 -0.1757
 6525W        W10576   3.068   0.350   0.391 -0.2971 -0.3258 -0.2602
 6526W        W10577   9.027   8.184   1.453  0.0193 -0.0381  0.0823
 6527W        W10578   3.731   3.768   4.654  0.3056  0.1878 -0.1946
 6528W        W10579   3.066   0.100   1.619  0.2480 -0.0803 -0.2090
 6529W        W10580   5.227   0.457   5.094  0.0175 -0.1797  0.3162
 6530W        W10581   2.109   2.359   3.170 -0.0395 -0.1635  0.1857
 6531W        W10582   0.972   1.918  10.262 -0.0006 -0.0811  0.2414
 6532W        W10583   5.143   8.046   4.572  0.0726 -0.1247  0.2065
 6533W        W10584   4.854   5.057   9.623  0.0809  0.0293  0.1510
 6534W        W10585   5.550  10.174  13.326  0.3366  0.1153 -0.2819
 6535W        W10586   9.308   1.344   1.671  0.2752 -0.2464  0.0260
 6536W        W10587   7.767   3.375  11.462 -0.3937  0.1730 -0.0656
 6537W        W10588   3.625   1.292  12.589 -0.0610 -0.3924  0.0179
 6538W        W10589   9.867   0.102  11.076  0.1556 -0.0526 -0.3351
 6539W        W10590   0.601   7.480  10.459 -0.3365 -0.4282 -0.2723
 6540W        W10591   3.517   2.847   2.224  0.0286  0.1269 -0.0681
 6541W        W10592   1.405   2.600  11.781  0.0512 -0.0171 -0.4438
 6542W        W10593   0.728   6.077  11.994  0.0352 -0.0979 -0.3578
 6543W        W10594   4.464   9.427  11.611 -0.0847 -0.1635  0.3598
 6544W        W10595   5.127   4.175   4.257  0.1481  0.0108  0.1853
 6545W        W10596   3.073   8.465   3.601  0.2487 -0.2558 -0.0261
 6546W        W10597   8.779   8.562  11.970  0.1474 -0.2923 -0.1352
 6547W        W10598   7.768   3.544   3.855 -0.1432 -0.0627  0.1574
 6548W        W10599   0.064   5.270   0.608  0.2444  0.0926  0.0168
 6549W        W10600   2.635   3.403   2.060  0.0273 -0.0905  0.1916
 6550W        W10601   8.642   1.521   3.547 -0.1448  0.4085 -0.4105
 6551W        W10602   3.101   6.828   1.332  0.4109 -0.5468 -0.1176
 6552W        W10603   7.932   5.017   1.749  0.5310  0.1295  0.3267
 6553W        W10604   2.950   2.846   2.767 -0.0884 -0.0132 -0.1348
 6554W        W10605   5.038   2.536   2.901  0.2791  0.2227  0.0909
 6555W        W10606   6.586   9.388   9.761  0.2465  0.1113 -0.0793
 6556W        W10607   5.778   7.733  12.150  0.1595  0.0763  0.4189
 6557W        W10608   4.418   2.649   3.164  0.1743  0.2610 -0.0558
 6558W        W10609   5.945   8.930  12.401 -0.0452  0.0674  0.1243
 6559W        W10610   0.440   5.795  13.092  0.1288  0.0002  0.2309
 6560W        W10611   9.396   6.018  12.076 -0.1721  0.1119 -0.2378
 6561W        W10612   8.430   7.641   0.288  0.2195 -0.1641  0.3148
 6562W        W10613   6.334   6.775  12.393 -0.1100  0.2661 -0.1895
 6563W        W10614   1.631   2.424   3.509  0.0646 -0.0194 -0.1198
 6564W        W10615   8.476   1.430   5.993 -0.1402  0.0317  0.0563
 6565W        W10616   4.163   9.268   2.143 -0.0764  0.1700  0.0403
 6566W        W10617   8.866   2.960  13.703  0.3583 -0.4419  0.3519
 6567W        W10618   2.088   1.328   8.971  0.2511 -0.0826  0.0723
 6568W        W10619   1.791   0.411   0.617  0.1443  0.0589  0.0081
 6569W        W10620   5.079   0.309   1.122  0.2113  0.0082  0.1151
 6570W        W10621   0.800   5.717  11.595 -0.3599  0.1079  0.1660
 6571W        W10622   8.899   2.198  13.052  0.2387 -0.0919  0.2952
 6572W        W10623   4.633   0.906   8.922  0.2742  0.2334 -0.2417
 6573W        W10624   1.089   7.025  11.198 -0.1492 -0.0078  0.1208
 6574W        W10625   9.236   7.150   0.960  0.0066 -0.0696 -0.1432
 6575W        W10626   7.958   3.022   2.548  0.1355  0.2380  0.0281
 6576W        W10627   4.591   4.497  10.081 -0.4825 -0.1602 -0.0723
 6577W        W10628   8.392   2.189  12.797 -0.0537  0.4886  0.3491
 6578W        W10629   4.900   0.556   0.121  0.2381  0.1701 -0.3466
 6579W        W10630   1.448   9.939   4.365  0.1126  0.0125  0.1203
 6580W        W10631   1.786   3.407   0.071 -0.3238 -0.4761 -0.0354
 6581W        W10632   9.623   1.738   3.556 -0.0270 -0.1359 -0.0613
 6582W        W10633   3.910   2.981   2.602 -0.7023  0.2112 -0.3442
 6583W        W10634   9.496   1.509  10.419 -0.2631  0.0401 -0.1467
 6584W        W10635   1.896   4.521   9.778  0.0948  0.1796  0.2910
 6585W        W10636   5.540   6.763  13.235  0.5128  0.1143  0.2289
 6586W        W10637   4.710   4.365  12.787 -0.0759 -0.4518 -0.0096
 6587W        W10638   1.816   4.274  12.306  0.1752  0.3357 -0.2059
 6588W        W10639   5.345   6.037  10.944  0.0914  0.0420 -0.1226
 6589W        W10640   5.334   5.319   9.928 -0.1749  0.0649  0.1413
 6590W        W10641   0.314   6.426  11.453 -0.1816  0.2131  0.0492
 6591W        W10642   7.546   0.667   0.583  0.0210 -0.3255 -0.1068
 6592W        W10643   5.638   8.529  10.888  0.1639  0.2020 -0.1648
 6593W        W10644   1.412   9.320  10.233 -0.0703 -0.0611  0.2639
 6594W        W10645   1.384   7.434  10.971  0.2571  0.0541 -0.1081
 6595W        W10646   9.353   9.538  10.947  0.0393  0.2085 -0.1882
 6596W        W10647   8.520   3.047   1.929 -0.0685 -0.1271 -0.2254
 6597W        W10648   6.235   8.551   2.176  0.1457 -0.0114 -0.0795
 6598W        W10649   1.657   2.133  11.735  0.0561  0.3036 -0.0646
 6599W        W10650   0.088   0.536   3.448  0.3517 -0.0673 -0.0272
 6600W        W10651   3.776   7.288  12.858 -0.2546 -0.1709 -0.3411
 6601W        W10652   3.236   1.100   3.894 -0.1111  0.0578  0.2224
 6602W        W10653   2.346   0.720   0.022 -0.0615  0.2010 -0.4946
 6603W        W10654   0.305   3.357   9.449 -0.3092 -0.2450 -0.1165
 6604W        W10655   7.684   0.194  13.818 -0.0080 -0.1033  0.1943
 6605W        W10656   8.574   6.862  12.719 -0.2030 -0.0354  0.1326
 6606W        W10657   0.208   0.728   2.550  0.0066 -0.2479 -0.0427
 6607W        W10658   7.188   9.389  12.786 -0.1101 -0.2234 -0.0777
 6608W        W10659   1.133   9.922  10.477  0.1350 -0.0121 -0.1550
 6609W        W10660   2.142   3.971   3.537 -0.3242  0.1821  0.1619
 6610W        W10661   7.103   5.897   2.630 -0.5174  0.1712  0.2869
 6611W        W10662   6.517   2.796   4.874 -0.0111 -0.1099  0.2895
 6612W        W10663   5.810   2.626  10.391 -0.1452 -0.3286 -0.0082
 6613W        W10664   2.189   8.801   2.873  0.0578 -0.3725 -0.0332
 6614W        W10665   0.485   2.543   1.080  0.1872 -0.0622  0.2060
 6615W        W10666   7.942   6.544  11.941  0.0860 -0.0458 -0.2577
 6616W        W10667  10.084   4.235   3.074 -0.0822  0.0513  0.2742
 6617W        W10668   3.498   8.977   1.426 -0.0831  0.1536 -0.0037
 6618W        W10669   8.707   9.264   1.700 -0.2270 -0.1465  0.0419
 6619W        W10670   8.888   0.560   0.180 -0.2176  0.1645  0.0437
 6620W        W10671   7.930   2.358  11.689 -0.2939  0.2145  0.0243
 6621W        W10672   4.752   8.653  11.073  0.1783  0.2003 -0.0152
 6622W        W10673   0.748   8.471  13.945  0.1127  0.2791 -0.0380
 6623W        W10674   9.793   1.809  12.203 -0.0313  0.1656  0.0332
 6624W        W10675   2.672   4.330   3.143  0.2130  0.1008 -0.0243
 6625W        W10676   2.315   9.787  11.542  0.4395  0.1427 -0.3715
 6626W        W10677   6.597   5.480  12.811 -0.0911 -0.0571 -0.1042
 6627W        W10678   3.650   6.711   0.540 -0.0885  0.0279 -0.1136
 6628W        W10679   7.265   7.121  13.208 -0.0729  0.1749  0.1063
 6629W        W10680   3.306   9.890  12.046 -0.2765  0.1464 -0.0283
 6630W        W10681   9.826   0.156  12.930 -0.1936 -0.0916  0.3137
 6631W        W10682   0.777   1.775   3.982  0.1508  0.1893 -0.0146
 6632W        W10683   4.291   8.175   4.225  0.1574 -0.0416  0.0498
 6633W        W10684   4.669   5.793   0.329 -0.0295  0.0595  0.1881
 6634W        W10685   9.255   7.913  12.488 -0.0424 -0.2079 -0.0691
 6635W        W10686   0.843   0.172   9.051 -0.4139 -0.0361  0.2168
 6636W        W10687   4.749   1.840  10.758  0.0353 -0.0278  0.0450
 6637W        W10688   4.926   9.551  13.547  0.2557 -0.1503  0.0122
 6638W        W10689   6.635   8.441  10.305 -0.0694  0.0976 -0.0447
 6639W        W10690   2.547   3.636  12.602 -0.0917 -0.1094 -0.0472
 6640W        W10691   6.604   4.588  10.191  0.1742  0.1009  0.1565
 6641W        W10692   3.077   5.742  11.627 -0.1394 -0.0465  0.0814
 6642W        W10693   6.565   2.111  13.110  0.1714 -0.0393 -0.0017
 6643W        W10694   4.502   6.105  13.282 -0.0905  0.0527 -0.0687
 6644W        W10695   6.081   6.517  13.191  0.3343 -0.1286  0.1855
 6645W        W10696   6.839   5.466   3.256 -0.2577  0.1288  0.1991
 6646W        W10697   0.649  10.036   5.037 -0.0080  0.1595  0.2838
 6647W        W10698   3.867   4.239   0.868  0.2275 -0.1383  0.1501
 6648W        W10699   2.358   7.355  10.149  0.0151  0.0055 -0.0928
 6649W        W10700   2.700   0.185   2.793  0.0954 -0.1472 -0.1109
 6650W        W10701   4.268   2.023   0.502  0.1957 -0.1531  0.0762
 6651W        W10702   0.450   3.702   3.776  0.0555  0.0828  0.2983
 6652W        W10703   6.157   7.072  12.064  0.2454 -0.1633  0.1933
 6653W        W10704   6.627   4.116  12.640 -0.3235 -0.4062  0.1638
 6654W        W10705   4.398   2.942  10.037 -0.1216  0.0668 -0.3787
 6655W        W10706   6.175   9.508  12.504  0.2748 -0.0821 -0.3041
 6656W        W10707   3.544   8.365   2.173 -0.1212 -0.2397  0.2656
 6657W        W10708   1.269   2.450  12.255 -0.2450  0.1751 -0.1620
 6658W        W10709   2.088   5.012  13.764 -0.1226 -0.2050  0.1885
 6659W        W10710   1.645   5.355   2.217 -0.2877 -0.1192 -0.0675
 6660W        W10711   5.515   7.870  13.517 -0.2160 -0.1898  0.3814
 6661W        W10712   8.502   5.701   4.363 -0.2607 -0.1812  0.0159
 6662W        W10713   2.393   1.094  13.677 -0.2201 -0.0862 -0.0684
 6663W        W10714   7.438   4.606   4.336  0.1792  0.0114  0.2010
 6664W        W10715   9.267   2.768   2.276  0.1420 -0.0075 -0.1105
 6665W        W10716   8.971   9.835   4.765 -0.1276 -0.0060  0.4093
 6666W        W10717   8.005   5.814   2.646  0.2686 -0.1602 -0.1478
 6667W        W10718   1.345   4.532   2.588 -0.4401  0.1148 -0.0039
 6668W        W10719   3.237   3.086   0.370 -0.0427  0.1377  0.0067
 6669W        W10720   5.005   8.367   0.210 -0.0638 -0.0924 -0.1554
 6670W        W10721  10.165  10.163   2.029  0.1312 -0.3028 -0.0781
 6671W        W10722   0.651   3.667   5.017 -0.4645  0.0590  0.2556
 6672W        W10723  10.148   6.698  12.140  0.1822  0.0850 -0.0143
 6673W        W10724   9.210   1.073   4.587 -0.2807 -0.0220  0.5098
 6674W        W10725   5.617   2.991   2.096 -0.0685  0.3608  0.0573
 6675W        W10726   3.037   1.901   1.817 -0.1131  0.0449  0.1807
 6676W        W10727   6.258   8.355   0.568 -0.1920 -0.0254 -0.0395
 6677W        W10728   8.843   6.346   1.377 -0.0501  0.0142 -0.3372
 6678W        W10729   5.334   1.348  12.389  0.0635  0.0976 -0.0400
 6679W        W10730   5.527   1.974   2.087 -0.1783 -0.2695  0.1970
 6680W        W10731   9.650   6.429  12.941 -0.1750  0.0698  0.1137
 6681W        W10732   7.336   8.534   3.850  0.0361  0.0819  0.3007
 6682W        W10733   2.157   6.823   1.925  0.1342 -0.1215 -0.0702
 6683W        W10734   1.279   2.889   2.411  0.1047  0.1459  0.1681
 6684W        W10735   2.316   0.131  13.374 -0.3208 -0.0560  0.1690
 6685W        W10736   2.943   8.430   2.227 -0.0068 -0.1595  0.0297
 6686W        W10737   7.582   0.430  12.393  0.1367  0.0802 -0.1245
 6687W        W10738   0.577   1.088   9.682  0.1720 -0.0161  0.0111
 6688W        W10739   1.147   2.259  12.744  0.1565 -0.2810 -0.3250
 6689W        W10740   4.679   6.467  13.573 -0.0960  0.0833  0.2500
 6690W        W10741   0.934   0.732  11.308  0.0446 -0.0734  0.0010
 6691W        W10742   3.871   3.333   0.149 -0.2129  0.0953  0.0038
 6692W        W10743   7.887   4.179   3.046  0.1437  0.0153  0.0267
 6693W        W10744   1.926   5.132  10.504  0.0233 -0.0916 -0.0466
 6694W        W10745   0.974   6.336  10.521 -0.2684 -0.1468 -0.1301
 6695W        W10746   3.389   3.782  13.761  0.1068  0.1345  0.1322
 6696W        W10747   3.950   7.010  10.854  0.0445 -0.3148 -0.3041
 6697W        W10748   2.335   0.465   3.331  0.4556 -0.0553 -0.0053
 6698W        W10749   2.448   6.569   4.160  0.1187  0.0465 -0.5485
 6699W        W10750   4.217   0.050  12.951 -0.1453 -0.0910 -0.1910
 6700W        W10751  10.188   7.841  13.705 -0.3032 -0.1271  0.2115
 6701W        W10752   4.658   3.900  13.444 -0.0305 -0.3372 -0.6182
 6702W        W10753   0.152   6.226  13.076 -0.2025 -0.2280  0.0300
 6703W        W10754   7.814   3.807  12.419  0.1289  0.2019 -0.0859
 6704W        W10755   9.739   8.060   0.463  0.1484  0.0114 -0.0845
 6705W        W10756   1.327   3.126   8.583  0.1097  0.0278 -0.0640
 6706W        W10757   8.753   0.989   9.908  0.3186  0.1205 -0.0497
 6707W        W10758   5.822   9.239  12.767 -0.0259 -0.1115 -0.0199
 6708W        W10759   6.994   3.965   0.312 -0.1134 -0.0153  0.1657
 6709W        W10760   2.525   0.860  13.237  0.1134  0.0089 -0.0119
 6710W        W10761   0.964   3.228  10.186  0.1068 -0.1339 -0.1134
 6711W        W10762   6.526   4.115  13.167  0.2506  0.3534 -0.1401
 6712W        W10763   0.837   3.873  12.642 -0.0923 -0.0903 -0.0740
 6713W        W10764   4.068   4.871   4.842 -0.2354  0.2172 -0.1003
 6714W        W10765   8.677   5.276   2.479  0.0291  0.1786 -0.1857
 6715W        W10766   7.210   3.583  12.523 -0.0688  0.4875 -0.4426
 6716W        W10767   6.436   1.195   5.167  0.1568  0.3287  0.0050
 6717W        W10768   3.432   1.028  13.853  0.0296 -0.3839 -0.1257
 6718W        W10769   2.420   2.929  10.526 -0.0377 -0.2769  0.0597
 6719W        W10770   4.048   5.525   3.446 -0.0118 -0.0290 -0.1432
 6720W        W10771   3.709   4.459   4.798  0.0829  0.0943 -0.0887
 6721W        W10772   3.565   7.884   1.955  0.0165 -0.0343  0.1766
 6722W        W10773   4.944   1.937  12.248 -0.2304  0.0594  0.4452
 6723W        W10774   6.784   8.937   0.054 -0.2152  0.0228 -0.0586
 6724W        W10775   9.606   6.007   3.049  0.0788  0.2723  0.0234
 6725W        W10776   9.462   9.874   0.267  0.1290 -0.0845 -0.0938
 6726W        W10777   1.023   5.978  13.223  0.2813  0.1355 -0.2812
 6727W        W10778   4.708   3.557   0.438 -0.0222 -0.2417 -0.1637
 6728W        W10779   4.743   7.244  11.309 -0.5655  0.3510  0.1591
 6729W        W10780   9.382   2.525   9.208  0.0752 -0.0190  0.1153
 6730W        W10781   6.942   0.656  10.082  0.0921  0.1457  0.1878
 6731W        W10782   4.269   1.208   9.868  0.1583  0.0989 -0.0329
 6732W        W10783   4.291   5.805  13.632  0.1865 -0.0120  0.2112
 6733W        W10784   5.403   6.751  10.365  0.0594 -0.0350  0.2941
 6734W        W10785   5.015   2.135   0.105 -0.3348 -0.1522 -0.1541
 6735W        W10786   4.400   1.527   3.335  0.0469  0.2903 -0.1750
 6736W        W10787   1.734   0.677   1.098  0.0033  0.2811 -0.1032
 6737W        W10788   8.875   4.853  13.955  0.1616 -0.0782 -0.2570
 6738W        W10789   3.508   2.347  13.317 -0.1765 -0.0602 -0.0821
 6739W        W10790   9.332   4.088  12.453 -0.2472  0.1507  0.1054
 6740W        W10791   1.044   8.042  11.312 -0.0242 -0.1675  0.2239
 6741W        W10792   1.990   0.104  11.506  0.1106 -0.1867  0.0852
 6742W        W10793   8.311   9.110  12.832 -0.1339 -0.1054  0.0919
 6743W        W10794   8.008   0.509  10.802 -0.0948  0.0495 -0.3007
 6744W        W10795   6.018   9.698   0.018 -0.2585 -0.1027 -0.0391
 6745W        W10796   1.729   1.556   2.003 -0.0777  0.3021  0.1011
 6746W        W10797   9.664   8.781  13.771  0.0178  0.1629 -0.2644
 6747W        W10798   7.263   8.190   0.107  0.0160  0.0068 -0.1402
 6748W        W10799   0.037   3.619  11.850  0.2122 -0.3760 -0.0731
 6749W        W10800   0.774   2.277   3.733 -0.1808 -0.0106 -0.2101
 6750W        W10801   4.012   9.504  11.197  0.2592  0.2710  0.1336
 6751W        W10802   8.543   6.216   2.530  0.1129 -0.2119  0.2047
 6752W        W10803   8.177   0.369  11.600 -0.4577 -0.0724 -0.1384
 6753W        W10804   1.620   0.135   0.000  0.0595  0.0764 -0.1802
 6754W        W10805   5.139   1.869   9.541 -0.0989  0.3350  0.4532
 6755W        W10806   8.690   2.588  12.690 -0.3870  0.0587  0.0910
 6756W        W10807   2.411   5.652   3.600  0.1089 -0.0620  0.1269
 6757W        W10808   4.852   8.131   2.521 -0.0523 -0.2864  0.3377
 6758W        W10809   1.016   7.717   3.629  0.3361 -0.0812  0.1868
 6759W        W10810   4.826   4.163  13.831  0.1459  0.0882  0.0220
 6760W        W10811   6.303   0.288   1.226  0.1977  0.0229  0.1256
 6761W        W10812   5.922   5.753   4.603  0.0971 -0.0236  0.0890
 6762W        W10813   1.006   9.885  11.793  0.0785  0.2218  0.1137
 6763W        W10814   6.620   2.437   0.645 -0.2187 -0.0124 -0.2576
 6764W        W10815   4.555   9.992  10.244  0.2910 -0.1257 -0.0500
 6765W        W10816   3.453   5.622  13.736  0.1732 -0.0805  0.1341
 6766W        W10817   0.266   6.658  13.740 -0.2448 -0.1550  0.1036
 6767W        W10818   7.486   8.976  11.255 -0.1718 -0.0173  0.1204
 6768W        W10819   8.095   4.345   4.804 -0.0544  0.3421  0.0719
 6769W        W10820   6.691   1.147   2.851 -0.3331 -0.0097 -0.3353
 6770W        W10821   5.462  10.166  12.833 -0.0559  0.1654 -0.2067
 6771W        W10822   0.832   0.835   3.985  0.1548  0.1547 -0.1867
 6772W        W10823   7.221   6.214  12.786 -0.2873  0.2248  0.2740
 6773W        W10824   7.569   2.351   0.500  0.1424  0.1209  0.1333
 6774W        W10825   4.160   6.179  11.270  0.1673 -0.0503 -0.0394
 6775W        W10826   7.947   1.820   1.233 -0.2569 -0.2026 -0.3114
 6776W        W10827   3.190   8.889  13.715  0.0012 -0.0444 -0.0002
 6777W        W10828   9.067   6.135  13.412 -0.0115  0.4041  0.2103
 6778W        W10829   6.631   0.131   2.208  0.0283 -0.1405 -0.0124
 6779W        W10830   8.494   0.297   2.856 -0.0518  0.2256 -0.2222
 6780W        W10831   3.780   0.951   1.188  0.1238 -0.0173 -0.2610
 6781W        W10832   1.194   8.575   9.738 -0.0399  0.0103  0.4791
 6782W        W10833   9.577   3.795   0.221 -0.1786 -0.1427 -0.2540
 6783W        W10834   4.110   6.460  12.036 -0.3338 -0.0257 -0.0476
 6784W        W10835   0.552   5.519   9.968  0.1923  0.0799  0.0699
 6785W        W10836   3.574   0.678   2.948  0.0572  0.2088 -0.1378
 6786W        W10837   4.800   8.067   3.065 -0.1630  0.2319  0.0630
 6787W        W10838   4.762   1.572   1.248 -0.0330 -0.0683 -0.0239
 6788W        W10839   5.277   8.281  12.196 -0.2289  0.4463 -0.2025
 6789W        W10840   4.378   6.886   3.820  0.1661  0.0559  0.3409
 6790W        W10841  10.143   6.742   2.909  0.2869 -0.3613  0.0257
 6791W        W10842   9.647   9.363   0.017  0.1787  0.2641 -0.0856
 6792W        W10843   6.027   0.591   0.878  0.2725 -0.0414 -0.2653
 6793W        W10844   6.345   5.152   1.621  0.2914  0.0672 -0.2115
 6794W        W10845   7.056   0.239  10.952 -0.1454  0.0905  0.0430
 6795W        W10846   2.986   7.589  12.924 -0.3011 -0.3866  0.1809
 6796W        W10847   3.233   2.389   4.625 -0.0559  0.0744  0.1474
 6797W        W10848   8.902   8.643   0.919  0.1300 -0.1425 -0.2525
 6798W        W10849   8.727   6.154  11.353 -0.3879  0.1005  0.1352
 6799W        W10850   1.498   7.641   2.328  0.0262 -0.1410 -0.2136
 6800W        W10851   4.103   4.717  10.229  0.3310 -0.2919 -0.1159
 6801W        W10852   3.838   2.428   4.560 -0.0128  0.1047  0.0081
 6802W        W10853   6.829   9.770   3.255  0.2719  0.0001  0.2000
 6803W        W10854   0.930   6.959   9.835 -0.1860  0.1160  0.1383
 6804W        W10855   4.068   2.151   1.990 -0.1547 -0.0153 -0.4377
 6805W        W10856   4.219   3.915   4.367  0.1563 -0.1157  0.0153
 6806W        W10857   1.304   0.671   0.272 -0.1295 -0.5478 -0.3487
 6807W        W10858   5.083   2.339   9.740 -0.2982  0.2243 -0.1043
 6808W        W10859   6.457   1.594   0.686  0.2353  0.3164  0.0348
 6809W        W10860   0.843   2.504  11.099 -0.2332 -0.0737 -0.2210
 6810W        W10861   8.348   7.045  13.877  0.4759 -0.3654 -0.2412
 6811W        W10862   3.985   0.191   0.448 -0.1555  0.1516  0.1147
 6812W        W10863   1.157   4.312   2.108 -0.1726 -0.0111 -0.0927
 6813W        W10864   8.650   6.120   1.890 -0.3000 -0.2102  0.0461
 6814W        W10865   6.160   8.419  10.114 -0.0242  0.1651 -0.1844
 6815W        W10866  10.000   6.891   4.205  0.1725  0.4634  0.1997
 6816W        W10867   9.328   2.473   1.876  0.1574 -0.2467  0.1504
 6817W        W10868   0.288   2.574  10.037  0.0645 -0.1078 -0.3296
 6818W        W10869   2.805   8.174  13.458  0.0025  0.0390 -0.0252
 6819W        W10870   6.528   5.883  13.907 -0.0447 -0.0835 -0.2380
 6820W        W10871  10.110   4.219  13.586 -0.3502  0.0117 -0.1808
 6821W        W10872   2.991   0.203  12.645 -0.1074 -0.0713  0.2428
 6822W        W10873   8.256   3.430   5.454  0.0515 -0.2129 -0.2053
 6823W        W10874   6.622   1.968   4.727  0.4913 -0.0916  0.1637
 6824W        W10875   9.529   8.833  11.575 -0.1015  0.0058  0.0910
 6825W        W10876   5.897   6.351  11.301 -0.0918  0.1959  0.0722
 6826W        W10877   4.827   4.231  11.679 -0.0977  0.3039 -0.2627
 6827W        W10878   7.713   1.687   6.185 -0.1550  0.5349 -0.3074
 6828W        W10879   9.790   6.400   3.653  0.1449 -0.0037 -0.1412
 6829W        W10880  10.117   4.144   8.936  0.0880 -0.0789  0.0535
 6830W        W10881   5.351   2.621  10.562  0.2043  0.1439  0.1042
 6831W        W10882   7.121   5.102   9.908 -0.1447 -0.3228  0.0649
 6832W        W10883   2.355  10.133  12.515  0.4185 -0.1912 -0.3686
 6833W        W10884   6.832   4.297   1.084 -0.1874  0.0868 -0.0147
 6834W        W10885   9.346   5.569   1.170 -0.2009  0.0006  0.0015
 6835W        W10886   9.648   7.913  10.765 -0.0442 -0.2482  0.1407
 6836W        W10887   8.981   3.721  10.676 -0.0120  0.0589 -0.0808
 6837W        W10888   5.545   2.125  11.198 -0.0447 -0.3255 -0.0672
 6838W        W10889   5.620   9.058   2.521  0.1458  0.1670  0.0559
 6839W        W10890   2.372   5.372   4.138 -0.0030  0.0807 -0.0918
 6840W        W10891   8.101   2.138   4.200  0.0203  0.1232 -0.0826
 6841W        W10892   0.098   6.244   3.009 -0.1174 -0.1316  0.1347
 6842W        W10893   2.544   0.643   2.279  0.0660 -0.3306 -0.1477
 6843W        W10894   4.624   0.230   4.367  0.0243 -0.0153 -0.0697
 6844W        W10895   4.262   3.963  11.814  0.2290  0.0817 -0.2775
 6845W        W10896   7.113   0.880   2.026 -0.1092  0.0479  0.0286
 6846W        W10897   1.815   6.559  10.860 -0.0347  0.3398  0.0063
 6847W        W10898   3.979   8.103   1.812 -0.1895 -0.4685 -0.0397
 6848W        W10899  10.136   1.101   1.298 -0.2618  0.1670  0.1151
 6849W        W10900   5.051   7.430   0.384 -0.0458 -0.3785  0.0762
 6850W        W10901   3.161   9.857  13.193  0.0134 -0.1543  0.0402
 6851W        W10902   7.187   5.613   1.645 -0.3879 -0.1028 -0.1354
 6852W        W10903   8.572   4.579  13.690 -0.4688 -0.1682 -0.0723
 6853W        W10904   9.947   1.608  13.731  0.0038  0.2603 -0.0150
 6854W        W10905   9.424   5.363  10.756 -0.2064 -0.0121  0.1123
 6855W        W10906   6.507   5.498  13.537  0.4818  0.1190 -0.0041
 6856W        W10907   2.317   3.597   1.170 -0.1488 -0.4997  0.3075
 6857W        W10908   1.686   0.607   2.702 -0.0420 -0.3132  0.3156
 6858W        W10909   6.755   5.941   2.942 -0.0023 -0.0461  0.2850
 6859W        W10910   5.740   4.576   4.965 -0.0786  0.1672  0.2816
 6860W        W10911   9.332   2.059   0.358 -0.0516  0.4398  0.0297
 6861W        W10912   0.847   4.322   9.052  0.1797 -0.1267 -0.1132
 6862W        W10913   6.024   4.888   4.668 -0.2765 -0.0300 -0.0279
 6863W        W10914   5.016   5.738   3.606  0.1151 -0.1126 -0.0676
 6864W        W10915  10.003   4.815   0.806 -0.1984 -0.2025 -0.0986
 6865W        W10916   3.235   0.063   3.243 -0.2682  0.3072  0.6274
 6866W        W10917   1.844   5.363   2.760 -0.2682 -0.1871  0.0130
 6867W        W10918   6.677   0.498   3.516  0.1420  0.2360  0.0567
 6868W        W10919   7.406   6.358   4.480  0.2943  0.2622  0.0152
 6869W        W10920   1.216   9.070   9.557  0.1530  0.0928  0.2186
 6870W        W10921   0.137   7.663   3.249 -0.4419 -0.0588  0.0922
 6871W        W10922   5.126   0.798   8.795 -0.2267  0.1477  0.2700
 6872W        W10923   4.523   5.796   2.130 -0.0920  0.0128  0.0912
 6873W        W10924   2.266   5.541   9.294 -0.0324  0.0144  0.0098
 6874W        W10925   3.169   1.345   0.246  0.0542  0.0545 -0.0835
 6875W        W10926   3.267   8.035   2.400 -0.0456  0.0208  0.2793
 6876W        W10927   7.482   9.582   1.345  0.1755 -0.2282 -0.0022
 6877W        W10928   2.810   0.870  13.928 -0.0116 -0.1893 -0.1295
 6878W        W10929   0.862   1.837  11.345 -0.1173  0.0592 -0.0392
 6879W        W10930   7.966   6.238  13.879 -0.0366 -0.1263  0.2920
 6880W        W10931   2.535   0.831   0.901 -0.0154  0.1870 -0.0335
 6881W        W10932   5.686   9.990  11.840 -0.0148  0.0892 -0.1926
 6882W        W10933   2.285   8.267  11.869 -0.1163  0.0791  0.0723
 6883W        W10934   0.418   5.188  12.314 -0.0479 -0.2098 -0.0069
 6884W        W10935   8.911   9.626  10.690 -0.0867 -0.0033  0.2061
 6885W        W10936   7.543   4.465   3.184  0.0248 -0.1643 -0.1370
 6886W        W10937   5.615   8.001   2.858  0.2190  0.3956  0.0723
 6887W        W10938   5.079   6.144   3.908 -0.1227 -0.1577  0.1193
 6888W        W10939   4.961   7.096   3.175 -0.2287 -0.0063  0.2211
 6889W        W10940   6.131   5.572  13.201 -0.0039  0.0722 -0.0505
 6890W        W10941   7.528   4.132   5.085  0.0931 -0.0546  0.3863
 6891W        W10942   6.237   3.568   1.441 -0.2674 -0.2750  0.0906
 6892W        W10943   4.312   1.796   1.168 -0.0269  0.0837 -0.0343
 6893W        W10944  10.096   6.785  11.586  0.0453 -0.0460 -0.0118
 6894W        W10945   0.568   2.913   3.373  0.0653 -0.2434  0.1816
 6895W        W10946   6.370   3.007   4.249  0.0407 -0.3062  0.0255
 6896W        W10947   6.852   0.926  10.795 -0.0416  0.4698  0.3177
 6897W        W10948   4.274   1.227   0.413 -0.3443  0.3043  0.0867
 6898W        W10949   6.176   0.538   3.539 -0.2050  0.2688  0.0073
 6899W        W10950   0.403   8.625   9.289 -0.1264 -0.1096  0.0962
 6900W        W10951   3.459   9.831   3.239  0.0982 -0.0519  0.2239
 6901W        W10952   5.243  10.162   0.738  0.2052 -0.3952  0.3248
 6902W        W10953   5.024   0.586  10.644  0.2718 -0.2382  0.1882
 6903W        W10954   1.374   9.382   0.117 -0.0447  0.4299 -0.0002
 6904W        W10955   0.443   1.189  12.869 -0.0577 -0.0640 -0.0933
 6905W        W10956   3.075   4.235  10.604  0.0568 -0.0899  0.0047
 6906W        W10957   3.767   5.766   0.743  0.0563 -0.1304 -0.3033
 6907W        W10958   7.957   1.924   1.685 -0.2062  0.1580 -0.2227
 6908W        W10959   0.634  10.053  12.170  0.1561 -0.1838  0.1097
 6909W        W10960   3.922   9.959  11.002  0.0314  0.1214  0.0926
 6910W        W10961   5.568   1.770   0.950 -0.2060 -0.1697  0.1747
 6911W        W10962   9.714   6.936  11.262 -0.0579  0.1842 -0.2665
 6912W        W10963   6.365   9.609   2.983  0.0747  0.2115 -0.0663
 6913W        W10964   8.157   8.380   0.183 -0.2623 -0.2948  0.0277
 6914W        W10965  10.083   1.129   0.491  0.0806  0.0758 -0.0442
 6915W        W10966   2.200   0.107   9.577 -0.1917 -0.2254 -0.0431
 6916W        W10967   3.345   6.347   2.124  0.0377 -0.2651 -0.1248
 6917W        W10968   2.185   3.577   9.703 -0.0875 -0.1781  0.3302
 6918W        W10969   3.224   7.126   9.305 -0.0818  0.0541 -0.0191
 6919W        W10970   7.129   0.903  11.228 -0.2592 -0.0967  0.0845
 6920W        W10971   4.120   8.903   7.733 -0.1705 -0.0188  0.0200
 6921W        W10972   6.790   7.350  11.837  0.1803 -0.1680  0.1936
 6922W        W10973   6.882   4.885   0.221 -0.0923  0.0243  0.0445
 6923W        W10974   3.516   6.926   3.156  0.1426  0.1860  0.1277
 6924W        W10975   9.163   6.565  12.909 -0.4318  0.0551 -0.1278
 6925W        W10976   8.158   4.864  13.498 -0.0618  0.2543  0.1830
 6926W        W10977   0.600   9.180   3.433 -0.2398 -0.1854  0.3810
 6927W        W10978   1.518   4.253   4.162 -0.0335  0.1868  0.0241
 6928W        W10979   1.590   7.623  11.367  0.0018  0.2745 -0.1039
 6929W        W10980  10.119   0.136  11.947 -0.3496  0.0829 -0.0932
 6930W        W10981   8.256   3.453   2.910  0.0781  0.1640 -0.0009
 6931W        W10982   9.624   4.818   1.719  0.1997  0.2921  0.3203
 6932W        W10983   3.080   3.791  13.336  0.0099 -0.1219 -0.0117
 6933W        W10984   8.494   4.712  13.128  0.0199 -0.1806  0.2511
 6934W        W10985   6.456   1.403   3.230 -0.0970  0.3915  0.1518
 6935W        W10986   8.292   9.640   1.775 -0.0939  0.0874 -0.1198
 6936W        W10987   2.348   9.241   9.191 -0.1725 -0.2276 -0.1701
 6937W        W10988   4.191   4.077  13.679  0.1425  0.0468  0.0214
 6938W        W10989   1.245   3.198  13.314 -0.0555  0.0101 -0.3292
 6939W        W10990   0.312   1.233   3.221  0.0995  0.0224 -0.2923
 6940W        W10991   1.104   3.900   1.864 -0.1268  0.0343 -0.2366
 6941W        W10992   3.272   7.060   2.713  0.1644 -0.0129  0.2037
 6942W        W10993   7.807   2.005  11.182  0.1332 -0.1311  0.3722
 6943W        W10994   9.280   8.187   2.752 -0.1833  0.0672  0.0961
 6944W        W10995   8.377   2.519  11.887 -0.0978 -0.0065 -0.3553
 6945W        W10996   1.536   1.634  11.952  0.1187 -0.1284  0.1897
 6946W        W10997   6.949   6.884  12.304 -0.2666 -0.2947 -0.2021
 6947W        W10998   1.927   4.107   2.102 -0.0204 -0.4676 -0.3673
 6948W        W10999   2.730   0.435  13.414 -0.0447  0.0484 -0.1031
 6949W        W11000   0.455   5.667  13.808  0.1968  0.0108 -0.1558
 6950W        W11001   7.812   8.013  12.393  0.3263  0.0186 -0.0816
 6951W        W11002   9.301   0.104  12.448  0.4128 -0.1400 -0.1076
 6952W        W11003   4.910   4.975   4.044 -0.2361  0.1744 -0.0272
 6953W        W11004   1.721   8.316  13.157 -0.2895 -0.2287  0.0432
 6954W        W11005   6.244   0.650   0.439  0.0122 -0.2515  0.1677
 6955W        W11006   1.535   3.535   5.262  0.1425  0.1101 -0.1403
 6956W        W11007   1.784   5.491   9.440 -0.0724 -0.0725 -0.2986
 6957W        W11008   1.882   8.486   0.082 -0.3382  0.1761  0.0066
 6958W        W11009   9.491   1.493   9.646  0.0912 -0.0277  0.1453
 6959W        W11010   7.766   6.300   2.125  0.2140 -0.0124 -0.1635
 6960W        W11011   1.699   7.799  13.018 -0.2301  0.0369 -0.2560
 6961W        W11012   2.953   5.428  10.755  0.2871  0.0059  0.0663
 6962W        W11013   4.696   1.061   1.366  0.0922  0.0278 -0.5068
 6963W        W11014   3.815   5.519  12.412 -0.0435 -0.0028 -0.0699
 6964W        W11015   1.449   8.651   0.322 -0.2818  0.0885  0.3460
 6965W        W11016   3.592   5.450   3.213  0.2189 -0.2416 -0.0346
 6966W        W11017   4.541   3.063   4.451 -0.1358  0.0108 -0.1183
 6967W        W11018   5.930   3.233  13.254  0.2266 -0.2207  0.1505
 6968W        W11019   8.670   7.400   1.590  0.2353 -0.0156  0.1296
 6969W        W11020   6.568   7.204   0.694 -0.2218 -0.1409 -0.1672
 6970W        W11021   5.315   1.501   4.341 -0.1788  0.1989  0.1663
 6971W        W11022   2.828   3.763  11.812  0.2329  0.1939 -0.1856
 6972W        W11023   9.771   8.528   0.687  0.2549 -0.0082 -0.2235
 6973W        W11024   5.615   3.185  10.067  0.3060  0.3364  0.1394
 6974W        W11025   8.317   1.311   5.548  0.0569  0.0240  0.0374
 6975W        W11026   0.878   0.019   1.970  0.1323  0.1190 -0.1842
 6976W        W11027   4.716   4.243   1.316 -0.2632 -0.2572 -0.0533
 6977W        W11028   8.301   1.928  11.413 -0.0414 -0.3979  0.1781
 6978W        W11029   5.758   7.965   1.451 -0.0858 -0.0154 -0.1609
 6979W        W11030   3.116   3.363  11.577  0.1079 -0.0790  0.1412
 6980W        W11031   4.801   2.867  11.658  0.3093  0.1236  0.3644
 6981W        W11032   9.007   0.662   3.822  0.0143 -0.0156 -0.0523
 6982W        W11033   6.564   1.749   3.647 -0.1310  0.0788  0.1888
 6983W        W11034   6.077   3.282   2.094 -0.3407 -0.2104 -0.0585
 6984W        W11035   4.540   4.884   1.666  0.0631 -0.0756  0.0530
 6985W        W11036   9.151   8.702  10.735  0.3281 -0.2523  0.4626
 6986W        W11037   2.609   9.274  13.904  0.1183  0.1829 -0.2222
 6987W        W11038   0.118   2.841  12.463 -0.1280  0.1557  0.0320
 6988W        W11039   9.132   2.699   1.340 -0.2010 -0.1219 -0.0852
 6989W        W11040   4.525   9.495   3.758  0.3655 -0.0883 -0.0723
 6990W        W11041   9.574   3.567   0.625  0.2630  0.3196  0.0902
 6991W        W11042   4.161   5.005   2.454 -0.3571 -0.1299  0.2559
 6992W        W11043   3.448   3.973   1.711  0.1878 -0.3282 -0.0612
 6993W        W11044   6.553   4.202   4.711  0.0889 -0.0320  0.0233
 6994W        W11045   5.929   5.549   3.660 -0.0485 -0.1378 -0.0180
 6995W        W11046   6.738   4.356  12.191  0.1365 -0.1316  0.2838
 6996W        W11047   4.289   2.699  10.868 -0.3715 -0.0780  0.0620
 6997W        W11048   2.784   5.453  12.627 -0.0976 -0.0687 -0.2340
 6998W        W11049   4.494   6.245   0.113  0.1137  0.5072 -0.0869
 6999W        W11050   4.128   2.929  10.415 -0.2265  0.1442 -0.0253
 7000W        W11051   7.394   2.808  10.797  0.0127 -0.0785 -0.0385
 7001W        W11052   7.106   3.378   9.671 -0.0201 -0.2428 -0.3387
 7002W        W11053   3.914   4.685  13.648  0.0224 -0.3683 -0.1053
 7003W        W11054   3.622   3.146   3.477  0.0655  0.1434  0.1839
 7004W        W11055   0.254   5.963  12.666 -0.1170 -0.1774  0.0071
 7005W        W11056   1.323   3.478   9.969  0.1117  0.0423 -0.1048
 7006W        W11057   5.238   8.859  12.095 -0.0710 -0.4352  0.1489
 7007W        W11058   5.956   8.627   3.482  0.0011 -0.1808 -0.2721
 7008W        W11059   7.646   3.000  11.794 -0.0140  0.0050  0.0173
 7009W        W11060   1.024   2.476  13.302  0.0859 -0.1853 -0.1352
 7010W        W11061   3.523   9.819  11.530  0.1133  0.0330  0.0381
 7011W        W11062   2.398   5.220  10.655 -0.4065 -0.1690  0.0491
 7012W        W11063   9.158   6.485  12.085 -0.0172 -0.0709  0.0806
 7013W        W11064   3.084   3.017   3.661 -0.0694 -0.0300 -0.1264
 7014W        W11065   1.885   4.923  13.024 -0.0686  0.0458  0.2183
 7015W        W11066   6.744   3.955  13.673 -0.0995 -0.0206  0.2263
 7016W        W11067   9.699   5.980   4.288 -0.1569 -0.0449  0.0361
 7017W        W11068   2.864   7.453  11.661 -0.2208  0.0877 -0.0884
 7018W        W11069   3.254   6.859  12.262 -0.0663  0.1140 -0.1909
 7019W        W11070   2.699   5.750   2.649 -0.0443  0.0631  0.0111
 7020W        W11071   3.887  10.175  13.853  0.0821  0.2534 -0.1039
 7021W        W11072   3.119   7.063   0.493 -0.1396 -0.2644  0.4202
 7022W        W11073   9.657   3.757   1.644  0.3474 -0.0206 -0.1873
 7023W        W11074   4.050   6.974   4.492 -0.0110  0.3042 -0.1239
 7024W        W11075   0.023   7.109   0.616  0.1496 -0.0507 -0.2496
 7025W        W11076   0.756   5.131  10.684  0.0376  0.2887  0.3977
 7026W        W11077   4.892   2.276   1.838 -0.0059  0.1015 -0.2070
 7027W        W11078   9.796   3.480   4.086  0.1239 -0.1755 -0.3933
 7028W        W11079   4.043   0.346   2.967  0.0137 -0.2083  0.1532
 7029W        W11080   2.720   0.379  13.965 -0.2918 -0.1669 -0.3969
 7030W        W11081   1.157   7.429   9.661  0.6319 -0.0553 -0.0478
 7031W        W11082   4.645   9.312   1.899  0.2203 -0.0023 -0.2237
 7032W        W11083   3.912   5.426  11.911 -0.0399 -0.0205  0.1206
 7033W        W11084   7.921   9.053  10.913 -0.1772 -0.2876 -0.3240
 7034W        W11085   3.670   8.464   4.765 -0.1158 -0.0817 -0.2511
 7035W        W11086   8.932   2.615   9.322 -0.0186 -0.1704 -0.0172
 7036W        W11087   0.789   8.908  11.640  0.0331  0.1056 -0.0380
 7037W        W11088   2.212   0.133   2.211 -0.2001  0.1396  0.1355
 7038W        W11089   9.487   4.312   3.557  0.2347  0.0499  0.0255
 7039W        W11090   0.778   0.736   0.730 -0.0571 -0.1142  0.0430
 7040W        W11091   3.611   0.194   9.872  0.3068 -0.0308 -0.2691
 7041W        W11092   2.046   6.303   4.030  0.2276 -0.5572  0.1635
 7042W        W11093   4.052   1.188   3.661 -0.1579 -0.1266  0.0424
 7043W        W11094   8.668   9.364   2.251  0.2266 -0.0373  0.1910
 7044W        W11095   1.989   3.827   4.741 -0.0521  0.0421 -0.0233
 7045W        W11096   5.620   8.264   3.594  0.2661 -0.4036 -0.0580
 7046W        W11097   8.770   1.769  10.339 -0.0184  0.1903  0.0416
 7047W        W11098   3.986   8.580  12.260 -0.2541  0.2340  0.1703
 7048W        W11099   3.897   2.846   9.789 -0.1600  0.3103  0.0494
 7049W        W11100   4.600   1.835   1.685  0.0196  0.1606 -0.0567
 7050W        W11101   7.485   1.632  11.287  0.2894  0.2732 -0.0436
 7051W        W11102   0.093   9.295  11.313 -0.2464 -0.2116  0.0961
 7052W        W11103   0.792   3.027   0.279 -0.5939  0.0105 -0.0649
 7053W        W11104   7.384   3.840   3.699  0.0967  0.4134  0.1406
 7054W        W11105   0.522   7.955  13.527  0.2453 -0.1501 -0.0173
 7055W        W11106   0.390   2.240   4.108 -0.1774  0.1931  0.0147
 7056W        W11107   1.265   9.028  10.612 -0.0569 -0.0104 -0.2566
 7057W        W11108   6.108   5.607  12.493 -0.1996 -0.0850 -0.0777
 7058W        W11109   3.261   2.216   4.037  0.3653  0.3635 -0.0229
 7059W        W11110   5.874   3.270   0.454 -0.1425  0.0665 -0.2802
 7060W        W11111   9.308   3.232  12.175 -0.3326 -0.0251  0.1058
 7061W        W11112   9.606   8.888   1.052  0.0861 -0.2666  0.1252
 7062W        W11113   7.243   6.494   1.879 -0.1881  0.1695  0.2480
 7063W        W11114   3.034   3.477  12.920  0.1530  0.1625 -0.3062
 7064W        W11115   3.094   8.670   8.618  0.2578  0.4697  0.2582
 7065W        W11116   8.636   9.222  12.225  0.0590 -0.2496 -0.0541
 7066W        W11117   8.751   1.111   3.853  0.1986  0.0884 -0.1622
 7067W        W11118   8.297   3.832   0.604  0.0396  0.2399  0.1510
 7068W        W11119   6.861   1.221  12.068  0.0392  0.0363  0.0300
 7069W        W11120   1.609   8.808  11.628 -0.2666  0.1264  0.2956
 7070W        W11121   4.860   2.611  10.182 -0.0956 -0.3121  0.3892
 7071W        W11122   2.109   3.415  12.817  0.0079 -0.1760  0.0270
 7072W        W11123   7.175   5.125   4.261 -0.0643  0.2028 -0.0216
 7073W        W11124   4.784   8.970  12.995  0.3157  0.4014 -0.2364
 7074W        W11125   1.442   3.872   1.502  0.0494  0.3084  0.2665
 7075W        W11126   5.395   0.549  11.332 -0.1352 -0.0657 -0.0097
 7076W        W11127   9.245   3.380   2.573  0.0227  0.0359 -0.0622
 7077W        W11128   7.599   0.586   4.756 -0.0180 -0.0567 -0.0942
 7078W        W11129   1.262   5.421  13.342  0.2532  0.3317  0.0423
 7079W        W11130   4.536   7.371  10.869 -0.0594  0.0638  0.0412
 7080W        W11131   5.180   0.390   1.949 -0.1743  0.0956 -0.1538
 7081W        W11132   2.297   7.485   0.076 -0.0001  0.0719 -0.1668
 7082W        W11133   6.472   5.041   0.600 -0.2140 -0.0596 -0.1308
 7083W        W11134   2.873   9.467   3.284  0.0311 -0.2044 -0.0506
 7084W        W11135   7.375   6.448   2.442  0.2154  0.3082 -0.0018
 7085W        W11136   9.876   0.566  12.021 -0.0431 -0.1423  0.0439
 7086W        W11137   3.945   4.383  11.559  0.0030 -0.0785 -0.1290
 7087W        W11138   5.443  10.175   1.320  0.2506 -0.0958  0.0194
 7088W        W11139   5.942   8.786  10.597 -0.2708 -0.2743  0.2462
 7089W        W11140   8.368  10.088  12.986  0.0720  0.2440 -0.3527
 7090W        W11141   3.197   7.392  12.030 -0.0930 -0.3553  0.3696
 7091W        W11142   5.216   7.944   3.706  0.0325  0.0499  0.0064
 7092W        W11143   3.915   2.228  11.083  0.2556 -0.1746 -0.0255
 7093W        W11144   6.954   0.634  13.759 -0.0328  0.1244 -0.1295
 7094W        W11145   7.505  10.029   9.405 -0.3313  0.0884 -0.1138
 7095W        W11146   5.764   0.636  10.916 -0.4237  0.2815 -0.2565
 7096W        W11147   6.657   8.942  11.737 -0.0257  0.1139 -0.1227
 7097W        W11148   4.070   5.365   8.669  0.2869 -0.3907 -0.1909
 7098W        W11149   3.745   8.388  13.372  0.0796  0.1583  0.1068
 7099W        W11150   7.230   3.459   1.463 -0.0175 -0.0391 -0.0697
 7100W        W11151   9.378   5.205   0.373 -0.1091  0.3569 -0.1516
 7101W        W11152   3.553   0.599  13.117  0.1057 -0.0798 -0.3520
 7102W        W11153   2.738   5.264   3.719  0.0201  0.2430  0.1991
 7103W        W11154   1.863   9.187   3.104  0.1494  0.1134  0.1581
 7104W        W11155   1.333   0.579   3.051 -0.2262 -0.1303  0.3788
 7105W        W11156   1.773   5.858   2.126  0.0478 -0.0093  0.3132
 7106W        W11157   5.943   8.344  12.717 -0.2046 -0.0322  0.1397
 7107W        W11158   9.033   1.924   4.295 -0.0351 -0.3062  0.0740
 7108W        W11159   3.475   6.207   1.076 -0.1022  0.0476  0.0605
 7109W        W11160   8.289   6.170   4.146 -0.0286 -0.6590  0.1116
 7110W        W11161   1.654   9.599  12.280  0.2171  0.0163 -0.1129
 7111W        W11162   5.794   5.310   1.832 -0.3768 -0.2411 -0.1402
 7112W        W11163   4.183   4.066   3.407 -0.1365 -0.1167  0.0110
 7113W        W11164   0.635   7.181  11.036  0.1930  0.2037  0.0142
 7114W        W11165   5.305   2.835  12.281 -0.0295 -0.0491  0.0440
 7115W        W11166   4.758   7.504  12.501 -0.1345 -0.0333  0.0341
 7116W        W11167   6.849   4.887   1.066 -0.2229  0.0290 -0.0309
 7117W        W11168   9.332   0.618   1.195  0.1091  0.1914 -0.0521
 7118W        W11169   2.321   7.250   2.297 -0.0408  0.1285  0.0869
 7119W        W11170   2.168   0.245   0.122  0.2725 -0.0742  0.0057
 7120W        W11171   4.931   0.730   1.737 -0.0543  0.0547 -0.0794
 7121W        W11172   0.581   3.296  13.741 -0.0593  0.1802  0.2168
 7122W        W11173   5.712   4.382   3.684  0.1866  0.2506  0.0685
 7123W        W11174   8.791   3.762   0.505 -0.2383  0.1777 -0.1181
 7124W        W11175   2.509   4.638   3.964 -0.0339 -0.3206  0.1834
 7125W        W11176   0.630   7.218   9.450 -0.0987 -0.1735 -0.0973
 7126W        W11177   0.385   7.664  12.407  0.0697 -0.4630  0.2384
 7127W        W11178   0.996   1.883   0.419  0.4663  0.2831 -0.0387
 7128W        W11179   8.559   6.223  12.660 -0.1179 -0.0948  0.4825
 7129W        W11180   0.043   7.188  11.874  0.0599 -0.1062 -0.2824
 7130W        W11181   0.142   1.291  11.842 -0.1098 -0.1105  0.2800
 7131W        W11182   2.801   9.180   9.795 -0.3258 -0.0350 -0.0010
 7132W        W11183   6.066   1.163   8.506 -0.1936 -0.2183  0.1277
 7133W        W11184   9.757   8.139   2.808 -0.0834 -0.1043 -0.0581
 7134W        W11185   2.997   8.695  12.618  0.2263 -0.1794 -0.1865
 7135W        W11186   1.816   6.131   0.439  0.2151  0.1566 -0.4279
 7136W        W11187   4.561   0.604   9.782 -0.0937 -0.0092 -0.0306
 7137W        W11188   5.464   2.823  12.752  0.0459 -0.1474  0.0981
 7138W        W11189   9.952   9.983  10.645 -0.2597 -0.0921 -0.0716
 7139W        W11190   4.417   5.024   9.915  0.1538  0.1003 -0.0392
 7140W        W11191   3.962   3.450  10.399  0.2957  0.0353  0.0216
 7141W        W11192   1.662   0.798  11.990 -0.0054 -0.2249 -0.2059
 7142W        W11193   1.765   1.896  13.735 -0.3314  0.0253  0.7923
 7143W        W11194   0.015   6.599  10.680 -0.2654 -0.4696  0.0379
 7144W        W11195   5.394   3.039  13.234  0.0792  0.0192 -0.0722
 7145W        W11196   3.653   4.248  13.742  0.2073 -0.1644  0.1013
 7146W        W11197   2.049   4.283  13.811 -0.1340  0.1334 -0.0622
 7147W        W11198   1.820   4.887  12.202 -0.0467  0.4695 -0.0297
 7148W        W11199   7.874   6.323  11.484 -0.3125 -0.0706  0.1429
 7149W        W11200   3.004   1.050  10.018  0.0793  0.4710  0.2347
 7150W        W11201   0.194   4.837   3.180  0.1701 -0.1644  0.0421
 7151W        W11202   0.398   9.790  12.516 -0.0059  0.2234 -0.0485
 7152W        W11203   9.149   9.424   0.192  0.2319 -0.1001 -0.3892
 7153W        W11204   5.256   0.319  12.431  0.1820  0.2223  0.2894
 7154W        W11205   8.582   4.780   3.243  0.1478 -0.0702 -0.2819
 7155W        W11206   5.358   8.519   9.609  0.1355  0.0891 -0.1275
 7156W        W11207   9.232   8.239   0.947  0.1568 -0.2053 -0.1707
 7157W        W11208   3.787   1.127   4.513  0.2141  0.1632  0.0601
 7158W        W11209   1.966   6.686   4.452  0.0021 -0.1356 -0.2224
 7159W        W11210   3.372   5.089   4.170  0.0147 -0.2872  0.0144
 7160W        W11211   3.976   2.372  13.000  0.0445 -0.0550 -0.1290
 7161W        W11212   7.190   4.393   0.312 -0.2505 -0.1231  0.0850
 7162W        W11213   9.121   0.156   4.860  0.1257 -0.3926 -0.2352
 7163W        W11214   7.685   8.690   1.496  0.1170  0.2514 -0.0151
 7164W        W11215   2.310   0.116   4.655 -0.2416  0.2064 -0.0776
 7165W        W11216   8.786   8.961   2.614 -0.0826  0.0798  0.3274
 7166W        W11217   4.400   3.397  10.314 -0.1939  0.0175 -0.2606
 7167W        W11218   7.384   1.347   9.062 -0.4323 -0.1999  0.0714
 7168W        W11219   6.057   1.089   0.704  0.0943  0.2257 -0.2027
 7169W        W11220   0.344   9.316   0.397 -0.1195  0.2132  0.2534
 7170W        W11221   3.615   4.914   0.675  0.0053  0.0244 -0.0875
 7171W        W11222   3.533   4.871   9.884  0.0742 -0.1229 -0.2066
 7172W        W11223   5.368   1.617   9.162  0.5997 -0.0336 -0.2802
 7173W        W11224   7.089   2.023   3.456 -0.1183  0.1502 -0.1567
 7174W        W11225   1.517   5.817  13.209  0.0815  0.2874  0.1686
 7175W        W11226   6.424   2.681   3.182 -0.0177  0.1720  0.2988
 7176W        W11227   3.492   7.794  10.394 -0.1988  0.0400  0.1389
 7177W        W11228   0.791   2.759   3.787 -0.2548 -0.0214 -0.2706
 7178W        W11229   1.314   5.991  10.109  0.0649  0.2140  0.1850
 7179W        W11230   4.579   4.636   0.670  0.0541 -0.1729 -0.0547
 7180W        W11231   0.915   5.184  10.161  0.0865  0.0524 -0.1848
 7181W        W11232   0.290   9.242  12.813 -0.0053  0.0056  0.0590
 7182W        W11233   2.603   3.314   3.447  0.0432  0.0839  0.4007
 7183W        W11234   5.424   9.160   1.819  0.2692  0.5537  0.3410
 7184W        W11235   3.333   0.902   4.390  0.0904 -0.0947 -0.1609
 7185W        W11236   1.447   5.586  13.752  0.2083 -0.1780  0.4330
 7186W        W11237   8.155   1.055   2.770 -0.0661  0.3412 -0.0918
 7187W        W11238   9.047   0.602  13.635 -0.0572 -0.0676 -0.0312
 7188W        W11239   3.223   1.884   9.325 -0.3447 -0.0194 -0.1404
 7189W        W11240   1.880   6.401   3.280 -0.0764  0.0763 -0.1932
 7190W        W11241   7.012   5.647   1.206  0.1287 -0.2076  0.2421
 7191W        W11242   3.311   9.791   1.031  0.1031  0.3284 -0.1887
 7192W        W11243   6.878   2.204   5.561  0.1272  0.1227 -0.2642
 7193W        W11244   3.369   1.504  13.726  0.0566 -0.1623 -0.1235
 7194W        W11245   2.580   9.896   1.019 -0.0199  0.0889 -0.2365
 7195W        W11246   1.887   4.057   0.339  0.1850 -0.0883  0.1273
 7196W        W11247   4.946   8.530   2.251  0.1166  0.0602  0.0770
 7197W        W11248   0.635   4.217  13.388  0.0675 -0.1114 -0.1549
 7198W        W11249   0.066   1.932   3.773 -0.1552 -0.3249 -0.1758
 7199W        W11250   0.649   6.364   9.421 -0.0022 -0.1338 -0.0041
 7200W        W11251   3.711   7.846   2.553  0.0805  0.0430  0.4589
 7201W        W11252   5.234   1.789  10.802  0.4019  0.5574  0.0153
 7202W        W11253   3.675   4.772   4.426  0.3067  0.1991 -0.0694
 7203W        W11254   2.585   1.469  12.310 -0.0363 -0.5324  0.0669
 7204W        W11255   7.735   5.619  10.234 -0.0015 -0.0431  0.0676
 7205W        W11256   2.839   9.423   1.786 -0.0421  0.0678 -0.0114
 7206W        W11257   0.582   8.633  10.832  0.0393 -0.0139 -0.1753
 7207W        W11258   0.689   0.591  13.622 -0.1066 -0.0260 -0.2156
 7208W        W11259   6.388   9.419   8.805 -0.1345  0.0478  0.1210
 7209W        W11260   6.783   3.796  12.254 -0.0534 -0.0300  0.0145
 7210W        W11261   7.535   0.690  11.003 -0.0896 -0.1999  0.0535
 7211W        W11262   3.106   4.092   0.634  0.2489 -0.0208  0.1485
 7212W        W11263   8.476   8.997   3.031  0.1632 -0.1337 -0.1060
 7213W        W11264   5.975  10.022  12.708 -0.2316  0.0480  0.0886
 7214W        W11265   0.118   6.921   0.173  0.2216 -0.4266  0.1056
 7215W        W11266   9.806   4.776  12.661  0.0210 -0.3633 -0.3590
 7216W        W11267   6.747   9.592   9.139 -0.0046 -0.1514  0.0974
 7217W        W11268   9.913   1.594  11.761  0.0899 -0.1084 -0.0160
 7218W        W11269   2.714  10.121  11.719  0.0604  0.1487 -0.1509
 7219W        W11270   4.848   4.460   1.840  0.3332  0.2188 -0.0994
 7220W        W11271   2.735   6.773   0.465  0.0950  0.0918  0.0649
 7221W        W11272   2.547   2.902   4.636  0.1093 -0.1543 -0.0687
 7222W        W11273   7.542   1.980  12.539 -0.1719 -0.0502  0.1880
 7223W        W11274   1.402   2.682  12.935 -0.2834 -0.1175 -0.1726
 7224W        W11275   1.359   4.378  12.103  0.3864  0.0717 -0.0775
 7225W        W11276   9.250   0.391   3.502 -0.1842  0.0219  0.2496
 7226W        W11277   6.898   7.868  11.817 -0.2509  0.0646  0.0053
 7227W        W11278   2.002   9.522  11.907 -0.2380  0.2939 -0.0370
 7228W        W11279   8.291   7.538  13.711  0.1162 -0.1029 -0.0497
 7229W        W11280   0.825   5.457  13.034  0.1951  0.3067 -0.1397
 7230W        W11281   6.389   2.244  11.828  0.1071 -0.0929 -0.2253
 7231W        W11282   4.405   9.145   8.129 -0.0832  0.4392 -0.0519
 7232W        W11283   7.729   6.079   0.843  0.1483  0.0786  0.2568
 7233W        W11284   9.595   1.818   2.442  0.2189 -0.0454 -0.1184
 7234W        W11285   3.148   3.633   1.371 -0.0112 -0.1484 -0.2316
 7235W        W11286   4.184   7.207  12.473  0.0864  0.0745 -0.3320
 7236W        W11287   9.334   4.186   0.486 -0.1337 -0.1587 -0.0443
 7237W        W11288   0.385   4.676   0.934  0.0558 -0.0498 -0.0952
 7238W        W11289   2.792   3.903   4.076  0.3734 -0.1433  0.1463
 7239W        W11290   4.316   7.534  12.812  0.3527 -0.2075  0.0798
 7240W        W11291   6.187   1.634   5.393  0.0742 -0.1255 -0.0231
 7241W        W11292   0.894   8.481   0.540 -0.0926  0.1445  0.4111
 7242W        W11293   4.198   9.039  12.472 -0.1240 -0.3310  0.3636
 7243W        W11294   3.882   6.148   3.445 -0.0319  0.4830  0.0431
 7244W        W11295   3.523   9.182   4.127 -0.0517  0.0990  0.0874
 7245W        W11296   3.428   0.383   9.131 -0.2999 -0.3439 -0.0632
 7246W        W11297   0.590   2.774  13.865  0.0740 -0.0668 -0.1945
 7247W        W11298  10.000   0.996  12.854  0.1314  0.1994 -0.0903
 7248W        W11299   2.518  10.170  11.286  0.0524 -0.1703  0.0532
 7249W        W11300   7.437   7.213   3.561 -0.0605  0.0761 -0.3666
 7250W        W11301   0.094   5.645  13.496  0.1989 -0.1095 -0.0712
 7251W        W11302   3.968   2.472  11.988  0.2542  0.0447  0.0491
 7252W        W11303   2.912   6.350   9.147 -0.1875  0.2485  0.1750
 7253W        W11304   0.939   5.104   1.488  0.0606 -0.1198 -0.0029
 7254W        W11305   3.390   6.068  11.925  0.1347 -0.1088 -0.3502
 7255W        W11306   2.631   7.724  10.405  0.0305  0.2450 -0.1542
 7256W        W11307   6.085   3.029  10.256  0.2503 -0.0439  0.0611
 7257W        W11308   2.742   3.327  13.332 -0.1089  0.3220 -0.2463
 7258W        W11309   4.507   5.502   3.721  0.3212 -0.0943 -0.1041
 7259W        W11310   0.359   9.457   4.669  0.1730 -0.0506 -0.1355
 7260W        W11311   1.370   7.268   3.684 -0.0031  0.0942 -0.2455
 7261W        W11312   8.608   6.753  11.384 -0.0836  0.3416  0.1711
 7262W        W11313   5.470   7.842  12.991 -0.1041  0.0965  0.3210
 7263W        W11314   8.750   8.169   1.041 -0.4337  0.1429 -0.0949
 7264W        W11315   5.838   2.768  13.045 -0.2348 -0.0840  0.1644
 7265W        W11316   9.303   9.865   1.629  0.1070 -0.2521  0.1397
 7266W        W11317   8.600   3.522  12.710 -0.3943 -0.0323  0.0097
 7267W        W11318   5.949   7.828  11.402 -0.0104  0.1214 -0.2950
 7268W        W11319   4.083   8.423  13.737 -0.0140 -0.1835  0.0268
 7269W        W11320   9.346   8.206  13.575 -0.1046  0.0928  0.2984
 7270W        W11321   2.692   0.277  10.835 -0.2083 -0.0127  0.0633
 7271W        W11322   5.355   5.516   4.510  0.1003 -0.0729  0.0370
 7272W        W11323   3.525   3.546   9.889  0.2790  0.2657  0.0282
 7273W        W11324   5.750   5.414  10.167 -0.0565  0.2156  0.0046
 7274W        W11325   6.747   9.729   0.745 -0.0896  0.1343 -0.0778
 7275W        W11326   1.054   8.429  10.893  0.0924  0.0924 -0.1048
 7276W        W11327   3.095   0.767  13.286  0.0740  0.0495 -0.0794
 7277W        W11328  10.029   4.705   9.205 -0.1958  0.0251  0.1152
 7278W        W11329   1.161   8.496  11.463 -0.0607  0.1634 -0.1204
 7279W        W11330   3.657   1.364   0.388  0.1156  0.1812 -0.1336
 7280W        W11331   2.726   9.457  10.621 -0.3540 -0.0600 -0.2880
 7281W        W11332   5.372   1.074   4.114  0.0014  0.1267  0.1416
 7282W        W11333   3.390   6.186  10.961  0.0977  0.1230 -0.0574
 7283W        W11334   6.634   8.173  11.471 -0.0828 -0.0941  0.0049
 7284W        W11335   0.399   1.737  13.017  0.2094  0.0883  0.0586
 7285W        W11336   5.112   1.244  10.071  0.0815 -0.0046 -0.2436
 7286W        W11337   6.533   6.350   3.047 -0.0521 -0.1458 -0.3401
 7287W        W11338   0.270   3.327   8.453  0.3088 -0.2926 -0.3875
 7288W        W11339   4.348   6.705  12.412 -0.0007 -0.0107 -0.0112
 7289W        W11340   1.759   6.641   9.882 -0.0771 -0.0351 -0.2111
 7290W        W11341   6.494   5.590   3.888  0.3515  0.0730 -0.0090
 7291W        W11342   8.247   2.814  13.751 -0.0472  0.3333  0.0450
 7292W        W11343   9.715   5.560  12.684 -0.0634  0.0319 -0.3676
 7293W        W11344   1.868   0.622   4.112 -0.1246  0.0665 -0.1945
 7294W        W11345   6.097   3.032  10.788 -0.3442  0.0769 -0.0948
 7295W        W11346   9.217   1.838  12.858 -0.0111  0.0780  0.1050
 7296W        W11347   7.838   9.863  11.161  0.2475 -0.1954  0.2102
 7297W        W11348   9.459   4.681  12.280 -0.0304  0.1913  0.0473
 7298W        W11349   6.563   1.217   4.242 -0.2692  0.1479  0.0300
 7299W        W11350   1.913   2.604  11.747 -0.3903 -0.0771  0.1022
 7300W        W11351   5.633   0.673  12.170  0.3949  0.1891  0.2108
 7301W        W11352   4.825   5.521  12.867  0.0321  0.1985  0.0362
 7302W        W11353   2.189   5.614   3.067 -0.1108 -0.2882  0.1514
 7303W        W11354   0.098   8.323  10.755  0.0596  0.0576 -0.2727
 7304W        W11355   9.761   0.402   2.206  0.3549 -0.2433  0.3245
 7305W        W11356   0.876   6.377   2.531 -0.3085 -0.0274  0.2083
 7306W        W11357   7.999   1.594  13.370 -0.2107 -0.4551  0.3244
 7307W        W11358   9.224   0.891  10.963  0.0439 -0.0351 -0.1680
 7308W        W11359   6.382   4.435   3.496 -0.0933 -0.0875  0.1192
 7309W        W11360   4.365   1.114  13.130 -0.0044 -0.1413 -0.0785
 7310W        W11361   3.464   0.428   1.619  0.2043 -0.0996  0.1405
 7311W        W11362   1.236   1.219  11.995 -0.1977 -0.1385  0.1070
 7312W        W11363   9.712   1.333   0.120 -0.0024  0.3017  0.0252
 7313W        W11364   7.331   4.058   3.216  0.1894  0.1021  0.0850
 7314W        W11365   0.856   1.514  13.103 -0.1019  0.2650 -0.2377
 7315W        W11366   1.826   9.796   1.700  0.0896 -0.1253  0.0336
 7316W        W11367   1.346   0.394   1.327 -0.1574  0.1595  0.1016
 7317W        W11368   5.151   3.434   1.825 -0.1405 -0.0289  0.4208
 7318W        W11369   3.229   8.976   3.551  0.0660  0.0175 -0.1214
 7319W        W11370   8.717   5.387   3.873  0.1032 -0.1024  0.0765
 7320W        W11371   2.981   8.674  10.648 -0.2006  0.2054 -0.0204
 7321W        W11372   5.171   4.942   2.684  0.1903  0.2876 -0.1193
 7322W        W11373   6.007   4.547  11.754  0.1062  0.1996  0.1389
 7323W        W11374   4.971   6.783  11.310  0.2061  0.0584  0.0650
 7324W        W11375   3.209   2.225  10.182  0.1120  0.0462 -0.1234
 7325W        W11376   4.673   3.008   5.611 -0.0311 -0.3440  0.3136
 7326W        W11377   8.836   8.430  10.969  0.0456  0.1145  0.2913
 7327W        W11378   3.860   8.627   9.249  0.0747 -0.0111 -0.0763
 7328W        W11379   4.957   6.552   3.181  0.1794 -0.1127 -0.1360
 7329W        W11380   6.162   0.708  12.613  0.1290  0.1655  0.1687
 7330W        W11381   0.911   1.938  13.895 -0.2081  0.2840 -0.1094
 7331W        W11382   7.727   3.909   0.742  0.0466 -0.0526 -0.0125
 7332W        W11383   3.715   4.651   0.179 -0.1686  0.2692 -0.0787
 7333W        W11384   0.934   3.288   2.618  0.0215  0.1445  0.1188
 7334W        W11385   9.641   6.975   0.725  0.2233  0.0317 -0.1037
 7335W        W11386   7.895   3.444  13.618 -0.2333 -0.1637 -0.2674
 7336W        W11387   5.180   8.528   3.505 -0.1761  0.1387 -0.0640
 7337W        W11388   4.591   3.440   1.527  0.3120  0.0544 -0.1191
 7338W        W11389   4.898   1.345   0.600 -0.0459 -0.0387 -0.0192
 7339W        W11390   6.538   2.236   0.114 -0.1113  0.0409  0.0730
 7340W        W11391   1.216   2.441   1.514 -0.0182 -0.0154  0.1997
 7341W        W11392   7.698   4.454   0.605  0.2721 -0.1291  0.1175
 7342W        W11393   3.605   6.173   0.457 -0.1884 -0.2050  0.0071
 7343W        W11394   8.806   3.894   3.010 -0.1920 -0.2909 -0.1292
 7344W        W11395   9.245   9.923   9.896 -0.2979 -0.3624  0.2185
 7345W        W11396   3.052   9.199  11.398  0.2176 -0.0528 -0.0804
 7346W        W11397   2.959   6.639   2.396 -0.0790  0.2461  0.1944
 7347W        W11398   3.101   4.655   0.668  0.1652  0.1672  0.0063
 7348W        W11399   6.683   8.560   1.974 -0.1282 -0.1208 -0.0534
 7349W        W11400   3.003   1.580  13.383  0.0385  0.0601 -0.0239
 7350W        W11401   9.706   4.870  11.886 -0.1944  0.0117  0.0767
 7351W        W11402   5.453   6.412  12.111 -0.1935 -0.0332  0.1503
 7352W        W11403   0.516   6.235   2.090  0.2814 -0.1270  0.1737
 7353W        W11404   6.200   1.558   1.174 -0.1777 -0.0254  0.0396
 7354W        W11405   0.286   5.243   1.990  0.0863  0.0712  0.0987
 7355W        W11406   8.326   9.434   3.263 -0.1664 -0.3633 -0.0014
 7356W        W11407   5.842   0.393   5.104  0.1116  0.0258 -0.3550
 7357W        W11408   0.236   4.282   4.054  0.1210 -0.1307 -0.2535
 7358W        W11409   1.013   9.024  10.097 -0.1686  0.3029  0.2943
 7359W        W11410   9.911   7.907   1.559 -0.3543  0.2703 -0.3103
 7360W        W11411   5.454   0.612   3.434 -0.2348 -0.1849 -0.2312
 7361W        W11412   6.947   1.658   3.180 -0.3392 -0.0246  0.1484
 7362W        W11413   5.963   9.700   0.865  0.1282  0.2379  0.0175
 7363W        W11414   1.004   2.111   1.860  0.1264  0.2551  0.0210
 7364W        W11415   1.056   1.750   2.453  0.3070  0.4041 -0.0132
 7365W        W11416   3.664   8.298   0.484 -0.3990 -0.2604  0.1270
 7366W        W11417   9.590   1.726   3.031 -0.0413 -0.4275 -0.0700
 7367W        W11418   2.179   8.746   9.094 -0.0136  0.2782  0.1924
 7368W        W11419   5.360   2.705   9.938  0.0954 -0.0082  0.1522
 7369W        W11420   3.083   2.034   3.440 -0.0913  0.3079  0.0113
 7370W        W11421   1.576   3.046  13.719 -0.1516 -0.0352  0.1173
 7371W        W11422   0.977   7.623   0.633  0.1762  0.1259  0.0468
 7372W        W11423   3.807   9.270  13.064 -0.2068  0.2687 -0.0046
 7373W        W11424   2.439   0.882   4.118 -0.5016 -0.2261 -0.1738
 7374W        W11425  10.065   2.837  12.931 -0.0199 -0.6116 -0.1574
 7375W        W11426   8.355   3.424   9.317 -0.0225  0.0714 -0.0913
 7376W        W11427   0.690   5.967   0.782  0.0359 -0.3118 -0.1609
 7377W        W11428   1.353   2.042   1.208  0.0969  0.0805  0.2767
 7378W        W11429   0.073   8.828   0.478  0.3928 -0.1737 -0.0506
 7379W        W11430   8.905   0.582   3.156 -0.0282 -0.4938 -0.0248
 7380W        W11431   9.988   1.587  10.930 -0.1138 -0.3140 -0.3085
 7381W        W11432   2.834   3.055  11.878 -0.0716 -0.0597 -0.1353
 7382W        W11433   1.271   4.496  11.543 -0.0289 -0.0019 -0.1580
 7383W        W11434   9.226   6.723   3.124 -0.2000 -0.1740 -0.0021
 7384W        W11435   8.854   2.546  12.133 -0.2083  0.0453  0.0542
 7385W        W11436   2.563   6.473   1.904  0.0070  0.1965  0.1557
 7386W        W11437   4.099   0.480  12.548  0.1308  0.0251 -0.1815
 7387W        W11438   3.947   8.361   1.395  0.0302  0.0997  0.2099
 7388W        W11439   2.884   7.432  10.065  0.0039  0.0071 -0.0462
 7389W        W11440   2.299   2.743   4.105 -0.1538 -0.0127  0.1119
 7390W        W11441   8.315   7.165  12.456  0.2404 -0.0964  0.0703
 7391W        W11442   6.296   2.385   1.778 -0.0288 -0.0667  0.1339
 7392W        W11443   6.404   9.700   1.087 -0.0394 -0.1237  0.2305
 7393W        W11444   7.891   4.754   0.225  0.0248 -0.0863  0.4609
 7394W        W11445   1.312   2.254  10.434  0.2923 -0.0303 -0.0953
 7395W        W11446  10.164   2.075   4.350  0.2068  0.0598 -0.0931
 7396W        W11447   2.810   9.131  12.606 -0.1388  0.0714 -0.2136
 7397W        W11448   7.876   2.495  13.734  0.0169 -0.3772  0.0975
 7398W        W11449   1.715   5.811  11.098  0.1212  0.1715  0.0769
 7399W        W11450   2.612   3.732   9.286 -0.1193  0.1440 -0.2228
 7400W        W11451   4.411   7.324   1.116 -0.0431  0.0483  0.0106
 7401W        W11452   1.908   9.540   0.611  0.0400 -0.0235 -0.0403
 7402W        W11453   6.834   0.818  13.145 -0.2547 -0.0488  0.0377
 7403W        W11454   1.554   8.472  13.661 -0.4383  0.2787 -0.1494
 7404W        W11455   1.961   8.424  11.535 -0.0742 -0.0954 -0.0083
 7405W        W11456   3.155   5.295   9.624  0.0071 -0.4078  0.1635
 7406W        W11457   9.568   2.869  13.185  0.1011 -0.0538 -0.0244
 7407W        W11458   1.432   1.972  11.310 -0.0672  0.2681  0.1760
 7408W        W11459   3.427   5.575   4.640 -0.0517 -0.2775 -0.2039
 7409W        W11460   7.903   7.155   3.292  0.0218 -0.1285  0.0665
 7410W        W11461   9.043   3.908   0.077 -0.1457 -0.4873 -0.0046
 7411W        W11462   8.762   1.285   0.961 -0.0881  0.0259  0.0473
 7412W        W11463   4.692   8.167  13.342 -0.0925 -0.0368 -0.0006
 7413W        W11464   3.358   6.079   3.300 -0.5094 -0.3725  0.1252
 7414W        W11465   1.294   6.693   0.299  0.0550 -0.2218  0.0125
 7415W        W11466   4.586   5.092  11.375 -0.0245  0.2761  0.1361
 7416W        W11467   7.621   2.792  12.975 -0.0497 -0.0703 -0.0160
 7417W        W11468   4.028   7.705   4.059 -0.0907 -0.2421  0.0009
 7418W        W11469   8.146   9.865  12.625  0.1519 -0.2414 -0.0404
 7419W        W11470   8.033   8.830   0.573  0.1645 -0.5326 -0.1894
 7420W        W11471   4.789   6.488  12.578 -0.0487 -0.0050 -0.2171
 7421W        W11472   6.558   8.174   9.905  0.0133 -0.0035 -0.1738
 7422W        W11473   8.454   1.793   3.963  0.0648  0.0334  0.0884
 7423W        W11474   2.555   5.020  13.002  0.0306 -0.0020 -0.1456
 7424W        W11475   7.408   6.128   0.063 -0.3903 -0.0018  0.2878
 7425W        W11476   0.524   9.495   9.698  0.2620 -0.0132 -0.2059
 7426W        W11477   9.192   3.854   0.794  0.4060 -0.1182  0.0735
 7427W        W11478   4.787   2.703   4.813 -0.0343 -0.2834 -0.2286
 7428W        W11479   0.894   2.418   4.302 -0.1861 -0.0693  0.0512
 7429W        W11480   4.645   2.387  12.463  0.1058  0.0733  0.0519
 7430W        W11481   6.161   8.413  13.161 -0.1106  0.5936  0.0323
 7431W        W11482   2.859   3.146  12.436 -0.1103  0.2430  0.3539
 7432W        W11483   1.336   7.403  12.093  0.1797 -0.1174 -0.0158
 7433W        W11484   4.029   9.274  13.520  0.2476 -0.3156  0.0627
 7434W        W11485   3.510   8.505   4.273 -0.1989  0.1076 -0.2274
 7435W        W11486   7.598   6.706  11.219 -0.0213  0.4750 -0.0906
 7436W        W11487   6.472   0.960   3.401  0.2155 -0.2231 -0.2137
 7437W        W11488   2.980   4.753   2.584  0.0249  0.0539 -0.1048
 7438W        W11489   2.658   8.127   1.631  0.2054  0.1827  0.0512
 7439W        W11490   5.341   6.523  12.649 -0.0606 -0.3199  0.0061
 7440W        W11491   7.709   4.672  13.595  0.1657 -0.2417  0.0465
 7441W        W11492   1.552   3.301   2.161  0.0693 -0.4736  0.3093
 7442W        W11493   1.884   4.153  10.180 -0.1954  0.0922 -0.0238
 7443W        W11494   0.677   1.904   9.800  0.0105  0.0143 -0.0638
 7444W        W11495   0.637   0.568   3.580 -0.0084 -0.0824  0.1513
 7445W        W11496   9.497   9.102   1.951  0.1291  0.1871  0.2414
 7446W        W11497   8.283   0.713  10.260 -0.1852  0.1093 -0.1327
 7447W        W11498   8.563   1.455   4.284  0.1971  0.0100  0.0253
 7448W        W11499   4.800   4.580   4.899  0.0280  0.1199 -0.0031
 7449W        W11500   4.649   0.451  10.354  0.1096 -0.2911 -0.0754
 7450W        W11501   4.914   3.100   0.257  0.2233 -0.0826 -0.2041
 7451W        W11502   9.809   0.766   3.740 -0.0382 -0.0289 -0.2077
 7452W        W11503   8.122   9.320   0.472 -0.0062 -0.2507  0.0006
 7453W        W11504   4.236   2.562  11.500 -0.0088 -0.1329 -0.0862
 7454W        W11505   4.331   2.826   9.486 -0.0221 -0.2427  0.1072
 7455W        W11506   2.155   9.128  13.641 -0.1949 -0.3906 -0.0513
 7456W        W11507   2.438   6.057   3.177  0.0242 -0.1022  0.2724
 7457W        W11508   9.067   8.397  11.393  0.0427 -0.2070  0.0285
 7458W        W11509   4.052   8.753   2.455  0.2196 -0.0255  0.1928
 7459W        W11510   0.034   0.617   4.978 -0.0233 -0.2442  0.2241
 7460W        W11511   3.371   7.811   9.812 -0.0953 -0.4708 -0.0314
 7461W        W11512   5.307   5.447  12.611  0.1367 -0.0103  0.1450
 7462W        W11513   9.993   0.566   9.378  0.0284 -0.3200 -0.0792
 7463W        W11514   5.288   3.954  12.562  0.1079 -0.0520  0.2295
 7464W        W11515   6.551  10.043   9.036 -0.0255 -0.0004 -0.3170
 7465W        W11516   5.515   1.365  11.091 -0.0109  0.1229  0.1405
 7466W        W11517   1.348   6.107  13.635  0.4617  0.2746  0.3038
 7467W        W11518   7.148   1.475   3.593 -0.1588  0.1945 -0.0298
 7468W        W11519   4.596   3.541   3.691 -0.4623  0.1091 -0.0036
 7469W        W11520   9.993   2.022   2.201  0.0779  0.0165 -0.3071
 7470W        W11521   9.438   5.776   2.658 -0.1801  0.3622 -0.2070
 7471W        W11522   2.614   8.573   1.885  0.5534 -0.0495 -0.1252
 7472W        W11523   5.771   7.311  11.464  0.2607  0.0770 -0.0480
 7473W        W11524   1.527   6.493   4.262 -0.1124  0.0406  0.0869
 7474W        W11525   3.818   0.850  12.651  0.2012  0.0422 -0.1014
 7475W        W11526   5.826   5.879  11.853 -0.1306  0.2543  0.1500
 7476W        W11527   2.251   4.488   1.041  0.1926  0.0776  0.2064
 7477W        W11528   0.177   6.683   3.960 -0.1670  0.1691 -0.0290
 7478W        W11529   9.186   5.362  11.194 -0.0540 -0.0702 -0.0680
 7479W        W11530   7.769   4.639   3.947  0.2798  0.0506  0.0351
 7480W        W11531   6.688   6.276  12.329  0.0002  0.0864  0.4504
 7481W        W11532   4.781   5.715  12.328 -0.0619  0.0586  0.0691
 7482W        W11533   4.948   6.595   4.843  0.1443 -0.1386  0.3220
 7483W        W11534   1.928   8.429   1.010 -0.4014 -0.3253 -0.3377
 7484W        W11535   7.047   7.453  12.247  0.0472 -0.0887 -0.0750
 7485W        W11536   9.761   1.425  12.697 -0.2512 -0.0532 -0.4627
 7486W        W11537   9.465   7.985   0.026 -0.4278  0.0383 -0.3425
 7487W        W11538   4.434   2.671   0.070  0.0319  0.1124 -0.2994
 7488W        W11539   3.275   9.122   8.869 -0.2404  0.0636  0.2547
 7489W        W11540   5.965   7.886   3.850 -0.1102 -0.2165 -0.0581
 7490W        W11541   5.425   4.220   0.635  0.0521 -0.0321 -0.1019
 7491W        W11542   1.438   1.738   1.602 -0.2620  0.0728 -0.1414
 7492W        W11543   9.461   5.165   3.247  0.1331  0.0525  0.1109
 7493W        W11544   0.696   0.659   1.277  0.2626 -0.0911 -0.0349
 7494W        W11545   8.613  10.188   3.954  0.1712  0.1426  0.1228
 7495W        W11546   6.546   4.883   3.628 -0.0218 -0.0315 -0.0819
 7496W        W11547   7.936   2.313  13.217  0.1763  0.3287  0.1797
 7497W        W11548   9.941   9.116  12.683  0.2252  0.0268  0.1885
 7498W        W11549   7.729   6.810  13.257 -0.1721 -0.1592 -0.2574
 7499W        W11550   4.522   5.250   4.184  0.0793  0.0583  0.1283
 7500W        W11551   8.444   7.263   2.679 -0.2098  0.2117 -0.0507
 7501W        W11552   0.448  10.024   2.302  0.3443  0.1051 -0.0481
 7502W        W11553   7.515   2.460   9.647  0.1838 -0.0035  0.0253
 7503W        W11554   7.240   4.203   0.770  0.2585 -0.2275 -0.0043
 7504W        W11555   3.684   5.205   1.128 -0.2398  0.1554  0.0178
 7505W        W11556   2.195   1.444   1.896 -0.1958  0.2739 -0.0370
 7506W        W11557   8.723   3.354   3.160 -0.1207 -0.2512 -0.2325
 7507W        W11558   7.354   8.337  12.317  0.1822 -0.2409 -0.0686
 7508W        W11559   5.016   1.052  10.547  0.2524 -0.2158 -0.0770
 7509W        W11560   4.876   4.030   9.371  0.4355 -0.0850  0.0264
 7510W        W11561   4.349   0.882   0.928 -0.0343 -0.5512 -0.0011
 7511W        W11562   0.426   2.068   3.493  0.1297  0.0098 -0.3615
 7512W        W11563   3.605   8.871  11.930 -0.0093 -0.1702  0.0500
 7513W        W11564   1.903   8.225   3.148  0.1794  0.1741  0.0988
 7514W        W11565   1.315   5.400   4.585  0.5902  0.1785  0.0856
 7515W        W11566   8.983   6.084  12.928  0.4707  0.0097 -0.0415
 7516W        W11567   1.710   1.258  11.712 -0.2936 -0.0151 -0.0819
 7517W        W11568   8.037   4.643  12.926 -0.1128  0.0697  0.1731
 7518W        W11569   8.654   3.043   4.162  0.1821 -0.1309 -0.1429
 7519W        W11570   5.565   6.251  13.184  0.0889 -0.1177  0.1367
 7520W        W11571   1.516   0.554   3.783  0.0521  0.1812 -0.2063
 7521W        W11572   7.329   7.933   3.038 -0.2725  0.0380  0.2402
 7522W        W11573   1.564   8.794  13.247 -0.1873  0.0675 -0.0694
 7523W        W11574   4.106   7.589   2.446  0.0285 -0.2353 -0.0375
 7524W        W11575   9.018   6.370   2.345  0.0386 -0.1097 -0.0671
 7525W        W11576   2.221   6.524   0.141  0.1432 -0.2091 -0.0035
 7526W        W11577   2.102   0.450   9.077  0.1218 -0.1823  0.4012
 7527W        W11578   1.170   6.349   3.942  0.0190  0.0633  0.3136
 7528W        W11579   4.014   7.151   9.537  0.1355 -0.1834 -0.3802
 7529W        W11580   9.219   1.686   5.960 -0.0017 -0.1251  0.1570
 7530W        W11581   0.426   3.354  11.195 -0.1815  0.1910  0.0330
 7531W        W11582   1.077   4.467  13.412  0.0002  0.2041  0.0131
 7532W        W11583   9.528   2.533   0.438 -0.0066 -0.0327  0.4364
 7533W        W11584   9.186   0.628   9.733  0.0073  0.0518  0.0613
 7534W        W11585   1.201   2.815  11.321  0.1524 -0.2238 -0.0004
 7535W        W11586   3.044   8.673   9.596 -0.4007 -0.1769  0.0213
 7536W        W11587   3.884   1.056  10.094  0.4116  0.1360  0.4035
 7537W        W11588  10.005   5.181  11.280  0.2869  0.4414 -0.1673
 7538W        W11589   0.911   6.131   9.785 -0.1347 -0.1933  0.0638
 7539W        W11590   8.882   3.246   9.946  0.2073 -0.0449 -0.0334
 7540W        W11591   3.615   4.212  10.707  0.1334 -0.0606  0.2737
 7541W        W11592   2.025   6.011   3.582 -0.0161 -0.1243  0.0796
 7542W        W11593   7.970   3.445   0.495  0.0659  0.0012  0.1441
 7543W        W11594   5.268   2.098   8.937 -0.1459  0.0140 -0.3031
 7544W        W11595   3.628   1.100  11.414 -0.0037  0.2188 -0.1483
 7545W        W11596   6.947   8.995  12.601  0.2054 -0.1389  0.0585
 7546W        W11597   7.911   7.509   1.115 -0.2598  0.0747 -0.1297
 7547W        W11598   5.289   8.538   1.328  0.2518 -0.1275 -0.1684
 7548W        W11599   5.192   3.919   4.677  0.3015  0.2019  0.2214
 7549W        W11600   5.694   6.319  10.022  0.0291 -0.2404 -0.2369
 7550W        W11601   3.284   9.187   3.134 -0.2687 -0.2035  0.1237
 7551W        W11602   7.086   1.907   1.854 -0.1506 -0.3470 -0.1310
 7552W        W11603   7.060   2.457   0.465 -0.0535  0.1527 -0.2250
 7553W        W11604   1.694   9.181  12.013  0.1868 -0.0820 -0.0092
 7554W        W11605   6.502   8.117  12.789  0.0657 -0.0632 -0.1827
 7555W        W11606   9.867   1.609  10.089  0.2257 -0.1046 -0.0363
 7556W        W11607   3.402   6.898   3.719 -0.1407  0.0380  0.3005
 7557W        W11608   1.551   3.151   9.051  0.0133  0.0935 -0.0722
 7558W        W11609   2.205   9.472   0.991  0.0904 -0.0193 -0.0003
 7559W        W11610   9.735   1.536   9.216 -0.1153  0.2010 -0.0126
 7560W        W11611   9.724   7.879  13.596 -0.1800  0.1770 -0.0989
 7561W        W11612   1.120   0.083   5.410 -0.0370  0.2269 -0.0822
 7562W        W11613   1.085   2.901   4.684 -0.3186  0.1249 -0.1415
 7563W        W11614   2.368   2.508  10.202 -0.1762  0.1676 -0.1073
 7564W        W11615   2.426   1.119  12.788  0.0059 -0.3907  0.2265
 7565W        W11616   0.755   5.933   3.982 -0.0397 -0.2688  0.2404
 7566W        W11617   6.969   7.066   3.553  0.1388  0.2964 -0.0353
 7567W        W11618   9.555   6.933   1.823  0.4506  0.2801  0.2634
 7568W        W11619   6.955   3.746   4.003  0.0597 -0.1060 -0.1706
 7569W        W11620   0.116   7.417   1.617 -0.3964  0.0636 -0.1262
 7570W        W11621   5.097   2.496  11.496  0.3524  0.0178 -0.0959
 7571W        W11622   6.362   2.718  13.664 -0.0668  0.2063 -0.0301
 7572W        W11623   8.879   5.513  12.144  0.0468  0.2910  0.0877
 7573W        W11624   0.282   3.969   2.671 -0.1522 -0.2909 -0.0455
 7574W        W11625   8.492   9.755  13.923  0.1712  0.0583 -0.1318
 7575W        W11626   1.763   0.588   9.875  0.2377  0.0871  0.1008
 7576W        W11627   2.434  10.052   4.125 -0.0884 -0.0177  0.1258
 7577W        W11628   1.147   4.458   3.775 -0.2749 -0.1448  0.2786
 7578W        W11629   3.864   2.753   3.091  0.2016 -0.0384  0.1981
 7579W        W11630   9.803   5.849   1.325 -0.3356 -0.1913  0.0574
 7580W        W11631   2.889   3.009   0.796 -0.0014  0.0325  0.1631
 7581W        W11632   0.199   0.921  13.200  0.0839  0.1842  0.2081
 7582W        W11633   1.447   6.365   0.759 -0.0219 -0.1264 -0.0284
 7583W        W11634   5.055   6.682   1.452 -0.0679 -0.1434  0.1803
 7584W        W11635   0.479   5.182   2.956  0.2533 -0.2217 -0.2278
 7585W        W11636   3.350   3.533   9.356  0.0637 -0.1140  0.0351
 7586W        W11637   0.188   7.413  10.950  0.1597 -0.0198 -0.0685
 7587W        W11638   5.817   8.348  12.262  0.1766 -0.2272  0.0698
 7588W        W11639   5.866   5.799   0.432 -0.3072  0.2075  0.1659
 7589W        W11640   2.551   9.298  11.676  0.1577  0.4656  0.0516
 7590W        W11641   3.435   9.465   0.677 -0.2490  0.0377  0.1608
 7591W        W11642   1.457   7.291  10.509  0.2964 -0.1828  0.0250
 7592W        W11643   0.128   8.048   1.108 -0.0255 -0.1878  0.2629
 7593W        W11644   3.365   2.816  13.398  0.3642  0.2113  0.0123
 7594W        W11645   7.211   0.695   1.547  0.0954  0.2500 -0.1730
 7595W        W11646   2.686   3.406   9.699 -0.1228  0.0316  0.1080
 7596W        W11647   4.050   6.954   9.985 -0.2841 -0.0722 -0.0177
 7597W        W11648   0.232   5.432  11.433  0.2220 -0.1829 -0.1232
 7598W        W11649   5.828   3.010   0.976 -0.0624 -0.0530 -0.0092
 7599W        W11650   6.811   4.145   3.176  0.0868 -0.1049 -0.0328
 7600W        W11651   6.345   3.944   3.313  0.0556  0.0278  0.1484
 7601W        W11652   6.019   2.056   2.015  0.2051  0.1416  0.0086
 7602W        W11653   7.749   1.558  12.565 -0.0302 -0.0160 -0.1723
 7603W        W11654   3.956   6.080  13.346  0.2506 -0.0074  0.0535
 7604W        W11655   0.809   7.788   9.549  0.0447  0.1423  0.0368
 7605W        W11656   9.514   4.802  10.098 -0.0595  0.0894 -0.1650
 7606W        W11657   3.746   4.986   2.789  0.1016 -0.1497 -0.1665
 7607W        W11658   8.200   7.847   3.338 -0.1056 -0.0879 -0.1765
 7608W        W11659   2.087   3.775  13.784  0.2196 -0.1302  0.0492
 7609W        W11660   7.887   3.793   3.407  0.2143  0.1336 -0.0992
 7610W        W11661   1.376   3.846  10.286 -0.0566 -0.0422  0.2075
 7611W        W11662   2.756   7.980   2.114  0.3433 -0.0762 -0.1310
 7612W        W11663   0.986   0.055  10.071  0.0982  0.3761 -0.1441
 7613W        W11664   4.302   4.574   6.128  0.2027  0.0304  0.3417
 7614W        W11665   5.376   9.533   0.248  0.1261  0.1953 -0.0371
 7615W        W11666   1.925   4.044  13.320 -0.0676 -0.3748  0.2959
 7616W        W11667   0.302   8.277  10.259  0.0023 -0.0915 -0.1602
 7617W        W11668   4.379   1.639  13.329 -0.1346 -0.0679  0.0517
 7618W        W11669   0.144   3.583  13.914 -0.0573  0.0815  0.2515
 7619W        W11670   6.784   8.293  13.352 -0.1339  0.0525  0.1617
 7620W        W11671   2.321   6.909  12.155 -0.1031  0.1490 -0.3163
 7621W        W11672   4.233   4.901  13.360  0.1628  0.4116  0.0467
 7622W        W11673   5.350   9.430  13.734 -0.1953  0.1645  0.3532
 7623W        W11674   3.451   8.348   1.250  0.0605  0.2204  0.0107
 7624W        W11675   8.217   9.544  13.062 -0.1116  0.0158  0.0535
 7625W        W11676   3.852   1.626  12.971 -0.2474  0.0148  0.1888
 7626W        W11677   2.230   8.199   0.591 -0.1728 -0.0890  0.1119
 7627W        W11678   8.873   6.110  11.874 -0.1375 -0.0964 -0.1289
 7628W        W11679   8.237   7.353  11.905  0.1115 -0.0478 -0.0310
 7629W        W11680   1.557   9.001   3.508 -0.0252  0.0832 -0.0906
 7630W        W11681   7.396   5.148   3.822 -0.0381  0.2298 -0.2019
 7631W        W11682   6.201   8.036  11.785 -0.1987 -0.0763 -0.2272
 7632W        W11683   6.476   3.264   0.278  0.2035  0.0051 -0.0541
 7633W        W11684   9.169   9.416   1.828  0.3888  0.0207  0.1476
 7634W        W11685   6.567   1.363   4.709 -0.1102  0.0904 -0.1836
 7635W        W11686   7.125   2.402   2.469  0.0438  0.0453  0.0590
 7636W        W11687   0.574   8.599   3.457  0.0477 -0.0981  0.0335
 7637W        W11688   1.126   5.887  12.375  0.2392  0.2325  0.1504
 7638W        W11689   1.916   2.284  13.340  0.1947  0.2435 -0.0798
 7639W        W11690   3.055   2.896   4.604 -0.0380 -0.0588 -0.2377
 7640W        W11691   2.919   8.008   3.275  0.0884 -0.6275  0.1961
 7641W        W11692   5.420   8.479   4.704 -0.0703 -0.0401 -0.0978
 7642W        W11693   4.279   0.305   3.999  0.1428  0.0210 -0.2050
 7643W        W11694  10.009   1.413   9.643 -0.1747 -0.2167  0.0389
 7644W        W11695   6.368   7.805   3.494 -0.1568 -0.0644  0.0689
 7645W        W11696   6.196   9.290  10.143  0.0207 -0.2624 -0.3255
 7646W        W11697   5.100   9.973  13.130 -0.1454 -0.0079 -0.2502
 7647W        W11698   0.138   9.110   2.122 -0.0517  0.0601 -0.1524
 7648W        W11699   7.110   2.112  13.443  0.0204 -0.1586  0.1819
 7649W        W11700   3.905   3.911  11.384 -0.0664 -0.0053  0.0995
 7650W        W11701   7.497   8.482  10.581  0.0244 -0.4723 -0.0782
 7651W        W11702   4.375   8.705  10.090  0.2796 -0.0740  0.2041
 7652W        W11703   5.432   4.967   2.224 -0.0845  0.4624 -0.2072
 7653W        W11704   6.351  10.078  13.731 -0.1373  0.0115 -0.3516
 7654W        W11705   5.661   9.908   2.233  0.1789  0.1435 -0.2114
 7655W        W11706   0.032   2.725   9.622 -0.2126 -0.6633 -0.2648
 7656W        W11707   5.046   4.315   9.796  0.2058  0.2658 -0.0208
 7657W        W11708   0.957   1.638   2.020  0.2052  0.0671 -0.1147
 7658W        W11709   0.318   2.040   1.184 -0.1415 -0.1722 -0.0451
 7659W        W11710   7.328   3.380   3.784 -0.3074 -0.0667 -0.0081
 7660W        W11711   9.197   1.561   0.151 -0.0391 -0.0303 -0.1854
 7661W        W11712   0.927   3.747  10.399  0.0406  0.2874 -0.2671
 7662W        W11713   4.589   1.063   1.935 -0.0096 -0.1016  0.1653
 7663W        W11714   0.555   3.835  13.722  0.0160 -0.0545  0.2194
 7664W        W11715   3.914   2.225   9.761  0.0219 -0.1388 -0.0101
 7665W        W11716   8.612   3.960   3.725 -0.3400  0.1286 -0.0201
 7666W        W11717   4.256  10.154   2.177  0.3045 -0.2383 -0.1373
 7667W        W11718   2.700   4.321   2.652 -0.1341 -0.0154  0.1668
 7668W        W11719   1.784   2.810   2.181  0.1734  0.0323 -0.0488
 7669W        W11720   1.889   6.698   1.491  0.0737  0.1280 -0.2004
 7670W        W11721   3.141   7.624   2.032 -0.1848  0.2744  0.1129
 7671W        W11722   7.671   0.361   9.860  0.0367 -0.1353  0.3623
 7672W        W11723   6.110   6.601   3.266  0.0495 -0.0419  0.3270
 7673W        W11724   1.717   3.577  13.129  0.1887 -0.1341 -0.0800
 7674W        W11725   3.381   7.940   8.649  0.0634  0.2519 -0.2015
 7675W        W11726   1.893   1.411   0.576  0.0527 -0.0051  0.1283
 7676W        W11727   4.761   4.156   4.545 -0.0705  0.1879 -0.1042
 7677W        W11728   0.877   7.059   0.989 -0.0398  0.1978  0.0168
 7678W        W11729   9.153   4.742   2.025  0.1470 -0.3233  0.1580
 7679W        W11730   1.349   7.552   0.274  0.0543  0.0088  0.0742
 7680W        W11731   0.537   7.887  10.896 -0.0232  0.2166 -0.0241
 7681W        W11732   3.235   8.181   4.038  0.0240  0.2610  0.2037
 7682W        W11733   0.017   3.544   1.857  0.0403  0.0228 -0.0955
 7683W        W11734   5.224   5.462  12.096  0.2129 -0.0670  0.2341
 7684W        W11735   8.751   0.124  13.839  0.1292  0.0438 -0.2566
 7685W        W11736   9.938   6.107  13.304  0.3234  0.1955 -0.0510
 7686W        W11737   7.674   1.930   5.727  0.2065 -0.2197 -0.0714
 7687W        W11738   1.366   1.522   0.614  0.1645  0.4736 -0.1513
 7688W        W11739   1.056   8.127   4.615 -0.0572  0.1551  0.0204
 7689W        W11740   1.625   4.129   4.832 -0.3294 -0.0779 -0.1285
 7690W        W11741   5.150   3.218  13.716 -0.0907  0.0963 -0.0706
 7691W        W11742   4.101   4.346  12.184 -0.3768 -0.0040  0.0159
 7692W        W11743   3.619  10.178  13.254  0.3214 -0.0812 -0.3180
 7693W        W11744   4.767   7.219   3.615  0.2227  0.0256  0.0758
 7694W        W11745   7.921   6.244  12.419 -0.0391  0.2037  0.0428
 7695W        W11746   9.917   4.194  11.681  0.0664 -0.3787 -0.1048
 7696W        W11747   5.653   0.744   4.327  0.1832  0.0349 -0.0937
 7697W        W11748   8.495   0.767  11.488 -0.0250 -0.1180  0.1832
 7698W        W11749   4.653   9.271  12.575 -0.0380 -0.3603  0.1163
 7699W        W11750   3.649   6.889  10.337  0.1500  0.0273  0.1908
 7700W        W11751   7.141   6.586  13.095 -0.0812 -0.1399 -0.1389
 7701W        W11752   7.927   1.206   1.798  0.0528  0.1303 -0.0800
 7702W        W11753   3.835   9.513   9.783 -0.0842 -0.3524 -0.3888
 7703W        W11754   5.545   6.177   0.402 -0.0773 -0.1665  0.2715
 7704W        W11755   5.789   1.114  12.420  0.0126  0.2722 -0.2430
 7705W        W11756   0.733   0.063  10.491 -0.1975  0.1516 -0.0122
 7706W        W11757   0.859   3.406   3.115 -0.0330 -0.1264 -0.0651
 7707W        W11758   1.021   4.988   3.838 -0.1347  0.1004  0.0905
 7708W        W11759   7.408   9.858  12.920 -0.1357  0.0965  0.2547
 7709W        W11760   8.462   5.202  11.810 -0.2535 -0.1167 -0.1293
 7710W        W11761   7.227   7.723   1.983 -0.2639  0.0817 -0.2902
 7711W        W11762   0.773   2.408  10.606  0.0696 -0.1534  0.1501
 7712W        W11763   0.072   1.218   1.934 -0.0642 -0.2846 -0.2927
 7713W        W11764   0.667   5.739   0.270 -0.1207  0.0010 -0.0130
 7714W        W11765   4.245   6.277  12.853 -0.0836 -0.1768  0.0642
 7715W        W11766   8.905   3.446   2.041 -0.0844  0.2449  0.3288
 7716W        W11767   2.987   4.648   8.869 -0.1953 -0.1715  0.0084
 7717W        W11768   9.902   0.902   5.421 -0.0285  0.2427  0.1059
 7718W        W11769   0.155   4.764   9.635  0.1700  0.0658  0.1685
 7719W        W11770   0.283   8.267   2.142  0.0293 -0.3147  0.1699
 7720W        W11771   0.931   7.599   1.169  0.3026 -0.2142  0.0314
 7721W        W11772   9.215   5.216  13.444 -0.0152  0.1614 -0.0998
 7722W        W11773   5.712   5.146   9.680 -0.2679  0.1433 -0.0962
 7723W        W11774   2.188   4.838   4.323  0.0882 -0.0394  0.3576
 7724W        W11775   2.802   2.451   9.889 -0.0363 -0.3717 -0.0350
 7725W        W11776   2.244   0.218   0.723 -0.0620 -0.1016  0.3644
 7726W        W11777   6.516   1.916   1.910 -0.0715  0.0305 -0.1905
 7727W        W11778   2.357   4.630   9.615 -0.0196 -0.1863  0.2358
 7728W        W11779   9.149   7.139  10.243  0.1720  0.0479  0.0391
 7729W        W11780   1.667   3.746  11.268  0.0200 -0.0766 -0.1264
 7730W        W11781   1.878   9.077  10.352  0.0734 -0.1648  0.0506
 7731W        W11782   7.928   3.552   4.342  0.0216  0.3871  0.2568
 7732W        W11783   7.922   0.121  12.721  0.0188 -0.1494 -0.0046
 7733W        W11784   1.661   7.315   9.398 -0.1943  0.0144 -0.1757
 7734W        W11785   3.050   7.639  10.676 -0.2449 -0.0915 -0.2241
 7735W        W11786   0.621   3.918   3.198 -0.0229  0.2816 -0.1609
 7736W        W11787   9.846   4.173   1.355 -0.0067 -0.2160 -0.2218
 7737W        W11788   1.263   7.299   0.856 -0.0246 -0.0963 -0.1198
 7738W        W11789   9.754   2.562  13.624  0.1047 -0.0869 -0.1714
 7739W        W11790   7.930   1.875  12.930  0.2491  0.0538  0.1114
 7740W        W11791   4.384   2.487   9.897 -0.3545 -0.0655  0.3362
 7741W        W11792   8.847   4.193   1.439  0.2233 -0.1122  0.2732
 7742W        W11793   9.866   5.334   3.611 -0.0862  0.1245  0.2771
 7743W        W11794   5.323   7.970   0.141 -0.3954 -0.1252 -0.0469
 7744W        W11795   1.543   7.681   2.966 -0.2169 -0.0806 -0.1956
 7745W        W11796   4.764  10.158   8.189  0.0601  0.2146  0.3973
 7746W        W11797   5.065   9.791   2.668 -0.3046 -0.0542 -0.0306
 7747W        W11798   0.225   5.436   4.583  0.0257  0.3133 -0.1808
 7748W        W11799   1.559   2.482  11.340  0.2124  0.3510 -0.0713
 7749W        W11800   6.805   1.496   2.162 -0.0588 -0.0925  0.2083
 7750W        W11801   6.130   2.394   4.894 -0.1681  0.0342 -0.0544
 7751W        W11802   1.769   4.437   5.312 -0.1262 -0.3294 -0.3593
 7752W        W11803   6.640   2.023   3.209 -0.1356  0.0595  0.2815
 7753W        W11804   4.076   9.042   2.876  0.0569 -0.1722 -0.0637
 7754W        W11805   7.115   7.695  10.542 -0.1440 -0.0169  0.1461
 7755W        W11806   7.728   2.011  10.708 -0.1826  0.2008 -0.1680
 7756W        W11807   9.919   6.973  13.695  0.0703  0.1995  0.1897
 7757W        W11808   1.718   1.573   3.119  0.1869  0.2827 -0.0991
 7758W        W11809   0.539   1.548  11.491  0.1054  0.0580  0.2257
 7759W        W11810   4.993   4.045  10.254  0.0413 -0.0536  0.2749
 7760W        W11811   5.249   4.411   4.708 -0.1685 -0.1221  0.0809
 7761W        W11812   4.030   7.845   1.153  0.0281  0.2742  0.0954
 7762W        W11813   1.154   0.531  12.563 -0.0978 -0.1507  0.1538
 7763W        W11814   2.278   7.400   4.126 -0.1154  0.1081  0.1625
 7764W        W11815   1.576   9.127   9.035 -0.0555 -0.2122 -0.0769
 7765W        W11816   2.342   8.866  13.131 -0.0411  0.2194  0.1882
 7766W        W11817   0.575   6.197  13.444 -0.1959 -0.0224  0.0619
 7767W        W11818   4.150   4.291  10.537 -0.0974 -0.1483  0.1588
 7768W        W11819   1.516   9.043   5.468  0.1594  0.1898 -0.1357
 7769W        W11820   1.136   8.731   3.143  0.0494 -0.1042  0.1381
 7770W        W11821   4.730   0.350  11.157  0.0123 -0.2098  0.1177
 7771W        W11822   4.154   5.886   8.854  0.1261 -0.1243  0.2012
 7772W        W11823   4.518   1.283  11.206 -0.0226 -0.1287 -0.1679
 7773W        W11824   9.481   6.543  12.420  0.0270 -0.3489  0.2568
 7774W        W11825   8.919   2.372   0.111 -0.0624 -0.0154 -0.2790
 7775W        W11826   4.702   0.302   2.069  0.0207  0.0629 -0.2097
 7776W        W11827   0.249   0.199   0.453  0.0701 -0.3548  0.0140
 7777W        W11828   5.201   6.117   3.347 -0.2013 -0.0683 -0.1604
 7778W        W11829   6.980   2.023   9.759  0.0730  0.4897 -0.1462
 7779W        W11830   6.490   4.094  10.854  0.2697 -0.1591  0.0474
 7780W        W11831   2.174   1.114   0.239 -0.1455 -0.1166 -0.1075
 7781W        W11832   8.485   2.318   2.413 -0.1360 -0.4417 -0.0334
 7782W        W11833   5.765   4.276   2.740 -0.1544 -0.0413  0.0843
 7783W        W11834   2.843   1.076   3.333 -0.1672  0.0568  0.1117
 7784W        W11835   8.569   4.133   0.053 -0.0678  0.2431  0.1698
 7785W        W11836   1.696   8.970   2.198  0.1577 -0.0002  0.2658
 7786W        W11837   4.491   9.024   4.019  0.3445  0.1737 -0.0074
 7787W        W11838   9.987   8.412   0.259 -0.0781 -0.1175  0.2996
 7788W        W11839   8.420   1.535   9.813 -0.2430  0.0771  0.0376
 7789W        W11840   0.897   0.237   1.553  0.0589 -0.3719 -0.0572
 7790W        W11841   4.925   2.633   0.018 -0.1994 -0.2144  0.1584
 7791W        W11842   4.853   2.916  13.252 -0.2617 -0.3771  0.3448
 7792W        W11843   1.881   8.048   3.612 -0.2698  0.3159 -0.0703
 7793W        W11844   9.778   9.664   0.565  0.0312 -0.0918 -0.1976
 7794W        W11845   4.987   1.535  10.437 -0.2950  0.2173 -0.2572
 7795W        W11846   0.163   7.816  10.522  0.0866 -0.2610  0.0226
 7796W        W11847   2.673   7.479   0.909  0.0108 -0.2539 -0.2936
 7797W        W11848   6.501   9.421  11.727 -0.0131  0.1267 -0.0163
 7798W        W11849   0.323   0.399  10.252  0.1032 -0.0307  0.3430
 7799W        W11850   6.715   6.045  12.790 -0.1140  0.1183 -0.0084
 7800W        W11851   1.791   0.101   9.923 -0.1934 -0.2614 -0.4480
 7801W        W11852   5.492   3.414   3.067  0.0223 -0.2682 -0.0578
 7802W        W11853   0.410   7.211  11.476  0.2844 -0.0620  0.1766
 7803W        W11854   4.620   0.077  13.174 -0.1573 -0.2036 -0.0379
 7804W        W11855   8.002   1.132  10.189 -0.0846 -0.0341  0.2198
 7805W        W11856   2.601   9.268   3.692  0.1551 -0.1124  0.0626
 7806W        W11857   6.126   0.058   9.298 -0.1741 -0.0994  0.1365
 7807W        W11858   9.288   7.392   1.513  0.0860  0.0708  0.2318
 7808W        W11859   4.565   0.924  10.731  0.0113 -0.1128 -0.0620
 7809W        W11860   1.039   8.914   2.592  0.0758  0.0757  0.0751
 7810W        W11861   2.909   7.269  12.536 -0.1483  0.0834 -0.1611
 7811W        W11862   6.995   9.616   0.249  0.1160 -0.1503  0.0527
 7812W        W11863   7.772   0.597  12.843  0.2362  0.0696  0.3799
 7813W        W11864   1.288   9.807   9.969 -0.1628  0.0070  0.1598
 7814W        W11865   4.789   3.343   2.556 -0.2424  0.1452 -0.2732
 7815W        W11866   1.962   1.727   8.738 -0.1223 -0.1511 -0.0848
 7816W        W11867   5.643   5.181   0.394  0.0475  0.0443  0.1632
 7817W        W11868   2.527   4.394  11.342  0.3838  0.0937  0.0570
 7818W        W11869   5.602   9.311   4.775 -0.2078 -0.1605  0.1854
 7819W        W11870   5.521   1.755   3.786 -0.1316  0.0467 -0.0247
 7820W        W11871   6.038  10.145   5.316 -0.0686  0.2402 -0.0633
 7821W        W11872   8.944   4.753   1.557 -0.0931  0.2338  0.0394
 7822W        W11873   1.121   1.016  10.554 -0.0689 -0.1091  0.0821
 7823W        W11874   4.299   5.654   0.702  0.0946 -0.1875 -0.0647
 7824W        W11875   9.851  10.044  11.558 -0.1390 -0.3177 -0.1430
 7825W        W11876   3.387   1.795   0.192  0.0808  0.0581  0.3945
 7826W        W11877   7.483   6.605  12.285  0.2257 -0.1241 -0.0166
 7827W        W11878   3.991   9.006   1.491  0.1220  0.0269 -0.3890
 7828W        W11879   4.191  10.014  12.401  0.2428  0.1070  0.1494
 7829W        W11880   8.814   1.104  12.982  0.6093 -0.0187 -0.4490
 7830W        W11881   0.036   0.045   1.427 -0.3349 -0.0047  0.0590
 7831W        W11882   8.372   0.876  12.923  0.0635 -0.1021  0.1868
 7832W        W11883   6.206   2.756   2.140 -0.0216  0.3511 -0.2669
 7833W        W11884   3.409   0.913   0.755 -0.2203  0.0379  0.2443
 7834W        W11885   3.302   6.205  11.466  0.1008 -0.4362 -0.2561
 7835W        W11886   1.881   9.326   1.368  0.1423  0.1770  0.1043
 7836W        W11887   9.264   9.914   2.188  0.0833  0.0249 -0.0023
 7837W        W11888   2.867   2.702   4.120 -0.1043  0.0805  0.2490
 7838W        W11889   0.227   1.754   4.713 -0.1078  0.1134 -0.1081
 7839W        W11890   0.661   2.287   2.299  0.1011 -0.0198  0.1651
 7840W        W11891   0.160   3.502   9.900 -0.0041 -0.1565 -0.0341
 7841W        W11892   0.314   6.720  12.797 -0.0200 -0.0647  0.0315
 7842W        W11893   9.006   6.531  10.110 -0.2347 -0.1440  0.0475
 7843W        W11894   2.267   6.861  13.138 -0.0612  0.1066  0.3192
 7844W        W11895   6.219   3.139   0.751 -0.0582 -0.0139 -0.2474
 7845W        W11896   6.502   1.630   0.008 -0.2056  0.0896  0.2618
 7846W        W11897   7.512   4.414  10.886 -0.0512 -0.0346 -0.2252
 7847W        W11898   3.538   4.748   8.832  0.2017  0.2934  0.1186
 7848W        W11899   3.209   3.743   4.365 -0.0467  0.0449  0.1744
 7849W        W11900   8.213   9.295  11.796  0.1091  0.0327 -0.2570
 7850W        W11901   8.395   5.532  10.935  0.3278 -0.2443  0.2197
 7851W        W11902   7.571   8.022   0.607 -0.0721  0.0557 -0.1825
 7852W        W11903   9.642   6.749   2.796  0.2903  0.1751  0.2922
 7853W        W11904   1.218   5.960  11.363 -0.1740 -0.4418  0.2056
 7854W        W11905   8.749   5.175   0.392 -0.2728  0.0989 -0.2499
 7855W        W11906   4.642   8.699   0.371  0.1620  0.0135  0.0507
 7856W        W11907   0.131   8.685   2.396  0.4365 -0.3393 -0.3561
 7857W        W11908   5.657   7.321  12.385  0.0856  0.2133  0.2638
 7858W        W11909   3.420   6.097   4.702 -0.1829  0.1058  0.0575
 7859W        W11910   5.176   2.360  12.600 -0.0744 -0.0864 -0.0985
 7860W        W11911   5.843   8.811   3.020 -0.3176 -0.0210  0.3057
 7861W        W11912   4.981   6.404   0.566  0.1792  0.1609 -0.1614
 7862W        W11913   8.473   5.875   2.870 -0.1970  0.0226 -0.1022
 7863W        W11914   5.167   1.442   3.837  0.1342  0.1100 -0.1743
 7864W        W11915   2.598   2.287   3.345 -0.0351 -0.1491  0.2061
 7865W        W11916   3.472   5.391   2.086  0.0151 -0.0675 -0.0931
 7866W        W11917   8.326   1.603   0.486 -0.0927  0.0106  0.1456
 7867W        W11918   9.487   4.192   4.411  0.1998  0.1284  0.0400
 7868W        W11919   1.234   1.804   3.102  0.1727  0.1411 -0.1333
 7869W        W11920   3.974   4.856  11.773 -0.1100 -0.2068 -0.0224
 7870W        W11921   3.166   5.772  10.415  0.0942 -0.0855  0.0518
 7871W        W11922   1.599   6.391  12.251  0.3399 -0.1438 -0.1905
 7872W        W11923   5.631   2.262  10.060 -0.3634 -0.2167 -0.4004
 7873W        W11924   5.198   1.349   1.009  0.0655 -0.0142 -0.4928
 7874W        W11925   1.607   3.860  12.162  0.0759 -0.0526 -0.3077
 7875W        W11926   9.500   3.034   0.506  0.1393  0.1394  0.2125
 7876W        W11927   5.453   3.979   3.847 -0.0656 -0.0535  0.3314
 7877W        W11928   5.805   2.867  13.529  0.2085 -0.1632 -0.3748
 7878W        W11929   1.410   3.505   2.687  0.0842  0.3148  0.0618
 7879W        W11930   0.836   5.857   1.884  0.2642 -0.0092  0.2966
 7880W        W11931   6.469   7.679  11.563  0.1315  0.3028 -0.0087
 7881W        W11932   9.686   0.316   9.748  0.0814  0.1757  0.0671
 7882W        W11933   8.605   7.101   1.148 -0.1081 -0.1517  0.1462
 7883W        W11934   0.548   7.861  10.100 -0.2731  0.0780 -0.0925
 7884W        W11935   0.376   8.717   1.372 -0.2860 -0.0087 -0.1672
 7885W        W11936   2.029   0.360  11.967  0.0062  0.1461  0.0019
 7886W        W11937   3.723   5.356   1.573 -0.0600 -0.0703  0.0098
 7887W        W11938   7.647   6.825  11.716 -0.1459  0.1262 -0.0590
 7888W        W11939   7.723   0.636   5.302 -0.0359  0.0100  0.2118
 7889W        W11940   0.980   8.888  11.052 -0.2205 -0.1878  0.1180
 7890W        W11941   7.376   0.386  11.351 -0.1499  0.0841  0.2441
 7891W        W11942   8.225   8.639  12.689 -0.1152 -0.1632  0.1412
 7892W        W11943   6.728   9.878  13.465  0.2176 -0.1304 -0.1250
 7893W        W11944   9.905   5.653  10.739  0.2390  0.0562 -0.0999
 7894W        W11945   0.486   2.480   8.742  0.0987  0.1017  0.3080
 7895W        W11946   4.867   0.920  11.164  0.2763 -0.1781  0.0567
 7896W        W11947   5.759   9.702  10.861  0.0387 -0.1255 -0.2291
 7897W        W11948   2.084   3.940  11.036 -0.2016 -0.0216  0.0723
 7898W        W11949   3.942   4.335  11.046  0.0021  0.4083 -0.1574
 7899W        W11950   9.462   0.493  12.779 -0.0526 -0.1529 -0.0298
 7900W        W11951   3.064   6.670   1.840 -0.0004  0.1586 -0.2221
 7901W        W11952   1.719   0.142   2.490 -0.3814 -0.1565  0.0571
 7902W        W11953   5.778   3.971   0.888  0.1522 -0.2083 -0.1593
 7903W        W11954   3.391   8.502  12.922  0.2164  0.2026  0.0592
 7904W        W11955   6.366   2.057   0.861  0.1024  0.0793  0.2224
 7905W        W11956   1.811   7.371   0.026 -0.0143 -0.0742 -0.1843
 7906W        W11957   2.339   9.242   9.665 -0.0416  0.3045 -0.0450
 7907W        W11958   0.954   7.421   2.634  0.2432  0.3885  0.0132
 7908W        W11959   7.560   5.320   2.575 -0.1109  0.1010 -0.3091
 7909W        W11960   3.252   3.336  13.452 -0.2236  0.1385  0.3828
 7910W        W11961   5.170   0.302  13.323  0.0771  0.0856 -0.0960
 7911W        W11962   5.365   2.075   1.663 -0.1882  0.0661 -0.3043
 7912W        W11963   3.454   0.984   5.010  0.2158 -0.3204 -0.1282
 7913W        W11964   0.109   3.560  10.845 -0.3342  0.0102 -0.0721
 7914W        W11965   2.150   4.398  11.022  0.3194  0.1935 -0.1174
 7915W        W11966   0.055   7.784   1.950  0.1011  0.1574  0.0478
 7916W        W11967   9.410   0.501   2.913 -0.1184 -0.0789  0.0759
 7917W        W11968   9.410   1.618  11.346  0.1834  0.0753  0.1750
 7918W        W11969   5.243   9.713   9.270 -0.0558  0.2455  0.1631
 7919W        W11970  10.093   0.594   9.975  0.2310 -0.2029 -0.1320
 7920W        W11971   4.415   1.249   9.279 -0.1748  0.0409  0.1057
 7921W        W11972   5.867   4.581   2.293 -0.1204 -0.0263  0.1843
 7922W        W11973   3.813   5.618   5.001 -0.1281  0.1945  0.1295
 7923W        W11974   4.006   0.541   9.846 -0.2439 -0.1212  0.1094
 7924W        W11975   3.656   5.169   4.777  0.2523  0.0506 -0.0312
 7925W        W11976   0.021   0.247   2.456  0.0663  0.0147 -0.3433
 7926W        W11977   7.839   0.039   4.377 -0.1042 -0.0312 -0.0507
 7927W        W11978   1.320  10.178   1.729 -0.1873  0.2424  0.1382
 7928W        W11979   9.573   0.096  13.440  0.0802 -0.1669 -0.0524
 7929W        W11980   9.592   2.772   1.363 -0.2653 -0.2022  0.1012
 7930W        W11981   6.687   9.508  12.565 -0.2794 -0.0650 -0.2007
 7931W        W11982   3.622   2.824   0.326  0.0468  0.1155 -0.0250
 7932W        W11983   6.508   9.953   9.570  0.3025 -0.2640  0.1463
 7933W        W11984   3.061   1.025   2.290 -0.1108  0.0722 -0.0386
 7934W        W11985   1.032   8.297   2.180 -0.1479 -0.0055 -0.0452
 7935W        W11986  10.181   8.454  11.535  0.0847  0.2745 -0.0824
 7936W        W11987   9.746  10.082  13.851 -0.0265 -0.0783  0.1839
 7937W        W11988   3.394   8.780  11.408 -0.1962  0.0267 -0.0548
 7938W        W11989   7.083   0.290   9.785 -0.1399  0.2432 -0.0447
 7939W        W11990   6.989   3.963   4.537  0.1367  0.0002 -0.1236
 7940W        W11991   4.562   4.762   1.161 -0.2877  0.1628  0.0993
 7941W        W11992   0.690   2.321  11.939 -0.0300  0.0840 -0.1195
 7942W        W11993   1.613   8.144   4.814  0.0657 -0.3076  0.2319
 7943W        W11994   0.525   0.994  11.476 -0.4572  0.1590 -0.1479
 7944W        W11995   0.453   9.675  13.042  0.0703 -0.0079  0.0471
 7945W        W11996   8.898   3.242   5.279 -0.0317  0.0717 -0.1482
 7946W        W11997   2.849   6.812  12.924 -0.1156  0.2800 -0.0331
 7947W        W11998   5.674   1.982   3.377 -0.2651  0.0547 -0.3892
 7948W        W11999  10.121   5.159   2.888 -0.2750  0.0973 -0.0355
 7949W        W12000   7.626   2.724  10.143 -0.2151  0.0113 -0.2083
 7950W        W12001   0.738   5.332  11.227  0.0722  0.1257  0.0761
 7951W        W12002   0.024   8.705   1.029  0.1661  0.3371  0.1427
 7952W        W12003   0.142   8.001   0.212 -0.1639 -0.2950  0.1325
 7953W        W12004   7.587   6.121   2.770 -0.2233 -0.0089 -0.3438
 7954W        W12005   7.017   4.026  11.828 -0.2147  0.1357 -0.2638
 7955W        W12006   0.888   0.010   2.492 -0.0788  0.2679 -0.2239
 7956W        W12007   6.505   7.802  13.204 -0.0558 -0.1471  0.0220
 7957W        W12008   2.767   6.331  12.773  0.0834 -0.1615  0.2855
 7958W        W12009   5.941   0.329  13.083  0.2496 -0.0884  0.4989
 7959W        W12010  10.058   5.257   9.330  0.4053  0.1256 -0.3164
 7960W        W12011   1.640   6.272   1.240 -0.2342  0.1140 -0.2231
 7961W        W12012   4.319   0.168   9.129  0.0443 -0.3048 -0.0608
 7962W        W12013   8.273   6.553   2.113 -0.1226 -0.2406 -0.1526
 7963W        W12014   6.273   8.527   2.917 -0.0767 -0.0604  0.2989
 7964W        W12015   1.054   2.044  10.856 -0.1154  0.3697 -0.4065
 7965W        W12016   2.214   1.204   1.442  0.0345  0.2554  0.2125
 7966W        W12017   5.162   4.977  12.924 -0.0611 -0.2192  0.2083
 7967W        W12018   1.814   8.581  12.021  0.2659  0.2513  0.2431
 7968W        W12019   8.177   4.123  10.260 -0.0701  0.1305  0.0352
 7969W        W12020   1.289   0.274   9.180  0.2825 -0.2457  0.1616
 7970W        W12021   7.247   8.674   1.880 -0.2645  0.3417  0.1454
 7971W        W12022   8.693   0.174  13.271 -0.4322 -0.3310  0.0705
 7972W        W12023   7.437   2.466   1.006 -0.0431  0.0107 -0.4334
 7973W        W12024   7.318   9.463  11.918  0.1511 -0.0913  0.1695
 7974W        W12025   8.473   2.281   5.209 -0.0231 -0.1959 -0.0204
 7975W        W12026   2.963   3.673   8.856 -0.0886 -0.0250 -0.2348
 7976W        W12027   4.559   0.489   3.458  0.0216  0.0054 -0.2182
 7977W        W12028   3.700   0.868   1.685 -0.0380 -0.2159  0.2716
 7978W        W12029   2.200   0.622   9.576  0.2843  0.2010 -0.1709
 7979W        W12030   9.013   3.730   3.486  0.2132  0.0381 -0.2111
 7980W        W12031   1.681   4.114   1.081  0.0639 -0.1622  0.1077
 7981W        W12032   0.808   7.165   3.743  0.2848  0.1571  0.2480
 7982W        W12033   5.854   5.319   9.231  0.1274 -0.1115  0.0647
 7983W        W12034   3.077   1.592   0.669  0.0446  0.0087 -0.1834
 7984W        W12035   2.704   8.453  11.700  0.0107 -0.0662 -0.0871
 7985W        W12036   9.571   6.136  11.618 -0.1403  0.0406 -0.0849
 7986W        W12037   3.612   6.924   1.711  0.3813  0.2856 -0.1434
 7987W        W12038   8.299   2.914   9.141 -0.0760  0.1057  0.0384
 7988W        W12039   8.818   0.376  12.329  0.0118  0.2420  0.2780
 7989W        W12040   5.484   2.236  11.674 -0.1930  0.0109 -0.0375
 7990W        W12041   5.958   1.615   2.230  0.0033 -0.0335  0.2446
 7991W        W12042   2.964   0.269  11.361 -0.3691  0.2212  0.2213
 7992W        W12043   1.439   3.285  10.399  0.2395  0.0317  0.0431
 7993W        W12044  10.136   0.577  11.128 -0.1208 -0.0518 -0.1116
 7994W        W12045   6.345   8.848  10.337 -0.0145 -0.0142 -0.0958
 7995W        W12046   4.654   5.537  13.365 -0.1443  0.2812  0.0148
 7996W        W12047   5.313   8.956   0.198  0.3542 -0.0055  0.1155
 7997W        W12048   7.142   3.528   4.699 -0.0063 -0.0389  0.1517
 7998W        W12049   4.155   6.320  13.732 -0.0526  0.4664 -0.0435
 7999W        W12050   3.279   4.796   5.414 -0.1184 -0.1151  0.0186
 8000W        W12051   3.689   3.146   1.167 -0.4178 -0.2726  0.1337
 8001W        W12052   2.465   6.945   0.100 -0.2258  0.2082  0.0245
 8002W        W12053   2.196   9.254  10.866 -0.2234 -0.2443 -0.1029
 8003W        W12054   0.690   8.072   1.851 -0.0770 -0.0905  0.2853
 8004W        W12055   2.383   2.848   1.570  0.2173  0.0471 -0.0924
 8005W        W12056   4.643   7.135   1.509 -0.2086  0.1850  0.0255
 8006W        W12057   3.231   8.639   0.272 -0.0107  0.1569 -0.1562
 8007W        W12058   9.254   3.571   9.039  0.2805  0.0573 -0.0767
 8008W        W12059   1.460   0.519  13.752 -0.2418  0.2431  0.0028
 8009W        W12060   6.050   0.830   5.229  0.2881 -0.1015 -0.0015
 8010W        W12061   2.040   7.204   2.934 -0.1150 -0.2418  0.1653
 8011W        W12062   3.305   4.834   4.867  0.4055 -0.2613  0.0905
 8012W        W12063   8.371   3.277  13.595  0.1060 -0.0024 -0.2269
 8013W        W12064   7.598   8.601   0.873  0.0093 -0.1426 -0.2589
 8014W        W12065  10.095   4.844   3.561 -0.2902 -0.0391 -0.1440
 8015W        W12066   9.472   1.640   4.364  0.0555  0.1391 -0.1980
 8016W        W12067   2.870   3.482  10.172  0.1854 -0.2732 -0.1144
 8017W        W12068   9.018   0.022   2.877  0.0340 -0.3180  0.0731
 8018W        W12069   4.949   9.998   1.333 -0.2280 -0.2304  0.0338
 8019W        W12070   7.243   5.867  10.234 -0.1517 -0.3677  0.0333
 8020W        W12071   4.682   7.610   2.546  0.0533 -0.0385  0.0226
 8021W        W12072   7.492   8.969  10.727  0.3680 -0.0644 -0.3107
 8022W        W12073   6.990   8.653   2.414  0.0059  0.1395 -0.1204
 8023W        W12074   2.959   8.176  12.616  0.0793  0.1033 -0.0219
 8024W        W12075   3.368   5.696  12.271  0.6007 -0.2591  0.0393
 8025W        W12076   9.226   0.353   2.025  0.0826 -0.1420 -0.0406
 8026W        W12077   6.544   7.186   2.327 -0.2126  0.0739  0.3116
 8027W        W12078   5.390   2.189   1.180  0.1823 -0.0217 -0.1503
 8028W        W12079   7.735   8.592  11.021 -0.1265 -0.0878  0.0117
 8029W        W12080   7.958   5.860   2.078  0.0057  0.1297  0.0698
 8030W        W12081   1.402   8.267   4.163 -0.3264  0.0758 -0.0196
 8031W        W12082   2.001   1.827  12.033  0.0418  0.1307  0.3394
 8032W        W12083   0.916   9.386  11.948  0.1290  0.0012 -0.0089
 8033W        W12084   9.511   2.262  12.145 -0.0041 -0.1467  0.0188
 8034W        W12085   6.628   8.400   1.497 -0.2931  0.0971 -0.0975
 8035W        W12086   9.491   1.059  12.865 -0.0524  0.1916  0.1357
 8036W        W12087   2.875   8.071   2.684 -0.3065 -0.0552 -0.2910
 8037W        W12088   3.387   8.569   0.772 -0.0964  0.0591  0.2667
 8038W        W12089   5.415   0.019   2.582 -0.1880 -0.1379 -0.0889
 8039W        W12090   2.506   8.297  12.645 -0.0271 -0.1584  0.2472
 8040W        W12091   4.128   5.648   4.013  0.2546  0.3459 -0.1142
 8041W        W12092   4.994   2.845   3.335  0.1499 -0.0459 -0.3210
 8042W        W12093   6.927   6.271   0.080  0.0561 -0.0456 -0.1100
 8043W        W12094   9.881   7.073  13.043 -0.3029  0.2052 -0.0712
 8044W        W12095   4.294   2.184  10.755  0.2174 -0.0630 -0.1035
 8045W        W12096   7.483   9.177   2.195 -0.2860 -0.2217 -0.1093
 8046W        W12097   4.403   0.838   0.083 -0.0709  0.2400 -0.0065
 8047W        W12098   0.390   3.498   4.589  0.2996  0.0966  0.0374
 8048W        W12099   1.287   8.090  12.879 -0.0171 -0.1080  0.0162
 8049W        W12100   0.618   6.297  12.949 -0.1137  0.3116 -0.0573
 8050W        W12101   4.996   8.333   0.980  0.1522  0.0479 -0.3344
 8051W        W12102   5.800  10.136   0.904 -0.1973  0.1293  0.2656
 8052W        W12103   5.944   0.117   2.639  0.0354  0.0332 -0.0732
 8053W        W12104   2.312   3.044  13.250  0.0055 -0.1205 -0.1611
 8054W        W12105   8.203   3.727  12.897 -0.0200  0.1174 -0.3214
 8055W        W12106   1.899   8.606   0.572 -0.3757 -0.0765 -0.0343
 8056W        W12107   6.172   0.299  13.515  0.0087  0.2073 -0.0594
 8057W        W12108   5.624   5.804   0.895 -0.1373 -0.2333 -0.0398
 8058W        W12109   5.392   3.674   3.440  0.1853  0.0646  0.1513
 8059W        W12110   1.400   6.225   3.499 -0.1595 -0.0454  0.1640
 8060W        W12111   0.351   3.038   9.855  0.0934  0.0306  0.2575
 8061W        W12112   1.079   3.011  10.811 -0.2260 -0.0752 -0.1865
 8062W        W12113   0.341   1.197  10.588  0.2929 -0.2288  0.1151
 8063W        W12114   8.461   0.729   3.045 -0.0144 -0.0808  0.1178
 8064W        W12115   1.251   3.421   1.732  0.2491  0.1302  0.0199
 8065W        W12116   8.696   7.945  10.753 -0.1721 -0.1426 -0.1166
 8066W        W12117   2.186   0.892  10.874  0.1733  0.4396 -0.3311
 8067W        W12118   6.125   7.634  10.763  0.1119 -0.2382  0.2475
 8068W        W12119   3.949   2.557  10.150 -0.4730  0.3466 -0.1644
 8069W        W12120   5.281   2.075  13.115  0.0438  0.3219 -0.2375
 8070W        W12121   1.575   1.143   1.013  0.0413  0.1731  0.2235
 8071W        W12122   3.847   0.326  10.900  0.1754  0.0686 -0.0883
 8072W        W12123   9.899   3.913   4.343  0.1978 -0.0199  0.0929
 8073W        W12124   2.387   4.657  13.879  0.2014  0.3698  0.3876
 8074W        W12125   9.048   2.514  10.325 -0.0970  0.1695 -0.2409
 8075W        W12126   2.804   2.879  10.887 -0.0225 -0.0157 -0.0694
 8076W        W12127   6.406   3.687   2.401 -0.0780 -0.0185 -0.1127
 8077W        W12128   4.342   8.651  12.848  0.0573 -0.0266  0.0410
 8078W        W12129   3.903   0.815   2.238 -0.2790  0.1644 -0.2603
 8079W        W12130   4.892   4.317  13.275  0.0422 -0.0794  0.2898
 8080W        W12131   4.045   5.205  11.425  0.3115 -0.0634 -0.0191
 8081W        W12132   6.095   1.009   2.009  0.0083 -0.0099 -0.0854
 8082W        W12133   5.069   0.610   9.723  0.0163  0.1191 -0.0598
 8083W        W12134   8.163  10.178   0.022  0.2264 -0.0806  0.0365
 8084W        W12135   3.136   7.361   4.120 -0.1431  0.2011  0.1945
 8085W        W12136   3.074   9.282   1.274 -0.1816  0.0598  0.2000
 8086W        W12137   2.534   4.513  12.859 -0.1328  0.1599  0.0468
 8087W        W12138   6.356   5.268   3.398  0.1974 -0.1365  0.1067
 8088W        W12139   3.835   9.933  12.924 -0.2469 -0.0349  0.2784
 8089W        W12140   4.541   0.116  11.582  0.3130 -0.1466  0.0783
 8090W        W12141   8.031   3.621   0.971 -0.1516 -0.0212  0.2407
 8091W        W12142   2.515   0.746  10.225  0.2201  0.0256  0.0470
 8092W        W12143   3.562   8.600   3.708 -0.0547  0.0028 -0.0518
 8093W        W12144   5.177   1.336   9.514  0.0004  0.0193  0.1664
 8094W        W12145   5.044   4.342  10.640 -0.0589  0.2312  0.0263
 8095W        W12146   6.434   8.650  11.382  0.0133 -0.1836 -0.1051
 8096W        W12147   5.025   8.915   1.017  0.0606  0.3339  0.3196
 8097W        W12148   0.724   3.536  13.321 -0.2931 -0.0606  0.0634
 8098W        W12149   1.962   9.461  10.021 -0.1531  0.1305  0.0178
 8099W        W12150   2.002   7.426  11.204 -0.0031 -0.0808 -0.0262
 8100W        W12151   8.142  10.064   0.977  0.1682  0.1037 -0.0263
 8101W        W12152   6.269   8.652  11.992 -0.2987 -0.1810  0.3245
 8102W        W12153   7.884   2.130   3.033  0.1469  0.1451  0.1104
 8103W        W12154   0.641   4.053   9.675 -0.0459  0.1808  0.0692
 8104W        W12155   7.797   3.300   1.469 -0.3550  0.0019 -0.2010
 8105W        W12156   6.940   1.691  13.119  0.2106  0.1073  0.3530
 8106W        W12157   0.727   5.076  13.889  0.2720  0.0299  0.1900
 8107W        W12158   0.426   6.865   0.852  0.1001 -0.4782  0.0037
 8108W        W12159   6.496   3.111   3.002 -0.0266  0.3714 -0.3074
 8109W        W12160   6.939   1.145   0.793  0.0512 -0.0550  0.0055
 8110W        W12161  10.011   2.712  11.507 -0.1332 -0.0809 -0.0474
 8111W        W12162   6.571   8.596  12.972 -0.4280  0.0803 -0.1909
 8112W        W12163   3.703   6.488  11.230  0.1586 -0.0762  0.2354
 8113W        W12164   5.376   9.602  13.284  0.2544  0.4586 -0.2835
 8114W        W12165   7.244   9.935   0.664  0.5107  0.0933 -0.3480
 8115W        W12166   4.314   6.128   4.309 -0.2835 -0.0609 -0.2563
 8116W        W12167   6.179   0.142  10.936 -0.0846 -0.0085 -0.1496
 8117W        W12168   7.841   0.352   0.267  0.0102 -0.3725  0.3167
 8118W        W12169   5.986   1.261  10.895 -0.1510  0.2290  0.0850
 8119W        W12170   9.584   6.474   0.745  0.0345 -0.2812 -0.1766
 8120W        W12171   2.143   9.921   0.791  0.1449  0.1564 -0.4524
 8121W        W12172   7.308   9.622  13.807 -0.1741 -0.0826 -0.2935
 8122W        W12173   9.871   3.904   3.410  0.0386 -0.0930 -0.2823
 8123W        W12174   4.332   3.738   0.115  0.2249  0.2209 -0.2561
 8124W        W12175   7.024   7.850  13.706  0.1816 -0.0070  0.0101
 8125W        W12176  10.046   8.852  13.132  0.0797  0.0617 -0.0091
 8126W        W12177   2.995   4.699  11.967 -0.0861 -0.2237  0.4138
 8127W        W12178   5.774   3.939  12.363  0.0102  0.2298  0.0097
 8128W        W12179   5.905   4.085   9.669  0.0761  0.3128  0.0395
 8129W        W12180   0.142   7.157  12.525  0.2438 -0.1952 -0.1239
 8130W        W12181   4.492   9.659   0.413  0.3214 -0.2028 -0.2025
 8131W        W12182   9.645   2.871   9.544 -0.1816 -0.1564  0.2563
 8132W        W12183   7.817   3.973  11.922  0.2240  0.1252 -0.2886
 8133W        W12184   7.685   9.510  13.349 -0.2438  0.1523  0.1260
 8134W        W12185   7.247   2.407   1.980 -0.0156 -0.2066  0.0828
 8135W        W12186   5.850   2.729   9.925  0.1792  0.3983  0.2430
 8136W        W12187   8.621   9.334  10.409 -0.0427  0.1326 -0.3896
 8137W        W12188   0.900   1.828   1.022  0.1101 -0.0001  0.2060
 8138W        W12189   8.911   4.269  13.605 -0.2727  0.3496  0.2139
 8139W        W12190   3.410   2.266   9.573  0.1486 -0.0658 -0.0802
 8140W        W12191   8.854   4.446   3.863 -0.0117 -0.1709  0.0824
 8141W        W12192   9.975   5.224   9.871  0.1771 -0.0293  0.3403
 8142W        W12193   0.631   8.329   9.639 -0.0486 -0.1221  0.2457
 8143W        W12194   9.004   9.921   3.522  0.0287  0.0888  0.0544
 8144W        W12195   3.382   0.445  11.181 -0.3874 -0.1688  0.0879
 8145W        W12196   5.407   2.524  13.192  0.0916  0.1352 -0.2522
 8146W        W12197   1.747   2.447  13.837  0.0422 -0.0694 -0.0806
 8147W        W12198   9.640   8.514   3.080  0.1502 -0.4087  0.2895
 8148W        W12199   1.351   7.539  13.687  0.0445 -0.1441  0.0386
 8149W        W12200   5.390   5.673   0.244 -0.0491  0.0897  0.0433
 8150W        W12201   6.134   1.148   3.698 -0.1594 -0.1953 -0.1782
 8151W        W12202   6.533   4.631  10.702 -0.1268 -0.1624 -0.5071
 8152W        W12203   4.168   8.238  11.442  0.0148 -0.0262 -0.4747
 8153W        W12204   0.266   6.424   0.665  0.2549  0.3124 -0.0802
 8154W        W12205   7.436   5.291   3.254 -0.2837  0.0309 -0.2112
 8155W        W12206   4.841   8.538   3.899 -0.2873 -0.1895 -0.0631
 8156W        W12207   2.203   0.964  11.456 -0.1096  0.0026 -0.0784
 8157W        W12208   8.710   4.209   2.592  0.0167  0.0465  0.1169
 8158W        W12209   0.278   8.301  12.552 -0.1858 -0.0849  0.0150
 8159W        W12210   0.446   4.009  11.158  0.4040  0.0859  0.1480
 8160W        W12211   4.638   7.830   9.449  0.1076  0.5317 -0.0524
 8161W        W12212   1.673   5.156  13.521 -0.0436  0.2382  0.1963
 8162W        W12213   8.776   6.745   2.124 -0.0853  0.2084 -0.1589
 8163W        W12214   6.314   1.811   8.874  0.3348  0.1538 -0.1417
 8164W        W12215   3.452   2.711   2.735 -0.1338  0.2228  0.0539
 8165W        W12216   5.330  10.008   0.231 -0.2530 -0.0794  0.2325
 8166W        W12217   0.643   0.024  10.975 -0.0588  0.1291 -0.0873
 8167W        W12218   6.947   9.020   2.049 -0.0120  0.1456  0.0713
 8168W        W12219   9.746   5.460  11.650 -0.2471  0.2040 -0.0750
 8169W        W12220   5.341   2.426   3.374  0.0465 -0.0682 -0.0056
 8170W        W12221   9.951   2.090   1.151  0.2023 -0.3332  0.1278
 8171W        W12222   3.722   2.128   4.115 -0.1363  0.2453 -0.1400
 8172W        W12223   8.331   4.065  12.346  0.3514  0.1438 -0.2501
 8173W        W12224   9.620   3.467   3.378  0.1290 -0.1793 -0.1892
 8174W        W12225   3.057   8.554   1.643 -0.0219 -0.2131  0.0707
 8175W        W12226   1.658   3.042  11.431  0.2097 -0.2205  0.0184
 8176W        W12227   7.326   6.699   0.502  0.1486  0.0004 -0.2617
 8177W        W12228   1.050   5.169   0.485 -0.2499  0.0424 -0.0277
 8178W        W12229   5.654   1.194   4.558  0.0835  0.0779 -0.0740
 8179W        W12230   5.549   6.144  10.432  0.1878 -0.1336  0.2139
 8180W        W12231   6.762   5.375   2.041  0.1242  0.2211 -0.2436
 8181W        W12232   3.653   3.378  12.117  0.1899  0.1476  0.1620
 8182W        W12233   6.700   1.240   3.739  0.0136 -0.1436  0.0211
 8183W        W12234  10.139   3.471   0.776  0.4346  0.2141 -0.0910
 8184W        W12235   7.959   8.696  10.568 -0.1542  0.0222 -0.0599
 8185W        W12236   4.994   5.851   3.006 -0.0117  0.1593 -0.3775
 8186W        W12237   7.491   3.717   2.293  0.1191  0.6086  0.1839
 8187W        W12238   6.576   9.779  11.408  0.3646  0.0536  0.0629
 8188W        W12239   5.533   1.185   5.099  0.0231  0.0481 -0.1287
 8189W        W12240   1.832   0.172   2.968 -0.3235  0.3132  0.1920
 8190W        W12241  10.187   1.165  13.563 -0.0285 -0.3957 -0.1525
 8191W        W12242   9.385   3.903  13.637 -0.0185  0.1475 -0.0597
 8192W        W12243   2.657   8.090  12.173 -0.0781  0.3263 -0.1075
 8193W        W12244   7.515   5.995   1.782 -0.0410 -0.0436 -0.2891
 8194W        W12245   1.394   2.899  10.041 -0.1969 -0.1350  0.0549
 8195W        W12246   3.920   2.653   4.094 -0.1793 -0.3370 -0.0432
 8196W        W12247   1.716   5.919  12.125 -0.1261 -0.1453 -0.0593
 8197W        W12248   2.557   7.108   3.288  0.1520 -0.0061 -0.0104
 8198W        W12249   2.551   3.408   8.922 -0.0057  0.1616  0.0434
 8199W        W12250   3.290   9.087  12.855  0.1226  0.0647  0.2728
 8200W        W12251   5.505   6.000   2.951 -0.3284 -0.1137  0.0354
 8201W        W12252   8.595   1.663  12.198 -0.2691 -0.0174 -0.0419
 8202W        W12253   9.725   9.740   4.191 -0.2556  0.0393  0.0338
 8203W        W12254   1.333   0.063   2.211  0.0529 -0.2137 -0.0847
 8204W        W12255   9.453   9.084  12.484  0.0375  0.3676 -0.1003
 8205W        W12256   2.286   2.959   3.035  0.0819 -0.0998 -0.0911
 8206W        W12257   2.192   0.008   1.716 -0.2302 -0.1167 -0.0603
 8207W        W12258   2.808   6.773  10.817  0.1267  0.0676  0.0238
 8208W        W12259   0.777   4.002   4.633  0.1240 -0.0656  0.0856
 8209W        W12260   4.225   5.713  13.098 -0.2175 -0.1319 -0.1820
 8210W        W12261   5.249   2.347   4.338 -0.2340 -0.0325  0.5194
 8211W        W12262   8.421   3.679   3.332  0.0344 -0.0946  0.0078
 8212W        W12263   7.961   7.683   0.674  0.0404  0.1018  0.2473
 8213W        W12264   3.709   8.929   4.552  0.0879  0.2767  0.1888
 8214W        W12265   1.020   4.248   3.318  0.0100  0.1673  0.1719
 8215W        W12266   4.238   0.888   1.467 -0.1699  0.0323  0.0291
 8216W        W12267   0.395   2.988   1.233 -0.1053 -0.1346 -0.0302
 8217W        W12268   0.998   0.452   2.222  0.1574 -0.3028 -0.0227
 8218W        W12269   3.897   4.709  10.738 -0.1881 -0.1337  0.2294
 8219W        W12270   5.009   4.842  10.052 -0.0705 -0.1620  0.2597
 8220W        W12271   6.197   4.048   9.217  0.0795 -0.1182 -0.1316
 8221W        W12272   6.184   0.427   4.646 -0.1128  0.0176  0.4308
 8222W        W12273   7.245   1.624  13.501 -0.1412  0.4104  0.1753
 8223W        W12274   9.331   0.892   1.993 -0.0138  0.2902 -0.1840
 8224W        W12275   0.167   3.230  11.625 -0.1742  0.2296  0.0830
 8225W        W12276   2.805   6.068  10.221 -0.2605  0.1237 -0.2920
 8226W        W12277   3.878   6.375   0.919  0.1172 -0.1134 -0.3011
 8227W        W12278   8.966   1.339  12.130  0.3009  0.1205  0.2174
 8228W        W12279   4.111   6.370   1.470  0.2853 -0.2688  0.2175
 8229W        W12280   7.704   2.001   2.122  0.0511  0.0249  0.2590
 8230W        W12281   5.925   3.321   4.334 -0.0399 -0.1004  0.3231
 8231W        W12282   8.783   1.094  13.552  0.0704 -0.3647  0.1683
 8232W        W12283   2.843   2.582  10.472 -0.1496 -0.3628  0.0645
 8233W        W12284   1.487   4.933  10.758  0.0132  0.1570  0.0325
 8234W        W12285   0.524   5.544  10.479 -0.2979  0.0823  0.0395
 8235W        W12286   4.607   7.381   9.741 -0.1018  0.1520  0.1062
 8236W        W12287   3.128   1.971   1.063 -0.0441 -0.2201  0.3302
 8237W        W12288   1.734   9.773   1.099 -0.0289 -0.0546  0.0336
 8238W        W12289   6.989   6.622   1.385  0.0994  0.0715 -0.0819
 8239W        W12290  10.128   1.767  12.686  0.1719 -0.1577  0.1592
 8240W        W12291   6.837   3.012  11.988 -0.0827  0.0761  0.1467
 8241W        W12292  10.107   3.114  13.787 -0.1738  0.1929  0.2606
 8242W        W12293   1.276   0.022   9.590  0.1565  0.1631 -0.0616
 8243W        W12294   9.713   0.838  12.414  0.3121 -0.1601 -0.1011
 8244W        W12295   7.481   4.878  11.727  0.1578  0.0094  0.3584
 8245W        W12296   4.681   5.908   3.996  0.2011  0.2759 -0.3092
 8246W        W12297   0.924   1.710   1.504 -0.0162  0.5896 -0.0715
 8247W        W12298   2.681   8.431   8.449  0.2438  0.0721  0.3033
 8248W        W12299   1.677   6.296   2.828 -0.1199 -0.1971 -0.0521
 8249W        W12300   7.573   3.501   0.136  0.0124  0.0537  0.0653
 8250W        W12301   9.030   6.482  11.601 -0.0444  0.0696 -0.0562
 8251W        W12302   8.635   0.824  12.393 -0.0332  0.0107  0.0041
 8252W        W12303   4.928   6.901   0.579 -0.0526 -0.1106  0.2239
 8253W        W12304   3.596   8.586   1.694 -0.2289 -0.2139  0.1248
 8254W        W12305   3.242   3.722  12.540 -0.1007 -0.0834  0.0461
 8255W        W12306   0.079   0.053  11.446 -0.1418 -0.0918 -0.2255
 8256W        W12307   3.993   7.652   1.986  0.0160  0.0589 -0.0236
 8257W        W12308   3.750   3.784   4.117  0.4165 -0.1441 -0.1506
 8258W        W12309   6.438   0.834   2.475 -0.1650  0.2541 -0.0732
 8259W        W12310   1.018   9.906   9.062  0.1104 -0.0759 -0.0310
 8260W        W12311   0.100   0.935   9.637  0.2528  0.1420  0.2516
 8261W        W12312   4.244   6.538   4.597  0.3075 -0.0671 -0.0652
 8262W        W12313   9.402   8.885   2.410  0.1696 -0.1130 -0.1127
 8263W        W12314   4.946   6.791  10.388 -0.0526  0.0509 -0.3154
 8264W        W12315   8.204   6.102  12.024  0.1791 -0.1429 -0.2774
 8265W        W12316   2.166   1.848   0.617 -0.1363  0.2921 -0.4872
 8266W        W12317   1.047   3.291   9.006 -0.4175  0.0851  0.0832
 8267W        W12318   6.129   5.168   3.867  0.0456  0.0305 -0.0995
 8268W        W12319   5.635   1.342   2.797  0.2202  0.0026  0.3183
 8269W        W12320   8.325   5.415  11.410 -0.2350  0.0262  0.2861
 8270W        W12321   3.507   0.697   3.913 -0.2738 -0.1262  0.5950
 8271W        W12322   7.372   6.656  10.158  0.0536  0.3107 -0.0316
 8272W        W12323   7.621   1.588  10.026 -0.0130  0.0080  0.0138
 8273W        W12324   9.672   0.982   2.943  0.2339  0.0574 -0.2505
 8274W        W12325   4.077   2.930   3.519 -0.0677 -0.3190 -0.2246
 8275W        W12326   1.728   3.924  12.749  0.0089  0.0115 -0.1441
 8276W        W12327   3.743   3.514  12.643  0.2450 -0.1500  0.0913
 8277W        W12328   5.394   3.218  11.904  0.0303  0.2419  0.0642
 8278W        W12329   3.889   5.743   1.887 -0.0928  0.0205 -0.0190
 8279W        W12330   4.525   3.870  10.261 -0.0744 -0.2529  0.1112
 8280W        W12331   2.876   6.842   9.093 -0.1066  0.0078 -0.1643
 8281W        W12332   5.601   1.904   4.316 -0.2161 -0.0672  0.0151
 8282W        W12333   0.776   4.746  13.157  0.0107 -0.1188  0.1401
 8283W        W12334   2.867   2.913  13.691 -0.0656  0.0975 -0.0526
 8284W        W12335   4.872   5.455   2.389  0.0753  0.1901 -0.1222
 8285W        W12336   3.145   6.699   9.603 -0.1315  0.1098  0.3739
 8286W        W12337   5.315   6.941   2.740  0.1193  0.1381 -0.0112
 8287W        W12338   8.921   8.124  11.756  0.2276 -0.0822  0.1659
 8288W        W12339   2.100   7.937   0.104  0.0764 -0.2300 -0.0349
 8289W        W12340   6.987   0.122   3.403  0.1646  0.1555 -0.1348
 8290W        W12341   7.058   3.141  10.982 -0.2729  0.1611 -0.1484
 8291W        W12342   4.182   2.300   3.870 -0.1311  0.0777 -0.1445
 8292W        W12343   3.847   7.719   8.555  0.5240 -0.1445  0.0016
 8293W        W12344   9.933   5.864   3.883 -0.3012 -0.0562  0.1283
 8294W        W12345   7.515   5.698  10.704  0.4363 -0.1529 -0.0279
 8295W        W12346   1.505   7.103   9.992  0.5620  0.0965  0.0490
 8296W        W12347   1.706   4.933   0.918 -0.0447  0.2568 -0.1020
 8297W        W12348   3.126   1.459   2.036  0.1411 -0.1348 -0.0440
 8298W        W12349   4.659   7.210   0.003  0.1483  0.0509 -0.1306
 8299W        W12350   3.072   0.906   0.379  0.1641  0.2549 -0.0362
 8300W        W12351   6.232   4.398  12.639  0.3009 -0.1536  0.0983
 8301W        W12352   3.480   3.840   0.826 -0.1394  0.0245  0.3260
 8302W        W12353   4.512   8.132   1.647  0.0567  0.0675  0.0899
 8303W        W12354   4.168  10.104   2.655 -0.0104  0.1255 -0.0416
 8304W        W12355   5.674   1.587   8.355  0.2172  0.0457 -0.2873
 8305W        W12356   9.237   3.168   1.326  0.4557 -0.0607 -0.1977
 8306W        W12357   1.819   5.297  10.995 -0.0360  0.3067 -0.0014
 8307W        W12358   5.213   1.987   3.000  0.1199  0.2577 -0.2178
 8308W        W12359   3.184   7.338   0.964 -0.0057 -0.0684  0.1906
 8309W        W12360   5.317   9.256   4.055  0.0980  0.1551 -0.1477
 8310W        W12361   3.249   9.542  10.631  0.0107 -0.0504  0.1921
 8311W        W12362   2.844   3.877  12.278  0.1826 -0.1165  0.1253
 8312W        W12363   5.683   7.093  11.914 -0.2263 -0.2499 -0.0236
 8313W        W12364   0.440   0.819   4.333  0.2454 -0.1194  0.3440
 8314W        W12365   0.867   8.301   3.243 -0.1662  0.0619  0.1815
 8315W        W12366   9.053   9.443   9.621 -0.1862 -0.2243  0.3181
 8316W        W12367   4.446   8.258   0.220  0.5384 -0.0943 -0.1439
 8317W        W12368   6.860   7.191  12.714  0.1560  0.3036  0.0337
 8318W        W12369   0.017   6.113  10.857  0.3139  0.2405  0.0752
 8319W        W12370   2.765   3.854   1.065  0.0756 -0.1100 -0.2170
 8320W        W12371   1.380   9.851   3.808 -0.2359 -0.0183  0.3110
 8321W        W12372   2.406   0.404  11.568  0.1463 -0.0005 -0.4726
 8322W        W12373   2.810   8.032   3.778  0.1774  0.0254  0.1328
 8323W        W12374   0.999   4.402   9.906 -0.1358  0.7086 -0.1262
 8324W        W12375   3.485   4.028  11.174  0.0242  0.0521 -0.0895
 8325W        W12376   1.347   1.749  10.561  0.0854 -0.0610  0.1785
 8326W        W12377   9.124   1.925   1.637  0.0276 -0.2321 -0.0733
 8327W        W12378   4.204   9.670  13.153 -0.1714 -0.2337 -0.2022
 8328W        W12379   4.476   8.424   2.623 -0.2334 -0.0381  0.1345
 8329W        W12380   6.627   5.537   0.251  0.0273 -0.2451 -0.0282
 8330W        W12381   1.080   4.225  10.406  0.0864  0.4979  0.3086
 8331W        W12382   0.595   1.800  12.087 -0.1209 -0.2681 -0.1211
 8332W        W12383   3.882   8.556  10.247  0.3053 -0.1669 -0.0733
 8333W        W12384   8.065   7.700   1.557  0.2242 -0.0364  0.1418
 8334W        W12385   3.304   2.552  12.141 -0.0017 -0.3814 -0.0248
 8335W        W12386   1.928   8.399  10.970 -0.1843  0.0868 -0.1189
 8336W        W12387   1.938   6.594   0.959 -0.0118 -0.0984  0.3493
 8337W        W12388   2.682   6.604   9.533 -0.1181 -0.1889 -0.1097
 8338W        W12389   5.646   5.675  10.709 -0.0054  0.0151  0.0252
 8339W        W12390   5.355   0.536   1.453  0.2009 -0.2624 -0.1445
 8340W        W12391   5.105   9.137  13.341  0.0196  0.1646  0.0876
 8341W        W12392   8.523   4.086  11.353 -0.1226  0.1255 -0.0840
 8342W        W12393   4.223   9.959   0.716 -0.0857  0.2322 -0.0618
 8343W        W12394   4.506   3.492  12.188  0.1372 -0.2208  0.0035
 8344W        W12395   0.905   3.773   2.793  0.1273 -0.0596 -0.0216
 8345W        W12396   0.655   7.485   4.181  0.1594 -0.0729  0.1462
 8346W        W12397   7.331   4.256  13.325  0.0037 -0.3412  0.0985
 8347W        W12398   5.328   3.436  10.638  0.0073  0.1421  0.3265
 8348W        W12399   4.986   2.325   2.345  0.0947 -0.2031 -0.0451
 8349W        W12400   7.585   6.334  13.075 -0.2145 -0.1577  0.2890
 8350W        W12401   5.955   3.509   0.991 -0.1716 -0.1156 -0.2851
 8351W        W12402   6.237   6.010  12.900  0.0631  0.0911  0.0803
 8352W        W12403   9.733   3.266   1.455  0.0305 -0.2341 -0.2688
 8353W        W12404   5.587   9.037   9.467 -0.0918 -0.1336 -0.1575
 8354W        W12405   3.915   7.075   2.092 -0.0733  0.1693  0.2920
 8355W        W12406  10.137   1.827   0.720 -0.0561  0.0189 -0.1688
 8356W        W12407   6.272   0.851  10.790 -0.3460  0.0829  0.3686
 8357W        W12408   2.094   7.718   3.000 -0.1073 -0.1475 -0.1892
 8358W        W12409   9.284   3.974   3.174 -0.3554  0.0541 -0.4041
 8359W        W12410   5.274   8.893  11.047 -0.0899 -0.0896  0.0328
 8360W        W12411   4.897   4.620   2.372  0.2081  0.1298  0.1942
 8361W        W12412   8.244   3.313   3.880  0.0155 -0.0570 -0.2503
 8362W        W12413   3.565   6.482  12.195 -0.2178  0.0939 -0.0971
 8363W        W12414   8.131   0.895  11.180  0.0529  0.0334  0.0051
 8364W        W12415   1.383   0.224  10.387  0.0971  0.0223 -0.0292
 8365W        W12416   8.894   5.652  13.249 -0.1360  0.0935  0.2487
 8366W        W12417   5.455   1.774  10.317 -0.2588  0.1171  0.1787
 8367W        W12418   1.877   9.141  13.143  0.0575 -0.0728 -0.0306
 8368W        W12419   2.091   5.793   4.023 -0.1221  0.5794  0.1233
 8369W        W12420   7.583   9.508   0.356  0.0353 -0.0388  0.1779
 8370W        W12421   1.791   3.732  10.583  0.4644  0.0382 -0.1715
 8371W        W12422   1.122   0.703  13.390 -0.0937  0.4106  0.1008
 8372W        W12423   3.092   1.452   2.552 -0.0739 -0.1682 -0.0420
 8373W        W12424   0.016   9.085   2.663 -0.1057  0.2012 -0.1214
 8374W        W12425   5.328   6.404   2.778  0.4434 -0.2263 -0.0692
 8375W        W12426   6.076   3.569   9.332 -0.0267 -0.3703  0.1738
 8376W        W12427   1.829   6.132   9.979  0.1406  0.4030 -0.0836
 8377W        W12428   2.678   1.638  12.910 -0.1109  0.1734  0.1235
 8378W        W12429   1.998   5.648   0.517 -0.1583 -0.3832  0.2153
 8379W        W12430   1.129   0.879   2.589 -0.0306 -0.0125 -0.1543
 8380W        W12431   1.476   2.407   1.937 -0.2623  0.1612 -0.0752
 8381W        W12432   5.509   5.396   1.243  0.0070 -0.4762 -0.1839
 8382W        W12433   0.604   4.243   1.227  0.0174  0.2007 -0.0247
 8383W        W12434   6.834   4.670  12.588 -0.4455  0.0111  0.1654
 8384W        W12435   1.833   9.754   4.677 -0.2207  0.1935 -0.0536
 8385W        W12436   2.428   5.318   4.775 -0.2375  0.0658  0.0879
 8386W        W12437   7.611   5.829   0.414  0.1109 -0.3127 -0.0564
 8387W        W12438   6.361   1.863   2.430 -0.1931  0.2640 -0.1187
 8388W        W12439   2.899   1.210   4.276 -0.0530 -0.3710 -0.0629
 8389W        W12440   7.320   0.407  10.198 -0.2463 -0.2827  0.1741
 8390W        W12441   4.545   4.267   5.339 -0.1980 -0.1813  0.4064
 8391W        W12442   3.839   0.482   0.886  0.0642  0.2044 -0.1060
 8392W        W12443   2.780   8.858   0.188  0.0253  0.0393 -0.0325
 8393W        W12444   1.621   9.572   2.831 -0.1095 -0.0140  0.2823
 8394W        W12445   6.983   2.893   3.018  0.1465 -0.0356  0.1434
 8395W        W12446   9.075   8.322  12.252  0.0671 -0.0602 -0.1731
 8396W        W12447   6.554   3.782   0.171 -0.1684 -0.4370  0.1938
 8397W        W12448   4.511   3.257  11.708 -0.0908  0.0062  0.1051
 8398W        W12449   9.828   2.309  13.135 -0.0283  0.1707  0.0952
 8399W        W12450   2.058   5.809   1.029 -0.0084  0.0233  0.0204
 8400W        W12451   5.266   8.163   9.253 -0.0463 -0.2329 -0.1677
 8401W        W12452   1.760   7.300  12.296 -0.2028  0.1933 -0.0581
 8402W        W12453   1.065   6.914   1.756  0.0171 -0.0297  0.0931
 8403W        W12454   8.382   2.657   9.563  0.1187  0.0574  0.0047
 8404W        W12455   4.423   6.891   9.594  0.0530  0.1342  0.1490
 8405W        W12456   8.141   0.635  12.410  0.1950 -0.2613 -0.0584
 8406W        W12457   9.688   4.476   2.616 -0.0145 -0.2011  0.0909
 8407W        W12458   9.625   9.525   8.909 -0.1104  0.1137 -0.0863
 8408W        W12459   5.506   5.437   2.805 -0.0001  0.2666 -0.0230
 8409W        W12460   0.547   1.042   2.791  0.0530  0.1530  0.0536
 8410W        W12461   2.126   3.987   0.905 -0.2572  0.0952 -0.1038
 8411W        W12462   1.763   5.743  10.287 -0.0475 -0.0297  0.1145
 8412W        W12463   2.856   2.806   1.304  0.1865 -0.3829 -0.0090
 8413W        W12464   2.293   7.449  10.711  0.0215 -0.0609 -0.0570
 8414W        W12465   8.472   1.549  11.712 -0.0210 -0.2171 -0.1149
 8415W        W12466   7.493   8.700   2.349  0.3354  0.1682 -0.0758
 8416W        W12467  10.118   6.944   1.764 -0.0702 -0.0020 -0.0439
 8417W        W12468   8.202   7.977   1.956  0.2978  0.0398 -0.0542
 8418W        W12469   6.221   1.110   1.521 -0.2580  0.1107 -0.1453
 8419W        W12470   0.494   6.511  10.459  0.1584 -0.1277  0.0381
 8420W        W12471   5.451   1.880  12.091 -0.3943 -0.2903  0.0958
 8421W        W12472   6.585   1.212   1.117 -0.1525 -0.1633 -0.0213
 8422W        W12473  10.078   2.808   2.583  0.3795 -0.2105  0.3007
 8423W        W12474   0.702   0.095   4.509 -0.0972  0.0065 -0.1024
 8424W        W12475   5.189   3.046  10.410 -0.1280  0.4451 -0.0727
 8425W        W12476   3.976   5.472  13.936 -0.2362 -0.0002  0.2888
 8426W        W12477   1.566   2.669  10.451 -0.1962  0.1139  0.2764
 8427W        W12478   8.971   4.450  12.143 -0.0419  0.1973  0.1547
 8428W        W12479   1.905   4.406  12.969 -0.0137 -0.0148 -0.0554
 8429W        W12480   8.724   2.526   4.725  0.0182 -0.2224  0.0419
 8430W        W12481   6.346   1.502  10.288 -0.1903 -0.2475  0.0967
 8431W        W12482   3.309   4.750  12.339  0.3788 -0.2341 -0.3573
 8432W        W12483   0.620   4.139  10.214 -0.3833  0.1722  0.3355
 8433W        W12484   3.781   9.004   8.936  0.2839  0.1695 -0.0460
 8434W        W12485   3.643   9.280   1.052  0.0969  0.3260  0.0227
 8435W        W12486   7.897   3.393   9.625 -0.0608  0.1329  0.0005
 8436W        W12487   4.280   0.804  10.165 -0.0099 -0.1257 -0.2137
 8437W        W12488   2.595   1.591  13.689  0.0643  0.1165 -0.4095
 8438W        W12489   3.328   6.601  12.697  0.0728  0.1711 -0.2550
 8439W        W12490   8.905   9.146  10.825  0.1859 -0.0185  0.0918
 8440W        W12491   2.654   2.553  13.963 -0.0043 -0.1684 -0.0634
 8441W        W12492   2.857   2.105  10.818  0.0166 -0.2322  0.0603
 8442W        W12493   2.916   8.695  11.303  0.0772  0.2108  0.1260
 8443W        W12494   0.934   9.305   5.632 -0.3011  0.0239 -0.1117
 8444W        W12495   6.086   1.286  12.784 -0.1300  0.0073 -0.3021
 8445W        W12496   4.457   0.685   2.974  0.1425 -0.0780 -0.3314
 8446W        W12497   5.991   1.408   5.046 -0.2083 -0.2217  0.4201
 8447W        W12498   5.168   5.305   5.165  0.0966 -0.2268  0.2655
 8448ION    NA+12499  10.052   6.326   4.185  0.0623 -0.0934 -0.0471
 8449ION    NA+12500   0.530   5.325  11.792  0.1182 -0.1421 -0.0764
 8450ION    NA+12501   1.902   8.522  10.107  0.1326  0.1259 -0.2235
 8451ION    NA+12502   5.121   1.311  13.675  0.1742 -0.1152  0.2207
 8452ION    NA+12503   6.780   8.760  13.525 -0.0645 -0.0497  0.2143
 8453ION    NA+12504   5.402   4.743   3.521 -0.0446  0.2914  0.1451
 8454ION    NA+12505   4.038  10.031  11.506  0.1171 -0.0166  0.3857
 8455ION    NA+12506   7.084   9.990   2.369 -0.0093  0.0644  0.1344
 8456ION    NA+12507   8.146   5.960   0.261 -0.3567 -0.1231 -0.0777
 8457ION    NA+12508   1.216   3.313   3.440 -0.1172 -0.0909  0.1833
 8458ION    NA+12509   9.482   0.472   3.988 -0.1626 -0.0782  0.2563
 8459ION    NA+12510   4.050   3.361  13.046  0.0704  0.1168 -0.0930
 8460ION    NA+12511   8.125   5.234  13.021  0.3136  0.1834 -0.0832
 8461ION    NA+12512   5.016   5.913   4.414 -0.3146 -0.0406  0.1663
 8462ION    NA+12513   3.062   3.669   1.889  0.0259  0.2024  0.0877
 8463ION    NA+12514   3.626   8.242  11.366  0.0391  0.2863 -0.5401
 8464ION    NA+12515   6.285   3.432  10.525  0.1311  0.4191  0.0151
 8465ION    NA+12516   5.425   7.540  11.777 -0.5214 -0.2710 -0.0474
 8466ION    NA+12517   2.267   9.249   4.443  0.0686  0.1301 -0.1626
 8467ION    NA+12518   9.466   7.957  13.185  0.0899  0.1018 -0.0063
 8468ION    NA+12519   4.654   7.349   0.672  0.1750  0.0675 -0.3100
 8469ION    NA+12520   1.155   0.811   3.560  0.1398 -0.0068 -0.4357
 8470ION    NA+12521   2.780   4.356  12.345  0.3552 -0.0081  0.2651
 8471ION    NA+12522   4.755   1.745   3.685 -0.3277  0.1409  0.0159
 8472ION    NA+12523   9.049   6.742  12.474 -0.1395  0.0439  0.4327
 8473ION    NA+12524   1.716   4.756   4.912  0.0657 -0.0128 -0.1038
 8474ION    NA+12525   3.401   7.022  13.482 -0.1843 -0.2034  0.0044
 8475ION    NA+12526   5.996   3.007   9.222 -0.0867  0.2777  0.0154
 8476ION    NA+12527   0.418   0.188  12.657 -0.1089 -0.0121 -0.2144
 8477ION    NA+12528   2.233   4.017  12.748 -0.0776 -0.2100 -0.0859
 8478ION    NA+12529   5.806   2.717   0.448  0.2885 -0.0533 -0.4189
 8479ION    NA+12530   6.354   6.571   1.555  0.0233  0.2163  0.0150
 8480ION    NA+12531   2.894   0.453   8.601  0.2417  0.0382  0.1277
 8481ION    NA+12532   2.566   1.115   4.689  0.0691 -0.1040 -0.1188
 8482ION    NA+12533   8.811   1.622   5.652  0.2589 -0.1007  0.0980
 8483ION    NA+12534   2.160   3.135   0.118 -0.0182  0.2699 -0.0575
 8484ION    NA+12535   0.907   5.875   9.361 -0.0070 -0.0301  0.0878
 8485ION    NA+12536   4.502   5.155   8.944  0.3198 -0.2625  0.1862
 8486ION    NA+12537   3.644   4.463  10.218 -0.0492 -0.3137 -0.0536
 8487ION    NA+12538   7.131   0.523   3.207  0.1694  0.1695 -0.0681
 8488ION    NA+12539   8.003   4.723   9.942 -0.2343 -0.0075 -0.2416
 8489ION    NA+12540   7.465   5.848  13.090 -0.0682 -0.1571 -0.0132
 8490ION    NA+12541   2.153   9.428   2.697 -0.0435  0.2250 -0.0379
 8491ION    NA+12542   5.000   7.594   2.958 -0.1562 -0.1035  0.1067
 8492ION    NA+12543  10.181   5.788  10.345 -0.4483  0.1310 -0.2414
 8493ION    NA+12544  10.041   6.674   0.952 -0.0946 -0.1715  0.1129
 8494ION    NA+12545   4.900   3.454  10.329 -0.0226  0.3425  0.0770
 8495ION    NA+12546   5.097   3.796   0.713  0.0363 -0.4199  0.1435
 8496ION    NA+12547   4.107   4.413   0.510  0.1740 -0.3598 -0.0134
 8497ION    NA+12548   8.032   8.707   9.777  0.0058  0.1216  0.0648
 8498ION    NA+12549   9.237   0.120   8.988 -0.0594  0.0490 -0.1774
 8499ION    NA+12550   0.046   4.524  11.842 -0.0231  0.0552 -0.0502
 8500ION    NA+12551   1.535   1.323   5.079  0.2075  0.0404  0.2808
 8501ION    NA+12552   7.240   6.842  12.700 -0.0631  0.2216 -0.2175
 8502ION    NA+12553   2.317   4.470   0.429  0.1312  0.1116  0.1851
 8503ION    NA+12554   6.753   0.888  11.653  0.1915 -0.4009  0.1010
 8504ION    NA+12555   0.922   6.697   4.837 -0.0562  0.1715 -0.0826
 8505ION    NA+12556   7.992   2.010  12.373  0.1301  0.1129  0.2245
 8506ION    NA+12557   7.024   2.020  12.362 -0.1500 -0.1038 -0.5000
 8507ION    NA+12558   3.343   0.941  12.332 -0.0065 -0.0462 -0.0106
 8508ION    NA+12559   8.441   3.005  12.529 -0.4299  0.2900 -0.2649
 8509ION    NA+12560   2.680   1.208  10.362 -0.0376  0.1871 -0.0975
 8510ION    NA+12561   7.518   1.446  10.481  0.1237 -0.1970  0.0199
 8511ION    NA+12562   7.573   9.508   3.462 -0.0060 -0.1153 -0.1447
 8512ION    NA+12563   6.796   0.602   9.548 -0.0131 -0.0311 -0.1222
 8513ION    NA+12564   9.232   9.120  12.971  0.1988  0.0661  0.1516
 8514ION    NA+12565   3.186   0.802  11.390 -0.1877  0.1236 -0.1292
 8515ION    NA+12566   1.477   3.182   1.280  0.0217  0.2926 -0.0095
 8516ION    NA+12567   6.494   9.284   3.387 -0.1665  0.0092  0.2720
 8517ION    NA+12568   1.334   1.861   3.582  0.1068 -0.1158 -0.1440
 8518ION    NA+12569   9.042   8.917  12.234 -0.2740  0.1377 -0.0065
 8519ION    NA+12570   6.339   4.166   9.981 -0.1073  0.0137 -0.0120
 8520ION    NA+12571   4.796   7.540   8.519  0.0901  0.0517 -0.0740
 8521ION    NA+12572   5.802   8.756  12.916 -0.0695 -0.2206 -0.2184
 8522ION    NA+12573   7.750   8.038   3.445 -0.0285 -0.1342 -0.0542
 8523ION    NA+12574   9.557   0.047   3.295 -0.2649  0.0503 -0.0039
 8524ION    NA+12575   1.119   3.602   0.535 -0.0823  0.2424 -0.1532
 8525ION    NA+12576   2.639   1.705   0.468  0.3437  0.3891 -0.0026
 8526ION    NA+12577   7.258   2.356   5.826 -0.0241  0.1006  0.0528
 8527ION    NA+12578   1.928   1.736  10.546  0.0387  0.1151 -0.1618
 8528ION    NA+12579   2.789   2.085   2.258 -0.1337 -0.0851 -0.1797
 8529ION    NA+12580   8.886   4.114  12.676  0.0230 -0.2123  0.1435
 8530ION    NA+12581   5.465   4.476   0.115  0.1672  0.3476  0.2563
 8531ION    NA+12582   6.080   6.933   2.442  0.0834  0.1677 -0.1345
 8532ION    NA+12583   6.427   1.876  11.488  0.2736  0.3112  0.1748
 8533ION    NA+12584   3.135   0.698   9.401  0.0901  0.2114 -0.0176
 8534ION    NA+12585   1.749   2.220   8.837  0.0071  0.0940  0.2252
 8535ION    NA+12586   3.810   3.167   5.045  0.0102  0.2448  0.0385
 8536ION    NA+12587   1.780   2.143   0.919  0.0133 -0.1038  0.0249
 8537ION    CL-12588   7.052   0.281   2.714 -0.0605 -0.2293  0.1486
 8538ION    CL-12589   9.093   3.814   4.027 -0.2231  0.0498  0.0613
 8539ION    CL-12590   3.010   8.789   9.125 -0.2496 -0.2650  0.1500
 8540ION    CL-12591   5.561   3.622   0.598  0.1830 -0.2791  0.1874
 8541ION    CL-12592   3.394   3.524  11.175 -0.1846  0.1545 -0.0528
 8542ION    CL-12593   3.668   4.456   9.621  0.0796  0.5219  0.2358
 8543ION    CL-12594   7.470   2.784   2.714 -0.2507  0.2048  0.2236
 8544ION    CL-12595   6.630   0.747  12.149  0.2387 -0.4193 -0.0672
 8545ION    CL-12596   5.842   3.050   3.911  0.3785  0.0025  0.0712
 8546ION    CL-12597   5.313   5.046   3.159 -0.1382  0.0669  0.2154
 8547ION    CL-12598   5.401   3.383   4.703 -0.0338  0.0965 -0.0172
 8548ION    CL-12599   5.921   0.876   9.634 -0.0171 -0.2768  0.1861
 8549ION    CL-12600   2.191   9.089   2.226  0.1828 -0.2736  0.1922
 8550ION    CL-12601   3.007   1.327  11.264 -0.2698  0.1947  0.2906
 8551ION    CL-12602   0.531   4.441   0.355 -0.1561  0.4205 -0.2280
 8552ION    CL-12603   6.422   3.300   9.986 -0.2499  0.0380 -0.2174
 8553ION    CL-12604   4.789   1.517   4.213 -0.1467  0.0630 -0.1703
 8554ION    CL-12605   2.393   1.382   4.330 -0.0894 -0.0998  0.0415
 8555ION    CL-12606   2.516   8.088   4.215 -0.0660 -0.3507 -0.1548
 8556ION    CL-12607   9.128   6.093   0.647  0.1110  0.1394 -0.0665
 8557ION    CL-12608   3.255   4.219  12.467 -0.3969 -0.0057  0.2413
 8558ION    CL-12609   5.070   7.525   9.777  0.0967 -0.0388 -0.0653
 8559ION    CL-12610   3.605   6.893   9.816 -0.1143  0.2211  0.1328
 8560ION    CL-12611   6.823   1.953  11.867 -0.0979  0.3031 -0.0598
 8561ION    CL-12612   3.118   9.791   4.270  0.0364  0.0210 -0.1444
 8562ION    CL-12613   3.410   4.709  10.622 -0.1526  0.3592 -0.2125
 8563ION    CL-12614   1.826   3.132   1.758 -0.1919 -0.1502 -0.1131
 8564ION    CL-12615   4.308   4.316   1.046  0.0338  0.0559  0.2192
 8565ION    CL-12616   1.487   5.274   3.773 -0.2075 -0.1771  0.0991
 8566ION    CL-12617   2.103   1.554  10.044  0.1417  0.1466 -0.1512
 8567ION    CL-12618   5.844   1.842   9.942  0.0714  0.0737  0.0978
 8568ION    CL-12619   7.172   4.982  11.184 -0.0586  0.0274 -0.0465
 8569ION    CL-12620   6.386   1.413  11.219 -0.2935  0.0036  0.3112
 8570ION    CL-12621   4.883   1.790  13.248  0.0768  0.1778 -0.0718
 8571ION    CL-12622   7.229   9.242  10.365 -0.0961 -0.3125 -0.0559
 8572ION    CL-12623   2.055   3.737  12.383  0.0991  0.0775 -0.1793
 8573ION    CL-12624   7.594   1.998  12.017 -0.1219  0.2794 -0.1405
 8574ION    CL-12625   0.395   4.831  11.956 -0.0654 -0.0576  0.2819
 8575ION    CL-12626   7.568   5.903  13.566 -0.0307  0.4857  0.0969
 8576ION    CL-12627   6.963   0.255   0.149  0.1053 -0.1251 -0.0264
 8577ION    CL-12628   0.796   5.689  10.873  0.3513  0.2024  0.1546
 8578ION    CL-12629   7.754   5.509  12.810  0.1120 -0.1202  0.1583
 8579ION    CL-12630   3.290   7.890  11.491  0.0701  0.1035  0.1167
 8580ION    CL-12631   9.048   1.880  12.184  0.0772  0.0224  0.0253
 8581ION    CL-12632   5.340   2.546   0.327  0.1960 -0.0157 -0.0251
 8582ION    CL-12633   1.872   4.464   0.699  0.0453 -0.0463  0.0516
 8583ION    CL-12634   1.221   1.380   3.342 -0.0149  0.2324  0.2787
 8584ION    CL-12635   0.671   4.173   3.728  0.3085 -0.0181  0.3857
 8585ION    CL-12636   9.195   9.781   4.275 -0.0223 -0.0113  0.3583
 8586ION    CL-12637   1.878   0.430  13.013  0.1403  0.0191  0.1661
 8587ION    CL-12638   6.283   6.836   1.983 -0.2327 -0.0222 -0.0010
 8588ION    CL-12639   4.815   7.873   0.165  0.0248 -0.0483  0.1269
 8589ION    CL-12640   5.080   3.957   3.091  0.1239  0.0168 -0.0013
 8590ION    CL-12641   0.079   3.658  11.349 -0.3196 -0.3179 -0.0363
 8591ION    CL-12642   2.420   4.631  12.116  0.2083  0.0690  0.1074
 8592ION    CL-12643   7.086   9.739  12.410  0.1518 -0.1789  0.0181
 8593ION    CL-12644   7.362   9.642   2.486 -0.1510 -0.1364  0.1305
 8594ION    CL-12645   3.408   1.821   9.902  0.0445  0.1858  0.1671
 8595ION    CL-12646   0.662   3.546   9.884 -0.2256 -0.0268  0.2625
 8596ION    CL-12647   3.207   3.957   3.268  0.0302 -0.0923 -0.0778
 8597ION    CL-12648   3.562   6.683   2.567 -0.0954  0.2842 -0.0785
 8598ION    CL-12649   9.944   3.918  13.170 -0.0850 -0.1632  0.1194
 8599ION    CL-12650   0.302   0.860  11.961 -0.3468  0.5037 -0.1412
 8600ION    CL-12651   2.907   1.073   9.233 -0.3527  0.1641 -0.1712
 8601ION    CL-12652   8.900   1.075   1.453 -0.0996 -0.0985  0.0248
 8602ION    CL-12653   5.931  10.039   3.444  0.0850  0.0783 -0.1082
 8603ION    CL-12654   4.992   7.126  11.791 -0.1339 -0.2412  0.2802
 8604ION    CL-12655   4.330   5.178  12.496  0.0243 -0.2659  0.2929
 8605ION    CL-12656   1.848   8.177  10.485 -0.1638  0.2662 -0.0652
 8606ION    CL-12657   6.815   4.267   1.609 -0.0342  0.0032 -0.0208
 8607ION    CL-12658   7.199   3.021   4.746 -0.1743 -0.2208  0.2704
 8608ION    CL-12659   9.245   8.521  13.147  0.0537  0.2437  0.2247
 8609ION    CL-12660   0.440   2.005  12.509  0.2751 -0.0020 -0.2024
 8610ION    CL-12661   3.138   1.253  10.521 -0.0646 -0.2562 -0.3296
 8611ION    CL-12662   4.537   3.397   9.871 -0.1023  0.2185  0.4208
 8612ION    CL-12663   5.261   1.069  13.191 -0.0155  0.1738 -0.2001
 8613ION    CL-12664   6.230   9.324   3.838 -0.2008  0.1377  0.1678
 8614ION    CL-12665   1.154   3.232   0.842 -0.3164  0.2585 -0.1752
 8615ION    CL-12666   8.828   1.065   3.349  0.1580  0.0436 -0.1966
 8616ION    CL-12667   8.299   9.600   0.835  0.0839 -0.0808 -0.4453
 8617ION    CL-12668   6.645   6.734   3.377  0.2641  0.1420  0.1633
 8618ION    CL-12669   9.898   1.900   4.806 -0.2155 -0.2467  0.0315
 8619ION    CL-12670   7.610   9.997   3.646 -0.3267  0.3047  0.1493
 8620ION    CL-12671   3.341   0.587  11.925 -0.0870  0.1455 -0.2346
 8621ION    CL-12672   2.251   2.375   0.723 -0.1343 -0.1781  0.0115
 8622ION    CL-12673   6.939   4.875  10.369  0.1173  0.0622  0.1356
 8623ION    CL-12674   5.954   7.174  10.770  0.0283  0.2073 -0.0517
 8624ION    CL-12675   9.756   2.075  13.588  0.1786  0.3268 -0.4442
 8625ION    CL-12676   4.549   7.483   3.151 -0.0790 -0.1658 -0.0912
  10.18879  10.18879  13.96728
