Protein in INSANE! Membrane UpperLeaflet>POPC=1.0 LowerLeaflet>POPC=1.0
11125
    1AU     AUC    1   5.247   5.299   6.003
    1AU     AUC    2   5.543   5.298   5.826
    1AU     AUC    3   5.517   5.296   6.173
    1AU     AUC    4   4.961   5.291   5.841
    1AU     AUC    5   4.974   5.333   6.193
    1AU     AUC    6   5.068   5.577   6.003
    1AU     AUC    7   5.435   5.571   5.992
    1AU     AUC    8   5.056   5.034   6.011
    1AU     AUC    9   5.410   5.013   6.002
    1AU     AUC   10   5.249   5.130   6.283
    1AU     AUC   11   5.235   5.477   6.271
    1AU     AUC   12   5.245   5.130   5.728
    1AU     AUC   13   5.273   5.451   5.728
    1AU     AUC   14   5.859   5.295   5.656
    1AU     AUC   15   5.860   5.273   6.013
    1AU     AUC   16   5.797   5.281   6.354
    1AU     AUC   17   4.657   5.290   5.672
    1AU     AUC   18   4.635   5.324   6.039
    1AU     AUC   19   4.683   5.362   6.382
    1AU     AUC   20   4.899   5.890   5.975
    1AU     AUC   21   5.251   5.902   5.952
    1AU     AUC   22   5.617   5.861   5.984
    1AU     AUC   23   4.850   4.758   6.018
    1AU     AUC   24   5.197   4.702   6.001
    1AU     AUC   25   5.569   4.704   5.985
    1AU     AUC   26   5.234   4.957   6.576
    1AU     AUC   27   5.267   5.337   6.616
    1AU     AUC   28   5.255   5.671   6.557
    1AU     AUC   29   5.262   4.953   5.451
    1AU     AUC   30   5.268   5.283   5.398
    1AU     AUC   31   5.270   5.608   5.426
    1AU     AUC   32   5.520   5.111   6.493
    1AU     AUC   33   5.554   5.482   6.490
    1AU     AUC   34   5.587   5.129   5.503
    1AU     AUC   35   5.596   5.480   5.529
    1AU     AUC   36   4.945   5.176   6.525
    1AU     AUC   37   4.960   5.542   6.489
    1AU     AUC   38   4.943   5.112   5.545
    1AU     AUC   39   4.929   5.427   5.502
    1AU     AUC   40   5.779   5.572   5.840
    1AU     AUC   41   5.740   5.596   6.185
    1AU     AUC   42   4.752   5.597   5.834
    1AU     AUC   43   4.764   5.650   6.188
    1AU     AUC   44   5.729   4.983   5.818
    1AU     AUC   45   5.700   4.963   6.168
    1AU     AUC   46   4.717   4.999   5.865
    1AU     AUC   47   4.776   5.051   6.226
    1AU     AUC   48   5.067   5.842   6.265
    1AU     AUC   49   5.427   5.784   6.250
    1AU     AUC   50   5.048   4.830   6.312
    1AU     AUC   51   5.372   4.786   6.280
    1AU     AUC   52   5.072   5.726   5.693
    1AU     AUC   53   5.458   5.763   5.669
    1AU     AUC   54   5.036   4.827   5.712
    1AU     AUC   55   5.430   4.835   5.707
    1AU    AUSL   56   5.792   5.245   6.690
    1AU    AUSL   57   5.513   4.801   6.658
    1AU     AUL   58   5.834   4.832   6.831
    1AU       S   59   5.889   4.443   6.599
    1AU     LIG   60   5.800   4.322   6.988
    1AU     LIG   61   5.995   3.984   7.213
    1AU     LIG   62   6.240   3.638   7.405
    1AU     LIG   63   6.442   3.461   7.781
    1AU       S   64   6.063   5.218   6.764
    1AU     LIG   65   6.042   5.132   7.220
    1AU     LIG   66   6.180   5.073   7.674
    1AU     LIG   67   6.510   5.073   8.029
    1AU     LIG   68   6.872   5.140   8.340
    1AU    AUSL   69   5.402   5.148   6.885
    1AU    AUSL   70   5.116   5.503   6.900
    1AU     AUL   71   5.302   5.441   7.227
    1AU       S   72   5.562   5.102   7.065
    1AU     LIG   73   5.434   4.988   7.448
    1AU     LIG   74   5.610   4.808   7.839
    1AU     LIG   75   5.727   4.603   8.252
    1AU     LIG   76   5.906   4.658   8.682
    1AU       S   77   4.906   5.229   7.139
    1AU     LIG   78   4.979   5.211   7.607
    1AU     LIG   79   4.711   5.172   7.980
    1AU     LIG   80   4.544   5.197   8.416
    1AU     LIG   81   4.546   5.431   8.829
    1AU    AUSL   82   5.525   5.572   6.845
    1AU    AUSL   83   5.881   5.656   6.588
    1AU     AUL   84   5.809   5.523   6.985
    1AU       S   85   5.397   5.873   6.981
    1AU     LIG   86   5.629   5.815   7.371
    1AU     LIG   87   5.719   5.897   7.843
    1AU     LIG   88   5.760   5.939   8.330
    1AU     LIG   89   5.787   5.916   8.812
    1AU       S   90   5.964   5.898   6.763
    1AU     LIG   91   6.324   5.694   6.856
    1AU     LIG   92   6.643   5.846   7.164
    1AU     LIG   93   6.926   6.115   7.437
    1AU     LIG   94   7.235   6.417   7.622
    1AU    AUSL   95   5.812   5.382   5.296
    1AU    AUSL   96   5.666   5.791   5.332
    1AU     AUL   97   5.955   5.674   5.072
    1AU       S   98   5.625   5.481   4.839
    1AU     LIG   99   6.097   5.447   4.638
    1AU     LIG  100   6.230   5.153   4.319
    1AU     LIG  101   6.272   5.016   3.883
    1AU     LIG  102   6.486   5.037   3.467
    1AU       S  103   6.008   6.016   5.390
    1AU     LIG  104   6.091   6.188   4.989
    1AU     LIG  105   6.255   6.387   4.583
    1AU     LIG  106   6.494   6.664   4.285
    1AU     LIG  107   6.737   6.953   4.008
    1AU    AUSL  108   5.558   5.092   5.107
    1AU    AUSL  109   5.922   4.988   5.402
    1AU     AUL  110   5.975   5.159   5.097
    1AU       S  111   5.984   4.694   5.158
    1AU     LIG  112   6.167   4.418   4.810
    1AU     LIG  113   6.449   4.047   4.707
    1AU     LIG  114   6.737   3.762   4.458
    1AU     LIG  115   7.127   3.722   4.179
    1AU       S  116   5.667   5.316   4.792
    1AU     LIG  117   5.839   4.957   4.618
    1AU     LIG  118   5.902   4.767   4.183
    1AU     LIG  119   5.856   4.769   3.706
    1AU     LIG  120   6.027   4.896   3.280
    1AU    AUSL  121   5.389   5.467   5.263
    1AU    AUSL  122   5.148   5.088   5.228
    1AU     AUL  123   5.288   5.125   4.947
    1AU       S  124   4.836   5.139   4.810
    1AU     LIG  125   4.918   4.794   4.576
    1AU     LIG  126   4.740   4.661   4.159
    1AU     LIG  127   4.510   4.633   3.736
    1AU     LIG  128   4.566   4.736   3.280
    1AU       S  129   5.464   5.581   4.939
    1AU     LIG  130   5.430   5.459   4.395
    1AU     LIG  131   5.764   5.262   4.075
    1AU     LIG  132   5.915   5.280   3.613
    1AU     LIG  133   5.933   5.457   3.172
    1AU    AUSL  134   4.720   5.433   6.748
    1AU    AUSL  135   5.004   5.792   6.615
    1AU     AUL  136   4.877   5.736   6.958
    1AU       S  137   4.737   5.351   7.196
    1AU     LIG  138   4.522   5.008   7.409
    1AU     LIG  139   4.285   4.924   7.822
    1AU     LIG  140   4.114   4.941   8.272
    1AU     LIG  141   3.776   5.069   8.590
    1AU       S  142   4.579   6.032   6.717
    1AU     LIG  143   4.664   6.185   7.123
    1AU     LIG  144   4.494   6.449   7.483
    1AU     LIG  145   4.206   6.739   7.727
    1AU     LIG  146   4.014   6.901   8.131
    1AU    AUSL  147   5.030   5.148   6.675
    1AU    AUSL  148   4.607   5.018   6.646
    1AU     AUL  149   4.527   5.241   6.802
    1AU       S  150   4.496   4.787   6.908
    1AU     LIG  151   4.067   4.674   6.714
    1AU     LIG  152   3.871   4.259   6.799
    1AU     LIG  153   3.664   3.939   7.060
    1AU     LIG  154   3.422   3.712   7.380
    1AU       S  155   4.942   5.097   7.058
    1AU     LIG  156   4.979   4.764   7.378
    1AU     LIG  157   4.758   4.695   7.769
    1AU     LIG  158   4.580   4.708   8.200
    1AU     LIG  159   4.452   4.546   8.616
    1AU    AUSL  160   4.743   5.209   5.279
    1AU    AUSL  161   4.910   4.823   5.451
    1AU     AUL  162   4.957   4.816   5.116
    1AU       S  163   4.634   5.116   4.952
    1AU     LIG  164   4.414   4.853   4.649
    1AU     LIG  165   4.280   4.878   4.184
    1AU     LIG  166   4.047   4.905   3.767
    1AU     LIG  167   3.608   5.037   3.612
    1AU       S  168   4.533   4.733   5.267
    1AU     LIG  169   4.563   4.434   4.984
    1AU     LIG  170   4.226   4.129   4.871
    1AU     LIG  171   3.877   3.930   4.630
    1AU     LIG  172   3.648   3.741   4.262
    1AU    AUSL  173   5.017   5.494   5.074
    1AU    AUSL  174   4.538   5.555   5.425
    1AU     AUL  175   4.664   5.553   5.097
    1AU       S  176   4.251   5.738   5.239
    1AU     LIG  177   4.150   5.990   4.825
    1AU     LIG  178   3.960   6.252   4.491
    1AU     LIG  179   3.623   6.431   4.228
    1AU     LIG  180   3.150   6.504   4.182
    1AU       S  181   4.921   5.362   4.753
    1AU     LIG  182   4.683   5.200   4.343
    1AU     LIG  183   4.638   5.113   3.882
    1AU     LIG  184   4.626   5.229   3.425
    1AU     LIG  185   4.786   5.483   3.055
    1AU    AUSL  186   6.009   5.780   6.012
    1AU    AUSL  187   5.983   5.599   5.612
    1AU     AUL  188   6.301   5.914   5.850
    1AU       S  189   6.109   5.723   5.498
    1AU     LIG  190   6.433   5.824   5.200
    1AU     LIG  191   6.528   5.983   4.779
    1AU     LIG  192   6.771   6.294   4.529
    1AU     LIG  193   7.023   6.608   4.269
    1AU       S  194   6.464   5.642   6.204
    1AU     LIG  195   6.844   5.846   6.065
    1AU     LIG  196   7.282   6.043   6.079
    1AU     LIG  197   7.480   6.497   6.076
    1AU     LIG  198   7.740   6.783   6.346
    1AU    AUSL  199   6.218   5.392   5.898
    1AU    AUSL  200   6.155   5.060   6.193
    1AU     AUL  201   6.531   5.150   6.223
    1AU       S  202   6.357   5.464   5.947
    1AU     LIG  203   6.797   5.378   5.860
    1AU     LIG  204   7.243   5.552   5.865
    1AU     LIG  205   7.661   5.739   5.780
    1AU     LIG  206   8.059   5.550   5.577
    1AU       S  207   6.397   4.764   6.011
    1AU     LIG  208   6.851   4.680   6.118
    1AU     LIG  209   7.274   4.467   6.216
    1AU     LIG  210   7.702   4.347   6.318
    1AU     LIG  211   8.097   4.527   6.470
    1AU    AUSL  212   5.956   5.429   6.248
    1AU    AUSL  213   5.799   5.995   6.313
    1AU     AUL  214   6.082   5.869   6.314
    1AU       S  215   6.001   6.186   6.654
    1AU     LIG  216   6.384   6.228   6.920
    1AU     LIG  217   6.707   6.507   7.159
    1AU     LIG  218   6.872   6.954   7.274
    1AU     LIG  219   6.944   7.453   7.251
    1AU       S  220   6.272   5.473   6.393
    1AU     LIG  221   6.733   5.479   6.573
    1AU     LIG  222   7.164   5.567   6.374
    1AU     LIG  223   7.609   5.735   6.391
    1AU     LIG  224   8.046   5.894   6.550
    1AU    AUSL  225   4.567   5.867   6.020
    1AU    AUSL  226   4.640   5.671   6.414
    1AU     AUL  227   4.326   5.969   6.254
    1AU       S  228   4.500   5.822   6.654
    1AU     LIG  229   4.376   5.728   7.066
    1AU     LIG  230   4.177   6.087   7.295
    1AU     LIG  231   3.908   6.357   7.563
    1AU     LIG  232   3.668   6.503   7.942
    1AU       S  233   4.560   6.249   5.941
    1AU     LIG  234   4.097   6.191   5.832
    1AU     LIG  235   3.618   6.280   5.817
    1AU     LIG  236   3.191   6.505   5.874
    1AU     LIG  237   2.781   6.676   6.052
    1AU    AUSL  238   4.541   5.476   5.832
    1AU    AUSL  239   4.678   5.921   5.617
    1AU     AUL  240   4.359   5.793   5.699
    1AU       S  241   4.162   5.300   5.493
    1AU     LIG  242   3.844   5.666   5.596
    1AU     LIG  243   3.391   5.827   5.697
    1AU     LIG  244   3.083   6.143   5.507
    1AU     LIG  245   2.603   6.184   5.480
    1AU       S  246   4.505   6.169   5.440
    1AU     LIG  247   4.220   6.400   5.150
    1AU     LIG  248   4.162   6.644   4.765
    1AU     LIG  249   3.941   7.001   4.565
    1AU     LIG  250   3.622   7.319   4.702
    1AU    AUSL  251   4.318   5.514   6.207
    1AU    AUSL  252   4.294   5.150   5.919
    1AU     AUL  253   4.143   5.468   5.935
    1AU       S  254   4.091   5.067   6.196
    1AU     LIG  255   3.770   5.132   5.883
    1AU     LIG  256   3.381   4.916   5.753
    1AU     LIG  257   2.974   4.691   5.739
    1AU     LIG  258   2.564   4.822   5.624
    1AU       S  259   4.164   5.541   6.434
    1AU     LIG  260   3.740   5.516   6.241
    1AU     LIG  261   3.300   5.705   6.312
    1AU     LIG  262   2.884   5.932   6.414
    1AU     LIG  263   2.485   6.226   6.355
    1AU    AUSL  264   5.927   4.720   6.030
    1AU    AUSL  265   5.784   4.974   6.373
    1AU     AUL  266   6.111   4.863   6.416
    1AU       S  267   6.213   4.595   6.027
    1AU     LIG  268   6.548   4.278   5.961
    1AU     LIG  269   6.988   4.107   5.987
    1AU     LIG  270   7.437   3.948   6.075
    1AU     LIG  271   7.814   3.848   6.343
    1AU       S  272   6.000   4.424   6.446
    1AU     LIG  273   6.284   4.224   6.812
    1AU     LIG  274   6.519   4.012   7.167
    1AU     LIG  275   6.740   3.802   7.524
    1AU     LIG  276   7.016   3.828   7.915
    1AU    AUSL  277   5.948   5.088   5.806
    1AU    AUSL  278   5.827   4.626   5.626
    1AU     AUL  279   6.085   4.782   5.625
    1AU       S  280   6.443   4.959   5.813
    1AU     LIG  281   6.713   4.644   5.624
    1AU     LIG  282   7.155   4.508   5.709
    1AU     LIG  283   7.591   4.354   5.794
    1AU     LIG  284   8.015   4.292   5.595
    1AU       S  285   6.006   4.465   5.289
    1AU     LIG  286   6.146   4.043   5.174
    1AU     LIG  287   6.295   3.638   4.979
    1AU     LIG  288   6.566   3.337   4.738
    1AU     LIG  289   6.729   2.893   4.732
    1AU    AUSL  290   4.495   4.790   6.069
    1AU    AUSL  291   4.586   5.041   5.637
    1AU     AUL  292   4.238   4.863   5.783
    1AU       S  293   4.410   4.881   5.351
    1AU     LIG  294   4.074   4.577   5.126
    1AU     LIG  295   3.727   4.259   5.007
    1AU     LIG  296   3.373   4.053   4.759
    1AU     LIG  297   3.019   4.106   4.448
    1AU       S  298   4.078   4.834   6.229
    1AU     LIG  299   3.732   4.645   6.037
    1AU     LIG  300   3.286   4.530   6.115
    1AU     LIG  301   2.908   4.393   6.363
    1AU     LIG  302   2.550   4.055   6.329
    1AU    AUSL  303   4.557   5.173   6.263
    1AU    AUSL  304   4.820   4.806   6.343
    1AU     AUL  305   4.492   4.756   6.413
    1AU       S  306   4.526   4.569   6.831
    1AU     LIG  307   4.375   4.140   6.716
    1AU     LIG  308   4.053   3.748   6.769
    1AU     LIG  309   3.705   3.423   6.939
    1AU     LIG  310   3.257   3.310   7.100
    1AU       S  311   4.158   5.073   6.380
    1AU     LIG  312   3.642   5.025   6.393
    1AU     LIG  313   3.209   5.023   6.227
    1AU     LIG  314   2.767   4.896   6.170
    1AU     LIG  315   2.434   4.666   6.422
    1AU    AUSL  316   5.237   6.115   6.464
    1AU    AUSL  317   4.824   6.044   6.312
    1AU     AUL  318   5.032   6.133   6.705
    1AU       S  319   4.668   6.254   6.435
    1AU     LIG  320   4.369   6.468   6.795
    1AU     LIG  321   4.126   6.646   7.181
    1AU     LIG  322   3.914   7.034   7.395
    1AU     LIG  323   3.705   7.488   7.392
    1AU       S  324   5.281   6.452   6.420
    1AU     LIG  325   5.380   6.497   6.832
    1AU     LIG  326   5.459   6.910   7.013
    1AU     LIG  327   5.605   7.334   7.136
    1AU     LIG  328   5.631   7.683   7.451
    1AU    AUSL  329   5.074   6.256   6.050
    1AU    AUSL  330   5.413   6.202   5.710
    1AU     AUL  331   5.281   6.557   5.844
    1AU       S  332   5.092   6.515   6.267
    1AU     LIG  333   5.298   6.929   6.504
    1AU     LIG  334   5.322   7.369   6.685
    1AU     LIG  335   5.100   7.808   6.669
    1AU     LIG  336   4.850   8.171   6.860
    1AU       S  337   5.150   6.373   5.448
    1AU     LIG  338   5.471   6.760   5.421
    1AU     LIG  339   5.704   7.211   5.340
    1AU     LIG  340   5.990   7.644   5.319
    1AU     LIG  341   6.173   8.109   5.269
    1AU    AUSL  342   5.444   6.028   6.099
    1AU    AUSL  343   5.474   5.772   6.491
    1AU     AUL  344   5.553   6.101   6.542
    1AU       S  345   5.835   6.019   6.893
    1AU     LIG  346   6.111   5.949   7.254
    1AU     LIG  347   6.418   6.213   7.472
    1AU     LIG  348   6.706   6.510   7.705
    1AU     LIG  349   6.739   6.746   8.115
    1AU       S  350   5.530   6.380   6.180
    1AU     LIG  351   5.748   6.633   6.502
    1AU     LIG  352   5.782   7.087   6.657
    1AU     LIG  353   5.817   7.549   6.721
    1AU     LIG  354   5.872   7.995   6.759
    1AU    AUSL  355   5.196   4.600   6.448
    1AU    AUSL  356   5.599   4.600   6.273
    1AU     AUL  357   5.430   4.478   6.661
    1AU       S  358   5.178   4.117   6.505
    1AU     LIG  359   4.873   3.993   6.823
    1AU     LIG  360   4.813   3.531   6.921
    1AU     LIG  361   4.868   3.055   6.949
    1AU     LIG  362   4.711   2.646   7.159
    1AU       S  363   5.756   4.362   6.321
    1AU     LIG  364   5.891   3.948   6.615
    1AU     LIG  365   6.247   3.689   6.869
    1AU     LIG  366   6.631   3.477   7.108
    1AU     LIG  367   6.867   3.037   7.093
    1AU    AUSL  368   4.864   4.430   6.177
    1AU    AUSL  369   4.967   4.750   6.761
    1AU     AUL  370   4.866   4.470   6.533
    1AU       S  371   4.963   4.058   6.331
    1AU     LIG  372   4.749   3.667   6.423
    1AU     LIG  373   4.596   3.224   6.536
    1AU     LIG  374   4.496   2.778   6.695
    1AU     LIG  375   4.588   2.314   6.761
    1AU       S  376   4.761   4.654   6.961
    1AU     LIG  377   4.591   4.259   7.198
    1AU     LIG  378   4.185   4.009   7.190
    1AU     LIG  379   3.955   3.630   7.359
    1AU     LIG  380   3.946   3.365   7.750
    1AU    AUSL  381   5.292   4.357   6.112
    1AU    AUSL  382   5.044   4.594   5.826
    1AU     AUL  383   4.930   4.258   5.911
    1AU       S  384   5.310   4.148   5.687
    1AU     LIG  385   4.987   3.771   5.769
    1AU     LIG  386   4.761   3.332   5.649
    1AU     LIG  387   4.739   2.861   5.490
    1AU     LIG  388   4.626   2.467   5.255
    1AU       S  389   5.294   4.149   6.234
    1AU     LIG  390   5.249   3.669   6.230
    1AU     LIG  391   5.124   3.310   6.527
    1AU     LIG  392   5.321   2.903   6.676
    1AU     LIG  393   5.736   2.653   6.662
    1AU    AUSL  394   5.263   5.923   5.377
    1AU    AUSL  395   5.697   5.896   5.747
    1AU     AUL  396   5.556   6.125   5.392
    1AU       S  397   5.147   6.313   5.241
    1AU     LIG  398   5.488   6.471   5.006
    1AU     LIG  399   5.544   6.930   4.922
    1AU     LIG  400   5.493   7.309   4.645
    1AU     LIG  401   5.547   7.583   4.252
    1AU       S  402   5.936   6.100   5.647
    1AU     LIG  403   6.387   6.299   5.439
    1AU     LIG  404   6.564   6.451   5.007
    1AU     LIG  405   6.782   6.776   4.715
    1AU     LIG  406   7.122   7.110   4.615
    1AU    AUSL  407   5.064   5.955   5.761
    1AU    AUSL  408   4.965   5.633   5.463
    1AU     AUL  409   4.911   5.928   5.325
    1AU       S  410   4.954   6.316   5.588
    1AU     LIG  411   4.958   6.812   5.510
    1AU     LIG  412   5.171   7.187   5.305
    1AU     LIG  413   5.056   7.654   5.267
    1AU     LIG  414   4.801   8.015   5.090
    1AU       S  415   4.468   5.968   5.205
    1AU     LIG  416   4.630   6.205   4.881
    1AU     LIG  417   4.466   6.360   4.466
    1AU     LIG  418   4.173   6.667   4.234
    1AU     LIG  419   4.146   7.119   4.064
    1AU    AUSL  420   5.233   4.549   5.436
    1AU    AUSL  421   4.642   4.608   5.716
    1AU     AUL  422   4.896   4.446   5.475
    1AU       S  423   4.449   4.589   5.471
    1AU     LIG  424   4.316   4.186   5.389
    1AU     LIG  425   3.973   3.887   5.260
    1AU     LIG  426   3.640   3.664   5.010
    1AU     LIG  427   3.468   3.226   4.881
    1AU       S  428   5.271   4.145   5.502
    1AU     LIG  429   5.200   3.701   5.307
    1AU     LIG  430   4.987   3.259   5.187
    1AU     LIG  431   4.814   2.863   4.953
    1AU     LIG  432   4.737   2.593   4.549
    1AU    AUSL  433   5.466   4.588   5.816
    1AU    AUSL  434   5.504   4.869   5.455
    1AU     AUL  435   5.562   4.502   5.428
    1AU       S  436   5.565   4.192   5.773
    1AU     LIG  437   5.496   3.700   5.763
    1AU     LIG  438   5.273   3.296   5.626
    1AU     LIG  439   5.248   2.850   5.424
    1AU     LIG  440   5.401   2.386   5.436
    1AU       S  441   5.764   4.676   5.060
    1AU     LIG  442   5.699   4.238   4.965
    1AU     LIG  443   5.939   3.921   4.710
    1AU     LIG  444   6.221   3.639   4.455
    1AU     LIG  445   6.457   3.553   4.056
    2POPC   NC3  446  10.007   5.944   8.083
    2POPC   PO4  447  10.417   5.408   8.008
    2POPC   GL1  448  10.300   5.503   7.671
    2POPC   GL2  449   9.982   5.602   7.712
    2POPC   C1A  450  10.154   5.365   7.279
    2POPC   D2A  451  10.345   5.385   6.881
    2POPC   C3A  452  10.115   5.416   6.464
    2POPC   C4A  453  10.113   5.377   5.960
    2POPC   C1B  454  10.218   5.879   7.375
    2POPC   C2B  455  10.275   5.960   6.960
    2POPC   C3B  456  10.056   5.939   6.593
    2POPC   C4B  457  10.187   5.826   6.199
    3POPC   NC3  458   0.474   9.283   8.321
    3POPC   PO4  459   0.678   9.647   7.853
    3POPC   GL1  460   0.504   9.472   7.501
    3POPC   GL2  461   0.366   9.175   7.597
    3POPC   C1A  462   0.236   9.552   7.197
    3POPC   D2A  463   0.377   9.667   6.820
    3POPC   C3A  464   0.084   9.681   6.518
    3POPC   C4A  465   0.255   9.729   6.145
    3POPC   C1B  466   0.275   9.026   7.177
    3POPC   C2B  467   0.539   9.124   6.808
    3POPC   C3B  468   0.440   9.325   6.412
    3POPC   C4B  469   0.494   9.312   5.924
    4POPC   NC3  470   9.485   7.332   8.258
    4POPC   PO4  471   9.022   6.883   8.044
    4POPC   GL1  472   9.159   7.103   7.704
    4POPC   GL2  473   9.500   7.145   7.770
    4POPC   C1A  474   9.290   7.035   7.281
    4POPC   D2A  475   9.132   6.900   6.912
    4POPC   C3A  476   9.173   7.169   6.569
    4POPC   C4A  477   9.200   7.127   6.147
    4POPC   C1B  478   9.758   7.202   7.410
    4POPC   C2B  479   9.781   7.079   7.011
    4POPC   C3B  480   9.891   7.216   6.624
    4POPC   C4B  481   9.630   7.374   6.302
    5POPC   NC3  482   5.901   8.584   7.974
    5POPC   PO4  483   5.748   9.237   8.111
    5POPC   GL1  484   6.010   9.031   7.770
    5POPC   GL2  485   5.689   8.988   7.564
    5POPC   C1A  486   6.135   8.997   7.319
    5POPC   D2A  487   5.828   9.221   7.011
    5POPC   C3A  488   5.743   9.078   6.570
    5POPC   C4A  489   5.676   8.737   6.292
    5POPC   C1B  490   5.738   8.724   7.176
    5POPC   C2B  491   5.580   8.533   6.784
    5POPC   C3B  492   5.571   8.246   6.421
    5POPC   C4B  493   5.703   8.276   5.986
    6POPC   NC3  494   6.428   1.972   8.116
    6POPC   PO4  495   6.041   2.444   8.005
    6POPC   GL1  496   6.373   2.170   7.646
    6POPC   GL2  497   6.490   1.802   7.623
    6POPC   C1A  498   6.502   2.040   7.164
    6POPC   D2A  499   6.281   2.263   6.788
    6POPC   C3A  500   6.510   2.340   6.382
    6POPC   C4A  501   6.380   2.235   5.931
    6POPC   C1B  502   6.668   1.473   7.313
    6POPC   C2B  503   6.738   1.593   6.881
    6POPC   C3B  504   6.580   1.886   6.646
    6POPC   C4B  505   6.383   1.859   6.278
    7POPC   NC3  506   8.881   5.859   7.912
    7POPC   PO4  507   8.859   5.253   8.143
    7POPC   GL1  508   8.729   5.317   7.717
    7POPC   GL2  509   8.536   5.575   7.602
    7POPC   C1A  510   8.931   5.446   7.327
    7POPC   D2A  511   9.021   5.594   6.890
    7POPC   C3A  512   8.953   5.473   6.455
    7POPC   C4A  513   8.907   5.627   6.046
    7POPC   C1B  514   8.501   5.624   7.130
    7POPC   C2B  515   8.521   5.390   6.719
    7POPC   C3B  516   8.445   5.587   6.301
    7POPC   C4B  517   8.077   5.672   6.069
    8POPC   NC3  518   3.741   9.688   8.066
    8POPC   PO4  519   3.081   9.730   8.191
    8POPC   GL1  520   3.267   9.678   7.783
    8POPC   GL2  521   3.423   9.346   7.819
    8POPC   C1A  522   3.357   9.761   7.334
    8POPC   D2A  523   3.180   9.706   6.892
    8POPC   C3A  524   3.480   9.562   6.573
    8POPC   C4A  525   3.470   9.427   6.133
    8POPC   C1B  526   3.443   9.199   7.411
    8POPC   C2B  527   3.434   9.244   6.974
    8POPC   C3B  528   3.551   9.041   6.554
    8POPC   C4B  529   3.750   8.951   6.159
    9POPC   NC3  530   2.601   7.872   8.412
    9POPC   PO4  531   3.050   8.231   8.100
    9POPC   GL1  532   2.683   7.979   7.881
    9POPC   GL2  533   2.441   8.181   7.720
    9POPC   C1A  534   2.579   7.795   7.419
    9POPC   D2A  535   2.848   7.698   7.040
    9POPC   C3A  536   2.683   7.702   6.613
    9POPC   C4A  537   2.499   7.534   6.244
    9POPC   C1B  538   2.875   8.215   7.460
    9POPC   C2B  539   3.011   8.184   7.036
    9POPC   C3B  540   3.004   8.098   6.574
    9POPC   C4B  541   2.795   7.966   6.166
   10POPC   NC3  542   8.622   6.862   8.273
   10POPC   PO4  543   8.429   7.486   8.535
   10POPC   GL1  544   8.603   7.463   8.003
   10POPC   GL2  545   8.640   7.124   7.784
   10POPC   C1A  546   8.548   7.521   7.464
   10POPC   D2A  547   8.437   7.684   6.986
   10POPC   C3A  548   8.417   7.496   6.520
   10POPC   C4A  549   8.429   7.528   6.043
   10POPC   C1B  550   8.779   7.087   7.301
   10POPC   C2B  551   8.711   7.173   6.823
   10POPC   C3B  552   8.711   7.044   6.355
   10POPC   C4B  553   8.769   7.170   5.894
   11POPC   NC3  554   6.123   9.051   8.287
   11POPC   PO4  555   6.255   8.378   8.179
   11POPC   GL1  556   6.411   8.550   7.764
   11POPC   GL2  557   6.650   8.826   7.713
   11POPC   C1A  558   6.484   8.605   7.289
   11POPC   D2A  559   6.686   8.448   6.929
   11POPC   C3A  560   6.535   8.548   6.511
   11POPC   C4A  561   6.408   8.529   6.080
   11POPC   C1B  562   6.655   9.072   7.327
   11POPC   C2B  563   6.590   8.980   6.911
   11POPC   C3B  564   6.627   9.036   6.491
   11POPC   C4B  565   6.182   8.959   6.268
   12POPC   NC3  566   5.025   1.188   8.107
   12POPC   PO4  567   5.243   1.847   8.091
   12POPC   GL1  568   4.906   1.585   7.790
   12POPC   GL2  569   4.978   1.261   7.623
   12POPC   C1A  570   4.729   1.536   7.308
   12POPC   D2A  571   5.015   1.482   6.909
   12POPC   C3A  572   4.800   1.501   6.505
   12POPC   C4A  573   4.831   1.417   6.040
   12POPC   C1B  574   4.940   1.051   7.233
   12POPC   C2B  575   4.812   1.050   6.806
   12POPC   C3B  576   4.998   1.051   6.383
   12POPC   C4B  577   4.602   0.973   6.170
   13POPC   NC3  578   0.212   9.537   7.902
   13POPC   PO4  579  10.003   9.425   8.069
   13POPC   GL1  580  10.217   9.564   7.730
   13POPC   GL2  581  10.347   9.223   7.659
   13POPC   C1A  582  10.141   9.827   7.363
   13POPC   D2A  583  10.321   9.783   6.950
   13POPC   C3A  584  10.100   9.878   6.562
   13POPC   C4A  585  10.214   9.681   6.162
   13POPC   C1B  586  10.284   9.315   7.246
   13POPC   C2B  587  10.445   9.267   6.830
   13POPC   C3B  588  10.115   9.358   6.553
   13POPC   C4B  589   9.979   9.227   6.154
   14POPC   NC3  590   1.685   5.532   8.419
   14POPC   PO4  591   1.073   5.461   8.186
   14POPC   GL1  592   1.131   5.553   7.736
   14POPC   GL2  593   1.316   5.280   7.579
   14POPC   C1A  594   1.099   5.812   7.353
   14POPC   D2A  595   1.257   5.657   6.925
   14POPC   C3A  596   1.105   5.855   6.508
   14POPC   C4A  597   1.138   5.659   6.105
   14POPC   C1B  598   0.909   5.354   7.301
   14POPC   C2B  599   0.799   5.368   6.835
   14POPC   C3B  600   0.829   5.366   6.366
   14POPC   C4B  601   0.826   5.288   5.877
   15POPC   NC3  602   8.540   3.378   8.021
   15POPC   PO4  603   8.606   4.002   7.856
   15POPC   GL1  604   8.729   3.639   7.549
   15POPC   GL2  605   8.703   3.248   7.542
   15POPC   C1A  606   8.874   3.522   7.105
   15POPC   D2A  607   8.625   3.448   6.730
   15POPC   C3A  608   8.758   3.370   6.331
   15POPC   C4A  609   8.734   3.577   5.946
   15POPC   C1B  610   8.393   3.393   7.221
   15POPC   C2B  611   8.211   3.671   6.922
   15POPC   C3B  612   8.161   3.510   6.514
   15POPC   C4B  613   8.299   3.692   6.160
   16POPC   NC3  614   0.492   2.695   8.057
   16POPC   PO4  615   0.294   2.048   8.192
   16POPC   GL1  616   0.229   2.322   7.775
   16POPC   GL2  617   0.117   2.682   7.720
   16POPC   C1A  618   0.043   2.411   7.323
   16POPC   D2A  619   0.102   2.651   6.935
   16POPC   C3A  620   0.368   2.537   6.578
   16POPC   C4A  621   0.096   2.427   6.244
   16POPC   C1B  622   0.403   2.785   7.350
   16POPC   C2B  623   0.435   3.053   6.976
   16POPC   C3B  624   0.320   3.046   6.544
   16POPC   C4B  625   0.429   2.844   6.154
   17POPC   NC3  626   8.868   7.759   8.407
   17POPC   PO4  627   8.546   8.097   7.956
   17POPC   GL1  628   8.640   8.004   7.580
   17POPC   GL2  629   8.917   7.782   7.698
   17POPC   C1A  630   8.611   8.255   7.216
   17POPC   D2A  631   8.333   8.239   6.888
   17POPC   C3A  632   8.506   8.041   6.586
   17POPC   C4A  633   8.603   8.177   6.178
   17POPC   C1B  634   9.042   7.913   7.263
   17POPC   C2B  635   8.958   8.120   6.843
   17POPC   C3B  636   8.968   7.927   6.426
   17POPC   C4B  637   8.897   7.513   6.281
   18POPC   NC3  638   2.837  10.060   8.429
   18POPC   PO4  639   3.303  10.311   7.981
   18POPC   GL1  640   3.548  10.133   7.663
   18POPC   GL2  641   3.918  10.094   7.752
   18POPC   C1A  642   3.566  10.260   7.228
   18POPC   D2A  643   3.435  10.176   6.794
   18POPC   C3A  644   3.605  10.410   6.408
   18POPC   C4A  645   3.411  10.337   5.964
   18POPC   C1B  646   3.882   9.868   7.368
   18POPC   C2B  647   3.730   9.783   6.979
   18POPC   C3B  648   3.821   9.939   6.586
   18POPC   C4B  649   3.556   9.937   6.235
   19POPC   NC3  650   9.627   8.091   8.107
   19POPC   PO4  651   9.321   7.692   8.488
   19POPC   GL1  652   9.372   7.672   7.923
   19POPC   GL2  653   9.404   7.965   7.684
   19POPC   C1A  654   9.339   7.527   7.452
   19POPC   D2A  655   9.146   7.458   7.014
   19POPC   C3A  656   9.344   7.646   6.620
   19POPC   C4A  657   9.341   7.744   6.135
   19POPC   C1B  658   9.559   8.162   7.334
   19POPC   C2B  659   9.458   8.043   6.930
   19POPC   C3B  660   9.438   8.137   6.492
   19POPC   C4B  661   9.701   8.100   6.138
   20POPC   NC3  662   8.409   9.176   8.168
   20POPC   PO4  663   9.009   8.968   8.112
   20POPC   GL1  664   8.722   9.059   7.718
   20POPC   GL2  665   8.504   9.378   7.693
   20POPC   C1A  666   8.619   9.145   7.253
   20POPC   D2A  667   8.782   9.134   6.846
   20POPC   C3A  668   8.591   9.116   6.473
   20POPC   C4A  669   8.796   9.114   6.099
   20POPC   C1B  670   8.883   9.529   7.443
   20POPC   C2B  671   8.922   9.605   6.997
   20POPC   C3B  672   8.604   9.608   6.677
   20POPC   C4B  673   8.681   9.575   6.264
   21POPC   NC3  674   9.358   4.614   8.472
   21POPC   PO4  675   9.352   4.459   7.837
   21POPC   GL1  676   9.520   4.736   7.616
   21POPC   GL2  677   9.530   5.020   7.796
   21POPC   C1A  678   9.503   4.781   7.169
   21POPC   D2A  679   9.197   4.702   6.891
   21POPC   C3A  680   9.291   4.677   6.476
   21POPC   C4A  681   8.962   4.673   6.193
   21POPC   C1B  682   9.672   5.215   7.423
   21POPC   C2B  683   9.431   5.354   7.090
   21POPC   C3B  684   9.300   5.179   6.718
   21POPC   C4B  685   9.454   5.131   6.320
   22POPC   NC3  686   0.845   0.898   8.179
   22POPC   PO4  687   1.410   0.789   8.074
   22POPC   GL1  688   1.169   0.869   7.715
   22POPC   GL2  689   1.049   1.190   7.797
   22POPC   C1A  690   1.229   1.059   7.291
   22POPC   D2A  691   1.402   1.141   6.898
   22POPC   C3A  692   1.224   0.910   6.584
   22POPC   C4A  693   1.234   1.013   6.176
   22POPC   C1B  694   1.308   1.473   7.563
   22POPC   C2B  695   1.246   1.595   7.123
   22POPC   C3B  696   1.052   1.488   6.717
   22POPC   C4B  697   1.342   1.480   6.371
   23POPC   NC3  698   6.880   8.697   8.144
   23POPC   PO4  699   7.320   9.205   8.193
   23POPC   GL1  700   7.095   9.050   7.844
   23POPC   GL2  701   7.262   8.726   7.766
   23POPC   C1A  702   7.172   9.035   7.386
   23POPC   D2A  703   7.110   8.789   7.002
   23POPC   C3A  704   7.259   8.903   6.577
   23POPC   C4A  705   7.035   8.824   6.182
   23POPC   C1B  706   7.012   8.507   7.436
   23POPC   C2B  707   7.145   8.266   7.068
   23POPC   C3B  708   7.101   8.413   6.637
   23POPC   C4B  709   6.909   8.344   6.230
   24POPC   NC3  710   0.014   6.448   8.231
   24POPC   PO4  711   9.895   6.405   8.140
   24POPC   GL1  712   9.914   6.403   7.710
   24POPC   GL2  713  10.193   6.245   7.711
   24POPC   C1A  714   9.842   6.239   7.254
   24POPC   D2A  715  10.000   6.407   6.855
   24POPC   C3A  716   9.768   6.377   6.491
   24POPC   C4A  717   9.762   6.076   6.194
   24POPC   C1B  718  10.305   6.403   7.306
   24POPC   C2B  719  10.493   6.428   6.876
   24POPC   C3B  720  10.320   6.370   6.434
   24POPC   C4B  721  10.440   6.567   6.035
   25POPC   NC3  722   5.346   0.439   8.228
   25POPC   PO4  723   4.668   0.197   8.192
   25POPC   GL1  724   4.898   0.375   7.828
   25POPC   GL2  725   4.943   0.743   7.823
   25POPC   C1A  726   4.998   0.271   7.376
   25POPC   D2A  727   5.129   0.412   6.960
   25POPC   C3A  728   4.992   0.140   6.614
   25POPC   C4A  729   5.164   0.105   6.197
   25POPC   C1B  730   4.689   0.673   7.469
   25POPC   C2B  731   4.649   0.613   7.025
   25POPC   C3B  732   4.787   0.611   6.576
   25POPC   C4B  733   4.977   0.588   6.170
   26POPC   NC3  734   5.930   1.260   8.027
   26POPC   PO4  735   5.395   0.861   8.016
   26POPC   GL1  736   5.409   1.001   7.581
   26POPC   GL2  737   5.514   1.349   7.623
   26POPC   C1A  738   5.429   1.145   7.117
   26POPC   D2A  739   5.755   1.227   6.761
   26POPC   C3A  740   5.581   1.019   6.380
   26POPC   C4A  741   5.411   0.836   6.023
   26POPC   C1B  742   5.708   1.534   7.233
   26POPC   C2B  743   5.500   1.688   6.854
   26POPC   C3B  744   5.391   1.511   6.463
   26POPC   C4B  745   5.783   1.451   6.229
   27POPC   NC3  746   9.403   5.165   8.265
   27POPC   PO4  747   9.544   5.860   8.191
   27POPC   GL1  748   9.393   5.786   7.772
   27POPC   GL2  749   9.633   5.995   7.664
   27POPC   C1A  750   9.246   5.825   7.320
   27POPC   D2A  751   9.456   5.983   6.934
   27POPC   C3A  752   9.269   5.879   6.534
   27POPC   C4A  753   9.302   5.939   6.109
   27POPC   C1B  754   9.737   5.731   7.308
   27POPC   C2B  755   9.872   5.605   6.937
   27POPC   C3B  756   9.643   5.544   6.602
   27POPC   C4B  757   9.687   5.564   6.177
   28POPC   NC3  758   5.314   9.177   7.911
   28POPC   PO4  759   5.635   9.757   8.152
   28POPC   GL1  760   5.536   9.590   7.742
   28POPC   GL2  761   5.818   9.483   7.669
   28POPC   C1A  762   5.406   9.341   7.307
   28POPC   D2A  763   5.176   9.463   6.935
   28POPC   C3A  764   5.318   9.365   6.524
   28POPC   C4A  765   5.424   9.576   6.153
   28POPC   C1B  766   5.776   9.684   7.302
   28POPC   C2B  767   5.601   9.776   6.928
   28POPC   C3B  768   5.755   9.619   6.557
   28POPC   C4B  769   5.942   9.454   6.207
   29POPC   NC3  770   9.558   2.580   8.251
   29POPC   PO4  771   9.731   3.197   8.159
   29POPC   GL1  772   9.656   2.890   7.809
   29POPC   GL2  773   9.288   2.774   7.758
   29POPC   C1A  774   9.637   2.687   7.386
   29POPC   D2A  775   9.292   2.752   7.059
   29POPC   C3A  776   9.426   2.834   6.626
   29POPC   C4A  777   9.662   2.584   6.321
   29POPC   C1B  778   9.205   2.416   7.453
   29POPC   C2B  779   9.173   2.235   7.061
   29POPC   C3B  780   9.162   2.382   6.667
   29POPC   C4B  781   9.242   2.301   6.279
   30POPC   NC3  782   2.642   3.421   8.507
   30POPC   PO4  783   2.271   3.190   8.125
   30POPC   GL1  784   2.331   3.418   7.755
   30POPC   GL2  785   2.332   3.135   7.566
   30POPC   C1A  786   2.573   3.521   7.343
   30POPC   D2A  787   2.705   3.324   6.941
   30POPC   C3A  788   2.542   3.473   6.521
   30POPC   C4A  789   2.413   3.424   6.076
   30POPC   C1B  790   2.801   3.067   7.454
   30POPC   C2B  791   2.957   2.894   7.053
   30POPC   C3B  792   2.991   3.007   6.607
   30POPC   C4B  793   3.131   3.267   6.259
   31POPC   NC3  794   4.641  10.244   8.372
   31POPC   PO4  795   4.177   9.850   8.138
   31POPC   GL1  796   4.438   9.949   7.814
   31POPC   GL2  797   4.434  10.287   7.717
   31POPC   C1A  798   4.409   9.881   7.361
   31POPC   D2A  799   4.204   9.984   6.957
   31POPC   C3A  800   4.319   9.826   6.560
   31POPC   C4A  801   4.454   9.968   6.166
   31POPC   C1B  802   4.141  10.323   7.337
   31POPC   C2B  803   3.931  10.400   6.911
   31POPC   C3B  804   4.159  10.315   6.533
   31POPC   C4B  805   4.195   0.038   6.176
   32POPC   NC3  806   2.772   5.303   8.612
   32POPC   PO4  807   2.331   5.233   8.158
   32POPC   GL1  808   2.405   5.343   7.658
   32POPC   GL2  809   2.411   5.724   7.606
   32POPC   C1A  810   2.559   5.434   7.201
   32POPC   D2A  811   2.651   5.604   6.771
   32POPC   C3A  812   2.864   5.405   6.373
   32POPC   C4A  813   3.104   5.421   5.938
   32POPC   C1B  814   2.409   5.934   7.161
   32POPC   C2B  815   2.246   5.930   6.718
   32POPC   C3B  816   2.431   5.726   6.332
   32POPC   C4B  817   2.379   5.883   5.897
   33POPC   NC3  818   5.651  10.243   8.177
   33POPC   PO4  819   6.258  10.111   7.935
   33POPC   GL1  820   5.899  10.004   7.691
   33POPC   GL2  821   5.553  10.138   7.701
   33POPC   C1A  822   5.814  10.175   7.281
   33POPC   D2A  823   5.982  10.341   6.926
   33POPC   C3A  824   5.859  10.117   6.580
   33POPC   C4A  825   6.016  10.176   6.161
   33POPC   C1B  826   5.306  10.328   7.354
   33POPC   C2B  827   5.456  10.280   6.935
   33POPC   C3B  828   5.397  10.324   6.528
   33POPC   C4B  829   5.515  10.155   6.136
   34POPC   NC3  830   6.159   9.670   8.019
   34POPC   PO4  831   6.564   9.088   8.169
   34POPC   GL1  832   6.461   9.305   7.758
   34POPC   GL2  833   6.795   9.414   7.648
   34POPC   C1A  834   6.227   9.478   7.384
   34POPC   D2A  835   6.126   9.623   6.942
   34POPC   C3A  836   6.196   9.320   6.624
   34POPC   C4A  837   6.441   9.403   6.225
   34POPC   C1B  838   6.667   9.601   7.216
   34POPC   C2B  839   6.611   9.530   6.781
   34POPC   C3B  840   6.741   9.742   6.454
   34POPC   C4B  841   6.978   9.846   6.149
   35POPC   NC3  842   0.534   1.800   7.879
   35POPC   PO4  843  10.381   1.579   7.846
   35POPC   GL1  844   0.142   1.650   7.583
   35POPC   GL2  845   0.057   1.936   7.487
   35POPC   C1A  846   0.360   1.554   7.261
   35POPC   D2A  847   0.461   1.679   6.903
   35POPC   C3A  848   0.546   1.499   6.564
   35POPC   C4A  849   0.432   1.663   6.205
   35POPC   C1B  850   0.430   2.066   7.304
   35POPC   C2B  851   0.332   2.173   6.928
   35POPC   C3B  852   0.274   2.031   6.531
   35POPC   C4B  853   0.563   2.164   6.200
   36POPC   NC3  854   3.432   0.940   8.211
   36POPC   PO4  855   3.273   1.503   7.862
   36POPC   GL1  856   3.452   1.210   7.623
   36POPC   GL2  857   3.496   0.848   7.671
   36POPC   C1A  858   3.237   1.053   7.289
   36POPC   D2A  859   2.988   1.049   6.954
   36POPC   C3A  860   3.248   1.194   6.608
   36POPC   C4A  861   3.127   1.332   6.200
   36POPC   C1B  862   3.763   0.918   7.304
   36POPC   C2B  863   3.859   1.220   7.028
   36POPC   C3B  864   3.824   1.118   6.631
   36POPC   C4B  865   3.625   1.223   6.248
   37POPC   NC3  866   9.749   4.367   8.053
   37POPC   PO4  867  10.477   4.410   8.028
   37POPC   GL1  868  10.292   4.402   7.678
   37POPC   GL2  869  10.011   4.183   7.662
   37POPC   C1A  870  10.379   4.455   7.301
   37POPC   D2A  871  10.102   4.461   6.980
   37POPC   C3A  872  10.349   4.482   6.650
   37POPC   C4A  873  10.233   4.595   6.245
   37POPC   C1B  874  10.196   3.963   7.322
   37POPC   C2B  875  10.107   3.939   6.915
   37POPC   C3B  876   9.983   4.161   6.577
   37POPC   C4B  877  10.126   4.101   6.158
   38POPC   NC3  878   7.580   0.142   7.834
   38POPC   PO4  879   7.669   0.755   8.049
   38POPC   GL1  880   7.936   0.506   7.730
   38POPC   GL2  881   7.972   0.145   7.538
   38POPC   C1A  882   7.880   0.581   7.293
   38POPC   D2A  883   7.835   0.848   6.964
   38POPC   C3A  884   7.782   0.667   6.592
   38POPC   C4A  885   7.985   0.766   6.258
   38POPC   C1B  886   7.979   0.101   7.142
   38POPC   C2B  887   7.688   0.243   6.863
   38POPC   C3B  888   7.909   0.179   6.504
   38POPC   C4B  889   7.892   0.300   6.083
   39POPC   NC3  890   8.040   1.981   8.082
   39POPC   PO4  891   7.458   1.598   8.193
   39POPC   GL1  892   7.530   1.662   7.730
   39POPC   GL2  893   7.865   1.735   7.678
   39POPC   C1A  894   7.610   1.657   7.249
   39POPC   D2A  895   7.910   1.725   6.923
   39POPC   C3A  896   7.647   1.818   6.603
   39POPC   C4A  897   7.524   1.788   6.212
   39POPC   C1B  898   7.971   2.021   7.368
   39POPC   C2B  899   8.237   2.113   6.977
   39POPC   C3B  900   8.078   2.090   6.538
   39POPC   C4B  901   7.813   2.226   6.212
   40POPC   NC3  902  10.353   7.922   8.013
   40POPC   PO4  903   9.876   7.404   8.028
   40POPC   GL1  904   9.822   7.642   7.650
   40POPC   GL2  905   9.931   7.977   7.664
   40POPC   C1A  906   9.779   7.684   7.187
   40POPC   D2A  907   9.966   7.950   6.861
   40POPC   C3A  908  10.045   7.825   6.421
   40POPC   C4A  909  10.410   7.791   6.110
   40POPC   C1B  910  10.254   7.831   7.347
   40POPC   C2B  911  10.468   8.004   6.973
   40POPC   C3B  912  10.405   8.188   6.553
   40POPC   C4B  913  10.199   8.259   6.140
   41POPC   NC3  914   2.152   4.765   8.041
   41POPC   PO4  915   1.674   5.293   8.026
   41POPC   GL1  916   1.855   5.256   7.600
   41POPC   GL2  917   1.812   4.927   7.546
   41POPC   C1A  918   2.188   5.094   7.260
   41POPC   D2A  919   2.182   4.968   6.798
   41POPC   C3A  920   2.388   5.169   6.416
   41POPC   C4A  921   2.272   4.962   6.005
   41POPC   C1B  922   1.725   5.204   7.118
   41POPC   C2B  923   1.680   5.151   6.677
   41POPC   C3B  924   1.907   4.920   6.353
   41POPC   C4B  925   1.794   4.654   5.977
   42POPC   NC3  926   7.711   8.463   8.107
   42POPC   PO4  927   8.289   8.341   8.411
   42POPC   GL1  928   8.141   8.384   7.843
   42POPC   GL2  929   7.862   8.625   7.659
   42POPC   C1A  930   8.119   8.334   7.352
   42POPC   D2A  931   7.897   8.493   6.950
   42POPC   C3A  932   7.930   8.308   6.526
   42POPC   C4A  933   8.150   8.385   6.140
   42POPC   C1B  934   7.666   8.826   7.282
   42POPC   C2B  935   7.828   8.980   6.858
   42POPC   C3B  936   7.761   8.831   6.448
   42POPC   C4B  937   7.518   8.963   6.086
   43POPC   NC3  938   1.143   5.914   8.103
   43POPC   PO4  939   1.231   6.608   8.100
   43POPC   GL1  940   1.342   6.274   7.805
   43POPC   GL2  941   1.039   6.202   7.668
   43POPC   C1A  942   1.480   6.144   7.407
   43POPC   D2A  943   1.266   6.175   7.028
   43POPC   C3A  944   1.449   6.285   6.652
   43POPC   C4A  945   1.488   6.145   6.242
   43POPC   C1B  946   1.165   6.591   7.424
   43POPC   C2B  947   1.148   6.846   7.044
   43POPC   C3B  948   1.247   6.935   6.595
   43POPC   C4B  949   1.171   6.592   6.306
   44POPC   NC3  950   1.430   3.196   8.383
   44POPC   PO4  951   0.859   2.993   8.034
   44POPC   GL1  952   1.119   3.191   7.690
   44POPC   GL2  953   1.243   3.535   7.769
   44POPC   C1A  954   1.195   3.315   7.266
   44POPC   D2A  955   1.155   3.576   6.922
   44POPC   C3A  956   1.263   3.310   6.622
   44POPC   C4A  957   1.059   3.268   6.259
   44POPC   C1B  958   1.423   3.767   7.397
   44POPC   C2B  959   1.656   3.597   7.044
   44POPC   C3B  960   1.592   3.708   6.631
   44POPC   C4B  961   1.416   3.610   6.238
   45POPC   NC3  962   1.205   9.553   7.966
   45POPC   PO4  963   0.799   8.992   8.160
   45POPC   GL1  964   0.871   9.163   7.726
   45POPC   GL2  965   1.016   9.467   7.520
   45POPC   C1A  966   0.789   9.111   7.273
   45POPC   D2A  967   1.062   9.364   6.993
   45POPC   C3A  968   0.906   9.453   6.603
   45POPC   C4A  969   0.891   9.173   6.258
   45POPC   C1B  970   1.382   9.595   7.340
   45POPC   C2B  971   1.451   9.730   6.935
   45POPC   C3B  972   1.419   9.521   6.574
   45POPC   C4B  973   1.240   9.509   6.200
   46POPC   NC3  974   8.831   2.502   8.404
   46POPC   PO4  975   8.422   2.998   8.267
   46POPC   GL1  976   8.491   2.807   7.786
   46POPC   GL2  977   8.751   2.525   7.784
   46POPC   C1A  978   8.357   2.869   7.305
   46POPC   D2A  979   8.586   2.986   6.937
   46POPC   C3A  980   8.400   3.019   6.520
   46POPC   C4A  981   8.546   2.940   6.122
   46POPC   C1B  982   8.809   2.677   7.331
   46POPC   C2B  983   8.692   2.477   6.929
   46POPC   C3B  984   8.671   2.577   6.490
   46POPC   C4B  985   9.019   2.806   6.287
   47POPC   NC3  986   0.577   8.612   8.001
   47POPC   PO4  987   0.116   9.099   8.074
   47POPC   GL1  988   0.135   8.740   7.731
   47POPC   GL2  989   0.486   8.693   7.517
   47POPC   C1A  990   0.061   8.458   7.374
   47POPC   D2A  991   0.194   8.460   6.959
   47POPC   C3A  992   0.270   8.724   6.622
   47POPC   C4A  993   0.123   8.551   6.213
   47POPC   C1B  994   0.644   8.657   7.095
   47POPC   C2B  995   0.832   8.420   6.765
   47POPC   C3B  996   0.866   8.690   6.422
   47POPC   C4B  997   0.502   8.868   6.180
   48POPC   NC3  998   2.803   0.540   8.234
   48POPC   PO4  999   2.625  10.392   8.159
   48POPC   GL1 1000   2.585   0.241   7.814
   48POPC   GL2 1001   2.646   0.621   7.707
   48POPC   C1A 1002   2.576   0.258   7.354
   48POPC   D2A 1003   2.550   0.499   6.969
   48POPC   C3A 1004   2.726   0.325   6.582
   48POPC   C4A 1005   2.541   0.374   6.188
   48POPC   C1B 1006   2.916   0.643   7.311
   48POPC   C2B 1007   3.057   0.553   6.897
   48POPC   C3B 1008   3.035   0.747   6.547
   48POPC   C4B 1009   2.910   0.703   6.186
   49POPC   NC3 1010   9.853   0.330   8.322
   49POPC   PO4 1011   9.685   0.866   7.931
   49POPC   GL1 1012   9.604   0.567   7.602
   49POPC   GL2 1013   9.259   0.496   7.607
   49POPC   C1A 1014   9.506   0.332   7.191
   49POPC   D2A 1015   9.138   0.166   6.920
   49POPC   C3A 1016   9.280   0.221   6.493
   49POPC   C4A 1017   9.641   0.199   6.200
   49POPC   C1B 1018   9.271   0.776   7.231
   49POPC   C2B 1019   9.291   0.643   6.802
   49POPC   C3B 1020   9.381   0.704   6.374
   49POPC   C4B 1021   9.501   0.605   5.933
   50POPC   NC3 1022   3.891   1.110   7.877
   50POPC   PO4 1023   4.529   1.188   8.191
   50POPC   GL1 1024   4.518   1.056   7.783
   50POPC   GL2 1025   4.277   0.795   7.759
   50POPC   C1A 1026   4.435   1.094   7.336
   50POPC   D2A 1027   4.396   1.341   6.969
   50POPC   C3A 1028   4.367   1.228   6.563
   50POPC   C4A 1029   4.344   1.482   6.184
   50POPC   C1B 1030   4.185   0.642   7.354
   50POPC   C2B 1031   4.192   0.836   6.958
   50POPC   C3B 1032   4.227   0.728   6.557
   50POPC   C4B 1033   4.080   0.976   6.221
   51POPC   NC3 1034   3.193   2.736   8.029
   51POPC   PO4 1035   3.766   2.803   8.118
   51POPC   GL1 1036   3.667   2.760   7.665
   51POPC   GL2 1037   3.432   2.467   7.646
   51POPC   C1A 1038   3.655   2.947   7.210
   51POPC   D2A 1039   3.453   2.960   6.787
   51POPC   C3A 1040   3.625   3.024   6.353
   51POPC   C4A 1041   3.507   3.151   5.903
   51POPC   C1B 1042   3.301   2.542   7.210
   51POPC   C2B 1043   3.157   2.520   6.781
   51POPC   C3B 1044   3.335   2.608   6.398
   51POPC   C4B 1045   3.220   2.336   6.049
   52POPC   NC3 1046   2.497   1.165   7.964
   52POPC   PO4 1047   2.849   1.616   8.376
   52POPC   GL1 1048   2.767   1.581   7.837
   52POPC   GL2 1049   2.899   1.225   7.659
   52POPC   C1A 1050   2.670   1.567   7.323
   52POPC   D2A 1051   2.883   1.530   6.869
   52POPC   C3A 1052   2.734   1.224   6.519
   52POPC   C4A 1053   2.574   1.359   6.096
   52POPC   C1B 1054   2.618   1.044   7.322
   52POPC   C2B 1055   2.414   1.004   6.903
   52POPC   C3B 1056   2.489   0.779   6.525
   52POPC   C4B 1057   2.436   0.873   6.102
   53POPC   NC3 1058   3.473   7.972   8.107
   53POPC   PO4 1059   3.969   8.487   8.039
   53POPC   GL1 1060   3.692   8.352   7.649
   53POPC   GL2 1061   3.356   8.171   7.665
   53POPC   C1A 1062   3.546   8.246   7.198
   53POPC   D2A 1063   3.423   8.313   6.778
   53POPC   C3A 1064   3.483   8.037   6.415
   53POPC   C4A 1065   3.293   8.069   6.006
   53POPC   C1B 1066   3.267   7.847   7.355
   53POPC   C2B 1067   3.354   7.811   6.899
   53POPC   C3B 1068   3.184   7.619   6.510
   53POPC   C4B 1069   3.148   7.592   6.065
   54POPC   NC3 1070   3.649   8.829   7.942
   54POPC   PO4 1071   3.067   9.004   7.983
   54POPC   GL1 1072   3.034   8.915   7.577
   54POPC   GL2 1073   3.281   8.672   7.580
   54POPC   C1A 1074   2.962   8.685   7.188
   54POPC   D2A 1075   3.243   8.775   6.885
   54POPC   C3A 1076   3.190   8.669   6.485
   54POPC   C4A 1077   3.221   8.939   6.141
   54POPC   C1B 1078   3.615   8.748   7.248
   54POPC   C2B 1079   3.802   8.664   6.816
   54POPC   C3B 1080   3.680   8.506   6.385
   54POPC   C4B 1081   3.512   8.550   5.934
   55POPC   NC3 1082   1.361   4.157   8.117
   55POPC   PO4 1083   0.955   4.602   8.102
   55POPC   GL1 1084   0.935   4.342   7.731
   55POPC   GL2 1085   1.049   4.014   7.729
   55POPC   C1A 1086   1.167   4.394   7.325
   55POPC   D2A 1087   1.253   4.575   6.897
   55POPC   C3A 1088   1.020   4.525   6.540
   55POPC   C4A 1089   1.084   4.411   6.136
   55POPC   C1B 1090   0.965   3.925   7.286
   55POPC   C2B 1091   1.318   4.058   6.954
   55POPC   C3B 1092   1.234   4.049   6.500
   55POPC   C4B 1093   0.918   3.745   6.370
   56POPC   NC3 1094   9.165   8.522   8.156
   56POPC   PO4 1095   9.651   8.853   7.993
   56POPC   GL1 1096   9.473   8.581   7.699
   56POPC   GL2 1097   9.188   8.788   7.670
   56POPC   C1A 1098   9.497   8.691   7.250
   56POPC   D2A 1099   9.283   8.524   6.867
   56POPC   C3A 1100   9.489   8.640   6.534
   56POPC   C4A 1101   9.468   8.561   6.105
   56POPC   C1B 1102   9.156   9.083   7.331
   56POPC   C2B 1103   9.264   9.026   6.896
   56POPC   C3B 1104   9.100   8.950   6.476
   56POPC   C4B 1105   9.298   9.031   6.072
   57POPC   NC3 1106   1.086   7.842   8.168
   57POPC   PO4 1107   1.357   8.319   7.870
   57POPC   GL1 1108   1.265   7.959   7.678
   57POPC   GL2 1109   0.901   7.929   7.698
   57POPC   C1A 1110   1.421   8.008   7.269
   57POPC   D2A 1111   1.539   7.753   6.954
   57POPC   C3A 1112   1.355   7.862   6.578
   57POPC   C4A 1113   1.531   7.849   6.210
   57POPC   C1B 1114   0.839   7.777   7.295
   57POPC   C2B 1115   0.996   7.933   6.938
   57POPC   C3B 1116   0.820   7.921   6.541
   57POPC   C4B 1117   0.972   7.941   6.173
   58POPC   NC3 1118   2.083   7.314   8.010
   58POPC   PO4 1119   1.459   7.579   8.033
   58POPC   GL1 1120   1.604   7.288   7.685
   58POPC   GL2 1121   1.918   7.271   7.541
   58POPC   C1A 1122   1.539   7.090   7.280
   58POPC   D2A 1123   1.770   7.284   6.924
   58POPC   C3A 1124   1.620   7.282   6.487
   58POPC   C4A 1125   1.670   6.881   6.234
   58POPC   C1B 1126   2.324   7.336   7.373
   58POPC   C2B 1127   2.399   7.446   6.955
   58POPC   C3B 1128   2.131   7.497   6.613
   58POPC   C4B 1129   2.077   7.230   6.234
   59POPC   NC3 1130   6.912   9.422   8.239
   59POPC   PO4 1131   7.522   9.836   8.136
   59POPC   GL1 1132   7.258   9.585   7.820
   59POPC   GL2 1133   7.473   9.331   7.676
   59POPC   C1A 1134   7.156   9.565   7.334
   59POPC   D2A 1135   6.987   9.288   6.995
   59POPC   C3A 1136   7.065   9.371   6.570
   59POPC   C4A 1137   6.950   9.320   6.164
   59POPC   C1B 1138   7.627   9.338   7.273
   59POPC   C2B 1139   7.465   9.315   6.895
   59POPC   C3B 1140   7.590   9.333   6.503
   59POPC   C4B 1141   7.438   9.458   6.143
   60POPC   NC3 1142   0.551   7.577   7.869
   60POPC   PO4 1143   0.660   8.177   8.098
   60POPC   GL1 1144   0.446   8.206   7.706
   60POPC   GL2 1145   0.181   7.986   7.619
   60POPC   C1A 1146   0.548   8.207   7.290
   60POPC   D2A 1147   0.486   8.048   6.902
   60POPC   C3A 1148   0.411   8.243   6.525
   60POPC   C4A 1149   0.617   8.338   6.178
   60POPC   C1B 1150   0.295   7.725   7.266
   60POPC   C2B 1151   0.432   7.563   6.864
   60POPC   C3B 1152   0.279   7.749   6.480
   60POPC   C4B 1153   0.449   7.886   6.074
   61POPC   NC3 1154   2.657   1.982   8.189
   61POPC   PO4 1155   2.057   2.226   8.287
   61POPC   GL1 1156   2.303   2.200   7.799
   61POPC   GL2 1157   2.651   2.113   7.704
   61POPC   C1A 1158   2.395   2.061   7.284
   61POPC   D2A 1159   2.577   1.924   6.843
   61POPC   C3A 1160   2.467   2.172   6.423
   61POPC   C4A 1161   2.325   2.191   5.933
   61POPC   C1B 1162   2.975   1.976   7.418
   61POPC   C2B 1163   3.098   2.051   6.982
   61POPC   C3B 1164   2.989   2.069   6.550
   61POPC   C4B 1165   2.760   1.718   6.389
   62POPC   NC3 1166   4.184   2.619   8.096
   62POPC   PO4 1167   4.576   3.119   7.894
   62POPC   GL1 1168   4.339   2.803   7.588
   62POPC   GL2 1169   4.132   2.475   7.603
   62POPC   C1A 1170   4.195   2.744   7.133
   62POPC   D2A 1171   3.975   2.951   6.783
   62POPC   C3A 1172   4.155   2.988   6.368
   62POPC   C4A 1173   3.983   2.971   5.960
   62POPC   C1B 1174   3.797   2.461   7.270
   62POPC   C2B 1175   3.685   2.519   6.830
   62POPC   C3B 1176   3.884   2.559   6.415
   62POPC   C4B 1177   4.340   2.476   6.304
   63POPC   NC3 1178   2.819   8.625   7.991
   63POPC   PO4 1179   2.322   9.105   8.107
   63POPC   GL1 1180   2.540   8.980   7.736
   63POPC   GL2 1181   2.591   8.639   7.555
   63POPC   C1A 1182   2.616   9.070   7.317
   63POPC   D2A 1183   2.531   8.850   6.977
   63POPC   C3A 1184   2.735   8.874   6.607
   63POPC   C4A 1185   2.599   8.893   6.207
   63POPC   C1B 1186   2.467   8.378   7.211
   63POPC   C2B 1187   2.611   8.378   6.786
   63POPC   C3B 1188   2.685   8.423   6.369
   63POPC   C4B 1189   3.006   8.478   6.063
   64POPC   NC3 1190   5.788   0.561   7.954
   64POPC   PO4 1191   5.334   0.038   7.993
   64POPC   GL1 1192   5.578   0.169   7.686
   64POPC   GL2 1193   5.398   0.479   7.629
   64POPC   C1A 1194   5.674   0.161   7.249
   64POPC   D2A 1195   5.605   0.242   6.824
   64POPC   C3A 1196   5.809   0.110   6.462
   64POPC   C4A 1197   5.677   0.133   6.009
   64POPC   C1B 1198   5.639   0.667   7.256
   64POPC   C2B 1199   5.526   0.740   6.818
   64POPC   C3B 1200   5.433   0.515   6.430
   64POPC   C4B 1201   5.823   0.572   6.219
   65POPC   NC3 1202   8.913   4.362   7.924
   65POPC   PO4 1203   9.461   4.118   8.319
   65POPC   GL1 1204   9.518   3.998   7.795
   65POPC   GL2 1205   9.679   3.751   7.638
   65POPC   C1A 1206   9.595   4.181   7.322
   65POPC   D2A 1207   9.550   4.309   6.861
   65POPC   C3A 1208   9.138   4.216   6.632
   65POPC   C4A 1209   9.194   4.214   6.202
   65POPC   C1B 1210   9.721   3.715   7.181
   65POPC   C2B 1211   9.640   3.784   6.730
   65POPC   C3B 1212   9.623   3.927   6.313
   65POPC   C4B 1213   9.670   4.392   6.260
   66POPC   NC3 1214   1.440  10.237   8.244
   66POPC   PO4 1215   0.881   0.049   8.154
   66POPC   GL1 1216   1.171  10.404   7.803
   66POPC   GL2 1217   1.215  10.053   7.770
   66POPC   C1A 1218   1.358  10.456   7.393
   66POPC   D2A 1219   1.344  10.219   6.985
   66POPC   C3A 1220   1.433  10.388   6.616
   66POPC   C4A 1221   1.359  10.343   6.198
   66POPC   C1B 1222   1.073  10.000   7.354
   66POPC   C2B 1223   0.950   9.886   6.907
   66POPC   C3B 1224   1.112   9.951   6.464
   66POPC   C4B 1225   1.125   9.950   5.984
   67POPC   NC3 1226  10.286   1.184   8.035
   67POPC   PO4 1227   0.502   1.200   8.151
   67POPC   GL1 1228   0.276   1.190   7.770
   67POPC   GL2 1229   0.569   1.298   7.651
   67POPC   C1A 1230   0.267   1.057   7.317
   67POPC   D2A 1231   0.133   1.240   6.943
   67POPC   C3A 1232   0.207   1.049   6.590
   67POPC   C4A 1233   0.363   1.125   6.211
   67POPC   C1B 1234   0.830   1.389   7.330
   67POPC   C2B 1235   0.701   1.191   6.971
   67POPC   C3B 1236   0.736   1.037   6.562
   67POPC   C4B 1237   0.836   1.305   6.184
   68POPC   NC3 1238   8.716   6.594   7.841
   68POPC   PO4 1239   8.560   6.058   7.660
   68POPC   GL1 1240   8.859   6.244   7.442
   68POPC   GL2 1241   9.003   6.632   7.447
   68POPC   C1A 1242   8.822   6.026   7.058
   68POPC   D2A 1243   8.623   5.887   6.689
   68POPC   C3A 1244   8.796   6.037   6.335
   68POPC   C4A 1245   8.917   6.188   5.949
   68POPC   C1B 1246   8.672   6.599   7.135
   68POPC   C2B 1247   8.738   6.626   6.698
   68POPC   C3B 1248   8.602   6.531   6.298
   68POPC   C4B 1249   8.411   6.840   5.982
   69POPC   NC3 1250   7.735   9.411   8.092
   69POPC   PO4 1251   8.129   8.828   8.060
   69POPC   GL1 1252   8.018   9.121   7.714
   69POPC   GL2 1253   7.974   9.480   7.656
   69POPC   C1A 1254   8.096   9.124   7.273
   69POPC   D2A 1255   8.283   9.233   6.869
   69POPC   C3A 1256   8.091   9.255   6.457
   69POPC   C4A 1257   8.292   9.337   6.057
   69POPC   C1B 1258   8.063   9.645   7.282
   69POPC   C2B 1259   7.914   9.572   6.875
   69POPC   C3B 1260   7.846   9.819   6.529
   69POPC   C4B 1261   7.902   9.666   6.132
   70POPC   NC3 1262   1.215   5.013   8.107
   70POPC   PO4 1263   1.712   4.448   8.150
   70POPC   GL1 1264   1.429   4.616   7.739
   70POPC   GL2 1265   1.120   4.807   7.671
   70POPC   C1A 1266   1.403   4.855   7.285
   70POPC   D2A 1267   1.234   5.132   6.997
   70POPC   C3A 1268   1.184   5.025   6.591
   70POPC   C4A 1269   1.415   4.775   6.295
   70POPC   C1B 1270   0.881   4.844   7.319
   70POPC   C2B 1271   0.787   4.804   6.933
   70POPC   C3B 1272   0.685   4.908   6.546
   70POPC   C4B 1273   0.922   4.891   6.171
   71POPC   NC3 1274  10.336   2.031   7.946
   71POPC   PO4 1275   9.835   2.233   8.369
   71POPC   GL1 1276   9.860   2.187   7.841
   71POPC   GL2 1277   9.927   1.877   7.683
   71POPC   C1A 1278  10.035   2.230   7.352
   71POPC   D2A 1279  10.268   2.214   6.944
   71POPC   C3A 1280  10.187   1.959   6.563
   71POPC   C4A 1281  10.429   1.924   6.164
   71POPC   C1B 1282  10.136   1.732   7.289
   71POPC   C2B 1283  10.454   1.735   6.975
   71POPC   C3B 1284   0.045   1.578   6.561
   71POPC   C4B 1285  10.474   1.432   6.154
   72POPC   NC3 1286   7.317   1.350   8.555
   72POPC   PO4 1287   7.158   0.893   8.118
   72POPC   GL1 1288   7.145   0.987   7.679
   72POPC   GL2 1289   6.911   1.251   7.744
   72POPC   C1A 1290   6.946   0.985   7.271
   72POPC   D2A 1291   6.708   1.074   6.904
   72POPC   C3A 1292   6.935   1.115   6.534
   72POPC   C4A 1293   7.009   0.936   6.133
   72POPC   C1B 1294   7.172   1.435   7.438
   72POPC   C2B 1295   7.177   1.395   7.017
   72POPC   C3B 1296   7.255   1.489   6.599
   72POPC   C4B 1297   7.262   1.364   6.175
   73POPC   NC3 1298  10.457   3.961   7.925
   73POPC   PO4 1299   0.615   3.939   8.024
   73POPC   GL1 1300   0.524   4.032   7.637
   73POPC   GL2 1301   0.312   4.318   7.614
   73POPC   C1A 1302   0.370   3.932   7.235
   73POPC   D2A 1303   0.075   4.129   6.972
   73POPC   C3A 1304  10.497   4.010   6.558
   73POPC   C4A 1305   0.117   4.271   6.236
   73POPC   C1B 1306   0.662   4.368   7.291
   73POPC   C2B 1307   0.814   4.227   6.903
   73POPC   C3B 1308   0.635   4.181   6.503
   73POPC   C4B 1309   0.589   4.489   6.205
   74POPC   NC3 1310   1.653   6.427   8.176
   74POPC   PO4 1311   1.834   6.937   8.020
   74POPC   GL1 1312   1.615   6.716   7.693
   74POPC   GL2 1313   1.825   6.398   7.682
   74POPC   C1A 1314   1.640   6.595   7.233
   74POPC   D2A 1315   1.641   6.751   6.822
   74POPC   C3A 1316   2.009   6.888   6.621
   74POPC   C4A 1317   2.309   6.736   6.308
   74POPC   C1B 1318   1.980   6.212   7.275
   74POPC   C2B 1319   2.012   6.391   6.880
   74POPC   C3B 1320   1.955   6.329   6.469
   74POPC   C4B 1321   1.980   5.954   6.229
   75POPC   NC3 1322   9.965   0.257   7.841
   75POPC   PO4 1323  10.171   0.808   8.296
   75POPC   GL1 1324  10.155   0.736   7.810
   75POPC   GL2 1325  10.445   0.801   7.673
   75POPC   C1A 1326  10.050   0.645   7.341
   75POPC   D2A 1327  10.007   0.311   7.009
   75POPC   C3A 1328   9.770   0.424   6.635
   75POPC   C4A 1329   9.908   0.626   6.235
   75POPC   C1B 1330   0.049   0.595   7.280
   75POPC   C2B 1331   0.006   0.549   6.857
   75POPC   C3B 1332  10.370   0.653   6.464
   75POPC   C4B 1333  10.311   0.254   6.235
   76POPC   NC3 1334   6.412   7.954   8.259
   76POPC   PO4 1335   6.781   7.537   8.052
   76POPC   GL1 1336   6.510   7.820   7.772
   76POPC   GL2 1337   6.153   7.984   7.823
   76POPC   C1A 1338   6.460   8.139   7.455
   76POPC   D2A 1339   6.213   8.205   7.092
   76POPC   C3A 1340   6.363   8.111   6.689
   76POPC   C4A 1341   6.478   8.063   6.259
   76POPC   C1B 1342   6.141   7.752   7.396
   76POPC   C2B 1343   6.285   7.674   6.963
   76POPC   C3B 1344   6.268   7.653   6.499
   76POPC   C4B 1345   5.988   7.913   6.238
   77POPC   NC3 1346   1.888   8.961   8.131
   77POPC   PO4 1347   1.603   8.421   8.325
   77POPC   GL1 1348   1.808   8.530   7.843
   77POPC   GL2 1349   2.184   8.611   7.884
   77POPC   C1A 1350   1.649   8.571   7.342
   77POPC   D2A 1351   1.603   8.809   6.917
   77POPC   C3A 1352   1.714   8.657   6.480
   77POPC   C4A 1353   1.784   8.722   6.013
   77POPC   C1B 1354   2.123   8.755   7.437
   77POPC   C2B 1355   2.075   8.626   7.000
   77POPC   C3B 1356   2.233   8.665   6.594
   77POPC   C4B 1357   2.219   8.551   6.211
   78POPC   NC3 1358   1.981   9.951   8.268
   78POPC   PO4 1359   1.662   0.100   8.060
   78POPC   GL1 1360   1.720  10.246   7.765
   78POPC   GL2 1361   2.002  10.319   7.545
   78POPC   C1A 1362   1.656  10.036   7.339
   78POPC   D2A 1363   1.872  10.121   6.922
   78POPC   C3A 1364   1.678   9.965   6.540
   78POPC   C4A 1365   1.622   9.809   6.134
   78POPC   C1B 1366   2.157   0.032   7.179
   78POPC   C2B 1367   2.305   0.070   6.766
   78POPC   C3B 1368   2.149  10.329   6.437
   78POPC   C4B 1369   2.118   9.917   6.310
   79POPC   NC3 1370   0.478   7.181   8.380
   79POPC   PO4 1371   0.086   7.518   7.903
   79POPC   GL1 1372   0.273   7.161   7.702
   79POPC   GL2 1373   0.623   7.054   7.791
   79POPC   C1A 1374   0.363   7.220   7.275
   79POPC   D2A 1375   0.151   7.139   6.902
   79POPC   C3A 1376   0.350   7.211   6.502
   79POPC   C4A 1377   0.668   7.474   6.303
   79POPC   C1B 1378   0.637   6.787   7.386
   79POPC   C2B 1379   0.442   6.699   6.971
   79POPC   C3B 1380   0.300   6.668   6.535
   79POPC   C4B 1381   0.452   6.847   6.170
   80POPC   NC3 1382   1.864   0.854   8.096
   80POPC   PO4 1383   2.132   1.469   7.945
   80POPC   GL1 1384   2.049   1.100   7.672
   80POPC   GL2 1385   1.672   1.014   7.625
   80POPC   C1A 1386   2.163   1.255   7.281
   80POPC   D2A 1387   2.203   1.627   7.049
   80POPC   C3A 1388   2.332   1.511   6.658
   80POPC   C4A 1389   2.185   1.199   6.384
   80POPC   C1B 1390   1.783   0.939   7.189
   80POPC   C2B 1391   1.908   1.212   6.827
   80POPC   C3B 1392   1.692   1.115   6.436
   80POPC   C4B 1393   1.603   0.703   6.299
   81POPC   NC3 1394   2.908  10.096   7.923
   81POPC   PO4 1395   2.237  10.036   7.892
   81POPC   GL1 1396   2.515  10.259   7.592
   81POPC   GL2 1397   2.868  10.383   7.537
   81POPC   C1A 1398   2.561  10.245   7.127
   81POPC   D2A 1399   2.404   9.988   6.787
   81POPC   C3A 1400   2.617  10.011   6.405
   81POPC   C4A 1401   2.654  10.409   6.289
   81POPC   C1B 1402   3.053  10.164   7.170
   81POPC   C2B 1403   2.967  10.384   6.755
   81POPC   C3B 1404   3.117  10.204   6.378
   81POPC   C4B 1405   3.065   9.752   6.339
   82POPC   NC3 1406   7.891  10.142   8.220
   82POPC   PO4 1407   8.229   9.592   8.079
   82POPC   GL1 1408   8.138   9.969   7.783
   82POPC   GL2 1409   7.822  10.172   7.724
   82POPC   C1A 1410   8.189  10.168   7.358
   82POPC   D2A 1411   8.229   9.990   6.935
   82POPC   C3A 1412   8.218  10.253   6.586
   82POPC   C4A 1413   7.948  10.258   6.224
   82POPC   C1B 1414   7.659  10.260   7.299
   82POPC   C2B 1415   7.759  10.226   6.851
   82POPC   C3B 1416   7.521  10.337   6.492
   82POPC   C4B 1417   7.526  10.442   6.004
   83POPC   NC3 1418   1.389   7.070   8.070
   83POPC   PO4 1419   0.827   7.453   8.219
   83POPC   GL1 1420   1.049   7.423   7.778
   83POPC   GL2 1421   1.133   7.075   7.631
   83POPC   C1A 1422   1.280   7.531   7.375
   83POPC   D2A 1423   1.244   7.336   6.953
   83POPC   C3A 1424   1.073   7.440   6.591
   83POPC   C4A 1425   1.205   7.465   6.167
   83POPC   C1B 1426   0.871   7.242   7.314
   83POPC   C2B 1427   0.723   7.138   6.913
   83POPC   C3B 1428   0.755   6.889   6.578
   83POPC   C4B 1429   0.924   7.050   6.216
   84POPC   NC3 1430   7.010   9.920   8.163
   84POPC   PO4 1431   7.153   0.056   7.977
   84POPC   GL1 1432   7.182  10.384   7.606
   84POPC   GL2 1433   7.319  10.092   7.742
   84POPC   C1A 1434   7.163  10.121   7.245
   84POPC   D2A 1435   6.953   9.903   6.922
   84POPC   C3A 1436   6.861  10.212   6.599
   84POPC   C4A 1437   7.085  10.336   6.235
   84POPC   C1B 1438   7.575   9.806   7.468
   84POPC   C2B 1439   7.490   9.810   7.006
   84POPC   C3B 1440   7.324   9.820   6.567
   84POPC   C4B 1441   7.476   9.957   6.164
   85POPC   NC3 1442   4.378   0.615   8.224
   85POPC   PO4 1443   3.803   0.671   8.023
   85POPC   GL1 1444   3.945   0.359   7.742
   85POPC   GL2 1445   4.308   0.284   7.820
   85POPC   C1A 1446   3.859   0.240   7.318
   85POPC   D2A 1447   3.834   0.473   6.956
   85POPC   C3A 1448   3.933   0.292   6.568
   85POPC   C4A 1449   3.963   0.484   6.164
   85POPC   C1B 1450   4.464   0.216   7.406
   85POPC   C2B 1451   4.291   0.256   6.993
   85POPC   C3B 1452   4.455   0.231   6.581
   85POPC   C4B 1453   4.477   0.470   6.189
   86POPC   NC3 1454   1.622   2.382   8.399
   86POPC   PO4 1455   1.477   2.982   7.984
   86POPC   GL1 1456   1.616   2.825   7.580
   86POPC   GL2 1457   1.972   2.783   7.614
   86POPC   C1A 1458   1.636   2.553   7.205
   86POPC   D2A 1459   1.657   2.341   6.784
   86POPC   C3A 1460   1.508   2.521   6.460
   86POPC   C4A 1461   1.780   2.663   6.176
   86POPC   C1B 1462   2.135   2.495   7.355
   86POPC   C2B 1463   2.090   2.540   6.952
   86POPC   C3B 1464   2.114   2.558   6.549
   86POPC   C4B 1465   2.324   2.619   6.179
   87POPC   NC3 1466   8.427   5.054   8.079
   87POPC   PO4 1467   8.890   4.604   8.354
   87POPC   GL1 1468   9.044   4.848   7.926
   87POPC   GL2 1469   8.742   4.815   7.759
   87POPC   C1A 1470   9.103   4.979   7.431
   87POPC   D2A 1471   8.858   5.090   6.998
   87POPC   C3A 1472   8.854   4.968   6.586
   87POPC   C4A 1473   8.648   5.113   6.226
   87POPC   C1B 1474   8.624   4.817   7.347
   87POPC   C2B 1475   8.720   4.552   6.987
   87POPC   C3B 1476   8.642   4.480   6.548
   87POPC   C4B 1477   8.453   4.642   6.140
   88POPC   NC3 1478  10.167   9.857   8.187
   88POPC   PO4 1479   9.784  10.397   8.156
   88POPC   GL1 1480   9.948  10.255   7.728
   88POPC   GL2 1481  10.308  10.141   7.772
   88POPC   C1A 1482   9.799  10.408   7.288
   88POPC   D2A 1483   9.585  10.414   6.876
   88POPC   C3A 1484   9.850  10.344   6.525
   88POPC   C4A 1485  10.011  10.371   6.108
   88POPC   C1B 1486  10.303  10.338   7.357
   88POPC   C2B 1487  10.186  10.288   6.938
   88POPC   C3B 1488   0.007  10.192   6.644
   88POPC   C4B 1489  10.443  10.126   6.227
   89POPC   NC3 1490   0.741   1.910   8.355
   89POPC   PO4 1491   1.373   2.000   8.320
   89POPC   GL1 1492   1.378   2.076   7.891
   89POPC   GL2 1493   1.079   1.865   7.822
   89POPC   C1A 1494   1.453   1.949   7.468
   89POPC   D2A 1495   1.364   2.098   7.094
   89POPC   C3A 1496   1.298   1.941   6.668
   89POPC   C4A 1497   1.424   1.993   6.246
   89POPC   C1B 1498   0.957   2.022   7.409
   89POPC   C2B 1499   0.874   1.940   7.018
   89POPC   C3B 1500   0.774   1.981   6.632
   89POPC   C4B 1501   0.933   1.791   6.294
   90POPC   NC3 1502   8.673   5.110   8.542
   90POPC   PO4 1503   8.288   5.487   8.046
   90POPC   GL1 1504   8.196   5.218   7.642
   90POPC   GL2 1505   8.211   4.875   7.647
   90POPC   C1A 1506   8.306   5.159   7.169
   90POPC   D2A 1507   8.386   4.889   6.778
   90POPC   C3A 1508   8.165   5.034   6.377
   90POPC   C4A 1509   8.092   5.137   5.921
   90POPC   C1B 1510   8.148   4.676   7.209
   90POPC   C2B 1511   7.883   4.814   6.821
   90POPC   C3B 1512   7.667   4.862   6.384
   90POPC   C4B 1513   7.470   4.857   5.947
   91POPC   NC3 1514   5.565   2.189   7.965
   91POPC   PO4 1515   6.078   1.691   7.998
   91POPC   GL1 1516   5.735   1.826   7.665
   91POPC   GL2 1517   5.874   2.176   7.577
   91POPC   C1A 1518   5.554   2.022   7.239
   91POPC   D2A 1519   5.756   2.177   6.860
   91POPC   C3A 1520   5.522   2.193   6.461
   91POPC   C4A 1521   5.506   1.891   6.128
   91POPC   C1B 1522   6.058   1.888   7.292
   91POPC   C2B 1523   6.086   1.785   6.864
   91POPC   C3B 1524   5.919   1.874   6.467
   91POPC   C4B 1525   5.977   1.959   6.006
   92POPC   NC3 1526   1.674   8.029   8.059
   92POPC   PO4 1527   2.276   7.700   8.157
   92POPC   GL1 1528   2.121   7.733   7.690
   92POPC   GL2 1529   1.762   7.774   7.629
   92POPC   C1A 1530   2.052   7.736   7.197
   92POPC   D2A 1531   2.335   7.968   6.897
   92POPC   C3A 1532   2.324   8.015   6.418
   92POPC   C4A 1533   2.034   7.734   6.183
   92POPC   C1B 1534   1.945   8.165   7.447
   92POPC   C2B 1535   1.842   8.183   7.010
   92POPC   C3B 1536   1.857   7.987   6.618
   92POPC   C4B 1537   1.863   8.215   6.234
   93POPC   NC3 1538   9.577   3.658   8.177
   93POPC   PO4 1539   8.862   3.686   8.240
   93POPC   GL1 1540   9.140   3.651   7.866
   93POPC   GL2 1541   9.361   3.351   7.795
   93POPC   C1A 1542   9.227   3.730   7.423
   93POPC   D2A 1543   9.247   3.901   7.019
   93POPC   C3A 1544   9.113   3.679   6.650
   93POPC   C4A 1545   9.165   3.692   6.219
   93POPC   C1B 1546   9.225   3.208   7.367
   93POPC   C2B 1547   9.381   3.379   6.958
   93POPC   C3B 1548   9.517   3.350   6.491
   93POPC   C4B 1549   9.529   3.044   6.137
   94POPC   NC3 1550   0.516   4.411   8.088
   94POPC   PO4 1551   0.314   5.064   8.236
   94POPC   GL1 1552   0.265   4.809   7.809
   94POPC   GL2 1553   0.605   4.765   7.730
   94POPC   C1A 1554   0.324   4.729   7.303
   94POPC   D2A 1555   0.354   4.544   6.854
   94POPC   C3A 1556   0.223   4.746   6.450
   94POPC   C4A 1557   0.183   4.726   5.985
   94POPC   C1B 1558   0.469   5.171   7.498
   94POPC   C2B 1559   0.366   5.178   7.035
   94POPC   C3B 1560   0.313   5.266   6.588
   94POPC   C4B 1561   0.435   5.133   6.145
   95POPC   NC3 1562   1.243   8.665   8.156
   95POPC   PO4 1563   1.595   9.276   7.997
   95POPC   GL1 1564   1.370   8.918   7.728
   95POPC   GL2 1565   1.028   8.678   7.670
   95POPC   C1A 1566   1.267   8.936   7.293
   95POPC   D2A 1567   1.073   8.855   6.898
   95POPC   C3A 1568   1.280   9.020   6.553
   95POPC   C4A 1569   1.306   8.804   6.177
   95POPC   C1B 1570   1.097   8.429   7.248
   95POPC   C2B 1571   1.344   8.343   6.843
   95POPC   C3B 1572   1.281   8.328   6.370
   95POPC   C4B 1573   1.063   8.402   5.953
   96POPC   NC3 1574   6.773   0.731   7.935
   96POPC   PO4 1575   6.125   0.837   8.107
   96POPC   GL1 1576   6.360   0.996   7.770
   96POPC   GL2 1577   6.409   1.335   7.823
   96POPC   C1A 1578   6.429   0.948   7.330
   96POPC   D2A 1579   6.138   0.842   7.002
   96POPC   C3A 1580   6.302   0.911   6.605
   96POPC   C4A 1581   6.090   1.031   6.243
   96POPC   C1B 1582   6.176   1.390   7.416
   96POPC   C2B 1583   6.264   1.334   6.977
   96POPC   C3B 1584   6.292   1.427   6.536
   96POPC   C4B 1585   6.548   1.232   6.216
   97POPC   NC3 1586   3.256   1.759   8.231
   97POPC   PO4 1587   3.809   1.369   8.242
   97POPC   GL1 1588   3.817   1.610   7.807
   97POPC   GL2 1589   3.598   1.916   7.762
   97POPC   C1A 1590   3.685   1.588   7.350
   97POPC   D2A 1591   3.399   1.517   6.991
   97POPC   C3A 1592   3.468   1.649   6.540
   97POPC   C4A 1593   3.260   1.842   6.174
   97POPC   C1B 1594   3.483   2.055   7.336
   97POPC   C2B 1595   3.617   2.014   6.914
   97POPC   C3B 1596   3.526   2.154   6.501
   97POPC   C4B 1597   3.720   2.178   6.112
   98POPC   NC3 1598   6.321   0.549   8.418
   98POPC   PO4 1599   5.748   0.216   8.271
   98POPC   GL1 1600   6.069   0.121   7.885
   98POPC   GL2 1601   6.284   0.434   7.777
   98POPC   C1A 1602   6.159   0.048   7.399
   98POPC   D2A 1603   6.089   0.340   7.003
   98POPC   C3A 1604   6.256   0.388   6.558
   98POPC   C4A 1605   6.179   0.185   6.133
   98POPC   C1B 1606   6.487   0.430   7.351
   98POPC   C2B 1607   6.604   0.559   6.948
   98POPC   C3B 1608   6.751   0.639   6.548
   98POPC   C4B 1609   6.560   0.716   6.184
   99POPC   NC3 1610   1.266   2.589   7.900
   99POPC   PO4 1611   0.735   2.209   7.990
   99POPC   GL1 1612   0.697   2.436   7.597
   99POPC   GL2 1613   0.837   2.759   7.593
   99POPC   C1A 1614   0.753   2.449   7.129
   99POPC   D2A 1615   1.087   2.394   6.802
   99POPC   C3A 1616   1.031   2.331   6.356
   99POPC   C4A 1617   0.865   2.564   5.995
   99POPC   C1B 1618   1.167   2.783   7.290
   99POPC   C2B 1619   1.310   2.855   6.890
   99POPC   C3B 1620   1.084   2.827   6.510
   99POPC   C4B 1621   1.267   2.848   6.126
  100POPC   NC3 1622   1.929   4.029   8.148
  100POPC   PO4 1623   2.302   4.355   7.903
  100POPC   GL1 1624   1.901   4.402   7.679
  100POPC   GL2 1625   1.639   4.138   7.704
  100POPC   C1A 1626   1.683   4.440   7.273
  100POPC   D2A 1627   1.747   4.689   6.895
  100POPC   C3A 1628   1.775   4.437   6.512
  100POPC   C4A 1629   2.113   4.344   6.206
  100POPC   C1B 1630   1.890   3.987   7.363
  100POPC   C2B 1631   1.900   4.040   6.923
  100POPC   C3B 1632   2.051   3.936   6.522
  100POPC   C4B 1633   1.726   4.005   6.234
  101POPC   NC3 1634   8.138   2.655   8.129
  101POPC   PO4 1635   8.159   3.195   7.800
  101POPC   GL1 1636   7.964   2.804   7.648
  101POPC   GL2 1637   8.098   2.428   7.681
  101POPC   C1A 1638   7.842   2.970   7.242
  101POPC   D2A 1639   8.056   3.131   6.880
  101POPC   C3A 1640   7.893   3.060   6.440
  101POPC   C4A 1641   8.120   3.231   6.066
  101POPC   C1B 1642   8.017   2.499   7.237
  101POPC   C2B 1643   8.205   2.629   6.861
  101POPC   C3B 1644   8.089   2.589   6.463
  101POPC   C4B 1645   8.092   2.718   6.071
  102POPC   NC3 1646   1.234   0.349   8.037
  102POPC   PO4 1647   0.601   0.524   8.064
  102POPC   GL1 1648   0.774   0.251   7.705
  102POPC   GL2 1649   1.060   0.392   7.545
  102POPC   C1A 1650   0.846  10.483   7.324
  102POPC   D2A 1651   1.083   0.150   6.953
  102POPC   C3A 1652   0.926  10.474   6.546
  102POPC   C4A 1653   0.731   0.178   6.200
  102POPC   C1B 1654   1.409   0.582   7.316
  102POPC   C2B 1655   1.518   0.596   6.870
  102POPC   C3B 1656   1.328   0.363   6.525
  102POPC   C4B 1657   1.212   0.340   6.088
  103POPC   NC3 1658  10.378   4.962   8.133
  103POPC   PO4 1659   9.728   4.807   8.243
  103POPC   GL1 1660   9.982   4.767   7.852
  103POPC   GL2 1661  10.051   5.078   7.749
  103POPC   C1A 1662   9.964   4.734   7.390
  103POPC   D2A 1663   9.933   4.988   6.999
  103POPC   C3A 1664   9.817   4.759   6.617
  103POPC   C4A 1665   9.916   4.973   6.227
  103POPC   C1B 1666  10.409   4.971   7.464
  103POPC   C2B 1667  10.438   4.877   7.008
  103POPC   C3B 1668  10.292   4.970   6.606
  103POPC   C4B 1669  10.440   5.106   6.226
  104POPC   NC3 1670  10.251   7.177   7.902
  104POPC   PO4 1671   0.272   6.830   8.143
  104POPC   GL1 1672  10.492   6.717   7.753
  104POPC   GL2 1673  10.145   6.844   7.543
  104POPC   C1A 1674   0.084   6.811   7.320
  104POPC   D2A 1675  10.239   6.844   7.025
  104POPC   C3A 1676  10.339   6.879   6.616
  104POPC   C4A 1677  10.077   6.815   6.357
  104POPC   C1B 1678  10.262   7.273   7.286
  104POPC   C2B 1679  10.279   7.518   6.919
  104POPC   C3B 1680  10.378   7.418   6.512
  104POPC   C4B 1681  10.114   7.370   6.188
  105POPC   NC3 1682   8.358   5.938   8.065
  105POPC   PO4 1683   8.308   6.614   8.062
  105POPC   GL1 1684   8.264   6.490   7.628
  105POPC   GL2 1685   8.046   6.217   7.692
  105POPC   C1A 1686   8.219   6.338   7.196
  105POPC   D2A 1687   8.348   6.304   6.798
  105POPC   C3A 1688   8.136   6.449   6.464
  105POPC   C4A 1689   8.286   6.149   6.184
  105POPC   C1B 1690   7.775   6.479   7.386
  105POPC   C2B 1691   7.811   6.502   6.897
  105POPC   C3B 1692   7.667   6.269   6.514
  105POPC   C4B 1693   7.793   6.108   6.120
  106POPC   NC3 1694   1.789   1.850   8.136
  106POPC   PO4 1695   1.734   2.514   7.964
  106POPC   GL1 1696   1.820   2.232   7.628
  106POPC   GL2 1697   1.939   1.864   7.640
  106POPC   C1A 1698   1.883   2.077   7.171
  106POPC   D2A 1699   2.087   2.035   6.752
  106POPC   C3A 1700   1.901   2.145   6.353
  106POPC   C4A 1701   1.827   2.220   5.927
  106POPC   C1B 1702   1.756   1.577   7.303
  106POPC   C2B 1703   1.688   1.677   6.865
  106POPC   C3B 1704   1.855   1.626   6.454
  106POPC   C4B 1705   2.231   1.758   6.223
  107POPC   NC3 1706   9.465   6.323   8.261
  107POPC   PO4 1707   8.817   6.252   8.149
  107POPC   GL1 1708   9.197   6.286   7.823
  107POPC   GL2 1709   9.407   6.601   7.805
  107POPC   C1A 1710   9.354   6.302   7.366
  107POPC   D2A 1711   9.121   6.401   6.976
  107POPC   C3A 1712   9.220   6.389   6.532
  107POPC   C4A 1713   9.373   6.459   6.110
  107POPC   C1B 1714   9.646   6.707   7.419
  107POPC   C2B 1715   9.567   6.618   6.984
  107POPC   C3B 1716   9.541   6.820   6.582
  107POPC   C4B 1717   9.630   6.888   6.160
  108POPC   NC3 1718   2.198   2.640   8.066
  108POPC   PO4 1719   2.874   2.394   8.080
  108POPC   GL1 1720   2.878   2.572   7.658
  108POPC   GL2 1721   2.525   2.653   7.628
  108POPC   C1A 1722   2.805   2.429   7.248
  108POPC   D2A 1723   2.567   2.407   6.913
  108POPC   C3A 1724   2.598   2.693   6.645
  108POPC   C4A 1725   2.841   2.530   6.345
  108POPC   C1B 1726   2.461   2.830   7.179
  108POPC   C2B 1727   2.270   3.049   6.857
  108POPC   C3B 1728   2.268   3.051   6.413
  108POPC   C4B 1729   2.675   3.000   6.213
  109POPC   NC3 1730   6.630  10.384   8.029
  109POPC   PO4 1731   6.626   9.708   8.023
  109POPC   GL1 1732   6.515   9.835   7.626
  109POPC   GL2 1733   6.834   9.959   7.587
  109POPC   C1A 1734   6.297   9.991   7.259
  109POPC   D2A 1735   6.443  10.008   6.832
  109POPC   C3A 1736   6.241   9.814   6.446
  109POPC   C4A 1737   6.268   9.779   5.938
  109POPC   C1B 1738   6.675  10.339   7.339
  109POPC   C2B 1739   6.495   0.026   6.935
  109POPC   C3B 1740   6.313  10.376   6.527
  109POPC   C4B 1741   6.547  10.149   6.194
  110POPC   NC3 1742   2.058   5.539   7.954
  110POPC   PO4 1743   1.665   5.972   8.260
  110POPC   GL1 1744   1.591   5.783   7.813
  110POPC   GL2 1745   1.892   5.876   7.628
  110POPC   C1A 1746   1.568   5.647   7.338
  110POPC   D2A 1747   1.748   5.869   6.949
  110POPC   C3A 1748   1.595   5.746   6.541
  110POPC   C4A 1749   1.626   5.577   6.109
  110POPC   C1B 1750   2.057   5.598   7.281
  110POPC   C2B 1751   2.133   5.465   6.880
  110POPC   C3B 1752   2.004   5.477   6.472
  110POPC   C4B 1753   2.117   5.464   6.066
  111POPC   NC3 1754   0.757   3.445   7.995
  111POPC   PO4 1755   0.181   3.039   8.064
  111POPC   GL1 1756   0.421   3.151   7.711
  111POPC   GL2 1757   0.373   3.535   7.679
  111POPC   C1A 1758   0.693   3.260   7.367
  111POPC   D2A 1759   0.647   3.549   7.015
  111POPC   C3A 1760   0.731   3.342   6.633
  111POPC   C4A 1761   0.557   3.357   6.190
  111POPC   C1B 1762   0.201   3.433   7.286
  111POPC   C2B 1763   0.039   3.618   6.915
  111POPC   C3B 1764   0.287   3.591   6.563
  111POPC   C4B 1765   0.389   3.849   6.205
  112POPC   NC3 1766   6.442   2.662   8.041
  112POPC   PO4 1767   6.920   3.043   7.965
  112POPC   GL1 1768   6.685   2.897   7.602
  112POPC   GL2 1769   6.708   2.550   7.632
  112POPC   C1A 1770   6.388   3.034   7.251
  112POPC   D2A 1771   6.388   3.161   6.790
  112POPC   C3A 1772   6.693   3.002   6.454
  112POPC   C4A 1773   6.738   3.035   5.989
  112POPC   C1B 1774   6.535   2.539   7.233
  112POPC   C2B 1775   6.575   2.681   6.827
  112POPC   C3B 1776   6.238   2.730   6.525
  112POPC   C4B 1777   6.006   2.375   6.311
  113POPC   NC3 1778  10.106   8.944   8.037
  113POPC   PO4 1779  10.055   8.271   8.091
  113POPC   GL1 1780  10.145   8.458   7.684
  113POPC   GL2 1781   9.952   8.754   7.574
  113POPC   C1A 1782  10.067   8.307   7.257
  113POPC   D2A 1783   9.797   8.436   6.935
  113POPC   C3A 1784   9.909   8.356   6.543
  113POPC   C4A 1785   9.931   8.697   6.275
  113POPC   C1B 1786  10.193   8.803   7.194
  113POPC   C2B 1787  10.253   8.686   6.760
  113POPC   C3B 1788  10.357   8.935   6.398
  113POPC   C4B 1789   0.004   9.262   6.167
  114POPC   NC3 1790  10.177   3.011   8.061
  114POPC   PO4 1791  10.040   3.763   8.001
  114POPC   GL1 1792  10.018   3.407   7.767
  114POPC   GL2 1793  10.384   3.351   7.706
  114POPC   C1A 1794   9.730   3.262   7.418
  114POPC   D2A 1795   9.735   3.024   7.017
  114POPC   C3A 1796   9.915   3.001   6.586
  114POPC   C4A 1797   9.971   3.263   6.209
  114POPC   C1B 1798  10.184   3.442   7.279
  114POPC   C2B 1799  10.003   3.438   6.856
  114POPC   C3B 1800  10.078   3.674   6.473
  114POPC   C4B 1801  10.425   3.653   6.200
  115POPC   NC3 1802   7.296   0.448   8.196
  115POPC   PO4 1803   6.634   0.349   8.153
  115POPC   GL1 1804   6.818   0.290   7.704
  115POPC   GL2 1805   7.178   0.475   7.691
  115POPC   C1A 1806   6.983   0.257   7.280
  115POPC   D2A 1807   7.138   0.432   6.909
  115POPC   C3A 1808   7.009   0.207   6.572
  115POPC   C4A 1809   6.662   0.153   6.305
  115POPC   C1B 1810   7.369   0.686   7.312
  115POPC   C2B 1811   7.308   0.910   6.884
  115POPC   C3B 1812   7.274   0.698   6.485
  115POPC   C4B 1813   7.448   0.322   6.341
  116POPC   NC3 1814   9.237  10.224   8.217
  116POPC   PO4 1815   9.448   0.390   8.093
  116POPC   GL1 1816   9.470   0.047   7.752
  116POPC   GL2 1817   9.446  10.168   7.772
  116POPC   C1A 1818   9.265  10.401   7.359
  116POPC   D2A 1819   9.205  10.060   7.058
  116POPC   C3A 1820   9.152  10.223   6.627
  116POPC   C4A 1821   9.378  10.279   6.272
  116POPC   C1B 1822   9.623   9.960   7.420
  116POPC   C2B 1823   9.749   9.926   6.984
  116POPC   C3B 1824   9.569   9.900   6.562
  116POPC   C4B 1825   9.766   9.942   6.158
  117POPC   NC3 1826   7.507   1.180   7.970
  117POPC   PO4 1827   8.190   1.456   7.968
  117POPC   GL1 1828   8.046   1.256   7.568
  117POPC   GL2 1829   7.788   0.985   7.591
  117POPC   C1A 1830   8.255   0.964   7.280
  117POPC   D2A 1831   8.376   0.931   6.843
  117POPC   C3A 1832   8.091   1.154   6.588
  117POPC   C4A 1833   7.946   1.496   6.341
  117POPC   C1B 1834   7.571   1.157   7.271
  117POPC   C2B 1835   7.653   1.303   6.849
  117POPC   C3B 1836   7.587   1.114   6.464
  117POPC   C4B 1837   7.708   1.128   6.046
  118POPC   NC3 1838   9.399   9.236   8.031
  118POPC   PO4 1839   9.082   9.812   8.041
  118POPC   GL1 1840   9.323   9.643   7.685
  118POPC   GL2 1841   9.682   9.491   7.658
  118POPC   C1A 1842   9.373   9.552   7.241
  118POPC   D2A 1843   9.489   9.470   6.828
  118POPC   C3A 1844   9.137   9.476   6.524
  118POPC   C4A 1845   9.116   9.847   6.249
  118POPC   C1B 1846   9.737   9.159   7.314
  118POPC   C2B 1847   9.782   8.970   6.875
  118POPC   C3B 1848   9.607   9.124   6.474
  118POPC   C4B 1849   9.534   9.490   6.194
  119POPC   NC3 1850   0.349   5.514   8.113
  119POPC   PO4 1851   0.698   6.039   8.013
  119POPC   GL1 1852   0.629   5.740   7.710
  119POPC   GL2 1853   0.261   5.740   7.676
  119POPC   C1A 1854   0.603   5.783   7.276
  119POPC   D2A 1855   0.816   5.889   6.921
  119POPC   C3A 1856   0.590   5.770   6.563
  119POPC   C4A 1857   0.618   5.832   6.152
  119POPC   C1B 1858   0.142   5.555   7.305
  119POPC   C2B 1859   0.245   5.694   6.920
  119POPC   C3B 1860   0.040   5.729   6.560
  119POPC   C4B 1861   0.151   5.566   6.206
  120POPC   NC3 1862   4.227   1.539   8.323
  120POPC   PO4 1863   4.390   2.177   8.141
  120POPC   GL1 1864   4.277   1.928   7.758
  120POPC   GL2 1865   4.385   1.569   7.816
  120POPC   C1A 1866   4.006   2.018   7.377
  120POPC   D2A 1867   4.106   2.231   6.938
  120POPC   C3A 1868   4.065   2.077   6.502
  120POPC   C4A 1869   4.210   2.027   6.046
  120POPC   C1B 1870   4.194   1.544   7.398
  120POPC   C2B 1871   4.024   1.702   6.983
  120POPC   C3B 1872   3.991   1.585   6.564
  120POPC   C4B 1873   3.851   1.684   6.151
  121POPC   NC3 1874   2.191   9.566   8.012
  121POPC   PO4 1875   1.579   9.840   8.046
  121POPC   GL1 1876   1.821   9.681   7.660
  121POPC   GL2 1877   2.181   9.731   7.517
  121POPC   C1A 1878   1.861   9.575   7.178
  121POPC   D2A 1879   2.062   9.624   6.780
  121POPC   C3A 1880   1.898   9.468   6.414
  121POPC   C4A 1881   1.631   9.201   6.172
  121POPC   C1B 1882   2.179   9.282   7.438
  121POPC   C2B 1883   2.114   9.134   7.028
  121POPC   C3B 1884   2.293   9.167   6.620
  121POPC   C4B 1885   2.131   9.076   6.197
  122POPC   NC3 1886   8.706   1.584   8.027
  122POPC   PO4 1887   8.402   2.245   8.184
  122POPC   GL1 1888   8.496   2.031   7.791
  122POPC   GL2 1889   8.868   2.009   7.764
  122POPC   C1A 1890   8.400   1.769   7.398
  122POPC   D2A 1891   8.335   1.458   7.038
  122POPC   C3A 1892   8.368   1.706   6.668
  122POPC   C4A 1893   8.390   1.747   6.223
  122POPC   C1B 1894   8.746   2.150   7.342
  122POPC   C2B 1895   8.755   1.971   6.907
  122POPC   C3B 1896   8.759   2.072   6.441
  122POPC   C4B 1897   8.809   2.327   6.019
  123POPC   NC3 1898   8.630   9.840   7.971
  123POPC   PO4 1899   8.795  10.385   8.301
  123POPC   GL1 1900   8.920  10.390   7.824
  123POPC   GL2 1901   8.959  10.066   7.618
  123POPC   C1A 1902   8.712  10.475   7.400
  123POPC   D2A 1903   8.463   0.005   7.009
  123POPC   C3A 1904   8.694   0.056   6.628
  123POPC   C4A 1905   8.880   0.039   6.233
  123POPC   C1B 1906   8.681   9.984   7.259
  123POPC   C2B 1907   8.718  10.084   6.830
  123POPC   C3B 1908   8.672  10.088   6.378
  123POPC   C4B 1909   8.325   9.936   6.147
  124POPC   NC3 1910   1.871   3.192   7.913
  124POPC   PO4 1911   1.553   3.740   8.149
  124POPC   GL1 1912   1.779   3.636   7.722
  124POPC   GL2 1913   1.635   3.328   7.504
  124POPC   C1A 1914   2.062   3.515   7.343
  124POPC   D2A 1915   2.226   3.592   6.944
  124POPC   C3A 1916   2.000   3.420   6.624
  124POPC   C4A 1917   1.935   3.539   6.204
  124POPC   C1B 1918   1.849   3.056   7.174
  124POPC   C2B 1919   1.787   2.922   6.729
  124POPC   C3B 1920   1.663   3.125   6.340
  124POPC   C4B 1921   1.922   3.103   5.950
  125POPC   NC3 1922   4.835   2.064   8.030
  125POPC   PO4 1923   5.260   2.413   7.708
  125POPC   GL1 1924   5.177   1.996   7.619
  125POPC   GL2 1925   4.796   2.006   7.522
  125POPC   C1A 1926   5.205   1.679   7.342
  125POPC   D2A 1927   4.976   1.957   7.037
  125POPC   C3A 1928   5.087   1.935   6.615
  125POPC   C4A 1929   5.033   1.838   6.203
  125POPC   C1B 1930   4.474   1.953   7.182
  125POPC   C2B 1931   4.463   1.803   6.755
  125POPC   C3B 1932   4.576   1.961   6.379
  125POPC   C4B 1933   4.833   2.317   6.269
  126POPC   NC3 1934   2.817   9.326   8.188
  126POPC   PO4 1935   2.458   9.808   8.321
  126POPC   GL1 1936   2.641   9.692   7.846
  126POPC   GL2 1937   2.829   9.406   7.699
  126POPC   C1A 1938   2.667   9.784   7.380
  126POPC   D2A 1939   2.505   9.502   7.054
  126POPC   C3A 1940   2.664   9.540   6.640
  126POPC   C4A 1941   2.417   9.521   6.279
  126POPC   C1B 1942   2.997   9.402   7.305
  126POPC   C2B 1943   2.935   9.202   6.939
  126POPC   C3B 1944   3.084   9.243   6.542
  126POPC   C4B 1945   2.876   9.314   6.172
  127POPC   NC3 1946   7.367   2.036   8.075
  127POPC   PO4 1947   6.790   2.336   8.103
  127POPC   GL1 1948   7.049   2.182   7.719
  127POPC   GL2 1949   7.015   1.816   7.742
  127POPC   C1A 1950   7.429   2.100   7.400
  127POPC   D2A 1951   7.686   2.178   6.978
  127POPC   C3A 1952   7.473   2.299   6.593
  127POPC   C4A 1953   7.318   2.247   6.166
  127POPC   C1B 1954   6.980   1.882   7.286
  127POPC   C2B 1955   7.240   1.911   6.923
  127POPC   C3B 1956   7.086   1.942   6.502
  127POPC   C4B 1957   6.843   1.630   6.293
  128POPC   NC3 1958   3.462   0.248   8.060
  128POPC   PO4 1959   3.086   0.751   7.935
  128POPC   GL1 1960   3.100   0.334   7.667
  128POPC   GL2 1961   3.419   0.147   7.566
  128POPC   C1A 1962   3.090   0.164   7.197
  128POPC   D2A 1963   3.417   0.186   6.852
  128POPC   C3A 1964   3.240   0.284   6.435
  128POPC   C4A 1965   3.025   0.191   6.049
  128POPC   C1B 1966   3.424   0.537   7.281
  128POPC   C2B 1967   3.476   0.824   6.905
  128POPC   C3B 1968   3.591   0.675   6.535
  128POPC   C4B 1969   3.417   0.753   6.193
  129POPC   NC3 1970   8.079   0.990   8.018
  129POPC   PO4 1971   8.701   0.759   8.068
  129POPC   GL1 1972   8.644   1.072   7.730
  129POPC   GL2 1973   8.908   0.898   7.567
  129POPC   C1A 1974   8.718   1.384   7.376
  129POPC   D2A 1975   8.845   1.467   6.906
  129POPC   C3A 1976   8.596   1.288   6.544
  129POPC   C4A 1977   8.482   0.898   6.327
  129POPC   C1B 1978   8.781   0.938   7.154
  129POPC   C2B 1979   8.935   0.983   6.750
  129POPC   C3B 1980   8.971   1.026   6.300
  129POPC   C4B 1981   9.178   0.993   5.922
  130POPC   NC3 1982   8.274   7.894   8.269
  130POPC   PO4 1983   7.641   7.835   8.028
  130POPC   GL1 1984   7.773   8.078   7.691
  130POPC   GL2 1985   8.123   7.907   7.677
  130POPC   C1A 1986   7.604   8.302   7.323
  130POPC   D2A 1987   7.625   8.064   6.901
  130POPC   C3A 1988   7.453   8.083   6.469
  130POPC   C4A 1989   7.430   8.480   6.257
  130POPC   C1B 1990   7.983   7.861   7.231
  130POPC   C2B 1991   7.834   7.599   6.873
  130POPC   C3B 1992   7.857   7.623   6.431
  130POPC   C4B 1993   8.151   7.885   6.280
  131POPC   NC3 1994   7.201   7.728   8.028
  131POPC   PO4 1995   7.236   8.387   8.140
  131POPC   GL1 1996   7.257   8.166   7.746
  131POPC   GL2 1997   6.868   8.194   7.823
  131POPC   C1A 1998   7.397   7.853   7.355
  131POPC   D2A 1999   7.207   7.771   6.922
  131POPC   C3A 2000   7.349   7.583   6.516
  131POPC   C4A 2001   7.454   7.686   6.077
  131POPC   C1B 2002   6.914   7.951   7.436
  131POPC   C2B 2003   6.725   7.942   7.039
  131POPC   C3B 2004   6.849   7.977   6.613
  131POPC   C4B 2005   6.987   7.833   6.224
  132POPC   NC3 2006   0.239   0.802   8.103
  132POPC   PO4 2007  10.419   0.187   7.919
  132POPC   GL1 2008   0.281   0.357   7.661
  132POPC   GL2 2009   0.442   0.706   7.633
  132POPC   C1A 2010   0.524   0.390   7.245
  132POPC   D2A 2011   0.480   0.729   6.933
  132POPC   C3A 2012   0.390   0.582   6.509
  132POPC   C4A 2013   0.332   0.641   6.100
  132POPC   C1B 2014   0.768   0.847   7.379
  132POPC   C2B 2015   0.994   0.685   7.015
  132POPC   C3B 2016   0.868   0.512   6.627
  132POPC   C4B 2017   0.836   0.685   6.217
  133POPC   NC3 2018   4.207   8.076   8.109
  133POPC   PO4 2019   3.806   7.661   8.113
  133POPC   GL1 2020   3.896   7.884   7.705
  133POPC   GL2 2021   4.259   7.890   7.648
  133POPC   C1A 2022   3.944   7.930   7.222
  133POPC   D2A 2023   3.897   8.135   6.786
  133POPC   C3A 2024   3.974   7.902   6.362
  133POPC   C4A 2025   3.664   7.660   6.080
  133POPC   C1B 2026   4.426   8.120   7.299
  133POPC   C2B 2027   4.374   7.960   6.894
  133POPC   C3B 2028   4.551   7.945   6.503
  133POPC   C4B 2029   4.442   8.042   6.124
  134POPC   NC3 2030   8.539   8.540   8.087
  134POPC   PO4 2031   9.137   8.069   8.136
  134POPC   GL1 2032   9.024   8.290   7.734
  134POPC   GL2 2033   8.750   8.515   7.651
  134POPC   C1A 2034   9.098   8.405   7.325
  134POPC   D2A 2035   8.861   8.707   7.121
  134POPC   C3A 2036   8.758   8.601   6.702
  134POPC   C4A 2037   9.024   8.435   6.375
  134POPC   C1B 2038   8.420   8.723   7.446
  134POPC   C2B 2039   8.341   8.745   7.011
  134POPC   C3B 2040   8.258   8.726   6.569
  134POPC   C4B 2041   8.553   8.680   6.218
  135POPC   NC3 2042   0.415   0.006   8.044
  135POPC   PO4 2043   0.137   9.876   8.200
  135POPC   GL1 2044   0.328  10.050   7.766
  135POPC   GL2 2045   0.694  10.165   7.722
  135POPC   C1A 2046   0.327  10.392   7.404
  135POPC   D2A 2047   0.148   0.072   7.013
  135POPC   C3A 2048   0.375   0.072   6.596
  135POPC   C4A 2049   0.263   0.008   6.150
  135POPC   C1B 2050   0.572   9.965   7.294
  135POPC   C2B 2051   0.500  10.172   6.907
  135POPC   C3B 2052   0.495  10.061   6.471
  135POPC   C4B 2053   0.657  10.160   6.077
  136POPC   NC3 2054   9.810   1.130   8.276
  136POPC   PO4 2055  10.023   1.751   8.244
  136POPC   GL1 2056   9.769   1.468   7.895
  136POPC   GL2 2057   9.969   1.282   7.668
  136POPC   C1A 2058   9.657   1.538   7.380
  136POPC   D2A 2059   9.912   1.385   6.993
  136POPC   C3A 2060   9.782   1.548   6.596
  136POPC   C4A 2061   9.982   1.594   6.203
  136POPC   C1B 2062  10.241   1.130   7.332
  136POPC   C2B 2063  10.216   0.957   6.925
  136POPC   C3B 2064  10.214   1.191   6.556
  136POPC   C4B 2065  10.131   1.077   6.146
  137POPC   NC3 2066   0.586   6.478   7.998
  137POPC   PO4 2067   0.029   6.014   8.108
  137POPC   GL1 2068   0.196   6.237   7.714
  137POPC   GL2 2069   0.527   6.228   7.569
  137POPC   C1A 2070   0.186   6.087   7.253
  137POPC   D2A 2071   0.430   6.189   6.895
  137POPC   C3A 2072   0.275   6.163   6.512
  137POPC   C4A 2073   0.128   6.073   6.118
  137POPC   C1B 2074   0.792   6.303   7.235
  137POPC   C2B 2075   0.887   6.454   6.835
  137POPC   C3B 2076   0.780   6.270   6.485
  137POPC   C4B 2077   0.552   6.350   6.127
  138POPC   NC3 2078   9.200   0.814   7.989
  138POPC   PO4 2079   9.174   1.520   8.134
  138POPC   GL1 2080   9.109   1.345   7.717
  138POPC   GL2 2081   9.409   1.175   7.660
  138POPC   C1A 2082   9.188   1.284   7.242
  138POPC   D2A 2083   9.438   1.215   6.919
  138POPC   C3A 2084   9.319   1.305   6.534
  138POPC   C4A 2085   9.442   1.517   6.175
  138POPC   C1B 2086   9.701   1.031   7.323
  138POPC   C2B 2087   9.738   0.804   6.972
  138POPC   C3B 2088   9.757   0.987   6.574
  138POPC   C4B 2089   9.639   1.065   6.144
  139POPC   NC3 2090   2.162  10.482   8.015
  139POPC   PO4 2091   2.328   0.740   8.096
  139POPC   GL1 2092   2.117   0.554   7.748
  139POPC   GL2 2093   1.726   0.514   7.750
  139POPC   C1A 2094   2.214   0.672   7.344
  139POPC   D2A 2095   2.026   0.505   6.999
  139POPC   C3A 2096   1.989   0.736   6.649
  139POPC   C4A 2097   2.083   0.543   6.274
  139POPC   C1B 2098   1.786   0.265   7.417
  139POPC   C2B 2099   1.675   0.120   7.009
  139POPC   C3B 2100   1.828   0.224   6.602
  139POPC   C4B 2101   1.708   0.216   6.182
  140POPC   NC3 2102   5.292   9.501   8.317
  140POPC   PO4 2103   4.787   9.060   8.077
  140POPC   GL1 2104   4.790   9.249   7.705
  140POPC   GL2 2105   5.018   9.474   7.633
  140POPC   C1A 2106   4.911   9.105   7.300
  140POPC   D2A 2107   4.708   9.175   6.957
  140POPC   C3A 2108   4.866   9.167   6.591
  140POPC   C4A 2109   4.748   8.926   6.274
  140POPC   C1B 2110   4.816   9.607   7.253
  140POPC   C2B 2111   4.737   9.682   6.803
  140POPC   C3B 2112   4.804   9.632   6.388
  140POPC   C4B 2113   4.955   9.508   5.981
  141POPC   NC3 2114   9.585   1.880   8.189
  141POPC   PO4 2115   9.178   2.365   8.102
  141POPC   GL1 2116   9.373   2.101   7.780
  141POPC   GL2 2117   9.378   1.772   7.739
  141POPC   C1A 2118   9.562   2.054   7.348
  141POPC   D2A 2119   9.800   1.937   6.968
  141POPC   C3A 2120   9.684   2.125   6.581
  141POPC   C4A 2121   9.643   2.009   6.170
  141POPC   C1B 2122   9.126   1.778   7.368
  141POPC   C2B 2123   9.306   1.732   6.955
  141POPC   C3B 2124   9.245   1.845   6.527
  141POPC   C4B 2125   9.084   1.871   6.089
  142POPC   NC3 2126  10.268   2.094   8.450
  142POPC   PO4 2127  10.174   2.547   7.989
  142POPC   GL1 2128  10.118   2.652   7.593
  142POPC   GL2 2129  10.095   2.953   7.560
  142POPC   C1A 2130  10.103   2.685   7.134
  142POPC   D2A 2131   9.813   2.537   6.862
  142POPC   C3A 2132  10.107   2.494   6.546
  142POPC   C4A 2133  10.079   2.305   6.177
  142POPC   C1B 2134  10.449   2.990   7.338
  142POPC   C2B 2135  10.426   3.130   6.934
  142POPC   C3B 2136  10.370   3.259   6.537
  142POPC   C4B 2137  10.349   2.896   6.310
  143POPC   NC3 2138   4.501   9.511   8.093
  143POPC   PO4 2139   3.932   9.190   8.006
  143POPC   GL1 2140   4.245   9.236   7.728
  143POPC   GL2 2141   4.126   9.565   7.684
  143POPC   C1A 2142   4.423   9.305   7.357
  143POPC   D2A 2143   4.318   9.505   7.002
  143POPC   C3A 2144   4.393   9.333   6.586
  143POPC   C4A 2145   4.423   9.431   6.144
  143POPC   C1B 2146   3.915   9.357   7.289
  143POPC   C2B 2147   3.894   9.328   6.811
  143POPC   C3B 2148   3.931   9.362   6.392
  143POPC   C4B 2149   3.996   9.690   6.187
  144POPC   NC3 2150   4.911   8.599   8.113
  144POPC   PO4 2151   5.481   8.759   7.976
  144POPC   GL1 2152   5.149   8.777   7.645
  144POPC   GL2 2153   4.779   8.741   7.652
  144POPC   C1A 2154   5.236   8.736   7.215
  144POPC   D2A 2155   5.353   8.995   6.907
  144POPC   C3A 2156   5.231   8.830   6.543
  144POPC   C4A 2157   5.169   8.522   6.255
  144POPC   C1B 2158   4.796   8.501   7.263
  144POPC   C2B 2159   4.783   8.680   6.830
  144POPC   C3B 2160   4.686   8.452   6.446
  144POPC   C4B 2161   4.524   8.534   6.036
  145POPC   NC3 2162   8.716   4.122   8.301
  145POPC   PO4 2163   8.391   4.604   8.073
  145POPC   GL1 2164   8.416   4.416   7.647
  145POPC   GL2 2165   8.729   4.357   7.472
  145POPC   C1A 2166   8.302   4.162   7.276
  145POPC   D2A 2167   8.293   4.295   6.876
  145POPC   C3A 2168   8.260   4.050   6.516
  145POPC   C4A 2169   8.144   4.174   6.080
  145POPC   C1B 2170   8.800   4.038   7.207
  145POPC   C2B 2171   8.685   3.945   6.817
  145POPC   C3B 2172   8.727   3.892   6.396
  145POPC   C4B 2173   8.706   4.198   6.136
  146POPC   NC3 2174   7.139   2.675   8.092
  146POPC   PO4 2175   7.722   2.335   8.060
  146POPC   GL1 2176   7.513   2.508   7.682
  146POPC   GL2 2177   7.192   2.693   7.593
  146POPC   C1A 2178   7.507   2.582   7.221
  146POPC   D2A 2179   7.701   2.701   6.836
  146POPC   C3A 2180   7.420   2.818   6.535
  146POPC   C4A 2181   7.587   2.678   6.198
  146POPC   C1B 2182   7.027   2.399   7.265
  146POPC   C2B 2183   6.863   2.254   6.888
  146POPC   C3B 2184   6.980   2.440   6.541
  146POPC   C4B 2185   7.030   2.673   6.224
  147POPC   NC3 2186   4.926  10.374   7.915
  147POPC   PO4 2187   4.904   9.764   8.217
  147POPC   GL1 2188   5.141   9.902   7.855
  147POPC   GL2 2189   4.891   9.982   7.600
  147POPC   C1A 2190   5.291   9.829   7.373
  147POPC   D2A 2191   5.068   9.986   7.015
  147POPC   C3A 2192   5.202   9.869   6.594
  147POPC   C4A 2193   5.029  10.036   6.196
  147POPC   C1B 2194   4.746  10.288   7.304
  147POPC   C2B 2195   4.571  10.333   6.933
  147POPC   C3B 2196   4.702  10.180   6.571
  147POPC   C4B 2197   4.688  10.426   6.212
  148POPC   NC3 2198   8.633   0.312   8.206
  148POPC   PO4 2199   7.985   0.061   8.041
  148POPC   GL1 2200   8.401   0.242   7.755
  148POPC   GL2 2201   8.755   0.393   7.711
  148POPC   C1A 2202   8.379   0.432   7.313
  148POPC   D2A 2203   8.177   0.473   6.882
  148POPC   C3A 2204   8.350   0.435   6.490
  148POPC   C4A 2205   8.353   0.097   6.219
  148POPC   C1B 2206   8.886   0.441   7.278
  148POPC   C2B 2207   8.706   0.503   6.887
  148POPC   C3B 2208   8.859   0.538   6.491
  148POPC   C4B 2209   8.986   0.554   6.097
  149POPC   NC3 2210   4.277   8.844   8.049
  149POPC   PO4 2211   4.617   8.259   8.071
  149POPC   GL1 2212   4.342   8.472   7.677
  149POPC   GL2 2213   4.032   8.741   7.607
  149POPC   C1A 2214   4.410   8.800   7.302
  149POPC   D2A 2215   4.221   8.977   6.953
  149POPC   C3A 2216   4.292   8.846   6.514
  149POPC   C4A 2217   4.251   8.968   6.074
  149POPC   C1B 2218   4.039   8.451   7.242
  149POPC   C2B 2219   4.302   8.459   6.863
  149POPC   C3B 2220   4.182   8.366   6.420
  149POPC   C4B 2221   4.027   8.526   6.014
  150POPC   NC3 2222   9.771  10.251   4.093
  150POPC   PO4 2223   9.151  10.292   3.714
  150POPC   GL1 2224   9.304   9.956   4.192
  150POPC   GL2 2225   9.523  10.067   4.478
  150POPC   C1A 2226   9.066  10.124   4.658
  150POPC   D2A 2227   9.032  10.379   5.065
  150POPC   C3A 2228   9.223  10.225   5.453
  150POPC   C4A 2229   9.075  10.210   5.868
  150POPC   C1B 2230   9.802  10.200   4.795
  150POPC   C2B 2231   9.875  10.068   5.201
  150POPC   C3B 2232   9.898  10.363   5.550
  150POPC   C4B 2233   9.595  10.314   5.829
  151POPC   NC3 2234   6.360   9.823   3.926
  151POPC   PO4 2235   6.845  10.030   3.703
  151POPC   GL1 2236   6.765   9.993   4.156
  151POPC   GL2 2237   6.514  10.267   4.176
  151POPC   C1A 2238   6.496   9.888   4.561
  151POPC   D2A 2239   6.286  10.001   4.951
  151POPC   C3A 2240   6.562   9.944   5.295
  151POPC   C4A 2241   6.702   9.948   5.723
  151POPC   C1B 2242   6.270  10.363   4.562
  151POPC   C2B 2243   6.242   0.032   4.967
  151POPC   C3B 2244   6.323  10.394   5.345
  151POPC   C4B 2245   6.323  10.305   5.770
  152POPC   NC3 2246   0.787   9.545   4.056
  152POPC   PO4 2247   1.286   9.137   3.934
  152POPC   GL1 2248   1.265   9.361   4.297
  152POPC   GL2 2249   1.570   9.608   4.223
  152POPC   C1A 2250   1.000   9.220   4.670
  152POPC   D2A 2251   1.027   9.004   5.078
  152POPC   C3A 2252   0.806   9.141   5.454
  152POPC   C4A 2253   1.001   9.369   5.788
  152POPC   C1B 2254   1.484   9.705   4.635
  152POPC   C2B 2255   1.388   9.395   4.945
  152POPC   C3B 2256   1.290   9.352   5.363
  152POPC   C4B 2257   1.513   9.506   5.742
  153POPC   NC3 2258   1.421  10.263   3.927
  153POPC   PO4 2259   0.844   9.916   3.696
  153POPC   GL1 2260   0.927  10.071   4.144
  153POPC   GL2 2261   1.155   9.872   4.228
  153POPC   C1A 2262   1.145  10.219   4.578
  153POPC   D2A 2263   0.897  10.295   4.937
  153POPC   C3A 2264   0.911  10.268   5.413
  153POPC   C4A 2265   1.020  10.432   5.829
  153POPC   C1B 2266   0.969   9.746   4.645
  153POPC   C2B 2267   1.102   9.830   5.056
  153POPC   C3B 2268   1.169   9.828   5.489
  153POPC   C4B 2269   1.507  10.054   5.674
  154POPC   NC3 2270   1.163   1.384   3.917
  154POPC   PO4 2271   1.640   0.875   3.963
  154POPC   GL1 2272   1.547   1.216   4.241
  154POPC   GL2 2273   1.221   1.136   4.382
  154POPC   C1A 2274   1.572   1.403   4.671
  154POPC   D2A 2275   1.331   1.464   5.066
  154POPC   C3A 2276   1.551   1.481   5.492
  154POPC   C4A 2277   1.582   1.268   5.912
  154POPC   C1B 2278   0.878   1.346   4.604
  154POPC   C2B 2279   0.789   1.419   5.041
  154POPC   C3B 2280   0.858   1.175   5.387
  154POPC   C4B 2281   1.099   1.233   5.723
  155POPC   NC3 2282   8.799   7.816   3.877
  155POPC   PO4 2283   8.292   8.320   3.868
  155POPC   GL1 2284   8.332   8.087   4.249
  155POPC   GL2 2285   8.657   7.948   4.333
  155POPC   C1A 2286   8.310   8.036   4.688
  155POPC   D2A 2287   8.561   8.149   5.014
  155POPC   C3A 2288   8.520   8.018   5.441
  155POPC   C4A 2289   8.259   7.993   5.804
  155POPC   C1B 2290   8.869   7.856   4.695
  155POPC   C2B 2291   8.811   7.712   5.110
  155POPC   C3B 2292   9.020   7.857   5.487
  155POPC   C4B 2293   8.838   7.847   5.901
  156POPC   NC3 2294   2.747   1.186   3.852
  156POPC   PO4 2295   3.150   1.580   3.598
  156POPC   GL1 2296   3.125   1.344   4.127
  156POPC   GL2 2297   2.789   1.352   4.306
  156POPC   C1A 2298   3.157   1.382   4.642
  156POPC   D2A 2299   3.090   1.066   5.001
  156POPC   C3A 2300   3.050   1.206   5.434
  156POPC   C4A 2301   2.863   1.054   5.832
  156POPC   C1B 2302   2.619   1.278   4.692
  156POPC   C2B 2303   2.614   1.457   5.115
  156POPC   C3B 2304   2.559   1.311   5.517
  156POPC   C4B 2305   2.315   0.988   5.632
  157POPC   NC3 2306   0.573   3.228   3.998
  157POPC   PO4 2307  10.427   3.332   3.863
  157POPC   GL1 2308   0.149   3.552   4.224
  157POPC   GL2 2309   0.366   3.327   4.440
  157POPC   C1A 2310   0.065   3.660   4.671
  157POPC   D2A 2311   0.261   3.438   4.998
  157POPC   C3A 2312   0.179   3.443   5.428
  157POPC   C4A 2313   0.332   3.133   5.735
  157POPC   C1B 2314   0.701   3.284   4.723
  157POPC   C2B 2315   0.777   3.459   5.103
  157POPC   C3B 2316   0.710   3.354   5.484
  157POPC   C4B 2317   0.516   3.640   5.766
  158POPC   NC3 2318   8.799   5.363   3.848
  158POPC   PO4 2319   8.865   6.042   3.920
  158POPC   GL1 2320   8.863   5.775   4.324
  158POPC   GL2 2321   8.539   5.721   4.271
  158POPC   C1A 2322   8.967   5.547   4.753
  158POPC   D2A 2323   8.739   5.523   5.135
  158POPC   C3A 2324   8.848   5.534   5.545
  158POPC   C4A 2325   8.525   5.371   5.810
  158POPC   C1B 2326   8.483   5.703   4.709
  158POPC   C2B 2327   8.255   5.698   5.083
  158POPC   C3B 2328   8.433   5.855   5.429
  158POPC   C4B 2329   8.520   5.875   5.846
  159POPC   NC3 2330   7.893   4.950   3.807
  159POPC   PO4 2331   8.438   4.922   3.893
  159POPC   GL1 2332   8.236   4.862   4.316
  159POPC   GL2 2333   7.865   4.800   4.324
  159POPC   C1A 2334   8.212   4.909   4.795
  159POPC   D2A 2335   8.091   4.661   5.182
  159POPC   C3A 2336   7.821   4.770   5.561
  159POPC   C4A 2337   7.942   4.660   6.002
  159POPC   C1B 2338   7.731   5.031   4.734
  159POPC   C2B 2339   7.852   5.154   5.201
  159POPC   C3B 2340   7.649   5.243   5.638
  159POPC   C4B 2341   7.652   5.319   6.102
  160POPC   NC3 2342   2.140  10.310   3.881
  160POPC   PO4 2343   1.623   0.194   3.864
  160POPC   GL1 2344   1.834   0.013   4.246
  160POPC   GL2 2345   1.665  10.195   4.363
  160POPC   C1A 2346   2.147  -0.000   4.641
  160POPC   D2A 2347   2.222  10.422   5.115
  160POPC   C3A 2348   2.011   0.062   5.542
  160POPC   C4A 2349   2.169   0.096   5.997
  160POPC   C1B 2350   1.746  10.184   4.798
  160POPC   C2B 2351   1.913  10.010   5.186
  160POPC   C3B 2352   2.014  10.056   5.633
  160POPC   C4B 2353   1.835  10.240   6.021
  161POPC   NC3 2354   1.878   4.504   4.041
  161POPC   PO4 2355   1.752   3.859   3.879
  161POPC   GL1 2356   2.031   3.993   4.241
  161POPC   GL2 2357   1.795   4.119   4.450
  161POPC   C1A 2358   2.200   3.999   4.711
  161POPC   D2A 2359   1.961   4.119   5.084
  161POPC   C3A 2360   2.168   4.003   5.493
  161POPC   C4A 2361   2.204   3.915   5.956
  161POPC   C1B 2362   1.768   4.514   4.678
  161POPC   C2B 2363   1.761   4.663   5.088
  161POPC   C3B 2364   1.761   4.423   5.444
  161POPC   C4B 2365   1.780   4.177   5.781
  162POPC   NC3 2366   7.077   0.553   4.015
  162POPC   PO4 2367   7.646   0.317   3.821
  162POPC   GL1 2368   7.591   0.525   4.202
  162POPC   GL2 2369   7.381   0.258   4.323
  162POPC   C1A 2370   7.581   0.598   4.657
  162POPC   D2A 2371   7.480   0.443   5.097
  162POPC   C3A 2372   7.392   0.694   5.481
  162POPC   C4A 2373   7.439   0.675   5.967
  162POPC   C1B 2374   7.119   0.362   4.702
  162POPC   C2B 2375   7.005   0.227   5.123
  162POPC   C3B 2376   7.097   0.287   5.602
  162POPC   C4B 2377   7.019   0.402   6.061
  163POPC   NC3 2378   7.949  10.497   3.956
  163POPC   PO4 2379   8.540   0.208   3.794
  163POPC   GL1 2380   8.288   0.320   4.193
  163POPC   GL2 2381   8.108   0.617   4.133
  163POPC   C1A 2382   7.933   0.224   4.536
  163POPC   D2A 2383   7.793  10.451   4.905
  163POPC   C3A 2384   7.878   0.113   5.314
  163POPC   C4A 2385   7.640   0.289   5.644
  163POPC   C1B 2386   8.086   0.716   4.570
  163POPC   C2B 2387   7.997   0.485   4.967
  163POPC   C3B 2388   7.878   0.683   5.334
  163POPC   C4B 2389   7.891   0.737   5.753
  164POPC   NC3 2390   8.775  10.296   4.015
  164POPC   PO4 2391   8.715   9.682   3.891
  164POPC   GL1 2392   8.840   9.834   4.299
  164POPC   GL2 2393   8.611  10.081   4.433
  164POPC   C1A 2394   8.746   9.705   4.746
  164POPC   D2A 2395   8.901   9.907   5.103
  164POPC   C3A 2396   8.983   9.784   5.514
  164POPC   C4A 2397   8.742   9.849   5.860
  164POPC   C1B 2398   8.633  10.433   4.730
  164POPC   C2B 2399   8.538  10.490   5.162
  164POPC   C3B 2400   8.688  10.231   5.483
  164POPC   C4B 2401   8.568  10.302   5.890
  165POPC   NC3 2402   2.246   2.690   3.939
  165POPC   PO4 2403   1.622   2.705   3.736
  165POPC   GL1 2404   1.643   2.669   4.198
  165POPC   GL2 2405   1.958   2.758   4.336
  165POPC   C1A 2406   1.555   2.749   4.676
  165POPC   D2A 2407   1.767   2.775   5.100
  165POPC   C3A 2408   1.505   2.876   5.357
  165POPC   C4A 2409   1.565   2.791   5.726
  165POPC   C1B 2410   2.077   2.667   4.743
  165POPC   C2B 2411   2.340   2.475   5.040
  165POPC   C3B 2412   2.176   2.352   5.436
  165POPC   C4B 2413   2.041   2.621   5.749
  166POPC   NC3 2414   6.606   8.347   3.712
  166POPC   PO4 2415   6.139   8.826   3.839
  166POPC   GL1 2416   6.156   8.773   4.354
  166POPC   GL2 2417   6.529   8.779   4.523
  166POPC   C1A 2418   6.249   8.439   4.722
  166POPC   D2A 2419   6.506   8.549   5.096
  166POPC   C3A 2420   6.327   8.528   5.529
  166POPC   C4A 2421   6.184   8.175   5.799
  166POPC   C1B 2422   6.236   8.948   4.839
  166POPC   C2B 2423   6.196   9.034   5.269
  166POPC   C3B 2424   6.536   8.991   5.534
  166POPC   C4B 2425   6.595   8.984   5.975
  167POPC   NC3 2426  10.227   7.187   3.959
  167POPC   PO4 2427   9.793   6.781   3.815
  167POPC   GL1 2428   9.810   7.009   4.269
  167POPC   GL2 2429  10.116   7.160   4.436
  167POPC   C1A 2430   9.783   7.027   4.767
  167POPC   D2A 2431   9.951   6.879   5.134
  167POPC   C3A 2432  10.007   7.097   5.492
  167POPC   C4A 2433  10.054   6.987   5.885
  167POPC   C1B 2434  10.221   7.386   4.827
  167POPC   C2B 2435  10.413   7.208   5.216
  167POPC   C3B 2436   0.002   6.963   5.643
  167POPC   C4B 2437  10.495   7.051   6.133
  168POPC   NC3 2438   8.164   1.663   4.143
  168POPC   PO4 2439   8.177   1.052   3.849
  168POPC   GL1 2440   8.206   1.144   4.253
  168POPC   GL2 2441   7.841   1.069   4.259
  168POPC   C1A 2442   8.406   1.133   4.683
  168POPC   D2A 2443   8.236   0.916   5.036
  168POPC   C3A 2444   8.308   0.942   5.492
  168POPC   C4A 2445   8.217   1.107   5.929
  168POPC   C1B 2446   7.908   1.249   4.689
  168POPC   C2B 2447   7.947   1.305   5.152
  168POPC   C3B 2448   7.857   1.231   5.564
  168POPC   C4B 2449   7.585   1.531   5.761
  169POPC   NC3 2450   4.887   8.448   4.034
  169POPC   PO4 2451   4.840   9.153   3.966
  169POPC   GL1 2452   4.881   8.961   4.342
  169POPC   GL2 2453   4.599   8.753   4.337
  169POPC   C1A 2454   4.772   9.005   4.768
  169POPC   D2A 2455   4.606   8.968   5.158
  169POPC   C3A 2456   4.797   8.815   5.467
  169POPC   C4A 2457   4.946   8.699   5.843
  169POPC   C1B 2458   4.770   8.481   4.676
  169POPC   C2B 2459   4.912   8.511   5.097
  169POPC   C3B 2460   4.804   8.316   5.518
  169POPC   C4B 2461   4.902   8.191   5.952
  170POPC   NC3 2462   7.769   6.506   3.931
  170POPC   PO4 2463   7.566   7.044   4.057
  170POPC   GL1 2464   7.798   6.730   4.405
  170POPC   GL2 2465   8.035   6.465   4.364
  170POPC   C1A 2466   7.941   6.538   4.851
  170POPC   D2A 2467   7.730   6.366   5.218
  170POPC   C3A 2468   7.778   6.573   5.617
  170POPC   C4A 2469   8.009   6.548   5.976
  170POPC   C1B 2470   8.213   6.147   4.619
  170POPC   C2B 2471   8.354   6.208   5.019
  170POPC   C3B 2472   8.217   6.377   5.376
  170POPC   C4B 2473   8.059   6.096   5.699
  171POPC   NC3 2474   5.605   2.205   3.962
  171POPC   PO4 2475   5.322   1.646   3.824
  171POPC   GL1 2476   5.524   1.717   4.225
  171POPC   GL2 2477   5.855   1.868   4.257
  171POPC   C1A 2478   5.673   1.632   4.668
  171POPC   D2A 2479   5.843   1.717   5.071
  171POPC   C3A 2480   5.597   1.835   5.407
  171POPC   C4A 2481   5.712   1.617   5.757
  171POPC   C1B 2482   5.663   2.130   4.632
  171POPC   C2B 2483   5.773   2.229   5.083
  171POPC   C3B 2484   5.895   2.247   5.548
  171POPC   C4B 2485   5.639   2.347   5.933
  172POPC   NC3 2486   1.382   3.827   4.164
  172POPC   PO4 2487   0.782   3.618   3.882
  172POPC   GL1 2488   0.916   3.522   4.294
  172POPC   GL2 2489   0.989   3.172   4.307
  172POPC   C1A 2490   1.039   3.678   4.712
  172POPC   D2A 2491   1.232   3.771   5.115
  172POPC   C3A 2492   0.954   3.796   5.485
  172POPC   C4A 2493   1.016   3.573   5.867
  172POPC   C1B 2494   1.280   3.198   4.648
  172POPC   C2B 2495   1.194   3.192   5.084
  172POPC   C3B 2496   1.335   3.390   5.467
  172POPC   C4B 2497   1.422   3.250   5.875
  173POPC   NC3 2498   0.690   2.129   3.917
  173POPC   PO4 2499   0.758   2.802   4.033
  173POPC   GL1 2500   0.675   2.482   4.316
  173POPC   GL2 2501   0.310   2.513   4.367
  173POPC   C1A 2502   0.668   2.339   4.738
  173POPC   D2A 2503   0.492   2.475   5.117
  173POPC   C3A 2504   0.643   2.648   5.534
  173POPC   C4A 2505   0.398   2.458   5.829
  173POPC   C1B 2506   0.414   2.843   4.709
  173POPC   C2B 2507   0.465   2.983   5.165
  173POPC   C3B 2508   0.163   2.720   5.442
  173POPC   C4B 2509  10.495   2.770   5.857
  174POPC   NC3 2510   1.785   7.160   4.041
  174POPC   PO4 2511   2.492   7.181   3.935
  174POPC   GL1 2512   2.227   7.100   4.311
  174POPC   GL2 2513   1.952   7.302   4.481
  174POPC   C1A 2514   2.179   6.978   4.772
  174POPC   D2A 2515   2.103   7.238   5.151
  174POPC   C3A 2516   2.132   6.945   5.472
  174POPC   C4A 2517   2.057   6.871   5.886
  174POPC   C1B 2518   1.689   7.137   4.788
  174POPC   C2B 2519   1.673   6.980   5.196
  174POPC   C3B 2520   1.687   7.157   5.602
  174POPC   C4B 2521   1.672   7.414   5.960
  175POPC   NC3 2522   7.243   7.366   3.984
  175POPC   PO4 2523   6.774   7.930   3.864
  175POPC   GL1 2524   7.035   7.974   4.308
  175POPC   GL2 2525   7.405   7.988   4.366
  175POPC   C1A 2526   7.088   7.822   4.755
  175POPC   D2A 2527   7.254   7.780   5.205
  175POPC   C3A 2528   7.102   7.716   5.656
  175POPC   C4A 2529   7.059   7.381   5.981
  175POPC   C1B 2530   7.368   8.268   4.737
  175POPC   C2B 2531   7.408   8.397   5.165
  175POPC   C3B 2532   7.217   8.206   5.508
  175POPC   C4B 2533   7.262   8.139   5.926
  176POPC   NC3 2534   1.670   2.229   3.747
  176POPC   PO4 2535   1.593   1.546   3.802
  176POPC   GL1 2536   1.498   1.747   4.254
  176POPC   GL2 2537   1.141   1.713   4.368
  176POPC   C1A 2538   1.468   1.893   4.726
  176POPC   D2A 2539   1.397   1.974   5.156
  176POPC   C3A 2540   1.103   1.740   5.443
  176POPC   C4A 2541   1.253   1.657   5.907
  176POPC   C1B 2542   0.973   1.853   4.814
  176POPC   C2B 2543   0.925   2.175   5.153
  176POPC   C3B 2544   0.751   2.161   5.553
  176POPC   C4B 2545   0.986   2.089   5.893
  177POPC   NC3 2546   5.033   0.557   3.827
  177POPC   PO4 2547   4.379   0.565   3.983
  177POPC   GL1 2548   4.581   0.536   4.385
  177POPC   GL2 2549   4.831   0.309   4.232
  177POPC   C1A 2550   4.637   0.574   4.873
  177POPC   D2A 2551   4.636   0.394   5.264
  177POPC   C3A 2552   4.717   0.593   5.619
  177POPC   C4A 2553   4.777   0.254   5.845
  177POPC   C1B 2554   4.999   0.317   4.634
  177POPC   C2B 2555   5.104   0.489   5.048
  177POPC   C3B 2556   5.122   0.319   5.433
  177POPC   C4B 2557   5.281   0.389   5.807
  178POPC   NC3 2558   3.496   1.849   3.832
  178POPC   PO4 2559   2.945   1.791   4.057
  178POPC   GL1 2560   3.265   1.795   4.347
  178POPC   GL2 2561   3.502   2.023   4.334
  178POPC   C1A 2562   3.216   1.866   4.807
  178POPC   D2A 2563   3.410   1.949   5.193
  178POPC   C3A 2564   3.186   1.693   5.448
  178POPC   C4A 2565   2.947   1.594   5.807
  178POPC   C1B 2566   3.457   2.287   4.726
  178POPC   C2B 2567   3.627   2.424   5.108
  178POPC   C3B 2568   3.740   2.283   5.511
  178POPC   C4B 2569   3.461   2.023   5.719
  179POPC   NC3 2570   6.510   2.294   3.957
  179POPC   PO4 2571   6.836   1.721   3.907
  179POPC   GL1 2572   6.730   1.956   4.307
  179POPC   GL2 2573   6.370   1.925   4.308
  179POPC   C1A 2574   6.627   1.946   4.770
  179POPC   D2A 2575   6.774   1.817   5.170
  179POPC   C3A 2576   6.602   2.026   5.512
  179POPC   C4A 2577   6.601   1.772   5.843
  179POPC   C1B 2578   6.131   1.948   4.711
  179POPC   C2B 2579   6.238   2.031   5.164
  179POPC   C3B 2580   6.138   1.797   5.548
  179POPC   C4B 2581   6.188   1.483   5.921
  180POPC   NC3 2582   8.999   0.260   3.713
  180POPC   PO4 2583   9.342  10.421   4.164
  180POPC   GL1 2584   8.981   0.075   4.387
  180POPC   GL2 2585   8.822   0.388   4.254
  180POPC   C1A 2586   8.985   0.333   4.767
  180POPC   D2A 2587   9.187   0.363   5.156
  180POPC   C3A 2588   8.954   0.183   5.472
  180POPC   C4A 2589   8.704   0.274   5.795
  180POPC   C1B 2590   8.601   0.632   4.622
  180POPC   C2B 2591   8.541   0.506   5.080
  180POPC   C3B 2592   8.307   0.419   5.488
  180POPC   C4B 2593   8.319   0.547   5.951
  181POPC   NC3 2594  10.376   0.481   3.867
  181POPC   PO4 2595   9.717   0.695   3.845
  181POPC   GL1 2596   9.865   0.518   4.275
  181POPC   GL2 2597  10.188   0.444   4.347
  181POPC   C1A 2598   9.842   0.193   4.617
  181POPC   D2A 2599   9.671   0.425   4.981
  181POPC   C3A 2600   9.886   0.448   5.384
  181POPC   C4A 2601   9.972   0.315   5.811
  181POPC   C1B 2602  10.161   0.521   4.792
  181POPC   C2B 2603  10.296   0.638   5.160
  181POPC   C3B 2604  10.346   0.668   5.538
  181POPC   C4B 2605  10.340   0.661   5.950
  182POPC   NC3 2606   8.498   2.505   3.888
  182POPC   PO4 2607   8.989   3.019   3.929
  182POPC   GL1 2608   8.868   2.900   4.313
  182POPC   GL2 2609   8.524   2.950   4.261
  182POPC   C1A 2610   9.030   2.730   4.703
  182POPC   D2A 2611   8.956   2.884   5.095
  182POPC   C3A 2612   9.021   2.613   5.444
  182POPC   C4A 2613   8.891   2.825   5.777
  182POPC   C1B 2614   8.534   2.597   4.565
  182POPC   C2B 2615   8.611   2.525   5.003
  182POPC   C3B 2616   8.524   2.773   5.360
  182POPC   C4B 2617   8.451   2.583   5.742
  183POPC   NC3 2618   4.641  10.189   3.844
  183POPC   PO4 2619   5.233   0.062   3.849
  183POPC   GL1 2620   5.202  10.415   4.232
  183POPC   GL2 2621   5.047  10.118   4.142
  183POPC   C1A 2622   5.340  10.448   4.653
  183POPC   D2A 2623   5.070  10.472   5.019
  183POPC   C3A 2624   5.232  10.330   5.401
  183POPC   C4A 2625   5.042  10.343   5.783
  183POPC   C1B 2626   4.822  10.266   4.549
  183POPC   C2B 2627   4.796  10.055   4.966
  183POPC   C3B 2628   4.962   9.876   5.342
  183POPC   C4B 2629   4.761   9.909   5.753
  184POPC   NC3 2630   9.385   1.023   3.873
  184POPC   PO4 2631   9.857   1.549   4.022
  184POPC   GL1 2632   9.718   1.173   4.285
  184POPC   GL2 2633   9.362   1.151   4.349
  184POPC   C1A 2634   9.875   0.923   4.620
  184POPC   D2A 2635   9.864   0.884   5.073
  184POPC   C3A 2636   9.720   1.200   5.317
  184POPC   C4A 2637   9.531   1.263   5.692
  184POPC   C1B 2638   9.406   1.379   4.709
  184POPC   C2B 2639   9.273   1.360   5.121
  184POPC   C3B 2640   9.090   1.192   5.460
  184POPC   C4B 2641   9.071   1.477   5.787
  185POPC   NC3 2642   2.466   8.809   3.918
  185POPC   PO4 2643   2.854   8.318   3.722
  185POPC   GL1 2644   2.760   8.484   4.202
  185POPC   GL2 2645   2.411   8.570   4.359
  185POPC   C1A 2646   2.779   8.676   4.669
  185POPC   D2A 2647   2.953   8.736   5.083
  185POPC   C3A 2648   2.760   9.060   5.353
  185POPC   C4A 2649   2.850   8.919   5.782
  185POPC   C1B 2650   2.244   8.378   4.730
  185POPC   C2B 2651   2.415   8.534   5.081
  185POPC   C3B 2652   2.622   8.588   5.469
  185POPC   C4B 2653   2.557   8.407   5.873
  186POPC   NC3 2654   7.266  10.188   3.792
  186POPC   PO4 2655   6.869   0.138   4.105
  186POPC   GL1 2656   7.140  10.300   4.282
  186POPC   GL2 2657   7.304   9.928   4.215
  186POPC   C1A 2658   6.939  10.132   4.630
  186POPC   D2A 2659   6.703  10.317   4.969
  186POPC   C3A 2660   6.841  10.353   5.415
  186POPC   C4A 2661   6.809  10.436   5.841
  186POPC   C1B 2662   7.344   9.821   4.642
  186POPC   C2B 2663   7.267  10.055   5.011
  186POPC   C3B 2664   7.092   9.916   5.382
  186POPC   C4B 2665   7.200  10.113   5.765
  187POPC   NC3 2666   7.127   9.198   3.784
  187POPC   PO4 2667   7.579   9.461   4.071
  187POPC   GL1 2668   7.400   9.225   4.394
  187POPC   GL2 2669   7.078   9.222   4.287
  187POPC   C1A 2670   7.189   9.321   4.788
  187POPC   D2A 2671   7.311   9.560   5.102
  187POPC   C3A 2672   7.322   9.371   5.468
  187POPC   C4A 2673   7.150   9.585   5.762
  187POPC   C1B 2674   6.916   9.610   4.471
  187POPC   C2B 2675   6.845   9.698   4.934
  187POPC   C3B 2676   6.860   9.339   5.278
  187POPC   C4B 2677   7.011   9.062   5.687
  188POPC   NC3 2678   9.163   8.862   3.864
  188POPC   PO4 2679   9.721   8.548   3.825
  188POPC   GL1 2680   9.694   8.795   4.186
  188POPC   GL2 2681   9.406   8.632   4.313
  188POPC   C1A 2682   9.746   8.808   4.652
  188POPC   D2A 2683   9.636   8.882   5.079
  188POPC   C3A 2684   9.900   8.827   5.435
  188POPC   C4A 2685   9.761   8.899   5.844
  188POPC   C1B 2686   9.228   8.807   4.736
  188POPC   C2B 2687   9.190   8.676   5.174
  188POPC   C3B 2688   9.285   8.741   5.615
  188POPC   C4B 2689   8.968   8.662   5.923
  189POPC   NC3 2690   3.735  10.131   3.778
  189POPC   PO4 2691   3.051   9.778   3.911
  189POPC   GL1 2692   3.166   9.824   4.293
  189POPC   GL2 2693   3.471   9.989   4.213
  189POPC   C1A 2694   2.963   9.873   4.699
  189POPC   D2A 2695   3.078  10.061   5.082
  189POPC   C3A 2696   3.012   9.872   5.476
  189POPC   C4A 2697   3.230   9.825   5.867
  189POPC   C1B 2698   3.422  10.106   4.652
  189POPC   C2B 2699   3.620  10.124   5.063
  189POPC   C3B 2700   3.541  10.194   5.492
  189POPC   C4B 2701   3.838   0.021   5.724
  190POPC   NC3 2702   8.335   9.413   3.848
  190POPC   PO4 2703   8.333  10.107   3.955
  190POPC   GL1 2704   8.386   9.646   4.279
  190POPC   GL2 2705   8.719   9.340   4.245
  190POPC   C1A 2706   8.424   9.309   4.623
  190POPC   D2A 2707   8.623   9.251   5.043
  190POPC   C3A 2708   8.580   9.572   5.301
  190POPC   C4A 2709   8.640   9.403   5.696
  190POPC   C1B 2710   8.944   9.247   4.637
  190POPC   C2B 2711   9.118   9.421   5.039
  190POPC   C3B 2712   9.073   9.282   5.466
  190POPC   C4B 2713   9.088   9.470   5.915
  191POPC   NC3 2714   2.652   0.540   3.818
  191POPC   PO4 2715   3.128   0.873   3.739
  191POPC   GL1 2716   2.786   0.828   4.191
  191POPC   GL2 2717   2.850   0.461   4.279
  191POPC   C1A 2718   2.765   0.780   4.680
  191POPC   D2A 2719   2.588   0.930   5.073
  191POPC   C3A 2720   2.738   0.804   5.406
  191POPC   C4A 2721   2.640   0.592   5.753
  191POPC   C1B 2722   2.598   0.295   4.615
  191POPC   C2B 2723   2.461   0.404   5.018
  191POPC   C3B 2724   2.462   0.255   5.423
  191POPC   C4B 2725   2.617   0.082   5.770
  192POPC   NC3 2726   8.767   6.523   3.861
  192POPC   PO4 2727   8.151   6.776   3.981
  192POPC   GL1 2728   8.494   6.643   4.275
  192POPC   GL2 2729   8.516   6.269   4.234
  192POPC   C1A 2730   8.466   6.623   4.731
  192POPC   D2A 2731   8.766   6.547   5.084
  192POPC   C3A 2732   8.751   6.741   5.527
  192POPC   C4A 2733   8.924   6.691   5.968
  192POPC   C1B 2734   8.738   6.164   4.634
  192POPC   C2B 2735   8.813   6.013   5.055
  192POPC   C3B 2736   8.776   6.209   5.466
  192POPC   C4B 2737   8.490   6.387   5.791
  193POPC   NC3 2738   9.726   8.045   3.847
  193POPC   PO4 2739   9.054   8.191   3.986
  193POPC   GL1 2740   9.204   8.169   4.368
  193POPC   GL2 2741   9.547   8.089   4.330
  193POPC   C1A 2742   9.453   8.350   4.752
  193POPC   D2A 2743   9.594   8.107   5.102
  193POPC   C3A 2744   9.421   8.232   5.506
  193POPC   C4A 2745   9.202   8.188   5.915
  193POPC   C1B 2746   9.383   7.850   4.705
  193POPC   C2B 2747   9.321   7.669   5.112
  193POPC   C3B 2748   9.553   7.716   5.519
  193POPC   C4B 2749   9.853   7.683   5.885
  194POPC   NC3 2750   1.234   2.891   3.923
  194POPC   PO4 2751   1.154   2.228   3.814
  194POPC   GL1 2752   1.216   2.341   4.247
  194POPC   GL2 2753   1.152   2.681   4.364
  194POPC   C1A 2754   1.188   2.319   4.708
  194POPC   D2A 2755   1.354   2.475   5.072
  194POPC   C3A 2756   1.181   2.456   5.527
  194POPC   C4A 2757   1.363   2.403   5.962
  194POPC   C1B 2758   0.942   2.802   4.726
  194POPC   C2B 2759   0.946   2.754   5.154
  194POPC   C3B 2760   1.054   2.958   5.555
  194POPC   C4B 2761   0.822   3.055   5.881
  195POPC   NC3 2762   6.601   0.994   3.485
  195POPC   PO4 2763   7.230   1.027   3.827
  195POPC   GL1 2764   7.048   1.053   4.188
  195POPC   GL2 2765   7.107   1.380   4.317
  195POPC   C1A 2766   6.970   0.853   4.594
  195POPC   D2A 2767   7.084   0.921   5.004
  195POPC   C3A 2768   6.917   0.681   5.305
  195POPC   C4A 2769   6.832   0.739   5.711
  195POPC   C1B 2770   7.423   1.088   4.554
  195POPC   C2B 2771   7.589   0.978   4.988
  195POPC   C3B 2772   7.410   1.182   5.333
  195POPC   C4B 2773   7.297   1.110   5.741
  196POPC   NC3 2774   1.945   1.245   3.882
  196POPC   PO4 2775   2.455   1.567   3.932
  196POPC   GL1 2776   2.266   1.451   4.325
  196POPC   GL2 2777   2.194   1.102   4.320
  196POPC   C1A 2778   2.110   1.356   4.760
  196POPC   D2A 2779   2.123   1.116   5.120
  196POPC   C3A 2780   2.065   1.398   5.445
  196POPC   C4A 2781   2.110   1.384   5.887
  196POPC   C1B 2782   1.825   0.966   4.609
  196POPC   C2B 2783   1.631   0.998   5.059
  196POPC   C3B 2784   1.785   0.973   5.523
  196POPC   C4B 2785   1.935   0.929   5.985
  197POPC   NC3 2786   3.345   9.266   4.053
  197POPC   PO4 2787   4.088   9.176   4.041
  197POPC   GL1 2788   3.752   9.180   4.356
  197POPC   GL2 2789   3.638   9.532   4.366
  197POPC   C1A 2790   3.715   9.229   4.822
  197POPC   D2A 2791   3.693   9.213   5.267
  197POPC   C3A 2792   3.879   9.593   5.408
  197POPC   C4A 2793   3.721   9.781   5.763
  197POPC   C1B 2794   3.352   9.557   4.692
  197POPC   C2B 2795   3.417   9.663   5.110
  197POPC   C3B 2796   3.365   9.516   5.496
  197POPC   C4B 2797   2.998   9.394   5.692
  198POPC   NC3 2798   8.331  10.349   3.496
  198POPC   PO4 2799   7.731  10.121   3.818
  198POPC   GL1 2800   7.853  10.139   4.272
  198POPC   GL2 2801   7.626  10.292   4.447
  198POPC   C1A 2802   8.171  10.263   4.597
  198POPC   D2A 2803   8.355  10.025   4.980
  198POPC   C3A 2804   8.165  10.151   5.402
  198POPC   C4A 2805   8.103  10.470   5.756
  198POPC   C1B 2806   7.823   9.930   4.711
  198POPC   C2B 2807   7.755   9.838   5.094
  198POPC   C3B 2808   7.609  10.068   5.426
  198POPC   C4B 2809   7.816  10.034   5.792
  199POPC   NC3 2810   4.896   1.876   3.744
  199POPC   PO4 2811   4.503   2.307   3.931
  199POPC   GL1 2812   4.753   1.968   4.232
  199POPC   GL2 2813   4.992   1.668   4.239
  199POPC   C1A 2814   4.682   1.728   4.651
  199POPC   D2A 2815   4.897   1.694   5.062
  199POPC   C3A 2816   4.680   1.656   5.460
  199POPC   C4A 2817   4.668   1.882   5.859
  199POPC   C1B 2818   5.199   1.820   4.623
  199POPC   C2B 2819   5.270   2.039   5.035
  199POPC   C3B 2820   4.974   2.093   5.416
  199POPC   C4B 2821   5.109   2.199   5.845
  200POPC   NC3 2822   2.561   2.015   4.147
  200POPC   PO4 2823   2.148   2.297   3.728
  200POPC   GL1 2824   1.962   2.225   4.152
  200POPC   GL2 2825   2.009   1.871   4.159
  200POPC   C1A 2826   1.740   2.294   4.553
  200POPC   D2A 2827   1.853   2.249   5.012
  200POPC   C3A 2828   1.674   2.344   5.435
  200POPC   C4A 2829   1.455   2.028   5.654
  200POPC   C1B 2830   1.948   1.821   4.612
  200POPC   C2B 2831   1.839   1.708   5.071
  200POPC   C3B 2832   1.931   1.879   5.520
  200POPC   C4B 2833   1.767   1.735   5.953
  201POPC   NC3 2834   3.004   3.534   4.068
  201POPC   PO4 2835   2.448   3.236   3.893
  201POPC   GL1 2836   2.286   3.257   4.293
  201POPC   GL2 2837   2.660   3.329   4.406
  201POPC   C1A 2838   2.269   3.465   4.693
  201POPC   D2A 2839   2.595   3.388   5.018
  201POPC   C3A 2840   2.539   3.303   5.433
  201POPC   C4A 2841   2.834   3.255   5.796
  201POPC   C1B 2842   2.684   3.755   4.684
  201POPC   C2B 2843   2.543   3.881   5.159
  201POPC   C3B 2844   2.613   3.770   5.659
  201POPC   C4B 2845   2.841   3.687   6.087
  202POPC   NC3 2846   5.238   9.372   3.885
  202POPC   PO4 2847   4.679   9.737   3.963
  202POPC   GL1 2848   4.854   9.695   4.372
  202POPC   GL2 2849   5.092   9.438   4.361
  202POPC   C1A 2850   4.958   9.598   4.817
  202POPC   D2A 2851   4.674   9.458   5.082
  202POPC   C3A 2852   4.751   9.414   5.506
  202POPC   C4A 2853   4.657   9.125   5.822
  202POPC   C1B 2854   5.256   9.193   4.711
  202POPC   C2B 2855   5.115   9.067   5.158
  202POPC   C3B 2856   5.160   9.111   5.641
  202POPC   C4B 2857   5.198   9.077   6.103
  203POPC   NC3 2858   9.224   2.629   4.067
  203POPC   PO4 2859   9.753   2.302   3.789
  203POPC   GL1 2860   9.615   2.298   4.311
  203POPC   GL2 2861   9.496   2.614   4.520
  203POPC   C1A 2862   9.390   2.207   4.750
  203POPC   D2A 2863   9.332   2.273   5.175
  203POPC   C3A 2864   9.719   2.402   5.369
  203POPC   C4A 2865   9.752   2.362   5.800
  203POPC   C1B 2866   9.648   2.619   4.911
  203POPC   C2B 2867   9.433   2.807   5.212
  203POPC   C3B 2868   9.514   2.794   5.628
  203POPC   C4B 2869   9.329   2.631   5.928
  204POPC   NC3 2870   2.236   5.121   4.057
  204POPC   PO4 2871   1.603   4.951   3.970
  204POPC   GL1 2872   1.727   5.196   4.313
  204POPC   GL2 2873   1.931   4.895   4.388
  204POPC   C1A 2874   1.707   5.461   4.726
  204POPC   D2A 2875   1.874   5.429   5.162
  204POPC   C3A 2876   1.621   5.418   5.550
  204POPC   C4A 2877   1.790   5.144   5.890
  204POPC   C1B 2878   2.061   5.068   4.779
  204POPC   C2B 2879   2.168   4.968   5.195
  204POPC   C3B 2880   2.053   4.834   5.555
  204POPC   C4B 2881   2.184   4.469   5.712
  205POPC   NC3 2882   2.204   5.758   3.648
  205POPC   PO4 2883   1.626   5.730   3.937
  205POPC   GL1 2884   1.996   5.591   4.136
  205POPC   GL2 2885   2.162   5.895   4.161
  205POPC   C1A 2886   2.184   5.548   4.564
  205POPC   D2A 2887   2.119   5.791   4.926
  205POPC   C3A 2888   2.258   5.750   5.378
  205POPC   C4A 2889   2.158   5.346   5.585
  205POPC   C1B 2890   1.820   5.922   4.512
  205POPC   C2B 2891   1.688   6.051   4.913
  205POPC   C3B 2892   1.771   5.940   5.334
  205POPC   C4B 2893   1.903   5.804   5.742
  206POPC   NC3 2894   5.817   0.682   4.022
  206POPC   PO4 2895   6.032   0.064   3.984
  206POPC   GL1 2896   5.795   0.008   4.342
  206POPC   GL2 2897   5.566   0.269   4.259
  206POPC   C1A 2898   5.799   0.120   4.755
  206POPC   D2A 2899   5.516   0.198   5.078
  206POPC   C3A 2900   5.648   0.163   5.469
  206POPC   C4A 2901   6.062   0.224   5.636
  206POPC   C1B 2902   5.480   0.517   4.639
  206POPC   C2B 2903   5.552   0.736   5.025
  206POPC   C3B 2904   5.417   0.756   5.448
  206POPC   C4B 2905   5.725   0.607   5.702
  207POPC   NC3 2906   6.569   1.338   3.954
  207POPC   PO4 2907   6.661   0.736   3.890
  207POPC   GL1 2908   6.570   1.030   4.331
  207POPC   GL2 2909   6.247   1.169   4.382
  207POPC   C1A 2910   6.566   1.136   4.781
  207POPC   D2A 2911   6.542   1.008   5.202
  207POPC   C3A 2912   6.893   1.174   5.433
  207POPC   C4A 2913   6.866   1.342   5.839
  207POPC   C1B 2914   6.110   1.393   4.739
  207POPC   C2B 2915   6.330   1.535   5.090
  207POPC   C3B 2916   6.477   1.441   5.481
  207POPC   C4B 2917   6.445   1.072   5.735
  208POPC   NC3 2918   7.041   3.022   3.561
  208POPC   PO4 2919   6.655   2.738   3.993
  208POPC   GL1 2920   7.001   2.716   4.301
  208POPC   GL2 2921   7.068   2.350   4.249
  208POPC   C1A 2922   7.242   2.954   4.669
  208POPC   D2A 2923   7.099   3.055   5.099
  208POPC   C3A 2924   7.253   3.005   5.524
  208POPC   C4A 2925   7.257   3.066   6.000
  208POPC   C1B 2926   7.323   2.463   4.603
  208POPC   C2B 2927   7.240   2.557   5.012
  208POPC   C3B 2928   7.420   2.513   5.409
  208POPC   C4B 2929   7.298   2.588   5.800
  209POPC   NC3 2930   9.874   3.735   3.607
  209POPC   PO4 2931  10.390   4.066   3.820
  209POPC   GL1 2932  10.225   4.152   4.229
  209POPC   GL2 2933  10.302   4.426   4.339
  209POPC   C1A 2934   9.950   4.166   4.606
  209POPC   D2A 2935   9.722   4.327   4.973
  209POPC   C3A 2936   9.933   4.115   5.287
  209POPC   C4A 2937  10.001   4.090   5.669
  209POPC   C1B 2938  10.455   4.154   4.684
  209POPC   C2B 2939  10.403   3.954   5.086
  209POPC   C3B 2940  10.426   4.239   5.415
  209POPC   C4B 2941  10.372   4.400   5.791
  210POPC   NC3 2942   7.888   3.240   4.045
  210POPC   PO4 2943   8.243   3.683   3.987
  210POPC   GL1 2944   8.105   3.531   4.406
  210POPC   GL2 2945   8.109   3.148   4.505
  210POPC   C1A 2946   8.168   3.513   4.859
  210POPC   D2A 2947   8.090   3.174   5.170
  210POPC   C3A 2948   7.990   3.356   5.580
  210POPC   C4A 2949   7.878   3.749   5.844
  210POPC   C1B 2950   7.728   3.274   4.778
  210POPC   C2B 2951   7.568   3.340   5.230
  210POPC   C3B 2952   7.494   3.428   5.696
  210POPC   C4B 2953   7.631   3.403   6.147
  211POPC   NC3 2954   0.251   8.856   4.017
  211POPC   PO4 2955   0.582   8.304   3.938
  211POPC   GL1 2956   0.542   8.512   4.314
  211POPC   GL2 2957   0.187   8.555   4.421
  211POPC   C1A 2958   0.520   8.323   4.714
  211POPC   D2A 2959   0.466   8.067   5.045
  211POPC   C3A 2960   0.426   8.312   5.408
  211POPC   C4A 2961   0.505   8.569   5.755
  211POPC   C1B 2962   0.439   8.913   4.634
  211POPC   C2B 2963   0.468   9.083   5.031
  211POPC   C3B 2964   0.355   8.883   5.392
  211POPC   C4B 2965   0.163   8.963   5.782
  212POPC   NC3 2966   2.312   6.763   3.873
  212POPC   PO4 2967   1.676   6.713   3.978
  212POPC   GL1 2968   1.822   6.778   4.386
  212POPC   GL2 2969   2.136   6.588   4.351
  212POPC   C1A 2970   1.766   6.630   4.795
  212POPC   D2A 2971   1.759   6.463   5.191
  212POPC   C3A 2972   1.732   6.634   5.586
  212POPC   C4A 2973   1.835   6.423   5.988
  212POPC   C1B 2974   2.144   6.274   4.698
  212POPC   C2B 2975   2.199   6.226   5.148
  212POPC   C3B 2976   2.102   6.254   5.577
  212POPC   C4B 2977   2.352   6.417   5.902
  213POPC   NC3 2978  10.154   4.475   3.833
  213POPC   PO4 2979  10.035   5.162   3.729
  213POPC   GL1 2980   9.988   4.868   4.133
  213POPC   GL2 2981  10.310   4.919   4.190
  213POPC   C1A 2982   9.982   4.682   4.613
  213POPC   D2A 2983  10.208   4.477   4.999
  213POPC   C3A 2984  10.035   4.587   5.409
  213POPC   C4A 2985   9.869   4.551   5.835
  213POPC   C1B 2986  10.258   5.101   4.599
  213POPC   C2B 2987  10.179   4.985   5.028
  213POPC   C3B 2988  10.091   5.079   5.466
  213POPC   C4B 2989  10.219   4.897   5.825
  214POPC   NC3 2990   3.348   2.577   3.794
  214POPC   PO4 2991   3.181   3.129   4.136
  214POPC   GL1 2992   3.509   2.801   4.251
  214POPC   GL2 2993   3.336   2.511   4.302
  214POPC   C1A 2994   3.772   2.718   4.647
  214POPC   D2A 2995   3.840   2.887   5.084
  214POPC   C3A 2996   3.690   2.795   5.521
  214POPC   C4A 2997   3.597   2.647   5.950
  214POPC   C1B 2998   3.283   2.766   4.714
  214POPC   C2B 2999   3.262   2.781   5.165
  214POPC   C3B 3000   3.204   2.613   5.595
  214POPC   C4B 3001   3.110   2.833   5.990
  215POPC   NC3 3002   1.528   8.771   3.815
  215POPC   PO4 3003   2.145   9.158   3.807
  215POPC   GL1 3004   2.022   8.913   4.179
  215POPC   GL2 3005   1.757   8.655   4.255
  215POPC   C1A 3006   2.055   8.838   4.634
  215POPC   D2A 3007   1.898   8.685   5.039
  215POPC   C3A 3008   2.094   8.730   5.422
  215POPC   C4A 3009   2.295   8.821   5.787
  215POPC   C1B 3010   1.670   8.435   4.653
  215POPC   C2B 3011   1.679   8.157   4.997
  215POPC   C3B 3012   1.876   8.224   5.381
  215POPC   C4B 3013   2.050   8.355   5.769
  216POPC   NC3 3014   0.387   9.401   3.719
  216POPC   PO4 3015  10.354   8.974   3.793
  216POPC   GL1 3016  10.435   9.154   4.258
  216POPC   GL2 3017   0.286   9.325   4.285
  216POPC   C1A 3018   0.027   9.240   4.728
  216POPC   D2A 3019   0.193   9.542   5.041
  216POPC   C3A 3020   0.305   9.384   5.447
  216POPC   C4A 3021   0.023   9.550   5.750
  216POPC   C1B 3022   0.536   9.453   4.679
  216POPC   C2B 3023   0.716   9.519   5.146
  216POPC   C3B 3024   0.682   9.723   5.641
  216POPC   C4B 3025   0.753   9.670   6.153
  217POPC   NC3 3026   4.140   7.922   3.877
  217POPC   PO4 3027   3.637   8.314   3.854
  217POPC   GL1 3028   3.792   8.076   4.250
  217POPC   GL2 3029   4.157   7.964   4.382
  217POPC   C1A 3030   3.770   7.838   4.670
  217POPC   D2A 3031   3.780   8.045   5.090
  217POPC   C3A 3032   3.888   7.821   5.482
  217POPC   C4A 3033   4.151   7.736   5.851
  217POPC   C1B 3034   4.349   8.127   4.805
  217POPC   C2B 3035   4.318   7.994   5.250
  217POPC   C3B 3036   4.618   7.843   5.601
  217POPC   C4B 3037   4.792   7.686   6.013
  218POPC   NC3 3038   0.550   7.088   4.026
  218POPC   PO4 3039   0.045   7.071   3.655
  218POPC   GL1 3040   0.115   7.107   4.245
  218POPC   GL2 3041   0.374   7.425   4.360
  218POPC   C1A 3042   0.168   7.146   4.724
  218POPC   D2A 3043   0.410   7.328   5.071
  218POPC   C3A 3044   0.299   7.357   5.516
  218POPC   C4A 3045   0.279   7.428   5.977
  218POPC   C1B 3046   0.697   7.188   4.649
  218POPC   C2B 3047   0.858   7.024   5.038
  218POPC   C3B 3048   0.805   7.249   5.408
  218POPC   C4B 3049   0.646   7.117   5.796
  219POPC   NC3 3050   0.946   0.458   4.226
  219POPC   PO4 3051   0.331   0.263   3.837
  219POPC   GL1 3052   0.444   0.429   4.217
  219POPC   GL2 3053   0.182   0.620   4.249
  219POPC   C1A 3054   0.489   0.483   4.694
  219POPC   D2A 3055   0.762   0.344   5.029
  219POPC   C3A 3056   0.789   0.628   5.378
  219POPC   C4A 3057   0.696   0.453   5.774
  219POPC   C1B 3058   0.090   0.235   4.527
  219POPC   C2B 3059   0.069   0.270   4.968
  219POPC   C3B 3060   0.312   0.374   5.325
  219POPC   C4B 3061   0.192   0.343   5.740
  220POPC   NC3 3062   6.284   2.899   4.202
  220POPC   PO4 3063   6.040   2.316   4.013
  220POPC   GL1 3064   6.214   2.400   4.408
  220POPC   GL2 3065   6.559   2.470   4.413
  220POPC   C1A 3066   6.329   2.417   4.847
  220POPC   D2A 3067   6.466   2.705   5.147
  220POPC   C3A 3068   6.335   2.563   5.550
  220POPC   C4A 3069   6.305   2.725   6.010
  220POPC   C1B 3070   6.834   2.399   4.711
  220POPC   C2B 3071   6.803   2.324   5.123
  220POPC   C3B 3072   6.903   2.620   5.422
  220POPC   C4B 3073   6.767   2.559   5.818
  221POPC   NC3 3074   1.724   8.158   4.076
  221POPC   PO4 3075   1.561   7.542   3.943
  221POPC   GL1 3076   1.987   7.723   4.205
  221POPC   GL2 3077   1.988   8.032   4.467
  221POPC   C1A 3078   2.272   7.656   4.628
  221POPC   D2A 3079   2.317   7.910   5.000
  221POPC   C3A 3080   2.124   7.719   5.383
  221POPC   C4A 3081   2.153   7.438   5.745
  221POPC   C1B 3082   1.735   7.732   4.661
  221POPC   C2B 3083   1.725   7.567   5.058
  221POPC   C3B 3084   1.616   7.659   5.464
  221POPC   C4B 3085   1.814   7.891   5.770
  222POPC   NC3 3086   1.060   7.773   3.818
  222POPC   PO4 3087   1.343   8.398   4.006
  222POPC   GL1 3088   1.299   8.205   4.373
  222POPC   GL2 3089   1.352   7.865   4.264
  222POPC   C1A 3090   1.153   8.253   4.788
  222POPC   D2A 3091   0.956   8.202   5.183
  222POPC   C3A 3092   1.303   8.249   5.473
  222POPC   C4A 3093   1.538   8.303   5.863
  222POPC   C1B 3094   1.229   7.761   4.638
  222POPC   C2B 3095   1.289   7.822   5.048
  222POPC   C3B 3096   1.109   7.781   5.413
  222POPC   C4B 3097   1.274   7.859   5.792
  223POPC   NC3 3098   0.215   7.897   3.869
  223POPC   PO4 3099   0.705   7.808   3.510
  223POPC   GL1 3100   0.651   7.820   4.107
  223POPC   GL2 3101   0.353   7.995   4.338
  223POPC   C1A 3102   0.733   7.839   4.607
  223POPC   D2A 3103   0.824   7.608   5.004
  223POPC   C3A 3104   0.611   7.751   5.399
  223POPC   C4A 3105   0.766   8.078   5.701
  223POPC   C1B 3106   0.202   7.746   4.733
  223POPC   C2B 3107   0.081   7.711   5.187
  223POPC   C3B 3108   0.160   7.830   5.634
  223POPC   C4B 3109   0.132   8.222   5.840
  224POPC   NC3 3110  10.193   3.703   4.022
  224POPC   PO4 3111   9.822   3.266   3.625
  224POPC   GL1 3112   9.859   3.244   4.143
  224POPC   GL2 3113  10.184   3.283   4.294
  224POPC   C1A 3114   9.877   3.425   4.644
  224POPC   D2A 3115  10.196   3.448   5.020
  224POPC   C3A 3116  10.153   3.618   5.448
  224POPC   C4A 3117  10.030   3.655   5.892
  224POPC   C1B 3118  10.435   3.158   4.649
  224POPC   C2B 3119  10.470   3.004   5.062
  224POPC   C3B 3120  10.329   3.093   5.475
  224POPC   C4B 3121  10.360   3.267   5.878
  225POPC   NC3 3122   1.921   0.522   4.011
  225POPC   PO4 3123   2.359   0.904   3.841
  225POPC   GL1 3124   2.334   0.615   4.278
  225POPC   GL2 3125   1.989   0.463   4.480
  225POPC   C1A 3126   2.272   0.774   4.712
  225POPC   D2A 3127   1.954   0.601   4.973
  225POPC   C3A 3128   2.129   0.626   5.343
  225POPC   C4A 3129   2.128   0.526   5.759
  225POPC   C1B 3130   1.692   0.213   4.692
  225POPC   C2B 3131   1.721   0.127   5.108
  225POPC   C3B 3132   1.655   0.453   5.393
  225POPC   C4B 3133   1.597   0.580   5.809
  226POPC   NC3 3134   7.234   1.506   3.812
  226POPC   PO4 3135   7.855   1.807   3.806
  226POPC   GL1 3136   7.589   1.624   4.195
  226POPC   GL2 3137   7.309   1.872   4.295
  226POPC   C1A 3138   7.486   1.585   4.689
  226POPC   D2A 3139   7.533   1.649   5.166
  226POPC   C3A 3140   7.168   1.638   5.472
  226POPC   C4A 3141   7.129   1.764   5.897
  226POPC   C1B 3142   7.149   1.989   4.741
  226POPC   C2B 3143   7.251   2.077   5.195
  226POPC   C3B 3144   7.062   2.175   5.619
  226POPC   C4B 3145   6.851   2.137   6.076
  227POPC   NC3 3146   7.940   8.006   3.943
  227POPC   PO4 3147   8.417   7.568   4.008
  227POPC   GL1 3148   8.163   7.633   4.344
  227POPC   GL2 3149   7.899   7.888   4.426
  227POPC   C1A 3150   8.075   7.562   4.765
  227POPC   D2A 3151   8.181   7.798   5.131
  227POPC   C3A 3152   8.118   7.588   5.529
  227POPC   C4A 3153   7.929   7.578   5.922
  227POPC   C1B 3154   7.637   7.827   4.798
  227POPC   C2B 3155   7.712   7.972   5.210
  227POPC   C3B 3156   7.633   7.900   5.635
  227POPC   C4B 3157   7.758   8.079   6.037
  228POPC   NC3 3158   4.335   2.723   3.858
  228POPC   PO4 3159   3.788   2.292   3.863
  228POPC   GL1 3160   3.877   2.369   4.278
  228POPC   GL2 3161   4.196   2.531   4.324
  228POPC   C1A 3162   3.962   2.256   4.712
  228POPC   D2A 3163   4.141   2.408   5.113
  228POPC   C3A 3164   4.167   2.599   5.497
  228POPC   C4A 3165   4.067   2.480   5.882
  228POPC   C1B 3166   4.282   2.710   4.743
  228POPC   C2B 3167   4.343   2.927   5.146
  228POPC   C3B 3168   4.296   3.082   5.578
  228POPC   C4B 3169   4.487   2.879   5.968
  229POPC   NC3 3170   9.687   5.347   3.983
  229POPC   PO4 3171   9.149   5.089   3.661
  229POPC   GL1 3172   9.244   4.933   4.174
  229POPC   GL2 3173   9.534   5.020   4.310
  229POPC   C1A 3174   9.188   5.068   4.661
  229POPC   D2A 3175   9.358   5.289   5.064
  229POPC   C3A 3176   9.201   5.142   5.511
  229POPC   C4A 3177   9.100   5.160   5.976
  229POPC   C1B 3178   9.712   5.112   4.711
  229POPC   C2B 3179   9.691   4.872   5.101
  229POPC   C3B 3180   9.533   4.741   5.501
  229POPC   C4B 3181   9.402   4.723   5.954
  230POPC   NC3 3182   7.972   7.203   3.894
  230POPC   PO4 3183   7.527   7.726   3.896
  230POPC   GL1 3184   7.635   7.477   4.319
  230POPC   GL2 3185   7.913   7.215   4.395
  230POPC   C1A 3186   7.601   7.319   4.774
  230POPC   D2A 3187   7.773   7.447   5.189
  230POPC   C3A 3188   7.554   7.392   5.616
  230POPC   C4A 3189   7.576   7.195   6.051
  230POPC   C1B 3190   8.066   7.026   4.787
  230POPC   C2B 3191   8.021   6.908   5.268
  230POPC   C3B 3192   7.982   7.064   5.737
  230POPC   C4B 3193   8.082   7.171   6.200
  231POPC   NC3 3194  10.428   6.347   3.919
  231POPC   PO4 3195   9.956   6.022   4.042
  231POPC   GL1 3196  10.166   6.278   4.347
  231POPC   GL2 3197  10.209   6.657   4.285
  231POPC   C1A 3198  10.294   6.313   4.774
  231POPC   D2A 3199  10.062   6.335   5.121
  231POPC   C3A 3200  10.226   6.085   5.448
  231POPC   C4A 3201  10.217   6.162   5.838
  231POPC   C1B 3202  10.291   6.809   4.739
  231POPC   C2B 3203  10.419   6.694   5.173
  231POPC   C3B 3204  10.139   6.593   5.566
  231POPC   C4B 3205   9.919   6.509   5.999
  232POPC   NC3 3206   5.631  10.320   3.897
  232POPC   PO4 3207   5.912   9.720   3.901
  232POPC   GL1 3208   5.891   9.999   4.244
  232POPC   GL2 3209   5.536  10.037   4.296
  232POPC   C1A 3210   5.814  10.097   4.705
  232POPC   D2A 3211   5.847  10.240   5.125
  232POPC   C3A 3212   6.048   9.981   5.449
  232POPC   C4A 3213   5.808  10.242   5.710
  232POPC   C1B 3214   5.225   9.972   4.591
  232POPC   C2B 3215   5.355  10.018   5.000
  232POPC   C3B 3216   5.532   9.928   5.393
  232POPC   C4B 3217   5.277   9.900   5.768
  233POPC   NC3 3218   0.650  10.351   3.795
  233POPC   PO4 3219   0.359   9.775   3.989
  233POPC   GL1 3220   0.412  10.061   4.293
  233POPC   GL2 3221   0.297  10.394   4.189
  233POPC   C1A 3222   0.503   9.980   4.728
  233POPC   D2A 3223   0.562   9.984   5.169
  233POPC   C3A 3224   0.251   9.880   5.440
  233POPC   C4A 3225   0.211  10.082   5.800
  233POPC   C1B 3226   0.566  10.482   4.549
  233POPC   C2B 3227   0.422  10.437   4.964
  233POPC   C3B 3228   0.285  10.384   5.373
  233POPC   C4B 3229   0.530  10.476   5.707
  234POPC   NC3 3230  10.466  10.059   3.959
  234POPC   PO4 3231  10.059   0.106   3.993
  234POPC   GL1 3232  10.254  10.381   4.313
  234POPC   GL2 3233  10.114  10.053   4.409
  234POPC   C1A 3234  10.278  10.395   4.753
  234POPC   D2A 3235  10.065   0.072   5.084
  234POPC   C3A 3236  10.321   0.168   5.420
  234POPC   C4A 3237  10.385  10.468   5.797
  234POPC   C1B 3238  10.475   9.897   4.615
  234POPC   C2B 3239   0.061  10.053   5.010
  234POPC   C3B 3240  10.335  10.157   5.379
  234POPC   C4B 3241  10.193  10.007   5.780
  235POPC   NC3 3242   3.500   0.666   3.979
  235POPC   PO4 3243   3.486   0.000   3.857
  235POPC   GL1 3244   3.595   0.128   4.256
  235POPC   GL2 3245   3.358   0.341   4.336
  235POPC   C1A 3246   3.618   0.084   4.729
  235POPC   D2A 3247   3.297   0.026   5.098
  235POPC   C3A 3248   3.399   0.179   5.542
  235POPC   C4A 3249   3.527   0.324   5.971
  235POPC   C1B 3250   3.144   0.346   4.707
  235POPC   C2B 3251   2.974   0.491   5.055
  235POPC   C3B 3252   2.959   0.363   5.440
  235POPC   C4B 3253   3.150   0.593   5.762
  236POPC   NC3 3254   9.719   6.329   3.796
  236POPC   PO4 3255   9.168   6.588   4.069
  236POPC   GL1 3256   9.625   6.507   4.256
  236POPC   GL2 3257   9.630   6.167   4.428
  236POPC   C1A 3258   9.846   6.549   4.649
  236POPC   D2A 3259   9.536   6.635   4.946
  236POPC   C3A 3260   9.649   6.522   5.335
  236POPC   C4A 3261   9.647   6.753   5.663
  236POPC   C1B 3262   9.631   6.147   4.916
  236POPC   C2B 3263   9.224   6.299   5.175
  236POPC   C3B 3264   9.223   6.424   5.606
  236POPC   C4B 3265   9.601   6.207   5.733
  237POPC   NC3 3266   1.205   4.639   3.934
  237POPC   PO4 3267   0.853   5.227   3.904
  237POPC   GL1 3268   1.123   5.003   4.295
  237POPC   GL2 3269   1.422   4.761   4.384
  237POPC   C1A 3270   1.080   4.846   4.757
  237POPC   D2A 3271   0.962   5.070   5.121
  237POPC   C3A 3272   1.054   4.942   5.551
  237POPC   C4A 3273   1.298   5.130   5.913
  237POPC   C1B 3274   1.554   4.985   4.734
  237POPC   C2B 3275   1.472   5.118   5.141
  237POPC   C3B 3276   1.552   4.892   5.513
  237POPC   C4B 3277   1.355   4.555   5.742
  238POPC   NC3 3278   8.672   8.406   4.106
  238POPC   PO4 3279   8.458   8.990   3.988
  238POPC   GL1 3280   8.543   8.847   4.368
  238POPC   GL2 3281   8.911   8.777   4.347
  238POPC   C1A 3282   8.676   8.836   4.782
  238POPC   D2A 3283   8.687   8.614   5.134
  238POPC   C3A 3284   8.766   8.862   5.468
  238POPC   C4A 3285   8.483   8.941   5.767
  238POPC   C1B 3286   8.920   8.398   4.703
  238POPC   C2B 3287   9.067   8.186   5.089
  238POPC   C3B 3288   8.915   8.351   5.508
  238POPC   C4B 3289   8.516   8.442   5.737
  239POPC   NC3 3290   7.287   8.138   3.901
  239POPC   PO4 3291   6.951   8.739   3.781
  239POPC   GL1 3292   7.014   8.715   4.228
  239POPC   GL2 3293   7.261   8.511   4.312
  239POPC   C1A 3294   7.029   8.859   4.659
  239POPC   D2A 3295   7.219   8.899   5.081
  239POPC   C3A 3296   6.962   8.651   5.357
  239POPC   C4A 3297   6.792   8.565   5.758
  239POPC   C1B 3298   7.543   8.754   4.630
  239POPC   C2B 3299   7.750   8.749   5.052
  239POPC   C3B 3300   7.553   8.849   5.476
  239POPC   C4B 3301   7.283   8.636   5.767
  240POPC   NC3 3302   4.318   1.001   3.779
  240POPC   PO4 3303   3.851   1.551   3.868
  240POPC   GL1 3304   4.045   1.246   4.158
  240POPC   GL2 3305   4.271   1.004   4.271
  240POPC   C1A 3306   4.018   1.279   4.621
  240POPC   D2A 3307   4.231   1.316   5.040
  240POPC   C3A 3308   4.083   1.161   5.440
  240POPC   C4A 3309   3.928   1.266   5.842
  240POPC   C1B 3310   4.358   0.922   4.669
  240POPC   C2B 3311   4.178   0.775   5.013
  240POPC   C3B 3312   4.235   0.663   5.405
  240POPC   C4B 3313   4.284   0.789   5.812
  241POPC   NC3 3314   9.916   9.225   3.908
  241POPC   PO4 3315  10.029   9.908   3.936
  241POPC   GL1 3316   9.776   9.689   4.206
  241POPC   GL2 3317  10.110   9.544   4.294
  241POPC   C1A 3318   9.812   9.706   4.664
  241POPC   D2A 3319  10.179   9.602   4.945
  241POPC   C3A 3320  10.167   9.660   5.395
  241POPC   C4A 3321   9.894   9.609   5.781
  241POPC   C1B 3322  10.008   9.237   4.591
  241POPC   C2B 3323  10.101   9.068   4.987
  241POPC   C3B 3324  10.356   9.174   5.308
  241POPC   C4B 3325  10.194   9.176   5.708
  242POPC   NC3 3326   6.355   7.787   3.995
  242POPC   PO4 3327   6.285   8.387   4.056
  242POPC   GL1 3328   6.661   8.325   4.246
  242POPC   GL2 3329   6.536   8.055   4.406
  242POPC   C1A 3330   6.856   8.375   4.649
  242POPC   D2A 3331   6.953   8.210   5.062
  242POPC   C3A 3332   6.690   8.181   5.416
  242POPC   C4A 3333   6.747   8.065   5.830
  242POPC   C1B 3334   6.523   8.028   4.860
  242POPC   C2B 3335   6.540   7.745   5.202
  242POPC   C3B 3336   6.412   7.741   5.628
  242POPC   C4B 3337   6.560   7.607   6.044
  243POPC   NC3 3338   8.579   0.774   3.952
  243POPC   PO4 3339   8.574   1.473   4.001
  243POPC   GL1 3340   8.738   1.166   4.300
  243POPC   GL2 3341   8.935   1.418   4.379
  243POPC   C1A 3342   8.934   1.049   4.718
  243POPC   D2A 3343   8.732   1.006   5.120
  243POPC   C3A 3344   8.837   0.726   5.462
  243POPC   C4A 3345   8.687   0.876   5.850
  243POPC   C1B 3346   8.722   1.569   4.748
  243POPC   C2B 3347   8.773   1.518   5.203
  243POPC   C3B 3348   8.619   1.332   5.583
  243POPC   C4B 3349   8.651   1.352   6.040
  244POPC   NC3 3350   2.474   9.483   3.832
  244POPC   PO4 3351   2.908   8.983   3.994
  244POPC   GL1 3352   2.565   9.197   4.248
  244POPC   GL2 3353   2.725   9.527   4.279
  244POPC   C1A 3354   2.326   9.290   4.637
  244POPC   D2A 3355   2.347   9.038   5.025
  244POPC   C3A 3356   2.289   9.203   5.431
  244POPC   C4A 3357   2.478   9.282   5.838
  244POPC   C1B 3358   2.835   9.377   4.692
  244POPC   C2B 3359   2.800   9.550   5.115
  244POPC   C3B 3360   2.559   9.645   5.491
  244POPC   C4B 3361   2.707   9.742   5.926
  245POPC   NC3 3362   5.782   8.606   4.019
  245POPC   PO4 3363   5.295   8.250   4.078
  245POPC   GL1 3364   5.291   8.658   4.293
  245POPC   GL2 3365   5.570   8.840   4.426
  245POPC   C1A 3366   5.228   8.700   4.747
  245POPC   D2A 3367   5.440   8.517   5.084
  245POPC   C3A 3368   5.298   8.658   5.447
  245POPC   C4A 3369   5.447   8.696   5.845
  245POPC   C1B 3370   5.795   8.666   4.726
  245POPC   C2B 3371   5.960   8.593   5.131
  245POPC   C3B 3372   5.815   8.491   5.521
  245POPC   C4B 3373   5.975   8.714   5.869
  246POPC   NC3 3374   9.451   3.073   3.837
  246POPC   PO4 3375   9.713   3.716   4.039
  246POPC   GL1 3376   9.445   3.474   4.341
  246POPC   GL2 3377   9.369   3.097   4.331
  246POPC   C1A 3378   9.399   3.607   4.756
  246POPC   D2A 3379   9.711   3.765   5.028
  246POPC   C3A 3380   9.642   3.710   5.503
  246POPC   C4A 3381   9.554   3.533   5.946
  246POPC   C1B 3382   9.502   3.088   4.761
  246POPC   C2B 3383   9.618   3.287   5.161
  246POPC   C3B 3384   9.364   3.264   5.556
  246POPC   C4B 3385   9.108   3.242   5.953
  247POPC   NC3 3386   0.172   1.512   3.874
  247POPC   PO4 3387   0.787   1.669   3.939
  247POPC   GL1 3388   0.501   1.601   4.284
  247POPC   GL2 3389   0.135   1.706   4.352
  247POPC   C1A 3390   0.496   1.683   4.711
  247POPC   D2A 3391   0.488   1.931   5.060
  247POPC   C3A 3392   0.580   1.709   5.414
  247POPC   C4A 3393   0.767   1.651   5.812
  247POPC   C1B 3394   0.205   2.083   4.636
  247POPC   C2B 3395   0.030   2.177   5.027
  247POPC   C3B 3396   0.222   2.179   5.429
  247POPC   C4B 3397   0.332   1.950   5.800
  248POPC   NC3 3398   9.607   0.240   3.954
  248POPC   PO4 3399   9.059   0.685   3.903
  248POPC   GL1 3400   9.355   0.645   4.245
  248POPC   GL2 3401   9.399   0.350   4.431
  248POPC   C1A 3402   9.391   0.771   4.700
  248POPC   D2A 3403   9.237   0.858   5.101
  248POPC   C3A 3404   9.483   0.767   5.459
  248POPC   C4A 3405   9.894   0.866   5.709
  248POPC   C1B 3406   9.402   0.027   4.776
  248POPC   C2B 3407   9.556  10.479   5.181
  248POPC   C3B 3408   9.477   0.219   5.556
  248POPC   C4B 3409   9.235   0.175   5.907
  249POPC   NC3 3410   8.557   3.349   3.874
  249POPC   PO4 3411   8.835   3.996   3.773
  249POPC   GL1 3412   8.753   3.709   4.162
  249POPC   GL2 3413   8.954   3.422   4.227
  249POPC   C1A 3414   8.574   3.436   4.548
  249POPC   D2A 3415   8.607   3.258   4.989
  249POPC   C3A 3416   8.427   3.538   5.294
  249POPC   C4A 3417   8.346   3.707   5.661
  249POPC   C1B 3418   9.029   3.262   4.668
  249POPC   C2B 3419   9.121   3.357   5.105
  249POPC   C3B 3420   8.868   3.376   5.487
  249POPC   C4B 3421   8.486   3.190   5.680
  250POPC   NC3 3422  10.221   5.690   3.797
  250POPC   PO4 3423   0.376   5.644   3.940
  250POPC   GL1 3424   0.103   5.530   4.287
  250POPC   GL2 3425  10.304   5.714   4.291
  250POPC   C1A 3426   0.018   5.502   4.745
  250POPC   D2A 3427   0.023   5.343   5.177
  250POPC   C3A 3428  10.257   5.555   5.456
  250POPC   C4A 3429  10.440   5.726   5.781
  250POPC   C1B 3430  10.130   5.849   4.637
  250POPC   C2B 3431  10.129   5.835   5.031
  250POPC   C3B 3432   9.780   5.870   5.334
  250POPC   C4B 3433   9.873   5.779   5.760
  251POPC   NC3 3434   9.130   9.824   3.754
  251POPC   PO4 3435   9.451   9.215   3.835
  251POPC   GL1 3436   9.241   9.439   4.166
  251POPC   GL2 3437   9.304   9.134   4.323
  251POPC   C1A 3438   9.248   9.656   4.592
  251POPC   D2A 3439   9.409   9.901   4.970
  251POPC   C3A 3440   9.480   9.726   5.378
  251POPC   C4A 3441   9.418   9.833   5.807
  251POPC   C1B 3442   9.496   9.242   4.701
  251POPC   C2B 3443   9.695   9.400   5.030
  251POPC   C3B 3444   9.800   9.306   5.388
  251POPC   C4B 3445   9.512   9.303   5.703
  252POPC   NC3 3446   3.100   5.527   4.028
  252POPC   PO4 3447   2.457   5.503   3.924
  252POPC   GL1 3448   2.630   5.589   4.297
  252POPC   GL2 3449   2.595   5.938   4.419
  252POPC   C1A 3450   2.667   5.495   4.731
  252POPC   D2A 3451   2.416   5.385   5.075
  252POPC   C3A 3452   2.646   5.314   5.483
  252POPC   C4A 3453   2.593   5.360   5.939
  252POPC   C1B 3454   2.582   5.979   4.881
  252POPC   C2B 3455   2.757   5.753   5.235
  252POPC   C3B 3456   2.818   5.761   5.689
  252POPC   C4B 3457   2.819   6.144   5.958
  253POPC   NC3 3458   2.032   3.487   3.837
  253POPC   PO4 3459   1.342   3.377   3.992
  253POPC   GL1 3460   1.707   3.211   4.199
  253POPC   GL2 3461   1.819   3.533   4.307
  253POPC   C1A 3462   1.860   3.153   4.643
  253POPC   D2A 3463   1.679   3.281   5.049
  253POPC   C3A 3464   1.862   3.228   5.452
  253POPC   C4A 3465   2.131   3.498   5.667
  253POPC   C1B 3466   1.808   3.675   4.736
  253POPC   C2B 3467   2.059   3.619   5.129
  253POPC   C3B 3468   1.738   3.737   5.396
  253POPC   C4B 3469   1.665   3.683   5.800
  254POPC   NC3 3470   0.322   4.181   3.831
  254POPC   PO4 3471   0.938   4.269   3.788
  254POPC   GL1 3472   0.617   4.261   4.215
  254POPC   GL2 3473   0.249   4.092   4.297
  254POPC   C1A 3474   0.479   4.360   4.657
  254POPC   D2A 3475   0.256   4.344   5.042
  254POPC   C3A 3476   0.402   4.440   5.435
  254POPC   C4A 3477   0.374   4.244   5.805
  254POPC   C1B 3478   0.538   3.838   4.531
  254POPC   C2B 3479   0.524   3.883   4.966
  254POPC   C3B 3480   0.347   3.929   5.381
  254POPC   C4B 3481   0.023   3.862   5.744
  255POPC   NC3 3482   5.036   1.280   3.911
  255POPC   PO4 3483   4.727   0.842   3.613
  255POPC   GL1 3484   4.732   0.927   4.079
  255POPC   GL2 3485   4.991   0.825   4.271
  255POPC   C1A 3486   4.722   1.213   4.468
  255POPC   D2A 3487   4.723   1.246   4.907
  255POPC   C3A 3488   4.588   1.002   5.272
  255POPC   C4A 3489   4.521   1.209   5.698
  255POPC   C1B 3490   5.045   0.849   4.697
  255POPC   C2B 3491   5.138   1.036   5.105
  255POPC   C3B 3492   4.992   1.234   5.478
  255POPC   C4B 3493   4.974   0.977   5.826
  256POPC   NC3 3494   8.067   8.776   3.833
  256POPC   PO4 3495   7.664   8.338   4.067
  256POPC   GL1 3496   7.834   8.394   4.410
  256POPC   GL2 3497   8.026   8.670   4.331
  256POPC   C1A 3498   7.872   8.277   4.826
  256POPC   D2A 3499   8.105   8.341   5.196
  256POPC   C3A 3500   7.797   8.371   5.516
  256POPC   C4A 3501   7.754   8.557   5.884
  256POPC   C1B 3502   8.234   8.607   4.734
  256POPC   C2B 3503   8.244   8.869   5.130
  256POPC   C3B 3504   8.057   8.810   5.559
  256POPC   C4B 3505   8.083   8.883   6.061
  257POPC   NC3 3506   2.782   4.404   3.626
  257POPC   PO4 3507   2.330   4.662   4.023
  257POPC   GL1 3508   2.233   4.453   4.420
  257POPC   GL2 3509   2.496   4.210   4.350
  257POPC   C1A 3510   2.225   4.518   4.884
  257POPC   D2A 3511   2.541   4.533   5.202
  257POPC   C3A 3512   2.624   4.281   5.556
  257POPC   C4A 3513   2.586   4.438   5.986
  257POPC   C1B 3514   2.647   4.257   4.775
  257POPC   C2B 3515   2.962   4.188   5.085
  257POPC   C3B 3516   3.137   4.253   5.500
  257POPC   C4B 3517   2.992   4.146   5.914
  258POPC   NC3 3518   5.720   1.323   3.825
  258POPC   PO4 3519   5.378   0.849   3.963
  258POPC   GL1 3520   5.399   1.195   4.248
  258POPC   GL2 3521   5.742   1.256   4.325
  258POPC   C1A 3522   5.314   1.284   4.678
  258POPC   D2A 3523   5.627   1.252   5.035
  258POPC   C3A 3524   5.491   1.268   5.473
  258POPC   C4A 3525   5.337   1.338   5.948
  258POPC   C1B 3526   5.822   0.952   4.637
  258POPC   C2B 3527   6.059   0.950   5.022
  258POPC   C3B 3528   6.022   1.179   5.426
  258POPC   C4B 3529   5.816   1.104   5.833
  259POPC   NC3 3530   9.268   5.881   4.062
  259POPC   PO4 3531   9.772   5.693   3.683
  259POPC   GL1 3532   9.704   5.693   4.308
  259POPC   GL2 3533   9.381   5.609   4.472
  259POPC   C1A 3534   9.702   5.645   4.820
  259POPC   D2A 3535   9.890   5.394   5.109
  259POPC   C3A 3536   9.681   5.376   5.468
  259POPC   C4A 3537   9.661   5.143   5.828
  259POPC   C1B 3538   9.228   5.955   4.715
  259POPC   C2B 3539   9.270   5.799   5.139
  259POPC   C3B 3540   9.213   5.899   5.564
  259POPC   C4B 3541   9.350   5.559   5.797
  260POPC   NC3 3542   6.110   9.284   3.884
  260POPC   PO4 3543   5.522   9.026   3.971
  260POPC   GL1 3544   5.756   9.273   4.252
  260POPC   GL2 3545   5.584   9.542   4.250
  260POPC   C1A 3546   5.815   9.196   4.708
  260POPC   D2A 3547   5.612   9.005   5.070
  260POPC   C3A 3548   5.714   9.001   5.507
  260POPC   C4A 3549   5.670   9.138   5.942
  260POPC   C1B 3550   5.534   9.612   4.697
  260POPC   C2B 3551   5.392   9.497   5.137
  260POPC   C3B 3552   5.476   9.478   5.605
  260POPC   C4B 3553   5.771   9.755   5.838
  261POPC   NC3 3554   9.336   6.973   3.874
  261POPC   PO4 3555   9.674   7.551   3.759
  261POPC   GL1 3556   9.572   7.577   4.193
  261POPC   GL2 3557   9.370   7.290   4.295
  261POPC   C1A 3558   9.700   7.476   4.610
  261POPC   D2A 3559   9.772   7.456   5.057
  261POPC   C3A 3560   9.540   7.220   5.365
  261POPC   C4A 3561   9.610   7.248   5.805
  261POPC   C1B 3562   9.167   7.388   4.678
  261POPC   C2B 3563   9.281   7.095   4.950
  261POPC   C3B 3564   9.202   6.822   5.278
  261POPC   C4B 3565   9.200   6.961   5.671
  262POPC   NC3 3566   2.712   1.849   3.664
  262POPC   PO4 3567   2.930   2.446   3.973
  262POPC   GL1 3568   2.933   2.195   4.434
  262POPC   GL2 3569   2.801   1.804   4.534
  262POPC   C1A 3570   2.772   2.145   4.890
  262POPC   D2A 3571   3.030   2.312   5.207
  262POPC   C3A 3572   2.975   2.139   5.625
  262POPC   C4A 3573   2.800   2.056   6.029
  262POPC   C1B 3574   2.432   1.761   4.733
  262POPC   C2B 3575   2.288   1.958   5.078
  262POPC   C3B 3576   2.526   1.991   5.435
  262POPC   C4B 3577   2.460   1.738   5.771
  263POPC   NC3 3578   4.139   1.976   3.912
  263POPC   PO4 3579   4.644   1.524   3.885
  263POPC   GL1 3580   4.337   1.653   4.285
  263POPC   GL2 3581   4.280   2.030   4.376
  263POPC   C1A 3582   4.152   1.750   4.760
  263POPC   D2A 3583   3.910   1.962   5.116
  263POPC   C3A 3584   3.879   1.774   5.522
  263POPC   C4A 3585   4.236   1.635   5.714
  263POPC   C1B 3586   4.467   2.190   4.747
  263POPC   C2B 3587   4.440   1.979   5.134
  263POPC   C3B 3588   4.324   2.113   5.536
  263POPC   C4B 3589   4.575   2.391   5.807
  264POPC   NC3 3590   3.124  10.235   3.942
  264POPC   PO4 3591   2.501   0.114   3.919
  264POPC   GL1 3592   2.733  10.397   4.246
  264POPC   GL2 3593   2.674  10.036   4.177
  264POPC   C1A 3594   2.919  10.380   4.682
  264POPC   D2A 3595   2.775  10.490   5.111
  264POPC   C3A 3596   3.004  10.367   5.502
  264POPC   C4A 3597   2.913  10.201   5.905
  264POPC   C1B 3598   2.471   9.882   4.582
  264POPC   C2B 3599   2.548  10.002   5.041
  264POPC   C3B 3600   2.524  10.162   5.484
  264POPC   C4B 3601   2.395  10.139   5.942
  265POPC   NC3 3602   4.122   0.260   3.766
  265POPC   PO4 3603   3.855   0.903   3.811
  265POPC   GL1 3604   3.925   0.630   4.244
  265POPC   GL2 3605   4.080   0.279   4.277
  265POPC   C1A 3606   3.758   0.617   4.689
  265POPC   D2A 3607   3.542   0.465   5.078
  265POPC   C3A 3608   3.784   0.482   5.471
  265POPC   C4A 3609   3.778   0.780   5.799
  265POPC   C1B 3610   4.204   0.372   4.676
  265POPC   C2B 3611   4.041   0.262   5.046
  265POPC   C3B 3612   4.216   0.105   5.387
  265POPC   C4B 3613   4.272   0.295   5.756
  266POPC   NC3 3614   1.231   6.790   3.895
  266POPC   PO4 3615   0.922   7.368   4.031
  266POPC   GL1 3616   1.139   7.112   4.291
  266POPC   GL2 3617   1.423   7.320   4.386
  266POPC   C1A 3618   1.323   6.837   4.582
  266POPC   D2A 3619   1.288   6.697   5.019
  266POPC   C3A 3620   1.234   6.882   5.456
  266POPC   C4A 3621   1.308   6.955   5.904
  266POPC   C1B 3622   1.205   7.290   4.789
  266POPC   C2B 3623   1.292   7.325   5.216
  266POPC   C3B 3624   1.216   7.372   5.661
  266POPC   C4B 3625   0.831   7.582   5.831
  267POPC   NC3 3626   7.872   2.267   3.835
  267POPC   PO4 3627   8.153   2.875   3.905
  267POPC   GL1 3628   8.084   2.556   4.230
  267POPC   GL2 3629   7.715   2.510   4.269
  267POPC   C1A 3630   8.075   2.399   4.652
  267POPC   D2A 3631   8.126   2.691   4.994
  267POPC   C3A 3632   8.058   2.544   5.409
  267POPC   C4A 3633   7.803   2.462   5.755
  267POPC   C1B 3634   7.740   2.778   4.628
  267POPC   C2B 3635   7.634   2.858   5.053
  267POPC   C3B 3636   7.743   2.916   5.453
  267POPC   C4B 3637   7.729   2.992   5.844
  268POPC   NC3 3638   1.702   9.307   3.845
  268POPC   PO4 3639   1.823   9.979   3.894
  268POPC   GL1 3640   2.037   9.821   4.262
  268POPC   GL2 3641   2.081   9.461   4.212
  268POPC   C1A 3642   1.999   9.704   4.711
  268POPC   D2A 3643   2.228   9.581   5.082
  268POPC   C3A 3644   1.961   9.577   5.467
  268POPC   C4A 3645   2.041   9.585   5.919
  268POPC   C1B 3646   1.790   9.262   4.514
  268POPC   C2B 3647   1.870   9.219   4.938
  268POPC   C3B 3648   1.749   9.120   5.327
  268POPC   C4B 3649   1.891   9.130   5.737
  269POPC   NC3 3650   9.026   1.657   3.942
  269POPC   PO4 3651   8.991   2.340   3.795
  269POPC   GL1 3652   8.758   2.254   4.233
  269POPC   GL2 3653   8.674   1.891   4.306
  269POPC   C1A 3654   8.868   2.208   4.689
  269POPC   D2A 3655   8.706   2.025   5.093
  269POPC   C3A 3656   8.742   2.179   5.501
  269POPC   C4A 3657   8.665   1.842   5.795
  269POPC   C1B 3658   8.390   2.000   4.689
  269POPC   C2B 3659   8.233   2.182   5.116
  269POPC   C3B 3660   8.241   2.109   5.602
  269POPC   C4B 3661   8.301   2.223   6.064
  270POPC   NC3 3662   2.829   2.892   3.937
  270POPC   PO4 3663   2.403   2.427   4.280
  270POPC   GL1 3664   2.540   2.803   4.360
  270POPC   GL2 3665   2.887   2.757   4.406
  270POPC   C1A 3666   2.460   2.995   4.728
  270POPC   D2A 3667   2.173   3.097   5.046
  270POPC   C3A 3668   2.246   2.878   5.380
  270POPC   C4A 3669   2.398   2.972   5.796
  270POPC   C1B 3670   2.809   2.634   4.802
  270POPC   C2B 3671   2.719   2.814   5.171
  270POPC   C3B 3672   2.644   2.541   5.480
  270POPC   C4B 3673   2.716   2.537   5.867
  271POPC   NC3 3674  10.102   8.640   3.602
  271POPC   PO4 3675  10.169   7.997   3.683
  271POPC   GL1 3676  10.120   8.331   4.059
  271POPC   GL2 3677  10.206   8.663   4.157
  271POPC   C1A 3678   9.940   8.372   4.506
  271POPC   D2A 3679  10.043   8.518   4.965
  271POPC   C3A 3680   9.951   8.339   5.362
  271POPC   C4A 3681   9.838   8.408   5.773
  271POPC   C1B 3682  10.277   8.787   4.591
  271POPC   C2B 3683   0.023   8.760   4.993
  271POPC   C3B 3684  10.389   8.674   5.440
  271POPC   C4B 3685  10.248   8.695   5.875
  272POPC   NC3 3686   8.874   4.773   3.896
  272POPC   PO4 3687   9.203   5.413   4.075
  272POPC   GL1 3688   8.836   5.266   4.340
  272POPC   GL2 3689   8.756   4.941   4.339
  272POPC   C1A 3690   8.647   5.170   4.758
  272POPC   D2A 3691   8.913   5.056   5.084
  272POPC   C3A 3692   8.675   5.054   5.420
  272POPC   C4A 3693   8.761   4.867   5.778
  272POPC   C1B 3694   8.827   4.690   4.699
  272POPC   C2B 3695   8.602   4.676   5.040
  272POPC   C3B 3696   8.554   4.548   5.394
  272POPC   C4B 3697   8.303   4.727   5.665
  273POPC   NC3 3698  10.128   2.966   3.802
  273POPC   PO4 3699   9.660   2.739   4.091
  273POPC   GL1 3700   9.978   2.837   4.435
  273POPC   GL2 3701  10.368   2.817   4.283
  273POPC   C1A 3702  10.001   2.981   4.866
  273POPC   D2A 3703   9.906   2.907   5.299
  273POPC   C3A 3704   9.869   3.165   5.680
  273POPC   C4A 3705   9.969   2.812   5.968
  273POPC   C1B 3706  10.417   2.617   4.702
  273POPC   C2B 3707  10.193   2.552   5.095
  273POPC   C3B 3708  10.178   2.548   5.540
  273POPC   C4B 3709  10.406   2.272   5.800
  274POPC   NC3 3710   0.415   0.722   3.775
  274POPC   PO4 3711   1.023   0.844   4.001
  274POPC   GL1 3712   0.673   0.914   4.331
  274POPC   GL2 3713   0.372   1.097   4.194
  274POPC   C1A 3714   0.586   0.968   4.812
  274POPC   D2A 3715   0.260   0.834   5.125
  274POPC   C3A 3716   0.341   0.807   5.590
  274POPC   C4A 3717   0.660   0.979   5.826
  274POPC   C1B 3718   0.220   1.263   4.585
  274POPC   C2B 3719   0.283   1.337   5.015
  274POPC   C3B 3720   0.350   1.265   5.405
  274POPC   C4B 3721   0.352   1.402   5.787
  275POPC   NC3 3722   4.263   9.576   3.803
  275POPC   PO4 3723   4.206  10.301   3.698
  275POPC   GL1 3724   4.213  10.293   4.131
  275POPC   GL2 3725   3.914  10.227   4.265
  275POPC   C1A 3726   4.312  10.370   4.578
  275POPC   D2A 3727   4.561   0.034   4.928
  275POPC   C3A 3728   4.672  10.354   5.370
  275POPC   C4A 3729   4.445  10.309   5.769
  275POPC   C1B 3730   3.948  10.020   4.669
  275POPC   C2B 3731   4.155  10.188   5.063
  275POPC   C3B 3732   4.044  10.112   5.507
  275POPC   C4B 3733   3.988  10.135   5.989
  276POPC   NC3 3734   6.550   8.767   4.027
  276POPC   PO4 3735   6.560   9.401   3.932
  276POPC   GL1 3736   6.569   9.224   4.298
  276POPC   GL2 3737   6.251   9.278   4.407
  276POPC   C1A 3738   6.652   9.250   4.750
  276POPC   D2A 3739   6.361   9.482   5.024
  276POPC   C3A 3740   6.419   9.506   5.465
  276POPC   C4A 3741   6.665   9.448   5.775
  276POPC   C1B 3742   6.049   9.639   4.614
  276POPC   C2B 3743   5.881   9.695   5.052
  276POPC   C3B 3744   5.933   9.461   5.433
  276POPC   C4B 3745   6.152   9.221   5.793
  277POPC   NC3 3746   1.346   5.351   3.960
  277POPC   PO4 3747   1.073   5.994   3.916
  277POPC   GL1 3748   1.029   5.644   4.242
  277POPC   GL2 3749   1.382   5.631   4.363
  277POPC   C1A 3750   1.044   5.368   4.650
  277POPC   D2A 3751   0.899   5.573   5.023
  277POPC   C3A 3752   1.059   5.445   5.442
  277POPC   C4A 3753   0.869   5.758   5.702
  277POPC   C1B 3754   1.286   5.810   4.701
  277POPC   C2B 3755   1.396   5.658   5.093
  277POPC   C3B 3756   1.275   5.882   5.422
  277POPC   C4B 3757   1.420   5.954   5.785
  278POPC   NC3 3758   1.137   3.859   3.713
  278POPC   PO4 3759   1.460   4.307   4.124
  278POPC   GL1 3760   1.298   4.257   4.465
  278POPC   GL2 3761   1.016   4.463   4.434
  278POPC   C1A 3762   1.441   4.189   4.873
  278POPC   D2A 3763   1.300   4.408   5.223
  278POPC   C3A 3764   1.359   4.089   5.516
  278POPC   C4A 3765   1.300   4.006   5.941
  278POPC   C1B 3766   0.929   4.185   4.801
  278POPC   C2B 3767   0.814   4.224   5.220
  278POPC   C3B 3768   0.889   4.308   5.647
  278POPC   C4B 3769   0.796   4.033   5.978
  279POPC   NC3 3770   9.985   1.983   4.004
  279POPC   PO4 3771   0.191   1.984   3.928
  279POPC   GL1 3772  10.390   2.171   4.258
  279POPC   GL2 3773  10.102   2.407   4.216
  279POPC   C1A 3774  10.227   1.904   4.610
  279POPC   D2A 3775  10.397   1.633   4.906
  279POPC   C3A 3776   0.066   1.707   5.302
  279POPC   C4A 3777  10.429   1.667   5.699
  279POPC   C1B 3778   9.981   2.347   4.646
  279POPC   C2B 3779   9.981   2.093   5.016
  279POPC   C3B 3780  10.173   2.054   5.406
  279POPC   C4B 3781  10.014   1.924   5.813
  280POPC   NC3 3782   9.258   4.054   3.980
  280POPC   PO4 3783   9.809   4.191   3.653
  280POPC   GL1 3784   9.723   4.230   4.136
  280POPC   GL2 3785   9.531   4.505   4.182
  280POPC   C1A 3786   9.456   4.110   4.578
  280POPC   D2A 3787   9.261   4.056   5.003
  280POPC   C3A 3788   9.423   4.229   5.406
  280POPC   C4A 3789   9.527   4.107   5.836
  280POPC   C1B 3790   9.470   4.629   4.623
  280POPC   C2B 3791   9.250   4.599   5.004
  280POPC   C3B 3792   9.045   4.645   5.378
  280POPC   C4B 3793   9.022   4.431   5.753
  281POPC   NC3 3794   2.595   7.935   3.783
  281POPC   PO4 3795   2.120   8.367   4.018
  281POPC   GL1 3796   2.457   8.058   4.267
  281POPC   GL2 3797   2.526   7.662   4.203
  281POPC   C1A 3798   2.702   8.144   4.678
  281POPC   D2A 3799   2.776   8.197   5.158
  281POPC   C3A 3800   2.400   8.146   5.447
  281POPC   C4A 3801   2.349   7.935   5.847
  281POPC   C1B 3802   2.799   7.650   4.591
  281POPC   C2B 3803   2.828   7.724   5.004
  281POPC   C3B 3804   2.642   7.705   5.390
  281POPC   C4B 3805   2.714   7.586   5.798
  282POPC   NC3 3806   0.619   6.092   3.975
  282POPC   PO4 3807   0.249   6.631   4.067
  282POPC   GL1 3808   0.523   6.465   4.335
  282POPC   GL2 3809   0.744   6.747   4.337
  282POPC   C1A 3810   0.389   6.497   4.770
  282POPC   D2A 3811   0.267   6.245   5.117
  282POPC   C3A 3812   0.119   6.387   5.516
  282POPC   C4A 3813   0.359   6.613   5.747
  282POPC   C1B 3814   0.898   6.568   4.701
  282POPC   C2B 3815   0.796   6.501   5.118
  282POPC   C3B 3816   0.753   6.729   5.465
  282POPC   C4B 3817   0.872   6.670   5.892
  283POPC   NC3 3818  10.088   7.556   3.565
  283POPC   PO4 3819  10.445   7.568   4.101
  283POPC   GL1 3820  10.107   7.651   4.362
  283POPC   GL2 3821  10.006   7.878   4.223
  283POPC   C1A 3822   9.926   7.902   4.723
  283POPC   D2A 3823  10.085   7.921   5.112
  283POPC   C3A 3824  10.105   7.597   5.407
  283POPC   C4A 3825  10.325   7.433   5.736
  283POPC   C1B 3826  10.361   8.095   4.482
  283POPC   C2B 3827  10.493   8.234   4.896
  283POPC   C3B 3828  10.442   8.186   5.344
  283POPC   C4B 3829  10.180   8.018   5.687
  284POPC   NC3 3830   8.402   7.133   4.180
  284POPC   PO4 3831   8.857   7.005   3.782
  284POPC   GL1 3832   8.910   7.078   4.212
  284POPC   GL2 3833   8.816   7.435   4.313
  284POPC   C1A 3834   8.855   6.968   4.657
  284POPC   D2A 3835   8.767   7.063   5.099
  284POPC   C3A 3836   9.029   7.317   5.354
  284POPC   C4A 3837   9.156   7.464   5.759
  284POPC   C1B 3838   8.579   7.428   4.737
  284POPC   C2B 3839   8.325   7.304   5.120
  284POPC   C3B 3840   8.431   7.166   5.506
  284POPC   C4B 3841   8.630   7.535   5.575
  285POPC   NC3 3842   6.460   0.309   3.964
  285POPC   PO4 3843   6.108   1.036   3.922
  285POPC   GL1 3844   6.254   0.658   4.262
  285POPC   GL2 3845   6.639   0.539   4.362
  285POPC   C1A 3846   6.129   0.510   4.691
  285POPC   D2A 3847   5.981   0.443   5.139
  285POPC   C3A 3848   6.213   0.680   5.450
  285POPC   C4A 3849   6.174   0.682   5.882
  285POPC   C1B 3850   6.602   0.281   4.698
  285POPC   C2B 3851   6.511   0.459   5.073
  285POPC   C3B 3852   6.590   0.309   5.453
  285POPC   C4B 3853   6.542   0.347   5.841
  286POPC   NC3 3854   4.494   9.353   4.198
  286POPC   PO4 3855   3.906   9.769   3.996
  286POPC   GL1 3856   4.240   9.796   4.274
  286POPC   GL2 3857   4.125   9.520   4.499
  286POPC   C1A 3858   4.446   9.864   4.659
  286POPC   D2A 3859   4.224   9.682   5.002
  286POPC   C3A 3860   4.429   9.817   5.362
  286POPC   C4A 3861   4.272   9.723   5.756
  286POPC   C1B 3862   4.244   9.176   4.784
  286POPC   C2B 3863   4.122   8.994   5.166
  286POPC   C3B 3864   4.243   9.237   5.527
  286POPC   C4B 3865   3.946   9.324   5.857
  287POPC   NC3 3866   8.433   4.096   3.961
  287POPC   PO4 3867   9.003   4.410   4.156
  287POPC   GL1 3868   8.588   4.474   4.246
  287POPC   GL2 3869   8.658   4.133   4.413
  287POPC   C1A 3870   8.360   4.454   4.633
  287POPC   D2A 3871   8.598   4.190   4.925
  287POPC   C3A 3872   8.391   4.066   5.287
  287POPC   C4A 3873   8.499   4.176   5.705
  287POPC   C1B 3874   8.920   3.821   4.638
  287POPC   C2B 3875   8.831   3.764   5.068
  287POPC   C3B 3876   8.900   4.078   5.385
  287POPC   C4B 3877   9.041   3.936   5.784
  288POPC   NC3 3878   8.225   1.495   3.680
  288POPC   PO4 3879   8.260   2.108   4.026
  288POPC   GL1 3880   7.887   2.036   4.318
  288POPC   GL2 3881   7.940   1.748   4.559
  288POPC   C1A 3882   7.648   2.107   4.697
  288POPC   D2A 3883   7.726   2.346   5.036
  288POPC   C3A 3884   7.769   2.084   5.382
  288POPC   C4A 3885   7.531   2.039   5.747
  288POPC   C1B 3886   7.983   1.780   4.965
  288POPC   C2B 3887   8.292   1.682   5.288
  288POPC   C3B 3888   8.207   1.590   5.716
  288POPC   C4B 3889   7.961   1.832   5.949
  289POPC   NC3 3890   9.379   2.092   3.656
  289POPC   PO4 3891   9.400   1.460   3.753
  289POPC   GL1 3892   9.469   1.828   4.124
  289POPC   GL2 3893   9.210   2.065   4.164
  289POPC   C1A 3894   9.692   1.845   4.582
  289POPC   D2A 3895   9.611   1.744   5.022
  289POPC   C3A 3896   9.663   1.910   5.403
  289POPC   C4A 3897   9.522   1.762   5.753
  289POPC   C1B 3898   9.169   1.817   4.542
  289POPC   C2B 3899   9.127   1.812   4.959
  289POPC   C3B 3900   9.136   1.839   5.410
  289POPC   C4B 3901   9.244   2.188   5.702
  290POPC   NC3 3902   3.259   8.537   3.668
  290POPC   PO4 3903   2.983   7.863   4.013
  290POPC   GL1 3904   3.325   7.854   4.320
  290POPC   GL2 3905   3.326   7.519   4.341
  290POPC   C1A 3906   3.411   8.190   4.691
  290POPC   D2A 3907   3.288   8.274   5.135
  290POPC   C3A 3908   3.498   8.144   5.539
  290POPC   C4A 3909   3.794   8.111   5.903
  290POPC   C1B 3910   3.286   7.697   4.787
  290POPC   C2B 3911   3.386   7.736   5.214
  290POPC   C3B 3912   3.152   7.777   5.584
  290POPC   C4B 3913   2.872   8.082   5.671
  291POPC   NC3 3914   0.361   5.176   3.926
  291POPC   PO4 3915   0.107   4.563   3.967
  291POPC   GL1 3916   0.259   4.671   4.311
  291POPC   GL2 3917   0.252   5.047   4.410
  291POPC   C1A 3918   0.059   4.676   4.691
  291POPC   D2A 3919   0.173   4.859   5.030
  291POPC   C3A 3920   0.027   4.794   5.424
  291POPC   C4A 3921   0.124   5.159   5.691
  291POPC   C1B 3922   0.595   4.875   4.624
  291POPC   C2B 3923   0.651   4.687   5.022
  291POPC   C3B 3924   0.548   4.916   5.398
  291POPC   C4B 3925   0.636   4.763   5.782
  292POPC   NC3 3926   0.946   8.579   3.849
  292POPC   PO4 3927   0.630   9.106   3.961
  292POPC   GL1 3928   0.898   8.905   4.273
  292POPC   GL2 3929   1.256   8.807   4.309
  292POPC   C1A 3930   0.907   8.690   4.680
  292POPC   D2A 3931   0.689   8.622   5.087
  292POPC   C3A 3932   0.944   8.637   5.473
  292POPC   C4A 3933   0.904   8.868   5.864
  292POPC   C1B 3934   1.425   8.886   4.727
  292POPC   C2B 3935   1.397   8.609   5.100
  292POPC   C3B 3936   1.583   8.673   5.508
  292POPC   C4B 3937   1.392   9.005   5.731
  293POPC   NC3 3938   7.939   9.743   3.994
  293POPC   PO4 3939   7.976   9.198   3.664
  293POPC   GL1 3940   8.005   9.179   4.187
  293POPC   GL2 3941   7.937   9.480   4.424
  293POPC   C1A 3942   7.993   9.057   4.681
  293POPC   D2A 3943   8.136   9.395   5.019
  293POPC   C3A 3944   8.201   9.288   5.457
  293POPC   C4A 3945   8.226   9.701   5.701
  293POPC   C1B 3946   7.679   9.438   4.763
  293POPC   C2B 3947   7.691   9.247   5.153
  293POPC   C3B 3948   7.776   9.542   5.507
  293POPC   C4B 3949   7.831   9.267   5.832
  294POPC   NC3 3950   3.484   1.228   3.799
  294POPC   PO4 3951   3.250   0.868   4.293
  294POPC   GL1 3952   3.606   1.051   4.363
  294POPC   GL2 3953   3.591   1.404   4.298
  294POPC   C1A 3954   3.587   1.107   4.804
  294POPC   D2A 3955   3.728   0.933   5.162
  294POPC   C3A 3956   3.413   0.847   5.422
  294POPC   C4A 3957   3.358   1.060   5.816
  294POPC   C1B 3958   3.648   1.631   4.676
  294POPC   C2B 3959   3.742   1.489   5.091
  294POPC   C3B 3960   3.583   1.344   5.458
  294POPC   C4B 3961   3.481   1.535   5.845
  295POPC   NC3 3962   3.216   8.257   4.062
  295POPC   PO4 3963   3.499   8.863   3.886
  295POPC   GL1 3964   3.541   8.632   4.269
  295POPC   GL2 3965   3.224   8.618   4.425
  295POPC   C1A 3966   3.657   8.753   4.665
  295POPC   D2A 3967   3.473   8.804   5.038
  295POPC   C3A 3968   3.528   8.628   5.419
  295POPC   C4A 3969   3.126   8.519   5.575
  295POPC   C1B 3970   3.213   9.023   4.649
  295POPC   C2B 3971   3.181   9.212   5.056
  295POPC   C3B 3972   3.239   9.025   5.441
  295POPC   C4B 3973   3.490   9.090   5.749
  296POPC   NC3 3974   2.923   7.349   4.038
  296POPC   PO4 3975   3.477   7.074   4.073
  296POPC   GL1 3976   3.122   7.044   4.407
  296POPC   GL2 3977   2.779   6.898   4.272
  296POPC   C1A 3978   3.077   7.235   4.848
  296POPC   D2A 3979   3.029   7.364   5.315
  296POPC   C3A 3980   3.013   7.170   5.767
  296POPC   C4A 3981   2.903   7.186   6.242
  296POPC   C1B 3982   2.624   7.178   4.609
  296POPC   C2B 3983   2.588   7.282   5.043
  296POPC   C3B 3984   2.564   7.205   5.493
  296POPC   C4B 3985   2.504   7.107   5.937
  297POPC   NC3 3986   1.497   6.196   3.990
  297POPC   PO4 3987   0.844   6.514   3.862
  297POPC   GL1 3988   1.102   6.411   4.232
  297POPC   GL2 3989   0.940   6.141   4.397
  297POPC   C1A 3990   1.354   6.327   4.629
  297POPC   D2A 3991   1.191   6.186   5.027
  297POPC   C3A 3992   1.321   6.378   5.411
  297POPC   C4A 3993   1.341   6.458   5.841
  297POPC   C1B 3994   0.727   6.075   4.802
  297POPC   C2B 3995   0.740   6.009   5.263
  297POPC   C3B 3996   0.888   6.248   5.617
  297POPC   C4B 3997   1.009   6.149   6.046
  298POPC   NC3 3998   0.800   5.658   3.761
  298POPC   PO4 3999   0.232   6.088   3.694
  298POPC   GL1 4000   0.197   6.047   4.222
  298POPC   GL2 4001   0.522   5.838   4.386
  298POPC   C1A 4002   0.164   5.992   4.675
  298POPC   D2A 4003   0.384   5.743   4.992
  298POPC   C3A 4004   0.228   5.823   5.384
  298POPC   C4A 4005   0.434   6.053   5.715
  298POPC   C1B 4006   0.538   5.438   4.584
  298POPC   C2B 4007   0.501   5.242   4.979
  298POPC   C3B 4008   0.550   5.421   5.392
  298POPC   C4B 4009   0.414   5.551   5.784
  299POPC   NC3 4010   1.352   0.563   3.775
  299POPC   PO4 4011   1.015   0.058   4.003
  299POPC   GL1 4012   1.328   0.126   4.316
  299POPC   GL2 4013   1.480   0.457   4.275
  299POPC   C1A 4014   1.194   0.204   4.758
  299POPC   D2A 4015   1.212   0.108   5.176
  299POPC   C3A 4016   1.188   0.311   5.534
  299POPC   C4A 4017   1.517   0.073   5.742
  299POPC   C1B 4018   1.426   0.663   4.659
  299POPC   C2B 4019   1.254   0.621   5.068
  299POPC   C3B 4020   1.288   0.838   5.434
  299POPC   C4B 4021   1.110   0.737   5.791
  300POPC   NC3 4022   3.925   8.706   3.956
  300POPC   PO4 4023   4.443   8.242   4.012
  300POPC   GL1 4024   4.162   8.458   4.325
  300POPC   GL2 4025   4.100   8.810   4.428
  300POPC   C1A 4026   3.917   8.339   4.676
  300POPC   D2A 4027   3.903   8.542   5.081
  300POPC   C3A 4028   3.967   8.356   5.472
  300POPC   C4A 4029   4.297   8.227   5.693
  300POPC   C1B 4030   4.320   8.663   4.799
  300POPC   C2B 4031   4.412   8.500   5.218
  300POPC   C3B 4032   4.321   8.725   5.594
  300POPC   C4B 4033   3.917   8.857   5.648
  301POPC   NC3 4034   9.881   1.156   3.806
  301POPC   PO4 4035   0.055   1.001   3.805
  301POPC   GL1 4036  10.325   1.203   4.111
  301POPC   GL2 4037  10.160   0.906   4.143
  301POPC   C1A 4038  10.207   1.368   4.516
  301POPC   D2A 4039   9.923   1.387   4.871
  301POPC   C3A 4040  10.048   1.577   5.294
  301POPC   C4A 4041  10.014   1.389   5.729
  301POPC   C1B 4042  10.384   0.889   4.533
  301POPC   C2B 4043  10.338   1.085   4.923
  301POPC   C3B 4044  10.343   1.166   5.345
  301POPC   C4B 4045  10.455   1.113   5.759
  302W        W 4046  10.379   3.613   8.987
  303W        W 4047   3.387   7.411   2.211
  304W        W 4048   7.958   2.747   1.833
  305W        W 4049   6.073   0.509   0.266
  306W        W 4050   9.225   2.140   8.566
  307W        W 4051   9.884   3.065   8.707
  308W        W 4052   8.192   5.497   9.713
  309W        W 4053   2.274   3.566   0.844
  310W        W 4054  10.057   3.184   0.963
  311W        W 4055   0.281   7.400  10.516
  312W        W 4056   5.266   1.888   2.175
  313W        W 4057   9.680   7.170   9.590
  314W        W 4058   9.884   7.967   8.958
  315W        W 4059   8.430   5.667   0.079
  316W        W 4060   8.860   0.752   3.215
  317W        W 4061   5.264   6.445   1.661
  318W        W 4062   8.012   6.176   1.470
  319W        W 4063   5.651  10.449  11.915
  320W        W 4064   6.516  10.339   1.441
  321W        W 4065   1.854   5.689  11.747
  322W        W 4066   3.507   6.670  11.488
  323W        W 4067   6.420   8.051   0.336
  324W        W 4068   8.950   7.688   9.849
  325W        W 4069   0.980   1.856   9.797
  326W        W 4070  10.270   1.775   9.127
  327W        W 4071   4.624   0.763  10.120
  328W        W 4072  10.006   8.581  10.918
  329W        W 4073   9.740   2.275   0.765
  330W        W 4074   1.873   6.973   2.767
  331W        W 4075   1.343   7.017   1.805
  332W        W 4076   9.551   2.097  11.782
  333W        W 4077   6.342   3.129  10.001
  334W        W 4078   2.190   2.852   2.557
  335W        W 4079   0.415   1.043   9.383
  336W        W 4080   8.740   2.243   2.143
  337W        W 4081   8.905   8.833  10.589
  338W        W 4082   4.964   0.465   1.498
  339W        W 4083   2.726   9.481  11.135
  340W        W 4084   3.510   7.372   2.986
  341W        W 4085   9.103   0.959   2.772
  342W        W 4086   1.370   2.554   0.099
  343W        W 4087   2.380   4.670   2.679
  344W        W 4088   6.593  10.454   3.616
  345W        W 4089  10.462   4.227   9.667
  346W        W 4090   7.006  10.291   1.712
  347W        W 4091   7.412   3.678   9.885
  348W        W 4092   1.640   6.776  10.320
  349W        W 4093  10.334   5.058   2.048
  350W        W 4094   8.441   5.604   0.612
  351W        W 4095   3.580   6.890  11.032
  352W        W 4096   6.973   4.102   1.896
  353W        W 4097   4.693   4.168  10.388
  354W        W 4098   8.514   7.674   9.064
  355W        W 4099   5.151  10.103  10.706
  356W        W 4100   8.537   7.645   9.575
  357W        W 4101   6.415   9.129   2.056
  358W        W 4102   2.275   1.279   1.685
  359W        W 4103   7.583   4.681   9.365
  360W        W 4104   0.882   0.839   0.291
  361W        W 4105   4.800   8.448   9.706
  362W        W 4106   5.299   4.786   0.326
  363W        W 4107   8.393   3.217   1.888
  364W        W 4108   0.428   0.798   1.368
  365W        W 4109   8.899   8.156   0.222
  366W        W 4110   5.178   3.037  11.379
  367W        W 4111   9.408   2.615   3.579
  368W        W 4112   2.165   1.849   3.072
  369W        W 4113   4.843   0.943   1.749
  370W        W 4114   8.452   0.229   1.749
  371W        W 4115   8.974   9.104  10.151
  372W        W 4116   9.236   1.377   1.098
  373W        W 4117   8.036   6.064   2.916
  374W        W 4118   6.150   3.716   0.681
  375W        W 4119   4.914   7.930   0.225
  376W        W 4120   8.718   9.778  10.952
  377W        W 4121   0.940   8.629   9.478
  378W        W 4122   5.689   9.440  10.205
  379W        W 4123   0.983   7.193   2.615
  380W        W 4124   1.923   0.939   1.749
  381W        W 4125   4.575   9.900   9.795
  382W        W 4126   6.704   9.702  11.720
  383W        W 4127   0.985   4.664   2.925
  384W        W 4128   7.131   3.551  10.473
  385W        W 4129   8.116   7.344   1.648
  386W        W 4130   4.775   2.192   2.898
  387W        W 4131   9.660   9.852   0.738
  388W        W 4132   8.440   9.551   3.240
  389W        W 4133   6.690   4.585   9.184
  390W        W 4134   7.026   9.447  10.229
  391W        W 4135   0.778   7.734   0.013
  392W        W 4136   5.439   7.578  10.483
  393W        W 4137   7.498   6.264  11.821
  394W        W 4138   1.609   0.559   1.758
  395W        W 4139   7.814   1.230   2.956
  396W        W 4140   0.918   3.724   8.821
  397W        W 4141   3.512   2.394  11.378
  398W        W 4142   4.053   9.637   9.788
  399W        W 4143   3.093   5.263   2.783
  400W        W 4144   7.189   4.358   3.330
  401W        W 4145   9.413   8.065   2.569
  402W        W 4146   7.702   1.443   9.501
  403W        W 4147   2.257   5.472   8.610
  404W        W 4148   8.166   3.743   2.913
  405W        W 4149   9.788   8.550   1.537
  406W        W 4150   7.603   4.570   3.122
  407W        W 4151   0.786  10.361   0.652
  408W        W 4152   2.612   2.720   2.255
  409W        W 4153   8.108   9.285   9.325
  410W        W 4154   1.722   4.495   8.692
  411W        W 4155   0.392   4.361   9.934
  412W        W 4156   7.897  10.264  10.561
  413W        W 4157   1.190   9.161  11.189
  414W        W 4158   7.029   8.199  11.922
  415W        W 4159   1.269   3.599   9.616
  416W        W 4160   6.356   9.776  11.319
  417W        W 4161   3.652   0.460   0.495
  418W        W 4162   9.255   7.177   2.939
  419W        W 4163   6.700   9.402  11.228
  420W        W 4164   8.079   1.239  10.131
  421W        W 4165   7.865   0.441   0.021
  422W        W 4166   7.726   2.695   8.823
  423W        W 4167  10.246   3.426   3.378
  424W        W 4168   0.950   0.021   1.776
  425W        W 4169   4.174   2.497  11.762
  426W        W 4170   4.742   4.112   2.209
  427W        W 4171   5.344   6.093   3.329
  428W        W 4172   7.457   8.577   3.662
  429W        W 4173   2.067   0.919   3.270
  430W        W 4174   4.288   0.861   1.855
  431W        W 4175  10.093   6.838  11.776
  432W        W 4176   1.996   9.118   1.223
  433W        W 4177   7.523   7.680   2.738
  434W        W 4178   1.767   2.099   0.378
  435W        W 4179   9.899   2.831  10.072
  436W        W 4180   0.228   4.657   9.548
  437W        W 4181   4.489   3.147   3.636
  438W        W 4182   6.514   5.025  11.577
  439W        W 4183   7.887   1.586   3.324
  440W        W 4184   1.893   0.649   8.901
  441W        W 4185   5.012   6.681   0.293
  442W        W 4186   3.731   3.724   1.970
  443W        W 4187   4.109   8.516  10.934
  444W        W 4188   1.270   0.506   2.789
  445W        W 4189   4.541   1.707   1.915
  446W        W 4190   8.199   5.725   9.206
  447W        W 4191   6.914   9.910   0.363
  448W        W 4192   3.441   0.771   0.870
  449W        W 4193   9.549   5.567   2.180
  450W        W 4194   6.645   9.958   3.085
  451W        W 4195   9.227   4.474   3.690
  452W        W 4196   5.075   5.256  11.411
  453W        W 4197   6.760   9.461   2.970
  454W        W 4198  10.323  10.364   2.453
  455W        W 4199   8.387   0.224  11.335
  456W        W 4200   2.856   1.298   8.794
  457W        W 4201   6.088   3.793  11.196
  458W        W 4202   0.746   8.625   1.762
  459W        W 4203   2.170   7.188   1.259
  460W        W 4204   9.519   9.583   2.457
  461W        W 4205   6.687   4.094  11.839
  462W        W 4206   6.942   4.140   9.299
  463W        W 4207   3.236   2.303   2.885
  464W        W 4208   8.166   3.743   0.289
  465W        W 4209   1.773   2.267  11.865
  466W        W 4210   8.029   1.083   3.383
  467W        W 4211   1.497  10.314  11.887
  468W        W 4212   5.483   6.639   9.437
  469W        W 4213   2.089   0.801   0.860
  470W        W 4214   5.947   8.177   0.516
  471W        W 4215  10.351   2.000   1.571
  472W        W 4216   6.634   4.084   9.697
  473W        W 4217   8.998   0.286   9.148
  474W        W 4218   8.058   4.700   2.939
  475W        W 4219   5.130   2.499   1.715
  476W        W 4220   3.063   8.265   2.569
  477W        W 4221   7.413   8.944  11.729
  478W        W 4222   2.887   0.351  11.815
  479W        W 4223  10.397   0.237   1.664
  480W        W 4224   1.950   0.885   0.373
  481W        W 4225   9.267   8.374   3.560
  482W        W 4226   9.839   6.418   9.020
  483W        W 4227   6.044   9.170  11.931
  484W        W 4228   9.415   6.632  10.848
  485W        W 4229   7.551   8.841   9.295
  486W        W 4230   2.385   4.229   9.869
  487W        W 4231   5.497   3.282   1.259
  488W        W 4232   4.497   9.954  11.322
  489W        W 4233   5.234   3.732   1.166
  490W        W 4234   5.023   0.739   9.771
  491W        W 4235   5.130   0.786   9.268
  492W        W 4236   1.297   5.044   3.542
  493W        W 4237   8.129   4.191  10.015
  494W        W 4238   2.919   2.402   3.278
  495W        W 4239   8.537   8.442  11.463
  496W        W 4240   9.775   2.370  10.309
  497W        W 4241   2.360   6.283   8.817
  498W        W 4242   5.960   6.294   9.497
  499W        W 4243   6.130   3.741   1.196
  500W        W 4244   2.802   7.410   0.987
  501W        W 4245   9.327   5.152  10.510
  502W        W 4246   6.850   2.099   1.673
  503W        W 4247   7.221   5.334   2.099
  504W        W 4248   6.123   6.026   2.533
  505W        W 4249   3.283   1.347   2.521
  506W        W 4250   0.087   3.897   0.778
  507W        W 4251   0.197   1.279   2.280
  508W        W 4252  10.036   3.974   8.744
  509W        W 4253   7.297   5.865   8.144
  510W        W 4254   2.772   5.858   9.477
  511W        W 4255  10.158   4.261  10.084
  512W        W 4256   2.165   5.224   2.947
  513W        W 4257   3.822   2.794  11.523
  514W        W 4258   8.319   6.500   0.036
  515W        W 4259   6.853   0.120  10.823
  516W        W 4260   6.659   4.550   1.909
  517W        W 4261   5.633   6.528   3.255
  518W        W 4262   6.157   3.724   2.805
  519W        W 4263   7.708   3.538   2.896
  520W        W 4264   6.570   5.948   1.820
  521W        W 4265   4.612   5.444   2.402
  522W        W 4266   2.915   3.380   0.322
  523W        W 4267   5.159   0.841   0.662
  524W        W 4268   1.414   7.579   1.146
  525W        W 4269   2.815   2.730  11.766
  526W        W 4270   6.488   1.450   2.751
  527W        W 4271   1.824   5.892   9.405
  528W        W 4272   3.579   2.355   2.201
  529W        W 4273   9.997   0.029  10.476
  530W        W 4274   6.516   1.670  10.068
  531W        W 4275   5.819   6.247   4.200
  532W        W 4276   6.718   7.028   0.109
  533W        W 4277   7.715   4.324  11.840
  534W        W 4278   9.341   8.579   9.485
  535W        W 4279   9.068  10.222  10.872
  536W        W 4280   9.120   4.678  10.562
  537W        W 4281   4.221   1.258  10.598
  538W        W 4282   9.899   4.742   1.231
  539W        W 4283   1.673   6.098   0.754
  540W        W 4284   9.655   4.161  10.058
  541W        W 4285   3.471   2.279   3.354
  542W        W 4286   0.454   5.255   9.778
  543W        W 4287   0.389   4.533   2.451
  544W        W 4288   2.402   6.034  10.325
  545W        W 4289   5.533  10.466  10.468
  546W        W 4290   1.931   0.692   2.203
  547W        W 4291   7.674   3.541   8.918
  548W        W 4292   7.984   1.876   9.334
  549W        W 4293   6.638   5.457   0.464
  550W        W 4294   9.810   7.166  10.553
  551W        W 4295  10.154   4.664  10.401
  552W        W 4296   3.753   6.624  10.638
  553W        W 4297   9.554   2.621   3.036
  554W        W 4298   7.555   1.135  11.474
  555W        W 4299   6.619   8.631   2.720
  556W        W 4300   4.562   1.803   3.322
  557W        W 4301   4.960   2.759   8.003
  558W        W 4302   4.192   0.578   9.908
  559W        W 4303   6.469   5.674   2.260
  560W        W 4304   8.917   5.070   9.536
  561W        W 4305   8.915   2.161   0.496
  562W        W 4306   8.461   2.809   2.212
  563W        W 4307   2.167   4.708   9.871
  564W        W 4308   1.381   0.707   0.351
  565W        W 4309   7.883   7.439   1.203
  566W        W 4310   6.912   3.164   1.220
  567W        W 4311  10.117   5.068  10.076
  568W        W 4312   0.799   2.775   9.712
  569W        W 4313   5.212   4.313   2.308
  570W        W 4314   1.198   4.769   9.621
  571W        W 4315   6.582   5.875   0.192
  572W        W 4316   2.020   8.022  11.931
  573W        W 4317   4.728   4.950  11.642
  574W        W 4318   0.624   1.688   1.728
  575W        W 4319   7.088   5.588  11.919
  576W        W 4320   3.350   1.875   2.176
  577W        W 4321   8.854   4.245   1.544
  578W        W 4322   0.336   9.904   1.778
  579W        W 4323   0.474   5.637   1.896
  580W        W 4324   8.489   8.911   8.787
  581W        W 4325   6.072   6.950   2.762
  582W        W 4326   6.243   6.545   9.871
  583W        W 4327   2.694   5.212   3.123
  584W        W 4328   7.153   6.553   9.387
  585W        W 4329   3.772   2.574   0.058
  586W        W 4330   3.257   8.231   0.563
  587W        W 4331   9.355   7.340   9.208
  588W        W 4332   6.681   9.241   0.673
  589W        W 4333   3.105   3.337   2.584
  590W        W 4334   9.419   7.529   2.480
  591W        W 4335   9.051   4.119   0.407
  592W        W 4336   4.507   4.106   0.672
  593W        W 4337   5.199   7.065   9.307
  594W        W 4338   5.109   9.939   9.040
  595W        W 4339   1.950   6.728   9.907
  596W        W 4340   3.788   6.079  10.500
  597W        W 4341   5.914   9.792   3.403
  598W        W 4342   9.438   3.788   0.434
  599W        W 4343   0.873   0.335  10.502
  600W        W 4344   2.345   4.580   0.988
  601W        W 4345   6.657   1.773   8.641
  602W        W 4346   2.714   3.530   3.369
  603W        W 4347   7.712   3.712   3.854
  604W        W 4348   6.044   3.220  10.800
  605W        W 4349   1.306   3.825   9.151
  606W        W 4350   9.535   4.738   1.943
  607W        W 4351   0.878   8.336  11.194
  608W        W 4352   3.613   1.536   3.402
  609W        W 4353   1.230   7.488   8.829
  610W        W 4354   4.801   1.027   1.212
  611W        W 4355   7.685   2.808   1.345
  612W        W 4356   1.337   2.396  11.057
  613W        W 4357   4.614   2.160  10.591
  614W        W 4358   3.240   9.739   9.170
  615W        W 4359   9.281   6.293   9.789
  616W        W 4360   4.079   8.408   9.081
  617W        W 4361   6.983   1.841  11.009
  618W        W 4362   4.120   6.003  11.785
  619W        W 4363   3.486   0.981   2.184
  620W        W 4364   9.035   1.680   0.650
  621W        W 4365   5.152   3.844   0.660
  622W        W 4366   3.358   5.007   9.848
  623W        W 4367   2.133   5.686  10.014
  624W        W 4368   4.558   2.801   8.826
  625W        W 4369   1.574   0.285   9.063
  626W        W 4370   6.932   7.009   3.503
  627W        W 4371   7.680   1.055   9.835
  628W        W 4372   2.393   7.361   0.221
  629W        W 4373   7.625   4.129  10.015
  630W        W 4374   6.142   8.365   1.873
  631W        W 4375   4.793   4.583   2.439
  632W        W 4376   7.253   3.624  11.969
  633W        W 4377   3.626   6.114   2.661
  634W        W 4378   4.754   7.361   0.979
  635W        W 4379   2.412   6.554  10.077
  636W        W 4380   7.504   0.822  11.863
  637W        W 4381   5.017   6.489  10.354
  638W        W 4382   3.206  10.299  11.400
  639W        W 4383   9.878   8.468   9.058
  640W        W 4384   9.206   5.730   0.696
  641W        W 4385   0.360   5.952   0.387
  642W        W 4386  10.088   2.795   1.766
  643W        W 4387   5.513   5.137  10.924
  644W        W 4388   2.146   2.070   9.956
  645W        W 4389   3.296   8.387  10.493
  646W        W 4390   4.746   0.030   1.992
  647W        W 4391  10.086   8.282   9.953
  648W        W 4392   5.674   4.143   9.526
  649W        W 4393   4.079   2.346   2.301
  650W        W 4394   4.509   4.206   1.186
  651W        W 4395   7.985  10.428   0.429
  652W        W 4396   9.446   6.751   9.915
  653W        W 4397   0.048   6.560  11.062
  654W        W 4398   1.741   6.929   3.248
  655W        W 4399   9.019   4.278   1.016
  656W        W 4400   1.931   8.780  10.536
  657W        W 4401   8.630   7.227   2.301
  658W        W 4402   9.828   1.369   0.257
  659W        W 4403   3.307   5.070   8.377
  660W        W 4404   2.326   2.097   1.030
  661W        W 4405   9.311   7.692   2.964
  662W        W 4406   6.809   5.977   8.665
  663W        W 4407   5.238   5.783   9.081
  664W        W 4408   7.604   5.696   2.137
  665W        W 4409   4.839   2.675  11.268
  666W        W 4410   9.081   2.307   1.386
  667W        W 4411   5.666   5.619   1.087
  668W        W 4412   5.906   8.627   1.498
  669W        W 4413   4.052   3.284   2.302
  670W        W 4414   6.089   0.301   2.484
  671W        W 4415   9.469   9.449   8.941
  672W        W 4416   3.826   0.039   1.678
  673W        W 4417   4.990   3.231   3.634
  674W        W 4418  10.070   3.628   1.710
  675W        W 4419   1.219   4.220   1.942
  676W        W 4420   0.340   3.550   3.606
  677W        W 4421   8.055   8.636  11.019
  678W        W 4422   6.517   3.598  11.727
  679W        W 4423   5.343  10.376   2.934
  680W        W 4424   5.050   6.064   1.408
  681W        W 4425   7.986   1.776   0.803
  682W        W 4426   0.826   0.948  11.803
  683W        W 4427   9.827   6.973   0.947
  684W        W 4428   1.951   3.682  11.923
  685W        W 4429   6.553   0.576   2.191
  686W        W 4430   0.282   2.063   1.856
  687W        W 4431   0.359   3.950  10.532
  688W        W 4432   6.232   4.685   0.519
  689W        W 4433   9.626   0.579   0.099
  690W        W 4434   0.540   4.746   1.989
  691W        W 4435   9.933   2.295   1.718
  692W        W 4436  10.255   7.784   9.794
  693W        W 4437   6.736   7.280   2.204
  694W        W 4438   0.814   8.573   2.253
  695W        W 4439   2.339   1.558   9.996
  696W        W 4440   8.635   6.534   1.895
  697W        W 4441   4.742   0.365   3.436
  698W        W 4442   1.952  10.407   3.391
  699W        W 4443   0.278   4.823  11.128
  700W        W 4444   7.190   1.872   8.555
  701W        W 4445   2.010   3.950   9.337
  702W        W 4446   3.693   7.629   2.587
  703W        W 4447   8.933   3.114   0.558
  704W        W 4448   7.826   3.092   3.115
  705W        W 4449   3.734   0.192   3.459
  706W        W 4450   8.022   8.340   3.096
  707W        W 4451   4.772   0.340   0.029
  708W        W 4452   5.217   6.026   1.932
  709W        W 4453   8.532   9.526   2.695
  710W        W 4454   1.239   5.746   8.595
  711W        W 4455   5.599   3.434   8.990
  712W        W 4456   7.915   5.265   9.091
  713W        W 4457   0.980   8.087   9.521
  714W        W 4458   2.327   6.992   8.891
  715W        W 4459   6.994  10.427   8.469
  716W        W 4460   7.133   7.402   1.877
  717W        W 4461   1.647  10.335   2.428
  718W        W 4462   3.208   0.333   0.819
  719W        W 4463   5.169   7.874  10.831
  720W        W 4464   7.120   4.216  10.928
  721W        W 4465   8.439   8.851   9.297
  722W        W 4466   5.687   8.917   2.190
  723W        W 4467   9.745   6.976   9.106
  724W        W 4468   5.121   7.154   0.466
  725W        W 4469   5.511   5.137   2.603
  726W        W 4470   6.445   7.440   0.375
  727W        W 4471   8.191   4.882   8.514
  728W        W 4472   6.409   7.393  11.185
  729W        W 4473   7.713   0.556   9.923
  730W        W 4474   1.403   1.454   1.759
  731W        W 4475   0.313   7.882   2.310
  732W        W 4476   1.557   8.410   1.664
  733W        W 4477   6.040   4.234  11.468
  734W        W 4478   0.083   4.708   0.425
  735W        W 4479   3.641   9.930   9.991
  736W        W 4480   9.532   5.274  10.988
  737W        W 4481   9.699   0.122   9.990
  738W        W 4482   3.777   1.912   0.416
  739W        W 4483   1.262   3.788   0.036
  740W        W 4484   0.425   5.730  11.032
  741W        W 4485   9.920   2.595   3.405
  742W        W 4486   1.145   7.834   3.267
  743W        W 4487   5.670   1.829   0.033
  744W        W 4488   2.131   9.264   8.955
  745W        W 4489   7.560   6.652   1.115
  746W        W 4490   5.647   9.563   8.842
  747W        W 4491   5.695   2.176   2.941
  748W        W 4492  10.055   3.523  10.723
  749W        W 4493   7.426   9.722   9.036
  750W        W 4494   1.761   7.593  11.824
  751W        W 4495   1.443   0.069  11.291
  752W        W 4496   4.315   6.667   1.602
  753W        W 4497   9.988   8.805  10.016
  754W        W 4498   0.572   0.011  10.796
  755W        W 4499   4.212  10.054   2.412
  756W        W 4500   5.334  10.067   9.529
  757W        W 4501   4.495   1.317   8.723
  758W        W 4502   0.443   0.828  10.996
  759W        W 4503   9.409   9.890   9.445
  760W        W 4504   2.067   3.174   0.027
  761W        W 4505   9.028   2.713  11.251
  762W        W 4506   7.241   7.915   9.117
  763W        W 4507   3.273   7.912   2.282
  764W        W 4508   1.359   1.983  10.735
  765W        W 4509   6.969   2.598   1.854
  766W        W 4510   8.970   3.132   0.057
  767W        W 4511   2.584  10.476   8.963
  768W        W 4512   2.171   8.948  11.792
  769W        W 4513   6.567   4.044   1.009
  770W        W 4514   9.899   9.990   9.263
  771W        W 4515   3.075   6.267   3.729
  772W        W 4516   1.678  10.368   1.307
  773W        W 4517   2.348   9.496   2.771
  774W        W 4518   9.610   8.442   0.302
  775W        W 4519   3.355   1.926  10.358
  776W        W 4520   1.311   0.630   1.223
  777W        W 4521   7.399   8.157  10.070
  778W        W 4522   2.745   6.414  10.974
  779W        W 4523   3.782   4.780   0.575
  780W        W 4524   7.704   5.775   1.327
  781W        W 4525   6.191   7.023  11.483
  782W        W 4526   0.344   2.280   1.398
  783W        W 4527   6.159   5.482   0.990
  784W        W 4528   5.545   6.014  10.234
  785W        W 4529   5.067   3.323   2.216
  786W        W 4530   0.843   6.206  11.512
  787W        W 4531   5.761   1.248  10.251
  788W        W 4532   6.339   9.546   3.267
  789W        W 4533   5.601   6.741   2.802
  790W        W 4534   0.261   2.259   8.626
  791W        W 4535   4.299   3.082   1.876
  792W        W 4536   6.653   0.344   1.347
  793W        W 4537   2.673   5.599   9.020
  794W        W 4538   0.159   9.490   3.277
  795W        W 4539   3.260   0.784   1.756
  796W        W 4540   0.283   6.557  10.593
  797W        W 4541   3.110   4.290   2.776
  798W        W 4542   4.275   9.367   8.904
  799W        W 4543   1.200   1.880   3.017
  800W        W 4544   3.002   4.297   8.574
  801W        W 4545   8.268   1.052  11.001
  802W        W 4546   7.264   2.828   0.026
  803W        W 4547   5.177   6.516   1.167
  804W        W 4548   7.228   4.208   8.553
  805W        W 4549  10.018   3.985  10.919
  806W        W 4550   4.785   0.345  11.515
  807W        W 4551   4.149   2.765   9.605
  808W        W 4552   8.918   0.272   8.638
  809W        W 4553   6.791   5.348   1.293
  810W        W 4554   9.331   4.084   1.375
  811W        W 4555   8.962   7.916   1.795
  812W        W 4556   7.057   7.551  10.379
  813W        W 4557   0.951   0.824  10.228
  814W        W 4558   3.708   4.010   3.754
  815W        W 4559   4.675   9.346  10.947
  816W        W 4560   7.560   7.284   3.601
  817W        W 4561  10.252   9.485  10.478
  818W        W 4562   6.959   3.679   9.536
  819W        W 4563  10.235   7.443  10.527
  820W        W 4564   5.628   2.243  11.187
  821W        W 4565   1.022   1.435   8.996
  822W        W 4566   0.121   5.561   9.539
  823W        W 4567   5.204   0.985   3.500
  824W        W 4568   3.604   4.237   1.826
  825W        W 4569   3.732   7.818   2.089
  826W        W 4570   7.092   1.209   0.826
  827W        W 4571   5.991   8.375  11.490
  828W        W 4572   2.644   6.915   2.958
  829W        W 4573   6.723   1.493   2.247
  830W        W 4574   8.057   2.880  11.218
  831W        W 4575   4.494   1.623   0.882
  832W        W 4576   8.544   9.487  10.566
  833W        W 4577   2.666   2.647   9.453
  834W        W 4578   7.886  10.199  10.063
  835W        W 4579   2.549   0.756   3.346
  836W        W 4580   7.417   5.607   8.581
  837W        W 4581   7.926   6.554  11.191
  838W        W 4582   6.030   3.286   0.931
  839W        W 4583   5.611   6.753   1.933
  840W        W 4584   9.206   1.085   2.088
  841W        W 4585   7.122   4.725   0.233
  842W        W 4586   4.845   6.186   0.372
  843W        W 4587   1.084   9.677  11.307
  844W        W 4588   0.778   9.832   2.454
  845W        W 4589   4.770   4.724   0.422
  846W        W 4590   4.746   3.704   9.501
  847W        W 4591   2.225   7.353  11.747
  848W        W 4592   6.203   4.240  11.950
  849W        W 4593   9.758  10.053   3.223
  850W        W 4594   6.571   8.364  10.370
  851W        W 4595   2.894   2.660  10.311
  852W        W 4596   7.888   4.607   8.182
  853W        W 4597   3.371   5.703   2.796
  854W        W 4598   1.838   1.793   2.269
  855W        W 4599   3.096   6.461   2.198
  856W        W 4600   4.066   8.621  11.431
  857W        W 4601   3.346   8.534   1.459
  858W        W 4602   2.135   2.428   2.296
  859W        W 4603   7.733   2.480   9.986
  860W        W 4604   2.351   3.841   3.157
  861W        W 4605   6.686   7.067  11.438
  862W        W 4606   0.580   8.576   3.484
  863W        W 4607   2.768   6.007   0.064
  864W        W 4608   6.679   4.790   2.398
  865W        W 4609   1.308   7.275  11.662
  866W        W 4610   8.911   7.469  10.867
  867W        W 4611   1.112   9.173   3.048
  868W        W 4612   3.663   2.754  10.035
  869W        W 4613   8.058   6.465  10.711
  870W        W 4614   6.449   3.241   0.555
  871W        W 4615   8.670   3.589   2.067
  872W        W 4616   9.527   6.627   1.180
  873W        W 4617   4.177   9.810  10.952
  874W        W 4618   1.445   0.558   2.295
  875W        W 4619   7.880   3.287  10.485
  876W        W 4620   0.342   3.172   9.133
  877W        W 4621   1.750   5.087   3.265
  878W        W 4622   4.110   0.401  10.747
  879W        W 4623   2.594   6.542   2.167
  880W        W 4624   0.538   0.920   9.923
  881W        W 4625   7.514   9.954   1.036
  882W        W 4626   2.058   1.014  11.808
  883W        W 4627   7.427   4.972   9.779
  884W        W 4628   8.466   4.664  10.788
  885W        W 4629  10.049   0.921  10.591
  886W        W 4630   9.651   6.633   2.195
  887W        W 4631   9.386   6.123  10.777
  888W        W 4632   4.994   2.600   8.994
  889W        W 4633   8.488   4.582   8.826
  890W        W 4634   4.689   2.194  11.453
  891W        W 4635  10.237   7.960   1.435
  892W        W 4636   9.087   2.842   0.977
  893W        W 4637   6.573   5.122   0.875
  894W        W 4638   8.201   3.613   8.929
  895W        W 4639  10.433   3.295   9.424
  896W        W 4640   0.671   9.751  10.467
  897W        W 4641   0.890   0.929   1.209
  898W        W 4642   8.108   4.788  11.230
  899W        W 4643   9.405   9.429  10.462
  900W        W 4644   0.484   7.566   0.829
  901W        W 4645   4.001   7.701   1.290
  902W        W 4646   3.582  10.026   0.482
  903W        W 4647   4.732   1.715   8.949
  904W        W 4648   5.620   9.387  11.747
  905W        W 4649   4.275   3.627   0.674
  906W        W 4650   7.559   7.630  10.287
  907W        W 4651   0.808   8.031   2.424
  908W        W 4652   2.553   1.177  11.474
  909W        W 4653   0.938   9.146   1.905
  910W        W 4654   0.765   3.069   2.327
  911W        W 4655   8.009   9.298   3.157
  912W        W 4656   7.524   1.032   3.393
  913W        W 4657   8.533   0.510   0.621
  914W        W 4658   8.414   1.972  11.952
  915W        W 4659   6.992   1.484   0.414
  916W        W 4660   6.429   2.746   3.249
  917W        W 4661   2.236   9.363  11.267
  918W        W 4662   8.102   1.390   9.165
  919W        W 4663   1.690   7.237   8.883
  920W        W 4664   2.145   4.098  10.737
  921W        W 4665   6.512   0.731   0.398
  922W        W 4666   9.883   2.730  11.127
  923W        W 4667   6.410   6.812  10.560
  924W        W 4668   0.939   8.755  10.355
  925W        W 4669   3.511   0.962   1.338
  926W        W 4670   3.326   6.807   0.215
  927W        W 4671  10.026   7.344  11.871
  928W        W 4672   8.870   4.218  10.488
  929W        W 4673   7.001   6.977   9.970
  930W        W 4674   1.524   8.187  11.919
  931W        W 4675   9.074   9.481  11.833
  932W        W 4676   0.573   9.128  11.124
  933W        W 4677   5.503   6.668   4.075
  934W        W 4678   8.381  10.035   8.368
  935W        W 4679   0.567   4.837   0.543
  936W        W 4680   9.378   6.201   8.767
  937W        W 4681   6.609   3.760   1.431
  938W        W 4682   9.405   6.408  10.305
  939W        W 4683   4.373  10.360   2.863
  940W        W 4684   3.876   7.308   2.202
  941W        W 4685   8.425   0.725  11.362
  942W        W 4686   4.571   5.781  11.898
  943W        W 4687   8.734   9.327   2.172
  944W        W 4688   3.687   6.064   1.304
  945W        W 4689   8.311   9.450   0.886
  946W        W 4690   5.183   5.245   9.558
  947W        W 4691   7.907   4.045   1.133
  948W        W 4692   1.823   1.600   0.534
  949W        W 4693   5.129   5.232   0.832
  950W        W 4694   1.709   4.038   3.152
  951W        W 4695   3.279   8.364   9.531
  952W        W 4696   9.951   3.138   9.231
  953W        W 4697   6.106   2.472  10.366
  954W        W 4698   1.883   9.392  10.822
  955W        W 4699   5.600   6.490   2.371
  956W        W 4700   2.617   9.979   9.112
  957W        W 4701   0.999   9.041   2.432
  958W        W 4702   3.822   9.379  11.766
  959W        W 4703   2.708   8.055   3.303
  960W        W 4704   4.577   4.042   8.912
  961W        W 4705   3.674   7.565   3.443
  962W        W 4706   2.397   0.283  11.811
  963W        W 4707   5.665   8.033  11.302
  964W        W 4708   1.428   5.597   2.484
  965W        W 4709   5.261   0.957  11.348
  966W        W 4710   7.551   7.013   8.657
  967W        W 4711   2.890   3.180   8.902
  968W        W 4712   2.621   8.943   9.986
  969W        W 4713   5.645   7.569   8.857
  970W        W 4714   4.066   2.233   8.877
  971W        W 4715   5.961   6.795   9.505
  972W        W 4716   9.830  10.274  11.441
  973W        W 4717   4.241   0.336   2.701
  974W        W 4718   7.346   1.014   2.911
  975W        W 4719   4.321   8.624   2.744
  976W        W 4720   1.861   5.081   9.996
  977W        W 4721   8.883   4.547   2.021
  978W        W 4722   3.197   6.112   9.640
  979W        W 4723   9.015   0.841  11.423
  980W        W 4724   5.552   1.676  10.530
  981W        W 4725   2.777   8.098   1.764
  982W        W 4726   6.644   8.139   2.806
  983W        W 4727   6.653  10.030   1.022
  984W        W 4728   6.700   4.448   0.642
  985W        W 4729   4.827   9.829   0.891
  986W        W 4730  10.423   1.423   0.821
  987W        W 4731  10.318   4.720  11.393
  988W        W 4732   3.537   5.275   9.425
  989W        W 4733   5.459   4.336   1.665
  990W        W 4734   0.149   0.222   2.135
  991W        W 4735   0.803   6.955   3.616
  992W        W 4736   4.558   2.670   2.770
  993W        W 4737   1.159   6.132  10.850
  994W        W 4738   9.118   9.707   2.141
  995W        W 4739   8.811   9.871  11.521
  996W        W 4740   6.862   8.332   2.370
  997W        W 4741   0.190   9.200   2.409
  998W        W 4742   8.938   0.058  10.480
  999W        W 4743  10.296   3.249  11.365
 1000W        W 4744   2.349   2.065   2.031
 1001W        W 4745   7.827   3.294   1.110
 1002W        W 4746   0.786   0.513  11.566
 1003W        W 4747   4.922   4.461   2.964
 1004W        W 4748   2.279   7.835   0.371
 1005W        W 4749   9.870   9.230   2.619
 1006W        W 4750   4.050   3.946   9.143
 1007W        W 4751   5.348   7.894   2.655
 1008W        W 4752   6.583   5.712  11.714
 1009W        W 4753   5.947   2.232  10.774
 1010W        W 4754   5.687   8.572   0.714
 1011W        W 4755  10.307  10.016  11.785
 1012W        W 4756   1.681   9.064   9.116
 1013W        W 4757   2.601   2.681   3.552
 1014W        W 4758   7.383   1.336   1.706
 1015W        W 4759   1.119   1.859   1.603
 1016W        W 4760   3.154   6.121  11.767
 1017W        W 4761   7.928   9.140   0.793
 1018W        W 4762   3.530   7.706   1.634
 1019W        W 4763   3.665   4.689   8.222
 1020W        W 4764   7.091   4.734  10.394
 1021W        W 4765   9.400   3.729  10.148
 1022W        W 4766   8.554   5.669   3.065
 1023W        W 4767   4.005   4.431   1.564
 1024W        W 4768   9.158   3.583  11.341
 1025W        W 4769   9.540   6.355   0.163
 1026W        W 4770   2.494   2.656   3.049
 1027W        W 4771   9.330   7.832  11.502
 1028W        W 4772   8.377  10.198   0.198
 1029W        W 4773   5.550  10.497   8.868
 1030W        W 4774   5.796   9.859   9.583
 1031W        W 4775   1.334   0.764   9.527
 1032W        W 4776   1.224   5.101   3.012
 1033W        W 4777   5.656  10.378   1.965
 1034W        W 4778   5.762   0.668   1.319
 1035W        W 4779   1.838   8.584   3.163
 1036W        W 4780   1.152   0.977   3.537
 1037W        W 4781  10.446   1.758  10.110
 1038W        W 4782   2.296   3.703  11.102
 1039W        W 4783   8.862   5.749   2.648
 1040W        W 4784   8.103   9.282   9.835
 1041W        W 4785   5.219   3.536   1.731
 1042W        W 4786   1.873   8.456  10.152
 1043W        W 4787   5.586   3.682  11.948
 1044W        W 4788   8.321   3.325  10.810
 1045W        W 4789   6.545   8.532   9.836
 1046W        W 4790   2.790   0.386   9.762
 1047W        W 4791   7.517   0.282   2.291
 1048W        W 4792  10.254   5.093   3.260
 1049W        W 4793   1.235   5.950   3.316
 1050W        W 4794   4.584   1.880  11.056
 1051W        W 4795   4.273   3.321  11.260
 1052W        W 4796   8.288  10.247   8.826
 1053W        W 4797   9.732   4.009   1.687
 1054W        W 4798  10.166   5.956   9.017
 1055W        W 4799   2.565   4.510   8.763
 1056W        W 4800   6.661   7.548   1.747
 1057W        W 4801   5.785   6.203  11.509
 1058W        W 4802   6.858   5.158   9.528
 1059W        W 4803   0.924   3.567  10.818
 1060W        W 4804   4.067   0.200  11.218
 1061W        W 4805  10.015   3.232   9.743
 1062W        W 4806   0.784   7.984   2.959
 1063W        W 4807   1.357   9.986  10.607
 1064W        W 4808   0.570   0.585   9.134
 1065W        W 4809   7.106   1.066   8.936
 1066W        W 4810   0.775   2.611   3.055
 1067W        W 4811   8.702   7.309  11.847
 1068W        W 4812   7.160   3.379   8.937
 1069W        W 4813   4.412   0.004   2.363
 1070W        W 4814   7.837   5.183  11.437
 1071W        W 4815   9.558   7.124  10.998
 1072W        W 4816   4.136  10.078  10.033
 1073W        W 4817   7.004   6.108   9.624
 1074W        W 4818   0.128   7.486   9.585
 1075W        W 4819   7.132   4.590   4.267
 1076W        W 4820   7.456   0.854  10.906
 1077W        W 4821   5.249   8.285   0.489
 1078W        W 4822   4.761   9.326   0.923
 1079W        W 4823   9.273   1.612   1.986
 1080W        W 4824   5.130   8.968   1.943
 1081W        W 4825   3.620   8.582   8.946
 1082W        W 4826   6.940   0.178  11.824
 1083W        W 4827   9.886   1.843   1.451
 1084W        W 4828   7.562   5.400  10.999
 1085W        W 4829   8.677   6.827   1.468
 1086W        W 4830   5.788   4.651   1.367
 1087W        W 4831   5.090  10.455   1.542
 1088W        W 4832   8.339   6.227   2.171
 1089W        W 4833   6.149   3.681   1.704
 1090W        W 4834  10.341   1.215   2.632
 1091W        W 4835   3.560   2.731   1.845
 1092W        W 4836   5.263   8.991  11.465
 1093W        W 4837   1.745   7.168   9.777
 1094W        W 4838   9.849   7.067   2.987
 1095W        W 4839   3.689   9.604   0.210
 1096W        W 4840   6.865   2.224  10.689
 1097W        W 4841   9.417   1.196   9.996
 1098W        W 4842   5.361   0.440  10.584
 1099W        W 4843   3.284  10.183  10.884
 1100W        W 4844   8.146   8.392   0.301
 1101W        W 4845   6.465   3.320   2.788
 1102W        W 4846   4.620   7.870   2.324
 1103W        W 4847   2.314   8.381   1.390
 1104W        W 4848   6.084   9.679  10.465
 1105W        W 4849   6.090   1.033   0.178
 1106W        W 4850   3.245   0.502   2.737
 1107W        W 4851   3.911   4.646   2.727
 1108W        W 4852   2.846   3.555  11.781
 1109W        W 4853   5.283   1.354  10.998
 1110W        W 4854   2.942   4.596   9.620
 1111W        W 4855   6.224   1.303  10.555
 1112W        W 4856   3.201   4.597  11.589
 1113W        W 4857   6.562  10.222   0.548
 1114W        W 4858   9.868   1.389  10.700
 1115W        W 4859   0.141   8.310   0.367
 1116W        W 4860   3.407   3.660  10.400
 1117W        W 4861   0.177   6.182   9.864
 1118W        W 4862   4.943   5.641  10.266
 1119W        W 4863   6.164   6.500   1.214
 1120W        W 4864   5.624   3.128  11.128
 1121W        W 4865   4.700   9.113   9.140
 1122W        W 4866   9.533   9.584   0.032
 1123W        W 4867   4.992   4.531   1.851
 1124W        W 4868   1.742   6.012   9.919
 1125W        W 4869   2.196   9.483   9.838
 1126W        W 4870   0.362   2.746   1.169
 1127W        W 4871   2.967   5.942   0.542
 1128W        W 4872   2.235   0.935  10.559
 1129W        W 4873   0.198   1.678  11.069
 1130W        W 4874   3.553   1.708  11.992
 1131W        W 4875   9.970   6.151   1.364
 1132W        W 4876   8.149   7.064   8.431
 1133W        W 4877   5.974   7.481   1.507
 1134W        W 4878   3.681   3.510   1.469
 1135W        W 4879   8.476   5.920   9.597
 1136W        W 4880   1.023   5.939   9.488
 1137W        W 4881   2.822   8.895   2.166
 1138W        W 4882   4.808   3.149   2.702
 1139W        W 4883   9.902   6.014   0.009
 1140W        W 4884   4.992   4.205   8.664
 1141W        W 4885  10.415   7.244   0.208
 1142W        W 4886   9.576   7.043  11.922
 1143W        W 4887   7.571   5.780  11.917
 1144W        W 4888   3.714   1.430   9.363
 1145W        W 4889   0.747   7.057  10.587
 1146W        W 4890   9.198   1.764  10.805
 1147W        W 4891   8.940   3.322   1.080
 1148W        W 4892  10.308   0.469   0.693
 1149W        W 4893   0.298   6.966  10.248
 1150W        W 4894   8.412   5.054   9.607
 1151W        W 4895   0.274   2.686   3.138
 1152W        W 4896   4.412   9.536  10.128
 1153W        W 4897   7.903  10.225   9.552
 1154W        W 4898   2.685   5.661   1.721
 1155W        W 4899   7.200   7.006   0.216
 1156W        W 4900   5.421   7.314   3.701
 1157W        W 4901   8.334  10.492  11.776
 1158W        W 4902   6.459   1.397   9.606
 1159W        W 4903   1.769   4.277   0.623
 1160W        W 4904   9.892   8.903  11.561
 1161W        W 4905   3.518   7.548   1.158
 1162W        W 4906   1.613   3.177   3.006
 1163W        W 4907   6.971   6.055   0.957
 1164W        W 4908   0.482   2.113   0.925
 1165W        W 4909   7.175   9.316   3.269
 1166W        W 4910   2.691   1.919   9.925
 1167W        W 4911   3.703   8.862   0.898
 1168W        W 4912   1.365   0.865  10.537
 1169W        W 4913   9.968   5.702  10.310
 1170W        W 4914   8.744  10.049  10.507
 1171W        W 4915   3.126   9.802  11.344
 1172W        W 4916   1.831   5.762  11.235
 1173W        W 4917   0.840   1.379   3.429
 1174W        W 4918   9.542   7.032   3.416
 1175W        W 4919  10.333   9.847   1.682
 1176W        W 4920   5.750   7.020   2.362
 1177W        W 4921   7.368   5.679   9.101
 1178W        W 4922   2.857   4.809   2.805
 1179W        W 4923   9.489   3.553   3.326
 1180W        W 4924   9.554   4.501   0.430
 1181W        W 4925   5.698   1.319   8.738
 1182W        W 4926   7.060   3.976   2.411
 1183W        W 4927   5.651   3.749   1.972
 1184W        W 4928   7.689   3.829  11.872
 1185W        W 4929   7.170   2.645  10.627
 1186W        W 4930  10.423   4.372   0.773
 1187W        W 4931   7.191   1.232  11.854
 1188W        W 4932   2.909   2.945   8.423
 1189W        W 4933   5.514   2.233   8.808
 1190W        W 4934   8.138   1.817   2.915
 1191W        W 4935   3.312   0.487   2.223
 1192W        W 4936   7.943   7.391   2.690
 1193W        W 4937   0.277   1.359   9.827
 1194W        W 4938   2.403   1.865   8.642
 1195W        W 4939   0.639   8.907   0.928
 1196W        W 4940   6.197   5.998   1.041
 1197W        W 4941   9.076   3.752  10.541
 1198W        W 4942   4.265   1.161   0.847
 1199W        W 4943   2.681   3.751   0.611
 1200W        W 4944   7.886   5.110   0.215
 1201W        W 4945   7.818   8.297  11.322
 1202W        W 4946   7.936   6.617  11.693
 1203W        W 4947   1.262   7.338   3.065
 1204W        W 4948   1.445   6.516  11.007
 1205W        W 4949   7.626   7.850  11.038
 1206W        W 4950   1.644   2.690   3.222
 1207W        W 4951   6.050   1.966   0.735
 1208W        W 4952   2.156   8.590   2.307
 1209W        W 4953   6.903   7.872  10.001
 1210W        W 4954   1.395   5.575   9.430
 1211W        W 4955   1.872   5.902  10.412
 1212W        W 4956   1.721   7.740   8.783
 1213W        W 4957   7.191   1.479  11.327
 1214W        W 4958   2.276   3.777   8.896
 1215W        W 4959  10.020   3.802  10.281
 1216W        W 4960   0.034   9.352   1.403
 1217W        W 4961   9.833   5.509   9.842
 1218W        W 4962   7.611   9.513   8.571
 1219W        W 4963   3.156   2.768   9.350
 1220W        W 4964   7.296   4.422   0.597
 1221W        W 4965   2.953   7.578   8.644
 1222W        W 4966   4.022   7.943   3.355
 1223W        W 4967   3.540   3.148   3.258
 1224W        W 4968   8.197   4.692   0.173
 1225W        W 4969   5.617   1.656   2.461
 1226W        W 4970   3.158   4.086  10.837
 1227W        W 4971   9.528   0.700  11.609
 1228W        W 4972   5.641   8.465   0.213
 1229W        W 4973   2.150   7.332  11.234
 1230W        W 4974   4.594   5.029  10.801
 1231W        W 4975   3.760   1.311  10.373
 1232W        W 4976   2.271   8.326   9.054
 1233W        W 4977   8.946   0.062   1.854
 1234W        W 4978   6.019   5.805   9.570
 1235W        W 4979   0.729  10.135   3.274
 1236W        W 4980   5.705   9.582   3.001
 1237W        W 4981   9.400   1.723   1.501
 1238W        W 4982   3.506   1.710   0.785
 1239W        W 4983   6.990   0.262   9.524
 1240W        W 4984   9.492   0.964   0.912
 1241W        W 4985   9.388   9.611   2.971
 1242W        W 4986   9.315   5.093   9.204
 1243W        W 4987   1.516   7.776   2.921
 1244W        W 4988   2.183   5.802   2.340
 1245W        W 4989   6.195   6.468   3.910
 1246W        W 4990   5.265   3.786   2.311
 1247W        W 4991   0.509   8.289   9.503
 1248W        W 4992   6.220   2.719  10.787
 1249W        W 4993   4.953   3.700   7.816
 1250W        W 4994   4.271   3.899  10.346
 1251W        W 4995   7.393   6.783   3.667
 1252W        W 4996   5.380   7.085  10.566
 1253W        W 4997   6.030   8.380   9.579
 1254W        W 4998   7.213   7.315   0.657
 1255W        W 4999   5.070   0.718   2.144
 1256W        W 5000   4.748   2.701  10.758
 1257W        W 5001   3.363   2.811   0.266
 1258W        W 5002   7.948   0.953   8.868
 1259W        W 5003   6.000   3.906  10.192
 1260W        W 5004   2.201   5.787   9.000
 1261W        W 5005   2.779   4.702   1.949
 1262W        W 5006   9.717   7.142   1.445
 1263W        W 5007   8.563   3.379   3.363
 1264W        W 5008   5.006   7.987   9.754
 1265W        W 5009   1.688   4.703   9.692
 1266W        W 5010   9.123   8.203   9.187
 1267W        W 5011   7.458   5.219   3.610
 1268W        W 5012   6.516   7.340   2.738
 1269W        W 5013   4.558   8.127  10.022
 1270W        W 5014   4.514   9.722   8.559
 1271W        W 5015   7.804  10.422  11.949
 1272W        W 5016   4.140   1.400   0.390
 1273W        W 5017   1.248   6.450   0.298
 1274W        W 5018   8.110   8.911   0.332
 1275W        W 5019   0.114   6.852   8.644
 1276W        W 5020   4.610   5.015   2.670
 1277W        W 5021   9.386   2.463   9.960
 1278W        W 5022  10.125   0.410   9.939
 1279W        W 5023   1.822   1.656  10.055
 1280W        W 5024   1.246   2.149   1.171
 1281W        W 5025   7.966   8.811   3.323
 1282W        W 5026  10.270   6.466   9.679
 1283W        W 5027   0.473   3.455  10.598
 1284W        W 5028   7.055   5.382   0.766
 1285W        W 5029   5.608   9.387   1.443
 1286W        W 5030   3.514   8.337   3.285
 1287W        W 5031   7.468   5.030   0.482
 1288W        W 5032   7.219   9.291   1.920
 1289W        W 5033   9.145   1.347   0.228
 1290W        W 5034   2.853   4.014   3.280
 1291W        W 5035   9.730   0.529   1.852
 1292W        W 5036   1.833   5.553   0.253
 1293W        W 5037   3.111  10.495   9.625
 1294W        W 5038   1.839  10.328  11.516
 1295W        W 5039  10.252   1.950   2.074
 1296W        W 5040   6.885   7.620   1.239
 1297W        W 5041   6.486   3.536  10.742
 1298W        W 5042   8.750  10.434   9.464
 1299W        W 5043   3.226   5.975   2.314
 1300W        W 5044   4.469   4.609   0.826
 1301W        W 5045  10.463   5.431   2.386
 1302W        W 5046   3.044   0.657   3.255
 1303W        W 5047   6.703   5.549  10.828
 1304W        W 5048   8.921   7.654   0.360
 1305W        W 5049   8.436   8.600   3.315
 1306W        W 5050   2.409   0.293   9.408
 1307W        W 5051   8.427   1.817   0.439
 1308W        W 5052   0.771   2.361   8.598
 1309W        W 5053   0.694   4.165   2.218
 1310W        W 5054   6.933   2.258   8.818
 1311W        W 5055   4.647   7.076   1.649
 1312W        W 5056   0.378   6.419  11.909
 1313W        W 5057   3.179   7.641   3.260
 1314W        W 5058   4.144   7.879   9.786
 1315W        W 5059   2.510   9.589   8.792
 1316W        W 5060   7.670   6.531   1.573
 1317W        W 5061   6.844   2.313  11.739
 1318W        W 5062   1.169   7.564  11.260
 1319W        W 5063   4.622   9.946   2.686
 1320W        W 5064   7.889   6.030   4.159
 1321W        W 5065   4.846   1.317  11.252
 1322W        W 5066   6.563   5.849   2.744
 1323W        W 5067   9.919   7.474   1.825
 1324W        W 5068   6.489   0.968   9.308
 1325W        W 5069   2.392   1.471   9.027
 1326W        W 5070   4.769   6.526   1.801
 1327W        W 5071   4.616   6.148  10.369
 1328W        W 5072   6.987   9.436   1.466
 1329W        W 5073   4.152   4.695   9.966
 1330W        W 5074   2.702   3.229  10.855
 1331W        W 5075   4.192   0.345   1.184
 1332W        W 5076   7.696   8.309   0.524
 1333W        W 5077   9.358   0.234   9.559
 1334W        W 5078   2.812   1.421   9.838
 1335W        W 5079   3.235   4.086  11.344
 1336W        W 5080   7.428   9.748   0.439
 1337W        W 5081   1.283   6.531   1.646
 1338W        W 5082  10.408   0.159   1.142
 1339W        W 5083   8.823   3.171   9.528
 1340W        W 5084   6.084   7.365   3.075
 1341W        W 5085   5.105   7.412  10.084
 1342W        W 5086   7.696   7.319   9.914
 1343W        W 5087   3.816   2.251   1.775
 1344W        W 5088   2.586   3.154  11.960
 1345W        W 5089   3.944   2.643   8.592
 1346W        W 5090   7.893   7.021   9.480
 1347W        W 5091   3.890   3.645  11.058
 1348W        W 5092   6.089   0.375   0.836
 1349W        W 5093   2.159   4.425   8.436
 1350W        W 5094   6.237   0.052  10.850
 1351W        W 5095   7.536   2.946   2.296
 1352W        W 5096   5.555   4.364  11.411
 1353W        W 5097   8.237   5.783   3.862
 1354W        W 5098   9.006   7.711   9.330
 1355W        W 5099   4.724   7.237   9.483
 1356W        W 5100   7.928   1.159   1.945
 1357W        W 5101   7.870   8.358   9.833
 1358W        W 5102   3.704   1.408   1.494
 1359W        W 5103   7.431   7.412  11.244
 1360W        W 5104   6.571   6.852   2.718
 1361W        W 5105   8.506   4.539   3.118
 1362W        W 5106   7.923   5.103   8.080
 1363W        W 5107   4.574  10.354  10.035
 1364W        W 5108   5.762   4.643   2.927
 1365W        W 5109   9.711  10.453   1.273
 1366W        W 5110  10.062   0.509  11.804
 1367W        W 5111   5.103   6.143  11.054
 1368W        W 5112   2.276   6.246   3.776
 1369W        W 5113   1.949   1.153   8.801
 1370W        W 5114   1.817   3.197  10.990
 1371W        W 5115   4.092   2.372   0.452
 1372W        W 5116   9.405   0.445   8.607
 1373W        W 5117   2.875   4.007   2.382
 1374W        W 5118   8.948   2.708  10.741
 1375W        W 5119   4.464   6.777  11.809
 1376W        W 5120   0.137   9.315  11.280
 1377W        W 5121  10.288   6.367   2.530
 1378W        W 5122   5.828   7.684   1.957
 1379W        W 5123   2.675   9.894   3.237
 1380W        W 5124   8.399   4.178   9.562
 1381W        W 5125   5.736   8.313   1.145
 1382W        W 5126   4.712   3.250   9.707
 1383W        W 5127   2.621   1.221  10.300
 1384W        W 5128   7.799  10.324   1.237
 1385W        W 5129   8.293   0.247   0.230
 1386W        W 5130   7.122   8.807   3.312
 1387W        W 5131   7.835   9.373   2.654
 1388W        W 5132   2.280   9.846   1.427
 1389W        W 5133   5.991   2.968  10.346
 1390W        W 5134   7.209   7.868   1.670
 1391W        W 5135   1.719   2.651   9.533
 1392W        W 5136   5.433   0.856  10.881
 1393W        W 5137  10.047   0.570   3.116
 1394W        W 5138   1.263   0.532  11.399
 1395W        W 5139   8.534   1.820   1.413
 1396W        W 5140   2.447   2.204   9.574
 1397W        W 5141   1.949   3.312   1.518
 1398W        W 5142   5.704   8.225   2.737
 1399W        W 5143   1.005   2.326   9.574
 1400W        W 5144   0.705   2.887  11.420
 1401W        W 5145   7.679   1.993  10.268
 1402W        W 5146   5.442   0.810   3.075
 1403W        W 5147   3.932   5.640  10.239
 1404W        W 5148   2.915   4.531  10.957
 1405W        W 5149   8.936   6.215   2.824
 1406W        W 5150   5.561   2.045   0.965
 1407W        W 5151   1.615   8.037  10.055
 1408W        W 5152   2.661   7.014   3.474
 1409W        W 5153   7.726   1.304   3.784
 1410W        W 5154   2.781   3.732   1.950
 1411W        W 5155  10.369   3.085   8.940
 1412W        W 5156   9.109   6.675   2.660
 1413W        W 5157   1.207   3.312   0.233
 1414W        W 5158   5.593   0.874   8.473
 1415W        W 5159   3.569   3.219  10.673
 1416W        W 5160   1.449   2.261   9.332
 1417W        W 5161   0.468   6.855  10.970
 1418W        W 5162   2.126   7.676   1.178
 1419W        W 5163   1.331   4.321   9.004
 1420W        W 5164   2.587   2.683   0.832
 1421W        W 5165   9.122   5.562   9.273
 1422W        W 5166   0.287   4.133  11.926
 1423W        W 5167   2.407   0.841   1.912
 1424W        W 5168   2.373   6.084   9.811
 1425W        W 5169   5.015   3.766   9.036
 1426W        W 5170   8.898   5.306   0.445
 1427W        W 5171   6.208   5.490   0.076
 1428W        W 5172   1.489   5.087   1.936
 1429W        W 5173   0.243   0.553   0.958
 1430W        W 5174   6.138   8.385  10.101
 1431W        W 5175   0.321   0.391  11.368
 1432W        W 5176   9.493   4.154   0.062
 1433W        W 5177   7.984   8.757   1.699
 1434W        W 5178  10.255   8.382   3.164
 1435W        W 5179   4.824   4.563   1.356
 1436W        W 5180   0.947   0.329   0.328
 1437W        W 5181   8.805   9.859   3.055
 1438W        W 5182   1.071  10.370   0.161
 1439W        W 5183   8.002   4.623   2.418
 1440W        W 5184  10.362  10.069   9.035
 1441W        W 5185   8.828   5.543   9.721
 1442W        W 5186   8.839   9.054  11.987
 1443W        W 5187   4.784   1.223   0.736
 1444W        W 5188   7.970   6.496   2.618
 1445W        W 5189   5.439   2.147  10.729
 1446W        W 5190   4.223   5.855  10.639
 1447W        W 5191   2.206   2.200  11.139
 1448W        W 5192   5.225   4.228   3.626
 1449W        W 5193   3.714   5.888   2.207
 1450W        W 5194   1.748   9.604   8.955
 1451W        W 5195   5.269   0.065  10.952
 1452W        W 5196   6.132   9.890   2.939
 1453W        W 5197   2.163   6.549   1.861
 1454W        W 5198   8.156   5.744   8.496
 1455W        W 5199   1.634   4.591   0.246
 1456W        W 5200   7.630   3.262  11.942
 1457W        W 5201   2.840   5.747  10.398
 1458W        W 5202   6.644   6.620   3.161
 1459W        W 5203   6.815   2.070  10.202
 1460W        W 5204   5.742   3.760   2.490
 1461W        W 5205   5.177   1.754   0.825
 1462W        W 5206   3.800   3.549   9.385
 1463W        W 5207  10.204   6.028   0.908
 1464W        W 5208   4.231   1.409   9.591
 1465W        W 5209   3.020   0.869   2.409
 1466W        W 5210   3.560   0.145  11.290
 1467W        W 5211   4.687   0.330   9.888
 1468W        W 5212   1.692   3.152   2.490
 1469W        W 5213   1.006   8.317   0.465
 1470W        W 5214   3.518   6.700   8.686
 1471W        W 5215   2.269   5.472  11.992
 1472W        W 5216   6.438   5.244   2.578
 1473W        W 5217   2.287   0.320   3.486
 1474W        W 5218   7.511   1.510   0.740
 1475W        W 5219   9.719  10.145  10.284
 1476W        W 5220   9.584   2.218   1.273
 1477W        W 5221   1.793   7.269  10.328
 1478W        W 5222   0.841   4.248   3.210
 1479W        W 5223   1.678   7.614  11.309
 1480W        W 5224   8.544   5.290   1.275
 1481W        W 5225   5.751   7.132   4.040
 1482W        W 5226   4.526   8.141   8.967
 1483W        W 5227   9.789   7.654   9.366
 1484W        W 5228   4.966   7.896   8.810
 1485W        W 5229   8.748   5.830   0.961
 1486W        W 5230   3.278   6.357   1.444
 1487W        W 5231   6.823   8.105   8.890
 1488W        W 5232   8.982   3.366   1.583
 1489W        W 5233   9.494   4.720  10.960
 1490W        W 5234   2.778   4.603   0.691
 1491W        W 5235   9.835   2.210   0.190
 1492W        W 5236  10.369   6.100   0.287
 1493W        W 5237   3.167   5.647   1.889
 1494W        W 5238   7.862   7.161  10.381
 1495W        W 5239   6.155   0.537  10.749
 1496W        W 5240   7.852   9.751  11.451
 1497W        W 5241   3.951   8.412   3.067
 1498W        W 5242   0.258   8.551   9.140
 1499W        W 5243   5.317   4.491   1.197
 1500W        W 5244   8.479   6.378   1.274
 1501W        W 5245   7.679   9.587   3.567
 1502W        W 5246   3.709  10.108   9.112
 1503W        W 5247   8.587   1.000   2.825
 1504W        W 5248   4.270   1.480  11.093
 1505W        W 5249   3.584   4.317   0.444
 1506W        W 5250   4.533   6.968   0.625
 1507W        W 5251   8.476   9.030   2.510
 1508W        W 5252   2.067   7.727   2.151
 1509W        W 5253   8.484   8.280  11.946
 1510W        W 5254   1.668   2.159   2.875
 1511W        W 5255   5.667   1.298   0.245
 1512W        W 5256   7.001   7.534   3.522
 1513W        W 5257   0.193   5.939  11.897
 1514W        W 5258   9.427   5.022   1.258
 1515W        W 5259   4.257   1.115  10.009
 1516W        W 5260   0.005   8.406  10.983
 1517W        W 5261   9.314   0.551  10.468
 1518W        W 5262   3.125   6.966   2.128
 1519W        W 5263   7.669   4.167   8.306
 1520W        W 5264   1.471   5.485  11.455
 1521W        W 5265   5.101   0.004   3.365
 1522W        W 5266   9.535   5.437   0.969
 1523W        W 5267   9.031   5.823   3.153
 1524W        W 5268   8.777   7.051   2.779
 1525W        W 5269   3.835   8.592   2.599
 1526W        W 5270   2.743  10.428  11.584
 1527W        W 5271   3.492   2.766  10.973
 1528W        W 5272   7.278   2.308   9.740
 1529W        W 5273   3.226   9.192   3.586
 1530W        W 5274  10.306   6.217   3.018
 1531W        W 5275   1.833   3.711  10.887
 1532W        W 5276   7.482   6.110   9.400
 1533W        W 5277   6.050   7.430   2.571
 1534W        W 5278   5.603   8.311   3.624
 1535W        W 5279   2.219   5.786   1.445
 1536W        W 5280   5.539   6.846   0.400
 1537W        W 5281   3.386   1.089   3.332
 1538W        W 5282  10.363   6.428   9.078
 1539W        W 5283   6.768   8.457   0.299
 1540W        W 5284   9.823   5.236  10.459
 1541W        W 5285   4.474   7.549   1.492
 1542W        W 5286   3.666   6.711   9.183
 1543W        W 5287   1.448   5.559   3.001
 1544W        W 5288   5.589   3.098   9.389
 1545W        W 5289   7.548   8.892   1.948
 1546W        W 5290  10.141   5.989   9.876
 1547W        W 5291   9.862   6.120   8.582
 1548W        W 5292   6.122   9.885   9.978
 1549W        W 5293   9.866   3.259  11.130
 1550W        W 5294   6.092   6.474  11.810
 1551W        W 5295   4.485   7.482   2.003
 1552W        W 5296   2.387   7.590  10.106
 1553W        W 5297   4.470   7.247  11.081
 1554W        W 5298   5.615   1.296   9.254
 1555W        W 5299   7.250   4.445   9.019
 1556W        W 5300   7.689   6.952   0.344
 1557W        W 5301  10.244   4.985   2.556
 1558W        W 5302   8.914   6.241   3.455
 1559W        W 5303   8.091   1.267  11.452
 1560W        W 5304   6.756   5.695   9.862
 1561W        W 5305   1.445   1.936   1.996
 1562W        W 5306   4.874   5.645   9.411
 1563W        W 5307   5.122   1.215   3.008
 1564W        W 5308   3.596   3.727   8.938
 1565W        W 5309   7.494   6.764  11.881
 1566W        W 5310   5.679   2.790   1.600
 1567W        W 5311   3.665   5.892   3.160
 1568W        W 5312   6.111   5.930  11.810
 1569W        W 5313   2.837   0.742  11.502
 1570W        W 5314   7.361   2.357  11.758
 1571W        W 5315   5.286   9.316   2.940
 1572W        W 5316   9.664   5.437   9.337
 1573W        W 5317   2.135   8.036  10.105
 1574W        W 5318   8.101   4.490   3.965
 1575W        W 5319   9.587   0.455   0.599
 1576W        W 5320   4.598   0.738   0.832
 1577W        W 5321   2.194   4.086   0.853
 1578W        W 5322   1.351   9.382  11.622
 1579W        W 5323   1.062   8.385  10.710
 1580W        W 5324   1.592   0.756   0.803
 1581W        W 5325   7.776   1.136   2.453
 1582W        W 5326   9.206   5.576   3.582
 1583W        W 5327   1.851   9.240   0.334
 1584W        W 5328   9.859   0.251   2.747
 1585W        W 5329   1.360   8.415   9.259
 1586W        W 5330   8.831   0.788   9.039
 1587W        W 5331   6.541   5.029  11.067
 1588W        W 5332   8.945   7.916   3.365
 1589W        W 5333   5.403   7.104   8.781
 1590W        W 5334   1.802   8.085   9.160
 1591W        W 5335   6.365   2.427  11.932
 1592W        W 5336   1.226   1.136   0.034
 1593W        W 5337   3.358   8.735   0.448
 1594W        W 5338   5.710   0.189  11.453
 1595W        W 5339   7.097   6.583   1.529
 1596W        W 5340   7.982   7.702  10.626
 1597W        W 5341   9.265   2.378  10.463
 1598W        W 5342   9.848   6.152   2.308
 1599W        W 5343   7.260   2.944   0.919
 1600W        W 5344   0.960   5.151   0.578
 1601W        W 5345  10.362   4.516   1.260
 1602W        W 5346   3.561   3.654   9.820
 1603W        W 5347   8.965   3.595   0.285
 1604W        W 5348   6.011   5.201  10.128
 1605W        W 5349   9.763   8.161  10.735
 1606W        W 5350   8.877   4.373   2.569
 1607W        W 5351   7.397   6.595   1.976
 1608W        W 5352   1.294   5.743   9.927
 1609W        W 5353   0.008   8.738   2.247
 1610W        W 5354   7.605   8.115   1.450
 1611W        W 5355   6.945   4.537  11.813
 1612W        W 5356   5.479   6.230   2.811
 1613W        W 5357   8.209   0.682   9.697
 1614W        W 5358   6.012   9.168   1.730
 1615W        W 5359   5.320   9.884   0.890
 1616W        W 5360   7.654   9.563  11.019
 1617W        W 5361   7.106   3.610   2.069
 1618W        W 5362   4.726   3.660   0.925
 1619W        W 5363   8.520   1.487   9.947
 1620W        W 5364   8.421   3.809   2.448
 1621W        W 5365   2.511   1.652   0.885
 1622W        W 5366   4.117   6.587   9.390
 1623W        W 5367   3.365   2.278   9.628
 1624W        W 5368   9.640   3.468  11.559
 1625W        W 5369   6.141   0.319   1.377
 1626W        W 5370   5.211   3.921   9.509
 1627W        W 5371   4.888   9.032   2.850
 1628W        W 5372   3.311   7.537   3.787
 1629W        W 5373   9.421   9.766   1.711
 1630W        W 5374   1.662  10.437   2.941
 1631W        W 5375   8.471   2.790   9.477
 1632W        W 5376   4.106   4.118   1.955
 1633W        W 5377   1.310   9.423   9.228
 1634W        W 5378   2.816   7.353   0.485
 1635W        W 5379   8.957   3.157  11.020
 1636W        W 5380   5.068  10.489   0.281
 1637W        W 5381   1.197   2.779   1.442
 1638W        W 5382   8.533   5.546  10.554
 1639W        W 5383   2.678   6.011   2.909
 1640W        W 5384   0.148   2.683   9.153
 1641W        W 5385   6.959   6.016   3.570
 1642W        W 5386   4.443   5.667  10.227
 1643W        W 5387   4.252   1.453   3.556
 1644W        W 5388   4.075   6.133   2.899
 1645W        W 5389   7.174   3.205  11.697
 1646W        W 5390   5.918   5.624  10.417
 1647W        W 5391   1.362   6.882   2.847
 1648W        W 5392   0.926   2.686  10.187
 1649W        W 5393   7.243   3.711   2.861
 1650W        W 5394   4.982   5.183   0.345
 1651W        W 5395   7.052   0.330   1.694
 1652W        W 5396   6.031   2.424   2.213
 1653W        W 5397   5.573   2.434   1.973
 1654W        W 5398   7.822   5.707   8.871
 1655W        W 5399   2.166   7.774  11.466
 1656W        W 5400   8.520   0.687   1.515
 1657W        W 5401   5.519  10.227  11.457
 1658W        W 5402   4.778   8.079  11.695
 1659W        W 5403   4.584   5.919   1.193
 1660W        W 5404  10.347   3.092   2.980
 1661W        W 5405   1.942   1.363   9.259
 1662W        W 5406   4.757   3.642  10.493
 1663W        W 5407   0.520   5.248   0.889
 1664W        W 5408   0.545   9.366   0.708
 1665W        W 5409   9.888   2.380   9.817
 1666W        W 5410   2.729   7.911   2.817
 1667W        W 5411   1.199   6.549   2.157
 1668W        W 5412   0.970   9.398   8.411
 1669W        W 5413   6.130   1.060  11.461
 1670W        W 5414   2.197   6.834   2.299
 1671W        W 5415   2.138   4.296   0.129
 1672W        W 5416   0.382   6.518   8.943
 1673W        W 5417   3.954   3.126   3.587
 1674W        W 5418   5.476   3.369   3.697
 1675W        W 5419   4.721   1.264   2.652
 1676W        W 5420   5.182   1.221   1.497
 1677W        W 5421   3.893   8.920   3.017
 1678W        W 5422   1.601   9.178  10.453
 1679W        W 5423   1.101   8.497   1.423
 1680W        W 5424   6.203   1.393   2.328
 1681W        W 5425   3.833   2.829   0.544
 1682W        W 5426   7.560   3.080   9.167
 1683W        W 5427   1.357   2.464  11.588
 1684W        W 5428   5.107   2.234   0.624
 1685W        W 5429   6.352   7.307  10.451
 1686W        W 5430   9.825   1.802  11.455
 1687W        W 5431   1.017   1.395   1.417
 1688W        W 5432   6.366   1.993   1.567
 1689W        W 5433   5.676   8.510   3.157
 1690W        W 5434   4.233   6.725   2.401
 1691W        W 5435   2.285   0.931   2.811
 1692W        W 5436   5.649   3.273   1.780
 1693W        W 5437   7.362   6.851   0.707
 1694W        W 5438   4.470   2.190   0.061
 1695W        W 5439   2.734   5.665  11.253
 1696W        W 5440   7.619   4.071   3.015
 1697W        W 5441  10.244   5.731  11.786
 1698W        W 5442   8.057   1.659  11.785
 1699W        W 5443   5.652   3.198   3.257
 1700W        W 5444   7.897   1.956  10.738
 1701W        W 5445   2.095   4.214   1.857
 1702W        W 5446   5.537  10.261   0.385
 1703W        W 5447   2.239  10.429   9.753
 1704W        W 5448   5.225   2.054   2.674
 1705W        W 5449   2.299   5.138   0.367
 1706W        W 5450   4.787   7.161   8.996
 1707W        W 5451   2.824   9.043   9.000
 1708W        W 5452  10.080   9.390   1.673
 1709W        W 5453   6.955   6.567   0.027
 1710W        W 5454   5.660   2.202   0.484
 1711W        W 5455   9.688   1.811  10.951
 1712W        W 5456   5.555   7.299   1.244
 1713W        W 5457   0.283   4.707   0.945
 1714W        W 5458   9.886   8.062  11.217
 1715W        W 5459   7.343   9.686  11.504
 1716W        W 5460   4.160   9.133   0.722
 1717W        W 5461   9.257   5.463   0.093
 1718W        W 5462   4.638   8.216   2.710
 1719W        W 5463   0.256   2.867  10.891
 1720W        W 5464   6.409   2.478   0.854
 1721W        W 5465   3.329   0.730  10.042
 1722W        W 5466   2.807   1.419  11.880
 1723W        W 5467   0.662   5.044   2.749
 1724W        W 5468  10.267   3.156   0.349
 1725W        W 5469   2.697   7.239   9.795
 1726W        W 5470   2.910   9.020  10.480
 1727W        W 5471   2.847   6.964   0.132
 1728W        W 5472   7.681   7.977   0.963
 1729W        W 5473   0.761  10.101   2.004
 1730W        W 5474   3.966   5.204  11.464
 1731W        W 5475   6.176   2.416   1.318
 1732W        W 5476  10.264   6.483  10.626
 1733W        W 5477   6.257   8.549   0.338
 1734W        W 5478   4.155   6.878   0.248
 1735W        W 5479   2.147   6.097  10.780
 1736W        W 5480   2.627   5.538   2.215
 1737W        W 5481   0.011   6.989  10.736
 1738W        W 5482   5.099   3.123  10.877
 1739W        W 5483   3.055   1.859   1.716
 1740W        W 5484   7.434   7.163   2.704
 1741W        W 5485   6.077   3.362   2.433
 1742W        W 5486   0.266   6.202  11.456
 1743W        W 5487   7.554   8.621   1.451
 1744W        W 5488   9.123   7.095   2.383
 1745W        W 5489   8.688   4.815   0.376
 1746W        W 5490   1.180   7.542   9.359
 1747W        W 5491   4.339   9.981   0.943
 1748W        W 5492   2.491   9.903  11.931
 1749W        W 5493   4.145   2.240   1.393
 1750W        W 5494   7.707   4.825  11.780
 1751W        W 5495   9.159   3.485   2.935
 1752W        W 5496   2.809   6.090   9.007
 1753W        W 5497   0.488   7.339   0.345
 1754W        W 5498   1.497   1.952   9.753
 1755W        W 5499   9.132   7.521   0.793
 1756W        W 5500  10.424   0.800   2.888
 1757W        W 5501   4.966   3.331   1.334
 1758W        W 5502   2.330   3.483  11.619
 1759W        W 5503   9.836   1.347   2.639
 1760W        W 5504   4.971   1.230   9.002
 1761W        W 5505   4.323   3.730   2.201
 1762W        W 5506   9.848   8.358  11.836
 1763W        W 5507   7.426   4.044   1.652
 1764W        W 5508   2.665   3.540   2.408
 1765W        W 5509   4.601   7.253   3.417
 1766W        W 5510   3.248   1.368   9.570
 1767W        W 5511   0.396   8.064   9.033
 1768W        W 5512   8.344   7.051   3.115
 1769W        W 5513   5.872   8.906   8.836
 1770W        W 5514   3.536   6.418  11.933
 1771W        W 5515   2.435   5.219  11.159
 1772W        W 5516   2.908   9.901   1.269
 1773W        W 5517   3.535   4.518   1.384
 1774W        W 5518   7.001  10.469  11.346
 1775W        W 5519   2.892   7.649  10.086
 1776W        W 5520   9.551   2.639   1.988
 1777W        W 5521   5.136   8.308  10.565
 1778W        W 5522   2.704   8.620   8.644
 1779W        W 5523   0.584   3.517   1.613
 1780W        W 5524   5.486   4.703  10.136
 1781W        W 5525   2.311   7.212   2.683
 1782W        W 5526   4.078   6.686   8.871
 1783W        W 5527   5.350   7.990   1.260
 1784W        W 5528   0.073   5.718  11.406
 1785W        W 5529   7.514   0.695   9.029
 1786W        W 5530   5.484   2.652   9.148
 1787W        W 5531   5.718   9.554   0.933
 1788W        W 5532   3.020   2.226   1.357
 1789W        W 5533   8.886   8.569  11.847
 1790W        W 5534   3.292   1.474  11.099
 1791W        W 5535   2.852   6.241  10.501
 1792W        W 5536   8.660   1.952   3.775
 1793W        W 5537   1.146   6.960   0.396
 1794W        W 5538   5.967   6.968   1.364
 1795W        W 5539   2.103   4.253   2.858
 1796W        W 5540   7.136   8.174   1.250
 1797W        W 5541   5.705   5.602  10.917
 1798W        W 5542   4.204   2.828   0.170
 1799W        W 5543   5.944   1.195   1.894
 1800W        W 5544   6.151   6.155   0.257
 1801W        W 5545   5.202   2.873   0.268
 1802W        W 5546  10.495   2.124  11.087
 1803W        W 5547   3.091   2.732  11.315
 1804W        W 5548   6.641   1.884   2.572
 1805W        W 5549   9.872   9.859   1.417
 1806W        W 5550   4.853   9.858  11.691
 1807W        W 5551   7.422   7.304  11.765
 1808W        W 5552   6.040   1.635   9.303
 1809W        W 5553   9.468   8.485   2.258
 1810W        W 5554   3.886   3.639  10.544
 1811W        W 5555   4.919   7.488  11.100
 1812W        W 5556   3.664   9.551   1.497
 1813W        W 5557   3.577   2.658   3.022
 1814W        W 5558   5.161   3.407   9.412
 1815W        W 5559   4.578   6.903   1.180
 1816W        W 5560  10.497   9.119  11.900
 1817W        W 5561   1.911   0.399   9.445
 1818W        W 5562   3.568   9.005   1.377
 1819W        W 5563   6.152   0.628   9.518
 1820W        W 5564   2.048   3.783   1.262
 1821W        W 5565   3.533   2.239   1.344
 1822W        W 5566   5.555   6.061   9.731
 1823W        W 5567   4.210   9.146   9.842
 1824W        W 5568   5.763  10.074   0.818
 1825W        W 5569   8.574   8.579   2.302
 1826W        W 5570   7.055   0.985  11.394
 1827W        W 5571   9.540   2.620   2.515
 1828W        W 5572   0.138   4.083   2.327
 1829W        W 5573   1.703   2.373   9.977
 1830W        W 5574   6.200   7.469   9.994
 1831W        W 5575   6.568   4.531   0.138
 1832W        W 5576   7.667   7.516   2.255
 1833W        W 5577  10.201   2.363   2.422
 1834W        W 5578   6.497   2.824   9.474
 1835W        W 5579   7.548   3.947   0.741
 1836W        W 5580   4.714   0.260   2.920
 1837W        W 5581   8.637   1.798   2.872
 1838W        W 5582   4.068   6.478  11.945
 1839W        W 5583   8.847   7.065   3.282
 1840W        W 5584   6.881   6.807   0.558
 1841W        W 5585   2.762   9.417   1.401
 1842W        W 5586   4.422   4.565   2.807
 1843W        W 5587   7.917   2.802   0.348
 1844W        W 5588   6.140   8.974   2.458
 1845W        W 5589   5.050  10.413  11.418
 1846W        W 5590   1.696   3.788   0.767
 1847W        W 5591   2.181   2.615   9.761
 1848W        W 5592   5.627   7.051   3.287
 1849W        W 5593   0.681   4.877   9.536
 1850W        W 5594   1.202   9.567   2.183
 1851W        W 5595   3.861   7.087   3.249
 1852W        W 5596   6.952   3.287   0.690
 1853W        W 5597   4.340   4.703   1.311
 1854W        W 5598  10.204   8.300  10.492
 1855W        W 5599   8.846   4.982   9.021
 1856W        W 5600   0.974   7.955   8.659
 1857W        W 5601   3.686   4.917   2.326
 1858W        W 5602   1.415   4.102  11.487
 1859W        W 5603   7.912   9.071  11.885
 1860W        W 5604   7.166   9.786   1.775
 1861W        W 5605  10.229   9.849   3.256
 1862W        W 5606   8.479   4.701   2.636
 1863W        W 5607   0.262   2.722   1.705
 1864W        W 5608  10.405   1.109   1.911
 1865W        W 5609   9.714   8.743   1.018
 1866W        W 5610   6.977   1.719   3.422
 1867W        W 5611   2.084   2.718  10.959
 1868W        W 5612   0.498   0.403   3.375
 1869W        W 5613   4.537   6.770  11.274
 1870W        W 5614   5.180   3.500   2.722
 1871W        W 5615   3.653   6.280   9.465
 1872W        W 5616   1.735   2.736   2.208
 1873W        W 5617   9.511   5.656   3.163
 1874W        W 5618   5.841   3.805   8.651
 1875W        W 5619   3.046   0.969   1.136
 1876W        W 5620   5.163   9.267  10.761
 1877W        W 5621   8.542   8.151   2.569
 1878W        W 5622   5.908   2.977   9.781
 1879W        W 5623   0.268   5.552   2.902
 1880W        W 5624   2.304   4.220   1.365
 1881W        W 5625   6.606   2.006   0.820
 1882W        W 5626   1.826   9.886  10.991
 1883W        W 5627   0.696   8.041   1.016
 1884W        W 5628  10.370   2.676   9.942
 1885W        W 5629   1.706   1.778  11.593
 1886W        W 5630   0.936   7.795   1.917
 1887W        W 5631   1.236   3.746   0.530
 1888W        W 5632   6.291   2.618   9.895
 1889W        W 5633   0.817   1.855  10.279
 1890W        W 5634   8.302   6.113   0.869
 1891W        W 5635   1.848   8.123   1.260
 1892W        W 5636   4.853   4.020   9.880
 1893W        W 5637   9.259   0.698   1.765
 1894W        W 5638  10.460   7.088   3.140
 1895W        W 5639   3.187   5.649   0.001
 1896W        W 5640   5.756   7.728   2.873
 1897W        W 5641   1.736   3.984   8.906
 1898W        W 5642   9.246  10.027   3.270
 1899W        W 5643   7.495   8.672  10.010
 1900W        W 5644   3.798   7.348   0.793
 1901W        W 5645   8.524   0.455   9.300
 1902W        W 5646   3.622   6.042   0.694
 1903W        W 5647   2.828   7.198   8.942
 1904W        W 5648   6.108   4.438   9.461
 1905W        W 5649   3.427   2.754   8.506
 1906W        W 5650   3.201   1.827  11.458
 1907W        W 5651   9.500   5.238   1.750
 1908W        W 5652  10.258   7.676   9.169
 1909W        W 5653   3.846   6.116   0.232
 1910W        W 5654   6.453   2.331   2.470
 1911W        W 5655   4.963   6.247   9.068
 1912W        W 5656   5.692   4.067   0.695
 1913W        W 5657   1.198   7.892   0.279
 1914W        W 5658   4.455   0.042   9.555
 1915W        W 5659   0.525   8.324  10.813
 1916W        W 5660   4.204   4.867   1.785
 1917W        W 5661   1.775   6.598   2.449
 1918W        W 5662  10.218   5.643   1.361
 1919W        W 5663   6.291   3.622   0.194
 1920W        W 5664   7.657   9.455   2.172
 1921W        W 5665   8.130   6.584   9.280
 1922W        W 5666   7.027   5.795   0.476
 1923W        W 5667   6.468   4.900   2.963
 1924W        W 5668   6.436   6.347  10.326
 1925W        W 5669  10.385   2.619   0.435
 1926W        W 5670   6.033   1.127   9.534
 1927W        W 5671   1.374   8.954   9.577
 1928W        W 5672  10.462   4.585   3.032
 1929W        W 5673   9.522   5.860   0.312
 1930W        W 5674   3.718   9.976  11.049
 1931W        W 5675   5.208   0.367   3.005
 1932W        W 5676   6.377   1.900   9.605
 1933W        W 5677   3.124   2.120   3.669
 1934W        W 5678   4.544   3.632   9.995
 1935W        W 5679   8.329   8.062  10.508
 1936W        W 5680   2.899   3.651  11.056
 1937W        W 5681   9.890   6.194   0.521
 1938W        W 5682   0.811   2.683   1.962
 1939W        W 5683   0.191   1.943   0.500
 1940W        W 5684   8.001   4.226   0.285
 1941W        W 5685   8.052   4.381   8.616
 1942W        W 5686   9.868   3.541   8.954
 1943W        W 5687   9.448   4.597   0.966
 1944W        W 5688   0.123  10.377   3.537
 1945W        W 5689   3.149   7.837   9.036
 1946W        W 5690   3.390   0.891   0.353
 1947W        W 5691  10.279   0.008   8.791
 1948W        W 5692  10.035   1.234   8.720
 1949W        W 5693   6.087   7.456   9.098
 1950W        W 5694   7.463   3.110   0.426
 1951W        W 5695   6.176   1.251   0.983
 1952W        W 5696   5.062   1.612   1.794
 1953W        W 5697  10.420   2.116   2.812
 1954W        W 5698   5.683   3.698   1.474
 1955W        W 5699   6.621   2.544  10.350
 1956W        W 5700   1.453   9.188   3.424
 1957W        W 5701   8.031   0.221   1.450
 1958W        W 5702   0.778   0.269   2.836
 1959W        W 5703   1.361   3.691  11.074
 1960W        W 5704   6.884   2.887   9.037
 1961W        W 5705   4.792   9.435  10.459
 1962W        W 5706   0.210   6.944   0.499
 1963W        W 5707   0.958   5.695   1.698
 1964W        W 5708   2.338   5.547   1.006
 1965W        W 5709   4.742   6.583   8.598
 1966W        W 5710   8.564   3.690   1.590
 1967W        W 5711   2.639   0.796  11.055
 1968W        W 5712   5.575   7.436   0.158
 1969W        W 5713   0.746   5.088   9.031
 1970W        W 5714   1.317   1.468   9.856
 1971W        W 5715   1.754  10.312   9.016
 1972W        W 5716   5.763   5.416   0.631
 1973W        W 5717   4.946   6.984  10.321
 1974W        W 5718   9.839   6.008   2.841
 1975W        W 5719   7.164   4.118   9.754
 1976W        W 5720  10.495   5.608   3.357
 1977W        W 5721   5.412   8.054   3.203
 1978W        W 5722   7.977   7.381   0.381
 1979W        W 5723   4.783   4.967   9.400
 1980W        W 5724   5.366   6.208   8.749
 1981W        W 5725   6.649   4.956   0.383
 1982W        W 5726  10.191   4.552   2.090
 1983W        W 5727   8.326   1.383   0.706
 1984W        W 5728   0.065   6.679  11.572
 1985W        W 5729   8.233   4.149   0.745
 1986W        W 5730   2.615   4.462   9.259
 1987W        W 5731   4.592   2.597   9.334
 1988W        W 5732   1.787   5.653   1.675
 1989W        W 5733   4.257   7.958   1.955
 1990W        W 5734  10.463   4.567  11.926
 1991W        W 5735   3.639   5.406  11.809
 1992W        W 5736   1.710   3.795   9.811
 1993W        W 5737   2.950   0.734   0.660
 1994W        W 5738   6.000   1.597   9.794
 1995W        W 5739   0.464   4.300   8.705
 1996W        W 5740  10.431   2.251   9.000
 1997W        W 5741   4.526   3.610   8.110
 1998W        W 5742   9.494  10.359   0.774
 1999W        W 5743   9.276   8.779   1.870
 2000W        W 5744   8.812   5.315   3.325
 2001W        W 5745   8.994  10.279   2.808
 2002W        W 5746  10.187   7.871  10.827
 2003W        W 5747   9.728   9.134   8.433
 2004W        W 5748   0.509   6.960   2.425
 2005W        W 5749   3.073   7.689   1.882
 2006W        W 5750  10.294   5.853   2.652
 2007W        W 5751   2.346   9.940   2.463
 2008W        W 5752   4.634   7.636   9.775
 2009W        W 5753   7.828   4.634   9.872
 2010W        W 5754   5.083   5.174   1.902
 2011W        W 5755   0.530   6.351  11.055
 2012W        W 5756   6.756   3.150   3.162
 2013W        W 5757   2.109   2.542  11.507
 2014W        W 5758   5.461   6.894   0.941
 2015W        W 5759   2.444  10.412   3.179
 2016W        W 5760   8.500   3.575   0.975
 2017W        W 5761   5.991   6.985   9.970
 2018W        W 5762   3.727   3.079  11.973
 2019W        W 5763   0.154  10.480   9.186
 2020W        W 5764   6.550  10.119   1.895
 2021W        W 5765   0.888   9.845   9.087
 2022W        W 5766   6.008   4.222   8.917
 2023W        W 5767   2.125   9.857  11.496
 2024W        W 5768   6.597   9.513   1.097
 2025W        W 5769   8.749   6.438   0.308
 2026W        W 5770   1.249   3.425  10.409
 2027W        W 5771   8.081   0.013  10.975
 2028W        W 5772   0.886   8.633   0.104
 2029W        W 5773   1.454   5.375   8.887
 2030W        W 5774   6.639   8.642   0.762
 2031W        W 5775   3.163   8.045   8.565
 2032W        W 5776   3.409   3.109   2.236
 2033W        W 5777   0.766   5.225   1.769
 2034W        W 5778   1.006   9.493   1.395
 2035W        W 5779   8.807   5.566  11.297
 2036W        W 5780   2.257   0.741   1.406
 2037W        W 5781   3.317   1.788   8.763
 2038W        W 5782   2.308   4.684   2.176
 2039W        W 5783   1.701   6.667   9.351
 2040W        W 5784  10.334  10.339  11.395
 2041W        W 5785   0.263   1.772   1.387
 2042W        W 5786   0.337   2.372   3.633
 2043W        W 5787   5.327   8.560   8.426
 2044W        W 5788   8.586   0.816   1.028
 2045W        W 5789   1.930   0.357   3.090
 2046W        W 5790   9.858   5.174  11.382
 2047W        W 5791   6.686   4.453   2.777
 2048W        W 5792   5.197   0.995   0.172
 2049W        W 5793   1.921   2.243   3.291
 2050W        W 5794   0.248   6.094   1.761
 2051W        W 5795   2.365   6.130   9.310
 2052W        W 5796   3.511   9.641   3.684
 2053W        W 5797   3.186   4.564  10.064
 2054W        W 5798   1.786   2.286  10.842
 2055W        W 5799   9.241   5.425  11.562
 2056W        W 5800  10.361   1.310   3.411
 2057W        W 5801   8.651   3.593   2.905
 2058W        W 5802   4.525   6.683  10.348
 2059W        W 5803   6.987   3.236   0.180
 2060W        W 5804   4.232  10.294   9.176
 2061W        W 5805   3.090   1.192  11.497
 2062W        W 5806   2.147   6.989   0.496
 2063W        W 5807   7.512   2.608  11.340
 2064W        W 5808   6.120   3.983   9.708
 2065W        W 5809   7.001   8.703  11.885
 2066W        W 5810   4.637   3.626   3.449
 2067W        W 5811   2.710   5.242  10.305
 2068W        W 5812   8.485   7.193  10.949
 2069W        W 5813   3.824   3.591   0.071
 2070W        W 5814   5.169   3.515   3.236
 2071W        W 5815   0.136  10.057  10.000
 2072W        W 5816   1.662   5.181   2.750
 2073W        W 5817   1.940   1.721   8.868
 2074W        W 5818   4.307   7.050   9.189
 2075W        W 5819   9.881  10.044   1.891
 2076W        W 5820   7.023   2.218   2.207
 2077W        W 5821   5.703   6.806  10.859
 2078W        W 5822   2.047   4.826   0.031
 2079W        W 5823   7.856   1.674   2.491
 2080W        W 5824   5.966   5.545   1.482
 2081W        W 5825   1.121   4.524  11.459
 2082W        W 5826   2.737   5.603  11.752
 2083W        W 5827   2.757   8.475  11.193
 2084W        W 5828   7.094   1.730   1.955
 2085W        W 5829   1.364   1.138   1.168
 2086W        W 5830   4.206   2.335   3.529
 2087W        W 5831   0.526   7.791   9.532
 2088W        W 5832   2.980  10.005  11.826
 2089W        W 5833   1.340   0.906  11.061
 2090W        W 5834   5.618   4.647   9.637
 2091W        W 5835   7.953   3.620   2.429
 2092W        W 5836   8.962   5.366   0.981
 2093W        W 5837   7.928   2.164  11.899
 2094W        W 5838   0.727   6.074   3.468
 2095W        W 5839   3.868   7.121   2.702
 2096W        W 5840   3.608   4.166   8.595
 2097W        W 5841   8.903   2.674   9.241
 2098W        W 5842   7.750   2.830   0.834
 2099W        W 5843   4.700   4.018  11.909
 2100W        W 5844   0.911  10.138   9.563
 2101W        W 5845   8.786   7.917  10.634
 2102W        W 5846   5.235   2.323   3.132
 2103W        W 5847   1.857   3.123   3.506
 2104W        W 5848   3.313   9.673  10.883
 2105W        W 5849   8.621   0.924  11.849
 2106W        W 5850  10.428   4.645  10.827
 2107W        W 5851   7.112   7.979   2.668
 2108W        W 5852   4.211   9.419   3.291
 2109W        W 5853   2.356   3.150   3.409
 2110W        W 5854   7.689   1.279  10.999
 2111W        W 5855   9.351   3.063   1.786
 2112W        W 5856   7.449   6.994   3.201
 2113W        W 5857   5.465   9.373   2.005
 2114W        W 5858   4.764   0.782   0.303
 2115W        W 5859   6.094   6.065   1.558
 2116W        W 5860   5.587   4.063   8.241
 2117W        W 5861   7.643   1.527  10.036
 2118W        W 5862   3.309   7.236   1.712
 2119W        W 5863   0.293   2.870   0.275
 2120W        W 5864   4.691   1.447  10.788
 2121W        W 5865   2.272   6.620   2.742
 2122W        W 5866   1.191   7.976  10.970
 2123W        W 5867   7.430  10.059  10.251
 2124W        W 5868   8.151   0.507   1.001
 2125W        W 5869   8.425   4.048   8.718
 2126W        W 5870   7.034   3.853   3.295
 2127W        W 5871   1.632   9.716   0.337
 2128W        W 5872   8.392   8.407   9.039
 2129W        W 5873   1.401   9.372   1.700
 2130W        W 5874   1.639   4.134   1.625
 2131W        W 5875   7.523   8.059  10.566
 2132W        W 5876   9.021   6.640   1.142
 2133W        W 5877   1.645   1.082   3.503
 2134W        W 5878   2.786   2.189   0.875
 2135W        W 5879   8.929   6.168   1.325
 2136W        W 5880   1.275   3.821  10.086
 2137W        W 5881   0.292   0.465   2.928
 2138W        W 5882   0.443   8.781   9.567
 2139W        W 5883   7.825   0.624   3.276
 2140W        W 5884   9.106   0.789   9.902
 2141W        W 5885   8.075   2.856  10.219
 2142W        W 5886   1.247   6.372   3.600
 2143W        W 5887   8.491   1.894   9.611
 2144W        W 5888   9.468  10.436   3.008
 2145W        W 5889   7.054   2.398   0.198
 2146W        W 5890   8.812   0.219   2.339
 2147W        W 5891   1.819   8.740   0.440
 2148W        W 5892  10.313   8.961   2.690
 2149W        W 5893   0.990   5.330  11.236
 2150W        W 5894   3.175   2.809   9.871
 2151W        W 5895   0.693   1.744   3.085
 2152W        W 5896   7.481   7.408   0.265
 2153W        W 5897   9.981   4.675   2.891
 2154W        W 5898   4.705   3.735   0.403
 2155W        W 5899   9.930   1.238   0.798
 2156W        W 5900   9.271   0.301  11.406
 2157W        W 5901   1.327   9.877   9.463
 2158W        W 5902   2.911   4.816   8.578
 2159W        W 5903   9.061   6.697   0.631
 2160W        W 5904   8.925   8.441   3.126
 2161W        W 5905   8.068   3.533  11.785
 2162W        W 5906   6.820   8.980   0.260
 2163W        W 5907   6.119   9.523   1.366
 2164W        W 5908   7.938   6.017   2.397
 2165W        W 5909   7.765   7.644  11.959
 2166W        W 5910   4.411   2.752   3.309
 2167W        W 5911   4.121   5.009   0.919
 2168W        W 5912   3.374   9.979   1.467
 2169W        W 5913   7.689   9.273   9.022
 2170W        W 5914  10.330   8.436   2.632
 2171W        W 5915   5.256   1.464   0.004
 2172W        W 5916   7.055   0.409  10.457
 2173W        W 5917   2.561   2.062   1.575
 2174W        W 5918   4.451   2.765   0.604
 2175W        W 5919   1.369   6.851  11.949
 2176W        W 5920   2.720   1.237   2.830
 2177W        W 5921   4.216   4.802   2.339
 2178W        W 5922   0.001   4.712   1.716
 2179W        W 5923   7.200  10.261   2.883
 2180W        W 5924   4.628   8.959  10.621
 2181W        W 5925   9.297   5.729   1.725
 2182W        W 5926   8.462   2.351   0.342
 2183W        W 5927   3.441   9.135   2.877
 2184W        W 5928   3.107   2.719   2.099
 2185W        W 5929  10.271   2.560   3.027
 2186W        W 5930   5.090   9.782   2.032
 2187W        W 5931  10.271   9.701  10.011
 2188W        W 5932   5.573   9.294   0.254
 2189W        W 5933   1.758   8.675   2.636
 2190W        W 5934   7.018   2.825   0.477
 2191W        W 5935   9.920   8.587   9.551
 2192W        W 5936   5.578   9.981   2.719
 2193W        W 5937   7.078   4.922   9.127
 2194W        W 5938   1.817   6.687  11.724
 2195W        W 5939   8.076   5.050  10.028
 2196W        W 5940   2.612   8.068   9.964
 2197W        W 5941   0.341   6.880   1.365
 2198W        W 5942   5.046   4.932  11.027
 2199W        W 5943   8.569   1.475  11.846
 2200W        W 5944   5.861   9.852  11.468
 2201W        W 5945   8.196   7.804   1.836
 2202W        W 5946   9.661   1.347   2.165
 2203W        W 5947   8.321   0.761   0.229
 2204W        W 5948   7.074  10.169   0.761
 2205W        W 5949   9.253   5.134   3.161
 2206W        W 5950   7.018   9.869  10.517
 2207W        W 5951   2.752   0.725   2.838
 2208W        W 5952   9.973   9.378  11.304
 2209W        W 5953   4.154   0.509   0.693
 2210W        W 5954   5.090   7.080  11.516
 2211W        W 5955   8.018   2.290   9.013
 2212W        W 5956   9.781   1.821   0.507
 2213W        W 5957   4.415   7.039   8.669
 2214W        W 5958   8.556   0.057   2.777
 2215W        W 5959   8.140   7.325   2.181
 2216W        W 5960   4.640   2.570  10.265
 2217W        W 5961   2.820   1.755   1.273
 2218W        W 5962   0.343   1.759  11.552
 2219W        W 5963   1.577   2.781  10.799
 2220W        W 5964   4.138   5.257   2.581
 2221W        W 5965   4.116   4.382  10.373
 2222W        W 5966   4.162   8.363   9.574
 2223W        W 5967   2.077   1.501   8.440
 2224W        W 5968   6.019   2.450  11.509
 2225W        W 5969   9.057   3.829   1.738
 2226W        W 5970  10.343  10.446   0.687
 2227W        W 5971   8.382   5.200   0.270
 2228W        W 5972   8.444   7.436   2.740
 2229W        W 5973   7.642   2.684   2.762
 2230W        W 5974   5.625   8.477   1.917
 2231W        W 5975   3.738   9.361   1.024
 2232W        W 5976   0.699   2.570  11.007
 2233W        W 5977   6.179   9.864   1.000
 2234W        W 5978   6.054  10.344   1.191
 2235W        W 5979   8.331   8.554  10.612
 2236W        W 5980   2.422   1.230  10.940
 2237W        W 5981   8.291  10.284   1.301
 2238W        W 5982  10.108   7.493   0.933
 2239W        W 5983   7.115   5.117   1.625
 2240W        W 5984   8.542   3.746  10.520
 2241W        W 5985   6.926   7.444  11.201
 2242W        W 5986   1.031   5.694  11.648
 2243W        W 5987   7.474   4.303   1.169
 2244W        W 5988   3.083   3.243  10.505
 2245W        W 5989   8.395   8.803  11.838
 2246W        W 5990   2.494   2.788  10.593
 2247W        W 5991   9.912   6.053  11.490
 2248W        W 5992   1.007   7.114   9.101
 2249W        W 5993   5.683   1.788  11.505
 2250W        W 5994   6.503   7.099   3.196
 2251W        W 5995   8.392   7.912   3.586
 2252W        W 5996   1.867   5.597   0.761
 2253W        W 5997   2.674   6.529   3.598
 2254W        W 5998   9.600   0.376   3.206
 2255W        W 5999   3.699   4.751   1.838
 2256W        W 6000   8.415   0.947   1.952
 2257W        W 6001   3.138   6.120   3.250
 2258W        W 6002   1.186   2.249  10.062
 2259W        W 6003   4.319   9.898   1.486
 2260W        W 6004   3.286   5.662   0.862
 2261W        W 6005   5.431   0.859  10.062
 2262W        W 6006   6.359   4.973   9.402
 2263W        W 6007   3.618   5.362  11.142
 2264W        W 6008   0.259   5.126   3.393
 2265W        W 6009   2.349   6.065   1.886
 2266W        W 6010   3.109   8.113   9.945
 2267W        W 6011   7.944   3.340   9.404
 2268W        W 6012   7.398   4.041  11.339
 2269W        W 6013   2.364   6.478   0.860
 2270W        W 6014   4.439   4.613   9.553
 2271W        W 6015   8.464   7.704  10.996
 2272W        W 6016   5.732   1.184   2.346
 2273W        W 6017   9.198   0.280  10.054
 2274W        W 6018   9.977   6.963   0.267
 2275W        W 6019   6.284   6.197  11.387
 2276W        W 6020   5.471   5.865  11.296
 2277W        W 6021   5.044   6.976   9.800
 2278W        W 6022   2.846   7.476  11.972
 2279W        W 6023   8.081   4.519   1.913
 2280W        W 6024   8.965   6.021   9.440
 2281W        W 6025   7.173   1.724   1.463
 2282W        W 6026  10.338   9.903   2.196
 2283W        W 6027   5.550   7.095   9.666
 2284W        W 6028   1.415   7.543   9.808
 2285W        W 6029   6.584   6.214  11.815
 2286W        W 6030   7.167   9.242  11.325
 2287W        W 6031   5.256   7.894  11.850
 2288W        W 6032   2.912   1.079   0.294
 2289W        W 6033   3.395   0.386  11.743
 2290W        W 6034   4.929   4.402   9.531
 2291W        W 6035  10.160   1.453   2.216
 2292W        W 6036   9.389   8.114  11.100
 2293W        W 6037   7.991   0.272   2.490
 2294W        W 6038   1.562   3.355  10.019
 2295W        W 6039   1.522   8.265   0.532
 2296W        W 6040   7.062   3.098   2.203
 2297W        W 6041   0.085   4.003  10.112
 2298W        W 6042   9.232   1.388   2.491
 2299W        W 6043   6.474   2.429   1.901
 2300W        W 6044   0.273   6.452   0.401
 2301W        W 6045   1.258   6.880   3.385
 2302W        W 6046   1.962  10.441   0.734
 2303W        W 6047   2.822   6.402   8.588
 2304W        W 6048   0.493   2.306   9.055
 2305W        W 6049   8.016   4.170   2.662
 2306W        W 6050   7.046   8.875   9.080
 2307W        W 6051   1.183   5.088   1.527
 2308W        W 6052   9.603  10.347  10.894
 2309W        W 6053   8.359  10.468   2.285
 2310W        W 6054   1.588   5.179   0.878
 2311W        W 6055   9.582   0.833   2.978
 2312W        W 6056   0.721   3.387   2.752
 2313W        W 6057   2.817   8.521   1.362
 2314W        W 6058  10.492   2.212   3.316
 2315W        W 6059   1.278   3.194  10.857
 2316W        W 6060   0.302   2.350  10.769
 2317W        W 6061   3.585   4.107   0.900
 2318W        W 6062   5.074   8.411  11.053
 2319W        W 6063   0.456   1.830   9.835
 2320W        W 6064   0.871   0.913  11.282
 2321W        W 6065   1.993   7.078   9.304
 2322W        W 6066   5.219   6.638  10.785
 2323W        W 6067   0.889   6.342   1.398
 2324W        W 6068   2.246  10.212  10.754
 2325W        W 6069   7.394   5.727   3.557
 2326W        W 6070   6.259   2.886  11.700
 2327W        W 6071   3.374   7.120   9.532
 2328W        W 6072   8.106   8.142   0.765
 2329W        W 6073   3.734   6.887  11.914
 2330W        W 6074   1.379   9.305   0.131
 2331W        W 6075   5.442   6.071   1.093
 2332W        W 6076   3.666   7.160  10.577
 2333W        W 6077  10.113   6.561  11.348
 2334W        W 6078   7.466   3.278  10.196
 2335W        W 6079   6.672   3.711   0.634
 2336W        W 6080   7.094   4.531   1.591
 2337W        W 6081   0.540   1.879  10.725
 2338W        W 6082   3.789   8.722   3.475
 2339W        W 6083   9.594   2.798   9.065
 2340W        W 6084   5.586   7.960   0.226
 2341W        W 6085   9.286   9.853   9.953
 2342W        W 6086   7.186   2.716   8.622
 2343W        W 6087   5.269   7.582   3.083
 2344W        W 6088   3.727   3.817  11.535
 2345W        W 6089   5.579   1.726   9.532
 2346W        W 6090   8.716   1.400   2.530
 2347W        W 6091   7.999   3.670   0.784
 2348W        W 6092   9.103   2.682   2.819
 2349W        W 6093  10.059   7.058   3.460
 2350W        W 6094   8.893   5.719  11.817
 2351W        W 6095   4.210   3.794   9.614
 2352W        W 6096   7.500   5.039   8.861
 2353W        W 6097   0.466   4.591   0.094
 2354W        W 6098   3.198   5.417  10.211
 2355W        W 6099   3.263   1.236   0.736
 2356W        W 6100   1.684   9.806   9.831
 2357W        W 6101   6.130   1.230   9.029
 2358W        W 6102   1.655   9.678  10.333
 2359W        W 6103   0.483   2.120  11.205
 2360W        W 6104   1.515  10.343   1.825
 2361W        W 6105   7.177   5.064   1.135
 2362W        W 6106   7.391   3.117   2.787
 2363W        W 6107   6.475   4.513  11.606
 2364W        W 6108   0.728   1.252  10.947
 2365W        W 6109   4.330   2.732   1.422
 2366W        W 6110   5.557   8.939   1.683
 2367W        W 6111   6.490   0.056   9.634
 2368W        W 6112   3.212   3.697   3.563
 2369W        W 6113   2.306   9.447  11.774
 2370W        W 6114  10.299   9.149   8.915
 2371W        W 6115   4.639   3.722   1.422
 2372W        W 6116   2.061   9.493   8.506
 2373W        W 6117   9.082   4.596   0.608
 2374W        W 6118   8.094   6.582   9.770
 2375W        W 6119   2.833   3.933   1.484
 2376W        W 6120  10.121   5.640   9.440
 2377W        W 6121   2.955   8.580  10.161
 2378W        W 6122   3.650   7.970  11.825
 2379W        W 6123   6.823   5.513   1.772
 2380W        W 6124   3.831   8.320   2.133
 2381W        W 6125   0.271   1.309  10.736
 2382W        W 6126   3.295   1.295  10.078
 2383W        W 6127   9.219   8.195   8.638
 2384W        W 6128   5.291   3.020   2.557
 2385W        W 6129  10.342   9.179  10.090
 2386W        W 6130   2.046   2.821   8.847
 2387W        W 6131   2.650   5.024   2.381
 2388W        W 6132   8.956   9.836   1.264
 2389W        W 6133   3.176   6.136   0.999
 2390W        W 6134   8.740   0.450   0.126
 2391W        W 6135   1.237   8.164   2.716
 2392W        W 6136   4.608   1.607   9.914
 2393W        W 6137   6.603   2.241   0.357
 2394W        W 6138   3.016   4.105   9.429
 2395W        W 6139   8.983   9.325  10.773
 2396W        W 6140   8.605   4.620   9.369
 2397W        W 6141   4.506  10.448   0.290
 2398W        W 6142   0.150   9.800  10.493
 2399W        W 6143   7.910   4.742  10.759
 2400W        W 6144   1.441   9.120   2.152
 2401W        W 6145   5.938   7.644  10.398
 2402W        W 6146   5.073   8.151   3.638
 2403W        W 6147   0.853   3.565   2.268
 2404W        W 6148   9.810   6.160  10.462
 2405W        W 6149   5.996   8.672  11.890
 2406W        W 6150   3.351   6.824  10.388
 2407W        W 6151   4.656   2.634  11.763
 2408W        W 6152   4.247   1.773   8.765
 2409W        W 6153   3.760   7.593   4.025
 2410W        W 6154   8.927   7.530   2.587
 2411W        W 6155   7.749   0.360   8.408
 2412W        W 6156  10.072   9.459   1.179
 2413W        W 6157   1.599   4.593   3.635
 2414W        W 6158   8.543   9.373  10.072
 2415W        W 6159   5.331   4.791   2.151
 2416W        W 6160   8.844  10.449  11.372
 2417W        W 6161   2.831   0.192   3.504
 2418W        W 6162   7.583   2.687   9.529
 2419W        W 6163   5.549   8.298  11.756
 2420W        W 6164  10.456   7.847   3.284
 2421W        W 6165   6.519   0.465  11.953
 2422W        W 6166   2.370   6.867   9.622
 2423W        W 6167   2.870   8.088   9.365
 2424W        W 6168   8.410   4.201   1.259
 2425W        W 6169   5.559   5.153  10.367
 2426W        W 6170   9.907   1.893   9.963
 2427W        W 6171   4.776   3.674   2.460
 2428W        W 6172  10.116   8.387   0.287
 2429W        W 6173   5.057   9.242   0.234
 2430W        W 6174   4.672   1.221  10.320
 2431W        W 6175   0.690   2.269   9.973
 2432W        W 6176   2.233   4.765   9.077
 2433W        W 6177   8.887   9.566   1.719
 2434W        W 6178   7.245   6.506   9.908
 2435W        W 6179   0.403   4.328   0.553
 2436W        W 6180   9.220   5.760   1.212
 2437W        W 6181   2.793   9.390   3.009
 2438W        W 6182   2.700   7.823   0.689
 2439W        W 6183   2.555   0.318  11.300
 2440W        W 6184   6.147   4.738  11.275
 2441W        W 6185   2.913   0.276   9.247
 2442W        W 6186   0.949   0.475   8.466
 2443W        W 6187   9.869   3.718   1.258
 2444W        W 6188   4.945   3.969   4.107
 2445W        W 6189   7.182   7.723  10.841
 2446W        W 6190   8.915   5.994   8.925
 2447W        W 6191   1.650   4.211  10.769
 2448W        W 6192   7.089   4.593   9.529
 2449W        W 6193   0.764   1.430   9.999
 2450W        W 6194   8.894   0.279   0.912
 2451W        W 6195  10.341   7.195   9.004
 2452W        W 6196   2.128   1.854  10.776
 2453W        W 6197   3.724   1.000   9.114
 2454W        W 6198   2.340   8.701   9.469
 2455W        W 6199   4.139   1.345   1.864
 2456W        W 6200   7.652   8.110   3.534
 2457W        W 6201   6.913   0.788   9.564
 2458W        W 6202   1.863   1.374   1.986
 2459W        W 6203   7.458   8.437  11.670
 2460W        W 6204   2.712   2.124   2.906
 2461W        W 6205  10.456  10.048  10.942
 2462W        W 6206   3.261   8.019   3.592
 2463W        W 6207   7.902   0.723   2.761
 2464W        W 6208   2.322   7.653   2.994
 2465W        W 6209   2.596   2.249   2.437
 2466W        W 6210  10.414   3.713   0.031
 2467W        W 6211   6.480   6.985   1.832
 2468W        W 6212   6.104  10.461   1.733
 2469W        W 6213   3.884   0.132   8.962
 2470W        W 6214   3.754   0.536   9.307
 2471W        W 6215   7.201   7.845   0.867
 2472W        W 6216   5.064   3.565   9.881
 2473W        W 6217   8.098   9.307  10.358
 2474W        W 6218   1.774   0.863   1.277
 2475W        W 6219   1.868   2.101  10.376
 2476W        W 6220   6.690   2.890   0.873
 2477W        W 6221   4.608   8.559  11.897
 2478W        W 6222  10.005   9.549   8.579
 2479W        W 6223   6.264   8.824  11.464
 2480W        W 6224   0.394   4.180   1.046
 2481W        W 6225   6.057   6.330   3.424
 2482W        W 6226   8.217   7.968   8.779
 2483W        W 6227   4.151   7.712   0.802
 2484W        W 6228   5.229  10.155  11.905
 2485W        W 6229  10.145   8.501   1.181
 2486W        W 6230   5.119   2.523  10.018
 2487W        W 6231   3.188  10.485   1.262
 2488W        W 6232   5.021   6.026  11.907
 2489W        W 6233   7.541   8.811   8.771
 2490W        W 6234   8.930   3.141   9.034
 2491W        W 6235   0.852   7.486  10.289
 2492W        W 6236   0.378   1.597  10.312
 2493W        W 6237   0.896   8.976   1.424
 2494W        W 6238  10.088   8.113   9.442
 2495W        W 6239   7.160   2.882  11.077
 2496W        W 6240   2.886   0.231   1.593
 2497W        W 6241   2.490   7.263   9.300
 2498W        W 6242   3.872   8.098   1.634
 2499W        W 6243   5.418   4.269   3.137
 2500W        W 6244   9.934   2.443  11.678
 2501W        W 6245   3.370   0.274   1.743
 2502W        W 6246   7.558   3.809  10.426
 2503W        W 6247   4.268   3.889  11.287
 2504W        W 6248   0.046   5.916   2.211
 2505W        W 6249   0.657   6.572  10.253
 2506W        W 6250   7.920   2.268   2.817
 2507W        W 6251   9.392   3.141   1.288
 2508W        W 6252   3.718   1.285   0.992
 2509W        W 6253   4.579   7.994   3.600
 2510W        W 6254   1.197   5.322  10.299
 2511W        W 6255   5.718   9.891   1.301
 2512W        W 6256   0.719   7.439   2.233
 2513W        W 6257   7.918  10.023  11.037
 2514W        W 6258   9.412   7.656  10.172
 2515W        W 6259   5.663   4.504   9.153
 2516W        W 6260   7.980   1.718   1.988
 2517W        W 6261   7.818   7.051   0.865
 2518W        W 6262   8.094   0.239   2.991
 2519W        W 6263   9.357   2.824   0.485
 2520W        W 6264   2.126   7.440   1.726
 2521W        W 6265   4.147   8.633   0.861
 2522W        W 6266   8.907   5.975  10.955
 2523W        W 6267   9.587  10.012   3.702
 2524W        W 6268   9.987   4.446   1.646
 2525W        W 6269   2.396   5.328   1.466
 2526W        W 6270  10.051   4.883  11.824
 2527W        W 6271   8.130   2.447   1.438
 2528W        W 6272   9.191   3.664   9.159
 2529W        W 6273   6.273   2.898   1.164
 2530W        W 6274  10.278   1.273   9.982
 2531W        W 6275  10.404   2.423   1.950
 2532W        W 6276   6.491   2.769   2.759
 2533W        W 6277   8.414   7.206   9.165
 2534W        W 6278   9.937  10.249   2.785
 2535W        W 6279   0.824   6.809   1.177
 2536W        W 6280   3.267   0.227  10.038
 2537W        W 6281   2.112   2.692   3.426
 2538W        W 6282   4.057   5.277   0.468
 2539W        W 6283   6.218   6.938   9.090
 2540W        W 6284   2.867   4.169   9.914
 2541W        W 6285   3.201   9.691   9.909
 2542W        W 6286   5.949   6.631  11.300
 2543W        W 6287   8.156   4.037  11.832
 2544W        W 6288   7.234   5.590   1.187
 2545W        W 6289   0.915   9.151   9.433
 2546W        W 6290   5.217   0.276   1.934
 2547W        W 6291   6.237   1.235  10.047
 2548W        W 6292   7.861   5.444   1.760
 2549W        W 6293   7.410   8.088   3.084
 2550W        W 6294   5.453   7.835   3.721
 2551W        W 6295   7.043   6.076   0.040
 2552W        W 6296   1.890   4.261   9.859
 2553W        W 6297   4.993   2.913   8.554
 2554W        W 6298   3.157   3.456   3.096
 2555W        W 6299   9.325   9.246   3.334
 2556W        W 6300   6.260   4.961   2.123
 2557W        W 6301   4.510   7.702  11.444
 2558W        W 6302   9.006   4.514  11.043
 2559W        W 6303   8.578   9.297  11.122
 2560W        W 6304   5.969   3.503   9.866
 2561W        W 6305  10.454   0.326   3.327
 2562W        W 6306   3.565   2.263   8.737
 2563W        W 6307   8.141   9.328  11.520
 2564W        W 6308   4.725   8.367   0.408
 2565W        W 6309   8.887   1.461   1.494
 2566W        W 6310   6.929   0.809  10.925
 2567W        W 6311   4.591   6.653   9.082
 2568W        W 6312   9.151   3.442   2.076
 2569W        W 6313   8.490   7.397   0.332
 2570W        W 6314   4.675   9.065  10.108
 2571W        W 6315   1.747   6.488   3.508
 2572W        W 6316   5.214   1.333   2.502
 2573W        W 6317   3.621   8.392  10.885
 2574W        W 6318   5.618   1.706   0.545
 2575W        W 6319   3.823   7.485   9.769
 2576W        W 6320   5.647   5.158   1.297
 2577W        W 6321   9.403   7.898   2.077
 2578W        W 6322   7.226   1.382   9.768
 2579W        W 6323   8.511   6.738  10.016
 2580W        W 6324   9.881   9.718   2.841
 2581W        W 6325   4.059   1.530  11.551
 2582W        W 6326   0.742   6.124   9.898
 2583W        W 6327   1.368   8.515  11.096
 2584W        W 6328   3.330   1.463  10.594
 2585W        W 6329  10.498   0.006   9.696
 2586W        W 6330   2.698   4.910   3.560
 2587W        W 6331   5.768   0.785  10.493
 2588W        W 6332   0.777   4.350   1.742
 2589W        W 6333   6.005   7.312   9.567
 2590W        W 6334   0.854   4.673   8.682
 2591W        W 6335   4.592   8.467  11.362
 2592W        W 6336   2.219   3.203  10.683
 2593W        W 6337   6.676   8.400   1.855
 2594W        W 6338   0.377   5.718   9.984
 2595W        W 6339   9.628   5.373   0.461
 2596W        W 6340   9.806   3.059   0.073
 2597W        W 6341   4.312   9.528  11.843
 2598W        W 6342   1.709   3.663  10.399
 2599W        W 6343   0.460   0.485   0.360
 2600W        W 6344   1.738   5.835   8.812
 2601W        W 6345  10.213   2.791  11.965
 2602W        W 6346   5.799   2.497   9.969
 2603W        W 6347   6.588   2.944   1.914
 2604W        W 6348   6.487   3.918  10.346
 2605W        W 6349   7.451   2.264   8.782
 2606W        W 6350   6.529  10.387  10.122
 2607W        W 6351   2.235   9.659   9.251
 2608W        W 6352   4.684   6.411   1.308
 2609W        W 6353   3.612  10.402  10.308
 2610W        W 6354   2.974   5.652   3.110
 2611W        W 6355   6.287  10.272   3.238
 2612W        W 6356   9.432   3.076   2.797
 2613W        W 6357   8.052   1.793   8.818
 2614W        W 6358   8.941   9.517   9.799
 2615W        W 6359   9.428   2.171   1.774
 2616W        W 6360   8.453   0.234   8.845
 2617W        W 6361   5.381   9.565   9.819
 2618W        W 6362   6.985   2.196   3.255
 2619W        W 6363   7.895   3.874  11.375
 2620W        W 6364   1.140   1.404  11.212
 2621W        W 6365   7.082   5.027  11.803
 2622W        W 6366   8.306   7.099   1.239
 2623W        W 6367   4.218   6.551   1.099
 2624W        W 6368   2.740   9.895  10.026
 2625W        W 6369   5.447   7.614   1.608
 2626W        W 6370   7.125   5.752  10.220
 2627W        W 6371   8.421   0.742   8.742
 2628W        W 6372   7.253   9.287   9.272
 2629W        W 6373   6.056   1.981  11.216
 2630W        W 6374   7.345   5.186  10.236
 2631W        W 6375   2.036   9.923   0.647
 2632W        W 6376   9.968   9.311  11.877
 2633W        W 6377   4.604   0.673  10.646
 2634W        W 6378   9.852   9.492  10.794
 2635W        W 6379   9.491   1.820   2.416
 2636W        W 6380   9.511   0.408   9.108
 2637W        W 6381   5.208   1.945  10.269
 2638W        W 6382   2.789   9.296   2.500
 2639W        W 6383   1.141   0.983   0.731
 2640W        W 6384   5.929   3.013   9.012
 2641W        W 6385   6.514  10.169  11.593
 2642W        W 6386   6.966   8.522  10.700
 2643W        W 6387   0.371   2.659  10.049
 2644W        W 6388   2.448   9.550   0.608
 2645W        W 6389   0.520   7.386  10.968
 2646W        W 6390   3.774   0.438   2.491
 2647W        W 6391   5.231   5.044  11.861
 2648W        W 6392   3.712   6.733   9.702
 2649W        W 6393   9.753   6.622   9.509
 2650W        W 6394   0.035   3.396   0.820
 2651W        W 6395   9.467   9.866  10.722
 2652W        W 6396   2.229  10.440  10.273
 2653W        W 6397   0.204   3.346  11.026
 2654W        W 6398   6.126   1.105   2.740
 2655W        W 6399   2.844   6.065   1.433
 2656W        W 6400   5.669   0.072   0.899
 2657W        W 6401   8.959   4.754   2.909
 2658W        W 6402   8.508   4.127   2.832
 2659W        W 6403   3.641   7.100  10.053
 2660W        W 6404   5.238   6.500   9.869
 2661W        W 6405   6.133   7.695   0.076
 2662W        W 6406   7.568   3.927   2.536
 2663W        W 6407   6.083   1.479   0.527
 2664W        W 6408   4.622   8.354   2.116
 2665W        W 6409   7.068   4.830   2.034
 2666W        W 6410   7.962   7.625   3.606
 2667W        W 6411   8.511   3.399   0.483
 2668W        W 6412   5.535   6.480  10.432
 2669W        W 6413   6.335   8.172   8.708
 2670W        W 6414   9.282   4.288   1.860
 2671W        W 6415   4.487   3.227   1.430
 2672W        W 6416   4.218   8.048  10.783
 2673W        W 6417   9.473   6.704   3.039
 2674W        W 6418   1.475   1.931   0.753
 2675W        W 6419   9.738   9.027   1.821
 2676W        W 6420   6.794   8.250   8.390
 2677W        W 6421  10.301   2.746  11.456
 2678W        W 6422   1.837   0.395   0.500
 2679W        W 6423   8.875   5.508   1.905
 2680W        W 6424   0.252   1.311  11.768
 2681W        W 6425   1.650   4.100   2.634
 2682W        W 6426   8.492   4.587   1.636
 2683W        W 6427   6.672   4.459  10.570
 2684W        W 6428   6.685   3.137  11.542
 2685W        W 6429   7.682   0.522   1.237
 2686W        W 6430   9.869   9.129  10.413
 2687W        W 6431  10.351   2.594  10.979
 2688W        W 6432   4.487   5.586   0.372
 2689W        W 6433   1.412   6.023   1.658
 2690W        W 6434   2.216   1.303   0.686
 2691W        W 6435   3.766   1.894   9.551
 2692W        W 6436   9.681   1.775   2.906
 2693W        W 6437   8.380   5.703  11.576
 2694W        W 6438   9.836   1.686   8.846
 2695W        W 6439   0.295   5.047   8.777
 2696W        W 6440   0.298   4.898  10.552
 2697W        W 6441   5.883   7.600   3.861
 2698W        W 6442   8.489   7.571   1.350
 2699W        W 6443   9.222   8.112   9.710
 2700W        W 6444   1.084   7.673   2.673
 2701W        W 6445   4.198   8.912   1.703
 2702W        W 6446   8.801   0.557   1.941
 2703W        W 6447   0.811   9.477  10.030
 2704W        W 6448   4.979   3.991   3.226
 2705W        W 6449   7.438   5.536  11.485
 2706W        W 6450   1.157   4.324  10.356
 2707W        W 6451   2.322   2.689  11.967
 2708W        W 6452   4.521   6.560   0.292
 2709W        W 6453   0.360   9.783   1.246
 2710W        W 6454   2.269   7.182   3.195
 2711W        W 6455   9.746   6.465  11.719
 2712W        W 6456   7.903   8.442   9.298
 2713W        W 6457   7.527   4.747   2.258
 2714W        W 6458   4.365   4.196   9.923
 2715W        W 6459   5.816   9.312   9.620
 2716W        W 6460   8.624   9.375  11.626
 2717W        W 6461   3.110   1.541   0.333
 2718W        W 6462   9.467   6.225  11.269
 2719W        W 6463   9.193   0.705   9.403
 2720W        W 6464   8.362   3.314  10.266
 2721W        W 6465   1.836   0.670  10.337
 2722W        W 6466   3.508   6.921   0.712
 2723W        W 6467   1.394   5.606  11.982
 2724W        W 6468   8.829   7.141   0.626
 2725W        W 6469   0.351   0.245  10.409
 2726W        W 6470   8.609   4.788  11.861
 2727W        W 6471   2.689   9.806   1.741
 2728W        W 6472   7.857   5.284   8.566
 2729W        W 6473  10.336   5.245  11.602
 2730W        W 6474   7.479   6.997   9.160
 2731W        W 6475   2.113  10.304   2.162
 2732W        W 6476   8.572   7.827  10.141
 2733W        W 6477   1.917   6.192   1.591
 2734W        W 6478   6.362   0.671   2.672
 2735W        W 6479   3.204   9.549   2.657
 2736W        W 6480   5.831   4.524   0.872
 2737W        W 6481   0.409  10.365   0.247
 2738W        W 6482   6.203   1.638   1.887
 2739W        W 6483   1.860   8.579   9.280
 2740W        W 6484   6.585  10.299  11.118
 2741W        W 6485   9.250   2.363   0.888
 2742W        W 6486   3.211   0.973  10.475
 2743W        W 6487   1.521   1.007   2.071
 2744W        W 6488   8.721   8.219   9.847
 2745W        W 6489   6.111   4.293  10.984
 2746W        W 6490   3.785   7.673  11.440
 2747W        W 6491   0.481   1.869   0.044
 2748W        W 6492   8.013   3.143   8.867
 2749W        W 6493   7.018   9.172   1.037
 2750W        W 6494   7.457   0.512   2.955
 2751W        W 6495  10.468   4.666   9.998
 2752W        W 6496   9.398   9.362   9.950
 2753W        W 6497   7.479   0.133  11.319
 2754W        W 6498   7.833   6.979   1.393
 2755W        W 6499  10.308   1.208  10.956
 2756W        W 6500   5.160   1.334  10.508
 2757W        W 6501   3.060  10.260   9.155
 2758W        W 6502   0.954   7.064   8.572
 2759W        W 6503   7.114   8.844   0.647
 2760W        W 6504   2.288   8.868   1.541
 2761W        W 6505  10.264   6.098   3.504
 2762W        W 6506   0.365   0.915   0.082
 2763W        W 6507  10.353   4.098  10.568
 2764W        W 6508   8.583   2.627   1.194
 2765W        W 6509   8.401   0.219   9.733
 2766W        W 6510   0.654   7.349   9.350
 2767W        W 6511   8.371   5.537   1.745
 2768W        W 6512   8.709   4.177   9.112
 2769W        W 6513   0.832   3.706   9.355
 2770W        W 6514   6.187   4.431   2.127
 2771W        W 6515   8.382   6.539  11.466
 2772W        W 6516   2.582   4.755  11.250
 2773W        W 6517   9.942   6.929   1.877
 2774W        W 6518   8.295   9.630   0.407
 2775W        W 6519   3.422   3.232  10.106
 2776W        W 6520   0.064   5.995   1.285
 2777W        W 6521   2.014   8.263   0.389
 2778W        W 6522  10.408   6.426   1.528
 2779W        W 6523   6.855   5.322  10.189
 2780W        W 6524   2.661   5.991   0.955
 2781W        W 6525   7.465   5.887  10.788
 2782W        W 6526   6.154   9.994   1.545
 2783W        W 6527   9.150   1.767   2.831
 2784W        W 6528   8.609   5.074   1.737
 2785W        W 6529   0.270   8.543   2.944
 2786W        W 6530   8.344   9.725  11.298
 2787W        W 6531   5.715   7.095   9.174
 2788W        W 6532   7.241   1.855  10.000
 2789W        W 6533   6.160   8.662  10.534
 2790W        W 6534   1.726   5.988   3.530
 2791W        W 6535   5.924   4.120   3.084
 2792W        W 6536   7.027   0.716   0.720
 2793W        W 6537   2.505   8.270   0.544
 2794W        W 6538   9.761   5.917   1.838
 2795W        W 6539   8.431   9.077   3.488
 2796W        W 6540   8.532   2.870  10.486
 2797W        W 6541   3.288   3.262   8.576
 2798W        W 6542   3.113   2.256  11.111
 2799W        W 6543   9.065   1.251   8.730
 2800W        W 6544   8.903   7.018   1.900
 2801W        W 6545   0.215   3.078  10.392
 2802W        W 6546  10.422   8.213   2.138
 2803W        W 6547   2.211   6.396  11.600
 2804W        W 6548  10.437   6.037   9.442
 2805W        W 6549   3.061   2.412   0.115
 2806W        W 6550   3.884   3.339   0.524
 2807W        W 6551   5.575   3.300  11.608
 2808W        W 6552   8.544   8.600   2.820
 2809W        W 6553   8.792  10.342   8.929
 2810W        W 6554   1.914   8.058   1.783
 2811W        W 6555   5.270   9.565   3.396
 2812W        W 6556   3.875   2.331   9.805
 2813W        W 6557   4.537   7.928   0.572
 2814W        W 6558   8.141   1.714  10.332
 2815W        W 6559   9.822   0.512  10.337
 2816W        W 6560   9.863   0.958  10.088
 2817W        W 6561   6.027   2.764   8.434
 2818W        W 6562   7.975   8.874   1.213
 2819W        W 6563   1.318   4.244   3.443
 2820W        W 6564   6.043   0.008   0.225
 2821W        W 6565   9.996   7.418  10.027
 2822W        W 6566   1.146   8.983   0.994
 2823W        W 6567   8.338   0.032   0.820
 2824W        W 6568   3.139   5.262   1.490
 2825W        W 6569   1.896   3.724   1.809
 2826W        W 6570   8.459   6.075   1.692
 2827W        W 6571   0.027   0.204   0.280
 2828W        W 6572   0.037   1.158   8.484
 2829W        W 6573   7.639   1.079  10.354
 2830W        W 6574   7.806   6.191   1.014
 2831W        W 6575   4.079   9.016   1.222
 2832W        W 6576  10.084   2.650   0.856
 2833W        W 6577   9.493   8.896   0.518
 2834W        W 6578   1.036   5.217   9.433
 2835W        W 6579   5.954   8.821   9.863
 2836W        W 6580   9.389   2.329   0.394
 2837W        W 6581   8.034   6.174   8.856
 2838W        W 6582   7.183   5.471  10.633
 2839W        W 6583   8.366   5.393   3.553
 2840W        W 6584   0.312   9.952  11.921
 2841W        W 6585   9.322   5.361   9.705
 2842W        W 6586   3.298   1.371   9.057
 2843W        W 6587   1.042   4.817   1.956
 2844W        W 6588   8.520   6.179   3.153
 2845W        W 6589   9.427   6.281   9.294
 2846W        W 6590   6.940  10.448   0.306
 2847W        W 6591  10.497   0.760   2.319
 2848W        W 6592   6.674   7.820  11.945
 2849W        W 6593   5.298   1.430  11.509
 2850W        W 6594   6.240   8.879   2.967
 2851W        W 6595   1.408   0.961  10.028
 2852W        W 6596   7.947   2.150   2.322
 2853W        W 6597   1.017   5.846   0.321
 2854W        W 6598   8.687   0.040   0.462
 2855W        W 6599   4.642   8.931   9.606
 2856W        W 6600   5.550   3.214   0.159
 2857W        W 6601   1.850   6.776  11.203
 2858W        W 6602   4.148   6.379   0.604
 2859W        W 6603   3.461  10.047   0.000
 2860W        W 6604   2.607   4.115  10.382
 2861W        W 6605   5.249   8.668   3.766
 2862W        W 6606   0.473   8.937   2.067
 2863W        W 6607   1.323   2.028  11.857
 2864W        W 6608   0.422   7.168   2.880
 2865W        W 6609   3.219   1.814   9.860
 2866W        W 6610   7.249   0.377   9.989
 2867W        W 6611   4.734   3.129  10.250
 2868W        W 6612   4.554   9.427   9.569
 2869W        W 6613   8.514   4.466   3.628
 2870W        W 6614   8.595   3.866   0.050
 2871W        W 6615   9.356   1.694   3.307
 2872W        W 6616   3.045   2.664   1.081
 2873W        W 6617   1.275  10.368   9.247
 2874W        W 6618   6.638   5.665   0.926
 2875W        W 6619   4.415   5.830  11.406
 2876W        W 6620   7.959   8.179  10.831
 2877W        W 6621   1.396   4.743  11.824
 2878W        W 6622   1.869   9.912   1.118
 2879W        W 6623   3.002   9.164  11.868
 2880W        W 6624   8.811   9.514   0.282
 2881W        W 6625   4.179   7.417  10.128
 2882W        W 6626   8.514   1.318  10.441
 2883W        W 6627   3.030   0.064   2.084
 2884W        W 6628   0.429   7.091   1.924
 2885W        W 6629   9.289   9.288   1.901
 2886W        W 6630   7.454   0.117   1.462
 2887W        W 6631   1.095   8.278   1.923
 2888W        W 6632   5.050   8.735   9.303
 2889W        W 6633   4.585   9.096  11.984
 2890W        W 6634   1.489   9.330   1.153
 2891W        W 6635   2.768   9.492   9.241
 2892W        W 6636   5.920   7.987   8.974
 2893W        W 6637   7.849   9.765  10.414
 2894W        W 6638   6.191   4.219   0.717
 2895W        W 6639   3.327   0.457  10.489
 2896W        W 6640   8.283   2.376   1.983
 2897W        W 6641   4.620   2.641   1.896
 2898W        W 6642  10.160   5.216   0.502
 2899W        W 6643   6.755   1.663  10.558
 2900W        W 6644   2.072   2.188   1.444
 2901W        W 6645   8.349   6.950  11.786
 2902W        W 6646   6.885   6.610  10.307
 2903W        W 6647   8.059   5.218  10.952
 2904W        W 6648   8.776   5.713   1.465
 2905W        W 6649   4.071   4.685  11.648
 2906W        W 6650   6.010   5.293   9.626
 2907W        W 6651   9.866   4.177  11.397
 2908W        W 6652   4.302   3.090   9.978
 2909W        W 6653   1.591   4.555  11.158
 2910W        W 6654   2.415   4.322   3.293
 2911W        W 6655   7.133   6.920  11.220
 2912W        W 6656   5.621   4.224   2.661
 2913W        W 6657   2.819   9.312   0.871
 2914W        W 6658   3.032   4.741   1.165
 2915W        W 6659  10.322   3.472   1.285
 2916W        W 6660   4.874   8.646   2.498
 2917W        W 6661   5.205   0.491   0.258
 2918W        W 6662   8.141   3.695   7.980
 2919W        W 6663   7.913   6.896   3.483
 2920W        W 6664   2.713   9.454   9.743
 2921W        W 6665  10.168   5.970  10.750
 2922W        W 6666   9.851   5.547   2.628
 2923W        W 6667   5.138   7.519   9.579
 2924W        W 6668   3.583   4.006   9.401
 2925W        W 6669   1.114   0.110  11.703
 2926W        W 6670   1.670  10.235   0.366
 2927W        W 6671  10.489   7.369  10.077
 2928W        W 6672   7.703   6.561   9.042
 2929W        W 6673   8.314   5.809   1.274
 2930W        W 6674   4.590   6.290  11.867
 2931W        W 6675   3.390   4.534  11.115
 2932W        W 6676   9.977   1.334   9.216
 2933W        W 6677   0.182   5.260  10.217
 2934W        W 6678   0.996   1.621  10.713
 2935W        W 6679   1.679   7.455   1.976
 2936W        W 6680   0.195   0.394  10.883
 2937W        W 6681   7.016   4.869   0.706
 2938W        W 6682   6.828   8.914   1.860
 2939W        W 6683   4.552   8.545   9.276
 2940W        W 6684   7.508   4.772   1.393
 2941W        W 6685   4.185   8.287   0.499
 2942W        W 6686   5.131   3.203  11.865
 2943W        W 6687   4.687   5.962   1.739
 2944W        W 6688   8.669   8.090   9.355
 2945W        W 6689   0.170   4.440  10.406
 2946W        W 6690   6.382   2.036  10.526
 2947W        W 6691   0.224   7.988   0.751
 2948W        W 6692   9.815   0.385  11.308
 2949W        W 6693   8.457   7.517  10.529
 2950W        W 6694   1.190   5.198  11.745
 2951W        W 6695   6.546   3.749   2.330
 2952W        W 6696   5.208   7.402   2.621
 2953W        W 6697   3.866   1.276  11.953
 2954W        W 6698   2.530   6.666   0.404
 2955W        W 6699   5.542   8.066   2.212
 2956W        W 6700   5.101   8.359   0.023
 2957W        W 6701   0.361   1.305   3.244
 2958W        W 6702   6.255   2.121  10.038
 2959W        W 6703   8.103   5.515   2.214
 2960W        W 6704   4.256   4.809   0.379
 2961W        W 6705   1.307   2.813   1.933
 2962W        W 6706   0.263   4.265   3.330
 2963W        W 6707   5.278   3.501  11.207
 2964W        W 6708   1.978   8.248  10.619
 2965W        W 6709   5.732   2.098  10.285
 2966W        W 6710   9.040   1.208   9.255
 2967W        W 6711   9.289   7.908  10.643
 2968W        W 6712   7.807   6.012   3.656
 2969W        W 6713   4.232   2.096  10.231
 2970W        W 6714   0.570   8.535   1.296
 2971W        W 6715   8.549   5.101   0.783
 2972W        W 6716   8.842   1.991   8.287
 2973W        W 6717   4.068   3.228  10.790
 2974W        W 6718   4.164   6.100  10.151
 2975W        W 6719   2.239   7.896   8.779
 2976W        W 6720   0.498   4.650   3.595
 2977W        W 6721   1.648   9.504   2.460
 2978W        W 6722   3.776   1.386   9.861
 2979W        W 6723   9.739   8.399   3.342
 2980W        W 6724   0.916   3.210   9.476
 2981W        W 6725   7.029   4.067   1.329
 2982W        W 6726   0.689   2.773   9.215
 2983W        W 6727   5.136   4.034   2.739
 2984W        W 6728   2.999   6.900   0.641
 2985W        W 6729   4.020   6.873   0.738
 2986W        W 6730   9.098   4.629   9.328
 2987W        W 6731   3.735   5.772   9.465
 2988W        W 6732   5.531   4.297   8.696
 2989W        W 6733   7.879   2.598   3.244
 2990W        W 6734   1.711   1.663  10.554
 2991W        W 6735   3.662   7.152  11.464
 2992W        W 6736   8.630   2.340   3.425
 2993W        W 6737   6.970   0.469  11.369
 2994W        W 6738   2.420   8.369  10.388
 2995W        W 6739   1.648   3.555   0.305
 2996W        W 6740   3.176   6.447   9.002
 2997W        W 6741  10.359   4.208  11.231
 2998W        W 6742   5.174   2.340   3.674
 2999W        W 6743   4.264   3.344   3.204
 3000W        W 6744   3.611   5.906  11.835
 3001W        W 6745   9.494   4.090   0.838
 3002W        W 6746   6.204   5.719   0.547
 3003W        W 6747   0.936   3.328  11.804
 3004W        W 6748   2.723   4.957   1.509
 3005W        W 6749   0.907   7.090  11.108
 3006W        W 6750   3.229   5.923  10.103
 3007W        W 6751   8.480   1.851   1.931
 3008W        W 6752   6.626   9.808   1.505
 3009W        W 6753   7.045  10.395   9.905
 3010W        W 6754   5.006   9.349  11.741
 3011W        W 6755   4.242   7.039   1.963
 3012W        W 6756   7.825   9.643   0.773
 3013W        W 6757   7.087   8.528   8.704
 3014W        W 6758  10.031   5.716   0.416
 3015W        W 6759  10.009   3.518   8.460
 3016W        W 6760   1.137   3.328   3.077
 3017W        W 6761   4.242   6.173   1.472
 3018W        W 6762   4.732   7.478   0.472
 3019W        W 6763   1.000   5.541   9.034
 3020W        W 6764   5.696   0.400  10.977
 3021W        W 6765   5.535   0.987  11.810
 3022W        W 6766   8.011   8.869   9.022
 3023W        W 6767   6.023  10.305   8.952
 3024W        W 6768   1.451   0.222   0.199
 3025W        W 6769   9.728   1.379   1.268
 3026W        W 6770   8.564   5.254   2.233
 3027W        W 6771   2.662   6.039   3.436
 3028W        W 6772   4.632   3.102   9.235
 3029W        W 6773   9.901   5.238   1.288
 3030W        W 6774   5.207   0.278   0.739
 3031W        W 6775   2.850   1.773   9.035
 3032W        W 6776   5.173   5.576  10.980
 3033W        W 6777   2.667   3.069   2.624
 3034W        W 6778   9.593   2.165   3.223
 3035W        W 6779   8.980   6.503   9.281
 3036W        W 6780   1.026   9.561   0.384
 3037W        W 6781   6.476   9.965   0.107
 3038W        W 6782   4.529   4.475  11.679
 3039W        W 6783   1.767   5.889   1.214
 3040W        W 6784   5.985   8.861   9.356
 3041W        W 6785   7.621   9.562   9.495
 3042W        W 6786   3.737   6.994   1.181
 3043W        W 6787   7.031   4.058   0.797
 3044W        W 6788   8.027   5.026   2.077
 3045W        W 6789   8.437   0.283  10.461
 3046W        W 6790   6.538   4.042  10.849
 3047W        W 6791   4.625   0.854   8.591
 3048W        W 6792   8.930   1.780  11.646
 3049W        W 6793  10.155   7.492   3.073
 3050W        W 6794   3.183   4.946   3.166
 3051W        W 6795   5.941   3.625   3.256
 3052W        W 6796   1.493   7.584  10.815
 3053W        W 6797   0.443   2.251  11.699
 3054W        W 6798   4.704   9.600   1.342
 3055W        W 6799   8.069   3.408  11.301
 3056W        W 6800   5.178   7.495   9.052
 3057W        W 6801   2.178  10.326   1.200
 3058W        W 6802   1.953   5.161   1.730
 3059W        W 6803   9.078   5.028  10.951
 3060W        W 6804   4.609   2.522   1.031
 3061W        W 6805   1.935   3.166  11.510
 3062W        W 6806   3.787   6.252  11.489
 3063W        W 6807  10.291   1.815   9.636
 3064W        W 6808   1.276   3.896  10.609
 3065W        W 6809   9.446   5.518  10.169
 3066W        W 6810  10.006   5.607   3.233
 3067W        W 6811   6.637   6.147   2.289
 3068W        W 6812   3.801   7.118   8.858
 3069W        W 6813   3.119   6.371  11.318
 3070W        W 6814   1.858   5.037   8.861
 3071W        W 6815   2.590   3.699  10.095
 3072W        W 6816   7.959   9.860   8.719
 3073W        W 6817   4.285   8.424  10.432
 3074W        W 6818   0.703   7.863  10.968
 3075W        W 6819  10.479   6.949   9.792
 3076W        W 6820   4.198   9.410   1.591
 3077W        W 6821   2.038   0.281  11.387
 3078W        W 6822   8.154   2.901   1.180
 3079W        W 6823   2.039   8.535   1.817
 3080W        W 6824   1.182   1.312  10.331
 3081W        W 6825   7.458   6.645   2.477
 3082W        W 6826   7.479   0.837   8.533
 3083W        W 6827   6.725   1.779   1.268
 3084W        W 6828   0.200   7.026   9.333
 3085W        W 6829   2.796   1.263   9.318
 3086W        W 6830   7.492   4.090   0.260
 3087W        W 6831   2.563   2.781   8.975
 3088W        W 6832   4.378   0.881   3.253
 3089W        W 6833   7.479   5.532   0.379
 3090W        W 6834   3.334   7.501   9.892
 3091W        W 6835   4.842   0.372   8.630
 3092W        W 6836   0.505   9.476   9.193
 3093W        W 6837   3.544   8.661  11.310
 3094W        W 6838   6.509   0.026   0.968
 3095W        W 6839  10.252   5.159   9.281
 3096W        W 6840   2.589   1.463   0.376
 3097W        W 6841   7.209   7.457   9.893
 3098W        W 6842   3.828   6.589   2.689
 3099W        W 6843   3.324   1.770   1.252
 3100W        W 6844   7.513   0.157   0.339
 3101W        W 6845   6.454   5.522   9.489
 3102W        W 6846   9.149   5.867   2.233
 3103W        W 6847   4.510   9.900   3.193
 3104W        W 6848   5.947   7.597  11.292
 3105W        W 6849   6.696   3.414  10.278
 3106W        W 6850   9.630   1.092   3.397
 3107W        W 6851   6.755   2.775  11.950
 3108W        W 6852   3.144   6.083  10.892
 3109W        W 6853   7.487   0.159   9.239
 3110W        W 6854   1.911   4.477   2.418
 3111W        W 6855   5.712   5.604   9.954
 3112W        W 6856   6.495   6.359   2.729
 3113W        W 6857   3.460   0.078   9.271
 3114W        W 6858   8.509   9.083   3.004
 3115W        W 6859   0.839   0.456   3.734
 3116W        W 6860   9.462   4.662   8.977
 3117W        W 6861   3.985   2.939   3.115
 3118W        W 6862   2.240   9.074   0.751
 3119W        W 6863   2.276   1.976   9.151
 3120W        W 6864   2.890   9.507  10.630
 3121W        W 6865   1.368   9.950   8.957
 3122W        W 6866   9.050   7.497   2.086
 3123W        W 6867   7.407   1.476   3.200
 3124W        W 6868   8.991   2.202   9.055
 3125W        W 6869   0.757   6.359   9.386
 3126W        W 6870   0.028  10.458  10.686
 3127W        W 6871   9.748   7.226   2.236
 3128W        W 6872   2.557   7.670   1.937
 3129W        W 6873   5.920   2.529   8.875
 3130W        W 6874   2.728   9.519   0.166
 3131W        W 6875   4.228   8.228   2.411
 3132W        W 6876   9.854   3.317   3.014
 3133W        W 6877   3.790   9.462  10.805
 3134W        W 6878   0.249   4.444  11.492
 3135W        W 6879   6.582   4.614   9.690
 3136W        W 6880   7.460  10.446   1.925
 3137W        W 6881   0.148   0.443  11.845
 3138W        W 6882   6.473   3.097  11.063
 3139W        W 6883   0.048   9.473   0.864
 3140W        W 6884   8.333   8.423   9.572
 3141W        W 6885   3.763   6.489  10.155
 3142W        W 6886   7.333   5.612   1.691
 3143W        W 6887   1.566   8.879   8.550
 3144W        W 6888   8.439   1.657  11.402
 3145W        W 6889   1.773   3.654  11.428
 3146W        W 6890   6.246   1.508   0.023
 3147W        W 6891   2.711   6.976   2.447
 3148W        W 6892   0.037   1.860  10.618
 3149W        W 6893   7.232   6.228   8.503
 3150W        W 6894   8.855   6.978  10.289
 3151W        W 6895   0.813   6.795   1.683
 3152W        W 6896   7.582  10.213   0.619
 3153W        W 6897   5.335   3.827   8.631
 3154W        W 6898   9.472   0.070  10.450
 3155W        W 6899   2.289   8.136   2.557
 3156W        W 6900   1.661   8.651   2.128
 3157W        W 6901   8.206   2.595  11.978
 3158W        W 6902   4.674   5.217  10.324
 3159W        W 6903   0.041   0.845  10.679
 3160W        W 6904   9.916   4.476   0.790
 3161W        W 6905   0.965   6.615   0.733
 3162W        W 6906   7.400   9.505  10.565
 3163W        W 6907   5.159  10.267   2.024
 3164W        W 6908  10.426   6.385   2.044
 3165W        W 6909   3.023   1.892  11.951
 3166W        W 6910   4.803   3.330   8.827
 3167W        W 6911   7.669   0.954   1.528
 3168W        W 6912   5.740   2.674  10.908
 3169W        W 6913   3.132   6.170   2.759
 3170W        W 6914   6.330   9.066   0.359
 3171W        W 6915   6.175   4.305  10.492
 3172W        W 6916   2.338   8.144   2.051
 3173W        W 6917   7.634   9.924  11.867
 3174W        W 6918   5.163   5.632   1.157
 3175W        W 6919   4.166   1.583  10.184
 3176W        W 6920   3.608   5.225   2.726
 3177W        W 6921   6.113   0.163   9.315
 3178W        W 6922   4.127   1.355   9.080
 3179W        W 6923   4.962   2.729   0.701
 3180W        W 6924   0.999   8.437   9.945
 3181W        W 6925  10.358   8.233   9.025
 3182W        W 6926   2.277   5.640   9.503
 3183W        W 6927   0.924   0.984   9.230
 3184W        W 6928   2.532   4.210   0.450
 3185W        W 6929   5.576   8.050  10.376
 3186W        W 6930   6.904   3.030   2.684
 3187W        W 6931   3.313   4.521  10.618
 3188W        W 6932   6.914   5.389  11.481
 3189W        W 6933   0.483   3.772  11.003
 3190W        W 6934   9.858   1.411   9.707
 3191W        W 6935   6.254   5.631   9.988
 3192W        W 6936   5.967   5.072   1.690
 3193W        W 6937   8.933   8.091  11.694
 3194W        W 6938   8.529   8.557   1.764
 3195W        W 6939   6.627   1.291   8.883
 3196W        W 6940   2.144   9.664   0.221
 3197W        W 6941   5.227   7.560   0.976
 3198W        W 6942   4.178   6.189   8.831
 3199W        W 6943   8.048   0.489   9.089
 3200W        W 6944   2.762   4.443   1.473
 3201W        W 6945   2.622   4.558   8.252
 3202W        W 6946   2.173   1.495  11.683
 3203W        W 6947   6.006   6.112  10.526
 3204W        W 6948   3.150   4.127  10.332
 3205W        W 6949   3.202   0.383   0.245
 3206W        W 6950   9.921  10.254   0.478
 3207W        W 6951   8.869   8.830   1.281
 3208W        W 6952   7.204   3.537   3.695
 3209W        W 6953   9.328   6.888  10.426
 3210W        W 6954   0.635   8.433  11.647
 3211W        W 6955   4.592   7.148   9.991
 3212W        W 6956   8.133   9.564  10.843
 3213W        W 6957   9.452   7.563   0.365
 3214W        W 6958   3.174   8.344   9.012
 3215W        W 6959   1.917   8.536  11.967
 3216W        W 6960   6.052   9.503   0.338
 3217W        W 6961   4.041   4.894  10.469
 3218W        W 6962   4.631   9.111   1.876
 3219W        W 6963   8.471   5.085   2.962
 3220W        W 6964   0.238   5.530   1.439
 3221W        W 6965   4.041   9.707  11.436
 3222W        W 6966   1.518   3.544   3.547
 3223W        W 6967   0.707   7.482   8.746
 3224W        W 6968   1.343   5.634  10.982
 3225W        W 6969   9.451   6.171   1.456
 3226W        W 6970   4.765  10.374  11.840
 3227W        W 6971   0.950   6.167   1.893
 3228W        W 6972   0.450   9.996  10.886
 3229W        W 6973   7.844   0.133   0.862
 3230W        W 6974   5.650   8.036   9.539
 3231W        W 6975   6.312   5.432   1.844
 3232W        W 6976   9.936   3.704   2.661
 3233W        W 6977   2.825   5.167  11.480
 3234W        W 6978   8.454   9.712   9.677
 3235W        W 6979   9.969   0.385   1.397
 3236W        W 6980   6.373   9.456  10.825
 3237W        W 6981   9.291   4.941   0.267
 3238W        W 6982   0.797   3.634   0.266
 3239W        W 6983   4.995   4.829  10.288
 3240W        W 6984  10.405   8.003  11.331
 3241W        W 6985   6.781   1.227   9.995
 3242W        W 6986   0.617   1.648   0.486
 3243W        W 6987   1.988   6.334   9.595
 3244W        W 6988   6.061   9.356  11.427
 3245W        W 6989  10.161   7.317   9.541
 3246W        W 6990   6.138   3.477   8.913
 3247W        W 6991   3.801   6.335   8.448
 3248W        W 6992   2.861   6.088   1.946
 3249W        W 6993   5.219   6.965   2.345
 3250W        W 6994   7.792   4.394   0.741
 3251W        W 6995   8.092   9.782   2.918
 3252W        W 6996   6.791   6.497   8.599
 3253W        W 6997  10.210   9.055   0.914
 3254W        W 6998   9.067   8.041  10.201
 3255W        W 6999   5.214   0.377   8.977
 3256W        W 7000   0.401   1.937   2.698
 3257W        W 7001   5.985   5.108   2.781
 3258W        W 7002   3.610   7.882   3.043
 3259W        W 7003   2.812   0.256   2.996
 3260W        W 7004   9.326   1.216   1.593
 3261W        W 7005   7.932   3.316   9.981
 3262W        W 7006   8.123   0.932   1.287
 3263W        W 7007   3.148   4.989   2.350
 3264W        W 7008   6.616   1.001   2.960
 3265W        W 7009   6.081   8.130  10.555
 3266W        W 7010   1.917   5.586   3.242
 3267W        W 7011   7.210   5.446   9.792
 3268W        W 7012   0.003   5.300   1.034
 3269W        W 7013   0.702   5.286  11.666
 3270W        W 7014   9.118  10.317   0.406
 3271W        W 7015   8.661   4.660  10.290
 3272W        W 7016   9.964   0.351   3.572
 3273W        W 7017   5.302   8.396   9.579
 3274W        W 7018   9.628   6.711  11.298
 3275W        W 7019   7.865   4.236  10.461
 3276W        W 7020   8.434   6.928   9.565
 3277W        W 7021   7.357   6.261   3.749
 3278W        W 7022   5.539   3.791   2.953
 3279W        W 7023   5.787   5.788   0.263
 3280W        W 7024   3.102   2.717   1.577
 3281W        W 7025   5.094   6.728   8.947
 3282W        W 7026   7.887   4.241   9.568
 3283W        W 7027   2.711   6.673   9.007
 3284W        W 7028   3.581   9.496  11.297
 3285W        W 7029   7.909   0.379  11.508
 3286W        W 7030   7.778   5.595   8.156
 3287W        W 7031   8.608   5.412   9.265
 3288W        W 7032   8.244   0.599   3.615
 3289W        W 7033   2.772   6.504   2.645
 3290W        W 7034   5.318   5.596   3.138
 3291W        W 7035   7.352   0.575   3.502
 3292W        W 7036   3.768   9.174   1.808
 3293W        W 7037   6.583   6.014   9.288
 3294W        W 7038   6.442   8.635   2.232
 3295W        W 7039   0.120   8.443  11.549
 3296W        W 7040   5.914   7.092   8.182
 3297W        W 7041   1.420   2.414  10.476
 3298W        W 7042   7.431   3.432   0.828
 3299W        W 7043   0.959   1.814   2.099
 3300W        W 7044   7.355  10.315  11.691
 3301W        W 7045   6.175   3.243   1.943
 3302W        W 7046   7.927   4.745   8.961
 3303W        W 7047   4.235   9.626   0.325
 3304W        W 7048  10.039   5.479  10.829
 3305W        W 7049   6.434   8.092   2.211
 3306W        W 7050   0.014   7.458  10.971
 3307W        W 7051   1.175   0.461   9.945
 3308W        W 7052   1.671   1.793   9.292
 3309W        W 7053   5.762   1.873   2.002
 3310W        W 7054   3.007   2.802  10.795
 3311W        W 7055   9.899   5.208   2.230
 3312W        W 7056   8.584   9.808   2.101
 3313W        W 7057  10.367   9.878   1.172
 3314W        W 7058   4.325   7.136   2.970
 3315W        W 7059   3.979   6.417   3.319
 3316W        W 7060   4.330   1.387   2.346
 3317W        W 7061   9.996   9.785   0.223
 3318W        W 7062   5.230   4.759   9.281
 3319W        W 7063   2.261  10.314   8.523
 3320W        W 7064   4.707   7.488   8.593
 3321W        W 7065   3.656   7.852   0.730
 3322W        W 7066   7.421   7.643   1.272
 3323W        W 7067   8.631   9.957   3.507
 3324W        W 7068   2.699   4.970   9.036
 3325W        W 7069   6.487   9.253  11.681
 3326W        W 7070   1.895   2.625  10.427
 3327W        W 7071   8.541   1.036   3.492
 3328W        W 7072   8.197   1.236   0.075
 3329W        W 7073   5.554   3.626   0.453
 3330W        W 7074   7.023   4.503   1.056
 3331W        W 7075   2.345   0.436  10.460
 3332W        W 7076   2.851   9.509   3.507
 3333W        W 7077   0.665   0.431  10.032
 3334W        W 7078   9.326   7.454   1.246
 3335W        W 7079  10.256   7.067   0.683
 3336W        W 7080   4.727   7.676   9.217
 3337W        W 7081   0.156   8.074   9.929
 3338W        W 7082   8.122   7.550  10.128
 3339W        W 7083   9.119   0.347   0.446
 3340W        W 7084   8.963   9.426   8.780
 3341W        W 7085   1.771   1.224   0.893
 3342W        W 7086   5.679   3.637   0.947
 3343W        W 7087   7.319   1.781   9.445
 3344W        W 7088   4.000  10.326   3.214
 3345W        W 7089   1.851   2.217   8.981
 3346W        W 7090   3.634   0.521  10.956
 3347W        W 7091   3.425   4.571   0.045
 3348W        W 7092   2.416   1.927  10.359
 3349W        W 7093   1.266   5.077   2.425
 3350W        W 7094   1.050   5.187   8.622
 3351W        W 7095   4.351   3.667  10.826
 3352W        W 7096   0.306   3.357   2.414
 3353W        W 7097   8.948   7.956   2.319
 3354W        W 7098   4.584   8.331   0.906
 3355W        W 7099   3.933   4.598   8.663
 3356W        W 7100   2.975  10.289   0.842
 3357W        W 7101   8.346   4.987   9.110
 3358W        W 7102   2.453   8.585   3.324
 3359W        W 7103   5.341   0.749   1.668
 3360W        W 7104   8.407   6.076   0.367
 3361W        W 7105   5.121   3.334   0.849
 3362W        W 7106   6.971  10.007   2.172
 3363W        W 7107   2.107   8.920  10.054
 3364W        W 7108   0.784   5.192   2.270
 3365W        W 7109   5.689   9.897  11.958
 3366W        W 7110   8.139   3.636   1.335
 3367W        W 7111   5.705   7.578   3.358
 3368W        W 7112   6.762   2.844   9.934
 3369W        W 7113   5.842   4.476   0.250
 3370W        W 7114   0.002   9.450   8.486
 3371W        W 7115   5.425   2.151   9.840
 3372W        W 7116   8.916   2.770   3.476
 3373W        W 7117   4.219   8.432   1.801
 3374W        W 7118   9.995   0.042   3.184
 3375W        W 7119   4.962   7.674   1.393
 3376W        W 7120   1.831   2.816   0.738
 3377W        W 7121   5.725   7.834  10.835
 3378W        W 7122   3.821   0.537  11.500
 3379W        W 7123   6.623   8.569   8.940
 3380W        W 7124   9.597   2.791   0.935
 3381W        W 7125   9.453   8.904  10.168
 3382W        W 7126   6.235   2.671   3.706
 3383W        W 7127   3.586   8.908  10.803
 3384W        W 7128   3.131   7.761   0.407
 3385W        W 7129   4.082   4.017   0.971
 3386W        W 7130   1.363   5.485   0.482
 3387W        W 7131   7.721   8.147   2.694
 3388W        W 7132   5.101   9.930   1.347
 3389W        W 7133   3.241   6.935   9.057
 3390W        W 7134   8.104   5.410   3.083
 3391W        W 7135   9.375   0.438   1.054
 3392W        W 7136   8.824   3.233  10.041
 3393W        W 7137   9.042   9.349  11.337
 3394W        W 7138   5.719   2.684   3.789
 3395W        W 7139   1.768   5.515  10.729
 3396W        W 7140   6.935   4.267  11.393
 3397W        W 7141   4.262   3.891   0.184
 3398W        W 7142   2.186   8.105  11.079
 3399W        W 7143   6.162   7.656   8.630
 3400W        W 7144   1.776   1.242   9.739
 3401W        W 7145   5.411   6.485   0.008
 3402W        W 7146   1.318   7.142  10.117
 3403W        W 7147   8.918   3.579  11.774
 3404W        W 7148   6.037   5.173  11.627
 3405W        W 7149   0.518   7.855  10.470
 3406W        W 7150   7.432   6.521  11.378
 3407W        W 7151   8.165   7.870   2.746
 3408W        W 7152   2.526   0.173   1.951
 3409W        W 7153  10.171   0.554  10.944
 3410W        W 7154   6.360  10.468   2.221
 3411W        W 7155   2.773   5.120   4.021
 3412W        W 7156   8.350  10.316  10.293
 3413W        W 7157   9.024   3.500   8.683
 3414W        W 7158   7.177   3.698   0.468
 3415W        W 7159   8.220   7.974   9.810
 3416W        W 7160   0.693   1.208  10.450
 3417W        W 7161   6.758   9.301   9.407
 3418W        W 7162   1.126   0.499   1.878
 3419W        W 7163   4.209   9.349  11.127
 3420W        W 7164   4.974   7.417  10.598
 3421W        W 7165   8.187   6.932   0.275
 3422W        W 7166   4.708   5.441   9.845
 3423W        W 7167   4.019   6.585  11.082
 3424W        W 7168   7.068   8.319   3.464
 3425W        W 7169   3.866   1.956   3.478
 3426W        W 7170   7.375   6.321   0.774
 3427W        W 7171   4.239   3.192   8.904
 3428W        W 7172   0.958   0.431   2.368
 3429W        W 7173   4.291   0.916   0.385
 3430W        W 7174   5.241   1.264   0.989
 3431W        W 7175   7.489   4.761   0.898
 3432W        W 7176   6.938   3.739  10.919
 3433W        W 7177   7.104   1.716   0.944
 3434W        W 7178   5.485   4.886   0.902
 3435W        W 7179   7.278   0.352   8.699
 3436W        W 7180   1.898   6.256   9.069
 3437W        W 7181   6.086   6.803   3.236
 3438W        W 7182   6.472   4.805  10.238
 3439W        W 7183   2.123   9.938   8.835
 3440W        W 7184   3.598   0.845  11.856
 3441W        W 7185   6.540   6.286   3.525
 3442W        W 7186   3.622   9.940  10.542
 3443W        W 7187   7.556   9.064   2.977
 3444W        W 7188   6.481   8.283   9.353
 3445W        W 7189   0.325   1.558   9.358
 3446W        W 7190   9.389   4.863   9.654
 3447W        W 7191   6.093   2.861   0.683
 3448W        W 7192   1.167   4.270   2.446
 3449W        W 7193   8.914   4.890   2.421
 3450W        W 7194   9.511   3.539   1.651
 3451W        W 7195   4.338   2.795   2.314
 3452W        W 7196   0.694   9.203  10.453
 3453W        W 7197   3.845   8.534   1.284
 3454W        W 7198   1.020   2.779   8.810
 3455W        W 7199   4.761   3.036   4.069
 3456W        W 7200   7.052   1.900   0.009
 3457W        W 7201   0.605   6.679   8.502
 3458W        W 7202   1.738   6.080   2.536
 3459W        W 7203   6.944   7.936   3.169
 3460W        W 7204   5.159   8.333   2.829
 3461W        W 7205   5.359   8.839   0.406
 3462W        W 7206   8.901   5.466   8.823
 3463W        W 7207   6.996   9.252  11.836
 3464W        W 7208  10.402  10.204   0.233
 3465W        W 7209   1.472   3.254   0.690
 3466W        W 7210   7.051   6.628   1.034
 3467W        W 7211  10.342   0.669   0.210
 3468W        W 7212   9.932   4.178   9.622
 3469W        W 7213   3.302   5.012  11.320
 3470W        W 7214   7.872   6.914   2.915
 3471W        W 7215   4.697   3.037   1.008
 3472W        W 7216   4.122   4.147  11.738
 3473W        W 7217   9.424   8.311   1.786
 3474W        W 7218   0.864   2.856   0.983
 3475W        W 7219   2.910   5.204   1.944
 3476W        W 7220   1.000   2.285   9.067
 3477W        W 7221   9.898   7.118  11.411
 3478W        W 7222   5.714   7.122  11.338
 3479W        W 7223  10.113   4.555   0.332
 3480W        W 7224   5.482  10.037   3.293
 3481W        W 7225   5.146   1.228   9.511
 3482W        W 7226   1.269   4.236   2.936
 3483W        W 7227   9.693   3.953   9.217
 3484W        W 7228   3.739   8.202  11.374
 3485W        W 7229   0.428   8.636  11.196
 3486W        W 7230  10.209   2.159   0.597
 3487W        W 7231   5.104   0.686  11.773
 3488W        W 7232   7.224   1.882  10.529
 3489W        W 7233   3.823   8.824   9.942
 3490W        W 7234   8.074   3.248   0.201
 3491W        W 7235   1.855   7.886   0.766
 3492W        W 7236   5.535   8.811   1.171
 3493W        W 7237   1.287   8.134  11.442
 3494W        W 7238   9.951   4.708   3.420
 3495W        W 7239   2.682   2.989   1.256
 3496W        W 7240   6.513   8.990   1.128
 3497W        W 7241   1.979   3.451   2.766
 3498W        W 7242   8.718   0.521  10.121
 3499W        W 7243   6.623   6.739   1.378
 3500W        W 7244   5.614   9.966  10.073
 3501W        W 7245   8.788   3.630  10.975
 3502W        W 7246  10.012   0.268   0.306
 3503W        W 7247   9.841   8.289   2.849
 3504W        W 7248   3.165   1.352   1.508
 3505W        W 7249   5.627   6.301   3.718
 3506W        W 7250   4.489   7.639   8.096
 3507W        W 7251   2.855   8.098  10.404
 3508W        W 7252   6.705   5.934  11.262
 3509W        W 7253   2.686  10.199   3.655
 3510W        W 7254   1.377  10.086  11.128
 3511W        W 7255   1.863   6.978   1.934
 3512W        W 7256   3.196   4.770   1.672
 3513W        W 7257   7.077   0.268   3.162
 3514W        W 7258   7.930   0.802  10.703
 3515W        W 7259   2.309   2.886   0.448
 3516W        W 7260   3.064   1.869  10.781
 3517W        W 7261   1.368   3.071   3.447
 3518W        W 7262   8.046   3.523   3.369
 3519W        W 7263  10.273   9.397   2.969
 3520W        W 7264   2.933   1.190  10.835
 3521W        W 7265   0.273   4.314   1.909
 3522W        W 7266   9.675  10.326   9.573
 3523W        W 7267   1.335   1.804  10.245
 3524W        W 7268   7.270   7.896   9.631
 3525W        W 7269   4.503   0.783   2.765
 3526W        W 7270   5.750   8.068   1.612
 3527W        W 7271   1.198   4.286  11.923
 3528W        W 7272   3.107   9.926  10.444
 3529W        W 7273   6.575   0.190   1.825
 3530W        W 7274   5.374   0.473   3.483
 3531W        W 7275   5.099   9.988   2.495
 3532W        W 7276   0.619   0.231  11.941
 3533W        W 7277   6.574   4.495  11.096
 3534W        W 7278   0.737   0.418  11.056
 3535W        W 7279   2.928   1.635  10.299
 3536W        W 7280   3.165   7.855   0.935
 3537W        W 7281   2.644   4.255  11.928
 3538W        W 7282   2.285   1.657  11.219
 3539W        W 7283   4.682   9.632   9.075
 3540W        W 7284   3.713   0.321   0.987
 3541W        W 7285   4.985   6.070   0.876
 3542W        W 7286   3.350   2.683  11.774
 3543W        W 7287   0.452   4.012   1.543
 3544W        W 7288   7.597   7.404  10.749
 3545W        W 7289   7.109   6.227  11.073
 3546W        W 7290   8.435   8.954   0.987
 3547W        W 7291   0.631   2.757   3.535
 3548W        W 7292   0.389   7.448  11.853
 3549W        W 7293   3.558   4.964  10.744
 3550W        W 7294   7.136   8.830   9.622
 3551W        W 7295   9.766   4.288   3.151
 3552W        W 7296   3.640   8.507  11.805
 3553W        W 7297   3.952   0.049   2.170
 3554W        W 7298   6.928   7.904   2.082
 3555W        W 7299   1.351   4.971  11.337
 3556W        W 7300   0.342   5.293  11.314
 3557W        W 7301   7.534   3.182   9.689
 3558W        W 7302  10.016   9.110   9.415
 3559W        W 7303   7.141   0.413   1.185
 3560W        W 7304   0.516   1.361   8.926
 3561W        W 7305   5.711   6.394   1.431
 3562W        W 7306   8.844   0.529  10.647
 3563W        W 7307   0.819   7.023  10.083
 3564W        W 7308   4.551   7.647  10.770
 3565W        W 7309   2.346   6.896   8.150
 3566W        W 7310   4.732   6.836   3.143
 3567W        W 7311   2.857   3.181  11.431
 3568W        W 7312  10.335   2.951   1.309
 3569W        W 7313   0.526   7.030   8.918
 3570W        W 7314   9.961   9.505   9.077
 3571W        W 7315   4.266   3.656   2.712
 3572W        W 7316   8.548   6.649   3.410
 3573W        W 7317   0.819   7.797   9.123
 3574W        W 7318   1.923   2.188   9.514
 3575W        W 7319   7.245   9.432   2.779
 3576W        W 7320   1.469   7.976   9.545
 3577W        W 7321   6.693   7.015  10.931
 3578W        W 7322   4.594   0.757  11.799
 3579W        W 7323   1.292   1.025  11.554
 3580W        W 7324   5.193   4.269   9.123
 3581W        W 7325   6.702   7.399  10.029
 3582W        W 7326   3.996   3.118   1.395
 3583W        W 7327   4.718   6.955   2.137
 3584W        W 7328   5.563   2.549  10.454
 3585W        W 7329   6.266   8.672   8.596
 3586W        W 7330   4.046   8.069   8.688
 3587W        W 7331   2.230   6.612   9.215
 3588W        W 7332  10.258   7.968   2.829
 3589W        W 7333   3.086   1.930   3.209
 3590W        W 7334  10.431   0.898  11.761
 3591W        W 7335   7.478  10.098   1.538
 3592W        W 7336   1.196   3.317   2.588
 3593W        W 7337   3.370   6.117   1.861
 3594W        W 7338   0.879   4.692   2.421
 3595W        W 7339   6.063   2.009  11.747
 3596W        W 7340   8.622   9.397   1.286
 3597W        W 7341   6.556   2.324   3.003
 3598W        W 7342   6.922   6.472  11.493
 3599W        W 7343   4.541   1.103   9.253
 3600W        W 7344   0.801   8.450   2.747
 3601W        W 7345  10.152   0.831   3.535
 3602W        W 7346   4.290   9.422  10.609
 3603W        W 7347   0.466   2.763   8.747
 3604W        W 7348   4.175   4.202   3.602
 3605W        W 7349   4.567   9.977   0.477
 3606W        W 7350   2.211   3.755   9.764
 3607W        W 7351   5.589   5.112   9.845
 3608W        W 7352   5.496   9.881  11.064
 3609W        W 7353   9.276   9.010   8.712
 3610W        W 7354   1.414   9.250   0.633
 3611W        W 7355   9.374   8.085  11.960
 3612W        W 7356   1.373   9.992   2.747
 3613W        W 7357   2.454   1.783   0.011
 3614W        W 7358   5.950   7.920   9.962
 3615W        W 7359   0.819  10.228   2.786
 3616W        W 7360   1.223   2.841   2.958
 3617W        W 7361   5.701   3.574   4.268
 3618W        W 7362   0.380   8.956  11.579
 3619W        W 7363   2.638   7.536  11.492
 3620W        W 7364   7.457  10.107  11.239
 3621W        W 7365   1.782   2.782   1.712
 3622W        W 7366   1.729   9.314   9.966
 3623W        W 7367  10.408   6.109   8.605
 3624W        W 7368   2.032   7.147   8.498
 3625W        W 7369  10.024   7.867  10.268
 3626W        W 7370   1.255   3.637  11.565
 3627W        W 7371   7.146   0.160   3.684
 3628W        W 7372   3.987   0.903  10.932
 3629W        W 7373   7.769   6.134  10.467
 3630W        W 7374   7.680   1.985   9.748
 3631W        W 7375   7.861   7.844   3.142
 3632W        W 7376   1.709   5.202  11.879
 3633W        W 7377   5.064   4.059   8.177
 3634W        W 7378   8.066   1.994  11.385
 3635W        W 7379   5.342   4.433   0.686
 3636W        W 7380   8.738   2.611   0.695
 3637W        W 7381   6.856   1.750   9.661
 3638W        W 7382   6.953   4.031  10.491
 3639W        W 7383   1.362   4.342   9.888
 3640W        W 7384   5.299   6.652   8.483
 3641W        W 7385  10.030   2.226  11.209
 3642W        W 7386   2.409   1.284   3.486
 3643W        W 7387   5.760   5.102   2.153
 3644W        W 7388   6.965   0.189   0.751
 3645W        W 7389  10.317   8.938   3.229
 3646W        W 7390   9.936   2.840   2.776
 3647W        W 7391   4.705   3.109  11.579
 3648W        W 7392   2.236   9.965   2.994
 3649W        W 7393  10.280   3.084  10.862
 3650W        W 7394   9.499   1.099  11.949
 3651W        W 7395   4.425   8.890  11.127
 3652W        W 7396   0.916   6.693   2.602
 3653W        W 7397   7.958   4.097   2.172
 3654W        W 7398   6.523   9.081   8.996
 3655W        W 7399   5.228   8.374   8.887
 3656W        W 7400   4.996  10.445   9.734
 3657W        W 7401   4.506   9.594   2.324
 3658W        W 7402   1.148   0.479   0.762
 3659W        W 7403   4.879   0.250  10.556
 3660W        W 7404   3.885   9.880   1.185
 3661W        W 7405   4.192   7.900  10.301
 3662W        W 7406   3.730   1.938  11.521
 3663W        W 7407  10.282   8.424   1.668
 3664W        W 7408   7.617   1.807   1.653
 3665W        W 7409   7.501   9.973  10.741
 3666W        W 7410   8.834   9.027   1.766
 3667W        W 7411   1.784   8.087  11.487
 3668W        W 7412   1.005   5.496   3.283
 3669W        W 7413   9.447   7.892   3.450
 3670W        W 7414   9.395   8.591  11.861
 3671W        W 7415   8.599   4.295  11.779
 3672W        W 7416   3.490  10.273   3.336
 3673W        W 7417   4.158   4.384  11.248
 3674W        W 7418   9.746   1.024   1.784
 3675W        W 7419   7.575   8.913   4.025
 3676W        W 7420   2.604   2.428   0.383
 3677W        W 7421   9.856   9.787  11.698
 3678W        W 7422   4.433   3.600   9.136
 3679W        W 7423   9.365   2.213   2.760
 3680W        W 7424   4.216   6.558   9.924
 3681W        W 7425   0.997   2.396   0.776
 3682W        W 7426   6.261   0.769   1.154
 3683W        W 7427   5.980   5.687  11.375
 3684W        W 7428   4.226   8.931  10.307
 3685W        W 7429   8.498   8.005   1.037
 3686W        W 7430   0.493   5.105   0.120
 3687W        W 7431   7.814   9.348   0.341
 3688W        W 7432   2.796   8.990   3.398
 3689W        W 7433   2.193   1.196   1.178
 3690W        W 7434   9.875   2.289   2.798
 3691W        W 7435   1.807   1.397   1.443
 3692W        W 7436   0.293   4.922  11.676
 3693W        W 7437   8.932   7.991   2.846
 3694W        W 7438   8.934   1.744   9.329
 3695W        W 7439   4.568   9.083   2.446
 3696W        W 7440   8.371   2.374   2.492
 3697W        W 7441   3.622   1.383   0.402
 3698W        W 7442   8.290   6.295   3.722
 3699W        W 7443   1.818   4.821  11.558
 3700W        W 7444   6.745   6.729   9.061
 3701W        W 7445   7.647   0.931   0.727
 3702W        W 7446   8.565   1.448  10.963
 3703W        W 7447   2.082   9.314  10.350
 3704W        W 7448   9.836   4.626   9.910
 3705W        W 7449   3.782   9.143  10.385
 3706W        W 7450   0.663   9.373   2.261
 3707W        W 7451   2.633   2.251  11.899
 3708W        W 7452   2.795   3.048   3.181
 3709W        W 7453   9.960   6.395   1.844
 3710W        W 7454   1.430   3.614   8.691
 3711W        W 7455   9.431   3.951  11.548
 3712W        W 7456   8.321  10.049  10.757
 3713W        W 7457   2.033   4.861   3.651
 3714W        W 7458   0.694   6.552   2.133
 3715W        W 7459   0.623   0.394   1.958
 3716W        W 7460   9.594   4.227   8.789
 3717W        W 7461   0.876   2.761  11.882
 3718W        W 7462   8.115   7.951  11.787
 3719W        W 7463   6.482   8.497  10.888
 3720W        W 7464   3.667   7.619   9.310
 3721W        W 7465   3.273   3.807   2.661
 3722W        W 7466   6.004   6.093  10.015
 3723W        W 7467  10.404   8.174  11.927
 3724W        W 7468   9.786   5.000   0.801
 3725W        W 7469   7.479   4.588  11.017
 3726W        W 7470   5.174   8.368  10.071
 3727W        W 7471  10.323   5.112  10.570
 3728W        W 7472  10.292   7.036   1.193
 3729W        W 7473   7.147   7.211  10.801
 3730W        W 7474   7.604   9.110   9.744
 3731W        W 7475   8.590   9.233   9.578
 3732W        W 7476   9.595   3.458   9.413
 3733W        W 7477   0.054   0.890   9.737
 3734W        W 7478   9.901   9.320   9.905
 3735W        W 7479   9.908   6.131   9.453
 3736W        W 7480   6.913  10.165  11.884
 3737W        W 7481   5.438   9.970   1.714
 3738W        W 7482   5.500   3.319   9.838
 3739W        W 7483   9.558   6.645   1.679
 3740W        W 7484   5.062   8.509  11.549
 3741W        W 7485   3.738  10.486  10.826
 3742W        W 7486   9.337   9.510   0.506
 3743W        W 7487   4.800   8.679   8.848
 3744W        W 7488   9.334  10.308  11.870
 3745W        W 7489   3.731   8.656   1.772
 3746W        W 7490  10.342   5.539   9.974
 3747W        W 7491   1.511   3.648   2.819
 3748W        W 7492   6.617   8.482   1.306
 3749W        W 7493   2.888   7.443   2.303
 3750W        W 7494   3.078   5.086  10.871
 3751W        W 7495   5.256   9.664   0.053
 3752W        W 7496   0.028   3.188   9.927
 3753W        W 7497   9.388   3.288   0.287
 3754W        W 7498   8.901   8.348   1.070
 3755W        W 7499   4.284   6.839   3.403
 3756W        W 7500   9.986   8.817   0.543
 3757W        W 7501   2.409   3.399   0.363
 3758W        W 7502   7.411   2.460   0.939
 3759W        W 7503   6.733   0.324   8.688
 3760W        W 7504   2.693   6.934   8.530
 3761W        W 7505   0.249   3.370   0.335
 3762W        W 7506   9.380   6.207   3.074
 3763W        W 7507   7.540   0.015   9.776
 3764W        W 7508   3.042   6.600   3.077
 3765W        W 7509   1.467   8.220   3.167
 3766W        W 7510   2.836   2.873   0.316
 3767W        W 7511   1.304   9.769   8.469
 3768W        W 7512   5.775   4.234   3.586
 3769W        W 7513   0.220   4.187   2.821
 3770W        W 7514   9.767   5.871  11.037
 3771W        W 7515   6.029  10.392   9.912
 3772W        W 7516   4.223   7.342   0.456
 3773W        W 7517   7.340   9.021   0.217
 3774W        W 7518  10.276   9.491   2.476
 3775W        W 7519   3.252   7.082  11.754
 3776W        W 7520   2.470   7.821  11.873
 3777W        W 7521   5.702   0.707  11.427
 3778W        W 7522   9.123   2.369   3.225
 3779W        W 7523   3.744   3.174  11.171
 3780W        W 7524   4.737   3.167   3.199
 3781W        W 7525   7.384   6.977   1.640
 3782W        W 7526   2.398   9.938   9.633
 3783W        W 7527   8.320   3.788  11.048
 3784W        W 7528   5.651   9.093   0.755
 3785W        W 7529   3.857   9.437   2.900
 3786W        W 7530   1.727   9.464  11.293
 3787W        W 7531   1.844   6.488   2.973
 3788W        W 7532   3.369   7.401   8.958
 3789W        W 7533   0.332   1.598   8.454
 3790W        W 7534   6.539   0.179  11.493
 3791W        W 7535   4.715   4.570  11.195
 3792W        W 7536   8.231   2.655   0.735
 3793W        W 7537   6.193   8.208   1.381
 3794W        W 7538   0.806   9.296  11.543
 3795W        W 7539   5.132   6.054   2.434
 3796W        W 7540   2.658   8.102  10.865
 3797W        W 7541   6.141   4.258   1.243
 3798W        W 7542   4.754   8.566  10.282
 3799W        W 7543   5.611   9.036  10.535
 3800W        W 7544   7.548   0.068  10.297
 3801W        W 7545   4.502   4.727  10.355
 3802W        W 7546   7.117   4.937   3.350
 3803W        W 7547   4.938   7.365   8.131
 3804W        W 7548   7.991   3.185   1.581
 3805W        W 7549   5.480  10.445   9.932
 3806W        W 7550   9.172   6.696   0.130
 3807W        W 7551   9.602   8.962   9.694
 3808W        W 7552   2.256   0.748   9.628
 3809W        W 7553   8.063   6.654  10.258
 3810W        W 7554   5.262   7.133   4.186
 3811W        W 7555   7.353   7.124  10.320
 3812W        W 7556   3.059   6.626  11.765
 3813W        W 7557   0.296   2.913   9.589
 3814W        W 7558   6.244   7.036   3.996
 3815W        W 7559   1.807   6.700   1.507
 3816W        W 7560   1.127   5.255   1.049
 3817W        W 7561   8.695   7.464   3.554
 3818W        W 7562   1.310   7.072  10.651
 3819W        W 7563   8.807  10.282   0.910
 3820W        W 7564   7.064   7.100   8.883
 3821W        W 7565   1.804   4.961   2.323
 3822W        W 7566   4.225   5.206  10.089
 3823W        W 7567   6.181   8.370   2.876
 3824W        W 7568   5.077   3.361   0.351
 3825W        W 7569   3.175   0.994   2.889
 3826W        W 7570  10.431   0.638   1.340
 3827W        W 7571   1.519   7.812   2.405
 3828W        W 7572   6.859   6.213   8.154
 3829W        W 7573   5.951   9.642  11.017
 3830W        W 7574   4.455   1.693   2.802
 3831W        W 7575   8.137   2.736   2.824
 3832W        W 7576   8.585   6.778   0.937
 3833W        W 7577   4.823   1.322   2.135
 3834W        W 7578   9.430  10.119   2.160
 3835W        W 7579   9.985  10.156   0.980
 3836W        W 7580   7.659   8.146   0.028
 3837W        W 7581   3.304   5.985   9.165
 3838W        W 7582   2.280   5.981  11.890
 3839W        W 7583   8.369   7.036  10.421
 3840W        W 7584   0.223   7.156   0.957
 3841W        W 7585   8.527   2.837   9.979
 3842W        W 7586   5.151   6.499   2.145
 3843W        W 7587   1.354   6.875   8.836
 3844W        W 7588   5.658   3.327   2.772
 3845W        W 7589   8.124   6.529   3.142
 3846W        W 7590   4.676   9.858  10.811
 3847W        W 7591   9.004   4.740   1.546
 3848W        W 7592   1.752   2.883   9.989
 3849W        W 7593   7.032   8.974   2.848
 3850W        W 7594   6.136   6.496  10.842
 3851W        W 7595   1.348   3.303   2.122
 3852W        W 7596   7.056   2.734  11.546
 3853W        W 7597   9.859  10.232  11.969
 3854W        W 7598   3.741   8.096   9.504
 3855W        W 7599   3.119   1.440   2.030
 3856W        W 7600   6.475   0.219   0.457
 3857W        W 7601   5.082   1.785  10.759
 3858W        W 7602   2.290   5.573  11.498
 3859W        W 7603   5.363   5.706   8.582
 3860W        W 7604   2.196   7.384   9.670
 3861W        W 7605   6.139   8.092  11.079
 3862W        W 7606   2.191   7.800   9.327
 3863W        W 7607   6.938   3.498   2.539
 3864W        W 7608   1.891   4.525   1.423
 3865W        W 7609   0.354   0.950   2.671
 3866W        W 7610   0.914   5.086   9.944
 3867W        W 7611   0.461   4.841  10.074
 3868W        W 7612   4.629   5.379  11.190
 3869W        W 7613   5.123   3.806   0.132
 3870W        W 7614   4.319   4.601  10.821
 3871W        W 7615   5.577   3.323   2.270
 3872W        W 7616   2.099   9.764  10.570
 3873W        W 7617   7.640   9.609   1.648
 3874W        W 7618   4.093   6.057   0.996
 3875W        W 7619  10.331   1.789  11.460
 3876W        W 7620   8.945   2.875   1.464
 3877W        W 7621   0.580   5.922   1.434
 3878W        W 7622   7.403   0.568   9.527
 3879W        W 7623   8.499   3.918   3.321
 3880W        W 7624   9.061   2.245  11.468
 3881W        W 7625   9.343   4.610  10.102
 3882W        W 7626   1.957   9.140   2.812
 3883W        W 7627   1.799   0.892   9.345
 3884W        W 7628   9.432   1.293  10.940
 3885W        W 7629   8.569   4.600  11.311
 3886W        W 7630   8.486   2.754   8.943
 3887W        W 7631   8.904   1.925   3.293
 3888W        W 7632   7.197   7.916   8.572
 3889W        W 7633   1.958   7.707   2.650
 3890W        W 7634   9.899   0.663   0.976
 3891W        W 7635   1.175   4.042   1.444
 3892W        W 7636   5.740   1.274  10.760
 3893W        W 7637   8.069   7.862  11.274
 3894W        W 7638   2.297   5.262   3.475
 3895W        W 7639   8.029   9.795   9.257
 3896W        W 7640   2.686   8.963  10.980
 3897W        W 7641  10.492   1.836  11.951
 3898W        W 7642   9.441   8.601   2.744
 3899W        W 7643   3.199   4.708   3.609
 3900W        W 7644   9.746   0.871  11.010
 3901W        W 7645   7.154   6.691  10.740
 3902W        W 7646   9.046   0.741   0.781
 3903W        W 7647   9.967   9.994  10.810
 3904W        W 7648   5.244   9.712  10.364
 3905W        W 7649   7.547   8.571   3.150
 3906W        W 7650   5.709   6.455   0.932
 3907W        W 7651   1.395   9.554  10.896
 3908W        W 7652   9.789   3.713   9.822
 3909W        W 7653   6.999   0.072   9.049
 3910W        W 7654   6.472   6.647  11.223
 3911W        W 7655   1.747   6.183  11.840
 3912W        W 7656   5.257   4.465  11.019
 3913W        W 7657   5.683   4.219   2.151
 3914W        W 7658   5.568   5.108   3.113
 3915W        W 7659   1.941   3.248   9.684
 3916W        W 7660   6.154   3.339  11.427
 3917W        W 7661   6.372   7.744   1.282
 3918W        W 7662   5.638   0.266   0.414
 3919W        W 7663   3.280   4.984   4.037
 3920W        W 7664   8.204   6.707   2.197
 3921W        W 7665   1.076   3.532   1.488
 3922W        W 7666   4.788   9.456   3.168
 3923W        W 7667  10.445  10.500  10.192
 3924W        W 7668   9.283   4.059   2.500
 3925W        W 7669   8.373   1.854   2.437
 3926W        W 7670   3.683   4.015   1.379
 3927W        W 7671   1.070   7.097   9.642
 3928W        W 7672   9.656   4.736  10.478
 3929W        W 7673   2.759   1.223   0.787
 3930W        W 7674   2.232   8.314  11.568
 3931W        W 7675   8.032   8.450  11.763
 3932W        W 7676   1.828   9.993   1.641
 3933W        W 7677   6.546   9.350  10.346
 3934W        W 7678   9.624   3.798  10.607
 3935W        W 7679  10.492   0.816  11.245
 3936W        W 7680   1.255   1.417   2.264
 3937W        W 7681   9.423   2.662   1.481
 3938W        W 7682   4.867  10.251   2.987
 3939W        W 7683   4.125   2.693   9.084
 3940W        W 7684   9.463  10.037   2.696
 3941W        W 7685   5.609   6.641   8.935
 3942W        W 7686   8.070   2.880  10.717
 3943W        W 7687   1.780   2.784  11.811
 3944W        W 7688   3.611   0.894   2.667
 3945W        W 7689   8.482   8.919  10.297
 3946W        W 7690   0.268   4.209   9.233
 3947W        W 7691   1.528   1.425   8.936
 3948W        W 7692   4.951   2.238  11.883
 3949W        W 7693   8.605   0.003  10.886
 3950W        W 7694   2.145   1.063  10.058
 3951W        W 7695   0.947   6.995   2.139
 3952W        W 7696   8.050   0.661   1.727
 3953W        W 7697   7.285   6.251  10.376
 3954W        W 7698   9.317   0.686   3.472
 3955W        W 7699  10.480   5.094   9.727
 3956W        W 7700   8.818   5.100  10.499
 3957W        W 7701   8.996   4.520   8.841
 3958W        W 7702   4.892   3.666   8.461
 3959W        W 7703   4.974   5.689   0.293
 3960W        W 7704   2.356   0.385   2.814
 3961W        W 7705   9.738   8.964   3.496
 3962W        W 7706  10.468   8.594  10.090
 3963W        W 7707   6.322  10.327   2.722
 3964W        W 7708   4.251   5.346  10.581
 3965W        W 7709   7.075   3.357  11.230
 3966W        W 7710   1.440   1.664   0.219
 3967W        W 7711   7.431   5.233   9.346
 3968W        W 7712   3.240   0.511   1.300
 3969W        W 7713   1.226   3.689   1.019
 3970W        W 7714   7.052   6.133   9.095
 3971W        W 7715   5.975   2.109   9.139
 3972W        W 7716   9.821   1.816   9.383
 3973W        W 7717   0.858   1.714   2.592
 3974W        W 7718   3.323   9.571  11.798
 3975W        W 7719   6.585   0.509   0.862
 3976W        W 7720   3.337   3.948   3.128
 3977W        W 7721   3.428   5.398   3.206
 3978W        W 7722   7.230   4.114  11.817
 3979W        W 7723   1.217   6.119  11.878
 3980W        W 7724   0.844   9.642   9.552
 3981W        W 7725   7.164   7.516   2.387
 3982W        W 7726   9.380   3.636   1.151
 3983W        W 7727   3.926   9.714   0.705
 3984W        W 7728   5.490   1.700   2.957
 3985W        W 7729   3.267   4.890   0.547
 3986W        W 7730   5.075   4.073  10.746
 3987W        W 7731   8.044   5.387   1.259
 3988W        W 7732   4.513   4.137   9.404
 3989W        W 7733   5.341   9.757  11.552
 3990W        W 7734   7.516   9.579  10.043
 3991W        W 7735   6.882   9.390  10.725
 3992W        W 7736   0.192   6.183   0.823
 3993W        W 7737   2.644   5.644   9.936
 3994W        W 7738   3.171   4.214   1.246
 3995W        W 7739  10.193   6.844   9.353
 3996W        W 7740   9.622   7.421   0.834
 3997W        W 7741   7.067   5.239   0.280
 3998W        W 7742   5.929   0.815   9.953
 3999W        W 7743   8.121   8.441   2.600
 4000W        W 7744   6.583   6.673   2.250
 4001W        W 7745   6.932   4.881   9.945
 4002W        W 7746   3.848   3.074   9.248
 4003W        W 7747   1.737   2.227  11.349
 4004W        W 7748   6.825  10.313   2.546
 4005W        W 7749   1.392  10.373  10.261
 4006W        W 7750   5.952   4.741  10.337
 4007W        W 7751   4.952   7.867   8.270
 4008W        W 7752   8.399   3.639   8.432
 4009W        W 7753  10.256   0.791   8.786
 4010W        W 7754   9.045   2.538   1.843
 4011W        W 7755   2.892   4.621   4.070
 4012W        W 7756   4.669   6.476   2.311
 4013W        W 7757   5.063   7.154   1.338
 4014W        W 7758   0.703   6.184   0.931
 4015W        W 7759   9.548   0.060   0.269
 4016W        W 7760   2.903   3.717  10.537
 4017W        W 7761   3.233   8.324  11.516
 4018W        W 7762   7.881   2.420  10.496
 4019W        W 7763   0.845   1.365   0.920
 4020W        W 7764   9.472   1.838   0.931
 4021W        W 7765   7.200   2.643   2.533
 4022W        W 7766   1.451   8.449   1.056
 4023W        W 7767   3.075   2.512   0.602
 4024W        W 7768   7.554   6.073   2.739
 4025W        W 7769   5.642   1.158   1.287
 4026W        W 7770   7.030   9.651   0.821
 4027W        W 7771   9.579   7.185  10.109
 4028W        W 7772   5.964   6.732   4.301
 4029W        W 7773   4.603   3.223  10.817
 4030W        W 7774  10.058   1.001   1.367
 4031W        W 7775   0.393   8.940   1.553
 4032W        W 7776   2.709   7.902   1.214
 4033W        W 7777  10.368   8.522   0.741
 4034W        W 7778   9.966   5.450   1.767
 4035W        W 7779   6.664   5.284  11.979
 4036W        W 7780   5.070   7.889  10.282
 4037W        W 7781   9.937   4.968  10.881
 4038W        W 7782   9.843   1.443  10.206
 4039W        W 7783   4.241   4.433   9.079
 4040W        W 7784   5.597   9.505  10.704
 4041W        W 7785   4.502   5.999   0.704
 4042W        W 7786   7.667   5.575   3.986
 4043W        W 7787   2.164   0.385   9.981
 4044W        W 7788   6.471   9.992   2.378
 4045W        W 7789   5.229   9.441   0.652
 4046W        W 7790   9.667   9.813  11.208
 4047W        W 7791   7.944   0.288  10.558
 4048W        W 7792   0.815   7.906  11.497
 4049W        W 7793  10.324  10.332   1.941
 4050W        W 7794   5.701   3.585  10.924
 4051W        W 7795   2.301   5.056  11.631
 4052W        W 7796  10.074   5.707   2.193
 4053W        W 7797   4.696   2.763   9.798
 4054W        W 7798   6.040   7.209   3.559
 4055W        W 7799   7.600   6.670  10.471
 4056W        W 7800   1.652   8.566  11.534
 4057W        W 7801   5.978   7.133   1.888
 4058W        W 7802   8.740   1.509   3.511
 4059W        W 7803   4.502   7.939   8.507
 4060W        W 7804   8.473   6.187   9.135
 4061W        W 7805   3.397   4.630   8.657
 4062W        W 7806   8.375   9.263   0.056
 4063W        W 7807   1.349   6.412   2.622
 4064W        W 7808  10.201   4.158   2.858
 4065W        W 7809   7.465   5.827   0.806
 4066W        W 7810  10.487   1.717   2.492
 4067W        W 7811   2.926   2.056   9.479
 4068W        W 7812   0.058   1.593   1.842
 4069W        W 7813   4.060   6.920  10.305
 4070W        W 7814   6.743   4.593   3.271
 4071W        W 7815   7.173   2.672   1.363
 4072W        W 7816   4.858   2.826   2.310
 4073W        W 7817   4.878   9.505   2.667
 4074W        W 7818   5.141   4.677  11.483
 4075W        W 7819   8.954   0.401   1.442
 4076W        W 7820   4.005   7.530   3.034
 4077W        W 7821   1.829   3.236   1.997
 4078W        W 7822   1.575   9.493   2.993
 4079W        W 7823   7.090   7.878  11.468
 4080W        W 7824   1.267   4.252   0.431
 4081W        W 7825   9.388   8.581   8.970
 4082W        W 7826   0.825   3.849  11.780
 4083W        W 7827   0.734   7.104   0.754
 4084W        W 7828   3.350   8.842   3.265
 4085W        W 7829   9.593  10.476   3.516
 4086W        W 7830   1.182   2.866   0.504
 4087W        W 7831   6.937   9.971  11.368
 4088W        W 7832   2.313   3.812   2.655
 4089W        W 7833   4.940   4.230   0.922
 4090W        W 7834   4.644   4.947   9.899
 4091W        W 7835   2.882   1.159   3.338
 4092W        W 7836   8.997   8.418   2.574
 4093W        W 7837   3.302   2.380  10.121
 4094W        W 7838   1.807   6.275  11.308
 4095W        W 7839   4.633   7.621  10.271
 4096W        W 7840   6.484   3.032  10.506
 4097W        W 7841   7.344   1.050   9.405
 4098W        W 7842   7.059   7.467   9.376
 4099W        W 7843   4.076  10.102   0.350
 4100W        W 7844   8.382   1.983  10.961
 4101W        W 7845   5.666   1.140   0.739
 4102W        W 7846   8.182   6.633   1.625
 4103W        W 7847   9.405   3.119  11.263
 4104W        W 7848   0.287   7.807   0.258
 4105W        W 7849   0.241   1.822   8.915
 4106W        W 7850   4.468   1.025  10.985
 4107W        W 7851   7.443   2.777   1.796
 4108W        W 7852   8.332   0.927   9.225
 4109W        W 7853   4.692   3.022   0.110
 4110W        W 7854   5.871   2.390   0.045
 4111W        W 7855   7.371   5.025  11.361
 4112W        W 7856   7.459   3.279   1.896
 4113W        W 7857   1.223   7.435   2.193
 4114W        W 7858   4.177   0.783  10.397
 4115W        W 7859   6.750   1.463  11.951
 4116W        W 7860   2.631   3.868  11.447
 4117W        W 7861   6.947   0.978   0.272
 4118W        W 7862   1.438   8.662  10.507
 4119W        W 7863   8.322   9.814  10.209
 4120W        W 7864   8.037   6.020   0.006
 4121W        W 7865   1.895   8.541  11.080
 4122W        W 7866   9.771   9.861   9.823
 4123W        W 7867   3.792   1.826   9.035
 4124W        W 7868   4.447   8.093   0.084
 4125W        W 7869   5.196   9.452   1.155
 4126W        W 7870   1.351  10.304   9.762
 4127W        W 7871   6.517   3.653   3.201
 4128W        W 7872   2.815   8.549  10.654
 4129W        W 7873   5.531   6.404  11.118
 4130W        W 7874   7.046   8.660   1.115
 4131W        W 7875   5.135   8.963   0.873
 4132W        W 7876  10.167  10.295   1.448
 4133W        W 7877   1.455   9.085   2.671
 4134W        W 7878   4.640   5.453   1.850
 4135W        W 7879   1.266   8.444   8.739
 4136W        W 7880   4.484  10.451  11.413
 4137W        W 7881  10.403   3.638   2.147
 4138W        W 7882   8.068   7.488   9.603
 4139W        W 7883   4.045   6.819  11.526
 4140W        W 7884   7.415   7.595   3.230
 4141W        W 7885  10.067   6.843   2.413
 4142W        W 7886   2.830   4.560  10.464
 4143W        W 7887   6.105   0.198  11.764
 4144W        W 7888   0.461   0.476   2.457
 4145W        W 7889   2.775   5.522   0.751
 4146W        W 7890   4.591  10.335  10.538
 4147W        W 7891   6.231   0.279   8.839
 4148W        W 7892   5.605  10.377   1.437
 4149W        W 7893   6.921   3.798  10.045
 4150W        W 7894   2.900   8.891   2.866
 4151W        W 7895   7.572   5.266   1.389
 4152W        W 7896   2.308   5.648   0.502
 4153W        W 7897   9.378   7.601  11.050
 4154W        W 7898   7.403   9.076   2.433
 4155W        W 7899   8.667   2.403  11.874
 4156W        W 7900   8.882   6.013   9.939
 4157W        W 7901   8.973  10.053   1.784
 4158W        W 7902   3.747   8.096  10.465
 4159W        W 7903   3.289   2.162   0.903
 4160W        W 7904   0.014   2.904   0.825
 4161W        W 7905   0.705   2.924   1.501
 4162W        W 7906   4.162   8.854   9.419
 4163W        W 7907   3.619   8.062   9.012
 4164W        W 7908   1.652   2.266   2.376
 4165W        W 7909   0.274   6.041   3.183
 4166W        W 7910   4.784  10.360  10.995
 4167W        W 7911   0.294   6.014   2.665
 4168W        W 7912   0.847   5.565   9.767
 4169W        W 7913   5.061   6.517   2.648
 4170W        W 7914   1.820   9.936   9.347
 4171W        W 7915   8.014   8.838   9.585
 4172W        W 7916   5.115   1.289  10.012
 4173W        W 7917   4.788   2.034   0.991
 4174W        W 7918   6.635   4.250   2.315
 4175W        W 7919   2.765   0.706   1.484
 4176W        W 7920   3.363   8.585   2.829
 4177W        W 7921   6.124   0.452  11.291
 4178W        W 7922   7.759   0.418  11.005
 4179W        W 7923   2.516   6.972   0.854
 4180W        W 7924   9.989   5.484   8.951
 4181W        W 7925   8.111   3.030  11.713
 4182W        W 7926   5.472   0.777   2.461
 4183W        W 7927   5.553   7.303   0.665
 4184W        W 7928   2.219   8.611   2.824
 4185W        W 7929   3.290   3.720   1.194
 4186W        W 7930   7.234   3.884   8.963
 4187W        W 7931   2.803   8.496   9.691
 4188W        W 7932   6.076   3.844  10.692
 4189W        W 7933   7.639   4.212   3.517
 4190W        W 7934   2.357   4.812   3.182
 4191W        W 7935   0.312   1.242  11.260
 4192W        W 7936   8.020   7.408  11.036
 4193W        W 7937   6.510   5.842  10.381
 4194W        W 7938   0.278   9.529  10.072
 4195W        W 7939   5.042   6.648  11.246
 4196W        W 7940   2.189   6.078   2.785
 4197W        W 7941   9.235   9.038   0.942
 4198W        W 7942   0.059   3.783   9.437
 4199W        W 7943   2.215   3.314   2.341
 4200W        W 7944   7.036   1.224   3.405
 4201W        W 7945   3.190   7.679   2.723
 4202W        W 7946   9.428   5.049   2.323
 4203W        W 7947   8.708   1.760  10.606
 4204W        W 7948   3.179   5.584  10.999
 4205W        W 7949   1.772   0.303   2.601
 4206W        W 7950   9.971   2.786   2.264
 4207W        W 7951   6.747   4.835   1.302
 4208W        W 7952   3.032   8.800  11.464
 4209W        W 7953   8.808   8.910  11.477
 4210W        W 7954   2.151   8.985  10.934
 4211W        W 7955   5.881   7.666   0.536
 4212W        W 7956   8.500   8.108   3.106
 4213W        W 7957   3.628   5.627   0.314
 4214W        W 7958   4.973   6.886   0.866
 4215W        W 7959   2.298   9.376   1.660
 4216W        W 7960   2.595   2.395  11.416
 4217W        W 7961   2.866   5.090   9.853
 4218W        W 7962   8.015   2.365   9.542
 4219W        W 7963   6.715   2.322   9.762
 4220W        W 7964   0.979   8.371   3.234
 4221W        W 7965   8.907   4.628   9.821
 4222W        W 7966   1.946   6.507   0.580
 4223W        W 7967   3.410   8.168   1.855
 4224W        W 7968   4.286  10.289   1.859
 4225W        W 7969   3.369   5.763  10.555
 4226W        W 7970   6.041   1.697  10.276
 4227W        W 7971   1.386   3.735   1.854
 4228W        W 7972   3.422   9.581   0.671
 4229W        W 7973   7.136   6.567   3.287
 4230W        W 7974   5.404   2.037   1.691
 4231W        W 7975   2.115   4.657   0.526
 4232W        W 7976   4.984   1.469   3.443
 4233W        W 7977   9.261   8.488  10.414
 4234W        W 7978   8.552   8.063   1.533
 4235W        W 7979   3.786   3.191   1.872
 4236W        W 7980   0.240   6.454   9.420
 4237W        W 7981   6.006   1.732  10.770
 4238W        W 7982   3.698   4.901   3.129
 4239W        W 7983   2.128   1.336   0.189
 4240W        W 7984   2.745   2.367  10.774
 4241W        W 7985   7.887   1.349   0.462
 4242W        W 7986   6.976   4.188   0.268
 4243W        W 7987   5.628   0.474  11.912
 4244W        W 7988   2.286   6.711   1.306
 4245W        W 7989   9.781   9.278   0.353
 4246W        W 7990   4.078   8.996  10.780
 4247W        W 7991   7.145   1.835   2.950
 4248W        W 7992   7.003   8.398   9.264
 4249W        W 7993   8.856   4.060  11.398
 4250W        W 7994   2.234   4.445  10.315
 4251W        W 7995  10.037   5.529   0.891
 4252W        W 7996   6.930   7.143   1.471
 4253W        W 7997   3.092   5.013   9.371
 4254W        W 7998   8.060   8.903   2.822
 4255W        W 7999   9.185   0.587   2.290
 4256W        W 8000   5.667   0.389   9.221
 4257W        W 8001   2.701   3.590   9.131
 4258W        W 8002   8.953   1.453  10.219
 4259W        W 8003   0.681   9.288   2.760
 4260W        W 8004   7.815   5.024   3.278
 4261W        W 8005   0.763   1.821   1.241
 4262W        W 8006   6.657   8.564   3.230
 4263W        W 8007   7.453   3.441   2.415
 4264W        W 8008  10.482   5.570   0.215
 4265W        W 8009   4.724   5.466   1.349
 4266W        W 8010   3.176   5.130  11.884
 4267W        W 8011   3.264   0.499   9.557
 4268W        W 8012   7.627   4.746  10.329
 4269W        W 8013   4.358   4.915  11.287
 4270W        W 8014   1.588   8.846  10.046
 4271W        W 8015   6.005   6.605  10.329
 4272W        W 8016   4.300   1.764  10.647
 4273W        W 8017   8.460   6.686  10.978
 4274W        W 8018   0.308   8.639  11.982
 4275W        W 8019   7.385  10.491   0.984
 4276W        W 8020   6.572   9.882   9.230
 4277W        W 8021   7.214   0.896   9.973
 4278W        W 8022   6.249   2.861   2.333
 4279W        W 8023   3.718   8.223   0.270
 4280W        W 8024   8.414   3.219   9.209
 4281W        W 8025  10.366   0.349   2.638
 4282W        W 8026   4.018   4.278   9.539
 4283W        W 8027   4.166   3.540   1.730
 4284W        W 8028   6.757   3.714   9.040
 4285W        W 8029   9.600   7.605  11.877
 4286W        W 8030   3.825   2.816   2.276
 4287W        W 8031   0.540   9.311   1.229
 4288W        W 8032   6.234   3.212   3.254
 4289W        W 8033   9.870   4.261  10.517
 4290W        W 8034   7.720   2.730  11.869
 4291W        W 8035   3.609   6.893   2.299
 4292W        W 8036   1.238   8.756   1.864
 4293W        W 8037   4.178   3.967   1.477
 4294W        W 8038   4.079   9.921   2.902
 4295W        W 8039   2.622   5.943  10.838
 4296W        W 8040   8.387   0.527   2.677
 4297W        W 8041   5.688   0.324   1.696
 4298W        W 8042   0.997   7.483  10.777
 4299W        W 8043   6.626   0.487   3.045
 4300W        W 8044   6.098   8.134   3.675
 4301W        W 8045   2.851   8.783   0.796
 4302W        W 8046   2.248   7.666   3.513
 4303W        W 8047   5.963   7.196   0.365
 4304W        W 8048   6.790   9.566   3.491
 4305W        W 8049   4.274   9.932  10.485
 4306W        W 8050   9.386   7.811   8.991
 4307W        W 8051   4.207   3.103  11.743
 4308W        W 8052   6.465   4.064   1.845
 4309W        W 8053   6.237   7.927  11.600
 4310W        W 8054   3.305   0.202   3.144
 4311W        W 8055   4.231   8.119  11.296
 4312W        W 8056   1.338   5.796  10.479
 4313W        W 8057   5.835   1.887   1.429
 4314W        W 8058   2.123   5.141  10.764
 4315W        W 8059   7.951   2.299   0.445
 4316W        W 8060   5.694   9.343   3.581
 4317W        W 8061   8.473   2.769   1.680
 4318W        W 8062   4.128  10.422  11.939
 4319W        W 8063   8.766   6.594  11.788
 4320W        W 8064   6.924   0.449   0.283
 4321W        W 8065   0.332   1.448   2.746
 4322W        W 8066   0.226   6.015   9.020
 4323W        W 8067   2.772   0.336   1.076
 4324W        W 8068   3.867   3.884   0.505
 4325W        W 8069   2.963   7.912  11.703
 4326W        W 8070   3.980   8.306  10.041
 4327W        W 8071   2.740   6.877  10.740
 4328W        W 8072   4.094   0.079   9.956
 4329W        W 8073   3.771   9.561   9.008
 4330W        W 8074   2.784   8.041   0.189
 4331W        W 8075   4.671   2.044   9.511
 4332W        W 8076   6.002   4.999   0.948
 4333W        W 8077   2.662   6.608  11.427
 4334W        W 8078   6.618   0.257   2.581
 4335W        W 8079   2.684   2.286   9.078
 4336W        W 8080   0.447   1.721   2.224
 4337W        W 8081   9.817   7.959   0.194
 4338W        W 8082   2.603   8.027  11.372
 4339W        W 8083   9.927   7.940   3.238
 4340W        W 8084   4.449   2.387  11.047
 4341W        W 8085  10.410   8.953   1.759
 4342W        W 8086   2.753   5.918   3.918
 4343W        W 8087   8.859   8.755   0.756
 4344W        W 8088   4.080   7.983   2.823
 4345W        W 8089   5.691   6.242   1.913
 4346W        W 8090  10.484   6.563  10.150
 4347W        W 8091   9.880   3.662   2.170
 4348W        W 8092   3.854   5.076   9.776
 4349W        W 8093   0.811   4.164   9.068
 4350W        W 8094   3.310   8.941   1.923
 4351W        W 8095   8.568   6.708   9.100
 4352W        W 8096   9.426   9.381  11.018
 4353W        W 8097   6.027  10.014   0.352
 4354W        W 8098   3.177  10.459  11.891
 4355W        W 8099   9.759   7.455   8.883
 4356W        W 8100   6.076   9.313   9.146
 4357W        W 8101   1.936   1.780   0.042
 4358W        W 8102   2.543   8.552   1.846
 4359W        W 8103   7.606   5.663  10.341
 4360W        W 8104   5.151   5.238  10.067
 4361W        W 8105  10.328   0.931   0.929
 4362W        W 8106   8.103   3.167   0.698
 4363W        W 8107   9.119   8.614   0.304
 4364W        W 8108   3.611   4.222   2.738
 4365W        W 8109   0.532   1.334   1.345
 4366W        W 8110   0.990   6.193  10.358
 4367W        W 8111   9.346   4.938  11.402
 4368W        W 8112   0.824   9.632   1.855
 4369W        W 8113   0.224   9.995   3.171
 4370W        W 8114   2.727   4.726  11.728
 4371W        W 8115   5.249   7.675   0.489
 4372W        W 8116   9.344   9.547   1.026
 4373W        W 8117   2.793   3.647   9.624
 4374W        W 8118   1.743   2.942   1.236
 4375W        W 8119   1.362   2.737   0.970
 4376W        W 8120   4.652   0.094   9.035
 4377W        W 8121   9.834   3.546   0.228
 4378W        W 8122   2.809   7.230   1.819
 4379W        W 8123   1.160   2.835  11.218
 4380W        W 8124   1.850   9.525   1.465
 4381W        W 8125   7.615   2.305   1.383
 4382W        W 8126   4.941   2.234  10.973
 4383W        W 8127  10.240   8.040   0.920
 4384W        W 8128   8.377   7.087   3.626
 4385W        W 8129   5.922   3.952   0.265
 4386W        W 8130   7.495   8.453   0.967
 4387W        W 8131   3.704   4.524   3.579
 4388W        W 8132   9.029   5.514  10.754
 4389W        W 8133   0.549   5.765  11.536
 4390W        W 8134   6.094   2.863   0.170
 4391W        W 8135   1.632   4.140  10.275
 4392W        W 8136   4.341   2.192   1.892
 4393W        W 8137   3.390  10.071   9.533
 4394W        W 8138   3.831   2.634   1.410
 4395W        W 8139   9.685   0.174  11.761
 4396W        W 8140   9.867   8.792   3.017
 4397W        W 8141   5.473   7.262   1.980
 4398W        W 8142   2.117   3.951  10.230
 4399W        W 8143   7.986   5.617   0.339
 4400W        W 8144   2.349   7.872  10.544
 4401W        W 8145   2.304   5.528  10.458
 4402W        W 8146   8.581   5.785   2.202
 4403W        W 8147   4.888   0.764   3.134
 4404W        W 8148   0.447   2.195   3.142
 4405W        W 8149   8.174   4.735   0.679
 4406W        W 8150   3.634   1.440   1.998
 4407W        W 8151   0.937   0.072   3.434
 4408W        W 8152   8.118   8.508   2.108
 4409W        W 8153   2.814   4.510   2.404
 4410W        W 8154   0.742   3.124   0.291
 4411W        W 8155   2.800   3.740   2.855
 4412W        W 8156   9.507   9.015   2.307
 4413W        W 8157   8.689   6.737   2.363
 4414W        W 8158   6.438   4.133   9.200
 4415W        W 8159   7.219   9.229   8.731
 4416W        W 8160   9.871   5.054   9.606
 4417W        W 8161   3.137  10.462   2.716
 4418W        W 8162   6.889   5.516   2.541
 4419W        W 8163   3.650   1.341   2.929
 4420W        W 8164   3.844   9.035   9.038
 4421W        W 8165   7.014   3.108   1.702
 4422W        W 8166   0.806   8.933   9.892
 4423W        W 8167   3.401   3.115  11.526
 4424W        W 8168   4.023   7.531   1.770
 4425W        W 8169   0.325   6.601   1.792
 4426W        W 8170   9.392   4.406  11.361
 4427W        W 8171   3.186   5.385   0.436
 4428W        W 8172   6.228   3.958   3.532
 4429W        W 8173   4.712   7.083   0.134
 4430W        W 8174   4.718   3.504  11.955
 4431W        W 8175   5.625   1.762   9.006
 4432W        W 8176   8.844   4.797   3.393
 4433W        W 8177   1.392   5.226   9.819
 4434W        W 8178   8.371   3.267   9.731
 4435W        W 8179   7.947   9.139  11.071
 4436W        W 8180   0.785   1.286   2.888
 4437W        W 8181   3.244   8.799   9.265
 4438W        W 8182   7.550   2.031   0.672
 4439W        W 8183   7.517   8.312   8.545
 4440W        W 8184   7.439   7.887   0.424
 4441W        W 8185   8.518   6.539  10.478
 4442W        W 8186   0.671   6.846   9.406
 4443W        W 8187   5.634   5.074   9.331
 4444W        W 8188   5.992   1.260   3.219
 4445W        W 8189   5.124   0.813   8.717
 4446W        W 8190   5.626   0.015   3.420
 4447W        W 8191   5.947   7.329   0.961
 4448W        W 8192   1.251   9.905   1.808
 4449W        W 8193   6.904   5.175   2.929
 4450W        W 8194   7.961   9.770   9.819
 4451W        W 8195   6.398   6.950   0.518
 4452W        W 8196   9.476   9.975   8.941
 4453W        W 8197   9.800   4.681  11.432
 4454W        W 8198   5.913   2.769   3.309
 4455W        W 8199   4.634  10.104   8.879
 4456W        W 8200   4.400   3.630   8.626
 4457W        W 8201   8.984   6.613   3.137
 4458W        W 8202   4.684   6.901   2.641
 4459W        W 8203   2.695   7.510   3.324
 4460W        W 8204   5.641   0.790   0.338
 4461W        W 8205   3.350   5.983   4.043
 4462W        W 8206   9.699   5.696   1.386
 4463W        W 8207   1.772   4.623  10.208
 4464W        W 8208   9.172   9.808  11.154
 4465W        W 8209   7.931   8.969   2.313
 4466W        W 8210   6.998   2.176   9.325
 4467W        W 8211   4.789   1.778   0.496
 4468W        W 8212   4.803   7.324   2.949
 4469W        W 8213   1.353   1.268   9.389
 4470W        W 8214   9.869   0.048   1.780
 4471W        W 8215  10.273   5.089   8.766
 4472W        W 8216   7.637   6.576   9.547
 4473W        W 8217   2.200   2.218   0.138
 4474W        W 8218   8.469   2.902   0.338
 4475W        W 8219   8.307   6.538   0.577
 4476W        W 8220   5.644   5.644   2.745
 4477W        W 8221   5.172   4.363  10.345
 4478W        W 8222   6.417   2.174   8.882
 4479W        W 8223   3.275   9.108   0.785
 4480W        W 8224   4.329   3.394  10.394
 4481W        W 8225   4.875   1.540   1.199
 4482W        W 8226   7.537   1.839  11.803
 4483W        W 8227   8.080   3.997   3.612
 4484W        W 8228   3.628   2.720   9.533
 4485W        W 8229   2.799   4.331  11.422
 4486W        W 8230   9.382   1.849   9.095
 4487W        W 8231   3.397   4.441   4.004
 4488W        W 8232   9.261   3.272  10.351
 4489W        W 8233   7.756   3.220  10.976
 4490W        W 8234   1.367   5.598   1.965
 4491W        W 8235   1.842   8.187   2.272
 4492W        W 8236   7.911   3.693  10.792
 4493W        W 8237   5.291   4.670   2.671
 4494W        W 8238   1.861   7.099   0.044
 4495W        W 8239   6.972   1.280   1.340
 4496W        W 8240   5.434   7.415  11.674
 4497W        W 8241   1.743   4.626   9.185
 4498W        W 8242   8.639   4.200  10.023
 4499W        W 8243   5.160   8.010  11.352
 4500W        W 8244  10.198   6.709   2.919
 4501W        W 8245   4.704  10.236   1.198
 4502W        W 8246  10.257   7.254   2.139
 4503W        W 8247   4.622   3.256   0.567
 4504W        W 8248   1.916   4.762   2.864
 4505W        W 8249   0.288   7.449   3.322
 4506W        W 8250   3.944   9.918  11.889
 4507W        W 8251   8.097   8.264   1.662
 4508W        W 8252   9.356   7.150   8.726
 4509W        W 8253   3.181   0.922   9.262
 4510W        W 8254   1.969   3.264   0.551
 4511W        W 8255   5.912   2.109   9.649
 4512W        W 8256   5.223   7.522   8.543
 4513W        W 8257   6.785   8.901  11.458
 4514W        W 8258   9.082   3.254   3.476
 4515W        W 8259  10.085   2.202   1.142
 4516W        W 8260   1.277   7.132   0.858
 4517W        W 8261   8.581   2.181   8.737
 4518W        W 8262   7.318   2.224   1.771
 4519W        W 8263   8.511   0.252   1.242
 4520W        W 8264  10.400   0.896   9.250
 4521W        W 8265   0.921   3.167   3.643
 4522W        W 8266   9.887   6.586   3.328
 4523W        W 8267   3.870   5.673   2.719
 4524W        W 8268   8.473  10.238   1.846
 4525W        W 8269   8.631   4.173  10.939
 4526W        W 8270   4.146   9.890   8.866
 4527W        W 8271   1.155   2.338   2.202
 4528W        W 8272   6.917   7.597   8.888
 4529W        W 8273   1.439   3.116   9.587
 4530W        W 8274   2.804  10.412  11.071
 4531W        W 8275   8.235   5.968  10.451
 4532W        W 8276   6.682   1.549   1.716
 4533W        W 8277   3.806   8.616  10.437
 4534W        W 8278   4.372   0.011   0.817
 4535W        W 8279   2.460   7.652  11.005
 4536W        W 8280   3.200   2.965   2.906
 4537W        W 8281   1.769   0.202   2.093
 4538W        W 8282   8.505   6.143   8.583
 4539W        W 8283   7.509   2.162   0.193
 4540W        W 8284   6.932   7.437  11.711
 4541W        W 8285   3.275   6.506   9.980
 4542W        W 8286   6.053   3.788  11.739
 4543W        W 8287   2.098   4.781  11.148
 4544W        W 8288   2.419   5.098   1.923
 4545W        W 8289   3.294   7.865  10.360
 4546W        W 8290   0.734   7.884   0.524
 4547W        W 8291  10.236   6.979  10.310
 4548W        W 8292   2.024   5.035   9.474
 4549W        W 8293   4.641   5.046   1.098
 4550W        W 8294   2.320   0.703  11.524
 4551W        W 8295   4.075   9.090   2.577
 4552W        W 8296   7.146   9.350   9.757
 4553W        W 8297   9.797   6.078   3.338
 4554W        W 8298   9.711  10.436   9.057
 4555W        W 8299   7.465   7.471   8.934
 4556W        W 8300   5.712   4.160  11.843
 4557W        W 8301   6.592   7.589   3.180
 4558W        W 8302  10.103   5.610  11.306
 4559W        W 8303   8.973   8.877   2.809
 4560W        W 8304   2.391   3.672  10.582
 4561W        W 8305   5.646   0.314   2.233
 4562W        W 8306   0.241  10.432  11.708
 4563W        W 8307  10.321   1.797   3.598
 4564W        W 8308   0.318   0.119   0.699
 4565W        W 8309   3.295   3.808   1.698
 4566W        W 8310   7.108   9.010  10.463
 4567W        W 8311   7.366   7.146   1.141
 4568W        W 8312   4.573   6.212   2.731
 4569W        W 8313   8.676   6.971  11.387
 4570W        W 8314   5.960   8.606  11.022
 4571W        W 8315   1.251   3.199   1.146
 4572W        W 8316   8.220   9.421   2.268
 4573W        W 8317   6.479   4.071   0.338
 4574W        W 8318   3.180   9.823   1.912
 4575W        W 8319   2.637   7.684   9.060
 4576W        W 8320   0.714   4.343  11.721
 4577W        W 8321   4.234   9.088  11.589
 4578W        W 8322   7.963   7.614   9.113
 4579W        W 8323   3.313   1.256  11.970
 4580W        W 8324   8.168   6.670   8.765
 4581W        W 8325   3.553   1.434  11.542
 4582W        W 8326   3.921   9.615  10.287
 4583W        W 8327   1.675   2.756  11.301
 4584W        W 8328   5.356   9.555   2.480
 4585W        W 8329   9.221  10.326   9.255
 4586W        W 8330   7.279   8.485   0.278
 4587W        W 8331   8.043  10.103   0.840
 4588W        W 8332   9.504   2.806  10.392
 4589W        W 8333   5.139   0.358  10.111
 4590W        W 8334   7.316   8.537   2.255
 4591W        W 8335   7.160   5.039   2.504
 4592W        W 8336   3.135  10.451  10.456
 4593W        W 8337   2.440   3.294   9.786
 4594W        W 8338   2.449   5.580   2.705
 4595W        W 8339   7.875   5.488   3.538
 4596W        W 8340  10.449   6.598   3.389
 4597W        W 8341   7.822   8.798  11.453
 4598W        W 8342   7.890   3.139   2.609
 4599W        W 8343   2.314   0.233   0.358
 4600W        W 8344   0.813   3.977   0.696
 4601W        W 8345   3.865   4.078  10.010
 4602W        W 8346   1.360   6.509  11.542
 4603W        W 8347   6.661   2.293   1.244
 4604W        W 8348   1.227   1.539  11.704
 4605W        W 8349   2.235   9.950   3.522
 4606W        W 8350   9.512   7.051   0.474
 4607W        W 8351   1.283   2.340   1.700
 4608W        W 8352  10.295   9.230   0.400
 4609W        W 8353   0.140   1.758   3.128
 4610W        W 8354   4.660   3.603  11.467
 4611W        W 8355   5.089   1.753   9.754
 4612W        W 8356   7.705   3.600   1.587
 4613W        W 8357   1.160   0.575  11.912
 4614W        W 8358   5.403   7.956   9.108
 4615W        W 8359   9.478   2.328   8.947
 4616W        W 8360   2.201   6.696   3.363
 4617W        W 8361   2.733   7.062  11.645
 4618W        W 8362   6.105   6.572   2.403
 4619W        W 8363   4.453   4.373   0.193
 4620W        W 8364   6.935   0.705   2.672
 4621W        W 8365   5.240   3.018   1.611
 4622W        W 8366   1.266   2.395   2.710
 4623W        W 8367   0.161   5.192   0.543
 4624W        W 8368   7.008   2.688   9.516
 4625W        W 8369   3.533   6.382   3.072
 4626W        W 8370   0.079   7.968   9.419
 4627W        W 8371   1.439   8.893   1.411
 4628W        W 8372   1.673   4.056   0.170
 4629W        W 8373   6.703   7.519  10.751
 4630W        W 8374  10.090   2.655   9.022
 4631W        W 8375   9.947  10.063   8.731
 4632W        W 8376   8.966   9.620  10.309
 4633W        W 8377   3.670   3.122   0.951
 4634W        W 8378   0.862   4.086   9.955
 4635W        W 8379   2.328   4.286  11.224
 4636W        W 8380   1.902   6.384   1.110
 4637W        W 8381   9.073   5.031   1.958
 4638W        W 8382   0.733   1.366  11.546
 4639W        W 8383   3.351   9.243   9.051
 4640W        W 8384   5.422   7.582  11.194
 4641W        W 8385   6.979   2.359  11.185
 4642W        W 8386   5.410   8.536   2.420
 4643W        W 8387   9.330  10.283  11.327
 4644W        W 8388   3.819   1.331   2.451
 4645W        W 8389   5.338   3.610   8.163
 4646W        W 8390   6.425   9.506   2.382
 4647W        W 8391   2.887   3.199   2.109
 4648W        W 8392   5.719   8.816   3.552
 4649W        W 8393   8.543   6.087  11.314
 4650W        W 8394   1.019   1.360   0.417
 4651W        W 8395  10.481   9.606   0.111
 4652W        W 8396   0.216   1.114  10.264
 4653W        W 8397   3.958   6.624   1.987
 4654W        W 8398   3.418   5.176   1.933
 4655W        W 8399   2.727   7.196  10.316
 4656W        W 8400   6.251   1.746   1.128
 4657W        W 8401   6.668   9.079   3.295
 4658W        W 8402   4.102   9.168   0.178
 4659W        W 8403   2.339   1.248   9.584
 4660W        W 8404   4.291   0.338  11.697
 4661W        W 8405   7.434   4.949   4.048
 4662W        W 8406   7.824  10.243   9.058
 4663W        W 8407   0.668   6.798   0.328
 4664W        W 8408   8.051   6.130  11.509
 4665W        W 8409   6.247   7.045  11.987
 4666W        W 8410   7.176   1.410  10.286
 4667W        W 8411   0.773   2.617   0.348
 4668W        W 8412   0.930   4.806  10.455
 4669W        W 8413   9.421   8.981  10.659
 4670W        W 8414   6.053   2.876  11.242
 4671W        W 8415   3.151   1.844   2.669
 4672W        W 8416   6.439   5.474  11.288
 4673W        W 8417   3.896   3.159  10.281
 4674W        W 8418   2.859   8.280   0.906
 4675W        W 8419   4.537   3.151   8.422
 4676W        W 8420   4.571   4.069   8.390
 4677W        W 8421   7.989   6.068  11.000
 4678W        W 8422   8.223   7.454  11.909
 4679W        W 8423   8.156   1.180   9.640
 4680W        W 8424   9.366   6.286   2.479
 4681W        W 8425   7.444   3.590   9.372
 4682W        W 8426   1.202   8.884   9.085
 4683W        W 8427   0.704   4.346  11.215
 4684W        W 8428   8.369   8.965   2.019
 4685W        W 8429   7.834   0.904   0.242
 4686W        W 8430  10.480   7.056   2.635
 4687W        W 8431   4.004   1.658   0.807
 4688W        W 8432   4.379   3.954   4.018
 4689W        W 8433   8.699   9.960   0.516
 4690W        W 8434   9.435   3.267   8.940
 4691W        W 8435   0.198   1.436   0.282
 4692W        W 8436   8.402   4.783   1.175
 4693W        W 8437   3.206   9.359   1.651
 4694W        W 8438   2.510   9.123   8.583
 4695W        W 8439   5.160   6.967   2.864
 4696W        W 8440   9.546   1.055   9.494
 4697W        W 8441   4.102   8.722  11.943
 4698W        W 8442   7.644   3.077  11.464
 4699W        W 8443   6.343   6.937   1.013
 4700W        W 8444   5.249   8.038   1.778
 4701W        W 8445   0.060   6.849   2.184
 4702W        W 8446   9.692   5.935   0.924
 4703W        W 8447   3.670   4.358  11.533
 4704W        W 8448   9.868   3.875  11.831
 4705W        W 8449   4.623   2.600   8.359
 4706W        W 8450   7.711   5.407   9.923
 4707W        W 8451   7.601   7.897  11.556
 4708W        W 8452   8.378  10.219  11.292
 4709W        W 8453   0.932   2.107  10.979
 4710W        W 8454   7.561   6.062   1.751
 4711W        W 8455   4.875   8.180   1.387
 4712W        W 8456   4.052   1.628   3.127
 4713W        W 8457   1.621   0.318  11.715
 4714W        W 8458   4.209   5.766   1.841
 4715W        W 8459   7.482   1.761  10.982
 4716W        W 8460   7.718   6.326  10.002
 4717W        W 8461   7.052   3.230   8.447
 4718W        W 8462   3.698   6.026   9.932
 4719W        W 8463   1.360   2.908  10.323
 4720W        W 8464   2.399   8.349   0.051
 4721W        W 8465   8.137   7.643   0.810
 4722W        W 8466   3.599   6.383   2.250
 4723W        W 8467   2.555   6.437   3.119
 4724W        W 8468   5.276   0.421  11.364
 4725W        W 8469   0.350   8.377   2.434
 4726W        W 8470   3.735   2.335  10.857
 4727W        W 8471   5.112   8.474   1.986
 4728W        W 8472   5.200   0.350   2.491
 4729W        W 8473   4.171   5.622   9.778
 4730W        W 8474   3.761   5.434  10.664
 4731W        W 8475   0.442   2.951   2.722
 4732W        W 8476   9.303   4.363   2.926
 4733W        W 8477   2.151   6.148   3.286
 4734W        W 8478   8.989   4.572  11.588
 4735W        W 8479   7.028   5.195  11.033
 4736W        W 8480   7.985   5.506  11.826
 4737W        W 8481   2.636   9.970  11.405
 4738W        W 8482  10.087  10.275   3.598
 4739W        W 8483   8.975   9.875   9.039
 4740W        W 8484   4.675  10.062   2.189
 4741W        W 8485   5.566   9.379  11.235
 4742W        W 8486   3.173   8.668  10.972
 4743W        W 8487   9.555   6.568   0.653
 4744W        W 8488   2.652  10.420  10.555
 4745W        W 8489   2.115   2.585   1.118
 4746W        W 8490   6.969   1.365   2.899
 4747W        W 8491   8.422   9.408   1.770
 4748W        W 8492   4.777   4.486  10.002
 4749W        W 8493   9.374   7.926   1.479
 4750W        W 8494   3.613   7.944   9.960
 4751W        W 8495   5.954   4.169   1.712
 4752W        W 8496   9.868   2.989  11.574
 4753W        W 8497   6.877   3.220  10.783
 4754W        W 8498   8.901   9.939   8.530
 4755W        W 8499  10.396   6.079  10.305
 4756W        W 8500   2.256   0.321   0.941
 4757W        W 8501   0.700   6.006  11.963
 4758W        W 8502   6.003   5.210  11.134
 4759W        W 8503  10.310   3.650   9.873
 4760W        W 8504   5.774   8.939  11.458
 4761W        W 8505   9.857   6.417   9.993
 4762W        W 8506   4.896   1.176  11.744
 4763W        W 8507   9.913   4.395  11.886
 4764W        W 8508   8.852   7.239   9.491
 4765W        W 8509   4.724   0.329   0.546
 4766W        W 8510   7.415   5.300   3.070
 4767W        W 8511   3.918  10.085   9.572
 4768W        W 8512   8.757   0.929  10.974
 4769W        W 8513   1.382   5.538   1.413
 4770W        W 8514   6.637   1.500   0.840
 4771W        W 8515   0.962   7.696   1.375
 4772W        W 8516  10.275   7.513  11.426
 4773W        W 8517   3.628   9.850   2.652
 4774W        W 8518   5.906   2.423   0.899
 4775W        W 8519   2.177   4.031  11.642
 4776W        W 8520   3.152   8.057   1.422
 4777W        W 8521   1.280   2.836   2.436
 4778W        W 8522   7.070   8.445   2.920
 4779W        W 8523   2.235   3.056   0.966
 4780W        W 8524   7.897   9.938   0.308
 4781W        W 8525   7.010   8.578  10.189
 4782W        W 8526   6.136   8.844   0.777
 4783W        W 8527   9.485   3.739   8.694
 4784W        W 8528   3.217   3.611   2.169
 4785W        W 8529   8.522   9.764  11.946
 4786W        W 8530   5.678   8.533  10.456
 4787W        W 8531   9.105   9.301   2.509
 4788W        W 8532   2.555   0.957  11.937
 4789W        W 8533   1.227  10.271   3.151
 4790W        W 8534   5.641   5.984   2.354
 4791W        W 8535   1.479   8.125  10.536
 4792W        W 8536   9.490   4.558   1.477
 4793W        W 8537   5.952   8.442   2.336
 4794W        W 8538   5.867   8.894   0.337
 4795W        W 8539   4.288   1.889   0.451
 4796W        W 8540   6.057   9.814   9.104
 4797W        W 8541   8.831   1.225   0.808
 4798W        W 8542   4.656   4.984   2.127
 4799W        W 8543   6.715   1.149  10.559
 4800W        W 8544   3.371   3.191   9.082
 4801W        W 8545   8.142   9.354   8.780
 4802W        W 8546   3.754   2.310  10.330
 4803W        W 8547   7.400   7.080   2.160
 4804W        W 8548   8.973   3.730   3.353
 4805W        W 8549   5.071   9.432  11.243
 4806W        W 8550   7.485  10.409   8.315
 4807W        W 8551   0.770   3.835   1.189
 4808W        W 8552   5.459   6.890  10.120
 4809W        W 8553   2.932   7.722  11.112
 4810W        W 8554   9.857   0.338   9.500
 4811W        W 8555   6.788   3.703   0.140
 4812W        W 8556   4.981   7.412   1.831
 4813W        W 8557   9.357   6.045   3.579
 4814W        W 8558   7.370   9.777   2.439
 4815W        W 8559  10.131   8.450  11.404
 4816W        W 8560   5.502   2.185   9.331
 4817W        W 8561   3.304   5.469   2.348
 4818W        W 8562   1.454   4.669   3.167
 4819W        W 8563   7.748   5.648   9.465
 4820W        W 8564   0.719   8.308  10.356
 4821W        W 8565  10.283   1.147   0.416
 4822W        W 8566   4.739   9.623   0.133
 4823W        W 8567   8.922   6.464  10.170
 4824W        W 8568   0.239  10.152   0.892
 4825W        W 8569   6.382   2.716   8.986
 4826W        W 8570   4.965   6.631  11.765
 4827W        W 8571   2.615   7.703   9.603
 4828W        W 8572   5.602   0.793   9.534
 4829W        W 8573  10.010   7.382  10.985
 4830W        W 8574   6.795   4.211   8.819
 4831W        W 8575  10.345   9.538  11.622
 4832W        W 8576   3.149   8.099   3.035
 4833W        W 8577   8.488   9.769   8.805
 4834W        W 8578   3.220   5.495  11.510
 4835W        W 8579   0.565   7.613   2.670
 4836W        W 8580   9.402   5.341   2.731
 4837W        W 8581   3.369   9.454  10.414
 4838W        W 8582   7.706   1.958   8.471
 4839W        W 8583   5.469   6.718  11.533
 4840W        W 8584   6.904   6.990   9.465
 4841W        W 8585   0.389   1.602   0.923
 4842W        W 8586  10.184   0.693   1.774
 4843W        W 8587   1.873   8.636   1.327
 4844W        W 8588   3.124   5.217   3.599
 4845W        W 8589   3.809   1.866  10.588
 4846W        W 8590   0.874   9.448  10.878
 4847W        W 8591   0.142   0.443   9.982
 4848W        W 8592   4.284   1.697  11.980
 4849W        W 8593   5.443   7.801   9.942
 4850W        W 8594   0.422   8.741  10.479
 4851W        W 8595   7.127   5.967  11.554
 4852W        W 8596   0.357   9.484  10.828
 4853W        W 8597   3.550   0.655   3.149
 4854W        W 8598   0.112   8.261   1.227
 4855W        W 8599   4.147   5.548  11.048
 4856W        W 8600   9.868   1.554   3.392
 4857W        W 8601   7.612   2.738  10.865
 4858W        W 8602   5.565   3.133   0.706
 4859W        W 8603   3.210   2.995   0.710
 4860W        W 8604   3.615   4.899  11.708
 4861W        W 8605   2.353   9.479   3.308
 4862W        W 8606   5.704   3.422  10.299
 4863W        W 8607   0.787   9.748  11.765
 4864W        W 8608   8.529   2.872  10.992
 4865W        W 8609   4.819   2.551   0.245
 4866W        W 8610   9.984   3.814   3.142
 4867W        W 8611   5.499   1.385   3.363
 4868W        W 8612   4.202   4.996   3.009
 4869W        W 8613   3.595   8.145   2.603
 4870W        W 8614   0.751  10.366   9.121
 4871W        W 8615   7.457   0.954   2.034
 4872W        W 8616   9.363   8.741   3.220
 4873W        W 8617  10.153   9.879  11.301
 4874W        W 8618   0.468   3.925   9.680
 4875W        W 8619   1.277   1.441   2.770
 4876W        W 8620   0.974   7.549   0.902
 4877W        W 8621   5.629   3.823  11.442
 4878W        W 8622   7.066   8.323   0.720
 4879W        W 8623   3.843   0.371   0.001
 4880W        W 8624   6.021   0.181  10.398
 4881W        W 8625   6.316   5.142   1.334
 4882W        W 8626   7.911   2.370  11.035
 4883W        W 8627   8.934   0.946  10.355
 4884W        W 8628   3.603   5.259   0.708
 4885W        W 8629   3.741   7.901  10.953
 4886W        W 8630   4.939   9.348   2.198
 4887W        W 8631   1.102   4.123   9.505
 4888W        W 8632   4.181   9.251   2.100
 4889W        W 8633   6.524   6.500   0.285
 4890W        W 8634   7.015   3.021  10.336
 4891W        W 8635   3.119  10.277   0.359
 4892W        W 8636   4.927   4.229   0.376
 4893W        W 8637   5.176  10.441   9.236
 4894W        W 8638   0.824   2.431   1.287
 4895W        W 8639   0.519   3.463  11.431
 4896W        W 8640   2.414   9.033   3.049
 4897W        W 8641   0.663   2.192   2.295
 4898W        W 8642   5.386   0.307   1.257
 4899W        W 8643   0.131   2.222   9.860
 4900W        W 8644   0.174   3.127   3.389
 4901W        W 8645   6.277   4.747  10.742
 4902W        W 8646   4.395   5.369  11.652
 4903W        W 8647   2.398   0.240   1.438
 4904W        W 8648   3.797   2.169   0.872
 4905W        W 8649   2.881   8.534   0.326
 4906W        W 8650   6.577   3.237   2.310
 4907W        W 8651   2.333   7.919   1.566
 4908W        W 8652   9.684   7.484   3.237
 4909W        W 8653   8.104   5.495  10.263
 4910W        W 8654   2.451   2.193   3.339
 4911W        W 8655   1.691   1.197   2.968
 4912W        W 8656   4.407   0.309  10.319
 4913W        W 8657   9.401   6.237   1.965
 4914W        W 8658   4.802   1.755  11.976
 4915W        W 8659   9.153   9.935   0.755
 4916W        W 8660   6.427   7.249   1.398
 4917W        W 8661   3.793   5.649   0.955
 4918W        W 8662   8.378   5.686  11.024
 4919W        W 8663   6.660   8.778   9.410
 4920W        W 8664   0.498   3.099  11.850
 4921W        W 8665   3.729   6.482   0.944
 4922W        W 8666   0.901   5.835  11.167
 4923W        W 8667   9.510   3.036   3.304
 4924W        W 8668   7.599   4.507   1.792
 4925W        W 8669   9.585   0.623   9.826
 4926W        W 8670   0.312   8.988  10.034
 4927W        W 8671   7.445   8.352  10.975
 4928W        W 8672   1.850   5.449   9.179
 4929W        W 8673   1.792   3.642   2.322
 4930W        W 8674   5.210   0.180  11.819
 4931W        W 8675   1.908   5.626   2.726
 4932W        W 8676   7.647   6.979  11.436
 4933W        W 8677   8.382   1.877   3.359
 4934W        W 8678  10.355   5.153  11.104
 4935W        W 8679   2.283   7.355  10.587
 4936W        W 8680   8.960   1.928   1.740
 4937W        W 8681   5.994   3.300  11.910
 4938W        W 8682   7.140   2.157   1.227
 4939W        W 8683   4.561   2.204   9.011
 4940W        W 8684   6.111  10.371  11.338
 4941W        W 8685   2.655  10.213   2.145
 4942W        W 8686   3.350   7.873  11.329
 4943W        W 8687   4.345   6.277   1.964
 4944W        W 8688   1.540   7.577   3.436
 4945W        W 8689   9.841   0.847   9.119
 4946W        W 8690   4.585   8.865   0.853
 4947W        W 8691   2.776   8.391  11.720
 4948W        W 8692   7.957   0.217   1.968
 4949W        W 8693   3.223   5.747   3.577
 4950W        W 8694   0.205   6.660   2.900
 4951W        W 8695   7.303   2.616   9.114
 4952W        W 8696   5.464   3.902   3.957
 4953W        W 8697   1.891   0.359   1.345
 4954W        W 8698   4.277   6.372  11.475
 4955W        W 8699   9.075   2.684  11.759
 4956W        W 8700   0.485   4.653   9.091
 4957W        W 8701   0.027   7.509   0.617
 4958W        W 8702   7.713   1.609  11.402
 4959W        W 8703   3.514   4.875   9.083
 4960W        W 8704   8.881   1.375   3.020
 4961W        W 8705   1.868   3.389   8.875
 4962W        W 8706   2.704   0.737   9.373
 4963W        W 8707   7.124   9.805   3.138
 4964W        W 8708   4.177  10.345   1.301
 4965W        W 8709   8.351   0.488   2.175
 4966W        W 8710   2.393   7.265   2.156
 4967W        W 8711   9.245   6.522  11.621
 4968W        W 8712  10.394   8.882  11.368
 4969W        W 8713   4.100   0.804  11.854
 4970W        W 8714   2.283   3.789   2.141
 4971W        W 8715   3.102   5.712   8.756
 4972W        W 8716   0.462   5.955   9.494
 4973W        W 8717   0.851   6.541   3.322
 4974W        W 8718   5.620   2.367   1.347
 4975W        W 8719   2.103   0.188   8.993
 4976W        W 8720   9.010   9.944   0.059
 4977W        W 8721   0.929   6.607   9.807
 4978W        W 8722  10.478   6.593   1.047
 4979W        W 8723   9.454   4.635  11.845
 4980W        W 8724   5.935   6.061  11.036
 4981W        W 8725   6.606   5.026   1.735
 4982W        W 8726   8.525   7.915  11.474
 4983W        W 8727   5.651   0.234   2.748
 4984W        W 8728   6.135   1.780   3.250
 4985W        W 8729   0.651   3.107   3.174
 4986W        W 8730   6.604  10.237  10.606
 4987W        W 8731   5.550   3.832   9.944
 4988W        W 8732   9.921   8.208   2.356
 4989W        W 8733   5.995   6.415   2.888
 4990W        W 8734   5.219  10.356   1.057
 4991W        W 8735   5.567   1.758  11.029
 4992W        W 8736   5.293   8.880   8.851
 4993W        W 8737   8.302   0.499  10.914
 4994W        W 8738   5.066   8.845   9.864
 4995W        W 8739   8.847   1.869  11.144
 4996W        W 8740   3.204  10.051   2.386
 4997W        W 8741   9.552   0.989  10.517
 4998W        W 8742   1.662   7.190   1.418
 4999W        W 8743   5.714   7.549   8.355
 5000W        W 8744   4.728   4.101  11.399
 5001W        W 8745   1.197  10.243   1.432
 5002W        W 8746   3.474  10.440   0.733
 5003W        W 8747   6.586   9.120   2.646
 5004W        W 8748   5.853  10.329   2.987
 5005W        W 8749   4.872   8.300   8.526
 5006W        W 8750   2.651   1.583   1.774
 5007W        W 8751   1.888   2.599   0.268
 5008W        W 8752   1.676   8.902   0.909
 5009W        W 8753   2.329   8.491   9.918
 5010W        W 8754   7.566   6.022  11.294
 5011W        W 8755   8.883   3.729  10.080
 5012W        W 8756   0.866   6.557  10.710
 5013W        W 8757   5.174   8.521   3.300
 5014W        W 8758   4.558   3.262   2.273
 5015W        W 8759   7.670   6.516   8.543
 5016W        W 8760   0.268   4.250  10.938
 5017W        W 8761   0.420   3.421   9.580
 5018W        W 8762   5.514   8.528  11.320
 5019W        W 8763   5.317   1.154   2.011
 5020W        W 8764   6.449   6.795   3.604
 5021W        W 8765   4.202   3.832   3.241
 5022W        W 8766   5.243   1.881  11.728
 5023W        W 8767   1.816   8.188   2.791
 5024W        W 8768   6.453   7.805   9.070
 5025W        W 8769   8.901   5.269   2.811
 5026W        W 8770  10.292   8.822  10.506
 5027W        W 8771   0.654   9.856   0.766
 5028W        W 8772   1.222   0.011   2.671
 5029W        W 8773   7.983   2.483  11.520
 5030W        W 8774   5.146   7.707   2.200
 5031W        W 8775   2.793   6.378   9.424
 5032W        W 8776   2.819   0.326   2.478
 5033W        W 8777   7.453   2.163   2.597
 5034W        W 8778   5.134   9.381   8.985
 5035W        W 8779   1.354   4.849   8.890
 5036W        W 8780   9.433   3.856   2.072
 5037W        W 8781   1.372   7.608  10.322
 5038W        W 8782   9.468   8.548  10.884
 5039W        W 8783   5.108   3.022   9.909
 5040W        W 8784   9.813   5.017   9.059
 5041W        W 8785   0.670   4.376   9.515
 5042W        W 8786   7.834   0.873   9.382
 5043W        W 8787   8.913   7.996   0.725
 5044W        W 8788   9.865   1.348  11.698
 5045W        W 8789   0.018   7.819  10.355
 5046W        W 8790   3.166   1.473   3.042
 5047W        W 8791   8.643   8.700  11.016
 5048W        W 8792  10.433   7.664  11.907
 5049W        W 8793   4.253   7.251  11.946
 5050W        W 8794   5.349   2.399   0.146
 5051W        W 8795   0.266   2.553  11.297
 5052W        W 8796   6.222   8.368   0.905
 5053W        W 8797   6.965   6.875   1.945
 5054W        W 8798   4.793   1.314   0.238
 5055W        W 8799   3.245   8.200   0.040
 5056W        W 8800   0.484   4.631   3.040
 5057W        W 8801   4.785   0.248   1.061
 5058W        W 8802   2.159   0.669  11.038
 5059W        W 8803   9.787   3.127   0.562
 5060W        W 8804   0.514   8.844   2.575
 5061W        W 8805   6.136   2.416   0.448
 5062W        W 8806   2.625   9.114  11.510
 5063W        W 8807   5.705   6.357   0.421
 5064W        W 8808   0.192   7.923  10.857
 5065W        W 8809   0.947   9.941  10.888
 5066W        W 8810   6.156   9.376   2.811
 5067W        W 8811   6.980   7.006   2.990
 5068W        W 8812  10.313   6.264  11.750
 5069W        W 8813   3.243   7.367  11.291
 5070W        W 8814   1.726   1.291   2.465
 5071W        W 8815   0.386   2.664   2.244
 5072W        W 8816   7.457   0.451   0.777
 5073W        W 8817  10.061   7.355   2.604
 5074W        W 8818   8.897   3.820   1.238
 5075W        W 8819   6.910   9.558   8.978
 5076W        W 8820   1.216   0.425  10.895
 5077W        W 8821   6.737   4.170   3.569
 5078W        W 8822   9.817   6.677  10.443
 5079W        W 8823   9.800   3.226   2.474
 5080W        W 8824   1.893   9.447   0.820
 5081W        W 8825   9.983   2.734  10.609
 5082W        W 8826   0.937  10.472  10.033
 5083W        W 8827   6.127   0.170   3.493
 5084W        W 8828   9.352   8.044   0.472
 5085W        W 8829   1.821  10.260  10.002
 5086W        W 8830   3.164   4.952  10.379
 5087W        W 8831   2.576   9.411  10.237
 5088W        W 8832   3.647   4.120  10.501
 5089W        W 8833   2.394   8.594   0.928
 5090W        W 8834   6.100   3.915   2.172
 5091W        W 8835   3.165   8.144  10.928
 5092W        W 8836  10.191   9.370   3.488
 5093W        W 8837   3.741   1.402   8.753
 5094W        W 8838   6.001   5.492   2.400
 5095W        W 8839   5.992   3.247   1.428
 5096W        W 8840   4.102   6.083  11.086
 5097W        W 8841   4.742   8.947  11.520
 5098W        W 8842   2.141   4.433   9.452
 5099W        W 8843   7.434   3.722   8.509
 5100W        W 8844   4.775   7.385   2.405
 5101W        W 8845   8.394   5.526   2.627
 5102W        W 8846   5.037   8.850  11.930
 5103W        W 8847   7.101   3.184   9.407
 5104W        W 8848   0.371   8.140   3.343
 5105W        W 8849   4.352   2.783  11.374
 5106W        W 8850   9.888   3.196   1.453
 5107W        W 8851   3.738   3.618   3.399
 5108W        W 8852   2.963   9.783   0.768
 5109W        W 8853   2.511   4.873   9.525
 5110W        W 8854   2.699   1.259   2.295
 5111W        W 8855   6.190   1.365  11.059
 5112W        W 8856   2.599   3.241  10.331
 5113W        W 8857   4.327   7.505   8.944
 5114W        W 8858   6.534   7.342   3.666
 5115W        W 8859   1.337   6.054   2.221
 5116W        W 8860   9.226   5.944  10.330
 5117W        W 8861   5.087   9.447   1.661
 5118W        W 8862   3.916   1.121   3.321
 5119W        W 8863   3.630   9.625   9.503
 5120W        W 8864   9.687   0.480   2.342
 5121W        W 8865   5.174   2.320  11.407
 5122W        W 8866   1.948   1.697   1.017
 5123W        W 8867   6.953   9.381   2.371
 5124W        W 8868   9.283  10.423   8.736
 5125W        W 8869   5.104   5.616   1.656
 5126W        W 8870   1.471   7.116   9.330
 5127W        W 8871   8.829   0.893   0.355
 5128W        W 8872   9.392   7.578   9.663
 5129W        W 8873   9.079   0.887   1.268
 5130W        W 8874   6.578   6.215   1.326
 5131W        W 8875   0.850   4.827  11.825
 5132W        W 8876   6.586   3.559  11.233
 5133W        W 8877   8.838   7.200   1.138
 5134W        W 8878   6.493   8.352  11.371
 5135W        W 8879   4.324   0.431   8.712
 5136W        W 8880   9.386   3.654  11.950
 5137W        W 8881   2.457   0.914   0.485
 5138W        W 8882   1.266   0.094   2.173
 5139W        W 8883   8.262  10.496   9.281
 5140W        W 8884   8.226   1.373   2.689
 5141W        W 8885   4.153   7.460   8.460
 5142W        W 8886   2.411   6.493  10.593
 5143W        W 8887   5.736   6.524   9.898
 5144W        W 8888   3.335   6.446   0.594
 5145W        W 8889   4.692   1.135   9.751
 5146W        W 8890   6.706   6.464  10.790
 5147W        W 8891   2.285   6.955  10.942
 5148W        W 8892   3.600   7.685   0.254
 5149W        W 8893   5.190   4.174  11.752
 5150W        W 8894   0.405   6.899   3.311
 5151W        W 8895   6.534   0.713  11.490
 5152W        W 8896   2.737   5.550   0.258
 5153W        W 8897   3.794   0.611   8.767
 5154W        W 8898   4.571   7.835   1.076
 5155W        W 8899   8.599   2.897  11.834
 5156W        W 8900   8.959   7.260   8.388
 5157W        W 8901   4.574   6.288   9.446
 5158W        W 8902  10.090  10.256   9.909
 5159W        W 8903   1.928   5.264  11.322
 5160W        W 8904  10.085   3.993   0.869
 5161W        W 8905   8.028   5.906   1.901
 5162W        W 8906   1.995  10.479   1.684
 5163W        W 8907   6.157   0.791   1.660
 5164W        W 8908   4.309   7.215   2.443
 5165W        W 8909   2.186   1.114   2.314
 5166W        W 8910   7.721   6.016   8.436
 5167W        W 8911   7.664   4.614   0.268
 5168W        W 8912   2.724   8.138   8.849
 5169W        W 8913   6.942   5.891   1.455
 5170W        W 8914   9.088   9.448   9.313
 5171W        W 8915   7.470   2.587   0.456
 5172W        W 8916   5.620   1.217   2.838
 5173W        W 8917   0.162   6.090  10.773
 5174W        W 8918   4.179   2.409  10.625
 5175W        W 8919   3.151   9.928   3.449
 5176W        W 8920   6.109   7.848   9.454
 5177W        W 8921   1.439   7.581   0.630
 5178W        W 8922   8.148   6.990  11.320
 5179W        W 8923   5.168   2.696  11.765
 5180W        W 8924   0.393   3.608  11.897
 5181W        W 8925   4.580   7.553   3.857
 5182W        W 8926   8.962   2.672   2.333
 5183W        W 8927   2.711   5.448  10.788
 5184W        W 8928   6.942   2.667   3.040
 5185W        W 8929   0.357   7.978  11.764
 5186W        W 8930  10.253   1.674   0.400
 5187W        W 8931   1.393   6.260   1.183
 5188W        W 8932   2.437   3.794   0.031
 5189W        W 8933   2.708   3.203   0.769
 5190W        W 8934   8.522   8.135   2.046
 5191W        W 8935   6.553   0.426   9.244
 5192W        W 8936   3.111   3.125  11.933
 5193W        W 8937   2.398   2.961  11.529
 5194W        W 8938   0.309   2.356   0.195
 5195W        W 8939   4.867   8.835   0.432
 5196W        W 8940   6.685   7.736   2.493
 5197W        W 8941   4.782   0.810  11.324
 5198W        W 8942   1.940   1.382  10.905
 5199W        W 8943   9.576   4.208  10.941
 5200W        W 8944   3.761   1.873  10.057
 5201W        W 8945   0.941  10.288  10.513
 5202W        W 8946   7.462   1.358   1.214
 5203W        W 8947   5.141   8.808  10.537
 5204W        W 8948   5.753   8.414   8.692
 5205W        W 8949   8.164   0.913   0.695
 5206W        W 8950   4.512   4.233   3.200
 5207W        W 8951   8.533  10.040   2.589
 5208W        W 8952  10.447   8.772   0.301
 5209W        W 8953   1.922   9.066   2.310
 5210W        W 8954   5.762   6.894  11.907
 5211W        W 8955   4.643   2.324   1.496
 5212W        W 8956   5.133   4.796   9.786
 5213W        W 8957   3.368   8.873  10.298
 5214W        W 8958   2.970   0.940   9.755
 5215W        W 8959   6.975   3.761  11.533
 5216W        W 8960   1.430   2.474   8.870
 5217W        W 8961   3.770   7.045   1.758
 5218W        W 8962  10.323   9.941   0.658
 5219W        W 8963   2.682  10.358   1.245
 5220W        W 8964   3.649   9.619   2.019
 5221W        W 8965   5.469   4.596  11.882
 5222W        W 8966   1.677   4.111   2.131
 5223W        W 8967  10.457   5.538   1.872
 5224W        W 8968   0.457   7.164   9.778
 5225W        W 8969   2.465   7.420   8.624
 5226W        W 8970   2.610   4.961  10.727
 5227W        W 8971   5.339   0.341   9.626
 5228W        W 8972   0.788   8.777  10.852
 5229W        W 8973   9.528   0.951   2.475
 5230W        W 8974   4.259   0.400   9.226
 5231W        W 8975   9.765   1.806   1.955
 5232W        W 8976   8.087   6.638   1.087
 5233W        W 8977   6.539   6.707  11.750
 5234W        W 8978   0.501   5.544   8.833
 5235W        W 8979   3.264   2.012   0.399
 5236W        W 8980   5.452   8.893  10.987
 5237W        W 8981   1.042   8.906   8.602
 5238W        W 8982   9.333   8.939  11.510
 5239W        W 8983   6.089   0.858   0.662
 5240W        W 8984   6.099   6.609   1.739
 5241W        W 8985   1.168   1.815   9.322
 5242W        W 8986   5.439   7.994   8.589
 5243W        W 8987   4.804   3.134   1.830
 5244W        W 8988  10.498   1.326   8.995
 5245W        W 8989   2.917   5.699   2.592
 5246W        W 8990   9.401   7.037   1.944
 5247W        W 8991   0.074   7.542   2.806
 5248W        W 8992   0.289   0.039   2.614
 5249W        W 8993   2.422   8.903  10.482
 5250W        W 8994   9.615   9.435   9.473
 5251W        W 8995   7.685   7.987   9.347
 5252W        W 8996   6.375   3.902   8.727
 5253W        W 8997   8.893   2.339  10.071
 5254W        W 8998   2.913   3.863   0.178
 5255W        W 8999   3.498   3.003   1.413
 5256W        W 9000   7.513   0.072   3.324
 5257W        W 9001   1.232   3.808   3.214
 5258W        W 9002   8.715   0.872   9.556
 5259W        W 9003   4.635   5.960   2.268
 5260W        W 9004   2.689   5.343   9.456
 5261W        W 9005   6.473   1.793  10.990
 5262W        W 9006   5.686   9.990  10.592
 5263W        W 9007   1.673   9.921   2.133
 5264W        W 9008   4.242   5.272   2.084
 5265W        W 9009   5.503   8.823  10.093
 5266W        W 9010   5.401   7.127   8.262
 5267W        W 9011   5.539   8.893  11.915
 5268W        W 9012   3.088   4.256   1.828
 5269W        W 9013   1.688   6.009   3.031
 5270W        W 9014   3.008   7.453   9.368
 5271W        W 9015   3.557   6.179   3.574
 5272W        W 9016   9.428   8.895   1.406
 5273W        W 9017   0.423  10.253   9.546
 5274W        W 9018   1.510   7.353   2.634
 5275W        W 9019   8.850   2.240   2.670
 5276W        W 9020   6.606   1.041   2.434
 5277W        W 9021   6.183  10.171   9.456
 5278W        W 9022   8.345   9.045  10.764
 5279W        W 9023   0.588   8.222   0.155
 5280W        W 9024   2.318   1.671   1.360
 5281W        W 9025  10.487   6.738   0.082
 5282W        W 9026   4.343   6.073   0.239
 5283W        W 9027   2.909   9.906   9.538
 5284W        W 9028   7.033   5.806   2.146
 5285W        W 9029   9.074   5.064  10.049
 5286W        W 9030  10.284   4.861   0.859
 5287W        W 9031   2.489   9.935   0.959
 5288W        W 9032   4.285   2.090   0.937
 5289W        W 9033   0.753   1.864   8.872
 5290W        W 9034   6.488   3.233   1.501
 5291W        W 9035   5.284   3.324   8.591
 5292W        W 9036   5.413   9.860   3.804
 5293W        W 9037   5.120   9.008   1.421
 5294W        W 9038   5.244   2.883   3.909
 5295W        W 9039   7.934   1.815   0.270
 5296W        W 9040   7.863   6.384   2.024
 5297W        W 9041   1.652   6.043  10.861
 5298W        W 9042   0.271   0.908   8.870
 5299W        W 9043   5.759   2.864   1.105
 5300W        W 9044   8.654   5.652   8.396
 5301W        W 9045   0.555   5.499   0.446
 5302W        W 9046   7.502   4.708   3.589
 5303W        W 9047   7.969   5.713   0.865
 5304W        W 9048   7.894   2.321   0.969
 5305W        W 9049   0.274  10.398  11.176
 5306W        W 9050   8.184   5.860   3.359
 5307W        W 9051   7.004   8.065  10.471
 5308W        W 9052   7.947  10.255   1.731
 5309W        W 9053   6.115  10.392   0.694
 5310W        W 9054   7.322   4.531   9.988
 5311W        W 9055   3.546   2.622   0.960
 5312W        W 9056   4.721   2.278   3.425
 5313W        W 9057   3.907   3.941   2.418
 5314W        W 9058   2.278   7.092  10.072
 5315W        W 9059   7.476   9.996   9.749
 5316W        W 9060   1.333   1.892   2.505
 5317W        W 9061   5.790   4.650   1.896
 5318W        W 9062   9.493   2.657  11.468
 5319W        W 9063   3.192   3.502   0.740
 5320W        W 9064   9.514   3.877   2.925
 5321W        W 9065   5.746   4.662   2.413
 5322W        W 9066   0.498   3.812   2.560
 5323W        W 9067   4.139   7.315  11.463
 5324W        W 9068   8.416   4.302   2.327
 5325W        W 9069   0.010   5.688   0.697
 5326W        W 9070   0.898   0.140   9.550
 5327W        W 9071   8.491   5.732  10.069
 5328W        W 9072  10.488   2.618  10.457
 5329W        W 9073   5.578   1.497   1.713
 5330W        W 9074   8.894   6.506   8.746
 5331W        W 9075   7.913   4.933   1.091
 5332W        W 9076   7.567   4.431   4.003
 5333W        W 9077   3.785   5.400   2.232
 5334W        W 9078  10.289   1.372  11.966
 5335W        W 9079   8.985   8.391   2.060
 5336W        W 9080   5.554   3.937   9.071
 5337W        W 9081   8.086   9.364   1.354
 5338W        W 9082   8.918   4.190   9.569
 5339W        W 9083   9.061   8.596   9.947
 5340W        W 9084   3.759   3.108   8.731
 5341W        W 9085   7.015   6.948   2.472
 5342W        W 9086   5.434  10.001   8.598
 5343W        W 9087   7.650   9.281  11.450
 5344W        W 9088   9.214   6.995   1.463
 5345W        W 9089   0.159   5.034   2.878
 5346W        W 9090   6.751   6.561   9.775
 5347W        W 9091   9.805   9.298   3.124
 5348W        W 9092   9.556   6.937   2.592
 5349W        W 9093   4.212   6.375  10.631
 5350W        W 9094   3.770   0.508   1.983
 5351W        W 9095   5.819   3.273   8.551
 5352W        W 9096   8.543   4.322   0.298
 5353W        W 9097   8.590   5.199  10.939
 5354W        W 9098   0.268   5.107   9.290
 5355W        W 9099   5.519   6.174   9.236
 5356W        W 9100   9.346   0.004   2.504
 5357W        W 9101   7.170   8.957   1.501
 5358W        W 9102   9.452   4.693   3.296
 5359W        W 9103   5.050   6.011  10.583
 5360W        W 9104   1.410   4.611   1.653
 5361W        W 9105   9.200  10.470   1.197
 5362W        W 9106   0.262   3.192   1.411
 5363W        W 9107   6.994   0.705  11.831
 5364W        W 9108   0.290   3.663   1.194
 5365W        W 9109   0.885   6.532  11.927
 5366W        W 9110   0.514   3.582   0.742
 5367W        W 9111   0.556   9.622  11.265
 5368W        W 9112   3.335   1.817   9.299
 5369W        W 9113   1.422  10.478  10.756
 5370W        W 9114   4.977   1.966   1.451
 5371W        W 9115   4.888   8.072   3.177
 5372W        W 9116   3.210   2.287   9.118
 5373W        W 9117   5.398   5.613  10.499
 5374W        W 9118  10.388   3.997   1.302
 5375W        W 9119   7.583   5.324   0.885
 5376W        W 9120   1.985   6.370  10.274
 5377W        W 9121   6.993   4.702  10.891
 5378W        W 9122   0.778   9.964   1.484
 5379W        W 9123   5.636   3.621   9.471
 5380W        W 9124  10.322   0.347  11.400
 5381W        W 9125   6.483   1.153   1.421
 5382W        W 9126   3.717   8.604   9.457
 5383W        W 9127   6.439   0.932  10.999
 5384W        W 9128   0.979   1.855   0.778
 5385W        W 9129   1.299   2.686   9.827
 5386W        W 9130   6.148   6.404   0.696
 5387W        W 9131   2.777   6.527   1.195
 5388W        W 9132   3.042   3.222   3.616
 5389W        W 9133  10.332   1.288  11.454
 5390W        W 9134   9.174   6.211   0.478
 5391W        W 9135  10.026   1.108   3.066
 5392W        W 9136   8.561   5.218  10.069
 5393W        W 9137   3.734   7.384  11.022
 5394W        W 9138   8.005   0.872  11.753
 5395W        W 9139   8.872   4.059   2.155
 5396W        W 9140   7.911  10.274   3.179
 5397W        W 9141   3.605  10.428   9.809
 5398W        W 9142   0.886   7.185  11.998
 5399W        W 9143   7.443   8.398   9.560
 5400W        W 9144   3.677   4.577   9.784
 5401W        W 9145   9.010   1.364  11.214
 5402W        W 9146   7.638   8.658   2.644
 5403W        W 9147   1.888   6.865   0.966
 5404W        W 9148   3.840   0.379  10.302
 5405W        W 9149   9.138   3.995  10.982
 5406W        W 9150   9.819   9.653  10.291
 5407W        W 9151   5.017   6.018   2.933
 5408W        W 9152   3.713   9.198   0.519
 5409W        W 9153   8.471   7.918   0.466
 5410W        W 9154   9.752   4.603   9.378
 5411W        W 9155   7.530   2.452   2.184
 5412W        W 9156   7.819   4.373  11.334
 5413W        W 9157   8.457   4.774   2.136
 5414W        W 9158   8.945   1.821   2.346
 5415W        W 9159   1.595   4.201   9.440
 5416W        W 9160   5.550   5.379   1.759
 5417W        W 9161   5.430   4.174   0.259
 5418W        W 9162   8.978   1.305  10.705
 5419W        W 9163   3.085   6.879  11.278
 5420W        W 9164   9.787   7.763   2.777
 5421W        W 9165   4.182   3.554   1.183
 5422W        W 9166   1.323   4.820  10.127
 5423W        W 9167   2.345   9.190   0.223
 5424W        W 9168   5.675   2.721   0.406
 5425W        W 9169   3.117   5.194   0.952
 5426W        W 9170   8.773   6.312   0.814
 5427W        W 9171   7.647  10.035   2.790
 5428W        W 9172   1.820   5.470   9.686
 5429W        W 9173   8.739   8.311   3.600
 5430W        W 9174   9.214   0.294  11.937
 5431W        W 9175   4.186   1.219   2.836
 5432W        W 9176   0.754   9.989   0.264
 5433W        W 9177   7.927   0.488   0.522
 5434W        W 9178   1.848  10.402  11.011
 5435W        W 9179   0.377   2.440   2.706
 5436W        W 9180   4.306   5.514   0.936
 5437W        W 9181   5.507   8.867   9.589
 5438W        W 9182   5.627   5.447   8.964
 5439W        W 9183   3.412   4.076   2.263
 5440W        W 9184   6.606   7.853  11.254
 5441W        W 9185   7.789   5.198  10.507
 5442W        W 9186   3.241   9.506   1.155
 5443W        W 9187   1.664   0.241   9.989
 5444W        W 9188   4.934   5.775  11.407
 5445W        W 9189   6.446   8.097   3.280
 5446W        W 9190   2.336   4.641   1.671
 5447W        W 9191   9.981   0.959  11.998
 5448W        W 9192   4.970   7.587  11.584
 5449W        W 9193   5.367   1.676   1.296
 5450W        W 9194   2.830   3.392   1.573
 5451W        W 9195   1.390   0.373  10.410
 5452W        W 9196   4.670   8.083  10.530
 5453W        W 9197   1.615   3.018   0.246
 5454W        W 9198   5.546   8.297  10.875
 5455W        W 9199   7.621   7.409   1.697
 5456W        W 9200   2.644   8.461   2.351
 5457W        W 9201   1.828   2.198   0.962
 5458W        W 9202   3.381   3.838   0.383
 5459W        W 9203   8.496   2.307   9.254
 5460W        W 9204   1.631   1.335  11.330
 5461W        W 9205   3.573   1.880   3.020
 5462W        W 9206   1.147   9.547  10.441
 5463W        W 9207   1.811   0.085   8.563
 5464W        W 9208   0.171   9.200  10.469
 5465W        W 9209   3.876  10.349   2.661
 5466W        W 9210   4.425   7.599   2.738
 5467W        W 9211   0.709   3.319   1.156
 5468W        W 9212   3.655   5.706   1.716
 5469W        W 9213   4.081   9.357   9.371
 5470W        W 9214   4.071   7.506  10.627
 5471W        W 9215   1.968   1.431   3.312
 5472W        W 9216   4.969  10.000   3.458
 5473W        W 9217   0.218   7.380   2.313
 5474W        W 9218   1.805   5.463   2.174
 5475W        W 9219   4.688   0.642   9.046
 5476W        W 9220   0.531   3.854   3.057
 5477W        W 9221   4.315   5.143   9.566
 5478W        W 9222   1.855   2.880   8.351
 5479W        W 9223   8.177   5.042  11.798
 5480W        W 9224   8.077   8.642   0.765
 5481W        W 9225   3.230   7.351  10.369
 5482W        W 9226   7.008   0.773   3.199
 5483W        W 9227   0.713   3.087  10.921
 5484W        W 9228  10.454   9.430   2.002
 5485W        W 9229   6.147   9.098   3.411
 5486W        W 9230   1.088   0.458   9.162
 5487W        W 9231   6.184   6.197   2.052
 5488W        W 9232   4.058   9.880   3.459
 5489W        W 9233   7.033   4.585   3.757
 5490W        W 9234   9.221   3.413   9.779
 5491W        W 9235   4.579   4.148  10.903
 5492W        W 9236   5.051   2.385   9.509
 5493W        W 9237   1.214   4.220  11.032
 5494W        W 9238   8.603   7.050   8.726
 5495W        W 9239   9.338   0.861   8.933
 5496W        W 9240   8.911   1.754   8.802
 5497W        W 9241   5.069   6.112   9.552
 5498W        W 9242   6.120   1.958   0.241
 5499W        W 9243   0.625   6.355   2.894
 5500W        W 9244   4.220   3.624  11.733
 5501W        W 9245   3.296   6.174   8.590
 5502W        W 9246   0.673   8.857   9.085
 5503W        W 9247   6.297   1.415   8.395
 5504W        W 9248   4.575   9.261   0.461
 5505W        W 9249   0.962   1.762   0.110
 5506W        W 9250  10.389   4.498   2.541
 5507W        W 9251   8.630   7.562   0.828
 5508W        W 9252   9.369   1.536   9.527
 5509W        W 9253   9.877   1.354  11.199
 5510W        W 9254   4.289   3.119   2.731
 5511W        W 9255   2.886   2.148  10.338
 5512W        W 9256   4.275   5.226   1.407
 5513W        W 9257   7.621   8.805   0.577
 5514W        W 9258   4.755   1.723  10.374
 5515W        W 9259   6.178   7.535   8.101
 5516W        W 9260   9.280   6.228   0.964
 5517W        W 9261   8.460   6.066   2.644
 5518W        W 9262   3.213   7.128   1.177
 5519W        W 9263   2.795   9.740   2.252
 5520W        W 9264   9.434   3.561   2.504
 5521W        W 9265   6.434   2.301  10.974
 5522W        W 9266   6.171   9.662  11.837
 5523W        W 9267   6.463   2.156  11.456
 5524W        W 9268   5.960   4.652  11.750
 5525W        W 9269   7.201   6.734   8.379
 5526W        W 9270   7.134   1.966  11.497
 5527W        W 9271   1.453   7.924   1.915
 5528W        W 9272   9.074   7.000  11.732
 5529W        W 9273   9.177   2.262  10.945
 5530W        W 9274   0.438   6.936  11.887
 5531W        W 9275   7.433   8.012   2.277
 5532W        W 9276   1.207  10.021   0.503
 5533W        W 9277   0.440   7.641   1.866
 5534W        W 9278   3.404   3.651  10.911
 5535W        W 9279   5.747  10.351  10.970
 5536W        W 9280   2.636   8.819  11.957
 5537W        W 9281   1.336   0.976   2.571
 5538W        W 9282   4.572  10.387   3.363
 5539W        W 9283   9.117   8.902  11.056
 5540W        W 9284   2.204   2.503   9.231
 5541W        W 9285   9.365   8.201   3.059
 5542W        W 9286   6.396   5.347  10.420
 5543W        W 9287   6.558   1.741   0.386
 5544W        W 9288   3.268   2.363  10.637
 5545W        W 9289   5.660   8.353   9.949
 5546W        W 9290   7.439   1.462   2.692
 5547W        W 9291   7.917   8.004  10.226
 5548W        W 9292  10.267   2.826   9.473
 5549W        W 9293   1.669   5.026  10.957
 5550W        W 9294   7.224   9.690   3.739
 5551W        W 9295   1.258   4.195   0.938
 5552W        W 9296   9.752   2.808   9.566
 5553W        W 9297   0.862   0.426   1.438
 5554W        W 9298   6.531   0.773   8.839
 5555W        W 9299   4.758  10.096   1.692
 5556W        W 9300   7.535   9.052   3.497
 5557W        W 9301   9.139   1.169   3.390
 5558W        W 9302   8.016   8.024   2.270
 5559W        W 9303   5.606   2.646   2.449
 5560W        W 9304   1.959   9.095   3.324
 5561W        W 9305   7.155   9.739  11.966
 5562W        W 9306   0.687   0.055  11.426
 5563W        W 9307   8.516   3.211   1.383
 5564W        W 9308   9.025   6.055  11.466
 5565W        W 9309   8.326   2.453  10.762
 5566W        W 9310   3.261   7.302   0.216
 5567W        W 9311   8.302   7.147   0.731
 5568W        W 9312   4.195   0.370   1.714
 5569W        W 9313   0.787   4.789   1.510
 5570W        W 9314   0.968  10.151   8.563
 5571W        W 9315   3.404   9.992   0.968
 5572W        W 9316   5.653   4.120   1.205
 5573W        W 9317   7.368   3.155  10.683
 5574W        W 9318   3.629   3.518   2.449
 5575W        W 9319   8.102   9.876   3.490
 5576W        W 9320   9.821   4.720   2.398
 5577W        W 9321   6.537   6.077   0.651
 5578W        W 9322   9.986   4.486  10.993
 5579W        W 9323  10.324   6.115  11.204
 5580W        W 9324   4.206   0.860   8.961
 5581W        W 9325   1.813   7.361   0.913
 5582W        W 9326   4.259   9.493   1.083
 5583W        W 9327   0.877   2.262  11.980
 5584W        W 9328   5.636   7.244   2.823
 5585W        W 9329   4.727   6.464  10.809
 5586W        W 9330   5.554   2.696  11.393
 5587W        W 9331   7.483   8.952   1.051
 5588W        W 9332   2.822   9.060   0.380
 5589W        W 9333   8.100   4.206   3.152
 5590W        W 9334   8.103   5.105   2.591
 5591W        W 9335   6.564   2.655  11.354
 5592W        W 9336   8.102   4.979   1.578
 5593W        W 9337   1.409   1.652   1.211
 5594W        W 9338   9.757   2.237   2.228
 5595W        W 9339   8.386   2.433  10.266
 5596W        W 9340   3.705   0.436   9.809
 5597W        W 9341   8.877   3.168   2.491
 5598W        W 9342   4.069   9.452   8.439
 5599W        W 9343   7.520   1.941   2.146
 5600W        W 9344   8.940   2.641   0.242
 5601W        W 9345   7.064   6.941  11.720
 5602W        W 9346   5.058   2.365  10.495
 5603W        W 9347   5.993   7.920   2.418
 5604W        W 9348   0.025   2.405   0.963
 5605W        W 9349   6.247   4.647   1.609
 5606W        W 9350   2.441   3.376   2.950
 5607W        W 9351   1.939   4.494   3.289
 5608W        W 9352   7.696   6.444   3.415
 5609W        W 9353   7.071  10.187  10.914
 5610W        W 9354   2.208  10.258   9.258
 5611W        W 9355   7.911   0.277   9.539
 5612W        W 9356   2.969   8.517   3.255
 5613W        W 9357   3.122   0.684  10.924
 5614W        W 9358   2.438  10.253   1.680
 5615W        W 9359   8.563   9.358   9.093
 5616W        W 9360   0.723  10.077  11.330
 5617W        W 9361   7.586   2.815  10.363
 5618W        W 9362   8.560   6.427   9.583
 5619W        W 9363   6.957  10.428   1.221
 5620W        W 9364   4.544   0.316  11.030
 5621W        W 9365   0.370   4.513   1.430
 5622W        W 9366   0.713  10.248  11.824
 5623W        W 9367   2.747   8.560   9.182
 5624W        W 9368   3.070   4.300   0.359
 5625W        W 9369   4.579   0.111   1.519
 5626W        W 9370   0.403   9.382   1.783
 5627W        W 9371   0.984   4.645   9.188
 5628W        W 9372  10.174   2.237  10.690
 5629W        W 9373   7.021   9.883   9.974
 5630W        W 9374   4.618   7.213  11.592
 5631W        W 9375   5.550   3.068  10.629
 5632W        W 9376  10.297   1.552   1.309
 5633W        W 9377   4.091   2.596   0.956
 5634W        W 9378   0.884   2.178   3.373
 5635W        W 9379   1.749   0.739  11.403
 5636W        W 9380   3.185   8.701  11.944
 5637W        W 9381   5.792   8.079   4.073
 5638W        W 9382   8.438   8.498   1.247
 5639W        W 9383   8.629   5.293  11.801
 5640W        W 9384   2.260   4.539  11.663
 5641W        W 9385   9.367   4.227  10.481
 5642W        W 9386   2.406   2.862   8.493
 5643W        W 9387   5.605   7.553   9.373
 5644W        W 9388   6.510   3.423   1.028
 5645W        W 9389   8.072   1.654   9.795
 5646W        W 9390   3.284   3.284   1.770
 5647W        W 9391   4.844  10.341   0.713
 5648W        W 9392   1.790   4.694   0.940
 5649W        W 9393   2.618   4.225   2.835
 5650W        W 9394   1.393   1.949   8.869
 5651W        W 9395   4.705   0.426   2.425
 5652W        W 9396   5.803   5.983   3.123
 5653W        W 9397   1.765   4.359  11.765
 5654W        W 9398   4.708   8.027  11.080
 5655W        W 9399   0.857   5.723  10.242
 5656W        W 9400   0.422  10.219  10.406
 5657W        W 9401   2.367   6.990   1.723
 5658W        W 9402   9.774   8.599  10.443
 5659W        W 9403   3.840  10.028   1.678
 5660W        W 9404   5.095   2.578   2.709
 5661W        W 9405   5.196   1.627   8.712
 5662W        W 9406   8.303   0.729   3.131
 5663W        W 9407   6.962   1.153   1.936
 5664W        W 9408   9.107   2.203  11.988
 5665W        W 9409   2.316   9.444   2.259
 5666W        W 9410   3.414   1.007   8.722
 5667W        W 9411   5.310   8.479   1.495
 5668W        W 9412   2.483   6.151   0.461
 5669W        W 9413   3.098   0.795  11.924
 5670W        W 9414   7.450   0.637  11.384
 5671W        W 9415   0.528   6.056   2.184
 5672W        W 9416   7.348   6.113   3.216
 5673W        W 9417   5.637   4.095  10.972
 5674W        W 9418   4.367   8.575   1.317
 5675W        W 9419  10.374   7.028  11.237
 5676W        W 9420   5.892   7.087  10.457
 5677W        W 9421   4.993   7.995   0.831
 5678W        W 9422   6.445   3.652   9.920
 5679W        W 9423   1.703   3.542   9.339
 5680W        W 9424   2.757   1.946   0.405
 5681W        W 9425   2.875   6.956   9.400
 5682W        W 9426   0.888   6.634   8.942
 5683W        W 9427   7.973   2.677   2.342
 5684W        W 9428   4.024   2.647   2.713
 5685W        W 9429   0.903   6.198   2.473
 5686W        W 9430  10.290   7.912   0.405
 5687W        W 9431   8.547   0.292   3.269
 5688W        W 9432   0.144   0.815   3.339
 5689W        W 9433   3.293   0.402   3.608
 5690W        W 9434   4.624   4.097   7.877
 5691W        W 9435   7.365   6.538   0.316
 5692W        W 9436   3.228   9.984   2.935
 5693W        W 9437   6.907   9.827   2.653
 5694W        W 9438   7.646   1.851   2.953
 5695W        W 9439  10.412   8.901   9.682
 5696W        W 9440   3.819   2.759  10.556
 5697W        W 9441   9.369   9.090   0.032
 5698W        W 9442  10.440   2.653   8.637
 5699W        W 9443   8.859   5.827   0.326
 5700W        W 9444   5.004   0.829   2.643
 5701W        W 9445   6.618   6.456   1.800
 5702W        W 9446   8.956   7.431   1.576
 5703W        W 9447   5.359   2.763   3.422
 5704W        W 9448  10.037   0.889   9.614
 5705W        W 9449   2.410   5.676   3.186
 5706W        W 9450   6.449   1.135   1.947
 5707W        W 9451   2.678   8.414   2.864
 5708W        W 9452   7.877   7.440  11.515
 5709W        W 9453   6.196   2.035   2.817
 5710W        W 9454   4.165   7.135   1.456
 5711W        W 9455   8.896   8.923   3.331
 5712W        W 9456   3.392   2.676   2.539
 5713W        W 9457   2.928   1.093   8.291
 5714W        W 9458   9.297   3.034   9.410
 5715W        W 9459   8.820   7.524   3.068
 5716W        W 9460   5.149   5.252   9.058
 5717W        W 9461   9.735   5.597  11.674
 5718W        W 9462  10.060   2.013   3.201
 5719W        W 9463  10.476   2.756   2.603
 5720W        W 9464   6.425   6.054  10.851
 5721W        W 9465   7.310   9.931   8.585
 5722W        W 9466   8.611   4.496   0.793
 5723W        W 9467   4.196   3.121   0.893
 5724W        W 9468   4.373   9.521   2.807
 5725W        W 9469   6.151   8.554   3.383
 5726W        W 9470   7.399  10.367   8.815
 5727W        W 9471   9.381   7.942   0.973
 5728W        W 9472   4.746   4.528   9.074
 5729W        W 9473   2.873   6.692  10.297
 5730W        W 9474   3.566   2.395   0.485
 5731W        W 9475   1.415   8.633   0.135
 5732W        W 9476  10.045   6.481   0.133
 5733W        W 9477   6.202  10.043  10.880
 5734W        W 9478   1.700   8.311   3.601
 5735W        W 9479   4.584   9.075   1.355
 5736W        W 9480   9.042   9.104   0.450
 5737W        W 9481   7.395   3.235   1.364
 5738W        W 9482   5.927   2.604   9.415
 5739W        W 9483   3.674   6.264   8.944
 5740W        W 9484   8.020   2.877   9.723
 5741W        W 9485   0.233   3.036  11.421
 5742W        W 9486   2.111   3.436  10.167
 5743W        W 9487   0.882   2.378  11.445
 5744W        W 9488   1.826   3.383   1.030
 5745W        W 9489   1.731   4.156   1.122
 5746W        W 9490   9.733   4.286   2.118
 5747W        W 9491   1.011   0.542   3.246
 5748W        W 9492   2.626   5.865   8.582
 5749W        W 9493   6.137   1.722   8.800
 5750W        W 9494   9.448   5.471   8.860
 5751W        W 9495   4.084   0.895   2.430
 5752W        W 9496   2.369   4.231   2.383
 5753W        W 9497   8.917   9.952   9.532
 5754W        W 9498   8.707   2.373  11.072
 5755W        W 9499   6.014   3.841   9.235
 5756W        W 9500   1.567   0.729   3.134
 5757W        W 9501   1.450   4.609   2.175
 5758W        W 9502   2.258   2.332  10.643
 5759W        W 9503   6.157   9.378  10.017
 5760W        W 9504   8.986   8.869   2.278
 5761W        W 9505   9.399   7.297  11.490
 5762W        W 9506   1.139   7.935   9.994
 5763W        W 9507   9.282   5.055   0.749
 5764W        W 9508   3.731   3.624   0.937
 5765W        W 9509   9.897   9.532   2.114
 5766W        W 9510   9.598   4.842   3.791
 5767W        W 9511   6.919   6.552   3.747
 5768W        W 9512   9.477   4.822   2.786
 5769W        W 9513   3.332   3.219   9.591
 5770W        W 9514   7.453   2.316   3.087
 5771W        W 9515   4.082   8.245  11.777
 5772W        W 9516   8.963   7.498   8.854
 5773W        W 9517   2.554   0.744  10.065
 5774W        W 9518   9.432   9.102   2.842
 5775W        W 9519   0.217   9.561   2.768
 5776W        W 9520   8.393   6.240  10.041
 5777W        W 9521   9.998   4.528   8.935
 5778W        W 9522   8.409   7.011   1.869
 5779W        W 9523  10.296   4.080   1.854
 5780W        W 9524   1.806   0.801   2.678
 5781W        W 9525   1.062   9.997   1.016
 5782W        W 9526   5.826   0.315   9.713
 5783W        W 9527   3.700   2.242   2.668
 5784W        W 9528   2.368   6.228   1.312
 5785W        W 9529   2.271   2.987   9.371
 5786W        W 9530   9.741   7.663  10.640
 5787W        W 9531   4.591   1.342   1.575
 5788W        W 9532   2.413   9.373  10.739
 5789W        W 9533   9.368   5.838   2.702
 5790W        W 9534   9.439   0.281   1.533
 5791W        W 9535   5.926   6.867   0.745
 5792W        W 9536   7.583   4.583   8.630
 5793W        W 9537   3.131   7.035   9.977
 5794W        W 9538   1.857   9.464   1.978
 5795W        W 9539   5.571   9.929   2.203
 5796W        W 9540   9.113   7.210   0.195
 5797W        W 9541   5.128   5.573   2.658
 5798W        W 9542   6.529   0.309  10.456
 5799W        W 9543   2.267   4.959  10.314
 5800W        W 9544   8.536   8.383   0.691
 5801W        W 9545   9.858   2.657   0.400
 5802W        W 9546   9.588   0.770   1.380
 5803W        W 9547   8.333   0.492  11.793
 5804W        W 9548   7.543   0.575  10.427
 5805W        W 9549   8.184   8.010   9.304
 5806W        W 9550   2.255   0.195  10.897
 5807W        W 9551   2.318   1.588   2.188
 5808W        W 9552   1.859   9.591   3.461
 5809W        W 9553   1.163   9.080  10.680
 5810W        W 9554   6.458   7.807  10.305
 5811W        W 9555   3.588   5.095   0.211
 5812W        W 9556   8.048   6.954  10.809
 5813W        W 9557   6.524   3.234   9.136
 5814W        W 9558   9.049   4.027   8.688
 5815W        W 9559   4.185   5.727   2.333
 5816W        W 9560   0.772   7.483   3.113
 5817W        W 9561   0.690   2.134   0.450
 5818W        W 9562   7.573   1.852   1.141
 5819W        W 9563   3.264   4.206   3.561
 5820W        W 9564   5.918   8.035   8.382
 5821W        W 9565   9.600   5.056  10.055
 5822W        W 9566   8.679   5.788   3.538
 5823W        W 9567   4.891   9.506   9.954
 5824W        W 9568   9.746   3.335  10.183
 5825W        W 9569   4.480   1.839   1.378
 5826W        W 9570   4.280   0.674  11.314
 5827W        W 9571   4.141   7.745  11.796
 5828W        W 9572   2.568   1.698   9.473
 5829W        W 9573   8.108   4.663   9.429
 5830W        W 9574   0.463   5.575   2.421
 5831W        W 9575   6.421   7.445  11.700
 5832W        W 9576   3.258   9.501   3.179
 5833W        W 9577   0.864   8.323   9.067
 5834W        W 9578   8.497   9.896   1.013
 5835W        W 9579   9.067   5.022  11.837
 5836W        W 9580   8.160   4.264   9.107
 5837W        W 9581   3.488   8.442  10.021
 5838W        W 9582   9.455   5.843   9.560
 5839W        W 9583   9.625   9.371   1.428
 5840W        W 9584   6.036   3.003   2.833
 5841W        W 9585   5.751   7.823  11.752
 5842W        W 9586   1.465   3.238  11.340
 5843W        W 9587   9.139   6.632   2.144
 5844W        W 9588   5.224   1.904   0.262
 5845W        W 9589   0.726   4.260   2.723
 5846W        W 9590  10.152   9.085  10.919
 5847W        W 9591   0.395   0.307   9.546
 5848W        W 9592   3.194   7.145   2.625
 5849W        W 9593   7.845   6.939   1.900
 5850W        W 9594   9.096   0.283   3.186
 5851W        W 9595   8.933   3.680   2.493
 5852W        W 9596   4.071   0.922   9.510
 5853W        W 9597   4.480   7.186  10.516
 5854W        W 9598   3.335   3.635  11.913
 5855W        W 9599   2.768   9.845   2.745
 5856W        W 9600   3.648   9.813   3.186
 5857W        W 9601   6.418   9.590   8.805
 5858W        W 9602   3.150   9.770   0.279
 5859W        W 9603   0.195   8.051   1.683
 5860W        W 9604   4.400   5.717   2.793
 5861W        W 9605   6.191   1.469   3.644
 5862W        W 9606   1.849   7.768  10.424
 5863W        W 9607   9.345   2.516   9.431
 5864W        W 9608   7.932   7.568   8.581
 5865W        W 9609   2.641   6.401   4.109
 5866W        W 9610   5.483   5.514   2.254
 5867W        W 9611   6.080  10.173   3.684
 5868W        W 9612   3.186   9.381   2.169
 5869W        W 9613   0.249   5.439  11.814
 5870W        W 9614  10.432   2.700   3.501
 5871W        W 9615   5.408  10.392   2.433
 5872W        W 9616   1.027   0.904   2.179
 5873W        W 9617   0.828   3.578   9.868
 5874W        W 9618   8.316   1.398   2.197
 5875W        W 9619   3.785   4.128   3.253
 5876W        W 9620   8.770  10.343   1.425
 5877W        W 9621   4.080   6.229   2.394
 5878W        W 9622   7.519   3.134   8.646
 5879W        W 9623   4.125   4.113   8.667
 5880W        W 9624   6.939   8.948  10.970
 5881W        W 9625   5.456   2.683   9.661
 5882W        W 9626   3.192   9.334   9.537
 5883W        W 9627   8.920   7.934  11.147
 5884W        W 9628   6.471   5.168   9.876
 5885W        W 9629   1.191  10.103   2.287
 5886W        W 9630   1.180   6.680   9.358
 5887W        W 9631   6.503   7.534   9.566
 5888W        W 9632   8.556   3.048   0.889
 5889W        W 9633   7.386   4.994  10.727
 5890W        W 9634  10.284   2.300   3.758
 5891W        W 9635   3.072   7.134   3.156
 5892W        W 9636   7.147   4.707   2.899
 5893W        W 9637  10.301   6.559   0.564
 5894W        W 9638   0.372   8.464   0.840
 5895W        W 9639   2.030   8.694   3.638
 5896W        W 9640   7.022   7.508   2.884
 5897W        W 9641   6.064  10.058   2.051
 5898W        W 9642   1.650   8.989  11.843
 5899W        W 9643   4.831   6.973  10.842
 5900W        W 9644   0.566   3.130   9.994
 5901W        W 9645   0.246   8.536   1.839
 5902W        W 9646   5.138   3.673  11.651
 5903W        W 9647   5.670   2.822  11.867
 5904W        W 9648   2.285   6.015  11.267
 5905W        W 9649   4.703   5.561  10.710
 5906W        W 9650   4.281   3.361   0.196
 5907W        W 9651   5.446   9.608   9.318
 5908W        W 9652   3.879   5.262   1.732
 5909W        W 9653   4.163   7.482   3.553
 5910W        W 9654   4.116   7.904   9.208
 5911W        W 9655   0.836   1.888  11.627
 5912W        W 9656   5.538   2.920  10.130
 5913W        W 9657   3.464   2.194  11.895
 5914W        W 9658   9.123   7.204   9.918
 5915W        W 9659   3.848   7.144   9.370
 5916W        W 9660   6.724   8.019   1.532
 5917W        W 9661   6.183   9.352   0.827
 5918W        W 9662   0.983   7.445   0.418
 5919W        W 9663   8.604   8.686   0.288
 5920W        W 9664   2.680  10.423   0.096
 5921W        W 9665   8.798   3.299  10.560
 5922W        W 9666   1.257   7.754  11.784
 5923W        W 9667   7.376   5.600   2.602
 5924W        W 9668   8.363  10.208   9.777
 5925W        W 9669   6.697  10.479   3.020
 5926W        W 9670   5.576   9.145   9.177
 5927W        W 9671   3.985   0.623   3.428
 5928W        W 9672   2.084   1.114  11.305
 5929W        W 9673   3.927  10.244   0.818
 5930W        W 9674   6.815   7.920   9.422
 5931W        W 9675   8.823   5.041  11.392
 5932W        W 9676   6.128   0.861   2.267
 5933W        W 9677  10.463   3.732   2.665
 5934W        W 9678  10.011   0.944   2.202
 5935W        W 9679   9.383   1.643   8.606
 5936W        W 9680   2.755   4.071   8.966
 5937W        W 9681   2.781   5.079   0.512
 5938W        W 9682   0.841   3.139  10.430
 5939W        W 9683   8.965   6.423  10.696
 5940W        W 9684   4.770   8.978   3.383
 5941W        W 9685   0.847   2.297  10.516
 5942W        W 9686   0.646   9.749   2.959
 5943W        W 9687   7.518  10.479  10.826
 5944W        W 9688   2.569   0.810   1.009
 5945W        W 9689   0.717   8.844   3.065
 5946W        W 9690   1.836   7.404   3.052
 5947W        W 9691  10.367   0.449   9.493
 5948W        W 9692   2.835   0.350  10.291
 5949W        W 9693   9.010   9.791   2.614
 5950W        W 9694   6.111   8.472   9.057
 5951W        W 9695   5.569   5.373  11.381
 5952W        W 9696   2.295   2.378   8.730
 5953W        W 9697   0.428  10.490   9.978
 5954W        W 9698   2.803   3.156   9.426
 5955W        W 9699   5.052   1.812  11.265
 5956W        W 9700   5.756   5.538  11.826
 5957W        W 9701   2.223   0.282   2.336
 5958W        W 9702   7.529   6.538   2.955
 5959W        W 9703   5.208   9.216  10.225
 5960W        W 9704   5.559   5.591   9.456
 5961W        W 9705   6.993   8.420  11.453
 5962W        W 9706   7.045   1.660   9.007
 5963W        W 9707   5.595   1.249   9.767
 5964W        W 9708   2.342   6.910  11.984
 5965W        W 9709   7.522   9.410  11.928
 5966W        W 9710   0.810   3.554   3.356
 5967W        W 9711   4.023   3.572  10.023
 5968W        W 9712   3.657   5.152  10.250
 5969W        W 9713   8.862   9.473   0.816
 5970W        W 9714   4.956   8.184   9.263
 5971W        W 9715   0.897   5.559  10.728
 5972W        W 9716   1.876   6.525  10.752
 5973W        W 9717   9.782   7.651   1.323
 5974W        W 9718   6.608   7.268   9.141
 5975W        W 9719   2.664   5.141  11.991
 5976W        W 9720   7.457   7.486   8.415
 5977W        W 9721   3.567   0.000   0.229
 5978W        W 9722  10.265   8.668  11.845
 5979W        W 9723   4.260   7.253   0.981
 5980W        W 9724   0.977   3.328  11.276
 5981W        W 9725   2.154   4.934   1.297
 5982W        W 9726   4.310   8.838   8.909
 5983W        W 9727   9.539   2.196  11.284
 5984W        W 9728   1.819   5.986   2.045
 5985W        W 9729   5.605  10.038   9.092
 5986W        W 9730   0.209   8.281  10.418
 5987W        W 9731   0.782   7.389  11.534
 5988W        W 9732   9.242   2.250   2.253
 5989W        W 9733   8.571   1.954  10.147
 5990W        W 9734   7.914   1.421   1.489
 5991W        W 9735   3.389   4.732   2.716
 5992W        W 9736   7.870   7.100  11.900
 5993W        W 9737   8.621   3.887   0.569
 5994W        W 9738   5.558   5.877   1.557
 5995W        W 9739   0.455   6.656   0.849
 5996W        W 9740   6.091   4.788   9.837
 5997W        W 9741   6.416   7.008   9.589
 5998W        W 9742   8.826   3.686   9.563
 5999W        W 9743   7.103   3.611   1.566
 6000W        W 9744   2.504   0.719   2.392
 6001W        W 9745   9.889   8.712   2.513
 6002W        W 9746   8.744   8.394  10.359
 6003W        W 9747   4.081   5.583   0.050
 6004W        W 9748   1.400   0.869   9.009
 6005W        W 9749   8.365   3.288   2.414
 6006W        W 9750   2.875   2.609   2.702
 6007W        W 9751   4.691   8.488   3.550
 6008W        W 9752   4.784   2.111  10.037
 6009W        W 9753   9.976   7.466   0.405
 6010W        W 9754   7.507  10.037   3.359
 6011W        W 9755   0.693  10.428   1.304
 6012W        W 9756   3.946   4.762   9.372
 6013W        W 9757   0.734   5.441   1.306
 6014W        W 9758   0.352   3.866   0.347
 6015W        W 9759   6.598   1.006   0.821
 6016W        W 9760   9.529   9.400  11.547
 6017W        W 9761   7.444   9.092  10.873
 6018W        W 9762   3.344   6.067   0.248
 6019W        W 9763   8.967   1.275   9.752
 6020W        W 9764   3.238   0.180  10.896
 6021W        W 9765   4.696   4.984   1.613
 6022W        W 9766   0.429   5.741   0.980
 6023W        W 9767   4.936   8.900  11.046
 6024W        W 9768   9.980   6.898   9.883
 6025W        W 9769   8.599   7.790  11.977
 6026W        W 9770   5.816   4.335   9.998
 6027W        W 9771   8.115   4.281  10.918
 6028W        W 9772   0.281   8.980   3.467
 6029W        W 9773  10.249   2.229  10.185
 6030W        W 9774   0.920   9.057   0.475
 6031W        W 9775   8.400   8.973   1.494
 6032W        W 9776   3.928   4.515   1.031
 6033W        W 9777   1.162   1.784   3.560
 6034W        W 9778  10.237   3.665   0.502
 6035W        W 9779   6.823   0.808   1.222
 6036W        W 9780   3.007   1.713   0.801
 6037W        W 9781   4.293   8.724   3.314
 6038W        W 9782   3.066   9.221  10.042
 6039W        W 9783   0.072   5.447   8.530
 6040W        W 9784   1.576   3.356  11.844
 6041W        W 9785   7.581   1.279   9.015
 6042W        W 9786   5.234   3.591  10.716
 6043W        W 9787   4.829   3.700  11.009
 6044W        W 9788   1.039   5.883   1.224
 6045W        W 9789   2.040   1.806   3.646
 6046W        W 9790   7.877   5.594   2.669
 6047W        W 9791   1.356   6.014  11.354
 6048W        W 9792   0.633   3.961   3.541
 6049W        W 9793   0.965   3.330   0.709
 6050W        W 9794   5.258   8.419   0.974
 6051W        W 9795   4.406   1.145  11.476
 6052W        W 9796   3.095   3.993   0.778
 6053W        W 9797   2.800   8.949   1.653
 6054W        W 9798   0.310   1.092   0.969
 6055W        W 9799   7.665   6.829   9.995
 6056W        W 9800   6.919   3.758   8.558
 6057W        W 9801   8.317   7.582   3.207
 6058W        W 9802   5.703   9.220   2.621
 6059W        W 9803   1.127   0.039   1.030
 6060W        W 9804   0.054   1.137   1.424
 6061W        W 9805   0.673   5.238  10.371
 6062W        W 9806   6.200   5.601  10.845
 6063W        W 9807   3.170   9.179  10.895
 6064W        W 9808   9.162   6.908  11.239
 6065W        W 9809   9.829  10.456   2.294
 6066W        W 9810   3.189   7.114   8.564
 6067W        W 9811   4.976   6.613   9.438
 6068W        W 9812  10.136   4.073   2.353
 6069W        W 9813   0.089   3.679   1.668
 6070W        W 9814   7.870   7.329   3.196
 6071W        W 9815   1.355   6.432   3.121
 6072W        W 9816   0.882   4.469   0.714
 6073W        W 9817   7.923   2.099   3.325
 6074W        W 9818   7.685   7.939   8.835
 6075W        W 9819   3.606   8.072   1.195
 6076W        W 9820   7.656   5.238   2.349
 6077W        W 9821   6.113   2.309   3.252
 6078W        W 9822   2.445   2.433  10.176
 6079W        W 9823   8.590   7.302   9.975
 6080W        W 9824   4.535   8.049   9.496
 6081W        W 9825   3.656   4.075  11.991
 6082W        W 9826   2.598   2.782  11.097
 6083W        W 9827   3.375   4.146   9.842
 6084W        W 9828   0.404   8.133  11.276
 6085W        W 9829   6.621   4.345   1.428
 6086W        W 9830   3.051   6.797   1.597
 6087W        W 9831   1.185   9.898  10.048
 6088W        W 9832   0.822   1.414   8.507
 6089W        W 9833   1.508  10.230   0.860
 6090W        W 9834   8.927   4.839   1.052
 6091W        W 9835   5.304   4.292   9.863
 6092W        W 9836   4.594   2.268   0.579
 6093W        W 9837   3.352   6.659   3.476
 6094W        W 9838   8.927   2.235   9.562
 6095W        W 9839  10.185   1.720  10.968
 6096W        W 9840   1.072   7.365   3.528
 6097W        W 9841   8.371   4.220  10.476
 6098W        W 9842   0.371   9.977   9.124
 6099W        W 9843   6.202   7.651  10.818
 6100W        W 9844   0.269   7.549   9.089
 6101W        W 9845   6.257   7.818   2.862
 6102W        W 9846   8.857   1.783   0.152
 6103W        W 9847   2.601   5.075   1.013
 6104W        W 9848   8.835   6.251   2.324
 6105W        W 9849   2.718   7.212  11.118
 6106W        W 9850   4.505   0.668   1.418
 6107W        W 9851   1.931   4.650  10.690
 6108W        W 9852   0.751   5.050   3.262
 6109W        W 9853   9.371   4.062   3.400
 6110W        W 9854   0.904   5.646   0.788
 6111W        W 9855   8.617   2.766   2.711
 6112W        W 9856   1.670   6.471   1.968
 6113W        W 9857   3.757   6.601   0.372
 6114W        W 9858   8.904   4.277   3.319
 6115W        W 9859   2.393   3.399   1.314
 6116W        W 9860   7.611   9.608   3.070
 6117W        W 9861   9.711   9.558   3.544
 6118W        W 9862   6.567  10.011   9.758
 6119W        W 9863   3.161   4.151  11.845
 6120W        W 9864   8.856   1.014   1.716
 6121W        W 9865   7.836  10.329   2.265
 6122W        W 9866   6.188   0.247   2.978
 6123W        W 9867   5.960   3.138   3.683
 6124W        W 9868   9.909   0.818   0.484
 6125W        W 9869   3.279   8.840   9.775
 6126W        W 9870   7.593   9.957   2.022
 6127W        W 9871   8.777   2.209   0.996
 6128W        W 9872   0.458   8.503   9.981
 6129W        W 9873   3.249   3.581  11.413
 6130W        W 9874   1.421   4.662  10.634
 6131W        W 9875   3.837   1.836   1.246
 6132W        W 9876   5.893   3.653   3.781
 6133W        W 9877   1.323   5.056   0.218
 6134W        W 9878   1.303   3.301   9.112
 6135W        W 9879   7.645   7.526   0.754
 6136W        W 9880   3.816   4.428   2.261
 6137W        W 9881   6.197   7.688   3.468
 6138W        W 9882   6.577   9.458   0.154
 6139W        W 9883   8.087   0.709  10.216
 6140W        W 9884   4.161   7.656  11.095
 6141W        W 9885   6.681   0.723   1.716
 6142W        W 9886   7.712   8.660   0.093
 6143W        W 9887   7.464   8.377   9.045
 6144W        W 9888   8.446   2.799   3.232
 6145W        W 9889   9.302   5.724  11.153
 6146W        W 9890   3.737   4.363   9.064
 6147W        W 9891   3.384   8.512   2.260
 6148W        W 9892   1.822   9.005   1.751
 6149W        W 9893   9.812   8.986   8.934
 6150W        W 9894   5.615   0.605   0.825
 6151W        W 9895   3.716   8.362   0.773
 6152W        W 9896   8.481   2.376   9.769
 6153W        W 9897   2.340   9.802  11.023
 6154W        W 9898   8.597   1.183  11.415
 6155W        W 9899   4.012   0.732   2.928
 6156W        W 9900   6.953   7.461   0.225
 6157W        W 9901   6.505   8.307  11.878
 6158W        W 9902   4.112   4.153   2.853
 6159W        W 9903   3.320   4.567   2.157
 6160W        W 9904   7.343  10.293   2.401
 6161W        W 9905   6.043   6.684   0.274
 6162W        W 9906   3.377   4.484   9.397
 6163W        W 9907   6.545   1.715   9.163
 6164W        W 9908   5.789   5.968   0.733
 6165W        W 9909   0.256   3.415   2.959
 6166W        W 9910   9.988   1.733   0.949
 6167W        W 9911   8.371   1.400   3.166
 6168W        W 9912   6.766   0.761  10.231
 6169W        W 9913   8.869   9.427   3.490
 6170W        W 9914   4.893   2.685   3.158
 6171W        W 9915   0.560   9.540   0.178
 6172W        W 9916   4.825   2.800   1.434
 6173W        W 9917   7.556   3.725   3.367
 6174W        W 9918   6.081   0.698  11.791
 6175W        W 9919   5.952   9.368   2.197
 6176W        W 9920   8.769   2.260  10.572
 6177W        W 9921   7.627   4.107  10.892
 6178W        W 9922   9.067   8.463  11.346
 6179W        W 9923   7.436   6.158   2.249
 6180W        W 9924   2.549   7.479   1.448
 6181W        W 9925   5.260   6.458   0.668
 6182W        W 9926   1.606   9.878  11.536
 6183W        W 9927   0.881   7.542   9.788
 6184W        W 9928  10.011   5.355   0.037
 6185W        W 9929  10.311   2.294   0.061
 6186W        W 9930   6.848   6.151  10.105
 6187W        W 9931   2.466  10.385   0.739
 6188W        W 9932   3.351   2.822  10.418
 6189W        W 9933   0.346   0.298   1.417
 6190W        W 9934   5.253   6.260  11.533
 6191W        W 9935   1.752   1.680   2.785
 6192W        W 9936   3.285   7.854   9.538
 6193W        W 9937   5.328   6.050   0.337
 6194W        W 9938   1.087   3.150   9.966
 6195W        W 9939   7.346  10.185   0.181
 6196W        W 9940   7.433   0.735   2.496
 6197W        W 9941   3.668  10.432  11.728
 6198W        W 9942   0.415   6.133  10.308
 6199W        W 9943   2.739   0.789  10.551
 6200W        W 9944   4.039   5.075  11.972
 6201W        W 9945   1.317   9.663   3.770
 6202W        W 9946  10.031   8.973   1.384
 6203W        W 9947   5.777   1.573   1.007
 6204W        W 9948   1.503   5.991   0.293
 6205W        W 9949   9.585   8.120  10.272
 6206W        W 9950   4.709   4.103   3.656
 6207W        W 9951   7.288   2.801   9.948
 6208W        W 9952   5.742   7.334  10.869
 6209W        W 9953   1.167   6.126   0.723
 6210W        W 9954   2.749   5.538   3.539
 6211W        W 9955  10.238   4.250   3.364
 6212W        W 9956   2.343   5.228   9.862
 6213W        W 9957   6.752   0.331   9.975
 6214W        W 9958   5.147   3.868  10.270
 6215W        W 9959   3.773   3.742   2.895
 6216W        W 9960   0.296   6.465   2.430
 6217W        W 9961   8.800   1.425   2.019
 6218W        W 9962  10.187   1.600   2.936
 6219W        W 9963   7.018   6.533   2.786
 6220W        W 9964   9.494   1.343   9.043
 6221W        W 9965   3.785   2.656   3.498
 6222W        W 9966   6.486   8.811  11.929
 6223W        W 9967   2.074   1.712   9.594
 6224W        W 9968   3.285   8.577   0.959
 6225W        W 9969  10.414   7.671   1.877
 6226W        W 9970   1.204   2.127   0.362
 6227W        W 9971   6.210   4.188   2.617
 6228W        W 9972   9.607   8.498  11.382
 6229W        W 9973   8.464   2.636  11.437
 6230W        W 9974   9.332   7.361  10.594
 6231W        W 9975   3.694   9.258   3.366
 6232W        W 9976   5.927   8.062   3.209
 6233W        W 9977   3.518   4.868   1.015
 6234W        W 9978   4.305   9.825   9.358
 6235W        W 9979   2.238   3.494   9.331
 6236W        W 9980   7.454   1.918   3.455
 6237W        W 9981   2.351   8.819   8.975
 6238W        W 9982   9.434   1.710  10.008
 6239W        W 9983   5.922   7.354  11.763
 6240W        W 9984   7.888  10.353  11.441
 6241W        W 9985   0.580   8.182   1.998
 6242W        W 9986  10.333   7.738   2.382
 6243W        W 9987   9.011   4.530   0.096
 6244W        W 9988   3.865   6.165   1.805
 6245W        W 9989   0.830   2.615   2.534
 6246W        W 9990  10.347   9.560  10.960
 6247W        W 9991   2.831   1.090   1.808
 6248W        W 9992   9.633   5.969  10.014
 6249W        W 9993   9.446   1.185  11.439
 6250W        W 9994   1.480   5.519   3.498
 6251W        W 9995   1.456   3.206   1.624
 6252W        W 9996   5.986   9.781   2.476
 6253W        W 9997   5.797   8.729   2.721
 6254W        W 9998   7.178   0.825   1.608
 6255W        W 9999   6.952   5.653   9.383
 6256W        W10000   7.620   1.555  10.543
 6257W        W10001   2.074   2.988   3.020
 6258W        W10002   8.919  10.209   2.277
 6259W        W10003   1.014   7.921  10.499
 6260W        W10004   0.409   6.659   9.835
 6261W        W10005   4.084   7.021  10.832
 6262W        W10006  10.001   0.887  11.455
 6263W        W10007   5.180   1.649   9.235
 6264W        W10008   5.057   6.082  10.069
 6265W        W10009   2.825   7.617  10.614
 6266W        W10010   3.444   7.604   8.488
 6267W        W10011   6.440   4.176   3.123
 6268W        W10012   5.898  10.318   2.453
 6269W        W10013  10.232   4.130   9.203
 6270W        W10014   9.813   5.164   2.992
 6271W        W10015   9.828   3.198   1.961
 6272W        W10016   1.783   9.444   9.462
 6273W        W10017   0.401   0.851  11.559
 6274W        W10018  10.301   3.249   2.480
 6275W        W10019   9.327   6.569   3.539
 6276W        W10020  10.470   4.712   9.092
 6277W        W10021   0.814   1.455   9.476
 6278W        W10022   8.075   7.891   1.312
 6279W        W10023   6.258   7.879   1.761
 6280W        W10024   9.245   0.747  10.953
 6281W        W10025   6.496   6.929  10.082
 6282W        W10026   7.043  10.295   3.343
 6283W        W10027   4.294   4.286   2.398
 6284W        W10028   0.907   0.815  10.755
 6285W        W10029   1.005   4.653   3.451
 6286W        W10030   8.460   7.715   2.319
 6287W        W10031   0.409   2.561   0.682
 6288W        W10032   8.575   7.494   1.875
 6289W        W10033   2.208   1.439   2.730
 6290W        W10034   9.566   1.942  10.468
 6291W        W10035   9.093   7.627  11.889
 6292W        W10036   9.375   8.405   1.264
 6293W        W10037   1.339   8.030   1.404
 6294W        W10038   4.411   9.062   2.976
 6295W        W10039   6.747   1.358  11.032
 6296W        W10040   0.415   3.743   2.051
 6297W        W10041   9.357   6.673   8.959
 6298W        W10042  10.438   2.268  11.574
 6299W        W10043   1.606   0.819  11.908
 6300W        W10044   5.209   3.331  10.299
 6301W        W10045   3.779   7.399  11.884
 6302W        W10046  10.482   3.586  10.440
 6303W        W10047   1.926   0.047   0.039
 6304W        W10048   7.443   1.668   0.268
 6305W        W10049   7.418   9.289   0.680
 6306W        W10050   0.006   9.588   9.068
 6307W        W10051   7.826   6.981   2.409
 6308W        W10052   2.652   1.642   3.169
 6309W        W10053   7.063   0.637   2.130
 6310W        W10054  10.218   4.670   9.546
 6311W        W10055   7.938   5.651  11.293
 6312W        W10056   5.711   0.759   1.999
 6313W        W10057  10.123   5.677   8.500
 6314W        W10058   1.735   1.192  10.358
 6315W        W10059   9.424   1.594  11.811
 6316W        W10060   8.160   4.546  11.684
 6317W        W10061   1.609   8.959  10.928
 6318W        W10062   7.369   4.316  10.475
 6319W        W10063  10.478   1.908   0.980
 6320W        W10064   2.359   9.202   9.428
 6321W        W10065   6.766   5.058  10.610
 6322W        W10066   7.429   3.626  10.947
 6323W        W10067   8.917   7.476  11.400
 6324W        W10068   7.882   5.092   9.560
 6325W        W10069   7.426   4.227   2.158
 6326W        W10070   1.918   8.434   0.852
 6327W        W10071   4.541   0.689   9.552
 6328W        W10072   9.962   1.781  11.960
 6329W        W10073   3.655   9.101   9.509
 6330W        W10074   2.208   9.939  10.109
 6331W        W10075   4.836   1.760   2.442
 6332W        W10076   9.061   3.720   0.767
 6333W        W10077   0.398   3.164   1.940
 6334W        W10078  10.463   5.070   0.076
 6335W        W10079   8.872   6.483  11.222
 6336W        W10080   8.870   8.541   8.886
 6337W        W10081   1.450   6.969   2.315
 6338W        W10082   2.653   7.343   8.165
 6339W        W10083   0.301   7.637  11.372
 6340W        W10084   2.228  10.220   0.285
 6341W        W10085   4.071   1.805   1.689
 6342W        W10086   5.661   2.153   2.423
 6343W        W10087   7.568   7.477   9.440
 6344W        W10088   5.070   2.102   9.054
 6345W        W10089   9.047   6.193  11.981
 6346W        W10090   5.321   6.779   3.604
 6347W        W10091   9.335   3.871   9.616
 6348W        W10092   5.353   4.761  10.628
 6349W        W10093   2.220   9.845   1.952
 6350W        W10094   3.460   6.643   1.845
 6351W        W10095   6.647   3.273   9.631
 6352W        W10096   6.055   0.718   9.041
 6353W        W10097   1.643   1.810   3.291
 6354W        W10098   4.277  10.422   8.684
 6355W        W10099   4.604   7.614  11.965
 6356W        W10100   2.259   6.486  11.102
 6357W        W10101   1.006  10.441  11.047
 6358W        W10102   2.186   2.034  11.632
 6359W        W10103   2.380   3.330   1.844
 6360W        W10104   6.520   2.092   3.491
 6361W        W10105   5.120   6.915   1.821
 6362W        W10106   5.436   2.557   0.824
 6363W        W10107   1.864   6.746   8.865
 6364W        W10108   5.587   9.756   0.455
 6365W        W10109   1.833   2.285   1.891
 6366W        W10110   6.493   4.037  11.371
 6367W        W10111   5.054  10.365  10.265
 6368W        W10112   7.993   4.567   3.475
 6369W        W10113   8.537   3.241   8.715
 6370W        W10114   1.339  10.458   8.729
 6371W        W10115  10.399  10.032   9.539
 6372W        W10116   0.839   0.811   2.668
 6373W        W10117   5.978   9.061   1.217
 6374W        W10118   4.315   0.443   0.203
 6375W        W10119   1.061   4.711  10.987
 6376W        W10120   7.561   6.379  10.885
 6377W        W10121   0.425   5.661  10.501
 6378W        W10122   7.697   5.744   3.132
 6379W        W10123   4.012   9.600   2.438
 6380W        W10124   1.787   5.064   0.420
 6381W        W10125   1.708   7.574   9.295
 6382W        W10126   6.175   2.793   1.672
 6383W        W10127   3.190  10.191  10.016
 6384W        W10128   6.627   8.883  10.553
 6385W        W10129   8.836  10.363   3.298
 6386W        W10130   6.277   7.065   2.309
 6387W        W10131   1.393   2.248   3.312
 6388W        W10132   8.775   9.988  10.009
 6389W        W10133   1.558   1.186   0.403
 6390W        W10134   3.639   8.967   0.069
 6391W        W10135   5.921   7.169   8.694
 6392W        W10136   8.319   4.171  11.370
 6393W        W10137   7.567   6.913  10.939
 6394W        W10138  -0.002   8.425   9.592
 6395W        W10139   8.249   0.941   2.428
 6396W        W10140   9.774   7.605  11.379
 6397W        W10141  10.285   2.323   9.496
 6398W        W10142   4.051   0.964   8.457
 6399W        W10143   6.563   0.443  11.045
 6400W        W10144   7.556   1.796   8.977
 6401W        W10145   8.473   1.795   9.106
 6402W        W10146   2.692   6.105  11.550
 6403W        W10147   0.868   6.977   3.064
 6404W        W10148  10.281   5.393   2.863
 6405W        W10149   3.553   0.947   9.609
 6406W        W10150   9.944   4.943   1.725
 6407W        W10151   8.129   7.069   9.947
 6408W        W10152   7.336   8.761  11.260
 6409W        W10153   1.896  10.007  11.947
 6410W        W10154   8.085   7.454   8.090
 6411W        W10155   4.620   8.492  10.833
 6412W        W10156   3.041   8.519   1.871
 6413W        W10157   9.792   6.493   2.699
 6414W        W10158   0.820   3.765  10.355
 6415W        W10159   1.397   6.778   1.213
 6416W        W10160   5.227   1.375   0.502
 6417W        W10161  10.425   4.155   0.303
 6418W        W10162   0.718   1.690  11.169
 6419W        W10163   3.662   4.624  10.279
 6420W        W10164   4.407   2.365   9.824
 6421W        W10165   3.932   2.309   3.111
 6422W        W10166   1.152   6.679  10.284
 6423W        W10167   8.768   8.035   8.835
 6424W        W10168   0.661   8.037   9.944
 6425W        W10169   8.493  10.029   9.257
 6426W        W10170   1.301   8.719   0.608
 6427W        W10171   5.533   2.860   8.685
 6428W        W10172   4.373   8.068   1.475
 6429W        W10173   8.300   3.220   2.934
 6430W        W10174  10.363   5.162   1.513
 6431W        W10175   3.553   1.842   1.701
 6432W        W10176   0.983   6.900  11.585
 6433W        W10177   8.330   2.158   0.799
 6434W        W10178   4.612   5.990  10.958
 6435W        W10179   8.320   8.902  11.348
 6436W        W10180   1.868   9.926   2.645
 6437W        W10181   7.202   1.350  10.801
 6438W        W10182   4.628   9.622   1.840
 6439W        W10183   7.628   0.052   2.784
 6440W        W10184   6.954   6.305   0.494
 6441W        W10185   2.983   6.434   0.234
 6442W        W10186   5.112   7.158   3.324
 6443W        W10187   4.261  10.316  10.940
 6444W        W10188   0.728  10.483   2.336
 6445W        W10189   5.335   8.805   2.907
 6446W        W10190   6.058   4.214   8.407
 6447W        W10191   3.336   0.514   9.003
 6448W        W10192   0.838   4.361   1.220
 6449W        W10193   1.680   1.344  11.881
 6450W        W10194   0.559   6.644  11.473
 6451W        W10195   0.468   2.430   9.542
 6452W        W10196   8.137  10.038  11.755
 6453W        W10197   5.122   2.851  10.430
 6454W        W10198  10.473   3.782  10.957
 6455W        W10199   8.032   1.942   1.349
 6456W        W10200   6.727   2.708  10.852
 6457W        W10201   2.301   8.086   0.958
 6458W        W10202   3.186   6.617  10.828
 6459W        W10203   1.878   8.991  11.372
 6460W        W10204   6.688   9.837  10.921
 6461W        W10205   4.243   2.010  11.574
 6462W        W10206   1.640   7.025   0.516
 6463W        W10207   8.970   3.135  11.537
 6464W        W10208   1.352   0.215   1.493
 6465W        W10209   4.680   3.536   3.949
 6466W        W10210   2.336   8.743  11.336
 6467W        W10211   2.787   2.348   1.929
 6468W        W10212   1.398   5.696   0.930
 6469W        W10213   9.139   4.157  10.029
 6470W        W10214   9.809   2.338   9.323
 6471W        W10215   0.558   2.720  10.524
 6472W        W10216   0.832   2.172   2.806
 6473W        W10217   0.935   5.714   2.238
 6474W        W10218   4.869   8.645   1.199
 6475W        W10219   7.548   0.496   1.801
 6476W        W10220   2.160   6.009   0.866
 6477W        W10221   9.308   6.874   9.429
 6478W        W10222   7.042   9.761   9.456
 6479W        W10223   3.267   5.772   1.383
 6480W        W10224   8.431   4.110   1.855
 6481W        W10225   2.284   0.954   9.149
 6482W        W10226   2.420   4.516  10.787
 6483W        W10227   1.795   9.502  11.859
 6484W        W10228   4.372   8.453   8.511
 6485W        W10229   6.032   2.509   2.735
 6486W        W10230   7.250   0.400  10.939
 6487W        W10231   0.173  10.259   1.399
 6488W        W10232   0.270  10.216   2.203
 6489W        W10233   1.337   4.758   0.656
 6490W        W10234   8.078   9.774   1.889
 6491W        W10235   8.865   3.025   1.966
 6492W        W10236   7.427   9.473   1.172
 6493W        W10237   6.258   9.617   9.546
 6494W        W10238   3.596   9.351   9.950
 6495W        W10239   1.627   2.463   1.341
 6496W        W10240   7.376   7.028   9.641
 6497W        W10241   4.252   7.475   9.472
 6498W        W10242   1.924   7.269   2.362
 6499W        W10243   6.408   7.418   0.902
 6500W        W10244   1.383   9.319   8.727
 6501W        W10245   4.616   4.135   1.708
 6502W        W10246   6.650   9.511   9.866
 6503W        W10247   0.501   5.591   3.364
 6504W        W10248   2.277  10.305  11.757
 6505W        W10249   6.045   1.417   1.453
 6506W        W10250   6.206   5.200   0.511
 6507W        W10251   5.283   6.127   8.247
 6508W        W10252   0.909   3.869  11.265
 6509W        W10253   3.055   7.556   1.399
 6510W        W10254   7.508   5.272  11.922
 6511W        W10255   5.718   1.292  11.273
 6512W        W10256   7.836   2.228   1.827
 6513W        W10257   4.497   7.705   3.209
 6514W        W10258   3.813   4.527  10.783
 6515W        W10259   9.546   5.651  10.640
 6516W        W10260   5.978   2.264   1.745
 6517W        W10261   2.125   7.450   8.986
 6518W        W10262   0.194   7.336   1.531
 6519W        W10263   2.002   6.030   0.347
 6520W        W10264   5.661   4.365  10.516
 6521W        W10265   2.273   8.162   3.056
 6522W        W10266   7.481   1.446   2.183
 6523W        W10267   2.365   3.242   8.903
 6524W        W10268   6.442   5.697   1.399
 6525W        W10269   5.087   9.969   0.426
 6526W        W10270   4.633   2.343   2.363
 6527W        W10271  10.049   9.541   0.692
 6528W        W10272   4.137   7.707   2.361
 6529W        W10273   8.933   6.755   9.741
 6530W        W10274   7.873   8.457  10.392
 6531W        W10275   8.137   3.662   1.926
 6532W        W10276   8.345   5.249  11.371
 6533W        W10277   3.286   2.293   1.805
 6534W        W10278   0.346   9.465  11.725
 6535W        W10279   5.964   3.303   0.425
 6536W        W10280   3.820   6.556   1.464
 6537W        W10281   5.611   7.554   2.383
 6538W        W10282   7.461   6.049   0.332
 6539W        W10283   6.557   9.857  10.264
 6540W        W10284   7.388   0.657   0.322
 6541W        W10285   0.835   7.320   1.737
 6542W        W10286   5.075   3.732   3.680
 6543W        W10287   1.014   9.474   0.889
 6544W        W10288   5.045   5.135   2.407
 6545W        W10289   5.144   6.533   3.149
 6546W        W10290   4.752   6.257  11.392
 6547W        W10291   9.137   7.450   3.889
 6548W        W10292  10.312   4.118  11.725
 6549W        W10293   3.566   2.712   9.005
 6550W        W10294   2.102   5.117   0.832
 6551W        W10295   6.746   0.428   3.521
 6552W        W10296   1.717   9.979   3.157
 6553W        W10297   6.711   1.709  11.452
 6554W        W10298   1.205   5.151  10.780
 6555W        W10299   9.978   0.767   2.660
 6556W        W10300   0.652   9.326   3.274
 6557W        W10301   6.098   9.164  10.492
 6558W        W10302   7.405   1.171   0.347
 6559W        W10303   9.900   2.657   1.324
 6560W        W10304   9.737   4.265   2.637
 6561W        W10305   9.074   6.534   1.645
 6562W        W10306   8.845   3.094   3.031
 6563W        W10307   3.706   2.294   9.246
 6564W        W10308   1.283   6.262   9.961
 6565W        W10309   0.343  10.048   2.676
 6566W        W10310   8.977   0.770   8.522
 6567W        W10311   8.500   3.185  11.396
 6568W        W10312  10.346   0.405  10.484
 6569W        W10313   5.083   5.092   2.914
 6570W        W10314   6.472   0.847   9.825
 6571W        W10315   9.406   9.029   9.233
 6572W        W10316   8.940   5.536  10.233
 6573W        W10317  10.487   7.159  11.723
 6574W        W10318   3.863   1.892   2.153
 6575W        W10319   4.405   8.229   3.173
 6576W        W10320   7.948   8.375   1.188
 6577W        W10321   5.565   2.704   2.946
 6578W        W10322   5.197   4.008  11.245
 6579W        W10323   7.971   7.889   0.350
 6580W        W10324   7.168   9.681  11.018
 6581W        W10325   7.623   4.935   2.758
 6582W        W10326   5.690  10.408   9.436
 6583W        W10327   0.047   7.659   1.112
 6584W        W10328   6.219   1.587  11.510
 6585W        W10329   0.478   9.279   9.662
 6586W        W10330   0.439  10.445   1.785
 6587W        W10331   5.641   2.305   3.446
 6588W        W10332   8.324   4.922   3.403
 6589W        W10333   0.800   4.858   1.015
 6590W        W10334   4.601   1.318   3.146
 6591W        W10335   5.562   0.857   8.997
 6592W        W10336   5.089   7.608   4.002
 6593W        W10337   6.138   1.910   2.338
 6594W        W10338   2.133   2.382   2.830
 6595W        W10339   5.282   1.893   3.384
 6596W        W10340   8.688   6.921   0.184
 6597W        W10341   9.373   0.443   2.752
 6598W        W10342   9.400   3.087  11.789
 6599W        W10343   0.899   4.187   8.415
 6600W        W10344   4.792   5.595   0.794
 6601W        W10345   2.414   8.199   9.518
 6602W        W10346   5.007   5.624   2.157
 6603W        W10347  10.022   7.895  11.709
 6604W        W10348  10.207   8.675   8.709
 6605W        W10349   6.700   8.059   0.984
 6606W        W10350   1.283   9.451   9.747
 6607W        W10351   0.658   4.341  10.358
 6608W        W10352   5.668   3.093   4.106
 6609W        W10353   1.492   6.297  10.448
 6610W        W10354   8.211   4.142   8.203
 6611W        W10355   6.910   4.794  11.373
 6612W        W10356   0.061   8.795   1.204
 6613W        W10357   7.670   4.129   8.862
 6614W        W10358   9.041   5.270   1.482
 6615W        W10359   0.907   9.305   8.926
 6616W        W10360   6.921   8.856   2.355
 6617W        W10361   3.076   3.688   8.793
 6618W        W10362   4.132   2.629  10.147
 6619W        W10363   4.348   1.907   2.336
 6620W        W10364   0.247   9.081   2.957
 6621W        W10365   1.857   4.115  11.227
 6622W        W10366   9.295   7.034   0.943
 6623W        W10367   6.111   0.402   1.986
 6624W        W10368   7.449   3.779   1.203
 6625W        W10369   0.761   8.127   1.534
 6626W        W10370   5.593   3.873  10.501
 6627W        W10371  10.288   8.725   9.218
 6628W        W10372   8.087  10.295   2.695
 6629W        W10373   2.303   5.269   9.096
 6630W        W10374   8.557   6.112  11.833
 6631W        W10375   4.756   7.905   1.824
 6632W        W10376   2.366   4.956   8.608
 6633W        W10377   0.341   2.132  10.311
 6634W        W10378   6.414   6.515   9.387
 6635W        W10379   6.127  10.188  10.393
 6636W        W10380   8.883   0.385   9.659
 6637W        W10381   1.883   7.909   3.245
 6638W        W10382   2.620   6.068   2.398
 6639W        W10383   5.211   2.899   1.115
 6640W        W10384   2.801   1.514  11.200
 6641W        W10385   3.485   1.037  10.946
 6642W        W10386   5.514   3.828   3.449
 6643W        W10387  10.074   3.410  11.796
 6644W        W10388   3.079   8.990   1.237
 6645W        W10389   1.678   8.069  11.001
 6646W        W10390   8.740   6.024  10.437
 6647W        W10391   7.984   5.894   9.975
 6648W        W10392   3.523   1.919  11.040
 6649W        W10393   5.286   9.044   3.396
 6650W        W10394   9.344   9.868  11.634
 6651W        W10395   4.971   9.714   9.494
 6652W        W10396   3.392   5.942  11.348
 6653W        W10397   8.517   0.983  10.022
 6654W        W10398   5.247   2.633  10.929
 6655W        W10399   7.979   9.862   1.336
 6656W        W10400   4.886   7.783   2.759
 6657W        W10401   1.430   1.328  10.795
 6658W        W10402   4.225   8.728   2.225
 6659W        W10403   6.525   2.747   0.404
 6660W        W10404   2.229   5.620  10.952
 6661W        W10405   5.976   5.156  10.646
 6662W        W10406   1.467   9.725   0.827
 6663W        W10407   7.397   2.829   3.223
 6664W        W10408   1.908   5.397   1.246
 6665W        W10409   4.600   9.454  11.442
 6666W        W10410  10.090   0.026  10.989
 6667W        W10411   7.425   0.316  11.809
 6668W        W10412   3.683   5.842  10.950
 6669W        W10413   0.767   0.846   1.731
 6670W        W10414   3.952   1.785   2.655
 6671W        W10415  10.070   3.661   9.407
 6672W        W10416   9.455   6.014  11.751
 6673W        W10417   4.016   0.094   0.439
 6674W        W10418   7.966   9.237   1.854
 6675W        W10419   7.490   3.559  11.482
 6676W        W10420   6.218   4.693   2.579
 6677W        W10421  10.222   7.450   1.443
 6678W        W10422   8.043   1.296  10.627
 6679W        W10423   6.709   3.904   2.787
 6680W        W10424   2.574   9.897  10.500
 6681W        W10425   9.422   2.049   9.618
 6682W        W10426   0.198   0.665   1.813
 6683W        W10427   8.930   6.075   1.836
 6684W        W10428   4.608   5.956   9.840
 6685W        W10429   7.046   6.037   2.611
 6686W        W10430   1.456   6.239   9.486
 6687W        W10431   2.821   1.863   2.174
 6688W        W10432   7.294   2.332  10.255
 6689W        W10433   3.348   6.308  10.451
 6690W        W10434   0.805   4.090  10.770
 6691W        W10435   9.665   5.887   9.067
 6692W        W10436   8.549   6.581   2.837
 6693W        W10437   2.117   0.448   1.808
 6694W        W10438   9.421  10.281   1.663
 6695W        W10439   9.800   8.136   1.209
 6696W        W10440   6.340   9.108   9.631
 6697W        W10441   3.192   8.797   8.741
 6698W        W10442   1.711   2.683   2.720
 6699W        W10443   9.323   8.473   0.763
 6700W        W10444   4.272   0.274   3.212
 6701W        W10445   2.206   5.261   2.398
 6702W        W10446   1.787   0.715   9.826
 6703W        W10447   3.051   2.290  11.610
 6704W        W10448   2.519   4.058   8.505
 6705W        W10449   8.012   9.587  11.938
 6706W        W10450   5.050   0.809  10.396
 6707W        W10451   9.346   3.031   2.293
 6708W        W10452   1.481   8.450   9.751
 6709W        W10453   2.687   4.171   1.014
 6710W        W10454  10.388   1.334   9.498
 6711W        W10455   7.140   0.230   2.643
 6712W        W10456   1.388   6.993  11.229
 6713W        W10457   5.896   5.749   1.957
 6714W        W10458   2.705   7.023   1.322
 6715W        W10459   2.184   1.446  10.463
 6716W        W10460   4.949   4.582  11.967
 6717W        W10461   4.241   3.291   9.505
 6718W        W10462   8.029   0.185  10.069
 6719W        W10463   8.964   8.392   1.562
 6720W        W10464   6.669   2.750   1.451
 6721W        W10465   4.376   8.767   0.379
 6722W        W10466   2.400   8.986   2.531
 6723W        W10467   1.257   0.955   1.636
 6724W        W10468   7.127   5.696  11.107
 6725W        W10469   8.404   2.273   2.986
 6726W        W10470  10.152  10.455   9.323
 6727W        W10471   1.142   9.524   2.677
 6728W        W10472   2.637   2.848   9.915
 6729W        W10473   3.333   7.630  10.810
 6730W        W10474   1.001   1.069   9.750
 6731W        W10475   3.878   8.709   0.427
 6732W        W10476   6.080  10.181  11.831
 6733W        W10477   5.244   9.037   2.459
 6734W        W10478   5.154   2.390   2.248
 6735W        W10479   7.069   6.198   1.843
 6736W        W10480   1.444   0.251   3.323
 6737W        W10481   4.966   7.640   3.496
 6738W        W10482   5.209   5.679   9.820
 6739W        W10483   7.628   3.249   3.572
 6740W        W10484  10.150   0.338   2.149
 6741W        W10485   6.518   9.270   1.566
 6742W        W10486   5.089   9.979   9.942
 6743W        W10487   3.754   0.520   1.462
 6744W        W10488   5.724   5.042   0.004
 6745W        W10489   4.219   1.899   9.763
 6746W        W10490   8.057   5.238   0.692
 6747W        W10491   2.160   4.275   8.957
 6748W        W10492   7.056   3.304   9.910
 6749W        W10493   7.013   0.586   9.094
 6750W        W10494   5.667   7.367  10.072
 6751W        W10495   5.930   0.889  11.017
 6752W        W10496   4.959   7.045   8.534
 6753W        W10497   1.811   0.569   3.536
 6754W        W10498   5.536   5.996  11.879
 6755W        W10499   7.465   5.897   9.868
 6756W        W10500   9.239   4.176   9.159
 6757W        W10501   4.816   2.733   3.654
 6758W        W10502   5.147   5.186   3.423
 6759W        W10503   3.423   3.317   0.319
 6760W        W10504   0.884   4.581   9.963
 6761W        W10505   2.824   6.210   9.992
 6762W        W10506   8.299   5.077  10.511
 6763W        W10507   2.341   9.463   1.103
 6764W        W10508   6.195   0.781   3.157
 6765W        W10509   7.946   4.063   1.653
 6766W        W10510   1.934   7.271   3.574
 6767W        W10511   8.913   8.987   9.131
 6768W        W10512   5.133   4.017   1.891
 6769W        W10513  10.254   0.047  11.862
 6770W        W10514   7.922   6.100   0.521
 6771W        W10515   1.868   4.678   1.902
 6772W        W10516   9.944   8.595   2.020
 6773W        W10517   0.594   5.493   9.334
 6774W        W10518   4.030   2.764  11.000
 6775W        W10519   4.721   1.540   9.426
 6776W        W10520   8.753   0.000  10.013
 6777W        W10521   1.329   5.925   9.081
 6778W        W10522   0.428   3.972  11.464
 6779W        W10523   1.301   7.509   1.672
 6780W        W10524   8.023   2.785   9.228
 6781W        W10525   4.948   1.010  10.851
 6782W        W10526   4.096  10.423  10.453
 6783W        W10527   2.671   2.885   1.773
 6784W        W10528   3.217   3.640   9.304
 6785W        W10529   3.692   3.079   2.712
 6786W        W10530   6.561   8.015  10.760
 6787W        W10531   0.285   5.034   2.357
 6788W        W10532   7.027   6.457   2.284
 6789W        W10533   8.304   8.413  10.101
 6790W        W10534   0.414   3.713   9.068
 6791W        W10535   9.685   2.326  10.811
 6792W        W10536   2.216   2.938  10.185
 6793W        W10537   0.733   4.877  11.339
 6794W        W10538   2.204   1.950   2.567
 6795W        W10539   0.982   5.460   2.713
 6796W        W10540   3.596   5.334   1.288
 6797W        W10541   5.745   0.457   8.717
 6798W        W10542   5.641   0.403  10.161
 6799W        W10543   5.541   7.987   0.777
 6800W        W10544   5.255   0.788   1.167
 6801W        W10545   1.262   4.680   1.164
 6802W        W10546   1.474   6.583   0.753
 6803W        W10547   5.604   8.559   9.180
 6804W        W10548   4.281   2.196   2.756
 6805W        W10549   9.582   5.130  11.837
 6806W        W10550   0.700   0.317   0.965
 6807W        W10551   9.469   1.404   0.627
 6808W        W10552   6.441   3.676   9.422
 6809W        W10553   5.031   8.166   2.370
 6810W        W10554   9.428   1.322   2.966
 6811W        W10555   3.281   7.386   0.726
 6812W        W10556   7.950   3.833   8.551
 6813W        W10557   5.765   1.815   3.619
 6814W        W10558   8.447   0.831  10.548
 6815W        W10559   0.182   2.035   9.385
 6816W        W10560   3.833   7.627   8.832
 6817W        W10561   0.983   6.577  11.193
 6818W        W10562   6.368   8.783   1.656
 6819W        W10563   6.972   8.142  11.031
 6820W        W10564   0.329   9.758   9.604
 6821W        W10565   8.378   4.617   9.858
 6822W        W10566   2.118  10.401   2.700
 6823W        W10567   5.552   1.674  10.030
 6824W        W10568   0.421  10.484   3.102
 6825W        W10569   5.072   7.458   0.060
 6826W        W10570   2.660  10.357   9.476
 6827W        W10571   3.741   7.163   0.334
 6828W        W10572   4.060   5.689   1.373
 6829W        W10573   4.058   5.788   0.553
 6830W        W10574   1.456   0.478   8.590
 6831W        W10575   4.743   8.590   3.038
 6832W        W10576   9.060   5.386   2.348
 6833W        W10577   4.730   6.457   9.921
 6834W        W10578   8.489   9.851   1.526
 6835W        W10579   1.452   4.659   2.669
 6836W        W10580   1.667   5.509  10.183
 6837W        W10581   6.375   4.642   1.014
 6838W        W10582   3.032   7.708   8.157
 6839W        W10583   7.356   6.185   1.288
 6840W        W10584   6.895   1.305   9.358
 6841W        W10585   0.868   8.814  11.386
 6842W        W10586   3.065   0.308  11.342
 6843W        W10587   5.093   5.220  10.607
 6844W        W10588   3.480   0.016   2.347
 6845W        W10589   3.668  10.352   1.240
 6846W        W10590   8.978   2.732   9.741
 6847W        W10591   7.049   9.418   0.350
 6848W        W10592   7.662   8.378   1.913
 6849W        W10593   2.848   6.415   0.718
 6850W        W10594   5.736   0.888   3.528
 6851W        W10595   3.125   5.520   9.236
 6852W        W10596   6.195   3.462  10.348
 6853W        W10597   2.162   6.308   2.317
 6854W        W10598   6.484   9.718   0.599
 6855W        W10599   1.924   3.563   3.249
 6856W        W10600   2.670  10.000   0.417
 6857W        W10601   1.783   0.912  10.815
 6858W        W10602   4.171   1.435   1.278
 6859W        W10603   3.465   9.048  11.618
 6860W        W10604   1.065   2.738  10.704
 6861W        W10605   0.754   5.992   9.030
 6862W        W10606   0.527   8.707   0.438
 6863W        W10607   7.702   7.870   1.875
 6864W        W10608   8.938   9.362   2.988
 6865W        W10609   6.307   7.562   2.152
 6866W        W10610   0.388   6.384   1.301
 6867W        W10611   9.796   4.932   0.267
 6868W        W10612  10.235  10.065  10.382
 6869W        W10613   6.491   3.188   0.045
 6870W        W10614   0.715   1.282   2.378
 6871W        W10615   6.960   2.246   2.721
 6872W        W10616   6.729   5.228   2.167
 6873W        W10617   7.940   8.411   8.792
 6874W        W10618   3.261   4.471   0.811
 6875W        W10619   0.760   6.287   0.398
 6876W        W10620   1.505   2.449   0.603
 6877W        W10621   7.081   4.725   8.627
 6878W        W10622   6.825   7.098  10.438
 6879W        W10623   1.414   6.407   8.988
 6880W        W10624   2.334   8.991   2.019
 6881W        W10625   9.807   4.231   1.224
 6882W        W10626   9.580   8.470   9.920
 6883W        W10627   8.813   0.434  11.135
 6884W        W10628   2.106   6.876  10.477
 6885W        W10629   3.869   5.723  11.434
 6886W        W10630   1.981   7.669  10.894
 6887W        W10631   9.861   8.356   0.740
 6888W        W10632   4.492   4.520   1.996
 6889W        W10633   4.889  10.444   2.511
 6890W        W10634   9.737   7.926   9.816
 6891W        W10635   7.700   1.325  11.940
 6892W        W10636   7.572   9.120  10.264
 6893W        W10637  10.377   2.483   1.449
 6894W        W10638   0.493   0.724  10.459
 6895W        W10639   2.115   6.467   0.104
 6896W        W10640   4.159   9.777   1.978
 6897W        W10641   8.000   8.849  10.096
 6898W        W10642   2.253   6.901  11.482
 6899W        W10643   7.088   4.496   2.428
 6900W        W10644   4.627   4.086   2.727
 6901W        W10645   8.874   0.499   2.765
 6902W        W10646   9.028   1.834   1.188
 6903W        W10647   9.424   2.754  10.905
 6904W        W10648   0.369   7.119  11.394
 6905W        W10649   6.981   3.635   1.058
 6906W        W10650   3.045   0.151   8.762
 6907W        W10651   9.878   9.953   2.392
 6908W        W10652   9.595   8.148   9.359
 6909W        W10653   5.031   4.110   1.413
 6910W        W10654   9.708   9.225   0.874
 6911W        W10655   6.519   1.242   0.383
 6912W        W10656   1.423   7.372   0.158
 6913W        W10657  10.116   9.069   2.188
 6914W        W10658  10.419   6.930   1.692
 6915W        W10659   2.530   0.503   8.941
 6916W        W10660   0.405   1.208   1.813
 6917W        W10661   3.328   7.580  11.769
 6918W        W10662   8.769   0.902   2.342
 6919W        W10663   4.081   4.539   3.211
 6920W        W10664   8.912   1.159   3.833
 6921W        W10665   2.809   5.562   1.243
 6922W        W10666   8.468   6.191  10.839
 6923W        W10667   9.433   7.501   1.745
 6924W        W10668   1.660   5.076  10.458
 6925W        W10669   5.569   2.260  11.693
 6926W        W10670   2.714  10.421  10.010
 6927W        W10671   9.071   9.021   9.641
 6928W        W10672   7.223   4.063   3.764
 6929W        W10673   3.881   1.046  11.427
 6930W        W10674   2.616   1.634  10.720
 6931W        W10675   0.724   5.845   2.959
 6932W        W10676   7.638   9.130   1.498
 6933W        W10677   5.963   9.886   8.562
 6934W        W10678   6.840   6.151   3.084
 6935W        W10679   6.372   2.344   9.371
 6936W        W10680   6.326   4.336  10.023
 6937W        W10681   7.171   0.927  10.487
 6938W        W10682   7.899   0.834  11.244
 6939W        W10683   3.123   3.223   1.168
 6940W        W10684   8.391   1.389   1.691
 6941W        W10685   9.109   0.784  11.937
 6942W        W10686   7.916   1.291   0.989
 6943W        W10687   5.328   5.689   0.683
 6944W        W10688   4.549   5.150   0.624
 6945W        W10689   9.683   3.175  10.674
 6946W        W10690   3.874   4.904   1.373
 6947W        W10691   8.808   0.406  11.633
 6948W        W10692   2.584   2.495   1.315
 6949W        W10693   9.443  10.019   1.194
 6950W        W10694   5.272   7.001  11.983
 6951W        W10695   5.843   6.764   3.689
 6952W        W10696   9.414   2.976   9.923
 6953W        W10697   9.040   4.062  11.879
 6954W        W10698   6.923   2.422   0.782
 6955W        W10699   4.857   2.111   1.936
 6956W        W10700   2.475   8.334   8.236
 6957W        W10701  10.007   6.856  10.918
 6958W        W10702   1.741   7.688   1.508
 6959W        W10703   2.844   9.931  10.924
 6960W        W10704   1.121   7.186   1.338
 6961W        W10705   1.922   7.447   0.419
 6962W        W10706  10.201   3.147  10.347
 6963W        W10707   4.585   1.642  11.528
 6964W        W10708   3.569   6.342  11.033
 6965W        W10709   7.227   6.593   8.876
 6966W        W10710   2.350   8.720   0.399
 6967W        W10711   0.296   9.708   2.274
 6968W        W10712   2.326   7.453   0.751
 6969W        W10713   0.188   2.684  11.803
 6970W        W10714   6.020   8.184   0.002
 6971W        W10715   9.332   1.732  11.320
 6972W        W10716   5.011   0.525  10.957
 6973W        W10717   9.705   6.662   8.579
 6974W        W10718   1.696   7.859   0.271
 6975W        W10719   7.948   9.842   2.410
 6976W        W10720   4.768   1.630   8.345
 6977W        W10721  10.039   1.431   1.724
 6978W        W10722   6.443   8.020   9.815
 6979W        W10723  10.430   5.607  10.506
 6980W        W10724   7.074   9.915   1.278
 6981W        W10725   3.046   4.599   9.027
 6982W        W10726   5.313   2.870   2.076
 6983W        W10727   1.209   8.010   0.867
 6984W        W10728   8.988   3.976   2.911
 6985W        W10729   1.267   1.943  11.338
 6986W        W10730   7.121   1.148   2.430
 6987W        W10731   5.986   1.584   2.793
 6988W        W10732   5.737   9.071   3.109
 6989W        W10733   0.478   3.078   0.733
 6990W        W10734   8.618   2.287   1.605
 6991W        W10735   4.388   1.206  11.969
 6992W        W10736   8.980   7.006   9.057
 6993W        W10737   5.209   3.062   3.039
 6994W        W10738   5.824   1.389  11.772
 6995W        W10739   3.242   6.650   1.045
 6996W        W10740   0.418   7.610  10.027
 6997W        W10741   8.937   7.817   1.225
 6998W        W10742   0.620   0.861   3.139
 6999W        W10743   7.124   1.768   2.452
 7000W        W10744   0.174   9.927  11.412
 7001W        W10745   0.776   4.167   0.213
 7002W        W10746  10.460   2.906   2.121
 7003W        W10747   8.052   3.755  10.295
 7004W        W10748   7.066  10.386  10.417
 7005W        W10749   7.938   5.652  10.728
 7006W        W10750   7.673   3.591   0.354
 7007W        W10751   9.812   7.862   0.697
 7008W        W10752   3.275   9.272   0.276
 7009W        W10753   0.018   3.208  11.874
 7010W        W10754   9.501  10.018   0.283
 7011W        W10755   3.153   4.600   8.179
 7012W        W10756   3.415   4.474   3.155
 7013W        W10757   0.994   3.817   2.763
 7014W        W10758   9.181  10.321   9.792
 7015W        W10759   2.634   6.494   1.671
 7016W        W10760   1.425   9.801   1.342
 7017W        W10761   4.241   0.473   2.210
 7018W        W10762   9.992   6.695   1.414
 7019W        W10763   4.930   7.150   3.797
 7020W        W10764   3.836   9.055  11.245
 7021W        W10765   4.587   0.898   2.271
 7022W        W10766   0.653   9.985   9.983
 7023W        W10767   3.174   7.141  10.827
 7024W        W10768   5.778   4.685  10.911
 7025W        W10769   7.332   0.877   1.124
 7026W        W10770   4.665   6.482   0.791
 7027W        W10771   5.423   5.416   0.224
 7028W        W10772  10.332   0.806  10.187
 7029W        W10773   6.868  10.263   9.447
 7030W        W10774   3.793   1.452  10.900
 7031W        W10775   9.894   4.068   0.384
 7032W        W10776   2.815   6.689   9.807
 7033W        W10777   2.356   8.534  10.862
 7034W        W10778   9.772   3.600   0.765
 7035W        W10779   5.143   9.820   2.972
 7036W        W10780   9.202   7.428   3.398
 7037W        W10781   4.722   3.622   2.957
 7038W        W10782   9.856   6.364  10.941
 7039W        W10783   2.651   1.698   2.624
 7040W        W10784   0.365   3.585  10.095
 7041W        W10785   7.559   4.426   2.641
 7042W        W10786   2.192   2.896   2.040
 7043W        W10787   1.572   3.667   1.385
 7044W        W10788   8.984   8.353  10.834
 7045W        W10789   1.772   3.150  10.460
 7046W        W10790   7.250   3.343   3.214
 7047W        W10791   1.898   8.969   9.600
 7048W        W10792   7.360   4.535  11.519
 7049W        W10793   2.223   5.562   1.904
 7050W        W10794   8.078   1.587  11.044
 7051W        W10795   2.639   4.665  10.021
 7052W        W10796   2.958  10.236   1.679
 7053W        W10797   8.958   1.798   9.833
 7054W        W10798   6.077   3.311   9.408
 7055W        W10799  10.029   0.381   9.021
 7056W        W10800   6.217   0.637   3.643
 7057W        W10801  10.331   1.382  10.476
 7058W        W10802   3.580   9.953  11.528
 7059W        W10803   5.007   9.945  11.202
 7060W        W10804   7.567   5.033   1.847
 7061W        W10805   8.692   3.654   9.043
 7062W        W10806   6.273   0.818  10.344
 7063W        W10807   2.501   3.998   9.410
 7064W        W10808   8.509   3.368  11.971
 7065W        W10809   3.801   0.250   2.965
 7066W        W10810   9.703   0.370  10.809
 7067W        W10811   6.935   5.982  10.655
 7068W        W10812   0.880   3.854   1.842
 7069W        W10813   8.138   4.636  10.310
 7070W        W10814   1.304   3.792   2.353
 7071W        W10815   6.984   8.308   9.759
 7072W        W10816  10.053   1.816  10.461
 7073W        W10817  10.255   5.980   1.758
 7074W        W10818   5.859   0.689   2.764
 7075W        W10819   0.955   8.985   3.530
 7076W        W10820   4.084   4.092  10.799
 7077W        W10821   4.721   8.640   1.688
 7078W        W10822   0.015   3.833   3.184
 7079W        W10823   1.622   1.976   1.516
 7080W        W10824   6.643   6.222   4.031
 7081W        W10825   8.605   1.732   0.918
 7082W        W10826   0.163   0.843   0.553
 7083W        W10827   0.997   4.660   0.265
 7084W        W10828   0.155   2.180   2.329
 7085W        W10829   1.807   7.162  10.858
 7086W        W10830   8.931   7.506  10.329
 7087W        W10831   8.546   2.131  11.478
 7088W        W10832   6.541   0.979  11.938
 7089W        W10833   9.683   8.956  11.106
 7090W        W10834   2.789   9.569  11.659
 7091W        W10835   7.803   6.577   0.664
 7092W        W10836   8.482   3.707  11.537
 7093W        W10837   0.366   5.035   1.341
 7094W        W10838   3.650   4.100  11.052
 7095W        W10839   6.155   7.019  10.957
 7096W        W10840   0.773   2.201   1.766
 7097W        W10841   2.377   3.800   1.644
 7098W        W10842   0.472   1.830   3.533
 7099W        W10843   8.395   7.420  11.427
 7100W        W10844   7.607   3.755   2.049
 7101W        W10845   6.609   1.222  11.499
 7102W        W10846   2.768   7.396   2.816
 7103W        W10847   0.609   4.598  10.794
 7104W        W10848   0.780   0.931   8.725
 7105W        W10849   6.251   4.948   0.050
 7106W        W10850   3.956   2.092  11.989
 7107W        W10851   2.957  10.317   3.193
 7108W        W10852   5.795   0.456   3.215
 7109W        W10853   2.196   8.716   8.472
 7110W        W10854   1.333   1.406   3.277
 7111W        W10855   0.145   8.933  10.899
 7112W        W10856   1.152   0.989   3.037
 7113W        W10857   3.277   4.138   8.991
 7114W        W10858   8.646   1.356   0.329
 7115W        W10859   6.595   6.516   0.886
 7116W        W10860   7.411   2.255  10.858
 7117W        W10861   3.425  10.284   1.884
 7118W        W10862   9.353   1.832   0.258
 7119W        W10863   6.261   7.876   0.793
 7120W        W10864   2.702   0.564   0.222
 7121W        W10865   5.772   4.919   0.491
 7122W        W10866   6.421   8.992  11.015
 7123W        W10867   6.249   0.395   9.992
 7124W        W10868   3.114   9.296  11.380
 7125W        W10869   6.515  10.404   9.098
 7126W        W10870   6.842   4.363  10.090
 7127W        W10871   9.958   2.170   8.864
 7128W        W10872   7.570   2.216   9.295
 7129W        W10873   1.308   7.950   9.056
 7130W        W10874   8.595   1.281   8.944
 7131W        W10875   7.881   3.851   9.249
 7132W        W10876   4.289   1.799   9.263
 7133W        W10877  10.477   4.707   3.511
 7134W        W10878   9.998   1.864   2.513
 7135W        W10879   2.568   9.001   1.167
 7136W        W10880   3.707   7.572  10.281
 7137W        W10881   8.404   3.743   9.928
 7138W        W10882   2.865   2.392   9.858
 7139W        W10883  10.342   1.631   8.627
 7140W        W10884   6.578   1.952   2.069
 7141W        W10885   4.081   7.817   0.305
 7142W        W10886   0.817   3.233   8.968
 7143W        W10887   3.591   5.514   9.886
 7144W        W10888   1.777  10.417   9.512
 7145W        W10889   9.917   0.162   0.856
 7146W        W10890   6.080   0.975   8.595
 7147W        W10891   7.265   7.763  11.952
 7148W        W10892   6.752   2.695   2.314
 7149W        W10893   3.688   0.817  10.531
 7150W        W10894   2.209   8.191   3.554
 7151W        W10895   8.331   3.690   9.422
 7152W        W10896   7.927   3.212   2.101
 7153W        W10897   0.931   3.206   1.858
 7154W        W10898   7.432   8.634  10.536
 7155W        W10899   0.813   0.634   9.585
 7156W        W10900   9.085   1.930  10.316
 7157W        W10901   9.110   9.282   1.384
 7158W        W10902   4.331   2.896  10.520
 7159W        W10903   8.468   1.310   1.194
 7160W        W10904   6.786   2.551   3.546
 7161W        W10905   4.122   6.124   9.638
 7162W        W10906   2.308  10.329  11.253
 7163W        W10907   2.935   3.259   9.944
 7164W        W10908   9.023   1.263  11.732
 7165W        W10909   1.863   0.188  10.535
 7166W        W10910   1.125   2.638   3.473
 7167W        W10911   9.536   2.611  11.988
 7168W        W10912   7.135   4.201   2.858
 7169W        W10913   0.689   6.028  10.718
 7170W        W10914   6.540   1.932  11.913
 7171W        W10915   2.646   4.061  10.897
 7172W        W10916   8.289   6.972   2.613
 7173W        W10917   0.942   8.493   0.932
 7174W        W10918   1.406   0.268   9.542
 7175W        W10919   1.527   5.073   9.333
 7176W        W10920   4.081   4.352   0.568
 7177W        W10921   4.130   8.361   3.620
 7178W        W10922   6.452   6.094   9.771
 7179W        W10923   8.102   2.117   9.998
 7180W        W10924   3.228   8.954   2.459
 7181W        W10925   7.984   0.193   3.479
 7182W        W10926   3.099   3.728  10.016
 7183W        W10927   4.023  10.218  11.416
 7184W        W10928   1.215   5.953   2.791
 7185W        W10929   0.913   1.312   1.901
 7186W        W10930   8.837   8.563   9.440
 7187W        W10931   4.297   6.621   2.912
 7188W        W10932   7.521   6.118   8.892
 7189W        W10933   0.683   1.960   9.382
 7190W        W10934   3.787   0.970   1.766
 7191W        W10935   6.987   0.102   2.153
 7192W        W10936   5.827   2.893   2.070
 7193W        W10937   9.826   8.840   0.064
 7194W        W10938   1.809  10.179  10.509
 7195W        W10939   3.098   2.277   2.368
 7196W        W10940   0.665   1.354   0.057
 7197W        W10941   2.167   2.399   0.638
 7198W        W10942   7.458   4.126   9.349
 7199W        W10943   3.365   0.759  11.383
 7200W        W10944   2.631  10.358   2.673
 7201W        W10945   0.009   5.534   9.037
 7202W        W10946   4.957   1.702   2.968
 7203W        W10947   3.934   4.508   0.101
 7204W        W10948   9.319   4.543   2.364
 7205W        W10949   9.211  10.139  10.355
 7206W        W10950   9.368   0.905   0.409
 7207W        W10951   1.219   2.746   9.297
 7208W        W10952   2.592   4.215   1.920
 7209W        W10953   3.107   5.550   9.733
 7210W        W10954   2.821   8.980   9.513
 7211W        W10955   5.523   6.053  10.748
 7212W        W10956   7.726   7.813   9.816
 7213W        W10957   3.057   2.696   8.854
 7214W        W10958   5.048  10.390   8.727
 7215W        W10959   6.506  10.462   0.012
 7216W        W10960   3.817   3.166   9.764
 7217W        W10961   7.838   6.473   0.171
 7218W        W10962   6.067   2.189   8.485
 7219W        W10963   3.204   3.199  11.047
 7220W        W10964   4.747  10.159   9.372
 7221W        W10965   4.122   7.046   9.783
 7222W        W10966  10.346   9.925   2.745
 7223W        W10967   4.087   2.644   1.870
 7224W        W10968   0.508   0.872   2.173
 7225W        W10969   1.344   1.457   0.765
 7226W        W10970   2.031   1.785   1.763
 7227W        W10971   3.751  10.075   2.209
 7228W        W10972   5.635   4.871  11.395
 7229W        W10973   9.846   7.722   2.260
 7230ION    NA+10974   7.987   7.175   8.901
 7231ION    NA+10975   8.823  10.444  11.961
 7232ION    NA+10976   0.417   6.517   3.646
 7233ION    NA+10977   6.628   1.821   3.081
 7234ION    NA+10978   0.000   3.689  11.507
 7235ION    NA+10979   1.315   8.653   2.922
 7236ION    NA+10980   9.968   6.475   0.953
 7237ION    NA+10981   4.895   0.344   9.408
 7238ION    NA+10982   2.964   4.750   0.166
 7239ION    NA+10983   0.055   0.457   9.023
 7240ION    NA+10984   7.346   4.578   8.181
 7241ION    NA+10985   0.192   9.070   9.257
 7242ION    NA+10986   5.287   7.093  11.055
 7243ION    NA+10987   5.206   3.070   9.043
 7244ION    NA+10988   6.380   8.913  10.115
 7245ION    NA+10989   1.437   6.737   9.809
 7246ION    NA+10990   4.058   1.971  11.069
 7247ION    NA+10991   1.590   0.252   0.947
 7248ION    NA+10992   2.749   0.350  10.813
 7249ION    NA+10993   2.307   2.510   1.752
 7250ION    NA+10994   9.414   0.163   2.031
 7251ION    NA+10995   0.471   7.724   1.355
 7252ION    NA+10996   7.778   0.768   3.772
 7253ION    NA+10997   7.914   3.766   9.756
 7254ION    NA+10998   0.242   5.312  10.814
 7255ION    NA+10999   3.804   4.791  11.223
 7256ION    NA+11000   7.051   1.990   0.516
 7257ION    NA+11001   3.618   9.295   2.426
 7258ION    NA+11002   6.643   3.517   1.883
 7259ION    NA+11003   3.250   6.614   9.482
 7260ION    NA+11004   1.642   4.979   1.361
 7261ION    NA+11005  10.432  10.394   2.970
 7262ION    NA+11006   2.674   1.990  11.112
 7263ION    NA+11007   7.010  10.061   9.002
 7264ION    NA+11008   9.361   3.270   0.793
 7265ION    NA+11009   1.694   1.795  11.071
 7266ION    NA+11010   1.719   2.998   9.181
 7267ION    NA+11011   4.532   6.795   9.597
 7268ION    NA+11012   1.784   7.159  11.536
 7269ION    NA+11013   3.845   0.948   0.623
 7270ION    NA+11014   0.297   9.156   0.333
 7271ION    NA+11015   9.401   1.464  10.454
 7272ION    NA+11016   7.585   2.113  11.345
 7273ION    NA+11017   9.641   5.253   3.470
 7274ION    NA+11018   4.533   5.150   0.093
 7275ION    NA+11019   0.929   5.394   0.120
 7276ION    NA+11020  10.104   9.620   9.544
 7277ION    NA+11021   3.310   6.630   2.629
 7278ION    NA+11022   2.725   9.346   1.948
 7279ION    NA+11023   5.920   9.124  10.977
 7280ION    NA+11024   4.938   3.276   8.102
 7281ION    NA+11025   5.393   4.870   1.641
 7282ION    NA+11026   9.651   3.714  11.127
 7283ION    NA+11027   0.278   5.153   1.835
 7284ION    NA+11028   1.150  10.079  11.622
 7285ION    NA+11029   1.714   0.409  10.986
 7286ION    NA+11030   4.111   8.154   1.040
 7287ION    NA+11031   5.104   2.396   1.192
 7288ION    NA+11032   1.074   9.017  11.843
 7289ION    NA+11033   0.295   8.005   2.872
 7290ION    NA+11034   6.288   9.620   1.880
 7291ION    NA+11035   4.982   4.749   0.891
 7292ION    NA+11036   0.667   0.781   0.756
 7293ION    NA+11037   1.118   9.760   3.138
 7294ION    NA+11038   3.807   0.896  10.045
 7295ION    NA+11039   1.893   7.768   9.742
 7296ION    NA+11040   5.252   5.586  11.759
 7297ION    NA+11041   3.930   0.086   9.470
 7298ION    NA+11042   2.817   0.183   0.536
 7299ION    NA+11043   7.862   0.682   2.204
 7300ION    NA+11044   2.019   0.542   0.005
 7301ION    NA+11045   4.750   3.650   1.929
 7302ION    NA+11046   1.017   8.201  11.882
 7303ION    NA+11047   6.813   7.588   0.705
 7304ION    NA+11048   2.752   7.952   2.304
 7305ION    NA+11049   4.375   8.637   9.933
 7306ION    CL-11050   5.135   4.952   1.275
 7307ION    CL-11051   4.867   5.384  11.888
 7308ION    CL-11052   9.006   2.801  10.244
 7309ION    CL-11053   8.569   1.391   9.441
 7310ION    CL-11054  10.370   3.226   1.751
 7311ION    CL-11055   5.474   6.853   1.452
 7312ION    CL-11056   1.688  10.078   8.587
 7313ION    CL-11057   8.581   8.789   9.824
 7314ION    CL-11058   9.215   0.217  10.891
 7315ION    CL-11059   3.201   2.787   3.412
 7316ION    CL-11060   1.928   8.206   9.660
 7317ION    CL-11061   2.797   3.619   1.086
 7318ION    CL-11062   7.344  10.167   9.294
 7319ION    CL-11063   0.628   7.316   1.253
 7320ION    CL-11064   2.679   1.874  11.544
 7321ION    CL-11065   1.181   8.582  11.699
 7322ION    CL-11066   1.307   2.952  11.726
 7323ION    CL-11067   3.727   8.909   2.231
 7324ION    CL-11068   4.657   0.506   1.908
 7325ION    CL-11069   9.106   2.648   8.760
 7326ION    CL-11070   2.851   0.567   2.007
 7327ION    CL-11071   3.929   0.809   1.042
 7328ION    CL-11072   6.795   9.019   9.989
 7329ION    CL-11073   8.534   9.147   0.527
 7330ION    CL-11074   9.411   4.360   9.645
 7331ION    CL-11075   6.734   9.563   1.949
 7332ION    CL-11076   9.333   3.494  10.887
 7333ION    CL-11077   7.874   8.912  10.615
 7334ION    CL-11078   2.902   4.513   3.216
 7335ION    CL-11079   2.671   1.269   1.318
 7336ION    CL-11080   0.632   9.046   0.013
 7337ION    CL-11081   0.164   8.951   0.723
 7338ION    CL-11082   2.082   3.816   0.415
 7339ION    CL-11083   1.540   2.951   8.765
 7340ION    CL-11084   4.437  10.009  11.973
 7341ION    CL-11085   1.275   8.615   2.470
 7342ION    CL-11086   2.456   7.662   2.471
 7343ION    CL-11087   5.107   9.219   9.498
 7344ION    CL-11088   4.748   9.915  10.297
 7345ION    CL-11089   8.338   5.338   8.750
 7346ION    CL-11090   6.575   1.409   3.267
 7347ION    CL-11091  10.072   3.716  11.350
 7348ION    CL-11092   9.838   7.998   1.768
 7349ION    CL-11093   6.835   7.186   0.945
 7350ION    CL-11094   2.246   1.881   0.517
 7351ION    CL-11095   5.055   2.892   9.423
 7352ION    CL-11096  10.476   9.369   9.520
 7353ION    CL-11097   4.199   3.540   3.723
 7354ION    CL-11098   5.858   7.815   1.144
 7355ION    CL-11099   2.525   4.688   0.210
 7356ION    CL-11100   3.123   5.185   8.854
 7357ION    CL-11101   4.851   4.561  10.702
 7358ION    CL-11102   7.175   8.399   1.731
 7359ION    CL-11103   4.007   2.352  11.296
 7360ION    CL-11104   1.195   9.142  10.143
 7361ION    CL-11105   6.802   9.959   8.598
 7362ION    CL-11106   7.977   4.506   1.384
 7363ION    CL-11107   0.269   9.878   0.432
 7364ION    CL-11108   2.594   6.469  11.920
 7365ION    CL-11109   8.001   6.134   9.504
 7366ION    CL-11110   1.368   8.677   3.399
 7367ION    CL-11111   9.264   5.028   8.683
 7368ION    CL-11112   0.644   5.128  10.885
 7369ION    CL-11113   5.176   3.435   4.100
 7370ION    CL-11114   6.912   7.934   0.420
 7371ION    CL-11115   5.843   9.671   1.799
 7372ION    CL-11116   4.020   5.062  10.945
 7373ION    CL-11117   3.482   6.869   2.964
 7374ION    CL-11118   0.562   1.151   0.531
 7375ION    CL-11119   8.475   8.210  10.997
 7376ION    CL-11120   8.914   6.933  10.795
 7377ION    CL-11121   8.394  10.175   3.071
 7378ION    CL-11122   4.188   2.275   9.384
 7379ION    CL-11123   3.193   0.622   8.490
 7380ION    CL-11124   2.240   2.883   1.510
 7381ION    CL-11125   1.293   9.785  11.931
  10.50000  10.50000  12.00000
