Protein in INSANE! Membrane UpperLeaflet>POPC=1.0 LowerLeaflet>POPC=1.0
10365
    1AU     AUC    1   4.936   5.220   6.099
    1AU     AUC    2   5.443   4.940   5.688
    1AU     AUC    3   5.655   5.113   5.975
    1AU     AUC    4   4.682   5.200   5.947
    1AU     AUC    5   4.896   5.365   6.273
    1AU     AUC    6   4.915   5.429   5.931
    1AU     AUC    7   5.274   5.252   5.593
    1AU     AUC    8   4.887   5.049   6.220
    1AU     AUC    9   5.285   4.878   6.163
    1AU     AUC   10   5.258   5.188   6.371
    1AU     AUC   11   5.249   5.512   6.249
    1AU     AUC   12   4.736   4.804   5.855
    1AU     AUC   13   4.846   5.209   5.618
    1AU     AUC   14   5.500   4.757   5.392
    1AU     AUC   15   5.718   4.968   5.659
    1AU     AUC   16   5.841   5.195   5.899
    1AU     AUC   17   4.387   5.242   5.886
    1AU     AUC   18   4.540   5.448   6.196
    1AU     AUC   19   4.781   5.587   6.489
    1AU     AUC   20   4.890   5.656   5.899
    1AU     AUC   21   5.158   5.447   5.778
    1AU     AUC   22   5.342   5.341   5.552
    1AU     AUC   23   4.707   4.953   6.375
    1AU     AUC   24   5.029   4.769   6.284
    1AU     AUC   25   5.365   4.802   6.115
    1AU     AUC   26   5.412   5.177   6.592
    1AU     AUC   27   5.437   5.420   6.465
    1AU     AUC   28   5.449   5.696   6.218
    1AU     AUC   29   4.712   4.568   5.690
    1AU     AUC   30   4.665   4.857   5.442
    1AU     AUC   31   4.812   5.197   5.343
    1AU     AUC   32   5.670   5.178   6.234
    1AU     AUC   33   5.661   5.487   6.003
    1AU     AUC   34   5.074   4.463   5.457
    1AU     AUC   35   5.183   5.021   5.148
    1AU     AUC   36   5.053   5.387   6.610
    1AU     AUC   37   5.136   5.643   6.462
    1AU     AUC   38   4.473   4.889   5.799
    1AU     AUC   39   4.567   5.155   5.615
    1AU     AUC   40   5.476   5.055   5.463
    1AU     AUC   41   5.631   5.346   5.659
    1AU     AUC   42   4.609   5.509   5.883
    1AU     AUC   43   4.802   5.663   6.211
    1AU     AUC   44   5.444   4.687   5.764
    1AU     AUC   45   5.681   4.903   6.066
    1AU     AUC   46   4.483   5.106   6.156
    1AU     AUC   47   4.656   5.278   6.453
    1AU     AUC   48   5.169   5.677   6.167
    1AU     AUC   49   5.404   5.635   5.848
    1AU     AUC   50   5.053   5.051   6.522
    1AU     AUC   51   5.423   4.951   6.391
    1AU     AUC   52   4.845   5.470   5.591
    1AU     AUC   53   5.072   5.259   5.488
    1AU     AUC   54   4.666   4.752   6.056
    1AU     AUC   55   5.012   4.568   5.896
    1AU    AUSL   56   6.049   5.328   6.016
    1AU    AUSL   57   5.796   5.218   6.405
    1AU     AUL   58   6.231   5.391   6.293
    1AU       S   59   6.188   4.979   6.678
    1AU     LIG   60   6.064   4.924   7.191
    1AU     LIG   61   5.757   4.863   7.646
    1AU     LIG   62   5.327   4.864   7.934
    1AU       S   63   6.324   5.203   5.830
    1AU     LIG   64   6.306   5.573   5.608
    1AU     LIG   65   6.064   5.988   5.390
    1AU     LIG   66   6.112   6.072   4.916
    1AU    AUSL   67   5.738   5.014   6.760
    1AU    AUSL   68   5.543   5.617   6.585
    1AU     AUL   69   5.816   5.399   6.982
    1AU       S   70   6.115   4.473   5.801
    1AU     LIG   71   5.831   3.927   5.538
    1AU     LIG   72   5.501   3.933   5.114
    1AU     LIG   73   5.202   3.874   4.738
    1AU       S   74   5.101   4.912   7.129
    1AU     LIG   75   4.414   4.357   7.210
    1AU     LIG   76   4.056   4.357   7.347
    1AU     LIG   77   4.025   4.557   7.731
    1AU    AUSL   78   5.781   5.601   6.207
    1AU    AUSL   79   5.838   5.611   5.760
    1AU     AUL   80   6.071   5.739   6.011
    1AU       S   81   6.196   4.628   5.546
    1AU     LIG   82   5.931   4.197   5.167
    1AU     LIG   83   5.578   4.225   4.721
    1AU     LIG   84   5.157   4.355   4.527
    1AU       S   85   5.319   5.592   5.087
    1AU     LIG   86   5.317   5.900   4.615
    1AU     LIG   87   5.485   6.316   4.691
    1AU     LIG   88   5.784   6.461   5.017
    1AU    AUSL   89   5.165   4.693   5.061
    1AU    AUSL   90   5.160   5.148   5.186
    1AU     AUL   91   4.979   4.917   4.749
    1AU       S   92   5.449   4.964   4.720
    1AU     LIG   93   6.039   5.282   4.779
    1AU     LIG   94   6.330   5.631   5.102
    1AU     LIG   95   6.566   5.976   5.458
    1AU       S   96   5.707   4.367   6.449
    1AU     LIG   97   4.724   4.635   7.060
    1AU     LIG   98   3.988   5.094   7.210
    1AU     LIG   99   3.524   5.145   7.111
    1AU    AUSL  100   4.847   4.511   5.277
    1AU    AUSL  101   5.379   4.438   5.364
    1AU     AUL  102   5.217   4.399   5.022
    1AU       S  103   5.384   4.057   5.581
    1AU     LIG  104   5.423   3.967   6.284
    1AU     LIG  105   5.878   3.825   6.258
    1AU     LIG  106   6.192   4.132   6.273
    1AU       S  107   5.418   4.762   4.721
    1AU     LIG  108   6.046   4.346   4.743
    1AU     LIG  109   6.183   3.802   5.076
    1AU     LIG  110   5.980   3.465   5.467
    1AU    AUSL  111   4.798   4.926   5.142
    1AU    AUSL  112   4.497   4.624   5.519
    1AU     AUL  113   4.563   4.589   5.100
    1AU       S  114   4.113   4.629   6.351
    1AU     LIG  115   3.650   4.592   6.834
    1AU     LIG  116   3.706   4.720   7.336
    1AU     LIG  117   3.941   5.046   7.691
    1AU       S  118   5.317   5.229   4.743
    1AU     LIG  119   5.704   5.763   4.912
    1AU     LIG  120   5.448   6.140   5.246
    1AU     LIG  121   5.405   6.478   5.669
    1AU    AUSL  122   5.117   5.656   6.743
    1AU    AUSL  123   5.261   5.941   6.469
    1AU     AUL  124   5.499   5.905   6.734
    1AU       S  125   5.039   4.960   7.250
    1AU     LIG  126   4.821   4.394   7.455
    1AU     LIG  127   4.582   3.918   7.363
    1AU     LIG  128   4.543   3.561   7.065
    1AU       S  129   4.898   5.386   7.114
    1AU     LIG  130   4.558   4.307   6.712
    1AU     LIG  131   4.716   3.837   6.671
    1AU     LIG  132   4.622   3.495   6.374
    1AU    AUSL  133   5.391   5.373   6.887
    1AU    AUSL  134   4.711   5.551   6.735
    1AU     AUL  135   5.115   5.778   6.938
    1AU       S  136   4.576   5.770   6.917
    1AU     LIG  137   4.659   6.328   6.780
    1AU     LIG  138   4.564   6.534   6.286
    1AU     LIG  139   4.322   6.716   5.884
    1AU       S  140   5.144   4.793   7.116
    1AU     LIG  141   5.282   4.210   6.867
    1AU     LIG  142   5.205   3.817   6.710
    1AU     LIG  143   5.097   3.371   6.692
    1AU    AUSL  144   4.204   4.924   5.654
    1AU    AUSL  145   4.338   4.582   5.915
    1AU     AUL  146   4.171   4.592   5.533
    1AU       S  147   4.166   4.542   6.395
    1AU     LIG  148   4.830   4.161   7.019
    1AU     LIG  149   5.195   4.111   7.342
    1AU     LIG  150   5.631   4.248   7.281
    1AU       S  151   4.036   4.449   5.956
    1AU     LIG  152   4.123   4.504   6.845
    1AU     LIG  153   4.406   4.786   7.448
    1AU     LIG  154   4.789   5.255   7.623
    1AU    AUSL  155   4.495   5.076   5.402
    1AU    AUSL  156   4.258   5.370   5.633
    1AU     AUL  157   4.127   5.122   5.378
    1AU       S  158   4.123   5.563   5.553
    1AU     LIG  159   3.909   5.651   6.353
    1AU     LIG  160   3.944   5.604   6.823
    1AU     LIG  161   3.776   5.583   7.247
    1AU       S  162   4.095   4.718   6.360
    1AU     LIG  163   4.337   4.911   7.006
    1AU     LIG  164   4.365   5.296   7.409
    1AU     LIG  165   4.422   5.450   7.889
    1AU    AUSL  166   5.590   5.287   5.281
    1AU    AUSL  167   5.491   4.871   5.248
    1AU     AUL  168   5.669   5.203   5.040
    1AU       S  169   5.776   4.206   5.934
    1AU     LIG  170   6.263   4.152   5.497
    1AU     LIG  171   6.377   4.542   5.114
    1AU     LIG  172   6.384   4.894   4.794
    1AU       S  173   5.835   4.766   4.902
    1AU     LIG  174   5.570   4.623   4.324
    1AU     LIG  175   5.293   5.043   4.245
    1AU     LIG  176   5.175   5.530   4.242
    1AU    AUSL  177   5.902   4.920   5.319
    1AU    AUSL  178   5.999   4.908   5.795
    1AU     AUL  179   6.248   5.048   5.398
    1AU       S  180   5.958   4.799   5.067
    1AU     LIG  181   6.015   4.749   4.476
    1AU     LIG  182   5.882   4.250   4.282
    1AU     LIG  183   5.493   3.943   4.285
    1AU       S  184   6.513   4.775   5.835
    1AU     LIG  185   6.679   4.457   5.533
    1AU     LIG  186   6.764   4.238   5.088
    1AU     LIG  187   6.591   4.430   4.652
    1AU    AUSL  188   5.886   5.245   5.578
    1AU    AUSL  189   5.544   5.677   5.456
    1AU     AUL  190   5.882   5.547   5.343
    1AU       S  191   5.253   5.651   5.038
    1AU     LIG  192   4.899   5.427   4.650
    1AU     LIG  193   4.602   5.139   4.468
    1AU     LIG  194   4.154   5.057   4.307
    1AU       S  195   5.721   4.566   5.039
    1AU     LIG  196   4.967   4.046   5.148
    1AU     LIG  197   4.379   3.769   5.588
    1AU     LIG  198   4.034   3.979   5.949
    1AU    AUSL  199   4.273   5.838   6.151
    1AU    AUSL  200   4.835   5.933   6.566
    1AU     AUL  201   4.405   6.026   6.509
    1AU       S  202   4.786   5.379   7.165
    1AU     LIG  203   4.865   4.812   7.660
    1AU     LIG  204   4.565   4.487   7.881
    1AU     LIG  205   4.299   4.122   7.742
    1AU       S  206   3.973   6.040   6.121
    1AU     LIG  207   3.448   5.736   6.333
    1AU     LIG  208   3.255   5.242   6.341
    1AU     LIG  209   3.183   4.904   6.641
    1AU    AUSL  210   4.469   5.638   5.856
    1AU    AUSL  211   4.768   5.878   5.702
    1AU     AUL  212   4.370   5.871   5.756
    1AU       S  213   3.919   5.890   5.836
    1AU     LIG  214   3.642   5.614   5.463
    1AU     LIG  215   3.518   5.480   4.950
    1AU     LIG  216   3.653   5.431   4.503
    1AU       S  217   4.334   5.945   5.316
    1AU     LIG  218   3.909   6.025   5.315
    1AU     LIG  219   3.667   5.966   4.966
    1AU     LIG  220   3.359   5.858   4.640
    1AU    AUSL  221   4.643   5.719   6.270
    1AU    AUSL  222   4.257   5.419   6.131
    1AU     AUL  223   4.619   6.042   6.087
    1AU       S  224   3.881   5.408   5.913
    1AU     LIG  225   3.953   5.530   5.136
    1AU     LIG  226   4.108   5.817   4.731
    1AU     LIG  227   4.413   5.603   4.385
    1AU       S  228   4.215   6.255   5.999
    1AU     LIG  229   4.178   6.412   5.507
    1AU     LIG  230   4.450   6.461   5.066
    1AU     LIG  231   4.770   6.646   4.743
    1AU    AUSL  232   5.720   4.649   5.998
    1AU    AUSL  233   6.031   4.937   6.207
    1AU     AUL  234   6.010   4.605   6.196
    1AU       S  235   6.444   4.659   6.079
    1AU     LIG  236   6.943   4.947   5.917
    1AU     LIG  237   7.087   5.007   6.326
    1AU     LIG  238   7.105   4.632   6.611
    1AU       S  239   6.229   4.938   6.443
    1AU     LIG  240   6.674   5.016   6.673
    1AU     LIG  241   6.789   5.455   6.547
    1AU     LIG  242   6.493   5.822   6.430
    1AU    AUSL  243   5.738   4.627   5.572
    1AU    AUSL  244   5.364   4.493   5.781
    1AU     AUL  245   5.706   4.387   5.539
    1AU       S  246   6.409   4.768   5.962
    1AU     LIG  247   6.609   5.120   6.203
    1AU     LIG  248   6.678   5.529   6.046
    1AU     LIG  249   6.969   5.857   6.217
    1AU       S  250   5.187   3.923   5.572
    1AU     LIG  251   4.585   4.147   5.414
    1AU     LIG  252   4.065   4.128   5.469
    1AU     LIG  253   3.640   4.274   5.718
    1AU    AUSL  254   4.289   5.122   6.456
    1AU    AUSL  255   4.156   5.025   6.044
    1AU     AUL  256   4.069   5.197   6.377
    1AU       S  257   3.875   4.841   5.966
    1AU     LIG  258   3.412   4.899   5.949
    1AU     LIG  259   3.119   5.193   5.832
    1AU     LIG  260   2.980   5.588   5.643
    1AU       S  261   3.789   5.318   6.031
    1AU     LIG  262   3.418   5.622   5.872
    1AU     LIG  263   3.456   6.059   5.528
    1AU     LIG  264   3.685   6.472   5.369
    1AU    AUSL  265   4.346   5.545   6.526
    1AU    AUSL  266   4.627   5.135   6.688
    1AU     AUL  267   4.345   5.320   6.785
    1AU       S  268   4.415   5.663   7.077
    1AU     LIG  269   4.138   6.042   6.931
    1AU     LIG  270   3.727   6.060   6.631
    1AU     LIG  271   3.227   6.141   6.537
    1AU       S  272   3.706   5.291   6.148
    1AU     LIG  273   3.613   4.731   6.366
    1AU     LIG  274   3.835   4.218   6.556
    1AU     LIG  275   4.132   3.994   6.943
    1AU    AUSL  276   5.462   5.855   6.110
    1AU    AUSL  277   5.015   5.866   6.098
    1AU     AUL  278   5.235   6.163   6.175
    1AU       S  279   5.024   5.395   7.130
    1AU     LIG  280   5.517   4.600   6.925
    1AU     LIG  281   5.935   4.463   6.903
    1AU     LIG  282   6.375   4.395   6.673
    1AU       S  283   5.078   4.280   6.411
    1AU     LIG  284   5.520   3.730   5.915
    1AU     LIG  285   6.150   3.791   5.865
    1AU     LIG  286   6.535   4.136   5.910
    1AU    AUSL  287   5.303   5.246   5.982
    1AU    AUSL  288   5.081   4.971   5.833
    1AU     AUL  289   5.409   4.418   6.178
    1AU       S  290   5.026   4.245   6.433
    1AU     LIG  291   4.350   3.960   6.384
    1AU     LIG  292   4.223   3.551   6.030
    1AU     LIG  293   3.891   3.656   5.591
    1AU       S  294   4.472   5.173   4.976
    1AU     LIG  295   4.090   4.750   5.089
    1AU     LIG  296   3.767   4.408   5.182
    1AU     LIG  297   3.571   3.968   5.326
    1AU    AUSL  298   5.290   5.606   5.781
    1AU    AUSL  299   5.383   5.993   5.730
    1AU     AUL  300   5.630   5.998   5.735
    1AU       S  301   5.051   5.755   4.977
    1AU     LIG  302   4.139   5.343   4.709
    1AU     LIG  303   3.693   5.032   5.065
    1AU     LIG  304   3.434   4.702   5.431
    1AU       S  305   4.504   4.717   6.655
    1AU     LIG  306   3.939   4.957   6.750
    1AU     LIG  307   3.635   5.274   6.643
    1AU     LIG  308   3.429   5.663   6.835
    1AU    AUSL  309   5.337   4.982   6.743
    1AU    AUSL  310   5.668   4.799   6.406
    1AU     AUL  311   5.890   5.332   6.565
    1AU       S  312   5.475   5.153   7.280
    1AU     LIG  313   5.256   5.473   7.547
    1AU     LIG  314   4.828   5.731   7.629
    1AU     LIG  315   4.581   6.087   7.547
    1AU       S  316   6.132   4.815   6.642
    1AU     LIG  317   6.319   5.410   6.783
    1AU     LIG  318   6.033   5.789   6.656
    1AU     LIG  319   5.819   6.076   6.368
    1AU    AUSL  320   4.938   4.836   6.619
    1AU    AUSL  321   5.023   5.245   6.721
    1AU     AUL  322   4.788   5.028   6.858
    1AU       S  323   5.533   5.042   7.172
    1AU     LIG  324   5.847   5.349   7.493
    1AU     LIG  325   5.915   5.797   7.616
    1AU     LIG  326   5.989   6.172   7.313
    1AU       S  327   4.697   5.831   7.110
    1AU     LIG  328   5.160   5.968   7.364
    1AU     LIG  329   5.584   5.750   7.229
    1AU     LIG  330   6.120   5.712   7.167
    1AU    AUSL  331   5.299   4.632   6.525
    1AU    AUSL  332   4.747   4.552   6.349
    1AU     AUL  333   4.999   4.585   6.724
    1AU       S  334   4.765   3.956   6.188
    1AU     LIG  335   5.093   3.621   6.248
    1AU     LIG  336   5.536   3.481   6.418
    1AU     LIG  337   5.984   3.500   6.630
    1AU       S  338   5.586   4.928   7.195
    1AU     LIG  339   5.341   4.605   7.505
    1AU     LIG  340   5.111   4.363   7.849
    1AU     LIG  341   4.802   4.007   7.801
    1AU    AUSL  342   4.643   5.528   5.455
    1AU    AUSL  343   5.097   4.849   5.475
    1AU     AUL  344   5.052   4.861   5.573
    1AU       S  345   4.394   5.377   5.070
    1AU     LIG  346   4.362   4.788   4.710
    1AU     LIG  347   4.249   4.252   4.952
    1AU     LIG  348   4.288   3.757   5.088
    1AU       S  349   5.674   4.176   5.945
    1AU     LIG  350   5.700   3.960   6.672
    1AU     LIG  351   5.586   3.570   6.930
    1AU     LIG  352   5.655   3.116   6.806
    1AU    AUSL  353   5.045   5.691   5.451
    1AU    AUSL  354   4.829   5.390   5.138
    1AU     AUL  355   4.784   5.828   5.320
    1AU       S  356   4.544   5.629   4.906
    1AU     LIG  357   4.750   5.936   4.632
    1AU     LIG  358   5.014   6.237   4.913
    1AU     LIG  359   5.001   6.563   5.249
    1AU       S  360   4.324   5.793   5.279
    1AU     LIG  361   4.644   6.274   5.482
    1AU     LIG  362   4.894   6.407   5.840
    1AU     LIG  363   4.888   6.862   5.997
    1AU    AUSL  364   4.691   4.344   5.938
    1AU    AUSL  365   4.496   4.845   6.225
    1AU     AUL  366   4.511   4.367   6.197
    1AU       S  367   3.880   4.673   5.925
    1AU     LIG  368   3.692   5.088   5.588
    1AU     LIG  369   3.301   5.276   5.363
    1AU     LIG  370   3.194   5.752   5.206
    1AU       S  371   4.660   4.041   5.875
    1AU     LIG  372   4.810   3.674   5.437
    1AU     LIG  373   4.785   3.606   4.970
    1AU     LIG  374   4.814   3.612   4.491
    1AU    AUSL  375   5.045   4.546   6.053
    1AU    AUSL  376   4.988   4.326   5.640
    1AU     AUL  377   5.125   4.163   5.957
    1AU       S  378   4.787   3.875   5.929
    1AU     LIG  379   5.103   3.461   5.777
    1AU     LIG  380   5.441   3.090   5.626
    1AU     LIG  381   5.697   2.817   5.293
    1AU       S  382   5.227   4.013   5.526
    1AU     LIG  383   5.472   3.558   5.428
    1AU     LIG  384   5.688   3.380   5.047
    1AU     LIG  385   5.909   3.408   4.619
    2POPC   NC3  386   3.513   1.410   8.121
    2POPC   PO4  387   3.114   0.811   8.178
    2POPC   GL1  388   3.330   0.824   7.762
    2POPC   GL2  389   3.540   1.103   7.697
    2POPC   C1A  390   3.152   0.875   7.326
    2POPC   D2A  391   3.100   0.967   6.879
    2POPC   C3A  392   3.376   0.952   6.499
    2POPC   C4A  393   3.336   0.900   6.038
    2POPC   C1B  394   3.479   1.265   7.270
    2POPC   C2B  395   3.450   1.351   6.829
    2POPC   C3B  396   3.746   1.325   6.512
    2POPC   C4B  397   3.791   1.139   6.124
    3POPC   NC3  398   7.266   0.322   8.122
    3POPC   PO4  399   7.851   9.956   7.994
    3POPC   GL1  400   7.541   0.169   7.711
    3POPC   GL2  401   7.366   0.527   7.671
    3POPC   C1A  402   7.411   0.177   7.293
    3POPC   D2A  403   7.530   0.430   6.930
    3POPC   C3A  404   7.360   0.371   6.527
    3POPC   C4A  405   7.402   0.081   6.173
    3POPC   C1B  406   7.173   0.656   7.279
    3POPC   C2B  407   7.205   0.784   6.872
    3POPC   C3B  408   7.117   0.853   6.457
    3POPC   C4B  409   7.271   0.739   6.053
    4POPC   NC3  410   1.128   1.411   8.189
    4POPC   PO4  411   0.801   0.783   8.076
    4POPC   GL1  412   0.902   1.108   7.785
    4POPC   GL2  413   1.251   1.060   7.837
    4POPC   C1A  414   1.123   1.284   7.391
    4POPC   D2A  415   1.361   1.396   6.995
    4POPC   C3A  416   1.204   1.305   6.568
    4POPC   C4A  417   1.031   1.461   6.159
    4POPC   C1B  418   1.339   0.825   7.482
    4POPC   C2B  419   1.277   0.881   7.073
    4POPC   C3B  420   1.465   0.780   6.700
    4POPC   C4B  421   1.375   0.909   6.313
    5POPC   NC3  422   0.662   5.105   8.065
    5POPC   PO4  423   0.105   4.638   7.930
    5POPC   GL1  424   0.485   4.790   7.629
    5POPC   GL2  425   0.646   5.134   7.572
    5POPC   C1A  426   0.612   4.876   7.145
    5POPC   D2A  427   0.434   5.026   6.727
    5POPC   C3A  428   0.674   4.966   6.324
    5POPC   C4A  429   0.875   4.847   5.929
    5POPC   C1B  430   0.395   5.327   7.265
    5POPC   C2B  431   0.077   5.387   6.995
    5POPC   C3B  432   9.963   5.346   6.598
    5POPC   C4B  433   0.180   5.120   6.274
    6POPC   NC3  434   6.296   7.566   8.589
    6POPC   PO4  435   5.772   7.755   8.149
    6POPC   GL1  436   5.642   8.023   7.742
    6POPC   GL2  437   5.649   8.390   7.782
    6POPC   C1A  438   5.691   8.073   7.249
    6POPC   D2A  439   5.553   7.993   6.790
    6POPC   C3A  440   5.913   7.885   6.480
    6POPC   C4A  441   6.327   7.640   6.453
    6POPC   C1B  442   5.429   8.502   7.394
    6POPC   C2B  443   5.597   8.468   6.943
    6POPC   C3B  444   5.680   8.360   6.455
    6POPC   C4B  445   5.700   8.427   5.969
    7POPC   NC3  446   0.297   8.147   8.234
    7POPC   PO4  447   0.820   7.696   8.163
    7POPC   GL1  448   0.457   7.867   7.839
    7POPC   GL2  449   0.362   8.253   7.743
    7POPC   C1A  450   0.212   7.893   7.430
    7POPC   D2A  451   0.407   7.865   7.016
    7POPC   C3A  452   0.155   7.929   6.632
    7POPC   C4A  453   0.174   7.746   6.209
    7POPC   C1B  454   0.507   8.301   7.294
    7POPC   C2B  455   0.443   8.334   6.818
    7POPC   C3B  456   0.569   8.183   6.405
    7POPC   C4B  457   0.866   8.296   6.041
    8POPC   NC3  458   8.558   6.417   8.167
    8POPC   PO4  459   9.224   6.289   8.338
    8POPC   GL1  460   9.030   6.392   7.917
    8POPC   GL2  461   8.970   6.720   7.765
    8POPC   C1A  462   8.908   6.318   7.456
    8POPC   D2A  463   8.692   6.537   7.102
    8POPC   C3A  464   8.740   6.575   6.658
    8POPC   C4A  465   8.991   6.499   6.296
    8POPC   C1B  466   8.957   6.909   7.314
    8POPC   C2B  467   9.097   6.921   6.842
    8POPC   C3B  468   8.926   6.993   6.418
    8POPC   C4B  469   8.688   6.859   6.045
    9POPC   NC3  470   2.545   6.271   8.080
    9POPC   PO4  471   2.665   6.900   8.161
    9POPC   GL1  472   2.512   6.703   7.751
    9POPC   GL2  473   2.731   6.443   7.631
    9POPC   C1A  474   2.456   6.733   7.287
    9POPC   D2A  475   2.596   6.602   6.871
    9POPC   C3A  476   2.428   6.773   6.524
    9POPC   C4A  477   2.638   6.882   6.143
    9POPC   C1B  478   2.951   6.635   7.259
    9POPC   C2B  479   3.079   6.818   6.842
    9POPC   C3B  480   3.075   6.765   6.385
    9POPC   C4B  481   2.941   6.499   6.035
   10POPC   NC3  482   7.536   9.606   7.981
   10POPC   PO4  483   6.950   9.891   8.140
   10POPC   GL1  484   7.136   9.848   7.707
   10POPC   GL2  485   7.188   9.487   7.631
   10POPC   C1A  486   7.043   9.810   7.252
   10POPC   D2A  487   7.105   0.090   6.889
   10POPC   C3A  488   7.041   9.932   6.506
   10POPC   C4A  489   6.844   9.955   6.116
   10POPC   C1B  490   7.498   9.599   7.290
   10POPC   C2B  491   7.347   9.612   6.852
   10POPC   C3B  492   7.446   9.586   6.411
   10POPC   C4B  493   7.684   9.669   5.995
   11POPC   NC3  494   7.969   4.822   8.075
   11POPC   PO4  495   8.001   4.170   8.353
   11POPC   GL1  496   8.167   4.332   7.906
   11POPC   GL2  497   8.502   4.356   7.798
   11POPC   C1A  498   8.181   4.170   7.450
   11POPC   D2A  499   8.291   4.007   7.025
   11POPC   C3A  500   8.119   4.101   6.586
   11POPC   C4A  501   7.845   4.115   6.198
   11POPC   C1B  502   8.561   4.517   7.361
   11POPC   C2B  503   8.688   4.347   6.939
   11POPC   C3B  504   8.613   4.505   6.506
   11POPC   C4B  505   8.311   4.436   6.173
   12POPC   NC3  506   3.338   2.059   8.220
   12POPC   PO4  507   3.784   2.571   8.124
   12POPC   GL1  508   3.573   2.268   7.819
   12POPC   GL2  509   3.493   1.896   7.761
   12POPC   C1A  510   3.528   2.254   7.367
   12POPC   D2A  511   3.312   2.347   6.954
   12POPC   C3A  512   3.513   2.312   6.543
   12POPC   C4A  513   3.490   2.110   6.120
   12POPC   C1B  514   3.747   1.686   7.421
   12POPC   C2B  515   3.857   1.651   6.951
   12POPC   C3B  516   3.626   1.806   6.566
   12POPC   C4B  517   3.201   1.822   6.428
   13POPC   NC3  518   9.229   5.928   8.058
   13POPC   PO4  519   9.514   5.348   8.161
   13POPC   GL1  520   9.200   5.439   7.877
   13POPC   GL2  521   9.431   5.657   7.676
   13POPC   C1A  522   8.965   5.469   7.494
   13POPC   D2A  523   9.165   5.314   7.119
   13POPC   C3A  524   9.075   5.549   6.742
   13POPC   C4A  525   8.928   5.639   6.338
   13POPC   C1B  526   9.262   5.817   7.270
   13POPC   C2B  527   8.908   5.982   7.034
   13POPC   C3B  528   8.907   6.081   6.612
   13POPC   C4B  529   8.623   6.084   6.284
   14POPC   NC3  530   1.989   4.407   8.317
   14POPC   PO4  531   1.420   4.243   8.014
   14POPC   GL1  532   1.702   4.356   7.712
   14POPC   GL2  533   1.943   4.551   7.831
   14POPC   C1A  534   1.724   4.408   7.274
   14POPC   D2A  535   1.668   4.191   6.861
   14POPC   C3A  536   1.768   4.419   6.487
   14POPC   C4A  537   1.796   4.193   6.084
   14POPC   C1B  538   2.171   4.304   7.514
   14POPC   C2B  539   2.148   4.181   7.056
   14POPC   C3B  540   2.144   4.090   6.589
   14POPC   C4B  541   2.234   4.388   6.241
   15POPC   NC3  542   4.361   9.021   8.147
   15POPC   PO4  543   3.915   8.505   8.244
   15POPC   GL1  544   3.874   8.755   7.791
   15POPC   GL2  545   4.042   9.090   7.728
   15POPC   C1A  546   3.746   8.928   7.337
   15POPC   D2A  547   3.926   8.826   6.908
   15POPC   C3A  548   4.081   9.052   6.525
   15POPC   C4A  549   4.163   9.215   6.059
   15POPC   C1B  550   4.235   8.823   7.376
   15POPC   C2B  551   4.503   8.680   7.066
   15POPC   C3B  552   4.531   8.891   6.677
   15POPC   C4B  553   4.445   8.815   6.215
   16POPC   NC3  554   0.381   1.098   7.966
   16POPC   PO4  555   0.702   1.641   8.085
   16POPC   GL1  556   0.524   1.537   7.684
   16POPC   GL2  557   0.186   1.427   7.576
   16POPC   C1A  558   0.631   1.359   7.279
   16POPC   D2A  559   0.878   1.180   6.939
   16POPC   C3A  560   0.693   1.226   6.512
   16POPC   C4A  561   0.363   1.480   6.333
   16POPC   C1B  562   0.212   1.050   7.313
   16POPC   C2B  563   0.361   1.104   6.897
   16POPC   C3B  564   0.193   1.017   6.495
   16POPC   C4B  565   0.187   0.995   6.044
   17POPC   NC3  566   7.967   5.761   7.983
   17POPC   PO4  567   8.617   5.884   8.056
   17POPC   GL1  568   8.420   5.753   7.664
   17POPC   GL2  569   8.240   6.091   7.680
   17POPC   C1A  570   8.554   5.629   7.203
   17POPC   D2A  571   8.557   5.672   6.708
   17POPC   C3A  572   8.132   5.596   6.491
   17POPC   C4A  573   7.780   5.763   6.251
   17POPC   C1B  574   8.435   6.131   7.256
   17POPC   C2B  575   8.414   6.180   6.781
   17POPC   C3B  576   8.129   6.124   6.394
   17POPC   C4B  577   7.935   6.175   5.949
   18POPC   NC3  578   5.757   0.404   8.341
   18POPC   PO4  579   6.231   9.915   8.334
   18POPC   GL1  580   6.060   0.317   7.941
   18POPC   GL2  581   5.761   0.547   7.859
   18POPC   C1A  582   5.891   0.286   7.454
   18POPC   D2A  583   6.008   9.997   7.111
   18POPC   C3A  584   6.072   0.074   6.671
   18POPC   C4A  585   5.920   0.047   6.274
   18POPC   C1B  586   5.562   0.668   7.438
   18POPC   C2B  587   5.769   0.762   7.032
   18POPC   C3B  588   5.788   0.520   6.623
   18POPC   C4B  589   5.965   0.553   6.211
   19POPC   NC3  590   9.528   6.572   8.107
   19POPC   PO4  591   0.206   6.253   8.153
   19POPC   GL1  592   9.950   6.482   7.789
   19POPC   GL2  593   9.823   6.785   7.737
   19POPC   C1A  594   9.799   6.513   7.287
   19POPC   D2A  595   9.904   6.434   6.812
   19POPC   C3A  596   9.851   6.552   6.339
   19POPC   C4A  597   9.932   6.350   5.858
   19POPC   C1B  598   9.419   6.777   7.492
   19POPC   C2B  599   9.286   6.526   7.105
   19POPC   C3B  600   9.404   6.563   6.629
   19POPC   C4B  601   9.394   6.864   6.258
   20POPC   NC3  602   9.542   1.024   8.447
   20POPC   PO4  603   9.988   1.362   8.033
   20POPC   GL1  604   9.679   1.290   7.715
   20POPC   GL2  605   9.334   1.231   7.847
   20POPC   C1A  606   9.715   1.241   7.279
   20POPC   D2A  607   9.846   0.997   6.926
   20POPC   C3A  608   9.696   1.102   6.511
   20POPC   C4A  609   9.721   0.811   6.172
   20POPC   C1B  610   9.215   1.156   7.397
   20POPC   C2B  611   9.321   1.138   6.934
   20POPC   C3B  612   9.371   1.483   6.607
   20POPC   C4B  613   9.429   1.598   6.154
   21POPC   NC3  614   1.831   8.055   7.996
   21POPC   PO4  615   2.283   7.582   8.051
   21POPC   GL1  616   2.184   7.798   7.638
   21POPC   GL2  617   1.855   8.025   7.500
   21POPC   C1A  618   2.270   7.953   7.235
   21POPC   D2A  619   2.032   7.926   6.870
   21POPC   C3A  620   2.314   7.930   6.514
   21POPC   C4A  621   2.461   8.083   6.116
   21POPC   C1B  622   1.496   8.301   7.388
   21POPC   C2B  623   1.359   8.316   6.959
   21POPC   C3B  624   1.655   8.190   6.626
   21POPC   C4B  625   1.954   8.176   6.282
   22POPC   NC3  626   4.158   1.505   8.178
   22POPC   PO4  627   4.698   1.118   8.413
   22POPC   GL1  628   4.598   1.343   7.969
   22POPC   GL2  629   4.291   1.180   7.813
   22POPC   C1A  630   4.634   1.273   7.442
   22POPC   D2A  631   4.426   1.036   7.027
   22POPC   C3A  632   4.601   0.931   6.548
   22POPC   C4A  633   4.602   1.103   6.061
   22POPC   C1B  634   3.994   1.237   7.474
   22POPC   C2B  635   3.920   1.155   7.016
   22POPC   C3B  636   4.028   0.919   6.639
   22POPC   C4B  637   4.223   1.217   6.353
   23POPC   NC3  638   7.729   7.009   8.075
   23POPC   PO4  639   8.320   7.494   8.124
   23POPC   GL1  640   8.041   7.313   7.831
   23POPC   GL2  641   8.247   7.393   7.619
   23POPC   C1A  642   7.917   7.111   7.395
   23POPC   D2A  643   8.105   7.189   6.972
   23POPC   C3A  644   7.906   7.064   6.571
   23POPC   C4A  645   7.674   7.033   6.181
   23POPC   C1B  646   8.252   7.632   7.267
   23POPC   C2B  647   8.425   7.624   6.865
   23POPC   C3B  648   8.345   7.623   6.417
   23POPC   C4B  649   8.337   7.436   5.987
   24POPC   NC3  650   9.224   3.503   8.033
   24POPC   PO4  651   8.750   3.962   8.037
   24POPC   GL1  652   8.881   3.688   7.707
   24POPC   GL2  653   8.811   3.310   7.781
   24POPC   C1A  654   9.163   3.772   7.375
   24POPC   D2A  655   9.333   3.601   6.993
   24POPC   C3A  656   9.094   3.716   6.625
   24POPC   C4A  657   8.864   3.567   6.260
   24POPC   C1B  658   9.035   3.295   7.383
   24POPC   C2B  659   8.902   3.311   6.941
   24POPC   C3B  660   9.033   3.163   6.523
   24POPC   C4B  661   8.802   3.058   6.108
   25POPC   NC3  662   0.211   1.765   8.101
   25POPC   PO4  663   0.452   2.207   8.453
   25POPC   GL1  664   0.403   2.151   7.866
   25POPC   GL2  665   0.676   2.037   7.679
   25POPC   C1A  666   0.178   2.124   7.440
   25POPC   D2A  667   9.959   2.185   7.018
   25POPC   C3A  668   0.133   1.982   6.649
   25POPC   C4A  669   0.190   1.995   6.200
   25POPC   C1B  670   0.594   1.902   7.257
   25POPC   C2B  671   0.602   2.091   6.841
   25POPC   C3B  672   0.657   1.958   6.414
   25POPC   C4B  673   0.607   1.756   5.989
   26POPC   NC3  674   9.878   4.368   8.235
   26POPC   PO4  675   9.352   4.718   7.938
   26POPC   GL1  676   9.672   4.551   7.682
   26POPC   GL2  677   9.827   4.204   7.753
   26POPC   C1A  678   9.665   4.649   7.253
   26POPC   D2A  679   9.428   4.602   6.863
   26POPC   C3A  680   9.567   4.523   6.431
   26POPC   C4A  681   9.520   4.672   5.980
   26POPC   C1B  682   9.923   4.217   7.318
   26POPC   C2B  683   9.901   4.370   6.878
   26POPC   C3B  684   0.017   4.193   6.484
   26POPC   C4B  685   9.927   3.813   6.233
   27POPC   NC3  686   7.281   0.968   8.126
   27POPC   PO4  687   7.702   1.391   7.836
   27POPC   GL1  688   7.273   1.327   7.668
   27POPC   GL2  689   7.114   1.007   7.654
   27POPC   C1A  690   7.187   1.228   7.208
   27POPC   D2A  691   7.364   1.255   6.784
   27POPC   C3A  692   7.052   1.355   6.462
   27POPC   C4A  693   6.998   1.170   6.031
   27POPC   C1B  694   7.561   0.932   7.421
   27POPC   C2B  695   7.741   0.919   6.994
   27POPC   C3B  696   7.627   0.851   6.566
   27POPC   C4B  697   7.480   1.166   6.275
   28POPC   NC3  698   9.300   4.962   8.322
   28POPC   PO4  699   8.614   4.922   8.106
   28POPC   GL1  700   8.867   4.748   7.713
   28POPC   GL2  701   9.110   4.994   7.594
   28POPC   C1A  702   9.065   4.593   7.271
   28POPC   D2A  703   8.950   4.786   6.845
   28POPC   C3A  704   9.078   4.748   6.406
   28POPC   C4A  705   9.039   4.810   5.947
   28POPC   C1B  706   8.755   5.024   7.309
   28POPC   C2B  707   8.704   5.216   6.928
   28POPC   C3B  708   8.760   5.184   6.508
   28POPC   C4B  709   8.494   5.386   6.213
   29POPC   NC3  710   6.017   8.882   8.427
   29POPC   PO4  711   5.472   9.269   8.265
   29POPC   GL1  712   5.693   9.238   7.869
   29POPC   GL2  713   5.872   8.906   7.852
   29POPC   C1A  714   5.800   9.210   7.435
   29POPC   D2A  715   5.962   9.144   7.023
   29POPC   C3A  716   5.717   9.212   6.643
   29POPC   C4A  717   5.395   9.179   6.321
   29POPC   C1B  718   5.910   8.703   7.429
   29POPC   C2B  719   6.131   8.664   7.048
   29POPC   C3B  720   5.930   8.740   6.675
   29POPC   C4B  721   5.764   8.834   6.279
   30POPC   NC3  722   5.044   8.888   8.196
   30POPC   PO4  723   4.446   8.629   7.937
   30POPC   GL1  724   4.836   8.755   7.726
   30POPC   GL2  725   4.896   9.140   7.729
   30POPC   C1A  726   4.954   8.823   7.282
   30POPC   D2A  727   4.922   9.247   7.130
   30POPC   C3A  728   4.902   9.258   6.684
   30POPC   C4A  729   4.928   8.924   6.389
   30POPC   C1B  730   5.325   9.038   7.540
   30POPC   C2B  731   5.478   8.940   7.095
   30POPC   C3B  732   5.365   8.797   6.652
   30POPC   C4B  733   5.301   8.654   6.213
   31POPC   NC3  734   5.894   9.669   8.085
   31POPC   PO4  735   5.382   0.058   8.307
   31POPC   GL1  736   5.614   0.023   7.841
   31POPC   GL2  737   5.781   9.731   7.579
   31POPC   C1A  738   5.418   0.053   7.407
   31POPC   D2A  739   5.565   0.253   7.016
   31POPC   C3A  740   5.513   0.035   6.599
   31POPC   C4A  741   5.578   9.669   6.306
   31POPC   C1B  742   6.148   9.545   7.281
   31POPC   C2B  743   6.270   9.580   6.853
   31POPC   C3B  744   6.045   9.578   6.466
   31POPC   C4B  745   5.899   9.302   6.136
   32POPC   NC3  746   7.169   2.450   8.198
   32POPC   PO4  747   7.220   3.122   8.196
   32POPC   GL1  748   7.261   2.793   7.838
   32POPC   GL2  749   7.526   2.847   7.632
   32POPC   C1A  750   7.121   2.613   7.427
   32POPC   D2A  751   7.282   2.632   7.004
   32POPC   C3A  752   7.100   2.636   6.592
   32POPC   C4A  753   7.162   2.984   6.306
   32POPC   C1B  754   7.801   2.682   7.312
   32POPC   C2B  755   7.767   2.547   6.899
   32POPC   C3B  756   7.593   2.697   6.484
   32POPC   C4B  757   7.614   2.877   6.037
   33POPC   NC3  758   8.974   9.264   8.311
   33POPC   PO4  759   9.223   8.582   8.285
   33POPC   GL1  760   9.083   8.853   7.905
   33POPC   GL2  761   8.739   8.827   8.003
   33POPC   C1A  762   9.115   8.964   7.417
   33POPC   D2A  763   9.165   8.759   7.007
   33POPC   C3A  764   9.151   8.997   6.649
   33POPC   C4A  765   8.957   8.969   6.271
   33POPC   C1B  766   8.613   8.902   7.568
   33POPC   C2B  767   8.686   8.913   7.101
   33POPC   C3B  768   8.690   8.746   6.657
   33POPC   C4B  769   8.459   8.683   6.248
   34POPC   NC3  770   5.043   0.371   8.195
   34POPC   PO4  771   4.645   0.850   7.940
   34POPC   GL1  772   4.872   0.526   7.701
   34POPC   GL2  773   4.721   0.184   7.652
   34POPC   C1A  774   5.086   0.480   7.284
   34POPC   D2A  775   5.281   0.655   6.897
   34POPC   C3A  776   5.062   0.591   6.500
   34POPC   C4A  777   5.092   0.559   6.022
   34POPC   C1B  778   4.717   0.124   7.185
   34POPC   C2B  779   5.052   0.192   6.823
   34POPC   C3B  780   5.058   0.104   6.329
   34POPC   C4B  781   4.877   0.122   5.860
   35POPC   NC3  782   0.293   6.756   8.225
   35POPC   PO4  783   0.840   6.615   8.121
   35POPC   GL1  784   0.777   6.453   7.723
   35POPC   GL2  785   0.456   6.491   7.773
   35POPC   C1A  786   0.766   6.591   7.310
   35POPC   D2A  787   0.735   6.902   6.989
   35POPC   C3A  788   0.792   6.702   6.604
   35POPC   C4A  789   0.688   6.806   6.191
   35POPC   C1B  790   0.282   6.482   7.379
   35POPC   C2B  791   0.428   6.424   6.943
   35POPC   C3B  792   0.332   6.488   6.510
   35POPC   C4B  793   0.184   6.165   6.246
   36POPC   NC3  794   7.619   8.625   7.958
   36POPC   PO4  795   7.834   9.254   8.045
   36POPC   GL1  796   7.521   9.108   7.762
   36POPC   GL2  797   7.202   8.976   7.907
   36POPC   C1A  798   7.610   9.078   7.311
   36POPC   D2A  799   7.835   9.082   6.910
   36POPC   C3A  800   7.629   9.028   6.512
   36POPC   C4A  801   7.529   9.185   6.078
   36POPC   C1B  802   7.223   8.783   7.480
   36POPC   C2B  803   7.306   8.708   7.046
   36POPC   C3B  804   7.039   8.692   6.680
   36POPC   C4B  805   7.192   8.862   6.299
   37POPC   NC3  806   1.902   8.757   8.143
   37POPC   PO4  807   2.195   8.261   7.798
   37POPC   GL1  808   1.903   8.550   7.663
   37POPC   GL2  809   1.999   8.931   7.680
   37POPC   C1A  810   1.889   8.643   7.238
   37POPC   D2A  811   2.045   8.944   6.953
   37POPC   C3A  812   2.057   8.758   6.538
   37POPC   C4A  813   1.690   8.629   6.294
   37POPC   C1B  814   2.194   9.255   7.392
   37POPC   C2B  815   2.410   9.305   6.972
   37POPC   C3B  816   2.248   9.251   6.560
   37POPC   C4B  817   1.917   9.155   6.236
   38POPC   NC3  818   0.689   6.189   8.151
   38POPC   PO4  819   0.471   5.568   7.969
   38POPC   GL1  820   0.504   5.963   7.748
   38POPC   GL2  821   0.844   5.924   7.698
   38POPC   C1A  822   0.548   6.062   7.321
   38POPC   D2A  823   0.450   5.786   6.975
   38POPC   C3A  824   0.530   5.975   6.573
   38POPC   C4A  825   0.741   6.263   6.287
   38POPC   C1B  826   0.804   5.612   7.324
   38POPC   C2B  827   0.749   5.385   6.902
   38POPC   C3B  828   0.577   5.461   6.472
   38POPC   C4B  829   0.205   5.663   6.283
   39POPC   NC3  830   2.093   7.163   8.138
   39POPC   PO4  831   1.503   7.674   8.094
   39POPC   GL1  832   1.740   7.570   7.707
   39POPC   GL2  833   2.002   7.319   7.669
   39POPC   C1A  834   1.894   7.584   7.248
   39POPC   D2A  835   1.801   7.404   6.835
   39POPC   C3A  836   1.874   7.659   6.477
   39POPC   C4A  837   2.104   7.667   6.071
   39POPC   C1B  838   2.232   7.177   7.325
   39POPC   C2B  839   2.187   7.059   6.888
   39POPC   C3B  840   2.240   7.273   6.484
   39POPC   C4B  841   2.250   7.176   6.031
   40POPC   NC3  842   6.532   0.118   8.027
   40POPC   PO4  843   6.954   0.655   7.998
   40POPC   GL1  844   6.901   0.315   7.729
   40POPC   GL2  845   6.588   0.473   7.662
   40POPC   C1A  846   6.864   0.273   7.292
   40POPC   D2A  847   6.741   0.550   6.940
   40POPC   C3A  848   6.847   0.432   6.489
   40POPC   C4A  849   6.740   0.683   6.119
   40POPC   C1B  850   6.369   0.345   7.330
   40POPC   C2B  851   6.194   0.466   6.968
   40POPC   C3B  852   6.351   0.553   6.571
   40POPC   C4B  853   6.401   0.286   6.244
   41POPC   NC3  854   8.907   7.354   8.162
   41POPC   PO4  855   8.452   6.858   8.213
   41POPC   GL1  856   8.643   7.111   7.791
   41POPC   GL2  857   9.039   7.256   7.682
   41POPC   C1A  858   8.687   7.373   7.363
   41POPC   D2A  859   8.986   7.369   7.042
   41POPC   C3A  860   8.840   7.431   6.658
   41POPC   C4A  861   8.795   7.474   6.233
   41POPC   C1B  862   9.196   7.638   7.404
   41POPC   C2B  863   9.380   7.720   6.947
   41POPC   C3B  864   9.220   7.724   6.466
   41POPC   C4B  865   9.260   7.683   5.978
   42POPC   NC3  866   2.431   3.715   8.210
   42POPC   PO4  867   1.821   3.987   8.385
   42POPC   GL1  868   1.792   3.880   7.917
   42POPC   GL2  869   1.850   3.510   7.809
   42POPC   C1A  870   1.756   3.904   7.456
   42POPC   D2A  871   2.028   3.684   7.156
   42POPC   C3A  872   1.871   3.658   6.731
   42POPC   C4A  873   1.641   3.831   6.391
   42POPC   C1B  874   1.674   3.376   7.381
   42POPC   C2B  875   1.546   3.163   6.981
   42POPC   C3B  876   1.710   3.182   6.539
   42POPC   C4B  877   1.982   3.424   6.256
   43POPC   NC3  878   1.027   3.068   8.090
   43POPC   PO4  879   0.732   2.501   7.971
   43POPC   GL1  880   0.939   2.757   7.683
   43POPC   GL2  881   1.303   2.764   7.756
   43POPC   C1A  882   0.900   2.739   7.261
   43POPC   D2A  883   0.794   2.565   6.884
   43POPC   C3A  884   0.934   2.788   6.557
   43POPC   C4A  885   1.065   2.677   6.132
   43POPC   C1B  886   1.500   2.737   7.340
   43POPC   C2B  887   1.309   2.693   6.935
   43POPC   C3B  888   1.450   2.709   6.531
   43POPC   C4B  889   1.500   2.921   6.153
   44POPC   NC3  890   9.400   1.867   7.927
   44POPC   PO4  891   9.960   2.244   8.057
   44POPC   GL1  892   9.742   2.167   7.683
   44POPC   GL2  893   9.860   1.809   7.708
   44POPC   C1A  894   9.520   2.259   7.272
   44POPC   D2A  895   9.536   2.482   6.849
   44POPC   C3A  896   9.879   2.417   6.499
   44POPC   C4A  897   9.801   2.283   5.999
   44POPC   C1B  898   9.838   1.746   7.262
   44POPC   C2B  899   9.867   1.507   6.853
   44POPC   C3B  900   9.870   1.584   6.416
   44POPC   C4B  901   9.692   1.971   6.368
   45POPC   NC3  902   0.314   2.548   8.189
   45POPC   PO4  903   0.509   3.179   8.123
   45POPC   GL1  904   0.372   2.925   7.749
   45POPC   GL2  905   0.139   2.613   7.704
   45POPC   C1A  906   0.237   3.040   7.318
   45POPC   D2A  907   0.516   2.987   6.965
   45POPC   C3A  908   0.507   3.064   6.535
   45POPC   C4A  909   0.587   2.819   6.181
   45POPC   C1B  910   0.400   2.559   7.301
   45POPC   C2B  911   0.284   2.536   6.850
   45POPC   C3B  912   0.397   2.422   6.437
   45POPC   C4B  913   0.232   2.513   6.007
   46POPC   NC3  914   8.159   7.159   8.377
   46POPC   PO4  915   7.899   6.579   8.094
   46POPC   GL1  916   8.171   6.825   7.784
   46POPC   GL2  917   8.451   6.593   7.707
   46POPC   C1A  918   8.402   6.952   7.357
   46POPC   D2A  919   8.606   7.032   6.937
   46POPC   C3A  920   8.430   7.120   6.524
   46POPC   C4A  921   8.203   6.976   6.149
   46POPC   C1B  922   8.113   6.530   7.384
   46POPC   C2B  923   8.217   6.664   6.969
   46POPC   C3B  924   8.241   6.633   6.547
   46POPC   C4B  925   7.926   6.572   6.281
   47POPC   NC3  926   4.978   1.483   8.367
   47POPC   PO4  927   4.478   1.851   8.126
   47POPC   GL1  928   4.756   1.796   7.791
   47POPC   GL2  929   5.062   1.834   7.976
   47POPC   C1A  930   4.761   1.791   7.330
   47POPC   D2A  931   5.011   1.874   6.928
   47POPC   C3A  932   4.739   2.051   6.593
   47POPC   C4A  933   4.792   2.374   6.289
   47POPC   C1B  934   5.229   1.919   7.537
   47POPC   C2B  935   5.446   2.109   7.171
   47POPC   C3B  936   5.437   2.151   6.711
   47POPC   C4B  937   5.199   1.929   6.380
   48POPC   NC3  938   2.626   4.589   8.019
   48POPC   PO4  939   2.726   5.233   8.121
   48POPC   GL1  940   2.485   5.153   7.721
   48POPC   GL2  941   2.368   4.798   7.605
   48POPC   C1A  942   2.537   5.175   7.241
   48POPC   D2A  943   2.608   4.967   6.837
   48POPC   C3A  944   2.653   5.185   6.430
   48POPC   C4A  945   2.593   5.184   5.966
   48POPC   C1B  946   2.150   4.728   7.169
   48POPC   C2B  947   2.228   4.615   6.713
   48POPC   C3B  948   2.628   4.639   6.437
   48POPC   C4B  949   2.945   4.842   6.172
   49POPC   NC3  950   4.301   2.292   8.153
   49POPC   PO4  951   3.763   1.799   8.201
   49POPC   GL1  952   4.024   1.934   7.829
   49POPC   GL2  953   4.244   1.679   7.691
   49POPC   C1A  954   4.070   2.062   7.349
   49POPC   D2A  955   3.815   2.145   6.947
   49POPC   C3A  956   4.025   2.121   6.522
   49POPC   C4A  957   4.330   2.151   6.176
   49POPC   C1B  958   4.281   1.592   7.247
   49POPC   C2B  959   4.374   1.785   6.863
   49POPC   C3B  960   4.395   1.703   6.423
   49POPC   C4B  961   4.252   1.619   6.004
   50POPC   NC3  962   6.408   7.299   7.985
   50POPC   PO4  963   6.876   7.104   8.418
   50POPC   GL1  964   6.834   7.159   7.784
   50POPC   GL2  965   7.046   7.415   7.643
   50POPC   C1A  966   6.657   7.265   7.329
   50POPC   D2A  967   6.441   7.315   6.880
   50POPC   C3A  968   6.650   7.238   6.453
   50POPC   C4A  969   6.589   7.116   6.009
   50POPC   C1B  970   7.057   7.536   7.227
   50POPC   C2B  971   6.983   7.304   6.875
   50POPC   C3B  972   7.049   7.524   6.499
   50POPC   C4B  973   6.801   7.631   6.102
   51POPC   NC3  974   9.712   2.631   8.057
   51POPC   PO4  975   9.172   3.073   8.216
   51POPC   GL1  976   9.365   2.946   7.756
   51POPC   GL2  977   9.601   2.667   7.589
   51POPC   C1A  978   9.304   2.883   7.269
   51POPC   D2A  979   9.435   3.107   6.909
   51POPC   C3A  980   9.505   2.893   6.541
   51POPC   C4A  981   9.284   2.906   6.145
   51POPC   C1B  982   9.874   2.659   7.236
   51POPC   C2B  983   9.949   2.931   6.879
   51POPC   C3B  984   0.033   2.901   6.446
   51POPC   C4B  985   9.781   2.767   6.123
   52POPC   NC3  986   6.728   1.876   8.337
   52POPC   PO4  987   7.097   1.392   8.158
   52POPC   GL1  988   6.803   1.550   7.894
   52POPC   GL2  989   6.756   1.921   7.803
   52POPC   C1A  990   6.803   1.475   7.465
   52POPC   D2A  991   6.528   1.413   7.133
   52POPC   C3A  992   6.643   1.550   6.709
   52POPC   C4A  993   6.849   1.813   6.368
   52POPC   C1B  994   6.459   1.869   7.415
   52POPC   C2B  995   6.289   1.853   6.957
   52POPC   C3B  996   6.355   1.943   6.499
   52POPC   C4B  997   6.430   2.297   6.189
   53POPC   NC3  998   0.218   3.483   7.920
   53POPC   PO4  999   9.880   3.008   8.273
   53POPC   GL1 1000   9.867   3.076   7.805
   53POPC   GL2 1001   9.688   3.404   7.778
   53POPC   C1A 1002   9.748   3.163   7.343
   53POPC   D2A 1003   9.987   3.433   7.030
   53POPC   C3A 1004   9.753   3.485   6.635
   53POPC   C4A 1005   9.659   3.281   6.246
   53POPC   C1B 1006   9.697   3.708   7.396
   53POPC   C2B 1007   9.746   3.894   6.969
   53POPC   C3B 1008   9.549   4.004   6.582
   53POPC   C4B 1009   9.419   3.757   6.243
   54POPC   NC3 1010   7.010   8.770   8.463
   54POPC   PO4 1011   6.439   9.042   8.328
   54POPC   GL1 1012   6.443   8.937   7.864
   54POPC   GL2 1013   6.754   8.710   7.801
   54POPC   C1A 1014   6.336   9.055   7.400
   54POPC   D2A 1015   6.523   9.124   6.962
   54POPC   C3A 1016   6.255   9.119   6.612
   54POPC   C4A 1017   6.267   8.837   6.287
   54POPC   C1B 1018   6.845   9.107   7.562
   54POPC   C2B 1019   7.109   9.242   7.173
   54POPC   C3B 1020   7.091   9.187   6.705
   54POPC   C4B 1021   6.726   9.005   6.432
   55POPC   NC3 1022   9.751   0.287   7.911
   55POPC   PO4 1023   9.290   0.663   8.187
   55POPC   GL1 1024   9.563   0.761   7.780
   55POPC   GL2 1025   9.933   0.745   7.682
   55POPC   C1A 1026   9.527   0.755   7.313
   55POPC   D2A 1027   9.609   0.547   6.901
   55POPC   C3A 1028   9.365   0.720   6.563
   55POPC   C4A 1029   9.237   0.644   6.140
   55POPC   C1B 1030   9.905   0.417   7.316
   55POPC   C2B 1031   9.995   0.172   6.952
   55POPC   C3B 1032   9.947   0.373   6.550
   55POPC   C4B 1033   9.593   0.313   6.318
   56POPC   NC3 1034   0.081   5.818   8.014
   56POPC   PO4 1035   9.543   6.169   7.810
   56POPC   GL1 1036   9.956   6.033   7.571
   56POPC   GL2 1037   0.150   5.703   7.505
   56POPC   C1A 1038   0.061   6.069   7.144
   56POPC   D2A 1039   0.006   5.878   6.742
   56POPC   C3A 1040   9.698   6.070   6.499
   56POPC   C4A 1041   9.702   5.957   6.100
   56POPC   C1B 1042   9.759   5.657   7.279
   56POPC   C2B 1043   9.575   5.589   6.868
   56POPC   C3B 1044   9.534   5.578   6.407
   56POPC   C4B 1045   9.326   5.614   5.974
   57POPC   NC3 1046   8.153   9.588   8.083
   57POPC   PO4 1047   8.637   0.035   7.947
   57POPC   GL1 1048   8.278   9.847   7.649
   57POPC   GL2 1049   8.309   9.437   7.619
   57POPC   C1A 1050   7.905   9.963   7.339
   57POPC   D2A 1051   7.707   9.965   6.900
   57POPC   C3A 1052   7.843   9.930   6.441
   57POPC   C4A 1053   8.165   9.842   6.128
   57POPC   C1B 1054   8.018   9.463   7.247
   57POPC   C2B 1055   8.018   9.557   6.781
   57POPC   C3B 1056   7.944   9.423   6.353
   57POPC   C4B 1057   8.102   9.378   5.899
   58POPC   NC3 1058   3.878   7.406   8.062
   58POPC   PO4 1059   3.477   6.944   7.996
   58POPC   GL1 1060   3.573   7.282   7.649
   58POPC   GL2 1061   3.472   7.622   7.621
   58POPC   C1A 1062   3.769   7.481   7.232
   58POPC   D2A 1063   3.623   7.582   6.790
   58POPC   C3A 1064   3.382   7.250   6.598
   58POPC   C4A 1065   3.490   7.079   6.204
   58POPC   C1B 1066   3.251   7.635   7.202
   58POPC   C2B 1067   3.132   7.717   6.749
   58POPC   C3B 1068   3.328   7.692   6.338
   58POPC   C4B 1069   3.718   7.594   6.167
   59POPC   NC3 1070   8.818   2.233   7.851
   59POPC   PO4 1071   9.021   1.617   8.056
   59POPC   GL1 1072   9.056   1.611   7.596
   59POPC   GL2 1073   8.754   1.798   7.529
   59POPC   C1A 1074   9.334   1.625   7.192
   59POPC   D2A 1075   9.499   1.929   6.855
   59POPC   C3A 1076   9.206   1.968   6.471
   59POPC   C4A 1077   8.970   1.785   6.132
   59POPC   C1B 1078   9.045   2.047   7.270
   59POPC   C2B 1079   9.039   2.238   6.870
   59POPC   C3B 1080   8.719   2.106   6.565
   59POPC   C4B 1081   8.536   1.747   6.371
   60POPC   NC3 1082   6.710   1.071   8.168
   60POPC   PO4 1083   6.095   0.758   8.271
   60POPC   GL1 1084   6.293   0.837   7.859
   60POPC   GL2 1085   6.519   1.101   7.699
   60POPC   C1A 1086   6.197   0.813   7.394
   60POPC   D2A 1087   6.334   0.951   6.977
   60POPC   C3A 1088   6.067   0.962   6.626
   60POPC   C4A 1089   6.234   0.985   6.207
   60POPC   C1B 1090   6.731   0.946   7.314
   60POPC   C2B 1091   6.819   1.081   6.878
   60POPC   C3B 1092   6.633   1.048   6.501
   60POPC   C4B 1093   6.554   1.393   6.219
   61POPC   NC3 1094   1.046   4.042   7.866
   61POPC   PO4 1095   0.911   4.670   7.953
   61POPC   GL1 1096   0.860   4.429   7.582
   61POPC   GL2 1097   1.225   4.363   7.519
   61POPC   C1A 1098   0.858   4.418   7.103
   61POPC   D2A 1099   0.845   4.675   6.728
   61POPC   C3A 1100   0.899   4.497   6.333
   61POPC   C4A 1101   1.010   4.367   5.886
   61POPC   C1B 1102   1.257   4.092   7.161
   61POPC   C2B 1103   1.161   4.191   6.702
   61POPC   C3B 1104   1.336   4.247   6.284
   61POPC   C4B 1105   1.355   3.980   5.912
   62POPC   NC3 1106   7.615   3.343   8.252
   62POPC   PO4 1107   7.132   3.789   8.037
   62POPC   GL1 1108   7.445   3.556   7.818
   62POPC   GL2 1109   7.226   3.289   7.713
   62POPC   C1A 1110   7.681   3.315   7.505
   62POPC   D2A 1111   7.507   3.057   7.150
   62POPC   C3A 1112   7.490   3.157   6.696
   62POPC   C4A 1113   7.558   3.317   6.277
   62POPC   C1B 1114   7.227   3.457   7.293
   62POPC   C2B 1115   7.239   3.568   6.858
   62POPC   C3B 1116   7.038   3.487   6.457
   62POPC   C4B 1117   7.159   3.470   6.029
   63POPC   NC3 1118   1.916   2.868   8.203
   63POPC   PO4 1119   2.485   3.249   8.264
   63POPC   GL1 1120   2.298   3.088   7.836
   63POPC   GL2 1121   2.167   2.749   7.753
   63POPC   C1A 1122   2.124   3.103   7.369
   63POPC   D2A 1123   2.046   3.217   6.929
   63POPC   C3A 1124   2.190   2.996   6.544
   63POPC   C4A 1125   2.112   2.941   6.100
   63POPC   C1B 1126   2.016   2.603   7.334
   63POPC   C2B 1127   1.874   2.720   6.893
   63POPC   C3B 1128   1.946   2.560   6.460
   63POPC   C4B 1129   1.828   2.533   6.008
   64POPC   NC3 1130   8.057   7.825   7.927
   64POPC   PO4 1131   8.262   8.411   8.281
   64POPC   GL1 1132   8.411   8.462   7.825
   64POPC   GL2 1133   8.332   8.139   7.651
   64POPC   C1A 1134   8.407   8.489   7.326
   64POPC   D2A 1135   8.398   8.135   7.021
   64POPC   C3A 1136   8.400   8.316   6.633
   64POPC   C4A 1137   8.420   8.173   6.232
   64POPC   C1B 1138   7.990   8.082   7.309
   64POPC   C2B 1139   7.950   7.839   6.901
   64POPC   C3B 1140   7.994   7.992   6.492
   64POPC   C4B 1141   8.051   7.877   6.073
   65POPC   NC3 1142   4.238   9.780   8.190
   65POPC   PO4 1143   4.756   9.282   8.223
   65POPC   GL1 1144   4.456   9.425   7.857
   65POPC   GL2 1145   4.382   9.781   7.717
   65POPC   C1A 1146   4.458   9.318   7.416
   65POPC   D2A 1147   4.490   9.604   7.047
   65POPC   C3A 1148   4.421   9.433   6.602
   65POPC   C4A 1149   4.636   9.324   6.221
   65POPC   C1B 1150   4.054   9.641   7.472
   65POPC   C2B 1151   3.984   9.802   7.058
   65POPC   C3B 1152   4.198   9.901   6.631
   65POPC   C4B 1153   4.058   9.844   6.172
   66POPC   NC3 1154   2.081   1.245   8.074
   66POPC   PO4 1155   1.586   0.874   8.186
   66POPC   GL1 1156   1.769   0.973   7.776
   66POPC   GL2 1157   2.140   0.987   7.634
   66POPC   C1A 1158   1.669   1.199   7.397
   66POPC   D2A 1159   1.754   1.071   6.989
   66POPC   C3A 1160   1.719   1.218   6.562
   66POPC   C4A 1161   1.985   1.083   6.209
   66POPC   C1B 1162   2.168   1.277   7.255
   66POPC   C2B 1163   2.150   1.355   6.798
   66POPC   C3B 1164   2.062   1.601   6.415
   66POPC   C4B 1165   1.965   1.596   5.963
   67POPC   NC3 1166   7.352   4.198   8.029
   67POPC   PO4 1167   7.508   4.787   7.994
   67POPC   GL1 1168   7.715   4.459   7.715
   67POPC   GL2 1169   7.769   4.044   7.755
   67POPC   C1A 1170   7.717   4.302   7.289
   67POPC   D2A 1171   7.770   4.018   6.959
   67POPC   C3A 1172   7.615   4.258   6.630
   67POPC   C4A 1173   7.379   4.352   6.260
   67POPC   C1B 1174   7.523   3.854   7.405
   67POPC   C2B 1175   7.256   4.045   7.063
   67POPC   C3B 1176   7.157   4.026   6.615
   67POPC   C4B 1177   7.470   3.800   6.419
   68POPC   NC3 1178   2.060   5.400   8.165
   68POPC   PO4 1179   2.236   4.787   8.207
   68POPC   GL1 1180   1.991   5.048   7.837
   68POPC   GL2 1181   1.686   4.978   7.662
   68POPC   C1A 1182   2.071   5.170   7.414
   68POPC   D2A 1183   2.051   5.353   7.018
   68POPC   C3A 1184   2.154   5.128   6.653
   68POPC   C4A 1185   2.238   4.920   6.258
   68POPC   C1B 1186   1.636   4.953   7.224
   68POPC   C2B 1187   1.619   5.140   6.814
   68POPC   C3B 1188   1.727   4.961   6.418
   68POPC   C4B 1189   1.830   4.696   6.053
   69POPC   NC3 1190   7.922   2.820   7.956
   69POPC   PO4 1191   8.472   2.474   8.000
   69POPC   GL1 1192   8.367   2.735   7.670
   69POPC   GL2 1193   8.343   3.090   7.724
   69POPC   C1A 1194   8.308   2.622   7.249
   69POPC   D2A 1195   8.459   2.476   6.854
   69POPC   C3A 1196   8.147   2.608   6.574
   69POPC   C4A 1197   7.965   2.549   6.179
   69POPC   C1B 1198   8.127   3.141   7.313
   69POPC   C2B 1199   7.959   3.050   6.892
   69POPC   C3B 1200   7.972   3.067   6.440
   69POPC   C4B 1201   8.295   2.929   6.170
   70POPC   NC3 1202   1.114   7.323   8.171
   70POPC   PO4 1203   1.670   6.801   8.163
   70POPC   GL1 1204   1.552   7.095   7.741
   70POPC   GL2 1205   1.263   7.359   7.694
   70POPC   C1A 1206   1.504   7.266   7.270
   70POPC   D2A 1207   1.258   7.164   6.897
   70POPC   C3A 1208   1.425   7.264   6.475
   70POPC   C4A 1209   1.766   7.267   6.181
   70POPC   C1B 1210   0.988   7.475   7.310
   70POPC   C2B 1211   0.936   7.537   6.853
   70POPC   C3B 1212   0.887   7.225   6.486
   70POPC   C4B 1213   0.944   7.244   6.011
   71POPC   NC3 1214   0.750   9.604   8.171
   71POPC   PO4 1215   1.276   9.233   8.126
   71POPC   GL1 1216   1.345   9.405   7.699
   71POPC   GL2 1217   1.031   9.570   7.692
   71POPC   C1A 1218   1.242   9.342   7.235
   71POPC   D2A 1219   0.944   9.123   6.916
   71POPC   C3A 1220   0.952   9.259   6.472
   71POPC   C4A 1221   0.928   9.305   6.016
   71POPC   C1B 1222   1.305   9.832   7.421
   71POPC   C2B 1223   1.316   9.930   6.988
   71POPC   C3B 1224   0.972   9.991   6.697
   71POPC   C4B 1225   0.884   9.851   6.297
   72POPC   NC3 1226   6.736   6.805   8.114
   72POPC   PO4 1227   6.213   6.955   7.742
   72POPC   GL1 1228   6.554   6.804   7.517
   72POPC   GL2 1229   6.828   6.611   7.621
   72POPC   C1A 1230   6.543   6.841   7.078
   72POPC   D2A 1231   6.780   6.833   6.736
   72POPC   C3A 1232   6.524   6.745   6.387
   72POPC   C4A 1233   6.289   6.692   6.003
   72POPC   C1B 1234   6.789   6.412   7.157
   72POPC   C2B 1235   6.618   6.315   6.691
   72POPC   C3B 1236   6.626   6.281   6.183
   72POPC   C4B 1237   6.678   6.465   5.732
   73POPC   NC3 1238   7.549   6.324   7.926
   73POPC   PO4 1239   7.182   6.865   7.981
   73POPC   GL1 1240   7.267   6.867   7.598
   73POPC   GL2 1241   7.624   6.768   7.645
   73POPC   C1A 1242   7.057   6.864   7.189
   73POPC   D2A 1243   7.201   6.567   6.866
   73POPC   C3A 1244   7.019   6.485   6.439
   73POPC   C4A 1245   6.939   6.723   6.094
   73POPC   C1B 1246   7.616   6.720   7.211
   73POPC   C2B 1247   7.736   6.647   6.798
   73POPC   C3B 1248   7.486   6.635   6.453
   73POPC   C4B 1249   7.506   6.232   6.236
   74POPC   NC3 1250   6.206   2.651   8.038
   74POPC   PO4 1251   6.717   2.316   8.194
   74POPC   GL1 1252   6.758   2.576   7.808
   74POPC   GL2 1253   6.777   2.931   7.868
   74POPC   C1A 1254   6.574   2.648   7.372
   74POPC   D2A 1255   6.409   2.375   7.017
   74POPC   C3A 1256   6.251   2.541   6.592
   74POPC   C4A 1257   5.990   2.566   6.175
   74POPC   C1B 1258   6.886   3.056   7.419
   74POPC   C2B 1259   6.861   2.945   6.964
   74POPC   C3B 1260   6.672   2.921   6.517
   74POPC   C4B 1261   6.369   2.877   6.181
   75POPC   NC3 1262   3.560   0.544   8.146
   75POPC   PO4 1263   3.898   1.101   8.146
   75POPC   GL1 1264   3.942   0.791   7.793
   75POPC   GL2 1265   3.752   0.486   7.690
   75POPC   C1A 1266   3.950   0.751   7.326
   75POPC   D2A 1267   3.584   0.776   7.041
   75POPC   C3A 1268   3.617   0.536   6.671
   75POPC   C4A 1269   3.741   0.661   6.257
   75POPC   C1B 1270   3.402   0.432   7.414
   75POPC   C2B 1271   3.209   0.423   7.011
   75POPC   C3B 1272   3.223   0.196   6.635
   75POPC   C4B 1273   3.255   0.469   6.281
   76POPC   NC3 1274   2.503   2.059   8.227
   76POPC   PO4 1275   3.017   2.451   8.337
   76POPC   GL1 1276   3.050   2.327   7.851
   76POPC   GL2 1277   2.842   2.019   7.801
   76POPC   C1A 1278   3.001   2.220   7.353
   76POPC   D2A 1279   2.746   2.135   6.928
   76POPC   C3A 1280   2.816   2.160   6.442
   76POPC   C4A 1281   2.943   2.117   5.993
   76POPC   C1B 1282   2.674   1.825   7.395
   76POPC   C2B 1283   2.489   1.685   6.993
   76POPC   C3B 1284   2.572   1.617   6.538
   76POPC   C4B 1285   2.838   1.634   6.129
   77POPC   NC3 1286   1.390   4.693   7.940
   77POPC   PO4 1287   1.484   5.262   8.024
   77POPC   GL1 1288   1.140   5.098   7.762
   77POPC   GL2 1289   1.049   5.439   7.726
   77POPC   C1A 1290   1.087   4.817   7.353
   77POPC   D2A 1291   1.327   4.587   7.016
   77POPC   C3A 1292   1.332   4.688   6.587
   77POPC   C4A 1293   1.319   4.787   6.154
   77POPC   C1B 1294   1.242   5.279   7.312
   77POPC   C2B 1295   1.131   5.057   6.913
   77POPC   C3B 1296   1.126   5.176   6.479
   77POPC   C4B 1297   1.365   5.326   6.120
   78POPC   NC3 1298   8.002   0.932   8.000
   78POPC   PO4 1299   8.035   1.562   8.213
   78POPC   GL1 1300   8.205   1.339   7.796
   78POPC   GL2 1301   8.542   1.357   7.692
   78POPC   C1A 1302   8.105   1.083   7.368
   78POPC   D2A 1303   8.293   1.088   6.935
   78POPC   C3A 1304   8.151   0.867   6.539
   78POPC   C4A 1305   7.924   0.966   6.125
   78POPC   C1B 1306   8.283   1.556   7.336
   78POPC   C2B 1307   7.901   1.443   7.042
   78POPC   C3B 1308   7.878   1.308   6.602
   78POPC   C4B 1309   8.235   1.328   6.292
   79POPC   NC3 1310   1.945   0.594   8.224
   79POPC   PO4 1311   1.902   9.947   8.137
   79POPC   GL1 1312   1.673   0.085   7.757
   79POPC   GL2 1313   1.640   0.470   7.748
   79POPC   C1A 1314   1.868   0.153   7.346
   79POPC   D2A 1315   2.217   0.260   7.031
   79POPC   C3A 1316   2.096   0.228   6.600
   79POPC   C4A 1317   2.051   0.176   6.166
   79POPC   C1B 1318   1.841   0.678   7.360
   79POPC   C2B 1319   2.165   0.798   7.033
   79POPC   C3B 1320   2.003   0.775   6.615
   79POPC   C4B 1321   1.732   0.547   6.296
   80POPC   NC3 1322   5.146   9.612   8.333
   80POPC   PO4 1323   4.621   0.082   8.218
   80POPC   GL1 1324   4.825   9.772   7.962
   80POPC   GL2 1325   5.116   9.921   7.872
   80POPC   C1A 1326   4.828   9.675   7.491
   80POPC   D2A 1327   5.025   9.745   7.076
   80POPC   C3A 1328   4.786   9.787   6.670
   80POPC   C4A 1329   4.596   9.855   6.249
   80POPC   C1B 1330   5.305   9.557   7.635
   80POPC   C2B 1331   5.420   9.447   7.185
   80POPC   C3B 1332   5.322   9.537   6.723
   80POPC   C4B 1333   5.078   9.577   6.306
   81POPC   NC3 1334   1.018   8.830   8.119
   81POPC   PO4 1335   1.523   8.401   8.079
   81POPC   GL1 1336   1.495   8.842   7.830
   81POPC   GL2 1337   1.180   8.937   7.653
   81POPC   C1A 1338   1.601   9.031   7.406
   81POPC   D2A 1339   1.356   8.828   7.066
   81POPC   C3A 1340   1.299   8.826   6.605
   81POPC   C4A 1341   1.380   9.050   6.188
   81POPC   C1B 1342   1.056   8.591   7.407
   81POPC   C2B 1343   0.881   8.558   6.999
   81POPC   C3B 1344   0.736   8.734   6.618
   81POPC   C4B 1345   0.950   8.767   6.236
   82POPC   NC3 1346   9.518   8.939   8.202
   82POPC   PO4 1347   9.943   8.444   8.131
   82POPC   GL1 1348   9.808   8.705   7.801
   82POPC   GL2 1349   9.498   8.547   7.830
   82POPC   C1A 1350   9.969   8.877   7.379
   82POPC   D2A 1351   9.970   9.198   7.023
   82POPC   C3A 1352   9.832   9.011   6.605
   82POPC   C4A 1353   9.834   8.760   6.152
   82POPC   C1B 1354   9.503   8.633   7.384
   82POPC   C2B 1355   9.661   8.671   6.960
   82POPC   C3B 1356   9.482   8.654   6.505
   82POPC   C4B 1357   9.457   9.093   6.230
   83POPC   NC3 1358   2.499   5.612   7.982
   83POPC   PO4 1359   1.911   5.747   8.410
   83POPC   GL1 1360   1.797   5.726   7.883
   83POPC   GL2 1361   2.075   5.595   7.681
   83POPC   C1A 1362   1.809   6.001   7.482
   83POPC   D2A 1363   2.065   6.050   7.076
   83POPC   C3A 1364   2.108   5.839   6.674
   83POPC   C4A 1365   1.754   5.992   6.421
   83POPC   C1B 1366   1.716   5.520   7.367
   83POPC   C2B 1367   1.690   5.688   6.909
   83POPC   C3B 1368   1.808   5.482   6.471
   83POPC   C4B 1369   2.222   5.448   6.244
   84POPC   NC3 1370   7.459   5.241   7.988
   84POPC   PO4 1371   7.548   5.870   7.853
   84POPC   GL1 1372   7.768   5.450   7.595
   84POPC   GL2 1373   7.780   5.045   7.631
   84POPC   C1A 1374   7.777   5.225   7.151
   84POPC   D2A 1375   7.806   5.159   6.669
   84POPC   C3A 1376   7.502   5.329   6.360
   84POPC   C4A 1377   7.206   5.417   6.015
   84POPC   C1B 1378   7.563   4.790   7.314
   84POPC   C2B 1379   7.587   4.717   6.855
   84POPC   C3B 1380   7.543   4.816   6.396
   84POPC   C4B 1381   7.458   4.937   5.953
   85POPC   NC3 1382   1.249   6.655   8.305
   85POPC   PO4 1383   0.732   7.083   8.333
   85POPC   GL1 1384   0.894   7.012   7.826
   85POPC   GL2 1385   1.188   6.767   7.811
   85POPC   C1A 1386   1.101   6.968   7.369
   85POPC   D2A 1387   1.227   6.660   7.022
   85POPC   C3A 1388   1.293   6.762   6.569
   85POPC   C4A 1389   1.138   6.570   6.180
   85POPC   C1B 1390   1.475   6.600   7.521
   85POPC   C2B 1391   1.638   6.388   7.165
   85POPC   C3B 1392   1.652   6.406   6.726
   85POPC   C4B 1393   1.623   6.488   6.294
   86POPC   NC3 1394   0.293   8.710   7.983
   86POPC   PO4 1395   0.373   9.307   8.086
   86POPC   GL1 1396   0.729   9.151   7.841
   86POPC   GL2 1397   0.692   8.795   7.691
   86POPC   C1A 1398   0.780   9.216   7.405
   86POPC   D2A 1399   0.476   9.283   7.069
   86POPC   C3A 1400   0.427   9.153   6.647
   86POPC   C4A 1401   0.545   9.057   6.228
   86POPC   C1B 1402   0.491   8.809   7.271
   86POPC   C2B 1403   0.205   8.766   6.910
   86POPC   C3B 1404   0.243   8.712   6.456
   86POPC   C4B 1405   0.454   8.573   6.098
   87POPC   NC3 1406   0.430   7.425   8.259
   87POPC   PO4 1407   9.902   7.015   8.222
   87POPC   GL1 1408   0.126   7.175   7.861
   87POPC   GL2 1409   0.041   7.513   7.784
   87POPC   C1A 1410   0.209   6.987   7.431
   87POPC   D2A 1411   0.147   6.859   6.988
   87POPC   C3A 1412   0.367   7.017   6.605
   87POPC   C4A 1413   0.397   7.244   6.220
   87POPC   C1B 1414   0.420   7.443   7.481
   87POPC   C2B 1415   0.453   7.346   7.013
   87POPC   C3B 1416   0.506   7.565   6.596
   87POPC   C4B 1417   0.823   7.732   6.311
   88POPC   NC3 1418   8.219   0.300   7.976
   88POPC   PO4 1419   7.640   0.650   8.099
   88POPC   GL1 1420   7.872   0.558   7.703
   88POPC   GL2 1421   8.219   0.650   7.591
   88POPC   C1A 1422   7.842   0.489   7.306
   88POPC   D2A 1423   8.100   0.545   6.949
   88POPC   C3A 1424   7.908   0.406   6.590
   88POPC   C4A 1425   7.718   0.504   6.193
   88POPC   C1B 1426   8.327   0.281   7.335
   88POPC   C2B 1427   8.244   0.018   6.959
   88POPC   C3B 1428   8.349   0.082   6.533
   88POPC   C4B 1429   8.228   0.378   6.196
   89POPC   NC3 1430   5.030   1.023   8.096
   89POPC   PO4 1431   5.428   1.549   8.199
   89POPC   GL1 1432   5.365   1.482   7.730
   89POPC   GL2 1433   5.057   1.369   7.735
   89POPC   C1A 1434   5.153   1.468   7.255
   89POPC   D2A 1435   4.757   1.433   6.956
   89POPC   C3A 1436   4.885   1.530   6.528
   89POPC   C4A 1437   5.332   1.423   6.409
   89POPC   C1B 1438   5.107   0.992   7.468
   89POPC   C2B 1439   4.935   0.966   7.098
   89POPC   C3B 1440   5.064   1.086   6.704
   89POPC   C4B 1441   5.063   1.026   6.255
   90POPC   NC3 1442   5.345   7.935   8.159
   90POPC   PO4 1443   4.912   8.440   8.280
   90POPC   GL1 1444   4.800   8.251   7.882
   90POPC   GL2 1445   5.149   8.252   7.800
   90POPC   C1A 1446   4.842   8.333   7.417
   90POPC   D2A 1447   5.102   8.328   7.047
   90POPC   C3A 1448   4.898   8.534   6.736
   90POPC   C4A 1449   4.697   8.401   6.368
   90POPC   C1B 1450   5.233   7.975   7.448
   90POPC   C2B 1451   5.108   7.811   7.040
   90POPC   C3B 1452   4.939   7.985   6.681
   90POPC   C4B 1453   5.199   8.231   6.458
   91POPC   NC3 1454   9.639   7.444   8.267
   91POPC   PO4 1455   9.213   7.020   8.099
   91POPC   GL1 1456   9.547   7.197   7.834
   91POPC   GL2 1457   9.498   7.539   7.790
   91POPC   C1A 1458   9.732   7.202   7.417
   91POPC   D2A 1459   9.621   6.937   7.039
   91POPC   C3A 1460   9.602   7.124   6.637
   91POPC   C4A 1461   9.886   7.086   6.268
   91POPC   C1B 1462   9.714   7.734   7.414
   91POPC   C2B 1463   9.981   7.574   7.073
   91POPC   C3B 1464   0.010   7.438   6.632
   91POPC   C4B 1465   9.692   7.559   6.299
   92POPC   NC3 1466   7.840   1.830   7.881
   92POPC   PO4 1467   7.635   2.443   7.960
   92POPC   GL1 1468   8.006   2.358   7.659
   92POPC   GL2 1469   8.374   2.206   7.573
   92POPC   C1A 1470   8.007   2.203   7.225
   92POPC   D2A 1471   7.824   1.966   6.908
   92POPC   C3A 1472   7.755   2.197   6.527
   92POPC   C4A 1473   7.735   2.035   6.129
   92POPC   C1B 1474   8.498   2.023   7.143
   92POPC   C2B 1475   8.303   1.701   6.837
   92POPC   C3B 1476   8.043   1.776   6.480
   92POPC   C4B 1477   8.226   2.148   6.333
   93POPC   NC3 1478   1.207   8.038   8.119
   93POPC   PO4 1479   0.671   8.480   8.106
   93POPC   GL1 1480   0.878   8.215   7.728
   93POPC   GL2 1481   0.996   7.835   7.700
   93POPC   C1A 1482   0.985   8.096   7.266
   93POPC   D2A 1483   0.874   8.047   6.827
   93POPC   C3A 1484   1.054   8.331   6.540
   93POPC   C4A 1485   1.342   8.255   6.237
   93POPC   C1B 1486   1.380   7.790   7.412
   93POPC   C2B 1487   1.441   7.774   6.950
   93POPC   C3B 1488   1.348   7.789   6.486
   93POPC   C4B 1489   1.614   7.852   6.094
   94POPC   NC3 1490   0.797   2.098   8.173
   94POPC   PO4 1491   1.396   1.801   8.236
   94POPC   GL1 1492   1.136   1.860   7.855
   94POPC   GL2 1493   1.149   2.234   7.805
   94POPC   C1A 1494   1.083   1.810   7.376
   94POPC   D2A 1495   0.938   1.688   6.924
   94POPC   C3A 1496   1.164   1.817   6.527
   94POPC   C4A 1497   1.050   1.981   6.094
   94POPC   C1B 1498   1.175   2.327   7.365
   94POPC   C2B 1499   1.125   2.179   6.936
   94POPC   C3B 1500   1.090   2.312   6.506
   94POPC   C4B 1501   1.417   2.321   6.184
   95POPC   NC3 1502   8.304   3.881   8.129
   95POPC   PO4 1503   8.049   3.251   8.108
   95POPC   GL1 1504   8.036   3.572   7.789
   95POPC   GL2 1505   8.376   3.629   7.707
   95POPC   C1A 1506   8.011   3.682   7.343
   95POPC   D2A 1507   7.729   3.512   7.040
   95POPC   C3A 1508   7.878   3.542   6.654
   95POPC   C4A 1509   7.952   3.621   6.252
   95POPC   C1B 1510   8.526   3.502   7.332
   95POPC   C2B 1511   8.322   3.496   6.936
   95POPC   C3B 1512   8.394   3.366   6.513
   95POPC   C4B 1513   8.403   3.442   6.076
   96POPC   NC3 1514   8.208   8.883   8.145
   96POPC   PO4 1515   7.894   8.264   7.921
   96POPC   GL1 1516   7.968   8.565   7.592
   96POPC   GL2 1517   7.992   8.908   7.685
   96POPC   C1A 1518   7.811   8.597   7.190
   96POPC   D2A 1519   7.919   8.348   6.850
   96POPC   C3A 1520   7.948   8.537   6.446
   96POPC   C4A 1521   7.635   8.672   6.116
   96POPC   C1B 1522   8.176   8.957   7.296
   96POPC   C2B 1523   8.236   8.758   6.900
   96POPC   C3B 1524   8.233   9.027   6.550
   96POPC   C4B 1525   8.035   8.964   6.178
   97POPC   NC3 1526   3.328   8.145   8.205
   97POPC   PO4 1527   3.447   7.523   8.145
   97POPC   GL1 1528   3.727   7.912   7.947
   97POPC   GL2 1529   3.599   8.277   7.815
   97POPC   C1A 1530   3.869   7.926   7.507
   97POPC   D2A 1531   3.671   7.976   7.110
   97POPC   C3A 1532   3.862   8.047   6.697
   97POPC   C4A 1533   3.672   8.096   6.321
   97POPC   C1B 1534   3.364   8.099   7.498
   97POPC   C2B 1535   3.189   8.131   7.074
   97POPC   C3B 1536   3.266   8.208   6.624
   97POPC   C4B 1537   3.244   8.335   6.188
   98POPC   NC3 1538   2.260   9.653   8.100
   98POPC   PO4 1539   2.902   9.957   8.143
   98POPC   GL1 1540   2.931   9.573   7.833
   98POPC   GL2 1541   2.580   9.495   7.700
   98POPC   C1A 1542   3.071   9.584   7.391
   98POPC   D2A 1543   2.813   9.633   6.998
   98POPC   C3A 1544   2.814   9.834   6.580
   98POPC   C4A 1545   2.501   9.954   6.273
   98POPC   C1B 1546   2.722   9.204   7.366
   98POPC   C2B 1547   2.912   9.123   6.957
   98POPC   C3B 1548   2.877   9.333   6.565
   98POPC   C4B 1549   2.579   9.439   6.216
   99POPC   NC3 1550   3.248   9.639   8.233
   99POPC   PO4 1551   3.922   9.372   8.144
   99POPC   GL1 1552   3.783   9.736   7.910
   99POPC   GL2 1553   3.485   9.562   7.791
   99POPC   C1A 1554   3.631   9.963   7.508
   99POPC   D2A 1555   3.432   9.940   7.079
   99POPC   C3A 1556   3.693   0.015   6.696
   99POPC   C4A 1557   3.661   0.170   6.284
   99POPC   C1B 1558   3.582   9.458   7.357
   99POPC   C2B 1559   3.331   9.437   6.966
   99POPC   C3B 1560   3.298   9.663   6.594
   99POPC   C4B 1561   3.532   9.697   6.221
  100POPC   NC3 1562   8.889   4.442   8.108
  100POPC   PO4 1563   9.480   4.530   8.417
  100POPC   GL1 1564   9.338   4.224   7.942
  100POPC   GL2 1565   9.009   4.230   7.678
  100POPC   C1A 1566   9.421   4.209   7.417
  100POPC   D2A 1567   9.222   4.109   6.998
  100POPC   C3A 1568   9.103   4.281   6.605
  100POPC   C4A 1569   9.181   4.324   6.142
  100POPC   C1B 1570   8.708   4.032   7.378
  100POPC   C2B 1571   8.768   3.812   7.007
  100POPC   C3B 1572   8.587   3.854   6.608
  100POPC   C4B 1573   8.774   4.070   6.272
  101POPC   NC3 1574   7.554   1.528   8.246
  101POPC   PO4 1575   7.172   2.030   8.393
  101POPC   GL1 1576   7.256   1.887   7.936
  101POPC   GL2 1577   7.226   2.213   7.734
  101POPC   C1A 1578   7.228   1.786   7.441
  101POPC   D2A 1579   7.131   1.687   6.956
  101POPC   C3A 1580   7.451   1.716   6.574
  101POPC   C4A 1581   7.317   1.662   6.136
  101POPC   C1B 1582   7.474   2.243   7.303
  101POPC   C2B 1583   7.350   2.157   6.840
  101POPC   C3B 1584   7.263   2.169   6.369
  101POPC   C4B 1585   7.251   2.508   6.069
  102POPC   NC3 1586   1.240   0.599   8.073
  102POPC   PO4 1587   1.039   9.967   8.022
  102POPC   GL1 1588   1.162   0.242   7.706
  102POPC   GL2 1589   0.957   0.534   7.648
  102POPC   C1A 1590   1.360   0.345   7.312
  102POPC   D2A 1591   1.131   0.418   6.926
  102POPC   C3A 1592   1.292   0.349   6.498
  102POPC   C4A 1593   1.315   0.084   6.143
  102POPC   C1B 1594   0.817   0.838   7.352
  102POPC   C2B 1595   0.713   0.707   6.943
  102POPC   C3B 1596   0.957   0.782   6.601
  102POPC   C4B 1597   0.881   0.856   6.192
  103POPC   NC3 1598   1.795   2.068   8.233
  103POPC   PO4 1599   2.302   1.643   8.138
  103POPC   GL1 1600   2.322   1.938   7.758
  103POPC   GL2 1601   2.087   2.219   7.764
  103POPC   C1A 1602   2.215   2.056   7.304
  103POPC   D2A 1603   2.033   2.014   6.887
  103POPC   C3A 1604   2.320   2.072   6.567
  103POPC   C4A 1605   2.423   1.924   6.159
  103POPC   C1B 1606   1.689   2.259   7.529
  103POPC   C2B 1607   1.620   2.302   7.077
  103POPC   C3B 1608   1.608   2.197   6.634
  103POPC   C4B 1609   1.902   2.085   6.267
  104POPC   NC3 1610   7.761   8.045   8.312
  104POPC   PO4 1611   7.215   8.479   8.175
  104POPC   GL1 1612   7.305   8.178   7.831
  104POPC   GL2 1613   7.502   8.344   7.554
  104POPC   C1A 1614   7.330   7.884   7.468
  104POPC   D2A 1615   7.533   8.065   7.079
  104POPC   C3A 1616   7.481   7.946   6.609
  104POPC   C4A 1617   7.267   7.863   6.218
  104POPC   C1B 1618   7.099   8.307   7.331
  104POPC   C2B 1619   7.109   8.230   6.880
  104POPC   C3B 1620   7.455   8.439   6.603
  104POPC   C4B 1621   7.190   8.358   6.272
  105POPC   NC3 1622   3.093   7.176   8.119
  105POPC   PO4 1623   2.965   7.871   8.123
  105POPC   GL1 1624   2.767   7.561   7.841
  105POPC   GL2 1625   3.019   7.415   7.667
  105POPC   C1A 1626   2.556   7.546   7.411
  105POPC   D2A 1627   2.359   7.532   6.974
  105POPC   C3A 1628   2.647   7.597   6.648
  105POPC   C4A 1629   2.593   7.553   6.213
  105POPC   C1B 1630   2.781   7.094   7.459
  105POPC   C2B 1631   2.676   7.112   7.015
  105POPC   C3B 1632   2.772   7.131   6.577
  105POPC   C4B 1633   3.013   7.269   6.239
  106POPC   NC3 1634   3.136   5.433   8.184
  106POPC   PO4 1635   2.827   5.920   8.048
  106POPC   GL1 1636   2.652   5.919   7.615
  106POPC   GL2 1637   2.351   6.059   7.589
  106POPC   C1A 1638   2.411   5.696   7.244
  106POPC   D2A 1639   2.483   5.503   6.819
  106POPC   C3A 1640   2.609   5.710   6.446
  106POPC   C4A 1641   2.932   5.544   6.152
  106POPC   C1B 1642   2.522   6.226   7.222
  106POPC   C2B 1643   2.532   6.089   6.812
  106POPC   C3B 1644   2.616   6.253   6.407
  106POPC   C4B 1645   2.865   6.026   6.146
  107POPC   NC3 1646   0.512   4.484   8.101
  107POPC   PO4 1647   0.210   3.895   8.160
  107POPC   GL1 1648   0.512   4.051   7.823
  107POPC   GL2 1649   0.335   4.271   7.657
  107POPC   C1A 1650   0.672   4.020   7.351
  107POPC   D2A 1651   0.807   3.915   6.957
  107POPC   C3A 1652   0.622   4.098   6.604
  107POPC   C4A 1653   0.409   3.984   6.228
  107POPC   C1B 1654   0.372   4.438   7.271
  107POPC   C2B 1655   0.400   4.475   6.850
  107POPC   C3B 1656   0.330   4.603   6.447
  107POPC   C4B 1657   0.010   4.605   6.135
  108POPC   NC3 1658   7.149   7.318   8.131
  108POPC   PO4 1659   7.741   7.561   8.201
  108POPC   GL1 1660   7.613   7.603   7.779
  108POPC   GL2 1661   7.532   7.290   7.701
  108POPC   C1A 1662   7.732   7.605   7.316
  108POPC   D2A 1663   7.463   7.561   6.920
  108POPC   C3A 1664   7.558   7.447   6.472
  108POPC   C4A 1665   7.665   7.546   6.024
  108POPC   C1B 1666   7.431   7.198   7.268
  108POPC   C2B 1667   7.426   7.049   6.831
  108POPC   C3B 1668   7.171   7.024   6.467
  108POPC   C4B 1669   7.086   7.209   6.088
  109POPC   NC3 1670   6.582   9.610   8.279
  109POPC   PO4 1671   6.208   9.867   7.813
  109POPC   GL1 1672   6.568   9.907   7.565
  109POPC   GL2 1673   6.687   9.612   7.740
  109POPC   C1A 1674   6.535   9.929   7.120
  109POPC   D2A 1675   6.584   0.096   6.756
  109POPC   C3A 1676   6.482   9.831   6.449
  109POPC   C4A 1677   6.314   9.817   6.029
  109POPC   C1B 1678   6.661   9.482   7.287
  109POPC   C2B 1679   6.809   9.594   6.835
  109POPC   C3B 1680   6.839   9.488   6.368
  109POPC   C4B 1681   6.427   9.364   6.212
  110POPC   NC3 1682   3.861   3.014   8.014
  110POPC   PO4 1683   4.419   2.741   8.203
  110POPC   GL1 1684   4.267   2.677   7.773
  110POPC   GL2 1685   4.032   2.437   7.694
  110POPC   C1A 1686   4.420   2.458   7.359
  110POPC   D2A 1687   4.313   2.296   6.921
  110POPC   C3A 1688   4.338   2.538   6.511
  110POPC   C4A 1689   4.482   2.747   6.119
  110POPC   C1B 1690   3.932   2.554   7.242
  110POPC   C2B 1691   3.895   2.613   6.775
  110POPC   C3B 1692   3.966   2.896   6.410
  110POPC   C4B 1693   4.019   2.904   5.953
  111POPC   NC3 1694   1.509   9.675   8.099
  111POPC   PO4 1695   2.127   9.214   8.093
  111POPC   GL1 1696   1.874   9.454   7.768
  111POPC   GL2 1697   2.070   9.744   7.638
  111POPC   C1A 1698   1.738   9.562   7.306
  111POPC   D2A 1699   1.848   9.860   6.924
  111POPC   C3A 1700   1.657   9.925   6.483
  111POPC   C4A 1701   1.721   9.828   5.997
  111POPC   C1B 1702   2.291   9.758   7.220
  111POPC   C2B 1703   2.330   9.776   6.750
  111POPC   C3B 1704   2.088   9.683   6.353
  111POPC   C4B 1705   2.155   9.533   5.927
  112POPC   NC3 1706   9.489   8.182   8.254
  112POPC   PO4 1707   0.015   7.746   8.282
  112POPC   GL1 1708   9.914   8.003   7.883
  112POPC   GL2 1709   9.575   8.035   7.797
  112POPC   C1A 1710   9.880   8.278   7.478
  112POPC   D2A 1711   9.869   8.124   7.042
  112POPC   C3A 1712   9.932   8.379   6.655
  112POPC   C4A 1713   9.903   8.233   6.221
  112POPC   C1B 1714   9.336   8.145   7.451
  112POPC   C2B 1715   9.344   8.252   7.029
  112POPC   C3B 1716   9.496   8.131   6.621
  112POPC   C4B 1717   9.348   8.166   6.195
  113POPC   NC3 1718   0.125   9.691   8.077
  113POPC   PO4 1719   0.663   0.002   8.391
  113POPC   GL1 1720   0.550   9.915   7.849
  113POPC   GL2 1721   0.510   9.601   7.698
  113POPC   C1A 1722   0.776   9.954   7.426
  113POPC   D2A 1723   0.861   9.654   7.095
  113POPC   C3A 1724   0.629   9.614   6.700
  113POPC   C4A 1725   0.463   9.574   6.277
  113POPC   C1B 1726   0.189   9.542   7.400
  113POPC   C2B 1727   0.208   9.708   6.978
  113POPC   C3B 1728   0.048   9.510   6.611
  113POPC   C4B 1729   0.086   9.230   6.238
  114POPC   NC3 1730   3.635   8.982   8.175
  114POPC   PO4 1731   3.094   8.537   8.138
  114POPC   GL1 1732   3.319   8.705   7.761
  114POPC   GL2 1733   3.426   9.057   7.726
  114POPC   C1A 1734   3.383   8.573   7.319
  114POPC   D2A 1735   3.595   8.441   6.938
  114POPC   C3A 1736   3.602   8.619   6.510
  114POPC   C4A 1737   3.422   8.809   6.118
  114POPC   C1B 1738   3.248   9.074   7.337
  114POPC   C2B 1739   3.379   8.918   6.922
  114POPC   C3B 1740   3.372   9.134   6.525
  114POPC   C4B 1741   3.701   9.225   6.253
  115POPC   NC3 1742   3.407   2.697   8.346
  115POPC   PO4 1743   3.466   3.288   8.076
  115POPC   GL1 1744   3.356   2.854   7.852
  115POPC   GL2 1745   3.607   2.738   7.602
  115POPC   C1A 1746   3.110   2.707   7.459
  115POPC   D2A 1747   2.865   2.635   7.053
  115POPC   C3A 1748   3.009   2.603   6.617
  115POPC   C4A 1749   3.184   2.520   6.205
  115POPC   C1B 1750   3.493   2.797   7.109
  115POPC   C2B 1751   3.462   2.833   6.604
  115POPC   C3B 1752   3.525   2.886   6.121
  115POPC   C4B 1753   3.579   2.949   5.653
  116POPC   NC3 1754   3.200   3.665   8.082
  116POPC   PO4 1755   2.657   4.110   8.075
  116POPC   GL1 1756   2.782   3.740   7.786
  116POPC   GL2 1757   2.751   3.384   7.870
  116POPC   C1A 1758   2.923   3.437   7.404
  116POPC   D2A 1759   2.938   3.184   7.004
  116POPC   C3A 1760   2.916   3.461   6.595
  116POPC   C4A 1761   3.020   3.583   6.145
  116POPC   C1B 1762   2.428   3.480   7.524
  116POPC   C2B 1763   2.485   3.449   7.062
  116POPC   C3B 1764   2.390   3.461   6.598
  116POPC   C4B 1765   2.539   3.276   6.180
  117POPC   NC3 1766   5.680   1.957   8.117
  117POPC   PO4 1767   6.238   1.508   8.132
  117POPC   GL1 1768   5.880   1.569   7.831
  117POPC   GL2 1769   6.010   1.897   7.725
  117POPC   C1A 1770   5.696   1.665   7.382
  117POPC   D2A 1771   5.777   1.803   6.949
  117POPC   C3A 1772   5.697   1.724   6.537
  117POPC   C4A 1773   5.937   1.758   6.170
  117POPC   C1B 1774   6.001   2.105   7.319
  117POPC   C2B 1775   5.917   2.284   6.918
  117POPC   C3B 1776   5.912   2.177   6.502
  117POPC   C4B 1777   5.629   2.183   6.193
  118POPC   NC3 1778   2.700   2.826   8.297
  118POPC   PO4 1779   2.152   2.411   8.222
  118POPC   GL1 1780   2.538   2.444   7.900
  118POPC   GL2 1781   2.717   2.755   7.798
  118POPC   C1A 1782   2.534   2.453   7.416
  118POPC   D2A 1783   2.329   2.439   6.971
  118POPC   C3A 1784   2.490   2.556   6.568
  118POPC   C4A 1785   2.701   2.710   6.174
  118POPC   C1B 1786   2.625   2.982   7.410
  118POPC   C2B 1787   2.469   2.940   6.980
  118POPC   C3B 1788   2.698   3.012   6.588
  118POPC   C4B 1789   3.050   3.064   6.262
  119POPC   NC3 1790   2.744   1.113   8.041
  119POPC   PO4 1791   3.114   1.676   8.090
  119POPC   GL1 1792   2.893   1.481   7.709
  119POPC   GL2 1793   2.502   1.411   7.701
  119POPC   C1A 1794   2.968   1.399   7.250
  119POPC   D2A 1795   2.982   1.571   6.836
  119POPC   C3A 1796   2.945   1.267   6.494
  119POPC   C4A 1797   2.880   0.826   6.358
  119POPC   C1B 1798   2.608   1.075   7.386
  119POPC   C2B 1799   2.611   1.152   6.909
  119POPC   C3B 1800   2.448   1.103   6.466
  119POPC   C4B 1801   2.408   1.366   6.106
  120POPC   NC3 1802   1.485   5.637   8.267
  120POPC   PO4 1803   1.202   6.200   8.225
  120POPC   GL1 1804   1.237   6.242   7.801
  120POPC   GL2 1805   1.353   5.917   7.745
  120POPC   C1A 1806   1.140   6.249   7.345
  120POPC   D2A 1807   1.310   6.075   6.926
  120POPC   C3A 1808   1.226   6.201   6.513
  120POPC   C4A 1809   1.373   6.084   6.096
  120POPC   C1B 1810   1.285   5.771   7.329
  120POPC   C2B 1811   1.217   5.566   6.903
  120POPC   C3B 1812   1.327   5.682   6.499
  120POPC   C4B 1813   0.975   5.796   6.283
  121POPC   NC3 1814   4.634   7.326   8.320
  121POPC   PO4 1815   5.195   7.488   8.171
  121POPC   GL1 1816   4.906   7.740   7.875
  121POPC   GL2 1817   4.603   7.534   7.802
  121POPC   C1A 1818   4.753   7.819   7.408
  121POPC   D2A 1819   4.608   7.649   6.975
  121POPC   C3A 1820   4.666   7.577   6.510
  121POPC   C4A 1821   4.743   7.449   6.075
  121POPC   C1B 1822   4.279   7.616   7.455
  121POPC   C2B 1823   4.150   7.824   7.070
  121POPC   C3B 1824   4.126   7.589   6.698
  121POPC   C4B 1825   3.921   7.238   6.464
  122POPC   NC3 1826   1.646   6.310   8.113
  122POPC   PO4 1827   2.199   5.960   8.049
  122POPC   GL1 1828   2.079   6.397   7.845
  122POPC   GL2 1829   1.991   6.784   7.760
  122POPC   C1A 1830   2.074   6.438   7.407
  122POPC   D2A 1831   2.088   6.568   6.969
  122POPC   C3A 1832   2.136   6.344   6.594
  122POPC   C4A 1833   2.200   6.482   6.187
  122POPC   C1B 1834   1.833   6.881   7.317
  122POPC   C2B 1835   1.696   6.895   6.881
  122POPC   C3B 1836   1.914   6.858   6.464
  122POPC   C4B 1837   1.872   6.799   5.971
  123POPC   NC3 1838   4.344   8.278   8.214
  123POPC   PO4 1839   4.280   7.582   8.195
  123POPC   GL1 1840   4.275   7.942   7.840
  123POPC   GL2 1841   4.090   8.280   7.796
  123POPC   C1A 1842   4.363   8.142   7.412
  123POPC   D2A 1843   4.583   8.170   7.003
  123POPC   C3A 1844   4.409   8.011   6.619
  123POPC   C4A 1845   4.530   7.966   6.175
  123POPC   C1B 1846   3.893   8.420   7.402
  123POPC   C2B 1847   4.093   8.351   7.034
  123POPC   C3B 1848   4.229   8.488   6.657
  123POPC   C4B 1849   4.139   8.326   6.303
  124POPC   NC3 1850   0.739   0.313   8.061
  124POPC   PO4 1851   0.069   0.130   8.236
  124POPC   GL1 1852   0.241   0.305   7.807
  124POPC   GL2 1853   0.444   0.615   7.748
  124POPC   C1A 1854   0.277   0.063   7.395
  124POPC   D2A 1855   0.541   0.150   6.996
  124POPC   C3A 1856   0.390   0.053   6.577
  124POPC   C4A 1857   0.039   9.934   6.330
  124POPC   C1B 1858   0.390   0.557   7.320
  124POPC   C2B 1859   0.212   0.623   6.908
  124POPC   C3B 1860   0.435   0.573   6.500
  124POPC   C4B 1861   0.793   0.355   6.357
  125POPC   NC3 1862   5.913   1.179   8.188
  125POPC   PO4 1863   5.390   0.718   8.184
  125POPC   GL1 1864   5.509   1.011   7.821
  125POPC   GL2 1865   5.854   1.037   7.716
  125POPC   C1A 1866   5.570   1.173   7.339
  125POPC   D2A 1867   5.528   1.325   6.901
  125POPC   C3A 1868   5.550   0.986   6.597
  125POPC   C4A 1869   5.516   0.784   6.209
  125POPC   C1B 1870   6.091   1.314   7.432
  125POPC   C2B 1871   6.045   1.378   6.988
  125POPC   C3B 1872   6.140   1.458   6.554
  125POPC   C4B 1873   5.822   1.274   6.269
  126POPC   NC3 1874   4.283   0.779   8.219
  126POPC   PO4 1875   3.813   0.260   8.424
  126POPC   GL1 1876   4.081   0.224   7.988
  126POPC   GL2 1877   4.330   0.459   7.823
  126POPC   C1A 1878   4.099   0.167   7.494
  126POPC   D2A 1879   3.828   0.293   7.129
  126POPC   C3A 1880   4.100   0.406   6.784
  126POPC   C4A 1881   4.149   0.333   6.339
  126POPC   C1B 1882   4.458   0.583   7.366
  126POPC   C2B 1883   4.653   0.564   6.944
  126POPC   C3B 1884   4.594   0.276   6.620
  126POPC   C4B 1885   4.645   0.404   6.233
  127POPC   NC3 1886   9.751   4.942   8.022
  127POPC   PO4 1887   0.373   4.866   8.336
  127POPC   GL1 1888   0.193   5.142   7.887
  127POPC   GL2 1889   9.882   5.379   7.796
  127POPC   C1A 1890   0.029   5.037   7.431
  127POPC   D2A 1891   0.100   4.833   7.051
  127POPC   C3A 1892   9.896   4.844   6.648
  127POPC   C4A 1893   9.682   5.042   6.284
  127POPC   C1B 1894   9.562   5.219   7.462
  127POPC   C2B 1895   9.637   5.105   7.030
  127POPC   C3B 1896   9.368   5.097   6.685
  127POPC   C4B 1897   9.210   5.216   6.293
  128POPC   NC3 1898   9.608   0.026   8.435
  128POPC   PO4 1899   9.381   9.406   8.170
  128POPC   GL1 1900   9.665   9.565   7.874
  128POPC   GL2 1901   9.905   9.278   7.828
  128POPC   C1A 1902   9.745   9.789   7.464
  128POPC   D2A 1903   9.710   9.651   7.035
  128POPC   C3A 1904   9.645   9.910   6.668
  128POPC   C4A 1905   9.316   9.833   6.374
  128POPC   C1B 1906   9.630   9.253   7.454
  128POPC   C2B 1907   9.465   9.179   7.039
  128POPC   C3B 1908   9.476   9.410   6.637
  128POPC   C4B 1909   9.697   9.554   6.237
  129POPC   NC3 1910   2.531   7.994   7.993
  129POPC   PO4 1911   2.288   8.549   8.308
  129POPC   GL1 1912   2.629   8.486   7.809
  129POPC   GL2 1913   2.928   8.261   7.752
  129POPC   C1A 1914   2.623   8.334   7.302
  129POPC   D2A 1915   2.327   8.348   6.905
  129POPC   C3A 1916   2.445   8.439   6.466
  129POPC   C4A 1917   2.768   8.518   6.151
  129POPC   C1B 1918   2.896   7.916   7.463
  129POPC   C2B 1919   2.745   7.879   7.066
  129POPC   C3B 1920   2.767   8.117   6.710
  129POPC   C4B 1921   2.904   7.962   6.316
  130POPC   NC3 1922   9.033   9.766   7.931
  130POPC   PO4 1923   8.533   9.293   8.164
  130POPC   GL1 1924   8.816   9.310   7.803
  130POPC   GL2 1925   9.188   9.341   7.717
  130POPC   C1A 1926   8.791   9.373   7.367
  130POPC   D2A 1927   8.988   9.349   6.968
  130POPC   C3A 1928   8.702   9.264   6.630
  130POPC   C4A 1929   8.438   9.550   6.420
  130POPC   C1B 1930   9.273   9.609   7.329
  130POPC   C2B 1931   9.194   9.845   6.935
  130POPC   C3B 1932   8.877   9.770   6.618
  130POPC   C4B 1933   8.931   9.508   6.225
  131POPC   NC3 1934   8.752   2.822   8.127
  131POPC   PO4 1935   9.264   2.318   7.893
  131POPC   GL1 1936   9.103   2.515   7.551
  131POPC   GL2 1937   8.888   2.798   7.642
  131POPC   C1A 1938   8.821   2.527   7.225
  131POPC   D2A 1939   8.945   2.796   6.909
  131POPC   C3A 1940   9.059   2.621   6.525
  131POPC   C4A 1941   9.413   2.423   6.318
  131POPC   C1B 1942   8.643   3.000   7.322
  131POPC   C2B 1943   8.469   3.010   6.932
  131POPC   C3B 1944   8.597   2.890   6.559
  131POPC   C4B 1945   8.581   2.526   6.326
  132POPC   NC3 1946   2.688   8.757   8.218
  132POPC   PO4 1947   3.193   9.193   8.176
  132POPC   GL1 1948   2.904   9.020   7.814
  132POPC   GL2 1949   2.514   8.997   7.802
  132POPC   C1A 1950   2.903   8.729   7.431
  132POPC   D2A 1951   2.976   8.569   6.968
  132POPC   C3A 1952   3.078   8.713   6.536
  132POPC   C4A 1953   2.964   9.016   6.186
  132POPC   C1B 1954   2.393   8.780   7.427
  132POPC   C2B 1955   2.528   8.797   7.032
  132POPC   C3B 1956   2.607   8.894   6.613
  132POPC   C4B 1957   2.454   8.932   6.201
  133POPC   NC3 1958   2.860   0.421   8.117
  133POPC   PO4 1959   2.336   0.854   8.112
  133POPC   GL1 1960   2.497   0.634   7.803
  133POPC   GL2 1961   2.835   0.700   7.685
  133POPC   C1A 1962   2.429   0.574   7.396
  133POPC   D2A 1963   2.719   0.683   7.080
  133POPC   C3A 1964   2.530   0.654   6.707
  133POPC   C4A 1965   2.360   0.574   6.320
  133POPC   C1B 1966   2.873   0.309   7.385
  133POPC   C2B 1967   2.741   0.206   6.909
  133POPC   C3B 1968   2.790   0.323   6.421
  133POPC   C4B 1969   2.961   0.163   5.992
  134POPC   NC3 1970   5.797   3.069   8.246
  134POPC   PO4 1971   5.805   2.418   8.080
  134POPC   GL1 1972   5.822   2.786   7.767
  134POPC   GL2 1973   6.093   2.576   7.552
  134POPC   C1A 1974   5.893   2.996   7.361
  134POPC   D2A 1975   6.055   2.767   7.024
  134POPC   C3A 1976   6.166   3.024   6.682
  134POPC   C4A 1977   5.908   3.090   6.322
  134POPC   C1B 1978   5.701   2.514   7.357
  134POPC   C2B 1979   5.538   2.622   6.976
  134POPC   C3B 1980   5.688   2.645   6.567
  134POPC   C4B 1981   5.504   2.714   6.135
  135POPC   NC3 1982   8.597   5.397   8.067
  135POPC   PO4 1983   7.917   5.296   8.066
  135POPC   GL1 1984   8.241   5.191   7.774
  135POPC   GL2 1985   8.317   4.834   7.701
  135POPC   C1A 1986   8.268   5.196   7.337
  135POPC   D2A 1987   8.221   5.333   6.918
  135POPC   C3A 1988   8.286   5.034   6.569
  135POPC   C4A 1989   8.043   5.026   6.184
  135POPC   C1B 1990   8.067   4.687   7.363
  135POPC   C2B 1991   8.061   4.488   6.944
  135POPC   C3B 1992   7.980   4.604   6.504
  135POPC   C4B 1993   7.823   4.588   6.042
  136POPC   NC3 1994   6.816   8.249   8.057
  136POPC   PO4 1995   6.755   7.605   8.044
  136POPC   GL1 1996   6.829   7.899   7.665
  136POPC   GL2 1997   6.573   8.191   7.608
  136POPC   C1A 1998   6.751   7.943   7.210
  136POPC   D2A 1999   6.721   7.745   6.821
  136POPC   C3A 2000   6.780   7.996   6.455
  136POPC   C4A 2001   6.432   8.025   6.150
  136POPC   C1B 2002   6.216   8.090   7.292
  136POPC   C2B 2003   6.026   8.195   6.868
  136POPC   C3B 2004   6.190   8.338   6.478
  136POPC   C4B 2005   6.602   8.481   6.507
  137POPC   NC3 2006   8.866   0.455   8.041
  137POPC   PO4 2007   9.414   0.001   8.025
  137POPC   GL1 2008   9.284   0.302   7.705
  137POPC   GL2 2009   8.958   0.251   7.592
  137POPC   C1A 2010   9.348   0.255   7.245
  137POPC   D2A 2011   9.115   0.390   6.862
  137POPC   C3A 2012   9.072   0.269   6.444
  137POPC   C4A 2013   9.227   0.153   6.009
  137POPC   C1B 2014   8.811   0.138   7.195
  137POPC   C2B 2015   8.598   0.389   6.888
  137POPC   C3B 2016   8.616   0.531   6.477
  137POPC   C4B 2017   8.764   0.470   6.043
  138POPC   NC3 2018   5.603   7.323   8.075
  138POPC   PO4 2019   6.137   7.200   8.345
  138POPC   GL1 2020   5.991   7.423   7.801
  138POPC   GL2 2021   6.080   7.767   7.722
  138POPC   C1A 2022   6.179   7.483   7.331
  138POPC   D2A 2023   6.033   7.686   6.948
  138POPC   C3A 2024   5.916   7.384   6.613
  138POPC   C4A 2025   6.166   7.144   6.309
  138POPC   C1B 2026   5.693   7.608   7.431
  138POPC   C2B 2027   5.541   7.525   6.975
  138POPC   C3B 2028   5.441   7.596   6.495
  138POPC   C4B 2029   5.370   7.468   6.040
  139POPC   NC3 2030   0.393   3.529   8.409
  139POPC   PO4 2031   0.979   3.662   8.108
  139POPC   GL1 2032   0.850   3.412   7.766
  139POPC   GL2 2033   0.596   3.607   7.617
  139POPC   C1A 2034   0.710   3.189   7.406
  139POPC   D2A 2035   0.530   3.482   7.097
  139POPC   C3A 2036   0.745   3.480   6.712
  139POPC   C4A 2037   0.661   3.534   6.308
  139POPC   C1B 2038   0.224   3.805   7.374
  139POPC   C2B 2039   0.261   3.978   6.974
  139POPC   C3B 2040   0.257   3.699   6.630
  139POPC   C4B 2041   0.175   3.379   6.311
  140POPC   NC3 2042   8.729   8.294   8.286
  140POPC   PO4 2043   9.227   7.753   8.235
  140POPC   GL1 2044   9.055   7.947   7.845
  140POPC   GL2 2045   9.045   8.312   7.871
  140POPC   C1A 2046   8.807   7.996   7.423
  140POPC   D2A 2047   8.894   7.875   6.979
  140POPC   C3A 2048   8.743   7.934   6.553
  140POPC   C4A 2049   8.861   7.961   6.096
  140POPC   C1B 2050   8.932   8.495   7.469
  140POPC   C2B 2051   8.832   8.390   7.036
  140POPC   C3B 2052   9.029   8.362   6.627
  140POPC   C4B 2053   8.900   8.450   6.215
  141POPC   NC3 2054   6.869   3.399   8.068
  141POPC   PO4 2055   6.224   3.112   8.100
  141POPC   GL1 2056   6.325   3.033   7.654
  141POPC   GL2 2057   6.531   3.333   7.645
  141POPC   C1A 2058   6.405   3.114   7.177
  141POPC   D2A 2059   6.582   3.350   6.783
  141POPC   C3A 2060   6.395   3.367   6.348
  141POPC   C4A 2061   6.295   3.298   5.880
  141POPC   C1B 2062   6.724   3.528   7.261
  141POPC   C2B 2063   6.781   3.809   6.886
  141POPC   C3B 2064   6.665   3.857   6.428
  141POPC   C4B 2065   6.663   3.657   6.013
  142POPC   NC3 2066   1.434   3.753   8.262
  142POPC   PO4 2067   1.503   3.082   8.167
  142POPC   GL1 2068   1.364   3.297   7.785
  142POPC   GL2 2069   1.342   3.650   7.726
  142POPC   C1A 2070   1.212   3.146   7.393
  142POPC   D2A 2071   1.015   3.146   6.984
  142POPC   C3A 2072   1.206   3.212   6.591
  142POPC   C4A 2073   1.020   3.174   6.217
  142POPC   C1B 2074   1.073   3.628   7.329
  142POPC   C2B 2075   1.239   3.627   6.894
  142POPC   C3B 2076   1.136   3.719   6.453
  142POPC   C4B 2077   0.906   3.998   6.204
  143POPC   NC3 2078   8.652   1.355   8.195
  143POPC   PO4 2079   8.441   0.731   8.028
  143POPC   GL1 2080   8.704   0.834   7.679
  143POPC   GL2 2081   9.059   0.787   7.710
  143POPC   C1A 2082   8.698   1.091   7.303
  143POPC   D2A 2083   8.727   1.455   7.046
  143POPC   C3A 2084   8.642   1.314   6.614
  143POPC   C4A 2085   8.730   1.327   6.142
  143POPC   C1B 2086   9.004   0.674   7.270
  143POPC   C2B 2087   8.846   0.850   6.857
  143POPC   C3B 2088   8.916   0.930   6.413
  143POPC   C4B 2089   9.255   1.138   6.221
  144POPC   NC3 2090   2.050   3.833   3.744
  144POPC   PO4 2091   1.998   3.106   3.875
  144POPC   GL1 2092   2.009   3.478   4.129
  144POPC   GL2 2093   1.671   3.670   4.102
  144POPC   C1A 2094   2.201   3.473   4.552
  144POPC   D2A 2095   2.332   3.551   5.000
  144POPC   C3A 2096   2.329   3.270   5.358
  144POPC   C4A 2097   2.215   3.372   5.791
  144POPC   C1B 2098   1.726   3.662   4.562
  144POPC   C2B 2099   1.836   3.424   4.958
  144POPC   C3B 2100   1.857   3.483   5.421
  144POPC   C4B 2101   1.801   3.700   5.855
  145POPC   NC3 2102   2.544   2.020   3.907
  145POPC   PO4 2103   2.543   1.363   3.728
  145POPC   GL1 2104   2.408   1.551   4.148
  145POPC   GL2 2105   2.705   1.769   4.320
  145POPC   C1A 2106   2.290   1.735   4.574
  145POPC   D2A 2107   2.616   1.681   4.889
  145POPC   C3A 2108   2.498   1.623   5.291
  145POPC   C4A 2109   2.450   1.672   5.718
  145POPC   C1B 2110   3.013   1.902   4.656
  145POPC   C2B 2111   3.088   1.931   5.104
  145POPC   C3B 2112   2.903   1.891   5.498
  145POPC   C4B 2113   2.914   1.487   5.598
  146POPC   NC3 2114   7.322   7.021   3.829
  146POPC   PO4 2115   7.685   6.609   4.061
  146POPC   GL1 2116   7.414   6.751   4.351
  146POPC   GL2 2117   7.080   6.938   4.272
  146POPC   C1A 2118   7.455   6.637   4.772
  146POPC   D2A 2119   7.395   6.865   5.133
  146POPC   C3A 2120   7.588   6.746   5.492
  146POPC   C4A 2121   7.445   6.655   5.926
  146POPC   C1B 2122   6.966   6.749   4.663
  146POPC   C2B 2123   7.030   6.511   5.074
  146POPC   C3B 2124   7.174   6.431   5.515
  146POPC   C4B 2125   7.102   6.259   5.934
  147POPC   NC3 2126   5.639   9.223   4.010
  147POPC   PO4 2127   5.369   8.625   3.913
  147POPC   GL1 2128   5.672   8.769   4.262
  147POPC   GL2 2129   6.000   8.822   4.398
  147POPC   C1A 2130   5.661   8.916   4.726
  147POPC   D2A 2131   5.874   9.015   5.103
  147POPC   C3A 2132   5.711   8.769   5.440
  147POPC   C4A 2133   5.497   8.897   5.824
  147POPC   C1B 2134   6.113   8.618   4.732
  147POPC   C2B 2135   6.253   8.675   5.112
  147POPC   C3B 2136   6.260   8.745   5.516
  147POPC   C4B 2137   6.012   8.906   5.836
  148POPC   NC3 2138   0.987   5.098   3.800
  148POPC   PO4 2139   1.590   5.319   3.982
  148POPC   GL1 2140   1.185   5.239   4.258
  148POPC   GL2 2141   1.228   4.954   4.448
  148POPC   C1A 2142   0.943   5.272   4.721
  148POPC   D2A 2143   0.971   5.085   5.171
  148POPC   C3A 2144   1.065   5.197   5.627
  148POPC   C4A 2145   0.847   5.356   6.021
  148POPC   C1B 2146   1.396   5.096   4.868
  148POPC   C2B 2147   1.471   5.084   5.306
  148POPC   C3B 2148   1.546   5.023   5.738
  148POPC   C4B 2149   1.849   5.210   6.002
  149POPC   NC3 2150   6.513   8.107   3.900
  149POPC   PO4 2151   6.131   8.607   3.984
  149POPC   GL1 2152   6.330   8.350   4.356
  149POPC   GL2 2153   6.450   7.989   4.388
  149POPC   C1A 2154   6.491   8.259   4.808
  149POPC   D2A 2155   6.305   8.185   5.202
  149POPC   C3A 2156   6.461   8.255   5.609
  149POPC   C4A 2157   6.274   8.466   5.955
  149POPC   C1B 2158   6.784   7.863   4.739
  149POPC   C2B 2159   6.790   8.020   5.158
  149POPC   C3B 2160   6.846   7.892   5.589
  149POPC   C4B 2161   6.859   8.150   5.947
  150POPC   NC3 2162   9.029   2.440   3.925
  150POPC   PO4 2163   8.962   3.085   3.927
  150POPC   GL1 2164   8.993   3.005   4.334
  150POPC   GL2 2165   9.037   2.646   4.386
  150POPC   C1A 2166   8.816   3.224   4.670
  150POPC   D2A 2167   8.632   3.048   5.042
  150POPC   C3A 2168   8.823   3.043   5.456
  150POPC   C4A 2169   8.458   3.081   5.722
  150POPC   C1B 2170   9.091   2.796   4.820
  150POPC   C2B 2171   8.931   2.575   5.180
  150POPC   C3B 2172   8.934   2.553   5.626
  150POPC   C4B 2173   8.990   2.452   6.044
  151POPC   NC3 2174   8.061   2.194   3.982
  151POPC   PO4 2175   8.687   2.142   4.108
  151POPC   GL1 2176   8.500   1.823   4.380
  151POPC   GL2 2177   8.149   1.889   4.393
  151POPC   C1A 2178   8.456   1.754   4.814
  151POPC   D2A 2179   8.599   1.764   5.230
  151POPC   C3A 2180   8.238   1.828   5.517
  151POPC   C4A 2181   8.221   1.745   5.969
  151POPC   C1B 2182   8.061   2.230   4.670
  151POPC   C2B 2183   8.008   2.179   5.098
  151POPC   C3B 2184   8.107   2.325   5.467
  151POPC   C4B 2185   8.128   2.218   5.842
  152POPC   NC3 2186   8.840   4.140   3.996
  152POPC   PO4 2187   8.989   4.806   3.794
  152POPC   GL1 2188   9.050   4.589   4.223
  152POPC   GL2 2189   9.160   4.297   4.339
  152POPC   C1A 2190   9.145   4.632   4.706
  152POPC   D2A 2191   9.282   4.573   5.145
  152POPC   C3A 2192   8.962   4.548   5.500
  152POPC   C4A 2193   8.730   4.406   5.887
  152POPC   C1B 2194   8.838   4.180   4.681
  152POPC   C2B 2195   8.803   4.014   5.116
  152POPC   C3B 2196   8.901   4.035   5.540
  152POPC   C4B 2197   9.074   3.881   5.896
  153POPC   NC3 2198   7.321   7.763   4.193
  153POPC   PO4 2199   7.629   7.325   3.686
  153POPC   GL1 2200   7.505   7.246   4.236
  153POPC   GL2 2201   7.631   7.515   4.538
  153POPC   C1A 2202   7.354   7.139   4.675
  153POPC   D2A 2203   7.567   7.335   5.038
  153POPC   C3A 2204   7.274   7.305   5.364
  153POPC   C4A 2205   7.441   7.160   5.744
  153POPC   C1B 2206   7.257   7.661   4.804
  153POPC   C2B 2207   7.255   7.820   5.193
  153POPC   C3B 2208   7.512   7.719   5.519
  153POPC   C4B 2209   7.211   7.604   5.798
  154POPC   NC3 2210   1.186   3.502   3.863
  154POPC   PO4 2211   0.601   3.693   4.036
  154POPC   GL1 2212   0.840   3.678   4.401
  154POPC   GL2 2213   1.129   3.447   4.374
  154POPC   C1A 2214   0.896   3.649   4.855
  154POPC   D2A 2215   1.030   3.396   5.202
  154POPC   C3A 2216   0.851   3.586   5.539
  154POPC   C4A 2217   0.976   3.602   5.924
  154POPC   C1B 2218   1.338   3.434   4.790
  154POPC   C2B 2219   1.437   3.703   5.163
  154POPC   C3B 2220   1.377   3.576   5.609
  154POPC   C4B 2221   1.428   3.458   6.103
  155POPC   NC3 2222   0.232   4.907   4.199
  155POPC   PO4 2223   0.831   4.650   3.875
  155POPC   GL1 2224   0.790   4.713   4.311
  155POPC   GL2 2225   0.706   5.051   4.353
  155POPC   C1A 2226   0.805   4.799   4.763
  155POPC   D2A 2227   0.483   4.938   5.072
  155POPC   C3A 2228   0.573   5.083   5.504
  155POPC   C4A 2229   0.381   4.890   5.872
  155POPC   C1B 2230   0.420   5.268   4.676
  155POPC   C2B 2231   0.133   5.346   5.037
  155POPC   C3B 2232   0.214   5.495   5.451
  155POPC   C4B 2233   0.347   5.397   5.868
  156POPC   NC3 2234   9.072   8.168   3.805
  156POPC   PO4 2235   8.598   7.789   3.858
  156POPC   GL1 2236   8.718   7.942   4.226
  156POPC   GL2 2237   9.054   7.844   4.225
  156POPC   C1A 2238   8.506   8.069   4.630
  156POPC   D2A 2239   8.408   8.345   5.006
  156POPC   C3A 2240   8.719   8.337   5.367
  156POPC   C4A 2241   8.562   8.374   5.792
  156POPC   C1B 2242   9.046   8.156   4.558
  156POPC   C2B 2243   9.297   8.293   4.915
  156POPC   C3B 2244   9.284   8.377   5.353
  156POPC   C4B 2245   9.078   8.288   5.750
  157POPC   NC3 2246   7.606   2.650   3.895
  157POPC   PO4 2247   7.025   2.291   3.898
  157POPC   GL1 2248   7.235   2.444   4.255
  157POPC   GL2 2249   7.266   2.776   4.242
  157POPC   C1A 2250   7.151   2.523   4.689
  157POPC   D2A 2251   7.028   2.462   5.107
  157POPC   C3A 2252   7.196   2.672   5.471
  157POPC   C4A 2253   7.169   2.964   5.797
  157POPC   C1B 2254   7.615   2.667   4.554
  157POPC   C2B 2255   7.579   2.567   4.993
  157POPC   C3B 2256   7.610   2.364   5.373
  157POPC   C4B 2257   7.662   2.427   5.785
  158POPC   NC3 2258   5.013   0.539   4.057
  158POPC   PO4 2259   5.102   9.910   4.010
  158POPC   GL1 2260   5.223   0.163   4.413
  158POPC   GL2 2261   5.300   0.540   4.492
  158POPC   C1A 2262   5.130   0.239   4.863
  158POPC   D2A 2263   5.324   0.484   5.204
  158POPC   C3A 2264   5.350   0.255   5.593
  158POPC   C4A 2265   5.559   0.313   6.001
  158POPC   C1B 2266   4.994   0.750   4.756
  158POPC   C2B 2267   4.818   0.590   5.114
  158POPC   C3B 2268   4.913   0.536   5.525
  158POPC   C4B 2269   4.622   0.641   5.801
  159POPC   NC3 2270   1.371   6.704   4.011
  159POPC   PO4 2271   0.886   6.198   3.880
  159POPC   GL1 2272   1.000   6.400   4.247
  159POPC   GL2 2273   1.344   6.363   4.399
  159POPC   C1A 2274   0.866   6.659   4.593
  159POPC   D2A 2275   0.964   6.860   4.995
  159POPC   C3A 2276   1.135   6.620   5.346
  159POPC   C4A 2277   0.937   6.724   5.746
  159POPC   C1B 2278   1.366   6.743   4.674
  159POPC   C2B 2279   1.482   6.937   5.080
  159POPC   C3B 2280   1.633   6.826   5.506
  159POPC   C4B 2281   1.443   6.489   5.764
  160POPC   NC3 2282   0.583   5.812   3.744
  160POPC   PO4 2283   0.516   5.166   3.915
  160POPC   GL1 2284   0.566   5.534   4.214
  160POPC   GL2 2285   0.231   5.636   4.270
  160POPC   C1A 2286   0.684   5.697   4.668
  160POPC   D2A 2287   0.632   5.489   5.105
  160POPC   C3A 2288   0.739   5.591   5.548
  160POPC   C4A 2289   0.617   5.837   5.942
  160POPC   C1B 2290   0.186   5.747   4.709
  160POPC   C2B 2291   0.394   5.984   5.041
  160POPC   C3B 2292   0.421   5.982   5.484
  160POPC   C4B 2293   0.124   5.872   5.812
  161POPC   NC3 2294   0.540   7.534   3.876
  161POPC   PO4 2295   0.012   7.060   3.847
  161POPC   GL1 2296   0.209   7.287   4.177
  161POPC   GL2 2297   0.512   7.075   4.227
  161POPC   C1A 2298   0.276   7.480   4.589
  161POPC   D2A 2299   0.136   7.659   5.017
  161POPC   C3A 2300   0.322   7.526   5.436
  161POPC   C4A 2301   0.555   7.583   5.860
  161POPC   C1B 2302   0.687   7.174   4.656
  161POPC   C2B 2303   0.668   7.459   5.032
  161POPC   C3B 2304   0.779   7.330   5.476
  161POPC   C4B 2305   0.525   7.063   5.756
  162POPC   NC3 2306   4.063   3.633   3.902
  162POPC   PO4 2307   4.314   4.135   3.958
  162POPC   GL1 2308   4.285   3.785   4.328
  162POPC   GL2 2309   4.391   3.431   4.264
  162POPC   C1A 2310   3.986   3.499   4.585
  162POPC   D2A 2311   3.907   3.396   5.028
  162POPC   C3A 2312   3.552   3.335   5.310
  162POPC   C4A 2313   3.335   3.559   5.672
  162POPC   C1B 2314   4.445   3.308   4.720
  162POPC   C2B 2315   4.322   3.140   5.154
  162POPC   C3B 2316   4.025   3.186   5.528
  162POPC   C4B 2317   3.750   3.331   5.937
  163POPC   NC3 2318   8.123   7.051   3.861
  163POPC   PO4 2319   7.755   7.630   4.079
  163POPC   GL1 2320   8.111   7.378   4.273
  163POPC   GL2 2321   8.452   7.516   4.305
  163POPC   C1A 2322   8.328   7.115   4.633
  163POPC   D2A 2323   8.437   6.943   5.068
  163POPC   C3A 2324   8.093   6.940   5.373
  163POPC   C4A 2325   7.943   7.171   5.744
  163POPC   C1B 2326   8.252   7.616   4.700
  163POPC   C2B 2327   8.143   7.364   5.052
  163POPC   C3B 2328   8.316   7.413   5.455
  163POPC   C4B 2329   8.011   7.660   5.633
  164POPC   NC3 2330   8.157   7.817   3.998
  164POPC   PO4 2331   7.536   8.150   3.948
  164POPC   GL1 2332   7.726   8.060   4.340
  164POPC   GL2 2333   8.007   8.263   4.255
  164POPC   C1A 2334   7.969   8.046   4.736
  164POPC   D2A 2335   7.992   7.868   5.151
  164POPC   C3A 2336   8.266   8.075   5.445
  164POPC   C4A 2337   8.467   7.887   5.782
  164POPC   C1B 2338   7.786   8.499   4.587
  164POPC   C2B 2339   7.904   8.515   5.016
  164POPC   C3B 2340   8.017   8.531   5.470
  164POPC   C4B 2341   8.071   8.435   5.951
  165POPC   NC3 2342   6.394   0.500   3.924
  165POPC   PO4 2343   6.072   1.045   4.061
  165POPC   GL1 2344   6.360   0.802   4.331
  165POPC   GL2 2345   6.662   0.568   4.340
  165POPC   C1A 2346   6.493   0.835   4.741
  165POPC   D2A 2347   6.393   0.563   5.064
  165POPC   C3A 2348   6.288   0.739   5.439
  165POPC   C4A 2349   6.307   0.635   5.846
  165POPC   C1B 2350   6.624   0.297   4.685
  165POPC   C2B 2351   6.623   0.085   5.084
  165POPC   C3B 2352   6.682   0.315   5.418
  165POPC   C4B 2353   6.557   0.203   5.782
  166POPC   NC3 2354   3.154   8.754   3.959
  166POPC   PO4 2355   3.778   8.951   4.006
  166POPC   GL1 2356   3.444   8.905   4.362
  166POPC   GL2 2357   3.365   9.229   4.544
  166POPC   C1A 2358   3.280   8.812   4.809
  166POPC   D2A 2359   3.367   9.132   5.116
  166POPC   C3A 2360   3.257   9.123   5.565
  166POPC   C4A 2361   3.315   9.319   5.951
  166POPC   C1B 2362   3.770   9.115   4.718
  166POPC   C2B 2363   3.818   8.873   5.081
  166POPC   C3B 2364   3.654   8.745   5.464
  166POPC   C4B 2365   3.721   9.040   5.775
  167POPC   NC3 2366   7.157   9.309   3.839
  167POPC   PO4 2367   6.925   9.928   3.938
  167POPC   GL1 2368   7.079   9.628   4.273
  167POPC   GL2 2369   7.448   9.507   4.207
  167POPC   C1A 2370   7.101   9.403   4.713
  167POPC   D2A 2371   7.330   9.320   5.107
  167POPC   C3A 2372   7.133   9.449   5.517
  167POPC   C4A 2373   7.183   9.587   5.973
  167POPC   C1B 2374   7.455   9.753   4.586
  167POPC   C2B 2375   7.575   9.796   5.015
  167POPC   C3B 2376   7.591   9.671   5.419
  167POPC   C4B 2377   7.394   9.952   5.686
  168POPC   NC3 2378   9.018   7.497   3.844
  168POPC   PO4 2379   8.553   7.104   4.017
  168POPC   GL1 2380   8.760   7.066   4.370
  168POPC   GL2 2381   8.944   7.347   4.332
  168POPC   C1A 2382   8.814   7.173   4.809
  168POPC   D2A 2383   8.787   7.355   5.217
  168POPC   C3A 2384   8.837   7.046   5.561
  168POPC   C4A 2385   9.086   7.172   5.952
  168POPC   C1B 2386   8.843   7.670   4.662
  168POPC   C2B 2387   8.867   7.972   5.022
  168POPC   C3B 2388   8.941   7.869   5.471
  168POPC   C4B 2389   8.804   7.526   5.725
  169POPC   NC3 2390   3.927   8.028   4.030
  169POPC   PO4 2391   3.261   7.848   3.871
  169POPC   GL1 2392   3.459   8.079   4.244
  169POPC   GL2 2393   3.631   8.433   4.222
  169POPC   C1A 2394   3.443   8.162   4.692
  169POPC   D2A 2395   3.252   8.036   5.080
  169POPC   C3A 2396   3.444   8.115   5.477
  169POPC   C4A 2397   3.438   7.939   5.887
  169POPC   C1B 2398   3.715   8.579   4.666
  169POPC   C2B 2399   3.810   8.346   5.087
  169POPC   C3B 2400   3.923   8.306   5.549
  169POPC   C4B 2401   3.679   8.400   5.902
  170POPC   NC3 2402   7.250   0.930   3.946
  170POPC   PO4 2403   7.374   1.573   3.918
  170POPC   GL1 2404   7.352   1.259   4.303
  170POPC   GL2 2405   7.684   1.237   4.421
  170POPC   C1A 2406   7.405   1.034   4.773
  170POPC   D2A 2407   7.489   1.191   5.224
  170POPC   C3A 2408   7.274   0.904   5.532
  170POPC   C4A 2409   6.866   0.739   5.624
  170POPC   C1B 2410   7.368   1.535   4.709
  170POPC   C2B 2411   7.133   1.555   5.086
  170POPC   C3B 2412   7.271   1.571   5.524
  170POPC   C4B 2413   7.462   1.297   5.784
  171POPC   NC3 2414   2.250   6.237   3.919
  171POPC   PO4 2415   1.619   6.318   3.975
  171POPC   GL1 2416   1.908   6.115   4.300
  171POPC   GL2 2417   1.917   5.742   4.360
  171POPC   C1A 2418   2.096   6.070   4.736
  171POPC   D2A 2419   1.935   5.992   5.207
  171POPC   C3A 2420   2.122   5.928   5.658
  171POPC   C4A 2421   2.200   5.957   6.169
  171POPC   C1B 2422   1.607   5.944   4.689
  171POPC   C2B 2423   1.435   6.045   5.121
  171POPC   C3B 2424   1.559   5.987   5.586
  171POPC   C4B 2425   1.726   5.719   5.965
  172POPC   NC3 2426   0.737   4.131   3.862
  172POPC   PO4 2427   1.368   3.843   3.629
  172POPC   GL1 2428   1.203   3.938   4.118
  172POPC   GL2 2429   0.963   4.195   4.295
  172POPC   C1A 2430   1.261   3.915   4.600
  172POPC   D2A 2431   1.114   4.111   5.003
  172POPC   C3A 2432   1.057   4.052   5.458
  172POPC   C4A 2433   0.663   4.030   5.720
  172POPC   C1B 2434   1.163   4.448   4.615
  172POPC   C2B 2435   1.208   4.632   5.030
  172POPC   C3B 2436   1.186   4.665   5.479
  172POPC   C4B 2437   1.473   4.482   5.776
  173POPC   NC3 2438   2.148   7.307   3.830
  173POPC   PO4 2439   2.426   6.654   3.838
  173POPC   GL1 2440   2.205   6.594   4.290
  173POPC   GL2 2441   1.818   6.618   4.347
  173POPC   C1A 2442   2.106   6.768   4.734
  173POPC   D2A 2443   1.987   6.995   5.127
  173POPC   C3A 2444   2.319   7.040   5.439
  173POPC   C4A 2445   2.338   6.730   5.762
  173POPC   C1B 2446   1.742   6.423   4.733
  173POPC   C2B 2447   1.744   6.479   5.156
  173POPC   C3B 2448   1.953   6.416   5.554
  173POPC   C4B 2449   1.845   6.230   5.940
  174POPC   NC3 2450   7.162   4.594   4.055
  174POPC   PO4 2451   7.484   4.049   3.980
  174POPC   GL1 2452   7.448   4.183   4.375
  174POPC   GL2 2453   7.775   4.128   4.421
  174POPC   C1A 2454   7.391   4.153   4.834
  174POPC   D2A 2455   7.362   4.258   5.291
  174POPC   C3A 2456   7.031   4.109   5.637
  174POPC   C4A 2457   7.073   3.967   6.087
  174POPC   C1B 2458   7.911   4.341   4.751
  174POPC   C2B 2459   8.008   4.365   5.181
  174POPC   C3B 2460   7.779   4.506   5.520
  174POPC   C4B 2461   7.520   4.255   5.788
  175POPC   NC3 2462   4.183   7.317   4.146
  175POPC   PO4 2463   3.966   6.763   4.183
  175POPC   GL1 2464   3.948   7.009   4.607
  175POPC   GL2 2465   3.939   7.398   4.623
  175POPC   C1A 2466   4.070   6.967   5.067
  175POPC   D2A 2467   4.420   6.884   5.380
  175POPC   C3A 2468   4.501   7.152   5.752
  175POPC   C4A 2469   4.397   7.092   6.220
  175POPC   C1B 2470   4.138   7.486   4.990
  175POPC   C2B 2471   4.316   7.463   5.392
  175POPC   C3B 2472   4.361   7.653   5.785
  175POPC   C4B 2473   4.230   7.576   6.208
  176POPC   NC3 2474   8.658   4.879   4.112
  176POPC   PO4 2475   8.326   5.349   3.654
  176POPC   GL1 2476   8.278   5.241   4.089
  176POPC   GL2 2477   8.072   4.919   4.097
  176POPC   C1A 2478   8.401   5.287   4.532
  176POPC   D2A 2479   8.412   5.102   4.940
  176POPC   C3A 2480   8.230   5.294   5.318
  176POPC   C4A 2481   8.244   5.278   5.779
  176POPC   C1B 2482   8.010   4.932   4.562
  176POPC   C2B 2483   7.966   4.868   5.023
  176POPC   C3B 2484   8.254   4.786   5.338
  176POPC   C4B 2485   8.219   4.727   5.763
  177POPC   NC3 2486   0.214   4.854   3.712
  177POPC   PO4 2487   0.249   4.116   3.860
  177POPC   GL1 2488   0.420   4.368   4.214
  177POPC   GL2 2489   0.437   4.050   4.361
  177POPC   C1A 2490   0.407   4.496   4.706
  177POPC   D2A 2491   0.715   4.456   5.113
  177POPC   C3A 2492   0.654   4.562   5.561
  177POPC   C4A 2493   0.520   4.433   6.005
  177POPC   C1B 2494   0.701   4.089   4.717
  177POPC   C2B 2495   0.608   3.967   5.164
  177POPC   C3B 2496   0.302   4.239   5.402
  177POPC   C4B 2497   0.131   4.150   5.845
  178POPC   NC3 2498   8.676   9.772   4.088
  178POPC   PO4 2499   9.286   9.443   3.872
  178POPC   GL1 2500   9.108   9.608   4.265
  178POPC   GL2 2501   9.117   9.966   4.332
  178POPC   C1A 2502   8.995   9.551   4.686
  178POPC   D2A 2503   9.158   9.368   5.046
  178POPC   C3A 2504   8.985   9.489   5.459
  178POPC   C4A 2505   9.069   9.220   5.828
  178POPC   C1B 2506   8.867   0.041   4.733
  178POPC   C2B 2507   8.956   9.952   5.200
  178POPC   C3B 2508   8.909   9.962   5.688
  178POPC   C4B 2509   8.741   9.988   6.170
  179POPC   NC3 2510   3.488   7.450   3.715
  179POPC   PO4 2511   4.097   7.643   3.785
  179POPC   GL1 2512   3.707   7.583   4.148
  179POPC   GL2 2513   3.664   7.249   4.245
  179POPC   C1A 2514   3.474   7.654   4.580
  179POPC   D2A 2515   3.224   7.539   4.982
  179POPC   C3A 2516   3.446   7.593   5.391
  179POPC   C4A 2517   3.466   7.363   5.781
  179POPC   C1B 2518   3.460   7.157   4.645
  179POPC   C2B 2519   3.662   7.293   5.042
  179POPC   C3B 2520   3.860   7.253   5.454
  179POPC   C4B 2521   4.003   7.246   5.895
  180POPC   NC3 2522   9.916   2.667   3.820
  180POPC   PO4 2523   9.960   3.249   4.171
  180POPC   GL1 2524   9.749   3.069   4.436
  180POPC   GL2 2525   9.505   2.832   4.362
  180POPC   C1A 2526   9.715   2.922   4.814
  180POPC   D2A 2527   9.566   3.120   5.122
  180POPC   C3A 2528   9.795   2.932   5.440
  180POPC   C4A 2529   9.618   3.087   5.774
  180POPC   C1B 2530   9.472   2.484   4.661
  180POPC   C2B 2531   9.471   2.542   5.099
  180POPC   C3B 2532   9.314   2.804   5.432
  180POPC   C4B 2533   9.430   2.577   5.797
  181POPC   NC3 2534   1.002   1.249   4.062
  181POPC   PO4 2535   0.872   0.698   3.660
  181POPC   GL1 2536   1.188   0.789   4.133
  181POPC   GL2 2537   1.441   0.991   4.329
  181POPC   C1A 2538   1.039   0.963   4.630
  181POPC   D2A 2539   1.098   1.293   4.950
  181POPC   C3A 2540   1.150   1.176   5.383
  181POPC   C4A 2541   1.161   1.075   5.829
  181POPC   C1B 2542   1.549   1.327   4.716
  181POPC   C2B 2543   1.548   1.515   5.178
  181POPC   C3B 2544   1.580   1.336   5.624
  181POPC   C4B 2545   1.539   1.322   6.085
  182POPC   NC3 2546   2.180   1.564   3.507
  182POPC   PO4 2547   1.925   1.774   4.020
  182POPC   GL1 2548   1.876   2.052   4.359
  182POPC   GL2 2549   1.684   2.333   4.312
  182POPC   C1A 2550   1.853   2.020   4.801
  182POPC   D2A 2551   2.240   2.011   5.025
  182POPC   C3A 2552   2.369   2.098   5.434
  182POPC   C4A 2553   2.104   2.054   5.792
  182POPC   C1B 2554   1.730   2.551   4.698
  182POPC   C2B 2555   1.883   2.429   5.120
  182POPC   C3B 2556   1.823   2.056   5.356
  182POPC   C4B 2557   1.607   2.138   5.739
  183POPC   NC3 2558   7.735   1.251   3.911
  183POPC   PO4 2559   8.350   1.544   3.706
  183POPC   GL1 2560   8.153   1.434   4.168
  183POPC   GL2 2561   8.412   1.298   4.362
  183POPC   C1A 2562   8.071   1.432   4.687
  183POPC   D2A 2563   8.191   1.454   5.167
  183POPC   C3A 2564   7.959   1.404   5.620
  183POPC   C4A 2565   7.802   1.513   6.085
  183POPC   C1B 2566   8.492   1.129   4.808
  183POPC   C2B 2567   8.470   1.033   5.263
  183POPC   C3B 2568   8.449   1.164   5.719
  183POPC   C4B 2569   8.445   0.882   6.112
  184POPC   NC3 2570   8.253   8.984   3.905
  184POPC   PO4 2571   7.582   9.112   3.851
  184POPC   GL1 2572   7.880   9.196   4.171
  184POPC   GL2 2573   7.949   8.864   4.285
  184POPC   C1A 2574   8.043   9.288   4.604
  184POPC   D2A 2575   7.853   9.356   5.013
  184POPC   C3A 2576   8.040   9.229   5.407
  184POPC   C4A 2577   7.823   8.970   5.715
  184POPC   C1B 2578   8.206   8.793   4.643
  184POPC   C2B 2579   8.248   8.905   5.057
  184POPC   C3B 2580   8.456   8.762   5.408
  184POPC   C4B 2581   8.308   8.837   5.781
  185POPC   NC3 2582   8.126   9.519   3.712
  185POPC   PO4 2583   8.363   0.145   3.944
  185POPC   GL1 2584   8.225   9.861   4.269
  185POPC   GL2 2585   7.935   9.695   4.218
  185POPC   C1A 2586   8.442   9.695   4.680
  185POPC   D2A 2587   8.631   9.593   5.061
  185POPC   C3A 2588   8.517   9.762   5.440
  185POPC   C4A 2589   8.550   9.641   5.874
  185POPC   C1B 2590   7.955   9.802   4.690
  185POPC   C2B 2591   8.088   9.777   5.154
  185POPC   C3B 2592   8.038   9.810   5.619
  185POPC   C4B 2593   7.857   0.131   5.885
  186POPC   NC3 2594   5.026   2.132   3.907
  186POPC   PO4 2595   5.152   1.435   4.094
  186POPC   GL1 2596   5.110   1.690   4.441
  186POPC   GL2 2597   5.144   2.036   4.389
  186POPC   C1A 2598   4.998   1.809   4.874
  186POPC   D2A 2599   5.218   1.874   5.273
  186POPC   C3A 2600   4.985   1.936   5.668
  186POPC   C4A 2601   4.763   1.906   6.072
  186POPC   C1B 2602   5.000   2.303   4.738
  186POPC   C2B 2603   4.954   2.303   5.188
  186POPC   C3B 2604   5.190   2.408   5.564
  186POPC   C4B 2605   5.192   2.273   5.985
  187POPC   NC3 2606   3.415   2.893   3.904
  187POPC   PO4 2607   4.079   3.164   3.949
  187POPC   GL1 2608   3.796   3.126   4.262
  187POPC   GL2 2609   3.783   2.781   4.327
  187POPC   C1A 2610   3.570   3.097   4.689
  187POPC   D2A 2611   3.323   2.772   4.905
  187POPC   C3A 2612   3.213   2.807   5.333
  187POPC   C4A 2613   3.072   2.788   5.776
  187POPC   C1B 2614   3.761   2.567   4.746
  187POPC   C2B 2615   3.603   2.460   5.227
  187POPC   C3B 2616   3.625   2.454   5.735
  187POPC   C4B 2617   3.847   2.467   6.168
  188POPC   NC3 2618   2.870   8.093   3.769
  188POPC   PO4 2619   2.261   7.852   3.870
  188POPC   GL1 2620   2.538   8.119   4.206
  188POPC   GL2 2621   2.934   8.259   4.232
  188POPC   C1A 2622   2.437   8.180   4.668
  188POPC   D2A 2623   2.213   8.017   5.034
  188POPC   C3A 2624   2.429   8.096   5.400
  188POPC   C4A 2625   2.518   8.404   5.709
  188POPC   C1B 2626   2.939   8.089   4.626
  188POPC   C2B 2627   2.856   8.362   4.978
  188POPC   C3B 2628   2.915   8.261   5.409
  188POPC   C4B 2629   2.932   8.123   5.830
  189POPC   NC3 2630   9.302   5.127   3.905
  189POPC   PO4 2631   9.961   5.181   3.939
  189POPC   GL1 2632   9.672   5.004   4.269
  189POPC   GL2 2633   9.548   4.663   4.341
  189POPC   C1A 2634   9.534   5.015   4.723
  189POPC   D2A 2635   9.719   5.035   5.103
  189POPC   C3A 2636   9.512   4.897   5.482
  189POPC   C4A 2637   9.406   5.144   5.833
  189POPC   C1B 2638   9.694   4.512   4.748
  189POPC   C2B 2639   0.008   4.585   5.101
  189POPC   C3B 2640   0.092   4.929   5.424
  189POPC   C4B 2641   9.901   5.007   5.818
  190POPC   NC3 2642   8.717   1.248   3.722
  190POPC   PO4 2643   9.317   1.414   3.927
  190POPC   GL1 2644   8.912   1.314   4.192
  190POPC   GL2 2645   8.729   0.960   4.176
  190POPC   C1A 2646   8.842   1.455   4.618
  190POPC   D2A 2647   9.038   1.541   5.019
  190POPC   C3A 2648   8.893   1.368   5.397
  190POPC   C4A 2649   9.117   1.398   5.791
  190POPC   C1B 2650   8.921   0.935   4.551
  190POPC   C2B 2651   9.011   1.014   4.982
  190POPC   C3B 2652   8.941   0.869   5.401
  190POPC   C4B 2653   8.898   0.933   5.860
  191POPC   NC3 2654   0.784   2.754   4.083
  191POPC   PO4 2655   1.404   2.400   3.899
  191POPC   GL1 2656   1.308   2.731   4.224
  191POPC   GL2 2657   1.348   3.056   4.060
  191POPC   C1A 2658   1.113   2.968   4.617
  191POPC   D2A 2659   0.945   2.905   5.060
  191POPC   C3A 2660   1.193   2.701   5.354
  191POPC   C4A 2661   1.514   2.712   5.664
  191POPC   C1B 2662   1.585   3.126   4.459
  191POPC   C2B 2663   1.551   2.987   4.918
  191POPC   C3B 2664   1.470   3.141   5.343
  191POPC   C4B 2665   1.174   3.114   5.720
  192POPC   NC3 2666   1.897   9.762   3.811
  192POPC   PO4 2667   1.293   9.703   4.076
  192POPC   GL1 2668   1.713   9.620   4.251
  192POPC   GL2 2669   2.073   9.785   4.279
  192POPC   C1A 2670   1.841   9.488   4.634
  192POPC   D2A 2671   1.785   9.356   5.033
  192POPC   C3A 2672   1.888   9.553   5.454
  192POPC   C4A 2673   1.678   9.350   5.820
  192POPC   C1B 2674   2.253   9.750   4.685
  192POPC   C2B 2675   2.396   9.954   5.003
  192POPC   C3B 2676   2.228   0.147   5.339
  192POPC   C4B 2677   2.101   9.997   5.700
  193POPC   NC3 2678   7.955   6.245   4.106
  193POPC   PO4 2679   8.371   6.656   3.734
  193POPC   GL1 2680   8.263   6.701   4.219
  193POPC   GL2 2681   7.954   6.909   4.353
  193POPC   C1A 2682   8.277   6.601   4.697
  193POPC   D2A 2683   8.421   6.440   5.149
  193POPC   C3A 2684   8.457   6.619   5.598
  193POPC   C4A 2685   8.365   6.463   6.052
  193POPC   C1B 2686   7.869   6.946   4.807
  193POPC   C2B 2687   7.889   6.577   5.072
  193POPC   C3B 2688   7.999   6.397   5.467
  193POPC   C4B 2689   7.974   6.670   5.804
  194POPC   NC3 2690   7.837   5.373   3.827
  194POPC   PO4 2691   7.551   4.787   3.943
  194POPC   GL1 2692   7.617   4.664   4.377
  194POPC   GL2 2693   7.336   4.880   4.448
  194POPC   C1A 2694   7.538   4.650   4.865
  194POPC   D2A 2695   7.493   4.843   5.289
  194POPC   C3A 2696   7.823   5.028   5.580
  194POPC   C4A 2697   7.757   5.370   5.912
  194POPC   C1B 2698   7.044   4.673   4.750
  194POPC   C2B 2699   7.024   4.659   5.205
  194POPC   C3B 2700   7.172   4.599   5.641
  194POPC   C4B 2701   6.927   4.460   6.030
  195POPC   NC3 2702   3.531   1.907   4.017
  195POPC   PO4 2703   3.703   2.511   3.889
  195POPC   GL1 2704   3.711   2.265   4.322
  195POPC   GL2 2705   3.333   2.237   4.356
  195POPC   C1A 2706   3.837   1.880   4.633
  195POPC   D2A 2707   4.032   1.713   5.065
  195POPC   C3A 2708   3.835   1.666   5.538
  195POPC   C4A 2709   3.744   1.642   6.048
  195POPC   C1B 2710   3.441   2.171   4.787
  195POPC   C2B 2711   3.594   1.959   5.141
  195POPC   C3B 2712   3.443   2.010   5.554
  195POPC   C4B 2713   3.265   1.745   5.854
  196POPC   NC3 2714   4.707   1.394   4.014
  196POPC   PO4 2715   4.012   1.561   3.927
  196POPC   GL1 2716   3.885   1.421   4.354
  196POPC   GL2 2717   4.074   1.123   4.318
  196POPC   C1A 2718   4.019   1.270   4.798
  196POPC   D2A 2719   4.006   1.230   5.266
  196POPC   C3A 2720   4.317   1.520   5.439
  196POPC   C4A 2721   4.651   1.516   5.700
  196POPC   C1B 2722   4.451   1.028   4.613
  196POPC   C2B 2723   4.617   1.057   5.046
  196POPC   C3B 2724   4.528   1.050   5.491
  196POPC   C4B 2725   4.157   1.171   5.766
  197POPC   NC3 2726   7.427   7.741   3.728
  197POPC   PO4 2727   6.904   7.979   4.091
  197POPC   GL1 2728   7.083   8.149   4.431
  197POPC   GL2 2729   7.329   8.411   4.379
  197POPC   C1A 2730   7.004   8.371   4.789
  197POPC   D2A 2731   7.237   8.561   5.110
  197POPC   C3A 2732   7.119   8.304   5.444
  197POPC   C4A 2733   7.314   8.111   5.771
  197POPC   C1B 2734   7.463   8.162   4.800
  197POPC   C2B 2735   7.602   8.185   5.260
  197POPC   C3B 2736   7.796   8.120   5.679
  197POPC   C4B 2737   7.660   8.176   6.147
  198POPC   NC3 2738   9.000   3.448   3.640
  198POPC   PO4 2739   9.299   3.929   3.991
  198POPC   GL1 2740   9.086   3.783   4.341
  198POPC   GL2 2741   8.875   3.516   4.221
  198POPC   C1A 2742   9.044   3.677   4.789
  198POPC   D2A 2743   9.069   3.349   5.104
  198POPC   C3A 2744   9.220   3.508   5.490
  198POPC   C4A 2745   9.244   3.383   5.944
  198POPC   C1B 2746   8.602   3.725   4.548
  198POPC   C2B 2747   8.559   3.591   4.975
  198POPC   C3B 2748   8.533   3.469   5.392
  198POPC   C4B 2749   8.787   3.474   5.755
  199POPC   NC3 2750   1.892   9.086   3.788
  199POPC   PO4 2751   2.351   9.491   3.945
  199POPC   GL1 2752   2.134   9.273   4.268
  199POPC   GL2 2753   2.132   8.908   4.240
  199POPC   C1A 2754   2.272   9.206   4.701
  199POPC   D2A 2755   2.108   8.934   5.033
  199POPC   C3A 2756   1.956   9.050   5.421
  199POPC   C4A 2757   2.163   9.028   5.805
  199POPC   C1B 2758   1.840   8.944   4.597
  199POPC   C2B 2759   1.589   8.839   4.993
  199POPC   C3B 2760   1.545   8.710   5.442
  199POPC   C4B 2761   1.699   8.842   5.835
  200POPC   NC3 2762   7.925   0.394   4.124
  200POPC   PO4 2763   7.656   0.826   3.747
  200POPC   GL1 2764   8.031   0.892   4.121
  200POPC   GL2 2765   8.334   0.632   4.278
  200POPC   C1A 2766   8.067   0.931   4.582
  200POPC   D2A 2767   7.947   1.026   5.015
  200POPC   C3A 2768   7.990   0.682   5.334
  200POPC   C4A 2769   8.039   0.593   5.777
  200POPC   C1B 2770   8.304   0.223   4.608
  200POPC   C2B 2771   8.444   0.124   5.022
  200POPC   C3B 2772   8.247   0.226   5.407
  200POPC   C4B 2773   8.417   0.148   5.795
  201POPC   NC3 2774   8.925   9.263   3.632
  201POPC   PO4 2775   8.399   9.400   4.062
  201POPC   GL1 2776   8.688   9.297   4.342
  201POPC   GL2 2777   8.967   9.130   4.154
  201POPC   C1A 2778   8.594   9.179   4.764
  201POPC   D2A 2779   8.742   9.112   5.193
  201POPC   C3A 2780   8.558   9.231   5.595
  201POPC   C4A 2781   8.537   9.174   6.083
  201POPC   C1B 2782   9.085   9.046   4.610
  201POPC   C2B 2783   9.101   8.797   5.014
  201POPC   C3B 2784   9.085   8.835   5.472
  201POPC   C4B 2785   8.813   8.793   5.819
  202POPC   NC3 2786   7.343   3.614   3.975
  202POPC   PO4 2787   7.651   3.088   3.759
  202POPC   GL1 2788   7.521   3.212   4.206
  202POPC   GL2 2789   7.720   3.540   4.299
  202POPC   C1A 2790   7.317   3.091   4.624
  202POPC   D2A 2791   7.169   2.956   5.024
  202POPC   C3A 2792   7.305   3.210   5.365
  202POPC   C4A 2793   7.546   3.300   5.724
  202POPC   C1B 2794   7.523   3.581   4.707
  202POPC   C2B 2795   7.346   3.699   5.115
  202POPC   C3B 2796   7.302   3.704   5.557
  202POPC   C4B 2797   7.553   3.774   5.929
  203POPC   NC3 2798   5.697   0.083   3.503
  203POPC   PO4 2799   5.484   0.494   4.037
  203POPC   GL1 2800   5.875   0.562   4.277
  203POPC   GL2 2801   5.863   0.852   4.482
  203POPC   C1A 2802   6.138   0.437   4.632
  203POPC   D2A 2803   6.142   0.099   4.951
  203POPC   C3A 2804   6.191   0.215   5.398
  203POPC   C4A 2805   6.045   0.200   5.817
  203POPC   C1B 2806   5.691   0.620   4.788
  203POPC   C2B 2807   5.859   0.489   5.137
  203POPC   C3B 2808   5.778   0.530   5.547
  203POPC   C4B 2809   5.420   0.765   5.675
  204POPC   NC3 2810   4.441   7.913   3.677
  204POPC   PO4 2811   4.157   7.737   4.302
  204POPC   GL1 2812   3.883   7.934   4.547
  204POPC   GL2 2813   4.041   8.233   4.489
  204POPC   C1A 2814   3.729   7.830   4.975
  204POPC   D2A 2815   3.972   7.848   5.317
  204POPC   C3A 2816   3.857   7.720   5.683
  204POPC   C4A 2817   4.017   7.986   5.966
  204POPC   C1B 2818   4.488   8.262   4.634
  204POPC   C2B 2819   4.553   8.309   5.085
  204POPC   C3B 2820   4.421   8.154   5.506
  204POPC   C4B 2821   4.420   8.376   5.892
  205POPC   NC3 2822   5.743   8.330   3.958
  205POPC   PO4 2823   6.146   7.801   3.950
  205POPC   GL1 2824   5.928   7.963   4.336
  205POPC   GL2 2825   5.800   8.314   4.447
  205POPC   C1A 2826   6.044   8.071   4.779
  205POPC   D2A 2827   5.832   8.373   5.078
  205POPC   C3A 2828   5.937   8.310   5.526
  205POPC   C4A 2829   6.014   8.012   5.872
  205POPC   C1B 2830   5.542   8.037   4.742
  205POPC   C2B 2831   5.428   8.102   5.206
  205POPC   C3B 2832   5.533   8.005   5.656
  205POPC   C4B 2833   5.546   7.957   6.128
  206POPC   NC3 2834   9.638   9.175   3.999
  206POPC   PO4 2835   0.022   8.671   3.880
  206POPC   GL1 2836   9.999   8.946   4.248
  206POPC   GL2 2837   9.702   8.786   4.346
  206POPC   C1A 2838   9.984   9.088   4.688
  206POPC   D2A 2839   0.202   9.184   5.072
  206POPC   C3A 2840   0.038   9.334   5.466
  206POPC   C4A 2841   9.787   9.251   5.840
  206POPC   C1B 2842   9.552   8.824   4.771
  206POPC   C2B 2843   9.577   8.817   5.223
  206POPC   C3B 2844   9.573   8.821   5.667
  206POPC   C4B 2845   9.301   8.679   5.999
  207POPC   NC3 2846   2.879   1.337   4.078
  207POPC   PO4 2847   2.302   1.009   4.038
  207POPC   GL1 2848   2.638   0.992   4.363
  207POPC   GL2 2849   2.737   1.307   4.545
  207POPC   C1A 2850   2.634   0.905   4.844
  207POPC   D2A 2851   2.737   1.193   5.178
  207POPC   C3A 2852   2.548   1.139   5.586
  207POPC   C4A 2853   2.482   0.896   5.958
  207POPC   C1B 2854   3.059   1.381   4.816
  207POPC   C2B 2855   3.232   1.098   5.119
  207POPC   C3B 2856   3.144   1.033   5.574
  207POPC   C4B 2857   2.912   1.160   5.974
  208POPC   NC3 2858   6.374   9.014   4.126
  208POPC   PO4 2859   6.928   8.917   3.745
  208POPC   GL1 2860   6.786   8.783   4.281
  208POPC   GL2 2861   6.689   9.129   4.536
  208POPC   C1A 2862   6.636   8.717   4.763
  208POPC   D2A 2863   6.720   8.522   5.197
  208POPC   C3A 2864   6.765   8.657   5.616
  208POPC   C4A 2865   6.774   8.633   6.072
  208POPC   C1B 2866   6.314   9.119   4.800
  208POPC   C2B 2867   6.369   9.167   5.215
  208POPC   C3B 2868   6.650   9.149   5.514
  208POPC   C4B 2869   6.517   9.011   5.885
  209POPC   NC3 2870   2.966   5.751   4.059
  209POPC   PO4 2871   2.307   5.764   3.945
  209POPC   GL1 2872   2.398   5.928   4.312
  209POPC   GL2 2873   2.639   6.136   4.279
  209POPC   C1A 2874   2.523   5.784   4.693
  209POPC   D2A 2875   2.429   5.950   5.095
  209POPC   C3A 2876   2.582   5.827   5.472
  209POPC   C4A 2877   2.542   5.714   5.901
  209POPC   C1B 2878   2.904   6.122   4.696
  209POPC   C2B 2879   2.880   6.161   5.175
  209POPC   C3B 2880   2.970   6.132   5.645
  209POPC   C4B 2881   3.327   6.102   6.003
  210POPC   NC3 2882   1.224   7.453   3.887
  210POPC   PO4 2883   0.932   6.857   3.965
  210POPC   GL1 2884   1.051   7.138   4.277
  210POPC   GL2 2885   0.860   7.465   4.277
  210POPC   C1A 2886   1.206   7.222   4.695
  210POPC   D2A 2887   1.154   7.326   5.135
  210POPC   C3A 2888   1.223   7.101   5.538
  210POPC   C4A 2889   1.385   6.965   5.972
  210POPC   C1B 2890   0.964   7.678   4.667
  210POPC   C2B 2891   1.213   7.817   5.039
  210POPC   C3B 2892   1.267   7.695   5.475
  210POPC   C4B 2893   1.429   7.460   5.836
  211POPC   NC3 2894   2.115   7.677   4.276
  211POPC   PO4 2895   1.675   7.313   3.884
  211POPC   GL1 2896   1.814   7.109   4.228
  211POPC   GL2 2897   2.147   7.106   4.329
  211POPC   C1A 2898   1.737   7.120   4.660
  211POPC   D2A 2899   1.607   7.453   4.925
  211POPC   C3A 2900   1.642   7.362   5.353
  211POPC   C4A 2901   1.888   7.244   5.684
  211POPC   C1B 2902   2.242   7.269   4.763
  211POPC   C2B 2903   2.089   7.509   5.117
  211POPC   C3B 2904   2.224   7.603   5.522
  211POPC   C4B 2905   2.555   7.751   5.752
  212POPC   NC3 2906   9.484   1.848   3.938
  212POPC   PO4 2907   9.523   2.487   4.004
  212POPC   GL1 2908   9.688   2.147   4.326
  212POPC   GL2 2909   9.892   1.815   4.294
  212POPC   C1A 2910   9.733   2.058   4.789
  212POPC   D2A 2911   9.844   2.161   5.213
  212POPC   C3A 2912   9.538   2.131   5.541
  212POPC   C4A 2913   9.342   2.064   5.943
  212POPC   C1B 2914   9.702   1.568   4.659
  212POPC   C2B 2915   9.542   1.654   5.118
  212POPC   C3B 2916   9.545   1.616   5.582
  212POPC   C4B 2917   9.820   1.790   5.901
  213POPC   NC3 2918   2.046   5.364   3.997
  213POPC   PO4 2919   2.512   4.938   4.052
  213POPC   GL1 2920   2.144   5.042   4.385
  213POPC   GL2 2921   1.779   4.969   4.288
  213POPC   C1A 2922   1.831   5.316   4.664
  213POPC   D2A 2923   1.643   5.552   5.045
  213POPC   C3A 2924   1.782   5.495   5.493
  213POPC   C4A 2925   2.191   5.417   5.699
  213POPC   C1B 2926   1.628   4.714   4.634
  213POPC   C2B 2927   1.711   4.671   5.070
  213POPC   C3B 2928   1.847   4.687   5.495
  213POPC   C4B 2929   2.185   4.892   5.746
  214POPC   NC3 2930   1.332   8.437   4.028
  214POPC   PO4 2931   0.914   7.853   3.946
  214POPC   GL1 2932   1.083   8.077   4.325
  214POPC   GL2 2933   1.467   8.082   4.360
  214POPC   C1A 2934   0.984   8.180   4.774
  214POPC   D2A 2935   0.737   7.993   5.155
  214POPC   C3A 2936   0.879   8.053   5.579
  214POPC   C4A 2937   1.136   7.884   5.930
  214POPC   C1B 2938   1.448   8.407   4.701
  214POPC   C2B 2939   1.319   8.348   5.131
  214POPC   C3B 2940   1.408   8.196   5.544
  214POPC   C4B 2941   1.685   8.325   5.863
  215POPC   NC3 2942   5.107   8.644   3.529
  215POPC   PO4 2943   4.778   8.974   4.008
  215POPC   GL1 2944   4.884   8.850   4.391
  215POPC   GL2 2945   5.188   8.808   4.374
  215POPC   C1A 2946   4.836   8.654   4.769
  215POPC   D2A 2947   4.690   8.811   5.137
  215POPC   C3A 2948   4.719   8.595   5.518
  215POPC   C4A 2949   4.862   8.653   5.936
  215POPC   C1B 2950   5.188   9.089   4.732
  215POPC   C2B 2951   5.053   9.192   5.136
  215POPC   C3B 2952   5.052   8.992   5.536
  215POPC   C4B 2953   5.046   9.127   5.957
  216POPC   NC3 2954   2.875   6.624   3.899
  216POPC   PO4 2955   3.321   7.086   3.951
  216POPC   GL1 2956   3.129   6.859   4.346
  216POPC   GL2 2957   2.877   6.563   4.418
  216POPC   C1A 2958   3.067   6.798   4.825
  216POPC   D2A 2959   2.713   6.665   5.135
  216POPC   C3A 2960   2.818   6.738   5.589
  216POPC   C4A 2961   3.130   6.956   5.857
  216POPC   C1B 2962   2.488   6.409   4.684
  216POPC   C2B 2963   2.256   6.430   5.085
  216POPC   C3B 2964   2.463   6.330   5.458
  216POPC   C4B 2965   2.507   6.239   5.867
  217POPC   NC3 2966   2.889   3.777   3.397
  217POPC   PO4 2967   2.883   4.111   4.012
  217POPC   GL1 2968   2.748   4.296   4.449
  217POPC   GL2 2969   2.489   4.612   4.479
  217POPC   C1A 2970   2.892   4.187   4.913
  217POPC   D2A 2971   3.051   3.953   5.324
  217POPC   C3A 2972   3.037   4.004   5.794
  217POPC   C4A 2973   2.701   4.124   6.129
  217POPC   C1B 2974   2.413   4.345   4.842
  217POPC   C2B 2975   2.463   4.049   5.174
  217POPC   C3B 2976   2.597   4.172   5.608
  217POPC   C4B 2977   2.578   4.577   5.901
  218POPC   NC3 2978   3.086   7.494   4.122
  218POPC   PO4 2979   2.473   7.451   4.130
  218POPC   GL1 2980   2.703   7.275   4.390
  218POPC   GL2 2981   2.621   6.950   4.227
  218POPC   C1A 2982   2.781   7.571   4.728
  218POPC   D2A 2983   2.745   7.862   5.069
  218POPC   C3A 2984   2.971   7.754   5.449
  218POPC   C4A 2985   3.037   7.628   5.889
  218POPC   C1B 2986   2.589   6.905   4.686
  218POPC   C2B 2987   2.715   7.169   5.040
  218POPC   C3B 2988   2.957   7.227   5.423
  218POPC   C4B 2989   2.703   7.246   5.794
  219POPC   NC3 2990   2.574   4.480   4.003
  219POPC   PO4 2991   1.981   4.114   4.090
  219POPC   GL1 2992   2.221   4.171   4.393
  219POPC   GL2 2993   2.004   4.400   4.555
  219POPC   C1A 2994   2.111   3.944   4.771
  219POPC   D2A 2995   1.941   3.908   5.166
  219POPC   C3A 2996   2.200   3.843   5.572
  219POPC   C4A 2997   2.217   3.895   6.066
  219POPC   C1B 2998   1.639   4.213   4.816
  219POPC   C2B 2999   1.519   4.234   5.267
  219POPC   C3B 3000   1.772   4.132   5.586
  219POPC   C4B 3001   2.139   4.343   5.744
  220POPC   NC3 3002   5.559   9.970   4.073
  220POPC   PO4 3003   6.234   0.075   3.881
  220POPC   GL1 3004   6.027   0.054   4.310
  220POPC   GL2 3005   5.864   9.746   4.401
  220POPC   C1A 3006   5.706   0.133   4.678
  220POPC   D2A 3007   5.549   0.035   5.091
  220POPC   C3A 3008   5.772   9.927   5.455
  220POPC   C4A 3009   5.832   9.735   5.856
  220POPC   C1B 3010   5.907   9.659   4.836
  220POPC   C2B 3011   6.000   9.512   5.244
  220POPC   C3B 3012   5.745   9.290   5.552
  220POPC   C4B 3013   5.447   9.403   5.861
  221POPC   NC3 3014   9.778   4.029   3.881
  221POPC   PO4 3015   9.945   4.608   4.012
  221POPC   GL1 3016   9.935   4.266   4.307
  221POPC   GL2 3017   9.623   4.113   4.379
  221POPC   C1A 3018   0.055   4.120   4.717
  221POPC   D2A 3019   9.765   4.080   5.031
  221POPC   C3A 3020   9.812   4.111   5.442
  221POPC   C4A 3021   9.859   4.519   5.632
  221POPC   C1B 3022   9.343   4.097   4.766
  221POPC   C2B 3023   9.306   4.058   5.243
  221POPC   C3B 3024   9.374   4.263   5.663
  221POPC   C4B 3025   9.662   4.195   6.040
  222POPC   NC3 3026   9.387   3.231   4.087
  222POPC   PO4 3027   9.892   3.358   3.678
  222POPC   GL1 3028   9.680   3.632   4.140
  222POPC   GL2 3029   9.964   3.730   4.400
  222POPC   C1A 3030   9.513   3.626   4.583
  222POPC   D2A 3031   9.505   3.632   5.026
  222POPC   C3A 3032   9.734   3.556   5.389
  222POPC   C4A 3033   9.569   3.780   5.755
  222POPC   C1B 3034   9.936   3.428   4.777
  222POPC   C2B 3035   0.076   3.213   5.109
  222POPC   C3B 3036   0.161   3.277   5.519
  222POPC   C4B 3037   9.941   3.465   5.861
  223POPC   NC3 3038   1.211   0.171   4.092
  223POPC   PO4 3039   0.717   0.669   4.167
  223POPC   GL1 3040   1.083   0.446   4.495
  223POPC   GL2 3041   1.472   0.460   4.419
  223POPC   C1A 3042   1.365   0.239   4.862
  223POPC   D2A 3043   1.159   0.200   5.224
  223POPC   C3A 3044   1.252   0.124   5.632
  223POPC   C4A 3045   0.898   0.215   5.885
  223POPC   C1B 3046   1.450   0.720   4.760
  223POPC   C2B 3047   1.197   0.726   5.116
  223POPC   C3B 3048   1.250   0.643   5.552
  223POPC   C4B 3049   1.248   0.555   5.992
  224POPC   NC3 3050   8.080   3.062   3.584
  224POPC   PO4 3051   8.574   3.471   3.809
  224POPC   GL1 3052   8.304   3.534   4.199
  224POPC   GL2 3053   8.119   3.853   4.151
  224POPC   C1A 3054   8.293   3.313   4.644
  224POPC   D2A 3055   8.067   3.449   5.048
  224POPC   C3A 3056   8.037   3.240   5.461
  224POPC   C4A 3057   7.978   3.223   5.933
  224POPC   C1B 3058   8.047   3.759   4.621
  224POPC   C2B 3059   7.821   3.906   5.001
  224POPC   C3B 3060   7.764   3.938   5.446
  224POPC   C4B 3061   8.013   3.692   5.743
  225POPC   NC3 3062   6.527   9.680   3.967
  225POPC   PO4 3063   6.026   9.306   4.238
  225POPC   GL1 3064   6.366   9.529   4.434
  225POPC   GL2 3065   6.528   9.884   4.419
  225POPC   C1A 3066   6.457   9.629   4.856
  225POPC   D2A 3067   6.667   9.590   5.230
  225POPC   C3A 3068   6.378   9.749   5.514
  225POPC   C4A 3069   6.209   9.393   5.731
  225POPC   C1B 3070   6.919   9.875   4.713
  225POPC   C2B 3071   7.095   9.851   5.163
  225POPC   C3B 3072   6.898   9.883   5.585
  225POPC   C4B 3073   6.708   9.539   5.834
  226POPC   NC3 3074   9.916   5.809   3.905
  226POPC   PO4 3075   9.300   5.562   3.733
  226POPC   GL1 3076   9.574   5.500   4.127
  226POPC   GL2 3077   9.476   5.799   4.261
  226POPC   C1A 3078   9.750   5.474   4.592
  226POPC   D2A 3079   9.668   5.604   5.073
  226POPC   C3A 3080   9.716   5.385   5.495
  226POPC   C4A 3081   9.824   5.474   5.968
  226POPC   C1B 3082   9.510   5.936   4.690
  226POPC   C2B 3083   9.865   6.078   4.921
  226POPC   C3B 3084   9.936   5.965   5.333
  226POPC   C4B 3085   9.625   5.872   5.616
  227POPC   NC3 3086   8.990   5.781   4.013
  227POPC   PO4 3087   9.264   6.404   3.954
  227POPC   GL1 3088   9.166   6.191   4.394
  227POPC   GL2 3089   8.884   5.964   4.456
  227POPC   C1A 3090   9.066   6.141   4.873
  227POPC   D2A 3091   9.142   5.803   5.181
  227POPC   C3A 3092   9.134   5.979   5.625
  227POPC   C4A 3093   9.133   6.043   6.118
  227POPC   C1B 3094   8.780   5.600   4.715
  227POPC   C2B 3095   8.707   5.483   5.140
  227POPC   C3B 3096   8.592   5.578   5.561
  227POPC   C4B 3097   8.750   5.789   5.891
  228POPC   NC3 3098   8.504   3.087   4.059
  228POPC   PO4 3099   8.074   2.641   3.814
  228POPC   GL1 3100   7.991   2.782   4.221
  228POPC   GL2 3101   8.009   3.114   4.174
  228POPC   C1A 3102   8.124   2.759   4.677
  228POPC   D2A 3103   8.070   2.737   5.138
  228POPC   C3A 3104   8.453   2.682   5.391
  228POPC   C4A 3105   8.485   2.584   5.839
  228POPC   C1B 3106   7.820   3.155   4.609
  228POPC   C2B 3107   7.678   3.083   5.035
  228POPC   C3B 3108   7.677   2.867   5.456
  228POPC   C4B 3109   8.031   2.769   5.713
  229POPC   NC3 3110   5.969   2.906   3.973
  229POPC   PO4 3111   5.331   3.065   4.122
  229POPC   GL1 3112   5.664   2.964   4.376
  229POPC   GL2 3113   5.653   2.630   4.270
  229POPC   C1A 3114   5.907   2.917   4.764
  229POPC   D2A 3115   6.178   2.744   5.068
  229POPC   C3A 3116   6.167   2.942   5.467
  229POPC   C4A 3117   5.910   2.960   5.831
  229POPC   C1B 3118   5.760   2.438   4.650
  229POPC   C2B 3119   6.013   2.275   4.963
  229POPC   C3B 3120   6.015   2.337   5.405
  229POPC   C4B 3121   5.710   2.507   5.713
  230POPC   NC3 3122   1.308   6.021   3.844
  230POPC   PO4 3123   0.960   5.553   3.635
  230POPC   GL1 3124   1.038   5.716   4.127
  230POPC   GL2 3125   1.418   5.736   4.232
  230POPC   C1A 3126   1.087   5.969   4.559
  230POPC   D2A 3127   0.916   6.127   4.981
  230POPC   C3A 3128   0.998   6.026   5.415
  230POPC   C4A 3129   0.973   6.208   5.820
  230POPC   C1B 3130   1.350   5.535   4.614
  230POPC   C2B 3131   1.132   5.640   5.000
  230POPC   C3B 3132   1.272   5.592   5.402
  230POPC   C4B 3133   1.176   5.704   5.818
  231POPC   NC3 3134   4.926   8.521   4.015
  231POPC   PO4 3135   5.424   7.992   3.968
  231POPC   GL1 3136   5.314   8.301   4.310
  231POPC   GL2 3137   4.986   8.283   4.452
  231POPC   C1A 3138   5.361   8.507   4.747
  231POPC   D2A 3139   5.167   8.616   5.166
  231POPC   C3A 3140   5.291   8.484   5.584
  231POPC   C4A 3141   5.169   8.248   5.937
  231POPC   C1B 3142   5.009   8.169   4.903
  231POPC   C2B 3143   4.944   8.148   5.383
  231POPC   C3B 3144   4.836   7.901   5.769
  231POPC   C4B 3145   5.036   7.830   6.200
  232POPC   NC3 3146   7.075   1.877   3.679
  232POPC   PO4 3147   7.610   2.152   4.036
  232POPC   GL1 3148   7.610   2.098   4.442
  232POPC   GL2 3149   7.667   1.737   4.349
  232POPC   C1A 3150   7.338   2.067   4.837
  232POPC   D2A 3151   7.274   2.013   5.285
  232POPC   C3A 3152   6.945   2.226   5.545
  232POPC   C4A 3153   6.862   2.145   5.979
  232POPC   C1B 3154   7.785   1.813   4.810
  232POPC   C2B 3155   7.737   1.706   5.239
  232POPC   C3B 3156   7.716   1.890   5.636
  232POPC   C4B 3157   7.332   2.042   5.809
  233POPC   NC3 3158   0.494   0.933   3.854
  233POPC   PO4 3159   0.731   1.626   3.963
  233POPC   GL1 3160   0.515   1.289   4.238
  233POPC   GL2 3161   0.159   1.221   4.193
  233POPC   C1A 3162   0.490   1.034   4.654
  233POPC   D2A 3163   0.724   0.950   5.073
  233POPC   C3A 3164   0.711   0.909   5.548
  233POPC   C4A 3165   0.646   1.207   5.913
  233POPC   C1B 3166   0.198   1.445   4.606
  233POPC   C2B 3167   0.469   1.417   4.988
  233POPC   C3B 3168   0.413   1.337   5.435
  233POPC   C4B 3169   0.213   1.470   5.836
  234POPC   NC3 3170   3.044   3.676   3.931
  234POPC   PO4 3171   2.487   3.924   3.574
  234POPC   GL1 3172   2.454   3.821   4.068
  234POPC   GL2 3173   2.564   3.474   4.136
  234POPC   C1A 3174   2.571   3.834   4.564
  234POPC   D2A 3175   2.817   3.676   4.957
  234POPC   C3A 3176   2.659   3.644   5.410
  234POPC   C4A 3177   2.620   3.695   5.846
  234POPC   C1B 3178   2.707   3.337   4.561
  234POPC   C2B 3179   2.988   3.189   4.902
  234POPC   C3B 3180   3.035   3.304   5.332
  234POPC   C4B 3181   2.878   3.264   5.759
  235POPC   NC3 3182   0.383   3.209   3.992
  235POPC   PO4 3183   0.412   2.525   3.867
  235POPC   GL1 3184   0.212   2.797   4.226
  235POPC   GL2 3185   9.959   2.593   4.373
  235POPC   C1A 3186   0.215   2.958   4.684
  235POPC   D2A 3187   0.425   2.828   5.091
  235POPC   C3A 3188   0.288   2.774   5.544
  235POPC   C4A 3189   0.181   3.017   5.944
  235POPC   C1B 3190   0.016   2.486   4.827
  235POPC   C2B 3191   0.340   2.306   5.122
  235POPC   C3B 3192   0.714   2.466   5.348
  235POPC   C4B 3193   0.798   2.726   5.701
  236POPC   NC3 3194   1.880   1.298   4.101
  236POPC   PO4 3195   1.680   0.622   3.994
  236POPC   GL1 3196   1.910   0.819   4.355
  236POPC   GL2 3197   2.230   0.736   4.492
  236POPC   C1A 3198   1.881   0.952   4.797
  236POPC   D2A 3199   1.627   1.014   5.155
  236POPC   C3A 3200   1.755   0.767   5.487
  236POPC   C4A 3201   1.634   0.867   5.882
  236POPC   C1B 3202   2.263   1.223   4.657
  236POPC   C2B 3203   2.053   1.516   4.976
  236POPC   C3B 3204   2.016   1.538   5.439
  236POPC   C4B 3205   2.056   1.147   5.713
  237POPC   NC3 3206   2.708   9.813   3.918
  237POPC   PO4 3207   3.090   9.213   4.104
  237POPC   GL1 3208   2.898   9.432   4.476
  237POPC   GL2 3209   2.612   9.613   4.379
  237POPC   C1A 3210   2.690   9.534   4.894
  237POPC   D2A 3211   2.309   9.449   5.149
  237POPC   C3A 3212   2.452   9.338   5.545
  237POPC   C4A 3213   2.838   9.356   5.767
  237POPC   C1B 3214   2.859   9.934   4.617
  237POPC   C2B 3215   2.914   9.992   5.064
  237POPC   C3B 3216   2.690   9.758   5.382
  237POPC   C4B 3217   2.591   9.805   5.805
  238POPC   NC3 3218   7.811   4.384   3.969
  238POPC   PO4 3219   8.483   4.440   4.040
  238POPC   GL1 3220   8.199   4.475   4.354
  238POPC   GL2 3221   8.325   4.176   4.485
  238POPC   C1A 3222   8.345   4.600   4.783
  238POPC   D2A 3223   8.640   4.501   5.091
  238POPC   C3A 3224   8.457   4.336   5.470
  238POPC   C4A 3225   8.101   4.211   5.752
  238POPC   C1B 3226   8.338   4.072   4.912
  238POPC   C2B 3227   8.268   3.894   5.316
  238POPC   C3B 3228   8.479   3.877   5.743
  238POPC   C4B 3229   8.321   3.934   6.143
  239POPC   NC3 3230   9.619   6.702   3.917
  239POPC   PO4 3231   9.951   6.138   4.227
  239POPC   GL1 3232   9.708   6.497   4.387
  239POPC   GL2 3233   9.903   6.843   4.315
  239POPC   C1A 3234   9.497   6.454   4.791
  239POPC   D2A 3235   9.460   6.208   5.202
  239POPC   C3A 3236   9.481   6.401   5.602
  239POPC   C4A 3237   9.466   6.398   6.069
  239POPC   C1B 3238   9.716   6.935   4.701
  239POPC   C2B 3239   9.678   6.813   5.122
  239POPC   C3B 3240   9.820   7.003   5.498
  239POPC   C4B 3241   9.720   6.804   5.873
  240POPC   NC3 3242   5.610   0.969   4.065
  240POPC   PO4 3243   5.898   1.480   3.696
  240POPC   GL1 3244   5.872   1.484   4.202
  240POPC   GL2 3245   5.575   1.404   4.341
  240POPC   C1A 3246   5.940   1.312   4.664
  240POPC   D2A 3247   6.037   0.966   4.972
  240POPC   C3A 3248   5.853   1.015   5.395
  240POPC   C4A 3249   5.876   0.940   5.849
  240POPC   C1B 3250   5.479   1.542   4.764
  240POPC   C2B 3251   5.462   1.435   5.195
  240POPC   C3B 3252   5.661   1.441   5.609
  240POPC   C4B 3253   5.445   1.213   5.941
  241POPC   NC3 3254   2.137   0.596   3.936
  241POPC   PO4 3255   1.711   0.162   3.570
  241POPC   GL1 3256   1.714   0.128   4.091
  241POPC   GL2 3257   1.971   0.302   4.302
  241POPC   C1A 3258   1.699   9.997   4.564
  241POPC   D2A 3259   1.849   9.924   5.002
  241POPC   C3A 3260   1.696   0.240   5.328
  241POPC   C4A 3261   1.683   0.329   5.798
  241POPC   C1B 3262   1.888   0.427   4.751
  241POPC   C2B 3263   2.105   0.605   5.110
  241POPC   C3B 3264   2.294   0.644   5.521
  241POPC   C4B 3265   2.070   0.630   5.909
  242POPC   NC3 3266   6.445   3.248   3.432
  242POPC   PO4 3267   6.269   3.392   4.003
  242POPC   GL1 3268   6.571   3.249   4.323
  242POPC   GL2 3269   6.947   3.203   4.261
  242POPC   C1A 3270   6.393   3.169   4.714
  242POPC   D2A 3271   6.188   3.253   5.059
  242POPC   C3A 3272   6.453   3.363   5.387
  242POPC   C4A 3273   6.595   3.777   5.518
  242POPC   C1B 3274   6.903   3.377   4.711
  242POPC   C2B 3275   6.896   3.429   5.163
  242POPC   C3B 3276   6.892   3.372   5.627
  242POPC   C4B 3277   6.762   3.161   6.038
  243POPC   NC3 3278   3.492   0.419   3.784
  243POPC   PO4 3279   3.187   1.004   3.963
  243POPC   GL1 3280   3.467   0.729   4.239
  243POPC   GL2 3281   3.610   0.364   4.259
  243POPC   C1A 3282   3.469   0.557   4.696
  243POPC   D2A 3283   3.401   0.157   4.956
  243POPC   C3A 3284   3.259   0.229   5.401
  243POPC   C4A 3285   3.384   0.449   5.787
  243POPC   C1B 3286   3.841   0.230   4.631
  243POPC   C2B 3287   3.827   0.435   5.049
  243POPC   C3B 3288   3.795   0.306   5.460
  243POPC   C4B 3289   3.911   0.353   5.878
  244POPC   NC3 3290   8.727   1.721   3.941
  244POPC   PO4 3291   9.189   2.088   3.694
  244POPC   GL1 3292   9.178   2.111   4.253
  244POPC   GL2 3293   9.090   1.783   4.298
  244POPC   C1A 3294   8.945   2.250   4.712
  244POPC   D2A 3295   8.547   2.252   5.043
  244POPC   C3A 3296   8.608   2.184   5.522
  244POPC   C4A 3297   8.610   2.111   5.989
  244POPC   C1B 3298   9.276   1.861   4.696
  244POPC   C2B 3299   9.216   2.054   5.126
  244POPC   C3B 3300   9.047   1.872   5.535
  244POPC   C4B 3301   8.670   1.664   5.741
  245POPC   NC3 3302   0.372   9.855   4.006
  245POPC   PO4 3303   0.762   9.341   3.816
  245POPC   GL1 3304   0.628   9.432   4.244
  245POPC   GL2 3305   0.326   9.326   4.386
  245POPC   C1A 3306   0.646   9.517   4.723
  245POPC   D2A 3307   0.517   9.564   5.149
  245POPC   C3A 3308   0.789   9.374   5.474
  245POPC   C4A 3309   0.471   9.318   5.789
  245POPC   C1B 3310   0.135   9.580   4.740
  245POPC   C2B 3311   0.060   9.801   5.125
  245POPC   C3B 3312   0.275   9.797   5.539
  245POPC   C4B 3313   0.110   9.652   5.916
  246POPC   NC3 3314   7.304   8.720   3.904
  246POPC   PO4 3315   6.767   9.280   4.087
  246POPC   GL1 3316   7.155   9.105   4.304
  246POPC   GL2 3317   7.453   8.953   4.333
  246POPC   C1A 3318   7.126   8.881   4.707
  246POPC   D2A 3319   6.911   9.003   5.086
  246POPC   C3A 3320   7.150   8.949   5.461
  246POPC   C4A 3321   7.021   9.097   5.889
  246POPC   C1B 3322   7.645   8.961   4.760
  246POPC   C2B 3323   7.644   8.899   5.225
  246POPC   C3B 3324   7.525   8.594   5.559
  246POPC   C4B 3325   7.218   8.612   5.844
  247POPC   NC3 3326   5.692   7.622   3.992
  247POPC   PO4 3327   6.099   7.096   3.981
  247POPC   GL1 3328   6.037   7.406   4.303
  247POPC   GL2 3329   6.071   7.142   4.525
  247POPC   C1A 3330   5.910   7.590   4.751
  247POPC   D2A 3331   5.887   7.836   5.206
  247POPC   C3A 3332   5.884   7.587   5.619
  247POPC   C4A 3333   5.884   7.545   6.099
  247POPC   C1B 3334   6.242   7.214   4.962
  247POPC   C2B 3335   6.322   7.274   5.416
  247POPC   C3B 3336   6.100   7.142   5.798
  247POPC   C4B 3337   5.718   7.055   6.053
  248POPC   NC3 3338   2.720   0.937   3.831
  248POPC   PO4 3339   2.607   0.269   3.870
  248POPC   GL1 3340   2.919   0.579   4.150
  248POPC   GL2 3341   3.107   0.344   4.365
  248POPC   C1A 3342   3.062   0.823   4.579
  248POPC   D2A 3343   3.075   0.614   5.018
  248POPC   C3A 3344   2.812   0.726   5.389
  248POPC   C4A 3345   2.906   0.649   5.847
  248POPC   C1B 3346   2.721   0.437   4.624
  248POPC   C2B 3347   2.595   0.411   5.066
  248POPC   C3B 3348   2.706   0.251   5.507
  248POPC   C4B 3349   2.484   0.319   5.896
  249POPC   NC3 3350   8.811   6.719   3.903
  249POPC   PO4 3351   8.550   6.107   4.088
  249POPC   GL1 3352   8.729   6.481   4.353
  249POPC   GL2 3353   9.084   6.685   4.332
  249POPC   C1A 3354   8.791   6.621   4.782
  249POPC   D2A 3355   9.112   6.603   5.112
  249POPC   C3A 3356   8.948   6.441   5.453
  249POPC   C4A 3357   8.800   6.311   5.848
  249POPC   C1B 3358   9.217   6.885   4.693
  249POPC   C2B 3359   9.241   7.090   5.119
  249POPC   C3B 3360   9.325   6.905   5.521
  249POPC   C4B 3361   9.134   6.693   5.846
  250POPC   NC3 3362   4.808   9.521   3.907
  250POPC   PO4 3363   5.516   9.606   3.783
  250POPC   GL1 3364   5.339   9.541   4.261
  250POPC   GL2 3365   5.018   9.346   4.327
  250POPC   C1A 3366   5.382   9.673   4.704
  250POPC   D2A 3367   5.481   9.516   5.139
  250POPC   C3A 3368   5.269   9.738   5.490
  250POPC   C4A 3369   5.311   9.878   5.934
  250POPC   C1B 3370   4.761   9.374   4.721
  250POPC   C2B 3371   4.821   9.686   5.046
  250POPC   C3B 3372   4.712   9.788   5.465
  250POPC   C4B 3373   4.878   9.595   5.838
  251POPC   NC3 3374   7.209   1.941   4.165
  251POPC   PO4 3375   6.590   1.868   3.830
  251POPC   GL1 3376   6.648   1.771   4.249
  251POPC   GL2 3377   6.314   1.709   4.359
  251POPC   C1A 3378   6.842   1.710   4.669
  251POPC   D2A 3379   6.833   1.982   5.036
  251POPC   C3A 3380   6.798   1.757   5.428
  251POPC   C4A 3381   6.875   1.637   5.860
  251POPC   C1B 3382   6.405   1.973   4.726
  251POPC   C2B 3383   6.352   1.977   5.201
  251POPC   C3B 3384   6.463   2.071   5.638
  251POPC   C4B 3385   6.419   1.823   5.995
  252POPC   NC3 3386   1.572   1.974   3.755
  252POPC   PO4 3387   1.426   1.417   4.079
  252POPC   GL1 3388   1.447   1.759   4.377
  252POPC   GL2 3389   1.262   2.007   4.194
  252POPC   C1A 3390   1.300   1.825   4.836
  252POPC   D2A 3391   1.057   1.711   5.252
  252POPC   C3A 3392   1.260   1.744   5.687
  252POPC   C4A 3393   1.511   1.810   6.109
  252POPC   C1B 3394   1.223   2.288   4.554
  252POPC   C2B 3395   1.038   2.268   4.971
  252POPC   C3B 3396   1.227   2.182   5.365
  252POPC   C4B 3397   1.146   2.354   5.752
  253POPC   NC3 3398   0.163   3.641   3.953
  253POPC   PO4 3399   0.839   3.222   3.969
  253POPC   GL1 3400   0.673   3.178   4.392
  253POPC   GL2 3401   0.380   3.423   4.433
  253POPC   C1A 3402   0.633   3.227   4.815
  253POPC   D2A 3403   0.525   3.433   5.169
  253POPC   C3A 3404   0.646   3.137   5.447
  253POPC   C4A 3405   0.667   3.191   5.863
  253POPC   C1B 3406   0.373   3.700   4.749
  253POPC   C2B 3407   0.134   3.759   5.117
  253POPC   C3B 3408   0.215   3.767   5.526
  253POPC   C4B 3409   0.417   3.617   5.875
  254POPC   NC3 3410   3.905   9.743   3.536
  254POPC   PO4 3411   4.350   9.403   3.801
  254POPC   GL1 3412   4.458   9.346   4.249
  254POPC   GL2 3413   4.579   9.685   4.362
  254POPC   C1A 3414   4.224   9.424   4.653
  254POPC   D2A 3415   4.313   9.587   5.096
  254POPC   C3A 3416   4.076   9.361   5.456
  254POPC   C4A 3417   3.823   9.533   5.813
  254POPC   C1B 3418   4.264   9.928   4.660
  254POPC   C2B 3419   4.016   9.979   5.070
  254POPC   C3B 3420   4.102   9.881   5.523
  254POPC   C4B 3421   4.365   9.618   5.814
  255POPC   NC3 3422   2.630   9.164   4.135
  255POPC   PO4 3423   2.704   8.539   3.859
  255POPC   GL1 3424   2.611   8.663   4.276
  255POPC   GL2 3425   2.916   8.814   4.418
  255POPC   C1A 3426   2.426   8.695   4.685
  255POPC   D2A 3427   2.376   8.513   5.109
  255POPC   C3A 3428   2.463   8.827   5.412
  255POPC   C4A 3429   2.745   8.864   5.752
  255POPC   C1B 3430   2.790   9.049   4.788
  255POPC   C2B 3431   2.837   9.136   5.220
  255POPC   C3B 3432   3.025   8.747   5.332
  255POPC   C4B 3433   3.211   8.563   5.714
  256POPC   NC3 3434   0.342   9.066   3.870
  256POPC   PO4 3435   0.941   8.682   4.067
  256POPC   GL1 3436   0.646   8.906   4.255
  256POPC   GL2 3437   0.410   8.663   4.218
  256POPC   C1A 3438   0.510   8.956   4.671
  256POPC   D2A 3439   0.709   9.096   5.023
  256POPC   C3A 3440   0.547   8.940   5.394
  256POPC   C4A 3441   0.735   8.872   5.787
  256POPC   C1B 3442   0.122   8.609   4.594
  256POPC   C2B 3443   0.220   8.684   5.029
  256POPC   C3B 3444   0.051   8.802   5.423
  256POPC   C4B 3445   0.191   8.919   5.827
  257POPC   NC3 3446   6.332   1.307   3.797
  257POPC   PO4 3447   6.784   0.766   3.882
  257POPC   GL1 3448   6.833   1.050   4.243
  257POPC   GL2 3449   6.552   1.260   4.259
  257POPC   C1A 3450   6.934   1.199   4.671
  257POPC   D2A 3451   6.994   1.053   5.114
  257POPC   C3A 3452   6.859   1.245   5.503
  257POPC   C4A 3453   6.541   1.093   5.802
  257POPC   C1B 3454   6.448   1.347   4.677
  257POPC   C2B 3455   6.601   1.435   5.077
  257POPC   C3B 3456   6.373   1.471   5.483
  257POPC   C4B 3457   6.131   1.393   5.870
  258POPC   NC3 3458   5.223   1.426   3.645
  258POPC   PO4 3459   4.780   0.921   3.894
  258POPC   GL1 3460   5.110   0.976   4.271
  258POPC   GL2 3461   4.920   1.184   4.468
  258POPC   C1A 3462   5.406   1.033   4.651
  258POPC   D2A 3463   5.455   0.953   5.075
  258POPC   C3A 3464   5.093   0.984   5.317
  258POPC   C4A 3465   4.981   1.015   5.746
  258POPC   C1B 3466   5.037   1.291   4.874
  258POPC   C2B 3467   4.910   1.456   5.253
  258POPC   C3B 3468   5.152   1.470   5.608
  258POPC   C4B 3469   5.015   1.477   6.031
  259POPC   NC3 3470   6.417   7.430   3.942
  259POPC   PO4 3471   7.057   7.382   3.968
  259POPC   GL1 3472   7.006   7.424   4.395
  259POPC   GL2 3473   6.727   7.567   4.326
  259POPC   C1A 3474   6.857   7.327   4.810
  259POPC   D2A 3475   6.789   7.527   5.219
  259POPC   C3A 3476   6.819   7.330   5.612
  259POPC   C4A 3477   7.014   6.909   5.633
  259POPC   C1B 3478   6.413   7.540   4.616
  259POPC   C2B 3479   6.357   7.717   5.021
  259POPC   C3B 3480   6.357   7.770   5.484
  259POPC   C4B 3481   6.349   7.577   5.891
  260POPC   NC3 3482   6.102   1.825   3.905
  260POPC   PO4 3483   6.083   2.411   4.041
  260POPC   GL1 3484   5.952   2.069   4.350
  260POPC   GL2 3485   5.630   1.919   4.385
  260POPC   C1A 3486   5.934   1.812   4.762
  260POPC   D2A 3487   5.786   1.824   5.197
  260POPC   C3A 3488   6.015   1.831   5.591
  260POPC   C4A 3489   6.032   2.154   5.889
  260POPC   C1B 3490   5.466   2.053   4.813
  260POPC   C2B 3491   5.539   2.270   5.217
  260POPC   C3B 3492   5.547   2.034   5.640
  260POPC   C4B 3493   5.451   1.742   5.976
  261POPC   NC3 3494   0.690   8.268   4.028
  261POPC   PO4 3495   0.170   7.818   3.902
  261POPC   GL1 3496   0.437   7.862   4.257
  261POPC   GL2 3497   0.284   8.183   4.343
  261POPC   C1A 3498   0.500   7.920   4.712
  261POPC   D2A 3499   0.253   8.170   5.022
  261POPC   C3A 3500   0.234   8.027   5.465
  261POPC   C4A 3501   0.430   8.071   5.900
  261POPC   C1B 3502   0.574   8.433   4.665
  261POPC   C2B 3503   0.697   8.508   5.111
  261POPC   C3B 3504   0.506   8.458   5.547
  261POPC   C4B 3505   0.092   8.427   5.779
  262POPC   NC3 3506   9.923   8.222   3.896
  262POPC   PO4 3507   9.382   7.835   3.795
  262POPC   GL1 3508   9.546   7.989   4.185
  262POPC   GL2 3509   9.862   7.837   4.295
  262POPC   C1A 3510   9.450   7.856   4.639
  262POPC   D2A 3511   9.670   7.913   5.052
  262POPC   C3A 3512   9.481   7.911   5.486
  262POPC   C4A 3513   9.751   7.841   5.874
  262POPC   C1B 3514   9.825   8.194   4.582
  262POPC   C2B 3515   9.794   8.414   4.959
  262POPC   C3B 3516   9.802   8.332   5.375
  262POPC   C4B 3517   9.599   8.324   5.782
  263POPC   NC3 3518   9.625   0.624   4.058
  263POPC   PO4 3519   0.058   0.126   3.760
  263POPC   GL1 3520   9.905   0.213   4.216
  263POPC   GL2 3521   9.586   0.172   4.384
  263POPC   C1A 3522   9.985   0.156   4.693
  263POPC   D2A 3523   9.804   0.263   5.122
  263POPC   C3A 3524   9.988   0.244   5.560
  263POPC   C4A 3525   0.045   0.409   6.028
  263POPC   C1B 3526   9.654   0.544   4.691
  263POPC   C2B 3527   9.428   0.679   5.056
  263POPC   C3B 3528   9.665   0.687   5.426
  263POPC   C4B 3529   9.601   0.469   5.810
  264POPC   NC3 3530   4.266   8.963   3.930
  264POPC   PO4 3531   4.546   8.349   3.785
  264POPC   GL1 3532   4.453   8.600   4.238
  264POPC   GL2 3533   4.100   8.716   4.356
  264POPC   C1A 3534   4.456   8.965   4.605
  264POPC   D2A 3535   4.285   9.092   5.029
  264POPC   C3A 3536   4.582   9.253   5.371
  264POPC   C4A 3537   4.578   9.074   5.772
  264POPC   C1B 3538   4.192   8.613   4.837
  264POPC   C2B 3539   4.227   8.643   5.305
  264POPC   C3B 3540   4.153   8.778   5.728
  264POPC   C4B 3541   3.940   8.758   6.139
  265POPC   NC3 3542   8.455   5.795   3.767
  265POPC   PO4 3543   7.840   5.810   3.958
  265POPC   GL1 3544   8.067   5.652   4.354
  265POPC   GL2 3545   8.383   5.806   4.450
  265POPC   C1A 3546   8.174   5.596   4.855
  265POPC   D2A 3547   8.236   5.812   5.254
  265POPC   C3A 3548   7.940   5.760   5.616
  265POPC   C4A 3549   7.511   5.869   5.832
  265POPC   C1B 3550   8.546   6.030   4.851
  265POPC   C2B 3551   8.688   6.028   5.309
  265POPC   C3B 3552   8.384   6.076   5.674
  265POPC   C4B 3553   8.255   5.785   6.017
  266POPC   NC3 3554   8.747   0.428   3.755
  266POPC   PO4 3555   9.338   0.289   3.953
  266POPC   GL1 3556   9.042   0.498   4.198
  266POPC   GL2 3557   8.734   0.312   4.281
  266POPC   C1A 3558   9.163   0.473   4.612
  266POPC   D2A 3559   9.341   0.176   4.903
  266POPC   C3A 3560   9.340   0.255   5.369
  266POPC   C4A 3561   9.129   0.503   5.668
  266POPC   C1B 3562   8.675   0.532   4.697
  266POPC   C2B 3563   8.922   0.463   5.065
  266POPC   C3B 3564   8.729   0.361   5.418
  266POPC   C4B 3565   8.513   0.654   5.639
  267POPC   NC3 3566   6.545   2.360   3.899
  267POPC   PO4 3567   6.259   2.867   3.613
  267POPC   GL1 3568   6.438   2.819   4.094
  267POPC   GL2 3569   6.759   2.706   4.227
  267POPC   C1A 3570   6.339   2.685   4.561
  267POPC   D2A 3571   6.562   2.437   4.890
  267POPC   C3A 3572   6.523   2.481   5.343
  267POPC   C4A 3573   6.312   2.564   5.761
  267POPC   C1B 3574   6.802   2.877   4.661
  267POPC   C2B 3575   6.655   2.945   5.110
  267POPC   C3B 3576   6.684   2.909   5.576
  267POPC   C4B 3577   6.778   2.651   5.953
  268POPC   NC3 3578   1.104   9.177   4.077
  268POPC   PO4 3579   1.594   9.427   3.678
  268POPC   GL1 3580   1.590   9.148   4.180
  268POPC   GL2 3581   1.395   8.831   4.337
  268POPC   C1A 3582   1.423   9.219   4.642
  268POPC   D2A 3583   1.205   9.278   5.008
  268POPC   C3A 3584   1.429   9.220   5.373
  268POPC   C4A 3585   1.223   9.054   5.694
  268POPC   C1B 3586   1.105   8.810   4.730
  268POPC   C2B 3587   1.097   8.819   5.195
  268POPC   C3B 3588   1.032   8.557   5.525
  268POPC   C4B 3589   1.258   8.591   5.884
  269POPC   NC3 3590   1.773   2.697   3.945
  269POPC   PO4 3591   2.405   2.443   3.814
  269POPC   GL1 3592   2.227   2.469   4.256
  269POPC   GL2 3593   2.196   2.810   4.255
  269POPC   C1A 3594   2.235   2.463   4.743
  269POPC   D2A 3595   2.380   2.553   5.198
  269POPC   C3A 3596   2.173   2.529   5.626
  269POPC   C4A 3597   2.304   2.418   6.093
  269POPC   C1B 3598   2.049   2.976   4.646
  269POPC   C2B 3599   2.039   2.931   5.087
  269POPC   C3B 3600   1.952   2.969   5.525
  269POPC   C4B 3601   1.732   3.188   5.812
  270POPC   NC3 3602   0.573   6.562   3.934
  270POPC   PO4 3603   0.213   6.092   3.692
  270POPC   GL1 3604   0.442   6.127   4.150
  270POPC   GL2 3605   0.291   6.490   4.341
  270POPC   C1A 3606   0.595   6.195   4.592
  270POPC   D2A 3607   0.546   6.497   4.967
  270POPC   C3A 3608   0.649   6.428   5.416
  270POPC   C4A 3609   0.480   6.348   5.856
  270POPC   C1B 3610   0.064   6.530   4.762
  270POPC   C2B 3611   0.076   6.454   5.224
  270POPC   C3B 3612   0.209   6.686   5.590
  270POPC   C4B 3613   0.212   6.758   6.048
  271POPC   NC3 3614   9.801   7.479   3.890
  271POPC   PO4 3615   9.272   7.053   3.907
  271POPC   GL1 3616   9.425   7.147   4.302
  271POPC   GL2 3617   9.438   7.494   4.239
  271POPC   C1A 3618   9.280   7.382   4.708
  271POPC   D2A 3619   9.235   7.625   5.094
  271POPC   C3A 3620   9.277   7.425   5.514
  271POPC   C4A 3621   9.563   7.286   5.864
  271POPC   C1B 3622   9.762   7.436   4.586
  271POPC   C2B 3623   9.692   7.362   5.046
  271POPC   C3B 3624   9.809   7.517   5.462
  271POPC   C4B 3625   0.057   7.375   5.853
  272POPC   NC3 3626   7.023   0.371   3.973
  272POPC   PO4 3627   7.550   0.654   4.228
  272POPC   GL1 3628   7.165   0.670   4.380
  272POPC   GL2 3629   7.108   0.292   4.463
  272POPC   C1A 3630   6.982   0.684   4.758
  272POPC   D2A 3631   7.050   0.328   4.988
  272POPC   C3A 3632   7.184   0.323   5.399
  272POPC   C4A 3633   7.061   0.321   5.845
  272POPC   C1B 3634   7.501   0.241   4.723
  272POPC   C2B 3635   7.882   0.227   4.983
  272POPC   C3B 3636   7.740   0.195   5.394
  272POPC   C4B 3637   7.545   0.485   5.705
  273POPC   NC3 3638   9.620   9.933   3.889
  273POPC   PO4 3639   0.036   9.415   3.998
  273POPC   GL1 3640   9.904   9.709   4.317
  273POPC   GL2 3641   9.599   9.620   4.287
  273POPC   C1A 3642   9.658   9.790   4.761
  273POPC   D2A 3643   9.468   9.767   5.186
  273POPC   C3A 3644   9.743   9.774   5.542
  273POPC   C4A 3645   9.720   9.987   5.940
  273POPC   C1B 3646   9.521   9.327   4.633
  273POPC   C2B 3647   9.683   9.305   5.063
  273POPC   C3B 3648   9.465   9.322   5.472
  273POPC   C4B 3649   9.341   9.643   5.840
  274POPC   NC3 3650   0.596   2.081   3.946
  274POPC   PO4 3651   0.585   2.506   4.413
  274POPC   GL1 3652   0.736   2.068   4.451
  274POPC   GL2 3653   0.468   1.814   4.365
  274POPC   C1A 3654   0.748   1.830   4.840
  274POPC   D2A 3655   0.538   1.842   5.265
  274POPC   C3A 3656   0.780   2.031   5.608
  274POPC   C4A 3657   0.686   2.306   5.995
  274POPC   C1B 3658   0.240   1.949   4.726
  274POPC   C2B 3659   0.044   1.699   5.035
  274POPC   C3B 3660   0.044   1.744   5.446
  274POPC   C4B 3661   0.255   2.073   5.696
  275POPC   NC3 3662   9.523   1.057   3.718
  275POPC   PO4 3663   8.941   0.853   3.745
  275POPC   GL1 3664   9.262   0.960   4.160
  275POPC   GL2 3665   9.636   1.115   4.211
  275POPC   C1A 3666   9.322   1.225   4.585
  275POPC   D2A 3667   9.561   1.169   4.968
  275POPC   C3A 3668   9.372   1.166   5.364
  275POPC   C4A 3669   9.396   0.955   5.760
  275POPC   C1B 3670   9.890   1.026   4.593
  275POPC   C2B 3671   0.070   1.081   5.040
  275POPC   C3B 3672   9.895   1.211   5.478
  275POPC   C4B 3673   9.754   1.272   5.939
  276POPC   NC3 3674   3.642   1.181   3.950
  276POPC   PO4 3675   3.127   1.711   4.058
  276POPC   GL1 3676   3.385   1.593   4.424
  276POPC   GL2 3677   3.302   1.262   4.380
  276POPC   C1A 3678   3.549   1.505   4.882
  276POPC   D2A 3679   3.366   1.536   5.337
  276POPC   C3A 3680   3.511   1.316   5.735
  276POPC   C4A 3681   3.337   1.379   6.195
  276POPC   C1B 3682   3.596   1.055   4.607
  276POPC   C2B 3683   3.691   0.919   4.998
  276POPC   C3B 3684   3.524   0.737   5.363
  276POPC   C4B 3685   3.737   0.821   5.742
  277POPC   NC3 3686   2.421   2.905   3.794
  277POPC   PO4 3687   3.049   3.193   3.962
  277POPC   GL1 3688   2.717   2.967   4.194
  277POPC   GL2 3689   2.725   2.605   4.175
  277POPC   C1A 3690   2.571   2.837   4.612
  277POPC   D2A 3691   2.809   2.715   4.968
  277POPC   C3A 3692   2.712   2.902   5.379
  277POPC   C4A 3693   2.480   2.933   5.754
  277POPC   C1B 3694   2.668   2.292   4.510
  277POPC   C2B 3695   2.696   2.212   4.953
  277POPC   C3B 3696   2.871   2.377   5.343
  277POPC   C4B 3697   2.670   2.452   5.722
  278POPC   NC3 3698   0.495   0.416   3.841
  278POPC   PO4 3699   9.951   0.896   3.843
  278POPC   GL1 3700   0.179   0.666   4.230
  278POPC   GL2 3701   0.386   0.307   4.322
  278POPC   C1A 3702   0.184   0.623   4.712
  278POPC   D2A 3703   0.325   0.585   5.163
  278POPC   C3A 3704   0.217   0.719   5.598
  278POPC   C4A 3705   0.513   0.605   5.961
  278POPC   C1B 3706   0.455   0.003   4.674
  278POPC   C2B 3707   0.509   0.084   5.130
  278POPC   C3B 3708   0.495   0.257   5.578
  278POPC   C4B 3709   0.429   0.087   6.037
  279POPC   NC3 3710   4.119   2.711   3.925
  279POPC   PO4 3711   4.591   2.279   3.918
  279POPC   GL1 3712   4.521   2.636   4.223
  279POPC   GL2 3713   4.312   2.927   4.340
  279POPC   C1A 3714   4.555   2.629   4.677
  279POPC   D2A 3715   4.286   2.628   5.029
  279POPC   C3A 3716   4.459   2.384   5.363
  279POPC   C4A 3717   4.715   2.369   5.773
  279POPC   C1B 3718   4.061   2.981   4.717
  279POPC   C2B 3719   3.838   2.903   5.123
  279POPC   C3B 3720   4.004   2.676   5.470
  279POPC   C4B 3721   4.208   2.463   5.796
  280POPC   NC3 3722   4.286   1.938   3.843
  280POPC   PO4 3723   4.884   1.732   3.728
  280POPC   GL1 3724   4.683   1.855   4.188
  280POPC   GL2 3725   4.651   2.174   4.397
  280POPC   C1A 3726   4.428   1.779   4.586
  280POPC   D2A 3727   4.530   2.092   4.916
  280POPC   C3A 3728   4.635   1.902   5.299
  280POPC   C4A 3729   4.412   1.974   5.685
  280POPC   C1B 3730   4.203   2.272   4.553
  280POPC   C2B 3731   4.017   2.211   4.984
  280POPC   C3B 3732   3.985   2.153   5.427
  280POPC   C4B 3733   3.931   2.055   5.861
  281POPC   NC3 3734   3.561   9.346   4.090
  281POPC   PO4 3735   3.545   9.950   3.732
  281POPC   GL1 3736   3.599   9.852   4.203
  281POPC   GL2 3737   3.297   9.738   4.372
  281POPC   C1A 3738   3.757   9.700   4.640
  281POPC   D2A 3739   3.757   9.514   5.062
  281POPC   C3A 3740   3.601   9.811   5.378
  281POPC   C4A 3741   3.577   9.979   5.800
  281POPC   C1B 3742   3.253   9.635   4.836
  281POPC   C2B 3743   3.151   9.568   5.278
  281POPC   C3B 3744   3.126   9.769   5.687
  281POPC   C4B 3745   3.018   9.684   6.141
  282POPC   NC3 3746   8.670   5.005   3.524
  282POPC   PO4 3747   8.880   5.323   4.068
  282POPC   GL1 3748   9.138   5.403   4.369
  282POPC   GL2 3749   9.168   5.056   4.400
  282POPC   C1A 3750   9.268   5.474   4.779
  282POPC   D2A 3751   9.262   5.258   5.170
  282POPC   C3A 3752   9.088   5.436   5.540
  282POPC   C4A 3753   8.893   5.306   5.920
  282POPC   C1B 3754   8.909   5.096   4.781
  282POPC   C2B 3755   8.826   4.972   5.222
  282POPC   C3B 3756   8.645   4.971   5.636
  282POPC   C4B 3757   8.564   4.891   6.111
  283POPC   NC3 3758   3.558   6.613   4.080
  283POPC   PO4 3759   3.066   6.206   4.022
  283POPC   GL1 3760   3.324   6.337   4.449
  283POPC   GL2 3761   3.537   6.640   4.577
  283POPC   C1A 3762   3.319   6.329   4.923
  283POPC   D2A 3763   3.182   6.549   5.284
  283POPC   C3A 3764   3.315   6.517   5.701
  283POPC   C4A 3765   3.465   6.563   6.136
  283POPC   C1B 3766   3.555   6.799   4.999
  283POPC   C2B 3767   3.437   6.967   5.414
  283POPC   C3B 3768   3.691   6.861   5.779
  283POPC   C4B 3769   3.925   6.796   6.191
  284POPC   NC3 3770   1.144   9.587   3.655
  284POPC   PO4 3771   0.785   0.075   3.937
  284POPC   GL1 3772   0.861   9.881   4.350
  284POPC   GL2 3773   1.079   9.567   4.495
  284POPC   C1A 3774   0.945   9.974   4.773
  284POPC   D2A 3775   0.979   9.725   5.112
  284POPC   C3A 3776   0.830   9.880   5.472
  284POPC   C4A 3777   0.725   9.738   5.839
  284POPC   C1B 3778   1.396   9.707   4.826
  284POPC   C2B 3779   1.444   9.748   5.296
  284POPC   C3B 3780   1.240   9.610   5.708
  284POPC   C4B 3781   1.321   9.570   6.183
  285POPC   NC3 3782   4.378   0.868   3.674
  285POPC   PO4 3783   3.798   0.764   3.790
  285POPC   GL1 3784   4.026   0.641   4.183
  285POPC   GL2 3785   4.403   0.706   4.216
  285POPC   C1A 3786   4.038   0.715   4.661
  285POPC   D2A 3787   4.295   0.651   5.081
  285POPC   C3A 3788   4.174   0.674   5.545
  285POPC   C4A 3789   4.195   0.755   6.044
  285POPC   C1B 3790   4.535   0.486   4.638
  285POPC   C2B 3791   4.538   0.175   5.014
  285POPC   C3B 3792   4.472   0.255   5.453
  285POPC   C4B 3793   4.370   0.152   5.882
  286POPC   NC3 3794   2.284   8.296   3.777
  286POPC   PO4 3795   1.721   8.688   3.959
  286POPC   GL1 3796   1.815   8.488   4.346
  286POPC   GL2 3797   2.013   8.181   4.372
  286POPC   C1A 3798   1.964   8.482   4.788
  286POPC   D2A 3799   1.846   8.365   5.203
  286POPC   C3A 3800   2.047   8.553   5.559
  286POPC   C4A 3801   2.142   8.564   6.021
  286POPC   C1B 3802   1.773   8.002   4.766
  286POPC   C2B 3803   1.692   7.875   5.198
  286POPC   C3B 3804   1.772   7.823   5.612
  286POPC   C4B 3805   2.100   8.073   5.776
  287W        W 3806   8.800   1.886   0.253
  288W        W 3807   4.541   0.979  10.753
  289W        W 3808   8.983   1.370   2.263
  290W        W 3809   0.014   7.982   1.674
  291W        W 3810   8.830   3.436   9.144
  292W        W 3811   7.123   7.386   9.529
  293W        W 3812   0.687   0.215   0.946
  294W        W 3813   3.484   7.658  11.208
  295W        W 3814   1.675   8.345   1.922
  296W        W 3815   8.618   1.683   3.305
  297W        W 3816   6.924   2.025  11.724
  298W        W 3817   2.150   0.754   8.949
  299W        W 3818   7.857   3.975   3.643
  300W        W 3819   4.679   3.654   8.921
  301W        W 3820   1.209   0.967   9.521
  302W        W 3821   5.679   6.322   2.496
  303W        W 3822   6.730   9.075  11.830
  304W        W 3823   8.684   2.594   2.463
  305W        W 3824   6.184   8.199   9.211
  306W        W 3825   4.600   6.795   9.504
  307W        W 3826   3.894   6.679   3.647
  308W        W 3827   5.128   4.660   0.984
  309W        W 3828   0.401   8.527   2.632
  310W        W 3829   7.289   6.011   1.906
  311W        W 3830   8.097   6.337  10.499
  312W        W 3831   4.492   1.860   0.436
  313W        W 3832   6.143   2.717  10.909
  314W        W 3833   2.819   3.289   3.530
  315W        W 3834   6.469   3.012  11.847
  316W        W 3835   6.946   6.886   2.756
  317W        W 3836   8.256   2.018   3.521
  318W        W 3837   5.484   0.540   1.673
  319W        W 3838   4.928   5.215  10.484
  320W        W 3839   2.807   4.717   9.511
  321W        W 3840   5.448   2.276  11.413
  322W        W 3841   2.274   9.327  10.385
  323W        W 3842   9.272   8.893   3.743
  324W        W 3843   3.652   0.553   3.317
  325W        W 3844   6.369   8.391   1.264
  326W        W 3845   8.755   4.505  11.071
  327W        W 3846   4.585   4.170  11.813
  328W        W 3847   9.503   0.661   9.520
  329W        W 3848   5.232   6.604  11.838
  330W        W 3849   8.720   2.205   3.315
  331W        W 3850   6.974   9.249   9.990
  332W        W 3851   3.338   4.640   0.934
  333W        W 3852   9.281   5.202   9.594
  334W        W 3853   5.804   7.925   3.590
  335W        W 3854   2.668   7.038   3.284
  336W        W 3855   2.653   6.673   9.539
  337W        W 3856   5.248   1.243   2.309
  338W        W 3857   1.410   2.099  10.592
  339W        W 3858   4.604   5.094   9.500
  340W        W 3859   0.461   5.930   1.679
  341W        W 3860   8.342   8.488   8.796
  342W        W 3861   6.900   2.790   0.115
  343W        W 3862   3.555   9.098   0.307
  344W        W 3863   4.081   1.852   9.439
  345W        W 3864   1.605   5.127   3.493
  346W        W 3865   0.366   3.436   2.218
  347W        W 3866   9.460   6.271   0.279
  348W        W 3867   3.160   4.691   8.687
  349W        W 3868   3.382   4.257   2.864
  350W        W 3869   2.919   0.409  11.513
  351W        W 3870   5.380   9.892   9.677
  352W        W 3871   8.022   2.398   0.482
  353W        W 3872   4.927   7.679   8.582
  354W        W 3873   4.725   0.912   0.694
  355W        W 3874   9.935   3.329  10.441
  356W        W 3875   9.346   0.610  10.025
  357W        W 3876   5.073   3.297   9.562
  358W        W 3877   7.329   3.606   9.714
  359W        W 3878   0.867   7.479   0.191
  360W        W 3879   3.070   4.129   1.783
  361W        W 3880   8.974   7.376   9.998
  362W        W 3881   0.260   0.789   8.849
  363W        W 3882   3.556   2.381  10.905
  364W        W 3883   4.662   5.113   3.055
  365W        W 3884   9.386   8.507   1.278
  366W        W 3885   1.416   3.572  11.547
  367W        W 3886   4.904   7.043   9.161
  368W        W 3887   0.071   1.069   8.468
  369W        W 3888   4.758   7.806   1.822
  370W        W 3889   9.486   9.654  11.210
  371W        W 3890   5.989   3.263   2.431
  372W        W 3891   5.507   1.751  10.781
  373W        W 3892   5.483   9.844   1.457
  374W        W 3893   2.259   3.982  11.469
  375W        W 3894   4.532   5.070   0.062
  376W        W 3895   2.679   2.205   9.288
  377W        W 3896   2.637   1.016   2.357
  378W        W 3897   5.958   8.194   1.026
  379W        W 3898   2.197   7.933  11.593
  380W        W 3899   4.611   6.138   0.306
  381W        W 3900   8.433   0.194   0.201
  382W        W 3901   3.655   3.413   2.702
  383W        W 3902   2.357   8.050   1.313
  384W        W 3903   3.933   6.322   1.292
  385W        W 3904   7.111   4.674  11.057
  386W        W 3905   9.633   2.392   9.691
  387W        W 3906   4.198   9.978   8.659
  388W        W 3907   6.873   1.500   2.723
  389W        W 3908   4.877   2.736   8.480
  390W        W 3909   3.532   8.123   9.865
  391W        W 3910   9.316   7.600   1.286
  392W        W 3911   1.166   7.316   1.511
  393W        W 3912   4.019   2.833   8.519
  394W        W 3913   2.422   1.558  11.301
  395W        W 3914   8.731   4.834   0.490
  396W        W 3915   2.541   2.458   8.634
  397W        W 3916   0.584   9.596  11.535
  398W        W 3917   7.919   9.899  11.406
  399W        W 3918   1.866   2.993   9.912
  400W        W 3919   5.237   2.677  11.193
  401W        W 3920   0.402   8.652  11.156
  402W        W 3921   5.120   5.731   8.789
  403W        W 3922   2.726   8.088   2.991
  404W        W 3923   0.362   3.244   1.101
  405W        W 3924   3.847   4.611  11.103
  406W        W 3925   1.666   0.471  10.590
  407W        W 3926   6.782   4.772   8.711
  408W        W 3927   4.805   2.410   1.093
  409W        W 3928   7.956   5.141   2.477
  410W        W 3929   4.117   6.165   0.189
  411W        W 3930   8.476   2.119   9.251
  412W        W 3931   6.016   7.431   3.596
  413W        W 3932   5.570   7.334  10.231
  414W        W 3933   2.738   6.650   8.986
  415W        W 3934   8.026   2.390  11.963
  416W        W 3935   3.199   3.116   9.540
  417W        W 3936   5.075   4.499   0.360
  418W        W 3937   8.795   1.645   1.257
  419W        W 3938   0.291   4.557   3.169
  420W        W 3939   1.887   5.356   2.702
  421W        W 3940   2.895   2.563   0.712
  422W        W 3941   3.666   3.992   9.035
  423W        W 3942   0.362   5.549   9.489
  424W        W 3943   4.218   2.801   2.644
  425W        W 3944   1.789   2.538   0.170
  426W        W 3945   5.457   0.136   9.215
  427W        W 3946   1.904   4.254   8.825
  428W        W 3947   2.928   7.673   3.257
  429W        W 3948   3.330   8.577   9.096
  430W        W 3949   6.566   5.171   8.470
  431W        W 3950   9.405   2.887   3.678
  432W        W 3951   9.776   7.779   0.685
  433W        W 3952   3.023   2.250   2.029
  434W        W 3953   0.467   7.467  11.858
  435W        W 3954   8.338   0.695   8.981
  436W        W 3955   4.952   3.567   0.305
  437W        W 3956   8.803   8.982  11.182
  438W        W 3957   4.232   9.960   3.183
  439W        W 3958   6.286   7.572   2.617
  440W        W 3959   3.587   3.642   1.198
  441W        W 3960   2.092   7.394   1.985
  442W        W 3961   6.185   1.470   1.851
  443W        W 3962   8.121   7.383   9.721
  444W        W 3963   9.698   2.934   0.934
  445W        W 3964   2.889   0.957   2.806
  446W        W 3965   8.042   5.570  11.461
  447W        W 3966   7.142   6.764   0.833
  448W        W 3967   9.202   7.412  11.491
  449W        W 3968   7.966   1.654   0.844
  450W        W 3969   6.879   9.536   0.174
  451W        W 3970   0.699   6.626   0.014
  452W        W 3971   4.230   2.056   0.911
  453W        W 3972   8.470   1.376   2.905
  454W        W 3973   2.247   8.075   2.288
  455W        W 3974   1.743   4.896   8.269
  456W        W 3975   9.785   3.662   3.123
  457W        W 3976   6.480   8.347  10.755
  458W        W 3977   4.005   6.195   0.794
  459W        W 3978   4.052   5.145   1.535
  460W        W 3979   8.498   4.638  10.089
  461W        W 3980   8.283   3.646   9.143
  462W        W 3981   3.297   1.988   0.886
  463W        W 3982   5.473   7.485  11.624
  464W        W 3983   0.846   4.499   9.215
  465W        W 3984   6.954   1.278  11.894
  466W        W 3985   0.544   4.424   0.920
  467W        W 3986   9.560   1.882   9.550
  468W        W 3987   8.920   7.042  10.436
  469W        W 3988   0.061   1.218   9.063
  470W        W 3989   5.193   3.502  11.873
  471W        W 3990   9.045   9.045   8.979
  472W        W 3991   3.198   7.365  11.513
  473W        W 3992   1.365   1.385  11.419
  474W        W 3993   1.805   5.979   3.342
  475W        W 3994   4.441   4.528   2.741
  476W        W 3995   9.404   7.698   9.960
  477W        W 3996   9.825   6.087   8.937
  478W        W 3997   6.612   2.159  10.402
  479W        W 3998   7.104   7.957  11.273
  480W        W 3999   7.541   2.585  11.881
  481W        W 4000   6.600   4.279   3.674
  482W        W 4001   7.232   5.617   2.604
  483W        W 4002   4.153   5.716   1.001
  484W        W 4003   0.538   2.714  10.753
  485W        W 4004   6.127   3.186   0.731
  486W        W 4005   8.585   1.082   0.069
  487W        W 4006   6.475   6.843   2.055
  488W        W 4007   6.649   9.758   0.928
  489W        W 4008   8.564   0.592  10.509
  490W        W 4009   0.777   8.397   8.963
  491W        W 4010   1.620   1.440   1.759
  492W        W 4011   5.430   6.629  11.334
  493W        W 4012   5.247   2.992   1.659
  494W        W 4013   6.675   0.016   9.950
  495W        W 4014   3.979   7.966   0.233
  496W        W 4015   4.141   1.687  11.637
  497W        W 4016   7.276   0.354   9.184
  498W        W 4017   6.898   4.150   9.339
  499W        W 4018   3.889   1.783   1.430
  500W        W 4019   2.308   4.606   8.692
  501W        W 4020   2.889   4.147  10.558
  502W        W 4021   5.481   5.183  11.806
  503W        W 4022   2.905   1.150   0.004
  504W        W 4023   9.527   5.094   9.159
  505W        W 4024   4.904   4.197  10.519
  506W        W 4025   4.148   1.530  10.761
  507W        W 4026   2.624   3.937   0.938
  508W        W 4027   3.752   8.806  11.943
  509W        W 4028   6.362   6.119   9.815
  510W        W 4029   9.692   4.550   3.147
  511W        W 4030   4.734   4.907   2.577
  512W        W 4031   2.996   0.779   0.420
  513W        W 4032   4.954   3.644   3.581
  514W        W 4033   8.353   3.926   1.800
  515W        W 4034   1.558   5.036   2.991
  516W        W 4035   2.974   1.392   2.267
  517W        W 4036   9.138   0.826   1.565
  518W        W 4037   2.488   5.290   0.721
  519W        W 4038   3.175   7.535   8.895
  520W        W 4039   3.318   2.081  11.923
  521W        W 4040   8.901   6.385   1.581
  522W        W 4041   0.425   5.426   1.662
  523W        W 4042   8.479   9.811  11.138
  524W        W 4043   3.213   0.983  10.868
  525W        W 4044   6.922   2.476   3.029
  526W        W 4045   4.540   5.595  10.542
  527W        W 4046   3.632   5.445   8.930
  528W        W 4047   1.279   1.630   3.487
  529W        W 4048   0.310   9.703  11.988
  530W        W 4049   5.071   2.960  10.208
  531W        W 4050   5.813   2.557   3.618
  532W        W 4051   9.553   9.736   8.859
  533W        W 4052   9.224   3.745   9.338
  534W        W 4053   7.347   7.210  11.925
  535W        W 4054   2.359   7.431   3.377
  536W        W 4055   1.229   6.452  11.395
  537W        W 4056   0.557   0.311   9.915
  538W        W 4057   1.259   5.372  11.679
  539W        W 4058   5.590   8.640   0.186
  540W        W 4059   4.081   3.806   8.361
  541W        W 4060   1.387   3.502   1.493
  542W        W 4061   1.443   8.616   3.545
  543W        W 4062   2.508   5.419   4.260
  544W        W 4063   2.694   2.671  10.795
  545W        W 4064   8.393   2.683   1.632
  546W        W 4065   6.137   6.388   1.358
  547W        W 4066   6.738   5.751   1.339
  548W        W 4067   4.960   9.589   1.743
  549W        W 4068   8.052   0.189  11.853
  550W        W 4069   7.952   9.677   0.978
  551W        W 4070   1.462   3.524  11.011
  552W        W 4071   1.644   3.285   1.879
  553W        W 4072   7.602   2.316   1.284
  554W        W 4073   7.136   5.558   2.109
  555W        W 4074   9.671   5.328   1.945
  556W        W 4075   1.683   2.745  11.706
  557W        W 4076   8.468   1.494  10.010
  558W        W 4077   3.686   8.838   2.149
  559W        W 4078   5.065   8.027   0.127
  560W        W 4079   7.627   4.650   1.294
  561W        W 4080   2.425   6.983   2.074
  562W        W 4081   7.037   0.649   0.787
  563W        W 4082   5.941   9.961  10.432
  564W        W 4083   8.059   5.090   9.053
  565W        W 4084   5.825   7.577   9.838
  566W        W 4085   0.976   9.498   1.919
  567W        W 4086   1.889   3.095   2.813
  568W        W 4087   9.476   3.411   9.726
  569W        W 4088   6.570   8.855   1.203
  570W        W 4089   7.757   6.185   2.014
  571W        W 4090   5.069   6.930   1.514
  572W        W 4091   0.433   0.824   9.848
  573W        W 4092   4.543   3.360   3.772
  574W        W 4093   1.354   6.088   2.552
  575W        W 4094   6.987   4.493   1.786
  576W        W 4095   9.589   2.968  11.063
  577W        W 4096   1.146   4.619   9.628
  578W        W 4097   0.345   9.597  11.069
  579W        W 4098   6.591   4.391   9.017
  580W        W 4099   4.337   1.140   2.452
  581W        W 4100   9.489   2.963   1.450
  582W        W 4101   9.724   9.389   1.272
  583W        W 4102   9.633   6.097  11.053
  584W        W 4103   0.267   0.499  11.751
  585W        W 4104   6.949   5.099  11.267
  586W        W 4105   4.959   2.364   2.107
  587W        W 4106   1.399   6.422   1.488
  588W        W 4107   5.767   0.188   9.944
  589W        W 4108   6.056   0.876   2.810
  590W        W 4109   5.097   3.174  11.486
  591W        W 4110   8.200   7.208  11.508
  592W        W 4111   1.663   4.543   2.704
  593W        W 4112   3.732   6.379   2.225
  594W        W 4113   2.264   2.423  11.061
  595W        W 4114   9.003   4.715   0.924
  596W        W 4115   6.588   5.073   4.284
  597W        W 4116   1.249   5.261   8.531
  598W        W 4117   3.620   7.304  10.374
  599W        W 4118   2.862   0.911   1.726
  600W        W 4119   8.382   2.164   2.493
  601W        W 4120   2.242   8.836   0.732
  602W        W 4121   9.954   6.201   1.910
  603W        W 4122   5.779   5.910   1.310
  604W        W 4123   6.922   3.843   3.278
  605W        W 4124   4.723   3.253   3.293
  606W        W 4125   4.263   2.727   1.897
  607W        W 4126   9.996   4.645  10.478
  608W        W 4127   3.266   5.546   0.868
  609W        W 4128   4.157   0.527   8.659
  610W        W 4129   0.438   4.175   2.859
  611W        W 4130   0.838   4.282  11.733
  612W        W 4131   1.668   2.258  11.443
  613W        W 4132   1.215   8.033  11.239
  614W        W 4133   3.971   0.331  10.937
  615W        W 4134   5.757   7.775   2.732
  616W        W 4135   0.206   0.054   2.193
  617W        W 4136   1.283   1.143   2.026
  618W        W 4137   2.136   3.732  10.416
  619W        W 4138   8.439   2.914   2.117
  620W        W 4139   5.531   5.682   3.248
  621W        W 4140   8.272   8.475  10.611
  622W        W 4141   6.417   2.543   3.259
  623W        W 4142   9.915   5.730   1.010
  624W        W 4143   6.751   1.848  11.054
  625W        W 4144   5.337   2.040   2.005
  626W        W 4145   5.898   5.984   9.988
  627W        W 4146   7.600   8.256   9.391
  628W        W 4147   2.247   6.023   9.232
  629W        W 4148   7.283   0.746  11.790
  630W        W 4149   4.938   4.036   1.971
  631W        W 4150   3.822   5.522   0.124
  632W        W 4151   7.850   4.954   2.925
  633W        W 4152   7.168   0.001  10.982
  634W        W 4153   6.171   6.924   3.192
  635W        W 4154   5.029   7.415  10.264
  636W        W 4155   0.771   7.394   0.693
  637W        W 4156   9.452   9.992  10.805
  638W        W 4157   8.010   1.166  10.126
  639W        W 4158   5.215   6.923   3.741
  640W        W 4159   4.741   3.842   9.892
  641W        W 4160   5.266   5.464   0.707
  642W        W 4161   7.428   1.227  11.014
  643W        W 4162   2.097   7.986   0.476
  644W        W 4163   9.848   1.491  10.470
  645W        W 4164   5.296   0.993   1.864
  646W        W 4165   2.916   8.302  10.909
  647W        W 4166   6.127   8.533  10.411
  648W        W 4167   0.037   9.366   9.500
  649W        W 4168   9.349   6.071   0.739
  650W        W 4169   7.034   0.909   1.224
  651W        W 4170   4.657   4.589   1.215
  652W        W 4171   8.399   1.989   2.973
  653W        W 4172   9.468   8.479   9.748
  654W        W 4173   1.764   3.667   0.242
  655W        W 4174   7.199   3.529  11.980
  656W        W 4175   6.955   0.442   0.330
  657W        W 4176   4.237   3.495  11.956
  658W        W 4177   9.323   3.560   0.299
  659W        W 4178   8.777   6.622   9.182
  660W        W 4179   3.658   5.439   1.266
  661W        W 4180   2.941   9.399   3.238
  662W        W 4181   9.727   1.894   9.040
  663W        W 4182   2.326   7.652  11.048
  664W        W 4183   7.051   5.120   4.026
  665W        W 4184   5.533   9.436   1.152
  666W        W 4185   9.227   3.278   1.790
  667W        W 4186   4.542   6.121   3.168
  668W        W 4187   0.352   7.079   9.749
  669W        W 4188   1.950   6.379   1.696
  670W        W 4189   2.043   0.397  10.960
  671W        W 4190   2.719   0.402   1.178
  672W        W 4191   3.851   2.926  11.248
  673W        W 4192   5.679   9.121   9.237
  674W        W 4193   5.504   7.224   0.441
  675W        W 4194   8.054   6.652  11.863
  676W        W 4195   6.045   7.564  10.328
  677W        W 4196   7.626   6.109   0.271
  678W        W 4197   3.034   1.315   3.598
  679W        W 4198   6.602   1.498   0.908
  680W        W 4199   3.646   3.321   3.755
  681W        W 4200   9.461   5.324   1.439
  682W        W 4201   3.619   0.777   1.268
  683W        W 4202   5.004   2.377   1.578
  684W        W 4203   5.696   7.093   3.177
  685W        W 4204   9.894   0.852  11.749
  686W        W 4205   5.223   7.511   0.081
  687W        W 4206   6.575   5.593   9.283
  688W        W 4207   2.318   9.109   0.281
  689W        W 4208   2.166   5.529  11.666
  690W        W 4209   8.811   9.079   2.796
  691W        W 4210   6.777   4.482  10.028
  692W        W 4211   4.073   9.204   2.818
  693W        W 4212   8.454   8.485   3.294
  694W        W 4213   2.323   7.586   2.396
  695W        W 4214   6.410   2.201  10.932
  696W        W 4215   4.258   1.413  10.250
  697W        W 4216   6.412   1.598   2.906
  698W        W 4217   4.623   0.740   1.174
  699W        W 4218   4.166   9.793   1.425
  700W        W 4219   5.442   7.052  11.939
  701W        W 4220   5.156   2.796  10.689
  702W        W 4221   0.077   9.559  11.530
  703W        W 4222   7.957   5.084   0.004
  704W        W 4223   4.284   5.126   2.687
  705W        W 4224   4.443   6.651   3.197
  706W        W 4225   3.901   3.925  10.374
  707W        W 4226   4.018   4.598   4.023
  708W        W 4227   0.883   9.887   9.740
  709W        W 4228   9.409   1.335   0.291
  710W        W 4229   9.781   3.794   0.662
  711W        W 4230   2.760   0.049  10.507
  712W        W 4231   3.077   4.832   8.191
  713W        W 4232   9.975   6.982   9.013
  714W        W 4233   2.394   8.377   9.033
  715W        W 4234   8.751   8.033   3.438
  716W        W 4235   4.247   3.851  11.593
  717W        W 4236   9.370   7.001  10.691
  718W        W 4237   5.675   6.525   1.149
  719W        W 4238   3.392   5.414   0.385
  720W        W 4239   5.608   7.829  10.396
  721W        W 4240   8.974   7.384   2.440
  722W        W 4241   8.603   4.780   3.058
  723W        W 4242   9.833   1.512   3.110
  724W        W 4243   2.825   1.462  11.611
  725W        W 4244   7.691   3.114   3.224
  726W        W 4245   5.093   5.451   3.108
  727W        W 4246   4.470   0.073   2.420
  728W        W 4247   9.491   0.194   9.764
  729W        W 4248   9.759   2.381  10.879
  730W        W 4249   7.626   5.295  11.661
  731W        W 4250   3.127   6.915   1.205
  732W        W 4251   8.864   6.245   0.827
  733W        W 4252   5.106   2.032   1.200
  734W        W 4253   4.240   5.793   3.453
  735W        W 4254   6.656   1.200   3.141
  736W        W 4255   3.829   4.610   0.054
  737W        W 4256   8.378   3.845   2.301
  738W        W 4257   8.143   5.895   1.155
  739W        W 4258   4.474   2.598   1.433
  740W        W 4259   7.183   7.274   0.777
  741W        W 4260   3.871   3.620   9.851
  742W        W 4261   8.947   4.611   0.052
  743W        W 4262   3.589   7.880  10.331
  744W        W 4263   4.035   8.251   1.541
  745W        W 4264   9.010   8.333   2.099
  746W        W 4265   7.529   8.943  10.503
  747W        W 4266   9.065   4.204   0.876
  748W        W 4267   0.314   2.933   3.585
  749W        W 4268   4.787   2.759  11.420
  750W        W 4269   1.775   0.738   2.209
  751W        W 4270   7.809   1.244  10.626
  752W        W 4271   2.828   3.311   3.016
  753W        W 4272   4.104   0.855  11.038
  754W        W 4273   2.808   8.013   1.634
  755W        W 4274   3.664   4.472   9.389
  756W        W 4275   7.472   4.414   3.073
  757W        W 4276   7.885   4.659   0.305
  758W        W 4277   9.781   7.676   2.020
  759W        W 4278   8.369   4.569  11.460
  760W        W 4279   1.498   0.555   9.387
  761W        W 4280   5.173   2.665   2.627
  762W        W 4281   8.706   6.113  11.955
  763W        W 4282   0.080   5.630   9.046
  764W        W 4283   8.962   7.045   9.461
  765W        W 4284   3.287   9.223   1.407
  766W        W 4285   0.450   6.613   9.920
  767W        W 4286   4.600   5.773   2.241
  768W        W 4287   7.886   1.867   1.336
  769W        W 4288   3.205   3.550  11.954
  770W        W 4289   7.105   6.425   8.255
  771W        W 4290   2.326   2.111  10.107
  772W        W 4291   7.011   6.391   8.755
  773W        W 4292   5.023   9.871   9.183
  774W        W 4293   2.329   1.913  10.914
  775W        W 4294   8.805   6.227  10.580
  776W        W 4295   7.328   3.169   2.699
  777W        W 4296   5.184   3.936  10.156
  778W        W 4297   2.624   7.987  11.289
  779W        W 4298   5.903   2.273  11.027
  780W        W 4299   9.152   9.266  11.528
  781W        W 4300   7.100   6.485   4.047
  782W        W 4301   8.454   7.920  11.036
  783W        W 4302   9.862   1.216  10.026
  784W        W 4303   1.681   3.760   0.744
  785W        W 4304   0.969   8.907   3.585
  786W        W 4305   2.012   3.298   3.293
  787W        W 4306   9.496   8.136   2.015
  788W        W 4307   9.397   4.857  11.815
  789W        W 4308   3.098   3.723   0.920
  790W        W 4309   2.290   3.703   1.787
  791W        W 4310   8.328   8.791   0.195
  792W        W 4311   5.149   8.727  10.933
  793W        W 4312   6.206   9.882   0.283
  794W        W 4313   5.866   1.620   8.457
  795W        W 4314   2.763   4.381   2.132
  796W        W 4315   2.764   2.078   0.919
  797W        W 4316   0.333   6.174   3.191
  798W        W 4317   6.607   9.244   2.372
  799W        W 4318   9.611   7.518  11.781
  800W        W 4319   4.170   8.897   8.872
  801W        W 4320   2.904   0.429   9.348
  802W        W 4321   8.725   6.415  11.221
  803W        W 4322   2.730   3.673  10.649
  804W        W 4323   5.421   0.856  11.069
  805W        W 4324   5.580   1.669   2.281
  806W        W 4325   5.165   8.876  10.438
  807W        W 4326   1.402   0.294   8.932
  808W        W 4327   6.008   8.022   3.124
  809W        W 4328   6.957   2.577   9.793
  810W        W 4329   3.554   4.570   3.784
  811W        W 4330   3.771   1.401   8.662
  812W        W 4331   9.891   6.838   9.974
  813W        W 4332   3.947   8.068   9.102
  814W        W 4333   6.837   2.811  10.216
  815W        W 4334   1.802   5.666   9.608
  816W        W 4335   8.814   0.902   8.963
  817W        W 4336   0.488   1.682   9.852
  818W        W 4337   3.316   8.436  10.607
  819W        W 4338   4.771   7.511   2.319
  820W        W 4339   3.836   9.792  11.836
  821W        W 4340   2.689   3.624   0.084
  822W        W 4341   5.077   6.340   0.241
  823W        W 4342   3.541   0.584   2.205
  824W        W 4343   5.212   5.678   1.196
  825W        W 4344   8.249   4.332   2.348
  826W        W 4345   6.679   8.515   1.823
  827W        W 4346   3.414   9.340   8.607
  828W        W 4347   7.241   1.980   1.455
  829W        W 4348   3.750   8.994   1.634
  830W        W 4349   8.970   9.905  10.920
  831W        W 4350   3.168   8.230   3.194
  832W        W 4351   0.025   1.736   2.685
  833W        W 4352   6.810   5.969   8.964
  834W        W 4353   0.312   0.027  11.591
  835W        W 4354   4.903   1.889   1.773
  836W        W 4355   6.585   8.759  10.446
  837W        W 4356   1.173   0.381  10.724
  838W        W 4357   6.438   2.732  10.504
  839W        W 4358   2.763   9.215  10.643
  840W        W 4359   6.250   3.675   0.838
  841W        W 4360   0.442   1.360  11.259
  842W        W 4361   4.578   9.204   2.794
  843W        W 4362   6.376   9.273   2.815
  844W        W 4363   5.830   4.618  10.446
  845W        W 4364   9.639   1.759   0.101
  846W        W 4365   6.103   9.062  11.161
  847W        W 4366   2.208   3.850   8.984
  848W        W 4367   7.629   2.564  11.368
  849W        W 4368   2.687   6.910   2.794
  850W        W 4369   1.365   3.838   9.289
  851W        W 4370   0.866   2.883  11.520
  852W        W 4371   2.139   0.970   0.860
  853W        W 4372   6.212   5.917   1.682
  854W        W 4373   0.621   2.842   9.534
  855W        W 4374   4.232   2.797   9.564
  856W        W 4375   9.614   0.565   3.565
  857W        W 4376   7.960   7.394   0.404
  858W        W 4377   9.435   8.610  10.259
  859W        W 4378   5.270   5.519   0.160
  860W        W 4379   2.782   3.384   9.681
  861W        W 4380   8.614   3.436   3.294
  862W        W 4381   8.293   1.982   1.698
  863W        W 4382   4.036   8.505   3.869
  864W        W 4383   8.300   3.220  11.456
  865W        W 4384   9.559   3.043   0.260
  866W        W 4385   3.953   2.398  11.266
  867W        W 4386   8.060   5.987   9.555
  868W        W 4387   3.376   4.246   4.155
  869W        W 4388   7.400   4.802   0.414
  870W        W 4389   5.207   2.273   0.175
  871W        W 4390   3.941   7.914   9.593
  872W        W 4391   7.809   1.662  10.289
  873W        W 4392   0.952   9.234   9.557
  874W        W 4393   4.974   5.997   8.382
  875W        W 4394   9.487   1.574   9.974
  876W        W 4395   6.578   2.418   0.922
  877W        W 4396   7.100   6.593   1.327
  878W        W 4397   7.556   3.751   1.948
  879W        W 4398   9.083   9.776  10.406
  880W        W 4399   9.929   4.753   0.898
  881W        W 4400   2.155   9.614   2.170
  882W        W 4401   0.379   4.544   1.780
  883W        W 4402   7.249   2.138   3.255
  884W        W 4403   2.180   3.019  11.444
  885W        W 4404   7.825   3.643   9.556
  886W        W 4405   1.358   9.427   2.651
  887W        W 4406   6.264   6.245   3.951
  888W        W 4407   8.626   5.063  10.373
  889W        W 4408   9.036   4.308  10.640
  890W        W 4409   4.514   7.677  11.362
  891W        W 4410   6.461   1.156   2.664
  892W        W 4411   7.966   0.200   0.973
  893W        W 4412   8.378   3.644  10.224
  894W        W 4413   8.976   4.706  10.274
  895W        W 4414   3.210   6.667  10.863
  896W        W 4415   6.490   7.200   3.491
  897W        W 4416   9.298   2.578  10.832
  898W        W 4417   9.938   9.785   9.221
  899W        W 4418   0.683   4.652  10.891
  900W        W 4419   4.206   4.300  10.636
  901W        W 4420   4.725   2.283   9.008
  902W        W 4421   0.288   3.943   2.238
  903W        W 4422   7.092   2.798  10.670
  904W        W 4423   1.790   6.170   1.230
  905W        W 4424   0.196   5.472   8.402
  906W        W 4425   2.465   3.165   0.202
  907W        W 4426   4.850   6.715   1.951
  908W        W 4427   1.511   8.545   2.801
  909W        W 4428   5.154   0.954   3.321
  910W        W 4429   0.780   7.965   0.017
  911W        W 4430   9.236   7.598   2.829
  912W        W 4431   6.574   7.162   2.973
  913W        W 4432   5.053   4.003  11.974
  914W        W 4433   3.001   7.371   2.845
  915W        W 4434   6.886   2.957   2.828
  916W        W 4435   7.579   1.211   0.498
  917W        W 4436   7.704   9.978   0.380
  918W        W 4437   3.238   7.826   2.866
  919W        W 4438   4.162   6.773   1.424
  920W        W 4439   6.057   3.355   9.161
  921W        W 4440   2.565   8.709   2.392
  922W        W 4441   0.938   7.594  11.679
  923W        W 4442   5.208   8.879   9.122
  924W        W 4443   1.024   5.667  10.880
  925W        W 4444   4.428   4.096   1.952
  926W        W 4445   6.095   5.232   9.288
  927W        W 4446   3.833   9.866   1.025
  928W        W 4447   5.612   0.617   0.767
  929W        W 4448   0.592   7.449  10.897
  930W        W 4449   6.682   9.949   0.461
  931W        W 4450   6.722   0.259   3.593
  932W        W 4451   6.259   4.153   8.296
  933W        W 4452   6.464   4.591   0.486
  934W        W 4453   0.529   3.525  11.769
  935W        W 4454   2.615   0.715   0.775
  936W        W 4455   1.981   2.662   9.555
  937W        W 4456   0.186   0.588  10.745
  938W        W 4457   3.418   2.134   3.547
  939W        W 4458   5.716   2.085  10.434
  940W        W 4459   9.993   2.156  11.474
  941W        W 4460   9.779   1.458   8.688
  942W        W 4461   3.288   3.672  11.070
  943W        W 4462   1.281   3.844   1.909
  944W        W 4463   4.757   2.823   0.807
  945W        W 4464   5.006   9.817   1.265
  946W        W 4465   3.996   3.410  10.413
  947W        W 4466   2.579   3.342  11.599
  948W        W 4467   0.106   6.510   8.865
  949W        W 4468   3.322   1.377  10.002
  950W        W 4469   5.322   6.429   0.768
  951W        W 4470   9.394   2.598  11.357
  952W        W 4471   9.609   7.091   3.523
  953W        W 4472   1.698   2.202   2.467
  954W        W 4473   3.316   3.048   2.429
  955W        W 4474   5.797   1.849   2.686
  956W        W 4475   0.275   1.032   3.374
  957W        W 4476   4.710   5.488   2.698
  958W        W 4477   4.350   7.665   1.097
  959W        W 4478   6.169   7.212  11.432
  960W        W 4479   8.645   2.408   9.653
  961W        W 4480   1.397   9.333   9.810
  962W        W 4481   4.957   9.383  10.493
  963W        W 4482   5.827   0.910   1.742
  964W        W 4483   6.516   3.751   3.605
  965W        W 4484   2.741   0.865  10.628
  966W        W 4485   1.880   6.997   0.866
  967W        W 4486   3.214   7.046   2.537
  968W        W 4487   9.833   4.353   1.276
  969W        W 4488   8.494   4.678   1.410
  970W        W 4489   2.250   1.309  10.898
  971W        W 4490   5.803   5.025   1.345
  972W        W 4491   7.542   6.346   1.577
  973W        W 4492   0.665   5.783   3.199
  974W        W 4493   2.888   0.648  11.065
  975W        W 4494   4.137   1.384   1.644
  976W        W 4495   7.358   6.214   9.539
  977W        W 4496   9.038   6.252   2.592
  978W        W 4497   0.508   7.657   3.185
  979W        W 4498   9.793   0.331   2.203
  980W        W 4499   1.943   9.898   0.006
  981W        W 4500   2.195   5.046   1.866
  982W        W 4501   9.040   7.148   3.454
  983W        W 4502   5.751   6.726   2.801
  984W        W 4503   1.700   2.287   1.472
  985W        W 4504   1.653   5.192   1.093
  986W        W 4505   7.428   2.996  11.557
  987W        W 4506   9.407   5.748   1.134
  988W        W 4507   0.805   7.875   8.851
  989W        W 4508   1.765   5.244  11.780
  990W        W 4509   3.252   8.250   0.453
  991W        W 4510   3.035   7.813  11.031
  992W        W 4511   9.576   5.031  10.430
  993W        W 4512   1.854   8.162   2.914
  994W        W 4513   6.068   1.480   2.355
  995W        W 4514   3.360   3.832  11.547
  996W        W 4515   8.853   3.308  10.488
  997W        W 4516   2.940   2.838   3.219
  998W        W 4517   3.086   9.450   2.360
  999W        W 4518   2.768   1.242  10.998
 1000W        W 4519   1.310   3.314   9.310
 1001W        W 4520   7.001   7.992   0.201
 1002W        W 4521   2.399   8.949  11.343
 1003W        W 4522   3.073   6.619   9.847
 1004W        W 4523   6.665   1.294   1.739
 1005W        W 4524   6.949   4.235   2.237
 1006W        W 4525   9.876   8.271   0.834
 1007W        W 4526   5.111   3.745   8.665
 1008W        W 4527   2.092   1.760   0.376
 1009W        W 4528   4.305   8.408   8.901
 1010W        W 4529   7.865   1.743   3.806
 1011W        W 4530   0.620   0.752   1.151
 1012W        W 4531   6.089   8.533   8.837
 1013W        W 4532   3.118   8.547   2.607
 1014W        W 4533   3.000   1.856   0.485
 1015W        W 4534   9.340   7.911   0.022
 1016W        W 4535   9.934   8.435  11.543
 1017W        W 4536   5.649   8.070   1.791
 1018W        W 4537   1.268   4.051  11.493
 1019W        W 4538   9.107   5.204  10.309
 1020W        W 4539   1.286   0.288   2.604
 1021W        W 4540   2.385   6.671   1.692
 1022W        W 4541   4.115   1.860  11.170
 1023W        W 4542   3.991   8.014   3.435
 1024W        W 4543   8.427   1.200   0.540
 1025W        W 4544   9.838   4.582  11.794
 1026W        W 4545   5.675   0.768  11.910
 1027W        W 4546   4.002   5.095   8.827
 1028W        W 4547   6.508   4.696   2.879
 1029W        W 4548   6.247   4.995   3.905
 1030W        W 4549   8.955   6.470   9.642
 1031W        W 4550   9.054   8.572  10.970
 1032W        W 4551   2.749   2.700   0.214
 1033W        W 4552   9.404   4.736   2.760
 1034W        W 4553   8.626   6.078   1.259
 1035W        W 4554   3.027   6.852  11.441
 1036W        W 4555   8.004   2.766   2.952
 1037W        W 4556   2.156   4.531   1.337
 1038W        W 4557   5.546   3.199   0.065
 1039W        W 4558   5.548   2.264   0.546
 1040W        W 4559   9.829   5.248   0.958
 1041W        W 4560   1.156   5.535   3.160
 1042W        W 4561   6.049   3.512  11.395
 1043W        W 4562   2.239   2.843   9.136
 1044W        W 4563   5.497   4.362  10.774
 1045W        W 4564   4.659   8.145   8.624
 1046W        W 4565   0.742   8.601   1.792
 1047W        W 4566   8.715   9.945   2.028
 1048W        W 4567   1.306   9.974   0.795
 1049W        W 4568   3.565   2.036  11.305
 1050W        W 4569   5.570   5.186   3.127
 1051W        W 4570   4.154   8.615  11.150
 1052W        W 4571   6.783   9.377   1.917
 1053W        W 4572   3.458   2.601   0.612
 1054W        W 4573   0.214   4.317  11.529
 1055W        W 4574   5.155   8.014   2.059
 1056W        W 4575   7.544   7.552   2.304
 1057W        W 4576   7.860   0.635   0.741
 1058W        W 4577   4.211   4.241   2.388
 1059W        W 4578   4.244   3.685   1.689
 1060W        W 4579   4.143   9.898  10.658
 1061W        W 4580   7.873   2.973  10.246
 1062W        W 4581   3.169   9.077   9.788
 1063W        W 4582   6.933   6.950   3.316
 1064W        W 4583   8.260   6.393  11.007
 1065W        W 4584   9.410   4.114   0.524
 1066W        W 4585   5.319   4.423  10.302
 1067W        W 4586   7.045   9.541   0.649
 1068W        W 4587   3.823   9.278   2.383
 1069W        W 4588   3.570   1.869   8.669
 1070W        W 4589   9.835   3.890  11.084
 1071W        W 4590   4.891   5.363  11.854
 1072W        W 4591   6.976   8.609  10.788
 1073W        W 4592   9.692   3.894   0.151
 1074W        W 4593   4.211   2.684  10.894
 1075W        W 4594   1.218   6.708  10.585
 1076W        W 4595   0.966   3.273   0.441
 1077W        W 4596   1.729   8.469  11.803
 1078W        W 4597   1.309   9.721   9.515
 1079W        W 4598   5.613   8.954   0.937
 1080W        W 4599   0.187   7.274  11.171
 1081W        W 4600   0.216   5.915  11.743
 1082W        W 4601   7.576   4.686   1.814
 1083W        W 4602   9.773   5.625  11.792
 1084W        W 4603   4.495   2.250  11.636
 1085W        W 4604   8.274   4.649  10.989
 1086W        W 4605   3.525   5.982   2.945
 1087W        W 4606   4.128   6.861   9.678
 1088W        W 4607   5.177   0.578  11.446
 1089W        W 4608   1.035   1.510   1.724
 1090W        W 4609   5.337   1.192   9.236
 1091W        W 4610   6.777   8.336  11.170
 1092W        W 4611   1.877   2.268   9.897
 1093W        W 4612   8.884   5.713  10.444
 1094W        W 4613   7.117   3.543   0.867
 1095W        W 4614   9.457   8.386  10.719
 1096W        W 4615   8.036   5.000  11.474
 1097W        W 4616   5.587   0.682  10.075
 1098W        W 4617   2.425   3.608   3.187
 1099W        W 4618   7.649   3.906  10.822
 1100W        W 4619   6.139   4.730   9.490
 1101W        W 4620   9.324   9.498   0.885
 1102W        W 4621   4.712   8.649  10.461
 1103W        W 4622   7.006   8.061   2.749
 1104W        W 4623   9.773   7.363   1.055
 1105W        W 4624   6.961   5.322   0.246
 1106W        W 4625   0.672   6.578   2.145
 1107W        W 4626   3.663   2.486   2.736
 1108W        W 4627   7.525   1.559   1.518
 1109W        W 4628   1.961   9.589   3.344
 1110W        W 4629   3.639   8.488   1.759
 1111W        W 4630   3.756   4.176  10.836
 1112W        W 4631   3.573   8.922   2.670
 1113W        W 4632   6.577   6.598   3.219
 1114W        W 4633   8.899   6.481  11.698
 1115W        W 4634   0.374   8.465   9.339
 1116W        W 4635   3.189   9.860   2.663
 1117W        W 4636   0.466   0.558   3.372
 1118W        W 4637   1.144   8.853   0.344
 1119W        W 4638   8.503   5.450  10.727
 1120W        W 4639   6.078   5.535   3.226
 1121W        W 4640   3.716   9.585   8.978
 1122W        W 4641   0.832   8.805  11.454
 1123W        W 4642   4.205   0.630  10.566
 1124W        W 4643   2.065   6.495  11.408
 1125W        W 4644   1.040   4.982  10.525
 1126W        W 4645   6.456   8.158  11.510
 1127W        W 4646   3.765   5.934  10.727
 1128W        W 4647   9.795   4.065  11.668
 1129W        W 4648   0.590   7.624   2.697
 1130W        W 4649   3.202   7.333   0.897
 1131W        W 4650   0.049   5.417   2.926
 1132W        W 4651   1.468   2.952   0.182
 1133W        W 4652   3.712   5.962   0.438
 1134W        W 4653   8.527   8.921   9.022
 1135W        W 4654   9.753   6.501   9.236
 1136W        W 4655   9.112   5.752   2.779
 1137W        W 4656   8.483   2.746  11.480
 1138W        W 4657   6.837   4.976  10.242
 1139W        W 4658   1.644   3.501  10.538
 1140W        W 4659   8.622   3.947   0.916
 1141W        W 4660   7.408   9.457  11.728
 1142W        W 4661   0.350   2.607   9.960
 1143W        W 4662   5.477   7.020   1.164
 1144W        W 4663   8.887   1.256   3.244
 1145W        W 4664   0.014   9.987   8.737
 1146W        W 4665   4.897   3.416   1.533
 1147W        W 4666   4.795   3.075   4.124
 1148W        W 4667   3.053   6.255   2.224
 1149W        W 4668   7.968   3.931   1.434
 1150W        W 4669   3.121   3.300   2.021
 1151W        W 4670   0.641   9.773   2.227
 1152W        W 4671   1.377   9.289   2.172
 1153W        W 4672   1.178   4.588  10.839
 1154W        W 4673   1.661   9.029   3.340
 1155W        W 4674   4.774   3.721  10.390
 1156W        W 4675   2.142   7.112  10.404
 1157W        W 4676   6.249   6.418   2.399
 1158W        W 4677   1.116   7.157  10.354
 1159W        W 4678   6.888   9.521  11.667
 1160W        W 4679   8.550   7.611   9.855
 1161W        W 4680   2.767   7.889   2.134
 1162W        W 4681   6.203   3.205   1.362
 1163W        W 4682   3.041   9.330   1.870
 1164W        W 4683   4.921   2.186  10.786
 1165W        W 4684   8.951   6.690   1.148
 1166W        W 4685   1.190   6.160  10.974
 1167W        W 4686   6.499   2.693   9.536
 1168W        W 4687   1.818   5.271   9.252
 1169W        W 4688   3.166   5.168   2.279
 1170W        W 4689   6.845   7.205  11.873
 1171W        W 4690   7.410   9.865  11.412
 1172W        W 4691   0.589   6.184  10.176
 1173W        W 4692   6.104   0.023   2.613
 1174W        W 4693   9.237   3.668   0.816
 1175W        W 4694   7.561   7.640   0.177
 1176W        W 4695   3.052   2.852   1.374
 1177W        W 4696   0.845   2.597   0.805
 1178W        W 4697   3.753   6.743   8.829
 1179W        W 4698   5.518   4.554   0.602
 1180W        W 4699   3.867   4.023   0.818
 1181W        W 4700   4.628   8.201   0.347
 1182W        W 4701   9.864   9.135   0.295
 1183W        W 4702   1.943   8.676   3.028
 1184W        W 4703   8.807   3.902   3.130
 1185W        W 4704   7.662   1.472   2.918
 1186W        W 4705   4.669   3.985  11.345
 1187W        W 4706   4.884   2.202   2.576
 1188W        W 4707   3.617   3.415   2.179
 1189W        W 4708   3.290   3.102   3.461
 1190W        W 4709   9.794   1.487   3.650
 1191W        W 4710   0.481   9.336   9.137
 1192W        W 4711   2.639   0.563   2.588
 1193W        W 4712   3.113   7.578  11.967
 1194W        W 4713   2.572   6.202   1.655
 1195W        W 4714   7.224   8.957   9.630
 1196W        W 4715   5.648   8.342  10.348
 1197W        W 4716   6.889   4.625  11.516
 1198W        W 4717   8.489   3.489   0.188
 1199W        W 4718   4.549   8.278   2.732
 1200W        W 4719   3.726   8.272  11.905
 1201W        W 4720   7.101   8.693  11.823
 1202W        W 4721   7.784   9.159   8.754
 1203W        W 4722   2.105   6.537  10.052
 1204W        W 4723   3.737   8.111   0.655
 1205W        W 4724   1.635   4.656   1.284
 1206W        W 4725   1.843   1.638   8.559
 1207W        W 4726   5.182   3.192   2.470
 1208W        W 4727   3.592   6.436   7.982
 1209W        W 4728   5.168   8.019  10.168
 1210W        W 4729   9.596   3.333   0.662
 1211W        W 4730   8.174   5.370   1.866
 1212W        W 4731   1.272   0.772  10.373
 1213W        W 4732   8.736   6.276   3.629
 1214W        W 4733   8.793   3.784   9.953
 1215W        W 4734   9.429   8.032   0.990
 1216W        W 4735   6.452   6.038  11.995
 1217W        W 4736   4.118   4.906  11.437
 1218W        W 4737   0.395   6.249   2.685
 1219W        W 4738   3.591   4.046   0.294
 1220W        W 4739   0.800   2.591   9.117
 1221W        W 4740   8.644   7.429  11.916
 1222W        W 4741   8.404   1.385   1.016
 1223W        W 4742   6.024   0.052  11.299
 1224W        W 4743   2.712   9.680  10.845
 1225W        W 4744   9.123   4.181   9.068
 1226W        W 4745   9.278   7.386   8.659
 1227W        W 4746   6.329   1.709   0.310
 1228W        W 4747   6.637   1.649  10.067
 1229W        W 4748   1.041   4.176   0.206
 1230W        W 4749   2.704   0.405   1.699
 1231W        W 4750   1.864   1.288  11.908
 1232W        W 4751   8.550   7.111   2.529
 1233W        W 4752   1.426   1.792   1.471
 1234W        W 4753   8.535   4.973   1.820
 1235W        W 4754   0.483   2.947   2.283
 1236W        W 4755   9.844   8.008  11.298
 1237W        W 4756   3.499   6.313   0.781
 1238W        W 4757   4.980   0.267  11.852
 1239W        W 4758   7.859   4.511  11.363
 1240W        W 4759   4.117   7.004   0.506
 1241W        W 4760   9.034   2.413  10.428
 1242W        W 4761   6.479   9.763   2.367
 1243W        W 4762   7.488   1.926   0.982
 1244W        W 4763   0.114   2.421  10.457
 1245W        W 4764   2.150   2.421   2.543
 1246W        W 4765   5.807   6.495   9.993
 1247W        W 4766   7.403   8.825   1.407
 1248W        W 4767   2.732   1.668  10.692
 1249W        W 4768   0.722   2.586  10.311
 1250W        W 4769   9.044   1.712  10.872
 1251W        W 4770   4.976   7.028   2.374
 1252W        W 4771   5.728   6.476  11.739
 1253W        W 4772   9.062   5.539   0.328
 1254W        W 4773   7.013   7.693   1.647
 1255W        W 4774   4.627   6.805   8.401
 1256W        W 4775   5.521   3.299   9.076
 1257W        W 4776   8.872   4.949   9.376
 1258W        W 4777   7.413   0.304   1.917
 1259W        W 4778   5.625   8.885  11.072
 1260W        W 4779   3.037   6.053   2.729
 1261W        W 4780   1.636   6.781  11.997
 1262W        W 4781   7.580   3.569   2.487
 1263W        W 4782   2.040   7.813   3.265
 1264W        W 4783   9.244   6.683   3.534
 1265W        W 4784   3.215   8.962   2.291
 1266W        W 4785   8.673   8.414   0.281
 1267W        W 4786   2.599   0.890   1.266
 1268W        W 4787   4.811   8.741   2.692
 1269W        W 4788   4.030   8.048  10.955
 1270W        W 4789   2.712   6.230   9.291
 1271W        W 4790   5.470   5.940   9.096
 1272W        W 4791   0.414   8.967   9.477
 1273W        W 4792   9.088   0.946   9.420
 1274W        W 4793   7.635   6.236   3.685
 1275W        W 4794   3.809   3.901   2.150
 1276W        W 4795   0.374   5.151   2.612
 1277W        W 4796   8.966   8.493  10.453
 1278W        W 4797   9.850   0.424  11.478
 1279W        W 4798   2.740   1.318   8.894
 1280W        W 4799   2.693   8.806   9.132
 1281W        W 4800   8.675   9.457  11.435
 1282W        W 4801   8.747   0.375   9.103
 1283W        W 4802   5.583   3.175   0.568
 1284W        W 4803   8.048   7.095  10.961
 1285W        W 4804   6.201   4.517  10.827
 1286W        W 4805   9.709   8.156  10.205
 1287W        W 4806   3.048   9.052   2.767
 1288W        W 4807   1.447   1.757  11.058
 1289W        W 4808   0.412   3.375  11.284
 1290W        W 4809   9.728   1.233   0.925
 1291W        W 4810   6.931   0.422   1.269
 1292W        W 4811   2.018   5.138   3.171
 1293W        W 4812   2.137   2.277   0.441
 1294W        W 4813   4.376   9.411   8.548
 1295W        W 4814   0.257   1.557   3.395
 1296W        W 4815   1.832   5.191   9.781
 1297W        W 4816   9.993   5.114  10.720
 1298W        W 4817   6.976   2.076   1.033
 1299W        W 4818   2.236   6.527   9.146
 1300W        W 4819   3.966   4.308   2.927
 1301W        W 4820   3.823   2.112   9.052
 1302W        W 4821   0.625   7.196  10.451
 1303W        W 4822   7.493   7.165   0.389
 1304W        W 4823   8.105   3.318   9.923
 1305W        W 4824   0.230   2.918  10.369
 1306W        W 4825   5.232   0.722   2.457
 1307W        W 4826   8.968   0.165   0.932
 1308W        W 4827   3.835   8.563   9.096
 1309W        W 4828   7.135   3.995   1.747
 1310W        W 4829   2.829   1.772   1.929
 1311W        W 4830   8.381   7.238   3.020
 1312W        W 4831   7.336   9.855  10.531
 1313W        W 4832   3.763   0.540   2.811
 1314W        W 4833   9.401   0.613  11.681
 1315W        W 4834   3.150   4.911  11.635
 1316W        W 4835   4.747   3.154   8.148
 1317W        W 4836   3.322   4.084   3.681
 1318W        W 4837   6.962   3.691  10.075
 1319W        W 4838   6.467   9.025   9.943
 1320W        W 4839   9.980   6.502  10.910
 1321W        W 4840   5.089   2.694   9.764
 1322W        W 4841   7.952   8.535   3.502
 1323W        W 4842   6.909   3.330   2.435
 1324W        W 4843   3.873   7.153   3.789
 1325W        W 4844   1.781   9.638  10.520
 1326W        W 4845   6.695   1.689   1.391
 1327W        W 4846   2.157   7.471   8.844
 1328W        W 4847   4.948   9.027   0.423
 1329W        W 4848   9.847   0.386   0.574
 1330W        W 4849   8.875   7.681  11.201
 1331W        W 4850   5.625   9.821  11.503
 1332W        W 4851   5.063   3.019  11.978
 1333W        W 4852   7.595   0.673   3.242
 1334W        W 4853   3.989   3.236   1.860
 1335W        W 4854   7.396   3.057   0.064
 1336W        W 4855   0.700   0.567   9.024
 1337W        W 4856   2.552   1.351   9.378
 1338W        W 4857   9.238   1.465   9.544
 1339W        W 4858   0.821   1.796  11.737
 1340W        W 4859   7.029   9.743   9.709
 1341W        W 4860   0.270   9.938   9.587
 1342W        W 4861   6.136   8.052   9.702
 1343W        W 4862   3.235   9.028  10.751
 1344W        W 4863   1.577   0.768   1.311
 1345W        W 4864   8.445   3.550   2.795
 1346W        W 4865   1.404   7.059   9.102
 1347W        W 4866   0.648   7.503   2.197
 1348W        W 4867   8.494   3.625  11.222
 1349W        W 4868   3.501   5.505  11.686
 1350W        W 4869   2.309   3.165  10.095
 1351W        W 4870   0.856   6.351   1.463
 1352W        W 4871   3.476   5.732   9.765
 1353W        W 4872   8.966   1.370   2.763
 1354W        W 4873   2.618   8.486  11.310
 1355W        W 4874   1.826   9.303   2.439
 1356W        W 4875   4.512   2.380  10.099
 1357W        W 4876   7.828   3.184   2.721
 1358W        W 4877   2.257   3.795  10.925
 1359W        W 4878   1.415   9.325  11.869
 1360W        W 4879   7.341   7.965  11.822
 1361W        W 4880   4.716   1.388   0.207
 1362W        W 4881   7.514   8.393   1.644
 1363W        W 4882   4.110   2.903  10.419
 1364W        W 4883   5.616   4.174   1.528
 1365W        W 4884   3.668   0.373   0.741
 1366W        W 4885   1.711   0.019  10.851
 1367W        W 4886   9.017   6.981   8.909
 1368W        W 4887   1.008   4.059   9.008
 1369W        W 4888   9.422   0.398   0.881
 1370W        W 4889   6.594   8.000   2.482
 1371W        W 4890   2.136   0.380  10.447
 1372W        W 4891   5.211   8.983  11.417
 1373W        W 4892   2.893   3.853   8.446
 1374W        W 4893   1.872   5.434  10.799
 1375W        W 4894   2.262   3.471   1.321
 1376W        W 4895   4.358   4.008   0.634
 1377W        W 4896   4.044   6.061   3.065
 1378W        W 4897   9.097   4.990  11.217
 1379W        W 4898   1.944   7.004   9.039
 1380W        W 4899   6.616   5.546   2.327
 1381W        W 4900   8.543   3.780  11.709
 1382W        W 4901   7.023   1.899  10.599
 1383W        W 4902   5.796   2.670  11.328
 1384W        W 4903   7.454   8.145   2.963
 1385W        W 4904   6.280   6.160  10.307
 1386W        W 4905   6.466   5.758  11.070
 1387W        W 4906   3.082   2.166  11.449
 1388W        W 4907   4.294   7.634   3.235
 1389W        W 4908   7.706   4.609   0.784
 1390W        W 4909   6.653   4.122   1.610
 1391W        W 4910   4.015   2.283   1.834
 1392W        W 4911   4.766   9.580   2.463
 1393W        W 4912   0.983   1.220  10.388
 1394W        W 4913   4.446   7.423   1.909
 1395W        W 4914   4.914   7.993   3.938
 1396W        W 4915   9.384   9.681  11.752
 1397W        W 4916   4.692   2.316   0.621
 1398W        W 4917   5.350   3.447   1.839
 1399W        W 4918   1.213   0.962   0.466
 1400W        W 4919   8.257   5.618   2.493
 1401W        W 4920   0.009   0.237   1.729
 1402W        W 4921   3.684   6.854   2.489
 1403W        W 4922   1.357   4.595   0.328
 1404W        W 4923   2.970   4.675  10.546
 1405W        W 4924   8.726   7.243  11.448
 1406W        W 4925   0.739   2.115  11.101
 1407W        W 4926   1.115   2.952   3.097
 1408W        W 4927   1.068   8.385   9.384
 1409W        W 4928   1.843   7.026   2.248
 1410W        W 4929   4.579   4.121   9.173
 1411W        W 4930   5.957   7.191   0.896
 1412W        W 4931   9.224   5.223   2.763
 1413W        W 4932   4.111   6.358   9.546
 1414W        W 4933   2.473   1.676   1.119
 1415W        W 4934   4.294   3.760   9.601
 1416W        W 4935   5.899   9.442   2.999
 1417W        W 4936   8.482   6.575   1.352
 1418W        W 4937   1.390   7.115   9.917
 1419W        W 4938   3.126   9.514  10.030
 1420W        W 4939   4.176   0.402   9.159
 1421W        W 4940   3.254   1.130   1.342
 1422W        W 4941   3.162   6.526   9.349
 1423W        W 4942   8.908   4.623   9.770
 1424W        W 4943   2.201   0.135   0.432
 1425W        W 4944   3.260   1.775   2.713
 1426W        W 4945   0.422   4.004  11.876
 1427W        W 4946   5.489   5.736  10.254
 1428W        W 4947   8.853   7.926   0.211
 1429W        W 4948   2.570   9.949   1.326
 1430W        W 4949   5.426   3.976   3.345
 1431W        W 4950   3.497   0.873   0.744
 1432W        W 4951   0.162   3.301   3.239
 1433W        W 4952   5.533   1.208  10.679
 1434W        W 4953   7.769   7.457   1.274
 1435W        W 4954   4.706   3.920   1.542
 1436W        W 4955   4.003   8.147  10.043
 1437W        W 4956   8.607   5.375   0.638
 1438W        W 4957   5.064   4.639  10.724
 1439W        W 4958   9.776   8.634   2.864
 1440W        W 4959   9.007   5.484  11.351
 1441W        W 4960   0.000   3.087  11.971
 1442W        W 4961   2.276   1.255   1.455
 1443W        W 4962   6.959   6.850  10.207
 1444W        W 4963   7.637   8.867   1.861
 1445W        W 4964   2.071   1.251   0.415
 1446W        W 4965   1.602   2.756   3.099
 1447W        W 4966   5.862   0.509   8.933
 1448W        W 4967   7.878   0.797   1.220
 1449W        W 4968   1.866   5.699   0.430
 1450W        W 4969   1.754   9.849   8.787
 1451W        W 4970   2.290   2.122   1.303
 1452W        W 4971   4.887   2.753   8.988
 1453W        W 4972   2.204   1.682   9.859
 1454W        W 4973   9.302   3.133   2.829
 1455W        W 4974   2.661   9.486   9.797
 1456W        W 4975   6.949   5.976   2.319
 1457W        W 4976   6.393   6.768  11.028
 1458W        W 4977   8.340   2.877  10.064
 1459W        W 4978   0.164   9.146   1.143
 1460W        W 4979   8.183   9.310   9.138
 1461W        W 4980   3.660   1.622   2.440
 1462W        W 4981   3.673   9.038   9.839
 1463W        W 4982   1.986   8.643   3.533
 1464W        W 4983   3.938   9.181   3.569
 1465W        W 4984   6.051   5.969   2.594
 1466W        W 4985   7.446   6.050   2.409
 1467W        W 4986   5.687   7.038   9.809
 1468W        W 4987   1.770   1.791  10.116
 1469W        W 4988   9.777   9.856   2.018
 1470W        W 4989   7.835   1.603  11.883
 1471W        W 4990   8.574   5.574   1.123
 1472W        W 4991   4.914   2.665   0.313
 1473W        W 4992   2.580   1.971   8.834
 1474W        W 4993   6.231   5.934   0.472
 1475W        W 4994   8.429   3.154   9.014
 1476W        W 4995   6.103   5.461   0.269
 1477W        W 4996   9.286   3.730   3.165
 1478W        W 4997   3.029   1.056   0.886
 1479W        W 4998   8.539   8.412   1.918
 1480W        W 4999   8.479   0.042   9.675
 1481W        W 5000   9.444   1.406  11.253
 1482W        W 5001   6.846   0.226   9.514
 1483W        W 5002   7.080   4.810   3.597
 1484W        W 5003   1.420   1.485   1.055
 1485W        W 5004   8.493   0.316  11.655
 1486W        W 5005   2.329   6.050  10.106
 1487W        W 5006   5.787   7.285  10.687
 1488W        W 5007   2.716   8.878   0.553
 1489W        W 5008   6.664   4.128   0.349
 1490W        W 5009   3.783   4.628   1.653
 1491W        W 5010   6.924   3.420   3.609
 1492W        W 5011   3.220   4.193   9.618
 1493W        W 5012   0.921   9.338   2.402
 1494W        W 5013   7.360   6.527   2.049
 1495W        W 5014   9.294   3.191   9.298
 1496W        W 5015   7.129   6.068   3.721
 1497W        W 5016   2.212   4.983  11.540
 1498W        W 5017   6.490   4.866  11.233
 1499W        W 5018   9.457   8.997   0.581
 1500W        W 5019   5.035   6.662   8.679
 1501W        W 5020   1.252   2.879   0.667
 1502W        W 5021   7.103   2.504   1.332
 1503W        W 5022   1.015   7.359   3.031
 1504W        W 5023   8.110   3.815   0.951
 1505W        W 5024   7.558   0.765  10.826
 1506W        W 5025   8.548   9.863   3.012
 1507W        W 5026   7.701   4.700   2.336
 1508W        W 5027   9.410   0.471  10.648
 1509W        W 5028   9.985   3.027   2.170
 1510W        W 5029   8.530   2.314  10.532
 1511W        W 5030   2.999   5.124   3.198
 1512W        W 5031   4.863   6.065   1.427
 1513W        W 5032   4.034   3.904   1.280
 1514W        W 5033   3.557   3.728   8.460
 1515W        W 5034   3.700   0.003   1.521
 1516W        W 5035   8.484   7.044  10.116
 1517W        W 5036   5.097   5.267   1.848
 1518W        W 5037   3.366   0.882   1.777
 1519W        W 5038   9.507   2.394   1.766
 1520W        W 5039   8.290   6.679   9.070
 1521W        W 5040   8.834   3.052   2.649
 1522W        W 5041   1.716   6.334   2.903
 1523W        W 5042   4.960   0.665  10.963
 1524W        W 5043   8.946   7.090   0.793
 1525W        W 5044   4.009   4.338   0.460
 1526W        W 5045   1.531   6.931   3.578
 1527W        W 5046   9.212   6.076   1.849
 1528W        W 5047   1.316   6.674   0.376
 1529W        W 5048   7.456   0.913   0.882
 1530W        W 5049   9.811   3.212   2.878
 1531W        W 5050   4.066   3.214  10.878
 1532W        W 5051   5.438   2.311   9.944
 1533W        W 5052   8.100   8.408   9.435
 1534W        W 5053   7.618   2.328   2.220
 1535W        W 5054   7.532   1.110   8.549
 1536W        W 5055   6.109   6.764   9.664
 1537W        W 5056   7.414   8.541   9.873
 1538W        W 5057   9.255   4.486  11.105
 1539W        W 5058   3.323   7.955   0.892
 1540W        W 5059   4.254   2.594   3.121
 1541W        W 5060   0.227   1.814  10.287
 1542W        W 5061   9.184   3.137   0.829
 1543W        W 5062   3.487   1.216  10.481
 1544W        W 5063   5.933   2.741  10.317
 1545W        W 5064   4.340   4.454   8.597
 1546W        W 5065   7.399   9.567   0.230
 1547W        W 5066   4.984   6.601  10.612
 1548W        W 5067   7.877   6.240   3.227
 1549W        W 5068   1.696   5.791   9.134
 1550W        W 5069   6.395   1.365  11.508
 1551W        W 5070   0.007   5.875   0.181
 1552W        W 5071   1.848   9.208   9.592
 1553W        W 5072   5.375   8.501  11.334
 1554W        W 5073   1.869   4.708  11.256
 1555W        W 5074   4.721   1.422   0.715
 1556W        W 5075   9.400   7.521   3.370
 1557W        W 5076   5.510   2.217   1.556
 1558W        W 5077   6.943   5.542   8.457
 1559W        W 5078   9.637   6.456   8.632
 1560W        W 5079   1.352   8.450   0.115
 1561W        W 5080   6.511   7.795   9.458
 1562W        W 5081   8.491   6.950   1.013
 1563W        W 5082   9.557   4.099   2.882
 1564W        W 5083   5.041   6.407  11.086
 1565W        W 5084   5.874   1.869   1.269
 1566W        W 5085   4.640   3.623   8.412
 1567W        W 5086   8.081   9.470  11.188
 1568W        W 5087   4.037   3.269   9.500
 1569W        W 5088   9.879   1.300  11.458
 1570W        W 5089   0.214   1.026   1.013
 1571W        W 5090   6.363   3.728   0.339
 1572W        W 5091   2.618   1.948  11.571
 1573W        W 5092   7.699   2.107  11.699
 1574W        W 5093   5.221   6.956  10.020
 1575W        W 5094   3.777   1.728   0.923
 1576W        W 5095   4.157   3.185   9.982
 1577W        W 5096   0.311   3.751  10.933
 1578W        W 5097   8.527   6.609   0.081
 1579W        W 5098   1.238   1.585  11.927
 1580W        W 5099   9.492   3.151   2.352
 1581W        W 5100   2.853   0.145  11.043
 1582W        W 5101   7.535   1.178  11.977
 1583W        W 5102   2.906   4.348   0.848
 1584W        W 5103   0.872   0.091   8.900
 1585W        W 5104   7.019   5.450   1.625
 1586W        W 5105   8.767   6.715   3.358
 1587W        W 5106   8.081   0.062  10.931
 1588W        W 5107   7.223   4.644  10.193
 1589W        W 5108   4.760   3.698   9.412
 1590W        W 5109   6.748   5.223   8.955
 1591W        W 5110   5.395   7.610   1.808
 1592W        W 5111   5.747   6.176  10.423
 1593W        W 5112   7.824   6.621  10.869
 1594W        W 5113   7.476   1.861   1.984
 1595W        W 5114   9.126   3.049   9.912
 1596W        W 5115   1.120   5.728   2.245
 1597W        W 5116   2.127   2.590   1.399
 1598W        W 5117   8.774   4.312   0.484
 1599W        W 5118   8.072   2.810   8.880
 1600W        W 5119   3.572   3.646   0.687
 1601W        W 5120   3.385   0.344  11.069
 1602W        W 5121   9.682   8.599   8.543
 1603W        W 5122   0.225   9.999   0.823
 1604W        W 5123   7.029   9.040  10.478
 1605W        W 5124   4.919   3.951   3.182
 1606W        W 5125   7.121   5.955  11.498
 1607W        W 5126   3.282   0.763  11.386
 1608W        W 5127   5.198   0.063  11.341
 1609W        W 5128   3.841   8.315  10.519
 1610W        W 5129   1.816   3.129   9.382
 1611W        W 5130   9.860   8.028  10.702
 1612W        W 5131   7.381   7.503   9.988
 1613W        W 5132   4.886   5.359   1.394
 1614W        W 5133   7.559   5.581  10.220
 1615W        W 5134   4.961   7.530  11.626
 1616W        W 5135   5.167   0.723  11.949
 1617W        W 5136   9.043   3.169   8.740
 1618W        W 5137   3.064   7.866  11.534
 1619W        W 5138   4.023   2.188  10.794
 1620W        W 5139   9.353   9.957   0.654
 1621W        W 5140   9.484   6.501   2.734
 1622W        W 5141   2.286   0.133   1.906
 1623W        W 5142   8.703   1.833  11.717
 1624W        W 5143   3.896   3.541   7.979
 1625W        W 5144   8.496   0.331   0.783
 1626W        W 5145   6.633   3.216  10.460
 1627W        W 5146   7.832   6.093  10.870
 1628W        W 5147   3.211   2.909   0.298
 1629W        W 5148   2.785   6.416  11.038
 1630W        W 5149   3.630   0.996   3.030
 1631W        W 5150   7.738   8.483  11.309
 1632W        W 5151   3.663   8.801  10.581
 1633W        W 5152   9.813   9.977  11.746
 1634W        W 5153   4.590   3.270  10.250
 1635W        W 5154   1.059   9.673   0.451
 1636W        W 5155   6.693   7.582   3.207
 1637W        W 5156   1.063   2.838  10.702
 1638W        W 5157   5.437   2.740   0.289
 1639W        W 5158   3.130   8.252  10.145
 1640W        W 5159   3.554   4.242  11.295
 1641W        W 5160   0.675   4.926   0.862
 1642W        W 5161   3.553   5.870   9.232
 1643W        W 5162   4.112   0.081   1.839
 1644W        W 5163   1.818   5.868   2.730
 1645W        W 5164   0.421   9.195   8.610
 1646W        W 5165   4.160   2.270   2.721
 1647W        W 5166   3.742   6.361  10.444
 1648W        W 5167   3.804   6.085  10.002
 1649W        W 5168   2.054   1.478   0.895
 1650W        W 5169   9.643   1.013   1.392
 1651W        W 5170   4.511   7.188   3.151
 1652W        W 5171   2.679   8.990   9.625
 1653W        W 5172   6.771   9.965   1.371
 1654W        W 5173   5.116   4.976   3.330
 1655W        W 5174   3.371   1.084   0.283
 1656W        W 5175   4.306   9.107  11.231
 1657W        W 5176   3.761   9.168   1.140
 1658W        W 5177   0.494   4.202   9.535
 1659W        W 5178   1.942   2.783   2.223
 1660W        W 5179   2.337   8.861   8.762
 1661W        W 5180   1.295   7.608   9.973
 1662W        W 5181   9.974   8.077   2.240
 1663W        W 5182   8.135   5.390   0.873
 1664W        W 5183   0.932   0.870   9.992
 1665W        W 5184   1.350   4.929  11.949
 1666W        W 5185   4.171   8.569   0.675
 1667W        W 5186   5.215   5.921   0.464
 1668W        W 5187   2.624   6.453  10.042
 1669W        W 5188   0.870   7.209   9.528
 1670W        W 5189   7.943   6.884   2.112
 1671W        W 5190   0.016   2.168   9.406
 1672W        W 5191   1.685   0.017   9.294
 1673W        W 5192   8.874   0.899   2.563
 1674W        W 5193   4.546   5.158   1.755
 1675W        W 5194   7.490   9.430   0.905
 1676W        W 5195   5.587   3.842  11.835
 1677W        W 5196   6.441   6.003   2.164
 1678W        W 5197   7.445   0.307   0.074
 1679W        W 5198   6.316   0.482   9.219
 1680W        W 5199   0.596   9.052   9.964
 1681W        W 5200   7.930   0.205   2.552
 1682W        W 5201   2.665   5.563   3.267
 1683W        W 5202   7.252   1.794   2.874
 1684W        W 5203   6.074   4.586   3.112
 1685W        W 5204   0.936   2.490   9.863
 1686W        W 5205   2.910   9.589   1.449
 1687W        W 5206   5.124   4.963   0.088
 1688W        W 5207   9.593   0.079   3.383
 1689W        W 5208   5.603   2.568   9.540
 1690W        W 5209   7.412   8.867  11.052
 1691W        W 5210   6.293   4.516   4.138
 1692W        W 5211   6.914   8.213  11.720
 1693W        W 5212   6.128   7.642  10.823
 1694W        W 5213   6.421   6.941   8.714
 1695W        W 5214   3.518   7.587   0.578
 1696W        W 5215   8.006   9.546   1.623
 1697W        W 5216   7.228   6.143  10.086
 1698W        W 5217   0.892   3.978   2.963
 1699W        W 5218   4.633   6.547   2.359
 1700W        W 5219   6.673   0.568  10.467
 1701W        W 5220   8.604   9.058   9.845
 1702W        W 5221   4.302   8.700   2.871
 1703W        W 5222   7.879   8.869   0.451
 1704W        W 5223   3.369   9.154   3.166
 1705W        W 5224   9.783   6.701  10.477
 1706W        W 5225   8.656   3.157  11.828
 1707W        W 5226   2.092   1.493   1.909
 1708W        W 5227   7.202   7.074  11.464
 1709W        W 5228   0.074   7.019   3.299
 1710W        W 5229   3.511   6.408   8.517
 1711W        W 5230   0.699   7.938  10.958
 1712W        W 5231   1.217   3.095  11.160
 1713W        W 5232   1.538   1.200   8.710
 1714W        W 5233   9.766   7.469   8.957
 1715W        W 5234   5.933   9.515  11.794
 1716W        W 5235   4.055   7.164  10.626
 1717W        W 5236   3.355   0.434  10.108
 1718W        W 5237   0.830   8.506   1.268
 1719W        W 5238   8.077   0.180   9.981
 1720W        W 5239   9.561   9.249   3.474
 1721W        W 5240   4.880   8.400  11.348
 1722W        W 5241   2.669   8.299  10.385
 1723W        W 5242   5.991   9.263   1.274
 1724W        W 5243   8.170   7.475   2.617
 1725W        W 5244   0.870   4.077   1.199
 1726W        W 5245   2.081   0.779   1.316
 1727W        W 5246   9.796   8.323   3.266
 1728W        W 5247   5.195   8.066   9.614
 1729W        W 5248   8.370   1.743   0.549
 1730W        W 5249   0.465   5.664   0.339
 1731W        W 5250   0.277   7.969   0.740
 1732W        W 5251   6.281   5.914   1.178
 1733W        W 5252   8.682   8.847  10.703
 1734W        W 5253   4.379   9.721   0.595
 1735W        W 5254   5.325   7.491  10.686
 1736W        W 5255   6.556   0.246   2.119
 1737W        W 5256   3.949   5.105  10.971
 1738W        W 5257   1.748   2.661   9.094
 1739W        W 5258   7.604   0.359  10.119
 1740W        W 5259   1.619   8.043  10.481
 1741W        W 5260   4.799   6.058   4.114
 1742W        W 5261   2.139   2.526  11.562
 1743W        W 5262   0.163   7.471   3.511
 1744W        W 5263   1.436   5.360   0.188
 1745W        W 5264   7.109   7.863   3.233
 1746W        W 5265   2.283   7.408  11.551
 1747W        W 5266   5.799   9.621   8.578
 1748W        W 5267   8.656   3.271  10.014
 1749W        W 5268   4.392   7.843   9.979
 1750W        W 5269   4.593   9.517   1.366
 1751W        W 5270   3.016   1.838   9.945
 1752W        W 5271   6.338   5.078   1.493
 1753W        W 5272   4.467   5.121  10.772
 1754W        W 5273   3.422   6.825   0.805
 1755W        W 5274   9.595   1.809  11.534
 1756W        W 5275   4.757   5.509   8.506
 1757W        W 5276   3.156   6.011   1.041
 1758W        W 5277   5.137   0.132   1.688
 1759W        W 5278   1.383   0.201   2.088
 1760W        W 5279   9.021   6.766   2.627
 1761W        W 5280   7.191   0.835   2.161
 1762W        W 5281   7.728   4.551   9.516
 1763W        W 5282   3.789   4.430  10.379
 1764W        W 5283   8.450   2.648   0.516
 1765W        W 5284   1.228   3.383   2.158
 1766W        W 5285   2.807   8.899   1.994
 1767W        W 5286   1.400   9.400  10.855
 1768W        W 5287   3.292   3.129   2.938
 1769W        W 5288   2.765   5.497   8.886
 1770W        W 5289   8.418   4.481   8.326
 1771W        W 5290   1.323   6.159   2.045
 1772W        W 5291   1.992   0.489   9.436
 1773W        W 5292   1.878   9.163  10.654
 1774W        W 5293   0.007   6.521   1.396
 1775W        W 5294   9.096   6.459   3.068
 1776W        W 5295   8.801   3.134  11.329
 1777W        W 5296   5.743   4.141   3.751
 1778W        W 5297   7.263   9.055   8.799
 1779W        W 5298   0.432   5.709   2.704
 1780W        W 5299   7.671   9.876   1.829
 1781W        W 5300   0.669   5.181   2.034
 1782W        W 5301   6.452   9.769   2.898
 1783W        W 5302   7.094   1.419   1.251
 1784W        W 5303   6.846   0.080  10.569
 1785W        W 5304   1.153   3.318  10.650
 1786W        W 5305   5.453   8.902   1.872
 1787W        W 5306   1.348   3.992   1.396
 1788W        W 5307   5.088   1.758   2.371
 1789W        W 5308   7.869   9.787   3.303
 1790W        W 5309   3.250   0.885   9.870
 1791W        W 5310   6.138   0.206   0.670
 1792W        W 5311   9.874   2.738   1.762
 1793W        W 5312   5.850   6.530   3.256
 1794W        W 5313   6.368   9.055   0.183
 1795W        W 5314   4.121   8.012   8.605
 1796W        W 5315   3.135   6.017   9.488
 1797W        W 5316   8.003   1.433   0.358
 1798W        W 5317   7.516   9.849   9.496
 1799W        W 5318   1.706   7.471   0.811
 1800W        W 5319   6.105   3.691  11.875
 1801W        W 5320   5.888   0.569   3.759
 1802W        W 5321   4.640   1.394   9.900
 1803W        W 5322   2.907   1.730  11.186
 1804W        W 5323   8.062   6.961   2.596
 1805W        W 5324   2.987   5.560   9.685
 1806W        W 5325   2.789   3.056   0.565
 1807W        W 5326   4.016   1.823   9.957
 1808W        W 5327   2.662   9.305   8.199
 1809W        W 5328   5.297   6.228   8.720
 1810W        W 5329   8.040   8.896  10.418
 1811W        W 5330   1.330   4.065  10.984
 1812W        W 5331   5.111   4.397   3.386
 1813W        W 5332   8.223   4.329   3.593
 1814W        W 5333   5.729   6.295   8.302
 1815W        W 5334   8.647   0.818  11.650
 1816W        W 5335   1.248   6.518   2.838
 1817W        W 5336   3.594   5.266  10.525
 1818W        W 5337   6.643   8.131   0.532
 1819W        W 5338   6.587   6.501   8.502
 1820W        W 5339   4.493   9.263  10.764
 1821W        W 5340   9.904   9.056   8.587
 1822W        W 5341   8.859   7.378   1.849
 1823W        W 5342   8.422   4.715   9.577
 1824W        W 5343   8.816   5.779  10.959
 1825W        W 5344   3.705   5.552   2.743
 1826W        W 5345   1.243   2.206  11.114
 1827W        W 5346   6.502   2.073   9.163
 1828W        W 5347   0.992   1.692   1.223
 1829W        W 5348   1.476   4.974  11.456
 1830W        W 5349   2.797   3.137   2.512
 1831W        W 5350   0.005   3.871   1.141
 1832W        W 5351   3.422   0.238   1.164
 1833W        W 5352   3.837   1.262   1.245
 1834W        W 5353   9.130   3.690   8.820
 1835W        W 5354   3.705   7.010   1.347
 1836W        W 5355   0.453   1.876   9.388
 1837W        W 5356   4.549   8.720   0.347
 1838W        W 5357   4.706   6.890  10.002
 1839W        W 5358   3.699   0.767  11.839
 1840W        W 5359   0.175   8.038   0.249
 1841W        W 5360   4.002   0.347   2.268
 1842W        W 5361   7.592   9.784   2.761
 1843W        W 5362   5.006   6.065   0.916
 1844W        W 5363   4.804   8.331  10.861
 1845W        W 5364   6.075   1.361  10.768
 1846W        W 5365   5.957   2.312   3.193
 1847W        W 5366   6.340   4.000   8.796
 1848W        W 5367   0.687   3.597  10.615
 1849W        W 5368   4.639   6.896   2.739
 1850W        W 5369   7.557   4.884   9.880
 1851W        W 5370   5.104   6.046  10.298
 1852W        W 5371   7.304   1.158  10.516
 1853W        W 5372   9.805   7.161   1.960
 1854W        W 5373   2.530   5.962  11.676
 1855W        W 5374   6.334   7.851   3.476
 1856W        W 5375   8.658   3.511   8.656
 1857W        W 5376   2.623   4.047   0.422
 1858W        W 5377   8.250   1.470  10.471
 1859W        W 5378   8.859   5.457   9.496
 1860W        W 5379   1.210   3.745   0.473
 1861W        W 5380   8.374   5.196   2.790
 1862W        W 5381   2.726   4.023   8.896
 1863W        W 5382   0.583   0.196   0.042
 1864W        W 5383   6.859   2.905   8.869
 1865W        W 5384   1.311   5.468   9.098
 1866W        W 5385   3.717   4.292   2.481
 1867W        W 5386   0.021   1.964  10.721
 1868W        W 5387   6.070   6.523   8.636
 1869W        W 5388   5.718   8.497   0.673
 1870W        W 5389   9.740   3.255   1.775
 1871W        W 5390   4.023   9.559   1.899
 1872W        W 5391   9.327   5.691  11.006
 1873W        W 5392   2.593   8.547   0.971
 1874W        W 5393   2.421   0.343   9.202
 1875W        W 5394   8.513   6.063   2.427
 1876W        W 5395   6.814   2.028   2.759
 1877W        W 5396   0.657   3.545   0.747
 1878W        W 5397   9.011   5.333  10.806
 1879W        W 5398   5.820   5.164  10.241
 1880W        W 5399   8.897   0.182   0.416
 1881W        W 5400   2.700   3.398   1.065
 1882W        W 5401   1.947   2.605  10.708
 1883W        W 5402   7.508   1.295  10.059
 1884W        W 5403   9.489   3.648   3.630
 1885W        W 5404   6.792   5.594   2.840
 1886W        W 5405   3.289   8.995   0.919
 1887W        W 5406   7.284   5.485  11.323
 1888W        W 5407   3.811   2.491   9.460
 1889W        W 5408   9.886   9.325  11.063
 1890W        W 5409   0.040   3.622  11.858
 1891W        W 5410   6.322   9.691   1.350
 1892W        W 5411   4.697   1.465  10.535
 1893W        W 5412   5.566   4.694   2.909
 1894W        W 5413   1.847   7.802   2.523
 1895W        W 5414   2.399   4.644   2.383
 1896W        W 5415   0.870   6.549  10.964
 1897W        W 5416   9.929   5.228  11.202
 1898W        W 5417   2.220   9.670   9.993
 1899W        W 5418   3.781   2.623   1.037
 1900W        W 5419   2.377   7.027   0.696
 1901W        W 5420   8.528   6.225   0.419
 1902W        W 5421   3.914   6.695   0.926
 1903W        W 5422   0.492   4.077   9.043
 1904W        W 5423   4.223   8.853  10.668
 1905W        W 5424   3.211   0.725   3.147
 1906W        W 5425   0.349   2.074   1.314
 1907W        W 5426   9.455   9.345  10.771
 1908W        W 5427   8.003   2.003   2.191
 1909W        W 5428   6.451   9.310   1.031
 1910W        W 5429   8.506   6.812  11.606
 1911W        W 5430   2.370   8.444   0.442
 1912W        W 5431   6.789   9.786   9.251
 1913W        W 5432   7.475   2.048  10.369
 1914W        W 5433   2.574   7.001  11.306
 1915W        W 5434   4.594   4.718   9.863
 1916W        W 5435   4.635   1.292   2.970
 1917W        W 5436   0.216   0.318   9.074
 1918W        W 5437   9.432   5.850  11.477
 1919W        W 5438   1.354   9.203   1.671
 1920W        W 5439   3.540   9.247  10.295
 1921W        W 5440   4.756   9.490   0.875
 1922W        W 5441   8.586   8.170  11.497
 1923W        W 5442   0.148   3.744   9.794
 1924W        W 5443   8.529   8.554   9.739
 1925W        W 5444   8.788   5.616  11.798
 1926W        W 5445   8.926   2.594   2.020
 1927W        W 5446   4.091   7.594   9.219
 1928W        W 5447   8.494   8.020  10.522
 1929W        W 5448   7.881   5.927   1.594
 1930W        W 5449   3.198   4.205   9.076
 1931W        W 5450   8.114   6.686   8.561
 1932W        W 5451   2.709   5.272   1.205
 1933W        W 5452   5.382   9.764   1.962
 1934W        W 5453   8.038   0.672   2.330
 1935W        W 5454   0.216   5.979   8.610
 1936W        W 5455   4.666   8.496   1.468
 1937W        W 5456   8.575   8.410   9.250
 1938W        W 5457   1.579   6.756   8.716
 1939W        W 5458   2.343   3.245   0.725
 1940W        W 5459   6.662   4.529  11.988
 1941W        W 5460   0.748   2.517   2.448
 1942W        W 5461   5.030   0.863   8.977
 1943W        W 5462   4.740   2.734   3.239
 1944W        W 5463   8.058   7.648   3.078
 1945W        W 5464   8.445   4.174   1.343
 1946W        W 5465   9.988   6.847   0.514
 1947W        W 5466   1.315   6.309   9.533
 1948W        W 5467   6.408   0.998   0.846
 1949W        W 5468   1.563   7.449   2.301
 1950W        W 5469   4.227   3.615   2.207
 1951W        W 5470   1.222   8.504   9.966
 1952W        W 5471   4.772   2.003   9.441
 1953W        W 5472   5.675   9.694  10.062
 1954W        W 5473   1.922   3.928   9.814
 1955W        W 5474   9.114   6.173  10.978
 1956W        W 5475   5.956   4.429   0.371
 1957W        W 5476   8.841   7.758   1.443
 1958W        W 5477   7.378   0.824   9.873
 1959W        W 5478   0.038   9.649   0.445
 1960W        W 5479   5.190   6.568   2.354
 1961W        W 5480   7.121   1.089   1.707
 1962W        W 5481   1.191   7.097   8.622
 1963W        W 5482   4.691   7.972   1.328
 1964W        W 5483   0.701   3.894  11.401
 1965W        W 5484   0.466   2.387  11.447
 1966W        W 5485   5.866   9.398  10.807
 1967W        W 5486   5.569   1.867   0.870
 1968W        W 5487   7.318   7.680   2.755
 1969W        W 5488   4.338   3.105   2.215
 1970W        W 5489   8.887   9.212   0.938
 1971W        W 5490   0.955   5.793   2.767
 1972W        W 5491   1.591   5.006   2.491
 1973W        W 5492   5.012   2.532   4.252
 1974W        W 5493   4.699   6.964   1.181
 1975W        W 5494   2.088   3.509  11.403
 1976W        W 5495   8.301   3.819   3.208
 1977W        W 5496   6.419   8.886   3.614
 1978W        W 5497   1.402   8.045   2.726
 1979W        W 5498   3.590   4.068   8.096
 1980W        W 5499   6.290   5.465   3.685
 1981W        W 5500   8.385   4.529   0.237
 1982W        W 5501   0.026   9.810  10.244
 1983W        W 5502   5.249   3.532   0.766
 1984W        W 5503   5.585   7.851   2.248
 1985W        W 5504   5.772   7.412   0.042
 1986W        W 5505   2.677   8.598   2.890
 1987W        W 5506   2.943   1.823   3.609
 1988W        W 5507   4.476   2.341  10.603
 1989W        W 5508   5.196   9.531   2.956
 1990W        W 5509   6.870   8.971   1.596
 1991W        W 5510   8.457   7.151  10.641
 1992W        W 5511   0.140   4.092   1.751
 1993W        W 5512   9.765   0.997   3.268
 1994W        W 5513   5.084   9.165   2.622
 1995W        W 5514   1.176   8.484  10.485
 1996W        W 5515   9.605   2.388   3.504
 1997W        W 5516   0.886   0.605   0.258
 1998W        W 5517   1.580   9.055   1.240
 1999W        W 5518   5.523   7.322   3.616
 2000W        W 5519   7.492   1.082   1.362
 2001W        W 5520   6.195   0.761   0.025
 2002W        W 5521   7.798   0.363  10.589
 2003W        W 5522   0.505   1.589   1.362
 2004W        W 5523   5.497   5.081  11.304
 2005W        W 5524   2.348   4.391   0.788
 2006W        W 5525   7.652   7.609  10.422
 2007W        W 5526   4.836   9.954   0.626
 2008W        W 5527   7.277   2.136   9.060
 2009W        W 5528   7.372   5.580   4.036
 2010W        W 5529   1.201   2.223   1.338
 2011W        W 5530   4.227   5.291   3.325
 2012W        W 5531   3.358   5.887   7.992
 2013W        W 5532   1.026   7.065   3.513
 2014W        W 5533   0.507   3.492   3.577
 2015W        W 5534   8.914   7.793  11.695
 2016W        W 5535   5.487   4.223  11.491
 2017W        W 5536   2.613   7.933  10.743
 2018W        W 5537   5.632   1.053   3.569
 2019W        W 5538   4.298   4.695   1.772
 2020W        W 5539   4.901   6.871   3.177
 2021W        W 5540   9.428   7.967  11.012
 2022W        W 5541   9.331   8.980  11.148
 2023W        W 5542   6.002   8.823   0.428
 2024W        W 5543   0.397   7.593   0.409
 2025W        W 5544   8.188   2.901   9.590
 2026W        W 5545   6.161   7.938   0.600
 2027W        W 5546   2.749   7.478  11.292
 2028W        W 5547   0.343   2.619   1.927
 2029W        W 5548   6.883   6.276  11.836
 2030W        W 5549   6.804   7.356   9.076
 2031W        W 5550   2.686   9.762   8.963
 2032W        W 5551   7.038   3.511   8.535
 2033W        W 5552   1.758   8.786   9.319
 2034W        W 5553   5.646   3.839   9.915
 2035W        W 5554   5.908   7.609   1.836
 2036W        W 5555   6.225   4.045   3.932
 2037W        W 5556   6.622   7.315   9.550
 2038W        W 5557   2.273   2.778   0.478
 2039W        W 5558   8.008   2.272   9.072
 2040W        W 5559   9.108   8.176   1.640
 2041W        W 5560   0.772   5.176  11.515
 2042W        W 5561   4.982   0.540   2.986
 2043W        W 5562   6.096   7.418   0.437
 2044W        W 5563   6.332   0.852  11.542
 2045W        W 5564   3.032   6.482   0.908
 2046W        W 5565   9.968   2.155   2.106
 2047W        W 5566   8.706   3.820   9.453
 2048W        W 5567   0.847   7.100  11.832
 2049W        W 5568   2.539   3.566   2.354
 2050W        W 5569   0.899   6.998   9.050
 2051W        W 5570   1.343   7.449   9.471
 2052W        W 5571   2.971   7.055   9.205
 2053W        W 5572   2.825   3.874   9.767
 2054W        W 5573   7.175   3.172   3.201
 2055W        W 5574   5.187   7.084  11.476
 2056W        W 5575   7.182   8.712   0.682
 2057W        W 5576   6.574   3.862   2.905
 2058W        W 5577   0.063   9.479   8.849
 2059W        W 5578   0.218   7.250   2.850
 2060W        W 5579   9.675   7.691   2.528
 2061W        W 5580   2.793   3.681   1.909
 2062W        W 5581   9.253   1.804   0.486
 2063W        W 5582   9.340   2.083  10.653
 2064W        W 5583   0.174   6.600   2.147
 2065W        W 5584   3.288   4.191   8.566
 2066W        W 5585   2.880   5.964  11.299
 2067W        W 5586   8.202   5.406   0.323
 2068W        W 5587   4.582   8.528   2.290
 2069W        W 5588   4.186   7.209  11.383
 2070W        W 5589   9.685   9.111   3.000
 2071W        W 5590   5.029   8.335   1.146
 2072W        W 5591   5.240   5.244   8.741
 2073W        W 5592   1.630   8.218   1.028
 2074W        W 5593   2.634   9.051   1.032
 2075W        W 5594   9.366   5.506   2.373
 2076W        W 5595   1.712   1.455   3.650
 2077W        W 5596   0.910   6.773   3.117
 2078W        W 5597   7.087   0.838   3.106
 2079W        W 5598   0.305   2.777   3.097
 2080W        W 5599   7.979   2.154   0.919
 2081W        W 5600   1.553   7.630   1.295
 2082W        W 5601   9.214   0.378   1.349
 2083W        W 5602   6.245   3.630   3.187
 2084W        W 5603   5.174   4.474   2.020
 2085W        W 5604   5.553   3.133   3.172
 2086W        W 5605   4.892   7.392   0.956
 2087W        W 5606   6.465   9.842   3.462
 2088W        W 5607   5.217   7.258   3.226
 2089W        W 5608   3.309   2.976  11.212
 2090W        W 5609   1.140   5.760   8.668
 2091W        W 5610   0.804   1.152   0.803
 2092W        W 5611   5.442   1.384  11.144
 2093W        W 5612   9.290   7.095   1.194
 2094W        W 5613   3.607   3.427   0.237
 2095W        W 5614   2.613   4.340   1.262
 2096W        W 5615   7.762   8.451   2.669
 2097W        W 5616   9.017   2.235  11.519
 2098W        W 5617   0.656   2.532   3.422
 2099W        W 5618   6.410   7.651   1.745
 2100W        W 5619   8.288   1.279   8.579
 2101W        W 5620   0.686   4.138   1.788
 2102W        W 5621   7.455   4.916  11.358
 2103W        W 5622   9.043   1.335  10.098
 2104W        W 5623   3.250   2.476   1.066
 2105W        W 5624   6.012   8.127  10.710
 2106W        W 5625   0.481   1.402   9.257
 2107W        W 5626   2.860   6.436  10.538
 2108W        W 5627   7.148   7.394   3.479
 2109W        W 5628   7.466   1.808   9.926
 2110W        W 5629   4.938   8.447   1.908
 2111W        W 5630   7.900   8.859   2.317
 2112W        W 5631   4.012   3.116   8.983
 2113W        W 5632   9.587   4.841  11.340
 2114W        W 5633   1.807   2.156  10.952
 2115W        W 5634   0.526   1.248  10.110
 2116W        W 5635   0.088   9.329   3.223
 2117W        W 5636   4.103   4.136   0.007
 2118W        W 5637   7.337   2.687   0.403
 2119W        W 5638   9.413   6.933  10.187
 2120W        W 5639   2.173   6.169   3.017
 2121W        W 5640   5.480   7.178   8.546
 2122W        W 5641   7.207   2.105   0.558
 2123W        W 5642   8.253   3.103   0.425
 2124W        W 5643   3.525   4.066   1.501
 2125W        W 5644   9.931   2.209   1.581
 2126W        W 5645   0.737   2.847   1.691
 2127W        W 5646   5.144   3.828  11.497
 2128W        W 5647   2.440   2.799   2.377
 2129W        W 5648   5.075   8.202   0.645
 2130W        W 5649   2.784   1.358   1.386
 2131W        W 5650   6.390   7.517   0.829
 2132W        W 5651   5.727   5.602  11.951
 2133W        W 5652   8.902   2.215  10.891
 2134W        W 5653   1.687   6.588   9.756
 2135W        W 5654   6.441   3.679  10.500
 2136W        W 5655   0.808   5.396   2.477
 2137W        W 5656   0.827   1.262  11.748
 2138W        W 5657   0.321   5.045   3.112
 2139W        W 5658   9.066   5.669   9.085
 2140W        W 5659   5.647   9.856  10.988
 2141W        W 5660   5.217   4.958   0.573
 2142W        W 5661   4.270   7.803   1.600
 2143W        W 5662   2.059   4.842   2.755
 2144W        W 5663   1.770   7.029   2.760
 2145W        W 5664   8.095   8.696   0.889
 2146W        W 5665   8.300   9.213   8.632
 2147W        W 5666   1.873   5.222  11.254
 2148W        W 5667   5.451   8.443   2.130
 2149W        W 5668   3.490   2.379   8.734
 2150W        W 5669   4.810   8.477   9.025
 2151W        W 5670   1.868   9.581  11.072
 2152W        W 5671   8.904   7.172   2.929
 2153W        W 5672   2.794   3.039  10.449
 2154W        W 5673   6.601   4.287   3.166
 2155W        W 5674   9.106   4.910   3.167
 2156W        W 5675   5.990   5.874   3.627
 2157W        W 5676   8.820   7.876   1.935
 2158W        W 5677   0.818   6.089   0.861
 2159W        W 5678   1.250   2.560  10.320
 2160W        W 5679   7.260   9.866   9.014
 2161W        W 5680   0.328   9.293   1.607
 2162W        W 5681   1.571   8.902  10.942
 2163W        W 5682   3.175   5.645   1.388
 2164W        W 5683   3.329   0.390   9.048
 2165W        W 5684   3.344   9.725   3.141
 2166W        W 5685   7.195   1.552   8.641
 2167W        W 5686   2.354   4.831   9.310
 2168W        W 5687   8.524   4.846   9.006
 2169W        W 5688   0.252   8.843   0.166
 2170W        W 5689   9.830   4.150   9.796
 2171W        W 5690   5.903   1.905   0.495
 2172W        W 5691   3.600   0.147   2.519
 2173W        W 5692   4.176   0.230   0.799
 2174W        W 5693   9.365   9.026   1.080
 2175W        W 5694   3.628   9.570   9.890
 2176W        W 5695   1.046   4.741  11.571
 2177W        W 5696   7.999   6.378   1.265
 2178W        W 5697   1.337   4.248  10.508
 2179W        W 5698   9.356   2.683   0.556
 2180W        W 5699   3.866   1.229   0.741
 2181W        W 5700   2.328   5.411   1.558
 2182W        W 5701   0.557   8.126   2.946
 2183W        W 5702   4.139   1.962   8.518
 2184W        W 5703   9.521   0.570   3.068
 2185W        W 5704   0.921   6.382   9.851
 2186W        W 5705   6.160   9.977  11.788
 2187W        W 5706   6.237   6.666  10.188
 2188W        W 5707   9.248   7.105   0.376
 2189W        W 5708   2.233   9.631   0.353
 2190W        W 5709   6.560   3.340   1.692
 2191W        W 5710   8.233   4.795   0.653
 2192W        W 5711   4.540   7.654   9.494
 2193W        W 5712   7.936   1.405   9.225
 2194W        W 5713   7.089   2.613  11.660
 2195W        W 5714   3.431   6.535   3.148
 2196W        W 5715   6.990   5.137   2.762
 2197W        W 5716   7.132   2.635  11.157
 2198W        W 5717   9.790   9.546   8.429
 2199W        W 5718   8.907   4.545   8.734
 2200W        W 5719   6.239   8.265   1.810
 2201W        W 5720   3.544   7.440   2.633
 2202W        W 5721   6.464   3.186   2.219
 2203W        W 5722   6.543   5.008   0.200
 2204W        W 5723   5.955   5.643  10.409
 2205W        W 5724   9.904   0.739   9.835
 2206W        W 5725   2.177   0.645   0.480
 2207W        W 5726   2.598   8.234  11.765
 2208W        W 5727   1.238   6.819   9.537
 2209W        W 5728   2.708   9.114   1.528
 2210W        W 5729   7.526   4.269  10.472
 2211W        W 5730   8.300   1.007   1.393
 2212W        W 5731   6.298   7.405  11.911
 2213W        W 5732   0.950   2.189   0.044
 2214W        W 5733   2.837   4.969   3.656
 2215W        W 5734   5.100   8.535  10.048
 2216W        W 5735   0.276   7.402   8.858
 2217W        W 5736   7.404   2.319   9.936
 2218W        W 5737   9.218   3.776   1.734
 2219W        W 5738   0.089   1.740   1.651
 2220W        W 5739   2.515   7.929   3.433
 2221W        W 5740   9.893   2.151   1.035
 2222W        W 5741   5.534   8.785  10.081
 2223W        W 5742   5.314   4.231   2.910
 2224W        W 5743   1.145   6.951  11.288
 2225W        W 5744   3.757   5.018   0.380
 2226W        W 5745   3.578   3.081  10.342
 2227W        W 5746   8.387   0.904   9.905
 2228W        W 5747   7.607   6.051   1.165
 2229W        W 5748   2.589   6.484  11.498
 2230W        W 5749   8.931   7.924   9.754
 2231W        W 5750   7.152   9.701   1.700
 2232W        W 5751   4.651   9.735  10.790
 2233W        W 5752   4.863   9.886   9.671
 2234W        W 5753   5.374   6.711   3.296
 2235W        W 5754   9.405   7.386   2.187
 2236W        W 5755   0.004   2.996   0.516
 2237W        W 5756   4.560   6.509  10.901
 2238W        W 5757   5.321   6.203  10.714
 2239W        W 5758   3.037   2.238   3.911
 2240W        W 5759   4.494   5.075   1.256
 2241W        W 5760   1.021   5.615   0.903
 2242W        W 5761   9.438   7.037  11.798
 2243W        W 5762   2.255   0.759  11.543
 2244W        W 5763   6.793   7.714   3.680
 2245W        W 5764   4.402   8.199  11.316
 2246W        W 5765   1.650   3.925  10.236
 2247W        W 5766   3.608   9.398  10.786
 2248W        W 5767   0.969   0.877  10.779
 2249W        W 5768   5.875   9.809   9.550
 2250W        W 5769   9.550   8.856   8.957
 2251W        W 5770   7.589   6.752   9.491
 2252W        W 5771   5.518   8.463   1.127
 2253W        W 5772   7.498   2.794   1.110
 2254W        W 5773   7.383   1.855   0.031
 2255W        W 5774   8.861   3.774   0.480
 2256W        W 5775   3.335   5.033   3.767
 2257W        W 5776   0.520   9.482   9.654
 2258W        W 5777   7.370   9.350  10.788
 2259W        W 5778   8.003   3.569   1.834
 2260W        W 5779   8.046   8.220  10.990
 2261W        W 5780   7.843   9.373  10.355
 2262W        W 5781   2.800   0.970  11.450
 2263W        W 5782   0.450   8.796   8.949
 2264W        W 5783   3.617   3.106   0.648
 2265W        W 5784   1.731   5.160   2.041
 2266W        W 5785   6.707   7.133   0.757
 2267W        W 5786   9.807   8.923   2.013
 2268W        W 5787   0.840   9.703   9.277
 2269W        W 5788   2.049   4.239  11.071
 2270W        W 5789   9.472   0.148  10.266
 2271W        W 5790   4.825   4.857   2.061
 2272W        W 5791   5.951   3.244   3.467
 2273W        W 5792   1.086   3.558   8.924
 2274W        W 5793   8.202   8.010   8.613
 2275W        W 5794   2.204   9.144  11.771
 2276W        W 5795   1.429   8.789   2.002
 2277W        W 5796   0.822   9.028   2.897
 2278W        W 5797   9.824   9.295   0.788
 2279W        W 5798   8.628   1.637  11.219
 2280W        W 5799   8.684   5.228   0.154
 2281W        W 5800   5.785   1.557  10.399
 2282W        W 5801   1.016   8.992  10.512
 2283W        W 5802   7.144   4.607   9.681
 2284W        W 5803   1.374   5.296   9.581
 2285W        W 5804   1.005   1.816  10.762
 2286W        W 5805   4.660   4.726   3.469
 2287W        W 5806   2.741   3.765   2.795
 2288W        W 5807   2.334   6.844  11.746
 2289W        W 5808   8.299   8.413   1.320
 2290W        W 5809   4.253   7.697   2.285
 2291W        W 5810   2.823   2.317  11.886
 2292W        W 5811   0.915   3.142   0.937
 2293W        W 5812   6.047   2.282   8.958
 2294W        W 5813   9.278   5.500  11.861
 2295W        W 5814   1.761   0.782  11.746
 2296W        W 5815   0.967   9.281   0.138
 2297W        W 5816   8.971   2.637   3.456
 2298W        W 5817   6.206   1.252   8.604
 2299W        W 5818   5.763   5.386   3.607
 2300W        W 5819   3.882   4.698   8.529
 2301W        W 5820   8.026   9.185   0.831
 2302W        W 5821   2.347   4.436   0.253
 2303W        W 5822   9.081   8.335   2.581
 2304W        W 5823   4.136   6.284  11.140
 2305W        W 5824   5.592   7.967  11.414
 2306W        W 5825   2.697   7.320  10.207
 2307W        W 5826   6.738   0.532   9.932
 2308W        W 5827   7.739   7.832   9.072
 2309W        W 5828   2.474   8.529   9.536
 2310W        W 5829   1.043   6.029   3.414
 2311W        W 5830   7.916   3.783  10.062
 2312W        W 5831   6.790   8.301  10.348
 2313W        W 5832   3.273   7.059  10.054
 2314W        W 5833   0.201   8.984   0.655
 2315W        W 5834   8.299   3.769   9.731
 2316W        W 5835   8.503   4.292   3.153
 2317W        W 5836   8.502   6.645  10.612
 2318W        W 5837   5.305   7.442   9.817
 2319W        W 5838   8.934   8.024   2.942
 2320W        W 5839   4.172   2.510  11.993
 2321W        W 5840   7.850   9.172  10.836
 2322W        W 5841   1.300   4.054   0.897
 2323W        W 5842   3.317   5.891   3.660
 2324W        W 5843   6.055   8.605  10.918
 2325W        W 5844   6.506   2.943   1.039
 2326W        W 5845   8.924   6.717   8.400
 2327W        W 5846   6.664   3.671  11.041
 2328W        W 5847   9.770   3.959   2.383
 2329W        W 5848   8.445   3.144  10.953
 2330W        W 5849   1.356   7.008   2.119
 2331W        W 5850   3.225   3.656   3.007
 2332W        W 5851   2.414   6.213  10.699
 2333W        W 5852   0.272   7.495   0.930
 2334W        W 5853   7.853   6.958   9.879
 2335W        W 5854   9.897   8.563   9.992
 2336W        W 5855   3.249   6.144  10.003
 2337W        W 5856   6.005   8.964  10.160
 2338W        W 5857   3.834   3.826  11.315
 2339W        W 5858   7.416   4.933   9.392
 2340W        W 5859   0.348   0.206   1.342
 2341W        W 5860   3.268   0.364   8.528
 2342W        W 5861   5.503   5.838   8.451
 2343W        W 5862   7.472   1.339   9.015
 2344W        W 5863   5.662   5.531   8.844
 2345W        W 5864   9.395   7.111   2.614
 2346W        W 5865   9.904   3.455   2.427
 2347W        W 5866   7.108   6.926   1.717
 2348W        W 5867   3.694   1.266  10.939
 2349W        W 5868   7.916   6.155  11.860
 2350W        W 5869   4.419   5.339  11.236
 2351W        W 5870   6.926   6.891   9.466
 2352W        W 5871   8.454   7.518   8.822
 2353W        W 5872   4.437   2.276  11.130
 2354W        W 5873   9.533   8.750   0.133
 2355W        W 5874   4.615   9.006   1.407
 2356W        W 5875   2.797   5.336   1.721
 2357W        W 5876   1.538   0.425  11.104
 2358W        W 5877   0.246   4.576   0.526
 2359W        W 5878   3.384   5.831   0.066
 2360W        W 5879   6.032   3.723   2.721
 2361W        W 5880   1.744   8.218   3.408
 2362W        W 5881   1.965   4.901  10.782
 2363W        W 5882   3.262   1.812   2.193
 2364W        W 5883   8.426   9.230  10.435
 2365W        W 5884   4.221   8.508   3.386
 2366W        W 5885   1.893   4.197   0.986
 2367W        W 5886   8.817   1.085   0.887
 2368W        W 5887   1.603   8.887   9.927
 2369W        W 5888   5.872   0.714   3.261
 2370W        W 5889   5.578   5.349  10.652
 2371W        W 5890   7.603   9.723   1.343
 2372W        W 5891   9.404   8.014   9.536
 2373W        W 5892   0.724   5.733  10.440
 2374W        W 5893   2.067   4.161   1.950
 2375W        W 5894   3.794   1.192  10.075
 2376W        W 5895   7.350   5.129  10.311
 2377W        W 5896   7.884   0.707   9.841
 2378W        W 5897   0.642   0.186   9.368
 2379W        W 5898   9.891   8.368   1.330
 2380W        W 5899   9.457   9.841   9.370
 2381W        W 5900   8.118   7.550  11.924
 2382W        W 5901   9.481   4.511   0.921
 2383W        W 5902   0.103   3.502   1.482
 2384W        W 5903   9.880   7.866   9.800
 2385W        W 5904   8.031   5.837   9.066
 2386W        W 5905   0.447   0.168  10.413
 2387W        W 5906   5.628   4.582   9.476
 2388W        W 5907   5.630   3.515  10.797
 2389W        W 5908   9.110   7.543   9.499
 2390W        W 5909   6.689   4.729   3.910
 2391W        W 5910   1.616   1.399   3.116
 2392W        W 5911   2.529   2.360   2.151
 2393W        W 5912   0.097   6.392  10.210
 2394W        W 5913   4.935   3.206   2.011
 2395W        W 5914   8.637   0.737   1.674
 2396W        W 5915   2.051   1.353   9.483
 2397W        W 5916   5.077   4.719   9.718
 2398W        W 5917   7.319   6.581   9.107
 2399W        W 5918   2.986   1.314  10.397
 2400W        W 5919   3.633   4.686  11.581
 2401W        W 5920   3.731   1.526   9.664
 2402W        W 5921   1.967   2.144  11.868
 2403W        W 5922   4.253   4.960   3.710
 2404W        W 5923   8.068   4.093  11.090
 2405W        W 5924   7.517   3.974   2.791
 2406W        W 5925   6.201   2.976  11.394
 2407W        W 5926   9.726   7.525  10.749
 2408W        W 5927   8.750   1.731   1.773
 2409W        W 5928   7.457   5.665   1.462
 2410W        W 5929   2.999   8.258   1.145
 2411W        W 5930   4.497   1.570   8.560
 2412W        W 5931   3.111   9.936   2.157
 2413W        W 5932   0.962   2.875   2.140
 2414W        W 5933   6.997   3.943   3.774
 2415W        W 5934   5.509   1.741   3.917
 2416W        W 5935   6.937   5.574  10.921
 2417W        W 5936   7.167   5.683   3.168
 2418W        W 5937   9.238   4.125   8.575
 2419W        W 5938   7.216   3.767   9.250
 2420W        W 5939   8.568   9.793   9.230
 2421W        W 5940   9.760   5.219   2.529
 2422W        W 5941   5.143   1.000  10.402
 2423W        W 5942   8.958   5.970   3.222
 2424W        W 5943   5.075   9.665   3.485
 2425W        W 5944   1.267   8.293   3.180
 2426W        W 5945   8.533   5.732   9.796
 2427W        W 5946   7.440   7.797   9.544
 2428W        W 5947   9.308   9.290  10.242
 2429W        W 5948   3.700   7.265  11.561
 2430W        W 5949   4.419   3.645   7.952
 2431W        W 5950   4.442   7.929   9.042
 2432W        W 5951   5.900   6.013   3.122
 2433W        W 5952   6.586   9.821   8.752
 2434W        W 5953   1.513   5.793  10.897
 2435W        W 5954   0.896   1.979   9.770
 2436W        W 5955   3.589   5.723  10.294
 2437W        W 5956   2.364   9.342   0.733
 2438W        W 5957   1.121   1.081   2.512
 2439W        W 5958   1.746   3.592   2.785
 2440W        W 5959   1.870   0.824  11.198
 2441W        W 5960   4.630   4.603   9.369
 2442W        W 5961   0.782   9.339   3.312
 2443W        W 5962   6.515   7.131   0.275
 2444W        W 5963   1.416   7.083   0.652
 2445W        W 5964   1.811   7.637  11.776
 2446W        W 5965   2.069   6.998  11.293
 2447W        W 5966   3.771   1.823   1.947
 2448W        W 5967   3.092   7.616   1.847
 2449W        W 5968   2.167   8.398  10.384
 2450W        W 5969   7.478   8.997   8.332
 2451W        W 5970   7.427   9.872  10.018
 2452W        W 5971   1.477   6.659  11.006
 2453W        W 5972   7.699   9.300   2.527
 2454W        W 5973   1.653   9.750   2.244
 2455W        W 5974   8.182   6.604  10.047
 2456W        W 5975   7.627   6.994   0.835
 2457W        W 5976   8.420   5.203   9.425
 2458W        W 5977   6.098   1.017   1.315
 2459W        W 5978   5.894   7.692   0.954
 2460W        W 5979   4.093   4.161   9.333
 2461W        W 5980   7.685   9.392   2.022
 2462W        W 5981   9.355   0.419   0.352
 2463W        W 5982   5.480   3.383   8.572
 2464W        W 5983   1.454   2.207  11.916
 2465W        W 5984   6.908   1.854   0.223
 2466W        W 5985   7.220   4.060   0.716
 2467W        W 5986   6.978   7.964   9.320
 2468W        W 5987   9.394   2.208   1.313
 2469W        W 5988   1.754   3.857  11.239
 2470W        W 5989   3.654   9.749  10.407
 2471W        W 5990   2.214   6.171   2.511
 2472W        W 5991   7.446   8.701   0.219
 2473W        W 5992   1.230   4.628   2.965
 2474W        W 5993   9.351   3.830  11.777
 2475W        W 5994   6.275   0.499   2.472
 2476W        W 5995   4.792   7.684   3.330
 2477W        W 5996   3.705   2.906   0.176
 2478W        W 5997   9.460   1.074  10.329
 2479W        W 5998   7.293   7.076   9.177
 2480W        W 5999   3.574   6.245   9.578
 2481W        W 6000   5.457   6.194   3.293
 2482W        W 6001   1.488   3.912   8.790
 2483W        W 6002   6.467   4.334  11.533
 2484W        W 6003   5.996   0.525   1.491
 2485W        W 6004   6.302   4.360   9.868
 2486W        W 6005   1.898   7.013   9.975
 2487W        W 6006   2.674   5.749   1.417
 2488W        W 6007   3.345   6.993   9.556
 2489W        W 6008   2.693   9.592  10.305
 2490W        W 6009   8.435   8.984   3.131
 2491W        W 6010   9.771   6.966   9.483
 2492W        W 6011   6.198   9.341   3.770
 2493W        W 6012   5.616   8.768   3.479
 2494W        W 6013   4.935   5.882  11.982
 2495W        W 6014   4.563   1.171   1.463
 2496W        W 6015   7.066   4.324   3.423
 2497W        W 6016   3.643   4.309   3.337
 2498W        W 6017   8.816   3.462   1.036
 2499W        W 6018   5.481   8.488   9.673
 2500W        W 6019   2.641   2.228   0.433
 2501W        W 6020   3.170   0.718  11.900
 2502W        W 6021   6.061   6.920   0.428
 2503W        W 6022   8.704   9.116   0.202
 2504W        W 6023   8.528   7.529   2.248
 2505W        W 6024   0.247   6.882  10.340
 2506W        W 6025   1.455   2.869   2.131
 2507W        W 6026   0.073   3.802   3.496
 2508W        W 6027   8.594   1.222   1.896
 2509W        W 6028   9.005   6.047   0.366
 2510W        W 6029   1.115   6.536   9.116
 2511W        W 6030   5.956   3.592   8.701
 2512W        W 6031   4.076   8.931   0.314
 2513W        W 6032   8.363   1.900   1.159
 2514W        W 6033   8.723   8.243  10.087
 2515W        W 6034   8.038   2.300   3.159
 2516W        W 6035   6.879   3.456   9.524
 2517W        W 6036   0.903   6.668   8.659
 2518W        W 6037   7.936   5.012   9.546
 2519W        W 6038   8.158   0.856  11.512
 2520W        W 6039   2.721   3.568   0.588
 2521W        W 6040   0.654   8.842   0.461
 2522W        W 6041   7.382   2.224  10.838
 2523W        W 6042   4.666   3.617   1.954
 2524W        W 6043   7.217   5.972   8.553
 2525W        W 6044   1.180   7.422   0.997
 2526W        W 6045   0.565   0.843  11.972
 2527W        W 6046   1.482   3.382   8.636
 2528W        W 6047   8.966   8.189   1.165
 2529W        W 6048   3.969   3.822   2.611
 2530W        W 6049   7.250   7.527   1.209
 2531W        W 6050   9.471   8.362  11.797
 2532W        W 6051   4.962   7.960   9.029
 2533W        W 6052   4.705   3.665   0.744
 2534W        W 6053   6.306   5.674  10.055
 2535W        W 6054   5.229   1.817  11.365
 2536W        W 6055   0.747   8.106   1.593
 2537W        W 6056   3.467   7.634   9.344
 2538W        W 6057   5.884   2.350   2.711
 2539W        W 6058   7.972   4.409  10.688
 2540W        W 6059   2.713   6.107   0.639
 2541W        W 6060   7.798   9.354   3.022
 2542W        W 6061   4.516   5.259   2.254
 2543W        W 6062   3.114   1.368   1.782
 2544W        W 6063   4.958   0.047   8.613
 2545W        W 6064   7.499   2.934  11.026
 2546W        W 6065   2.347   6.661  11.001
 2547W        W 6066   1.362   7.179  11.687
 2548W        W 6067   9.513   6.927   8.786
 2549W        W 6068   6.467   1.175   2.170
 2550W        W 6069   0.645   7.132  11.341
 2551W        W 6070   2.110   8.787  10.953
 2552W        W 6071   4.423   7.368   2.672
 2553W        W 6072   5.629   4.042  10.396
 2554W        W 6073   8.031   7.313  10.231
 2555W        W 6074   0.609   8.965   0.948
 2556W        W 6075   2.724   3.158   9.233
 2557W        W 6076   5.462   0.680   2.926
 2558W        W 6077   6.034   2.783   1.115
 2559W        W 6078   7.352   3.269   2.160
 2560W        W 6079   9.231   0.872   3.349
 2561W        W 6080   5.456   4.088   9.349
 2562W        W 6081   1.051   4.532   1.018
 2563W        W 6082   6.993   2.088   1.897
 2564W        W 6083   4.217   2.299   0.457
 2565W        W 6084   6.450   5.306   0.600
 2566W        W 6085   6.491   7.985   0.998
 2567W        W 6086   5.991   8.299   0.271
 2568W        W 6087   2.557   1.246   0.853
 2569W        W 6088   6.706   6.406   3.690
 2570W        W 6089   5.893   4.842   8.958
 2571W        W 6090   5.387   0.366   8.742
 2572W        W 6091   8.378   6.328  11.618
 2573W        W 6092   6.468   9.771  10.447
 2574W        W 6093   7.184   5.674   0.532
 2575W        W 6094   0.341   6.957  11.763
 2576W        W 6095   7.079   1.599   1.764
 2577W        W 6096   8.125   1.135   2.125
 2578W        W 6097   5.730   3.077   9.495
 2579W        W 6098   8.871   9.583   2.707
 2580W        W 6099   4.109   3.607   3.054
 2581W        W 6100   9.360   4.012  10.319
 2582W        W 6101   4.141   3.327  11.454
 2583W        W 6102   6.625   7.147   2.460
 2584W        W 6103   1.863   3.097   8.849
 2585W        W 6104   8.178   2.239  10.923
 2586W        W 6105   2.221   7.030   3.021
 2587W        W 6106   7.796   1.231  11.512
 2588W        W 6107   0.418   1.129   2.027
 2589W        W 6108   8.985   1.269  11.124
 2590W        W 6109   3.632   3.172   9.829
 2591W        W 6110   3.525   4.287   1.973
 2592W        W 6111   1.309   6.626  10.095
 2593W        W 6112   2.167   8.931   2.633
 2594W        W 6113   4.343   1.135   0.993
 2595W        W 6114   1.304   2.916   8.984
 2596W        W 6115   7.083   6.512   3.057
 2597W        W 6116   5.475   6.115  11.184
 2598W        W 6117   8.454   6.003   3.298
 2599W        W 6118   7.550   3.421  10.935
 2600W        W 6119   7.077   2.541   0.823
 2601W        W 6120   3.643   2.123   2.350
 2602W        W 6121   5.659   3.620   9.445
 2603W        W 6122   4.310   3.675  10.109
 2604W        W 6123   0.781   7.893   0.524
 2605W        W 6124   6.648   2.139   2.296
 2606W        W 6125   6.540   7.899  11.024
 2607W        W 6126   9.839   4.188  10.301
 2608W        W 6127   9.785   1.124   9.504
 2609W        W 6128   9.430   2.218   0.793
 2610W        W 6129   5.206   9.230   0.817
 2611W        W 6130   1.147   0.178   9.366
 2612W        W 6131   1.170   4.765   1.451
 2613W        W 6132   9.904   8.288   9.506
 2614W        W 6133   9.928   2.630  11.312
 2615W        W 6134   3.875   5.134   2.988
 2616W        W 6135   7.069   5.945   8.063
 2617W        W 6136   9.396   7.909  11.522
 2618W        W 6137   4.681   6.209   3.646
 2619W        W 6138   4.577   2.064   1.384
 2620W        W 6139   7.584   1.744   0.504
 2621W        W 6140   3.006   5.712  11.742
 2622W        W 6141   2.131   7.905   9.143
 2623W        W 6142   6.872   1.441   3.902
 2624W        W 6143   2.552   2.831  11.742
 2625W        W 6144   3.180   3.324   1.216
 2626W        W 6145   1.813   5.849   3.862
 2627W        W 6146   1.596   4.822   9.467
 2628W        W 6147   9.907   1.478   0.455
 2629W        W 6148   1.352   9.788  10.039
 2630W        W 6149   1.320   5.801   9.568
 2631W        W 6150   9.573   3.915   8.994
 2632W        W 6151   0.974   8.510   2.758
 2633W        W 6152   7.875   5.177  10.144
 2634W        W 6153   8.192   6.110   8.342
 2635W        W 6154   7.089   6.552   9.800
 2636W        W 6155   7.522   7.122   3.228
 2637W        W 6156   0.506   7.031   3.704
 2638W        W 6157   9.747   0.639  10.317
 2639W        W 6158   2.617   7.437   1.937
 2640W        W 6159   1.729   6.141   0.189
 2641W        W 6160   2.632   5.517  11.466
 2642W        W 6161   3.177   9.466   9.033
 2643W        W 6162   1.985   5.957  10.888
 2644W        W 6163   9.017   8.370   9.530
 2645W        W 6164   3.034   7.782   0.474
 2646W        W 6165   1.299   8.822   9.534
 2647W        W 6166   9.383   3.970  11.273
 2648W        W 6167   0.272   9.392  10.112
 2649W        W 6168   1.772   3.963  10.730
 2650W        W 6169   0.229   6.607   9.422
 2651W        W 6170   7.647   0.835  10.318
 2652W        W 6171   7.765   5.116   2.022
 2653W        W 6172   5.592   1.129   3.074
 2654W        W 6173   9.918   0.709   9.228
 2655W        W 6174   3.308   2.218   3.011
 2656W        W 6175   7.472   1.681   3.396
 2657W        W 6176   2.720   0.073   2.695
 2658W        W 6177   7.784   5.318   3.329
 2659W        W 6178   8.096   8.076  11.472
 2660W        W 6179   5.346   6.171   1.281
 2661W        W 6180   4.036   7.046   3.296
 2662W        W 6181   0.361   7.699   1.419
 2663W        W 6182   5.065   3.160   3.680
 2664W        W 6183   7.497   3.166   0.737
 2665W        W 6184   2.226   7.395   1.057
 2666W        W 6185   6.743   9.319   9.549
 2667W        W 6186   1.431   1.468   2.602
 2668W        W 6187   3.555   7.821  11.681
 2669W        W 6188   9.880   9.670   3.548
 2670W        W 6189   5.644   8.830   8.802
 2671W        W 6190   4.942   6.470  10.129
 2672W        W 6191   0.542   0.185   1.850
 2673W        W 6192   2.101   8.722   0.053
 2674W        W 6193   9.749   4.970   9.653
 2675W        W 6194   9.883   7.346   9.856
 2676W        W 6195   5.658   2.656   9.031
 2677W        W 6196   7.467   1.628  10.669
 2678W        W 6197   9.253   7.503  10.900
 2679W        W 6198   7.588   5.786   9.347
 2680W        W 6199   7.732   6.537   2.408
 2681W        W 6200   0.843   6.136   1.924
 2682W        W 6201   1.676   1.958   1.057
 2683W        W 6202   2.350   7.557  10.517
 2684W        W 6203   1.022   5.392  10.178
 2685W        W 6204   6.982   7.794  10.306
 2686W        W 6205   0.957   1.776   8.511
 2687W        W 6206   5.900   1.052   0.843
 2688W        W 6207   6.567   9.813   1.805
 2689W        W 6208   2.660   9.808  11.366
 2690W        W 6209   0.924   9.990  10.241
 2691W        W 6210   6.129   6.687   0.908
 2692W        W 6211   9.400   4.394  11.574
 2693W        W 6212   8.091   3.918  10.567
 2694W        W 6213   7.954   3.675   2.824
 2695W        W 6214   0.589   3.756   2.601
 2696W        W 6215   9.320   9.730   9.943
 2697W        W 6216   0.293   1.180  11.706
 2698W        W 6217   6.732   7.014  10.647
 2699W        W 6218   8.949   4.233  10.111
 2700W        W 6219   3.127   2.392  10.574
 2701W        W 6220   4.216   0.648   0.004
 2702W        W 6221   4.368   4.009   2.840
 2703W        W 6222   0.012   9.344  10.547
 2704W        W 6223   2.126   8.562   2.167
 2705W        W 6224   0.534   3.067   9.979
 2706W        W 6225   0.607   4.963   1.562
 2707W        W 6226   5.323   5.269  10.093
 2708W        W 6227   1.171   6.534   3.567
 2709W        W 6228   1.061   5.169   1.709
 2710W        W 6229   3.310   0.295   2.903
 2711W        W 6230   8.866   6.919   1.619
 2712W        W 6231   4.484   9.516  11.781
 2713W        W 6232   0.725   5.332   2.972
 2714W        W 6233   9.653   1.726   0.817
 2715W        W 6234   7.161   7.268   2.503
 2716W        W 6235   8.303   1.919  10.272
 2717W        W 6236   6.097   2.809   2.645
 2718W        W 6237   5.493   9.072   3.060
 2719W        W 6238   6.496   9.442   0.520
 2720W        W 6239   5.675   1.421   1.101
 2721W        W 6240   0.616   2.826   1.195
 2722W        W 6241   2.444   7.018   9.209
 2723W        W 6242   5.472   9.310   8.806
 2724W        W 6243   3.896   1.263  11.821
 2725W        W 6244   7.714   7.139  11.346
 2726W        W 6245   7.275   1.154   9.447
 2727W        W 6246   6.451   5.609  10.555
 2728W        W 6247   6.260   0.799   8.813
 2729W        W 6248   2.804   0.960   3.317
 2730W        W 6249   3.036   8.076  12.000
 2731W        W 6250   2.820   7.445  10.717
 2732W        W 6251   1.120   2.761   1.250
 2733W        W 6252   8.922   4.937   1.387
 2734W        W 6253   2.603   5.978   8.848
 2735W        W 6254   4.072   7.502  10.231
 2736W        W 6255   1.164   8.325   1.884
 2737W        W 6256   6.906   8.496   1.371
 2738W        W 6257   9.572   7.809   8.618
 2739W        W 6258   0.868   0.254   2.279
 2740W        W 6259   6.718   7.258   1.659
 2741W        W 6260   1.062   8.868  10.999
 2742W        W 6261   3.734   0.617   9.275
 2743W        W 6262   5.669   4.467   1.933
 2744W        W 6263   0.081   0.859  11.265
 2745W        W 6264   1.966   3.374  10.920
 2746W        W 6265   0.167   7.749  11.004
 2747W        W 6266   4.482   5.022  10.273
 2748W        W 6267   5.467   9.686  10.520
 2749W        W 6268   9.785   5.438   9.467
 2750W        W 6269   4.701   2.053   8.546
 2751W        W 6270   5.097   0.766   1.432
 2752W        W 6271   3.149   5.586   9.206
 2753W        W 6272   0.622   6.563   0.912
 2754W        W 6273   3.656   1.634   9.162
 2755W        W 6274   9.155   0.364   3.402
 2756W        W 6275   0.768   1.200   0.287
 2757W        W 6276   6.103   5.013  10.666
 2758W        W 6277   0.400   1.443   2.446
 2759W        W 6278   5.516   0.689  10.590
 2760W        W 6279   9.970   6.428   2.926
 2761W        W 6280   9.198   5.556   1.892
 2762W        W 6281   2.821   8.480   0.213
 2763W        W 6282   9.023   6.572   0.207
 2764W        W 6283   0.852   4.126  10.768
 2765W        W 6284   4.951   0.402   0.356
 2766W        W 6285   3.508   5.103   0.802
 2767W        W 6286   4.954   6.920  11.007
 2768W        W 6287   0.242   5.934  10.441
 2769W        W 6288   8.783   2.991   1.723
 2770W        W 6289   7.661   4.274  11.789
 2771W        W 6290   3.085   2.532  11.086
 2772W        W 6291   9.823   7.995  11.832
 2773W        W 6292   6.571   6.501   9.006
 2774W        W 6293   6.140   4.185  10.417
 2775W        W 6294   0.736   8.182  10.484
 2776W        W 6295   2.067   5.549   1.972
 2777W        W 6296   1.510   8.875  10.429
 2778W        W 6297   2.214   7.713   0.060
 2779W        W 6298   9.042   8.759  11.997
 2780W        W 6299   0.880   3.837   3.453
 2781W        W 6300   9.789   7.849   3.504
 2782W        W 6301   1.787   4.214   1.517
 2783W        W 6302   8.355   0.821   0.901
 2784W        W 6303   3.951   5.985   2.588
 2785W        W 6304   4.376   6.027   1.788
 2786W        W 6305   4.550   0.815   8.801
 2787W        W 6306   3.657   5.869   0.981
 2788W        W 6307   0.365   1.356   0.646
 2789W        W 6308   7.552   6.559   1.099
 2790W        W 6309   2.676   6.163   1.136
 2791W        W 6310   0.191   8.964   2.875
 2792W        W 6311   0.569   5.714   8.895
 2793W        W 6312   8.772   1.271   9.666
 2794W        W 6313   2.638   0.197   0.711
 2795W        W 6314   6.720   7.566   1.230
 2796W        W 6315   2.700   6.658   1.297
 2797W        W 6316   6.235   8.754   1.580
 2798W        W 6317   1.780   2.809   1.718
 2799W        W 6318   4.737   2.938   9.442
 2800W        W 6319   0.627   7.537   9.215
 2801W        W 6320   3.404   3.852  10.613
 2802W        W 6321   4.252   5.833  11.397
 2803W        W 6322   6.071   9.365   9.839
 2804W        W 6323   6.218   4.621   1.289
 2805W        W 6324   8.213   5.033   3.269
 2806W        W 6325   7.856   4.381   2.705
 2807W        W 6326   9.295   0.165  11.893
 2808W        W 6327   1.323   5.993   1.086
 2809W        W 6328   4.839   6.172   1.955
 2810W        W 6329   8.878   2.746   0.759
 2811W        W 6330   5.109   6.922   0.835
 2812W        W 6331   8.561   6.959   8.700
 2813W        W 6332   9.918   8.507  10.519
 2814W        W 6333   9.023   6.819  11.340
 2815W        W 6334   6.255   1.964   1.595
 2816W        W 6335   8.140   0.708   1.800
 2817W        W 6336   8.269   0.155  10.457
 2818W        W 6337   8.217   9.265   0.340
 2819W        W 6338   5.768   0.448   2.577
 2820W        W 6339   6.525   6.702   0.572
 2821W        W 6340   4.521   1.873  10.828
 2822W        W 6341   4.499   6.101   0.805
 2823W        W 6342   0.746   4.824   2.943
 2824W        W 6343   2.412   8.852  10.540
 2825W        W 6344   9.790   6.141  10.555
 2826W        W 6345   9.806   4.936   1.365
 2827W        W 6346   9.625   2.770   2.693
 2828W        W 6347   6.863   4.572  10.568
 2829W        W 6348   2.138   2.093   8.620
 2830W        W 6349   1.225   7.702   8.544
 2831W        W 6350   2.198   2.324   9.092
 2832W        W 6351   5.773   6.880  10.354
 2833W        W 6352   9.480   0.543   2.558
 2834W        W 6353   4.141   4.606   9.596
 2835W        W 6354   3.827   1.325   3.450
 2836W        W 6355   2.279   4.871   0.014
 2837W        W 6356   3.706   6.409   2.730
 2838W        W 6357   1.540   4.137   0.434
 2839W        W 6358   2.136   2.689   2.990
 2840W        W 6359   2.348   3.422   3.672
 2841W        W 6360   1.415   8.988   0.752
 2842W        W 6361   2.759   9.298   8.725
 2843W        W 6362   3.360   8.168  11.267
 2844W        W 6363   6.401   9.233   1.569
 2845W        W 6364   2.800   5.952   3.613
 2846W        W 6365   3.789   2.234  11.732
 2847W        W 6366   7.572   2.408   0.766
 2848W        W 6367   5.625   4.484   2.437
 2849W        W 6368   8.536   1.643   9.393
 2850W        W 6369   8.912   2.392   9.204
 2851W        W 6370   8.906   1.372   9.171
 2852W        W 6371   2.238   9.690   1.669
 2853W        W 6372   9.260   1.339   0.775
 2854W        W 6373   5.467   7.360   2.767
 2855W        W 6374   6.586   4.280   2.598
 2856W        W 6375   2.132   0.032   9.602
 2857W        W 6376   2.583   8.014   0.246
 2858W        W 6377   6.441   3.402   2.686
 2859W        W 6378   5.697   5.716   0.446
 2860W        W 6379   3.163   9.508  10.524
 2861W        W 6380   4.710   4.087   8.668
 2862W        W 6381   2.400   4.085   2.343
 2863W        W 6382   0.879   4.534   0.548
 2864W        W 6383   6.401   8.826   2.605
 2865W        W 6384   8.831   8.834   9.436
 2866W        W 6385   0.627   5.605  11.846
 2867W        W 6386   4.088   6.131   8.651
 2868W        W 6387   8.109   7.492   9.211
 2869W        W 6388   6.939   3.392   9.025
 2870W        W 6389   2.879   1.811  11.987
 2871W        W 6390   5.958   6.916   1.330
 2872W        W 6391   6.908   4.102  11.340
 2873W        W 6392   5.383   6.946   8.986
 2874W        W 6393   2.742   9.302  11.190
 2875W        W 6394   5.059   0.546   1.967
 2876W        W 6395   3.765   0.561  11.351
 2877W        W 6396   1.784   8.286   2.423
 2878W        W 6397   7.251   7.656  10.760
 2879W        W 6398   0.859   1.021   1.783
 2880W        W 6399   2.012   4.475   9.532
 2881W        W 6400   3.699   1.053  11.391
 2882W        W 6401   9.561   1.907   2.900
 2883W        W 6402   8.085   1.747   2.657
 2884W        W 6403   0.853   3.450   2.935
 2885W        W 6404   6.868   1.914   8.828
 2886W        W 6405   6.591   1.660  11.868
 2887W        W 6406   2.904   8.728  10.482
 2888W        W 6407   0.667   8.044   9.332
 2889W        W 6408   7.161   4.401  11.894
 2890W        W 6409   8.952   1.446   0.071
 2891W        W 6410   7.566   0.755   0.296
 2892W        W 6411   8.646   7.611   2.774
 2893W        W 6412   5.627   7.855  10.907
 2894W        W 6413   7.915   7.724   3.563
 2895W        W 6414   9.347   5.422   8.689
 2896W        W 6415   9.219   1.196   8.813
 2897W        W 6416   8.955   8.806   2.403
 2898W        W 6417   8.260   9.665  10.212
 2899W        W 6418   8.460   3.171   1.376
 2900W        W 6419   8.609   3.010   3.570
 2901W        W 6420   6.247   6.276   3.443
 2902W        W 6421   1.398   3.139   9.778
 2903W        W 6422   3.939   6.568   3.146
 2904W        W 6423   0.924   3.729   1.579
 2905W        W 6424   1.196   7.910   9.231
 2906W        W 6425   6.930   7.086   1.223
 2907W        W 6426   9.955   5.514   0.528
 2908W        W 6427   6.057   0.918   2.283
 2909W        W 6428   5.285   6.415   2.849
 2910W        W 6429   6.960   9.128   0.958
 2911W        W 6430   5.440   9.354   1.653
 2912W        W 6431   3.801   4.179   8.578
 2913W        W 6432   1.738   0.999   9.173
 2914W        W 6433   6.206   7.500   1.303
 2915W        W 6434   7.068   5.294   9.351
 2916W        W 6435   6.986   1.436  10.813
 2917W        W 6436   9.824   9.899   2.523
 2918W        W 6437   3.960   5.815   1.465
 2919W        W 6438   6.153   3.608  10.911
 2920W        W 6439   1.309   5.922  11.475
 2921W        W 6440   6.489   5.446  11.934
 2922W        W 6441   7.756   8.487  10.291
 2923W        W 6442   3.740   2.350   0.236
 2924W        W 6443   4.882   0.562   3.523
 2925W        W 6444   9.937   6.238   2.442
 2926W        W 6445   3.162   2.222   2.513
 2927W        W 6446   0.282   0.082  10.877
 2928W        W 6447   1.141   2.807   2.610
 2929W        W 6448   0.203   6.914   1.752
 2930W        W 6449   8.571   8.432  11.039
 2931W        W 6450   8.662   4.414   2.673
 2932W        W 6451   9.289   6.065  10.515
 2933W        W 6452   9.813   0.238   9.394
 2934W        W 6453   3.576   3.483   9.396
 2935W        W 6454   8.063   7.228   0.917
 2936W        W 6455   5.565   3.398  11.532
 2937W        W 6456   0.855   5.263   9.688
 2938W        W 6457   4.611   0.026  10.084
 2939W        W 6458   5.631   5.478   9.355
 2940W        W 6459   6.231   6.162   8.300
 2941W        W 6460   6.688   6.455   2.742
 2942W        W 6461   8.568   2.176  11.267
 2943W        W 6462   0.994   0.509   1.864
 2944W        W 6463   0.235   1.270   9.680
 2945W        W 6464   3.123   3.508   2.517
 2946W        W 6465   6.243   6.700   8.189
 2947W        W 6466   3.539   7.649   2.122
 2948W        W 6467   9.403   8.501   0.745
 2949W        W 6468   5.226   4.731   8.757
 2950W        W 6469   8.964   8.936   3.252
 2951W        W 6470   7.999   1.934   0.244
 2952W        W 6471   1.496   5.572  10.025
 2953W        W 6472   6.474   8.131   0.045
 2954W        W 6473   0.913   0.636   0.764
 2955W        W 6474   5.777   9.259   3.484
 2956W        W 6475   6.095   5.720   9.059
 2957W        W 6476   1.829   0.909   9.680
 2958W        W 6477   0.370   6.145   9.687
 2959W        W 6478   5.708   1.234   2.087
 2960W        W 6479   5.411   2.253  10.880
 2961W        W 6480   1.373   2.436   0.900
 2962W        W 6481   5.276   8.992  12.000
 2963W        W 6482   2.698   0.240   2.188
 2964W        W 6483   1.667   5.656   2.276
 2965W        W 6484   9.005   6.468   2.114
 2966W        W 6485   7.033   3.024   0.966
 2967W        W 6486   7.063   9.546  11.189
 2968W        W 6487   6.495   0.224  11.285
 2969W        W 6488   3.746   1.425   0.296
 2970W        W 6489   3.788   5.623   3.245
 2971W        W 6490   8.995   8.625  11.484
 2972W        W 6491   4.454   3.053  11.161
 2973W        W 6492   8.134   5.934   2.919
 2974W        W 6493   0.739   1.162   9.618
 2975W        W 6494   6.986   6.865   2.218
 2976W        W 6495   0.538   9.280   2.077
 2977W        W 6496   2.147   2.039  11.391
 2978W        W 6497   2.636   2.432  11.398
 2979W        W 6498   7.098   4.201  10.838
 2980W        W 6499   7.829   7.109  11.871
 2981W        W 6500   5.993   4.060  11.507
 2982W        W 6501   8.724   1.781   8.913
 2983W        W 6502   1.707   1.828   2.829
 2984W        W 6503   0.238   1.146   0.209
 2985W        W 6504   7.430   3.480   3.509
 2986W        W 6505   1.490   1.237  10.483
 2987W        W 6506   6.666   3.808   8.346
 2988W        W 6507   6.060   8.755   1.074
 2989W        W 6508   8.429   7.681  11.518
 2990W        W 6509   0.252   4.673   1.299
 2991W        W 6510   9.058   1.622   3.558
 2992W        W 6511   4.200   1.142   8.566
 2993W        W 6512   0.464   9.358   2.643
 2994W        W 6513   5.781   1.837   1.812
 2995W        W 6514   7.199   9.461   9.319
 2996W        W 6515   9.773   9.392  10.050
 2997W        W 6516   1.356   5.408  11.184
 2998W        W 6517   2.338   7.175  10.876
 2999W        W 6518   9.667   6.498   0.685
 3000W        W 6519   5.638   9.838   2.806
 3001W        W 6520   4.891   4.324  10.009
 3002W        W 6521   8.390   9.539   9.717
 3003W        W 6522   0.774   3.303   1.921
 3004W        W 6523   0.336   4.827   2.188
 3005W        W 6524   6.602   6.006  11.499
 3006W        W 6525   2.279   7.215   0.083
 3007W        W 6526   3.977   7.678  11.305
 3008W        W 6527   6.044   1.697  11.653
 3009W        W 6528   7.631   6.575  10.382
 3010W        W 6529   7.574   4.221   1.601
 3011W        W 6530   3.310   2.005   9.091
 3012W        W 6531   2.289   5.303   9.523
 3013W        W 6532   9.986   6.252  11.389
 3014W        W 6533   2.152   8.223   0.017
 3015W        W 6534   0.325   9.862   2.642
 3016W        W 6535   9.688   7.369   2.975
 3017W        W 6536   2.541   3.003   8.748
 3018W        W 6537   8.577   6.434   8.705
 3019W        W 6538   9.951   4.849   2.815
 3020W        W 6539   1.286   2.453   0.367
 3021W        W 6540   1.808   4.986   0.220
 3022W        W 6541   3.903   8.037   1.998
 3023W        W 6542   3.224   1.494  10.838
 3024W        W 6543   1.083   4.994   9.279
 3025W        W 6544   7.576   6.722  11.606
 3026W        W 6545   7.378   3.251   9.302
 3027W        W 6546   0.874   5.302   8.900
 3028W        W 6547   2.595   3.684   9.298
 3029W        W 6548   7.277   3.949  11.693
 3030W        W 6549   9.616   1.902   1.852
 3031W        W 6550   0.578   7.157   3.222
 3032W        W 6551   3.069   5.284   0.012
 3033W        W 6552   5.441   7.459   0.905
 3034W        W 6553   4.207   1.819   3.022
 3035W        W 6554   7.453   7.369   1.692
 3036W        W 6555   5.765   2.134   2.262
 3037W        W 6556   1.969   5.278   0.702
 3038W        W 6557   5.803   1.037   9.023
 3039W        W 6558   2.515   1.958   3.389
 3040W        W 6559   5.571   2.758   1.332
 3041W        W 6560   2.281   0.554   2.207
 3042W        W 6561   2.664   7.403   8.921
 3043W        W 6562   4.530   9.948   1.066
 3044W        W 6563   5.156   5.049   2.813
 3045W        W 6564   7.453   5.305   2.937
 3046W        W 6565   2.740   7.818  10.249
 3047W        W 6566   6.276   0.272   8.721
 3048W        W 6567   9.166   9.726   8.506
 3049W        W 6568   0.009   1.718  11.197
 3050W        W 6569   9.946   8.847   3.386
 3051W        W 6570   6.998   4.712   3.097
 3052W        W 6571   5.575   7.876  11.939
 3053W        W 6572   7.731   8.750   9.531
 3054W        W 6573   3.535   9.302   1.965
 3055W        W 6574   8.667   4.973  10.876
 3056W        W 6575   8.757   9.486  10.109
 3057W        W 6576   8.482   4.141  10.281
 3058W        W 6577   0.335   4.619   9.186
 3059W        W 6578   9.078   9.311   0.456
 3060W        W 6579   8.833   5.109   9.884
 3061W        W 6580   1.929   0.387  11.457
 3062W        W 6581   7.536   9.098   9.229
 3063W        W 6582   7.219   0.361  11.349
 3064W        W 6583   2.149   9.937  11.504
 3065W        W 6584   4.610   6.922   0.681
 3066W        W 6585   2.800   6.003  10.284
 3067W        W 6586   6.855   1.746   3.211
 3068W        W 6587   5.277   7.012  10.533
 3069W        W 6588   8.172   9.302   2.314
 3070W        W 6589   0.502   0.042   3.475
 3071W        W 6590   8.364   7.531   1.772
 3072W        W 6591   9.013   9.836  11.435
 3073W        W 6592   4.346   8.291   1.124
 3074W        W 6593   9.157   1.825   2.566
 3075W        W 6594   1.406   7.639  11.481
 3076W        W 6595   8.384   1.151   3.348
 3077W        W 6596   3.246   0.191   3.382
 3078W        W 6597   8.403   9.379   2.764
 3079W        W 6598   7.453   7.935   1.958
 3080W        W 6599   8.180   2.687  10.546
 3081W        W 6600   6.917   1.578  11.457
 3082W        W 6601   2.285   9.876   2.924
 3083W        W 6602   9.344   7.748   9.079
 3084W        W 6603   9.877   3.278   9.400
 3085W        W 6604   8.003   5.492   9.430
 3086W        W 6605   7.920   4.319   1.979
 3087W        W 6606   6.128   2.320   9.476
 3088W        W 6607   9.501   2.276  11.738
 3089W        W 6608   0.944   9.227   0.669
 3090W        W 6609   2.118   2.261   3.405
 3091W        W 6610   2.507   6.337   0.008
 3092W        W 6611   5.542   6.568   9.561
 3093W        W 6612   7.633   0.293  11.603
 3094W        W 6613   8.239   0.211   9.182
 3095W        W 6614   4.259   3.257   8.259
 3096W        W 6615   5.370   9.820   8.785
 3097W        W 6616   0.284   9.127  11.330
 3098W        W 6617   6.364   1.972   1.084
 3099W        W 6618   1.402   4.362   9.228
 3100W        W 6619   2.273   0.335   1.444
 3101W        W 6620   7.079   5.047   8.362
 3102W        W 6621   4.051   9.413  10.509
 3103W        W 6622   3.785   6.053   8.253
 3104W        W 6623   1.367   9.024  11.387
 3105W        W 6624   5.978   1.040   9.890
 3106W        W 6625   1.848   7.853   1.984
 3107W        W 6626   0.176   6.777  11.320
 3108W        W 6627   4.234   6.992  10.183
 3109W        W 6628   7.040   5.204   3.266
 3110W        W 6629   7.129   6.082   1.423
 3111W        W 6630   1.780   8.494  10.698
 3112W        W 6631   7.436   9.411   9.770
 3113W        W 6632   6.107   4.255   1.665
 3114W        W 6633   4.304   9.404   2.328
 3115W        W 6634   7.163   5.904  10.567
 3116W        W 6635   3.378   6.365   1.809
 3117W        W 6636   3.965   2.513   2.294
 3118W        W 6637   0.322   8.155   8.915
 3119W        W 6638   0.740   6.699  10.388
 3120W        W 6639   1.241   4.625   3.514
 3121W        W 6640   0.818   9.973  10.735
 3122W        W 6641   1.054   7.777   1.336
 3123W        W 6642   7.805   0.705  11.857
 3124W        W 6643   9.510   8.964   9.892
 3125W        W 6644   3.300   8.956  11.744
 3126W        W 6645   3.155   2.793  10.181
 3127W        W 6646   9.449   4.532  10.391
 3128W        W 6647   5.225   2.040  10.398
 3129W        W 6648   9.066   5.032   8.905
 3130W        W 6649   4.025   9.842   2.313
 3131W        W 6650   5.712   7.414   1.395
 3132W        W 6651   0.520   5.661   2.148
 3133W        W 6652   4.670   7.895  11.835
 3134W        W 6653   5.080   1.170   9.830
 3135W        W 6654   4.060   9.440  11.531
 3136W        W 6655   7.415   5.177   2.401
 3137W        W 6656   4.619   2.829  10.487
 3138W        W 6657   2.453   6.579   3.148
 3139W        W 6658   0.230   9.765   1.775
 3140W        W 6659   7.787   7.843   2.715
 3141W        W 6660   1.425   2.164  10.070
 3142W        W 6661   8.562   8.572  11.803
 3143W        W 6662   3.536   4.533   0.472
 3144W        W 6663   1.826   6.746   3.186
 3145W        W 6664   8.249   7.978   2.590
 3146W        W 6665   9.209   6.039  11.891
 3147W        W 6666   9.289   0.980   2.873
 3148W        W 6667   0.352   7.798  10.533
 3149W        W 6668   1.904   2.404   0.965
 3150W        W 6669   3.572   2.577  10.349
 3151W        W 6670   6.216   2.689   0.663
 3152W        W 6671   7.593   5.329   9.130
 3153W        W 6672   9.887   7.108   0.050
 3154W        W 6673   7.936   1.635   1.813
 3155W        W 6674   2.931   8.627   9.879
 3156W        W 6675   4.983   1.367  11.357
 3157W        W 6676   4.639   6.514   1.513
 3158W        W 6677   5.647   6.812   0.716
 3159W        W 6678   5.871   0.310   9.437
 3160W        W 6679   2.251   7.927  10.182
 3161W        W 6680   0.032   4.220  10.776
 3162W        W 6681   9.875   3.446   0.285
 3163W        W 6682   8.034   5.752  10.441
 3164W        W 6683   4.692   6.315   9.428
 3165W        W 6684   8.562   0.578  11.219
 3166W        W 6685   8.953   5.735   0.799
 3167W        W 6686   6.102   6.601   9.140
 3168W        W 6687   1.299   3.092  11.678
 3169W        W 6688   4.272   5.548   1.905
 3170W        W 6689   4.119   1.328  11.240
 3171W        W 6690   9.219   4.602   0.481
 3172W        W 6691   4.820   0.930   2.183
 3173W        W 6692   6.893   2.317  10.818
 3174W        W 6693   4.870   1.587   1.365
 3175W        W 6694   5.271   0.231   0.733
 3176W        W 6695   2.153   4.968   3.660
 3177W        W 6696   3.330   6.580  11.743
 3178W        W 6697   4.614   1.767   2.696
 3179W        W 6698   3.594   1.110   9.087
 3180W        W 6699   3.550   4.586   8.161
 3181W        W 6700   2.781   3.767  11.142
 3182W        W 6701   2.656   4.342   9.824
 3183W        W 6702   1.323   2.647  11.365
 3184W        W 6703   3.264   0.797   9.378
 3185W        W 6704   6.195   5.434   4.191
 3186W        W 6705   0.844   6.977   0.374
 3187W        W 6706   1.590   3.040  10.819
 3188W        W 6707   9.219   8.360   0.270
 3189W        W 6708   6.904   5.114   2.261
 3190W        W 6709   5.430   7.115  11.030
 3191W        W 6710   6.008   9.541  11.285
 3192W        W 6711   8.157   2.627   2.455
 3193W        W 6712   5.244   9.976   0.287
 3194W        W 6713   6.943   9.837   2.176
 3195W        W 6714   5.200   5.103  10.902
 3196W        W 6715   3.830   8.866   3.136
 3197W        W 6716   9.377   3.439  11.124
 3198W        W 6717   4.487   7.052   2.255
 3199W        W 6718   0.409   6.435   1.716
 3200W        W 6719   5.640   4.462   3.364
 3201W        W 6720   0.819   1.056   9.109
 3202W        W 6721   5.104   1.433   3.151
 3203W        W 6722   6.593   9.235  11.345
 3204W        W 6723   1.787   4.269  11.529
 3205W        W 6724   8.308   7.074   0.027
 3206W        W 6725   4.506   6.436   9.876
 3207W        W 6726   6.643   3.866   9.704
 3208W        W 6727   8.634   1.095  10.315
 3209W        W 6728   3.380   2.578  11.935
 3210W        W 6729   0.423   9.672  10.556
 3211W        W 6730   1.384   5.967   3.039
 3212W        W 6731   7.335   4.407   9.255
 3213W        W 6732   5.209   1.522  10.413
 3214W        W 6733   3.638   4.957   9.161
 3215W        W 6734   8.590   4.309  11.823
 3216W        W 6735   4.340   4.278   1.453
 3217W        W 6736   9.530   1.853   3.402
 3218W        W 6737   3.076   3.803  10.219
 3219W        W 6738   6.401   6.268  11.084
 3220W        W 6739   5.284   7.780   3.521
 3221W        W 6740   0.432   4.373  10.516
 3222W        W 6741   1.377   0.279   1.574
 3223W        W 6742   1.238   2.413   2.288
 3224W        W 6743   9.966   1.707   9.866
 3225W        W 6744   1.767   7.497   9.779
 3226W        W 6745   2.368   3.292   2.790
 3227W        W 6746   5.216   3.518   3.158
 3228W        W 6747   0.524   2.154  10.064
 3229W        W 6748   1.609   0.996   2.656
 3230W        W 6749   7.542   4.777  11.878
 3231W        W 6750   6.545   7.660   0.336
 3232W        W 6751   6.576   4.736   3.401
 3233W        W 6752   6.813   9.321   3.099
 3234W        W 6753   2.073   9.179   3.066
 3235W        W 6754   0.427   6.381  11.154
 3236W        W 6755   4.231   3.100   3.094
 3237W        W 6756   2.241   5.601  11.141
 3238W        W 6757   5.687   3.599   2.213
 3239W        W 6758   8.990   1.028   0.393
 3240W        W 6759   3.182   7.087  10.551
 3241W        W 6760   4.298   4.634  11.868
 3242W        W 6761   0.685   8.288   0.831
 3243W        W 6762   0.865   7.655  10.498
 3244W        W 6763   0.861   1.541   2.669
 3245W        W 6764   4.347   2.447   8.670
 3246W        W 6765   0.092   0.685   1.417
 3247W        W 6766   0.364   1.846   0.434
 3248W        W 6767   0.179   5.713   3.348
 3249W        W 6768   4.735   1.258   3.490
 3250W        W 6769   9.516   6.643   1.150
 3251W        W 6770   6.939   0.186   1.782
 3252W        W 6771   4.148   1.597   2.564
 3253W        W 6772   5.024   5.896  11.115
 3254W        W 6773   6.662   8.234   9.008
 3255W        W 6774   8.071   9.113   1.851
 3256W        W 6775   4.319   6.264   9.070
 3257W        W 6776   7.097   1.641   9.217
 3258W        W 6777   8.929   4.003  11.053
 3259W        W 6778   2.922   6.584   3.378
 3260W        W 6779   6.065   4.387   9.095
 3261W        W 6780   1.632   3.563   9.625
 3262W        W 6781   9.821   9.519  11.977
 3263W        W 6782   6.887   7.708   0.742
 3264W        W 6783   9.811   6.898   2.872
 3265W        W 6784   2.013   0.847  10.705
 3266W        W 6785   4.142   2.011   2.259
 3267W        W 6786   6.899   7.797   8.810
 3268W        W 6787   9.284   0.680   9.021
 3269W        W 6788   0.635   4.725   9.616
 3270W        W 6789   6.554   5.911   3.673
 3271W        W 6790   8.615   5.774   2.851
 3272W        W 6791   8.517   1.253   2.419
 3273W        W 6792   9.289   2.680   1.067
 3274W        W 6793   5.943   6.174   0.878
 3275W        W 6794   1.965   1.699   1.404
 3276W        W 6795   7.897   9.742   2.336
 3277W        W 6796   7.008   6.993   0.349
 3278W        W 6797   9.347   0.086   2.322
 3279W        W 6798   0.464   0.348   0.507
 3280W        W 6799   3.715   0.736  10.313
 3281W        W 6800   2.407   0.694   3.523
 3282W        W 6801   8.730   4.109   8.509
 3283W        W 6802   6.472   4.591   1.750
 3284W        W 6803   2.432   5.515   8.500
 3285W        W 6804   7.601   2.251   0.260
 3286W        W 6805   0.727   3.992  10.292
 3287W        W 6806   3.696   1.557  11.393
 3288W        W 6807   4.964   7.161   8.661
 3289W        W 6808   1.325   6.306   8.705
 3290W        W 6809   9.563   5.007   0.579
 3291W        W 6810   4.634   2.713  11.900
 3292W        W 6811   8.066   6.513   9.547
 3293W        W 6812   1.825   3.210   1.393
 3294W        W 6813   7.671   9.858  11.874
 3295W        W 6814   7.041   4.870   0.039
 3296W        W 6815   7.565   8.424  11.792
 3297W        W 6816   9.950   0.942   0.570
 3298W        W 6817   6.314   5.346  11.427
 3299W        W 6818   5.156   4.583   9.244
 3300W        W 6819   4.112   4.042   3.326
 3301W        W 6820   4.474   3.182   1.705
 3302W        W 6821   9.956   9.440   2.720
 3303W        W 6822   7.069   8.184   1.738
 3304W        W 6823   7.709   3.081   9.679
 3305W        W 6824   0.827   9.746  11.993
 3306W        W 6825   3.461   3.865   2.549
 3307W        W 6826   5.467   7.870   9.065
 3308W        W 6827   5.891   9.632   1.701
 3309W        W 6828   3.952   2.709   0.562
 3310W        W 6829   5.084   3.335  10.581
 3311W        W 6830   6.558   7.086   4.290
 3312W        W 6831   8.088   8.622   1.822
 3313W        W 6832   3.916   0.289  11.811
 3314W        W 6833   0.336   0.421  11.240
 3315W        W 6834   7.938   1.364   1.262
 3316W        W 6835   0.175   1.729   0.945
 3317W        W 6836   3.507   8.865   3.564
 3318W        W 6837   3.857   6.247   3.889
 3319W        W 6838   6.330   0.162   9.618
 3320W        W 6839   8.062   6.421   0.333
 3321W        W 6840   6.396   4.855   9.055
 3322W        W 6841   0.788   4.864   2.424
 3323W        W 6842   2.948   2.298   3.381
 3324W        W 6843   5.449   1.483   9.679
 3325W        W 6844   6.684   5.531   4.031
 3326W        W 6845   8.433   7.999   3.057
 3327W        W 6846   9.931   9.952  11.250
 3328W        W 6847   2.190   1.067   2.155
 3329W        W 6848   2.419   6.934   9.979
 3330W        W 6849   8.937   3.472   2.908
 3331W        W 6850   7.484   3.744   1.431
 3332W        W 6851   1.075   6.638   1.839
 3333W        W 6852   6.024   2.733   9.780
 3334W        W 6853   8.831   1.495   0.573
 3335W        W 6854   9.081   9.648   2.233
 3336W        W 6855   4.719   7.055  10.499
 3337W        W 6856   3.893   5.879  11.759
 3338W        W 6857   6.106   3.190  10.539
 3339W        W 6858   9.812   8.793   9.481
 3340W        W 6859   9.254   0.873  10.899
 3341W        W 6860   5.567   8.357  11.779
 3342W        W 6861   0.649   8.677  10.694
 3343W        W 6862   7.409   9.135   0.505
 3344W        W 6863   1.158   5.080   1.003
 3345W        W 6864   4.639   1.778   9.000
 3346W        W 6865   2.062   2.640   8.679
 3347W        W 6866   5.626   5.218   0.373
 3348W        W 6867   1.217   6.257   0.091
 3349W        W 6868   5.597   9.381   9.678
 3350W        W 6869   1.758   0.871  10.239
 3351W        W 6870   6.520   2.129   0.063
 3352W        W 6871   2.280   9.927  11.000
 3353W        W 6872   5.798   9.077   0.017
 3354W        W 6873   0.224   1.659   3.910
 3355W        W 6874   3.782   3.751  11.858
 3356W        W 6875   2.190   6.054   2.008
 3357W        W 6876   8.120   7.111   8.876
 3358W        W 6877   4.895   4.041   0.462
 3359W        W 6878   5.181   6.821   0.339
 3360W        W 6879   7.951   5.471   1.364
 3361W        W 6880   6.052   5.625   0.822
 3362W        W 6881   1.016   4.121   9.538
 3363W        W 6882   3.403   0.356   9.575
 3364W        W 6883   6.302   8.651  11.407
 3365W        W 6884   8.432   2.642   9.225
 3366W        W 6885   9.575   0.242   8.938
 3367W        W 6886   7.707   5.091   1.023
 3368W        W 6887   7.976   7.603  11.243
 3369W        W 6888   3.500   6.050   1.430
 3370W        W 6889   0.756   1.709   8.963
 3371W        W 6890   6.847   7.515  11.227
 3372W        W 6891   0.850   9.725   0.914
 3373W        W 6892   4.051   3.058   0.916
 3374W        W 6893   7.828   8.237   9.846
 3375W        W 6894   1.886   7.139  11.751
 3376W        W 6895   0.171   7.852   9.310
 3377W        W 6896   5.366   4.278   9.809
 3378W        W 6897   7.508   5.727   3.555
 3379W        W 6898   8.276   4.183   0.603
 3380W        W 6899   0.961   2.312  11.543
 3381W        W 6900   4.825   6.473   0.673
 3382W        W 6901   4.708   0.858   2.679
 3383W        W 6902   6.339   7.574   9.892
 3384W        W 6903   3.684   0.486   1.693
 3385W        W 6904   9.764   6.744   2.387
 3386W        W 6905   4.740   0.341  11.385
 3387W        W 6906   7.401   8.301  10.947
 3388W        W 6907   3.764   0.048  11.382
 3389W        W 6908   0.526   3.700   1.233
 3390W        W 6909   3.204   5.939   0.542
 3391W        W 6910   7.944   8.161   1.773
 3392W        W 6911   3.936   5.874   9.550
 3393W        W 6912   9.223   5.481   3.218
 3394W        W 6913   8.553   7.445   0.832
 3395W        W 6914   9.646   5.280   0.162
 3396W        W 6915   8.119   0.644  10.288
 3397W        W 6916   2.780   4.393   8.502
 3398W        W 6917   0.472   0.848   0.571
 3399W        W 6918   7.176   6.567   3.563
 3400W        W 6919   9.568   3.364  11.872
 3401W        W 6920   9.222   8.182  10.082
 3402W        W 6921   3.053   4.364   0.368
 3403W        W 6922   4.759   6.706   3.627
 3404W        W 6923   3.655   0.733  10.826
 3405W        W 6924   9.692   1.790   1.320
 3406W        W 6925   9.831   0.251   1.202
 3407W        W 6926   2.646   0.720  11.866
 3408W        W 6927   5.197   6.343   3.714
 3409W        W 6928   8.968   9.866   9.573
 3410W        W 6929   5.713   0.130   1.836
 3411W        W 6930   4.975   9.398  11.913
 3412W        W 6931   0.334   7.979  11.759
 3413W        W 6932   7.790   6.743   9.010
 3414W        W 6933   4.533   7.913  10.889
 3415W        W 6934   8.681   0.316   3.212
 3416W        W 6935   3.071   3.374  11.455
 3417W        W 6936   2.232   6.021   0.912
 3418W        W 6937   9.043   0.764  10.419
 3419W        W 6938   8.384   9.345  11.865
 3420W        W 6939   5.221   1.926   8.508
 3421W        W 6940   0.786   8.072  11.505
 3422W        W 6941   7.932   3.413   1.328
 3423W        W 6942   2.233   4.345   2.791
 3424W        W 6943   8.028   4.676   9.912
 3425W        W 6944   3.764   8.886   0.732
 3426W        W 6945   0.442   4.231  11.081
 3427W        W 6946   4.993   2.070  11.754
 3428W        W 6947   4.935   9.964   2.140
 3429W        W 6948   4.315   8.997   3.261
 3430W        W 6949   0.281   8.779  10.298
 3431W        W 6950   2.571   4.759   2.858
 3432W        W 6951   3.125   2.157   9.546
 3433W        W 6952   6.313   3.008  10.103
 3434W        W 6953   1.423   2.073   3.262
 3435W        W 6954   2.482   2.631   9.535
 3436W        W 6955   6.616   1.769   1.899
 3437W        W 6956   2.832   5.972   0.163
 3438W        W 6957   7.392   2.682   9.574
 3439W        W 6958   3.584   4.508   8.894
 3440W        W 6959   8.490   2.620  10.964
 3441W        W 6960   0.330   5.937   0.755
 3442W        W 6961   1.251   8.056  11.767
 3443W        W 6962   9.274   3.782  10.764
 3444W        W 6963   9.600   1.746  10.904
 3445W        W 6964   1.452   3.044  10.308
 3446W        W 6965   7.233   5.044   8.876
 3447W        W 6966   1.354   9.360  10.333
 3448W        W 6967   6.375   0.974  10.616
 3449W        W 6968   3.124   9.011   9.292
 3450W        W 6969   6.320   1.766   8.699
 3451W        W 6970   3.743   8.575  10.081
 3452W        W 6971   3.768   7.915   2.491
 3453W        W 6972   1.813   1.795   9.566
 3454W        W 6973   8.086   3.066   1.731
 3455W        W 6974   6.028   1.863  10.760
 3456W        W 6975   5.954   3.380  10.023
 3457W        W 6976   5.999   9.525   9.111
 3458W        W 6977   5.998   4.139   1.166
 3459W        W 6978   9.540   5.351  10.011
 3460W        W 6979   6.377   0.171   1.123
 3461W        W 6980   0.472   9.311   0.318
 3462W        W 6981   7.963   3.225   9.249
 3463W        W 6982   1.636   2.687   2.603
 3464W        W 6983   6.905   2.417   9.270
 3465W        W 6984   3.093   9.959   9.238
 3466W        W 6985   3.479   9.426   3.587
 3467W        W 6986   5.236   6.910   2.813
 3468W        W 6987   1.850   3.805  11.747
 3469W        W 6988   8.195   1.439  10.983
 3470W        W 6989   5.139   3.516   8.189
 3471W        W 6990   0.975   2.899   3.611
 3472W        W 6991   8.717   9.316   1.422
 3473W        W 6992   5.303   4.612  11.182
 3474W        W 6993   4.880   7.729   9.867
 3475W        W 6994   7.949   2.241  10.445
 3476W        W 6995   6.001   4.768   1.721
 3477W        W 6996   1.540   4.260   9.716
 3478W        W 6997   6.200   6.370   2.913
 3479W        W 6998   5.478   3.542  10.304
 3480W        W 6999   5.307   2.939   8.782
 3481W        W 7000   7.619   8.441   2.142
 3482W        W 7001   3.650   3.478   8.897
 3483W        W 7002   3.288   4.721   3.368
 3484W        W 7003   4.622   3.584   2.912
 3485W        W 7004   3.478   7.900   0.181
 3486W        W 7005   6.937   4.650   2.609
 3487W        W 7006   2.214   4.634   3.227
 3488W        W 7007   8.467   3.386   1.862
 3489W        W 7008   4.199   7.525   0.267
 3490W        W 7009   0.303   5.430  10.470
 3491W        W 7010   2.333   0.162  10.047
 3492W        W 7011   1.318   2.361   9.076
 3493W        W 7012   7.364   6.140   3.265
 3494W        W 7013   2.718   7.023   0.268
 3495W        W 7014   3.818   5.262   3.682
 3496W        W 7015   2.758   6.900  10.786
 3497W        W 7016   1.739   8.962  11.737
 3498W        W 7017   4.094   8.556  11.663
 3499W        W 7018   5.498   2.899  11.660
 3500W        W 7019   5.467   0.453   0.288
 3501W        W 7020   0.369   4.175   1.321
 3502W        W 7021   9.720   6.101   8.280
 3503W        W 7022   4.489   7.069   8.828
 3504W        W 7023   8.898   9.483  11.900
 3505W        W 7024   6.088   5.123   0.942
 3506W        W 7025   8.975   2.648   2.926
 3507W        W 7026   2.829   3.285   1.578
 3508W        W 7027   5.767   7.121   1.920
 3509W        W 7028   5.193   7.715   3.021
 3510W        W 7029   4.141   7.426   9.728
 3511W        W 7030   3.513   6.836  11.284
 3512W        W 7031   0.879   2.771   0.311
 3513W        W 7032   1.376   1.841   9.273
 3514W        W 7033   4.198   5.590   2.903
 3515W        W 7034   9.380   7.216   9.196
 3516W        W 7035   5.205   0.059   3.175
 3517W        W 7036   6.603   6.764   1.552
 3518W        W 7037   2.136   4.776  10.310
 3519W        W 7038   3.416   0.319  11.656
 3520W        W 7039   3.500   9.439   0.776
 3521W        W 7040   5.528   1.946  11.809
 3522W        W 7041   8.496   6.870  11.097
 3523W        W 7042   8.790   0.066   2.591
 3524W        W 7043   7.312   0.119   1.437
 3525W        W 7044   2.024   8.340   9.377
 3526W        W 7045   1.959   1.390   2.681
 3527W        W 7046   4.441   7.007  10.933
 3528W        W 7047   5.167   1.401   0.459
 3529W        W 7048   9.923   8.442  11.025
 3530W        W 7049   9.962   0.371   2.715
 3531W        W 7050   6.218   6.515  11.960
 3532W        W 7051   2.887   7.749   1.050
 3533W        W 7052   5.619   0.689   2.145
 3534W        W 7053   0.310   6.111   9.154
 3535W        W 7054   1.784   9.492   1.432
 3536W        W 7055   5.133   6.957   8.228
 3537W        W 7056   9.481   8.440   9.244
 3538W        W 7057   6.670   4.442  11.054
 3539W        W 7058   1.008   0.751  11.718
 3540W        W 7059   7.146   6.512   0.381
 3541W        W 7060   8.933   3.596  11.973
 3542W        W 7061   2.366   1.182   9.864
 3543W        W 7062   1.265   8.225   1.399
 3544W        W 7063   9.369   8.603   1.786
 3545W        W 7064   5.538   3.848   8.363
 3546W        W 7065   9.920   0.211  10.517
 3547W        W 7066   8.246   4.731   2.656
 3548W        W 7067   8.953   8.232   0.673
 3549W        W 7068   6.114   0.699   0.517
 3550W        W 7069   5.469   5.007   9.173
 3551W        W 7070   5.906   6.974   8.789
 3552W        W 7071   0.613   7.855  10.093
 3553W        W 7072   6.657   5.567   3.325
 3554W        W 7073   0.355   3.960   0.790
 3555W        W 7074   2.192   1.661  11.757
 3556W        W 7075   5.119   1.583  11.830
 3557W        W 7076   7.976   6.834   3.075
 3558W        W 7077   0.956   1.482   9.945
 3559W        W 7078   0.655   9.800   1.498
 3560W        W 7079   4.361   9.194   9.530
 3561W        W 7080   7.819   3.216  11.316
 3562W        W 7081   6.922   3.764  10.593
 3563W        W 7082   6.943   8.500   0.273
 3564W        W 7083   6.903   1.050   9.909
 3565W        W 7084   1.764   2.627  10.250
 3566W        W 7085   0.922   9.563  11.122
 3567W        W 7086   6.557   8.010   9.998
 3568W        W 7087   6.961   9.712  10.218
 3569W        W 7088   1.879   8.833   1.789
 3570W        W 7089   1.098   5.049   3.267
 3571W        W 7090   9.834   6.030   0.610
 3572W        W 7091   8.580   2.952   3.069
 3573W        W 7092   4.551   7.366  10.035
 3574W        W 7093   4.552   6.999   1.668
 3575W        W 7094   4.497   9.074  10.240
 3576W        W 7095   9.332   7.210   1.698
 3577W        W 7096   8.728   4.445   9.263
 3578W        W 7097   9.795   8.787   1.003
 3579W        W 7098   9.213   0.282   9.338
 3580W        W 7099   1.359   1.170   9.995
 3581W        W 7100   8.063   8.700   9.912
 3582W        W 7101   7.754   6.270   9.220
 3583W        W 7102   4.326   8.372  10.717
 3584W        W 7103   1.759   6.121   0.705
 3585W        W 7104   1.667   0.691   8.703
 3586W        W 7105   4.208   7.845   2.773
 3587W        W 7106   6.706   9.370   3.591
 3588W        W 7107   6.432   0.905  10.111
 3589W        W 7108   4.933   8.171   3.451
 3590W        W 7109   5.282   7.422   2.272
 3591W        W 7110   5.761   7.438   8.916
 3592W        W 7111   1.757   2.016   8.948
 3593W        W 7112   2.784   0.897   9.581
 3594W        W 7113   4.965   7.262   0.464
 3595W        W 7114   9.908   9.764  10.788
 3596W        W 7115   3.264   5.157   9.496
 3597W        W 7116   1.513   9.888   1.256
 3598W        W 7117   0.464   1.774   2.966
 3599W        W 7118   7.157   9.108  11.468
 3600W        W 7119   1.932   0.302   8.952
 3601W        W 7120   7.388   5.217   3.652
 3602W        W 7121   9.578   9.679  10.416
 3603W        W 7122   4.660   0.717   1.690
 3604W        W 7123   6.958   1.319   2.186
 3605W        W 7124   1.774   5.701   1.004
 3606W        W 7125   2.349   1.157   3.294
 3607W        W 7126   6.529   4.875   0.923
 3608W        W 7127   9.528   0.118   2.870
 3609W        W 7128   5.554   8.238   2.593
 3610W        W 7129   1.342   7.614  11.998
 3611W        W 7130   6.649   3.355   0.777
 3612W        W 7131   4.760   1.138   9.351
 3613W        W 7132   2.632   2.183   1.690
 3614W        W 7133   0.655   3.114   3.261
 3615W        W 7134   8.525   8.890   1.152
 3616W        W 7135   6.085   1.233   3.284
 3617W        W 7136   5.157   7.486   3.936
 3618W        W 7137   6.119   4.700  11.527
 3619W        W 7138   2.296   9.842   0.837
 3620W        W 7139   2.401   2.447   0.861
 3621W        W 7140   7.237   2.590   3.509
 3622W        W 7141   5.628   6.601   2.072
 3623W        W 7142   4.813   2.238   3.455
 3624W        W 7143   1.820   0.007   1.707
 3625W        W 7144   6.608   8.284   9.521
 3626W        W 7145   1.314   4.167   2.684
 3627W        W 7146   6.344   3.026   8.786
 3628W        W 7147   3.202   5.574   2.652
 3629W        W 7148   5.475   5.885   3.722
 3630W        W 7149   9.605   5.115   3.103
 3631W        W 7150   5.517   9.058   0.454
 3632W        W 7151   3.626   2.092  10.457
 3633W        W 7152   6.893   7.315   9.983
 3634W        W 7153   3.009   9.417   0.992
 3635W        W 7154   3.315   3.680   9.781
 3636W        W 7155   5.693   9.931   0.994
 3637W        W 7156   8.908   5.975   9.527
 3638W        W 7157   8.594   5.729   0.260
 3639W        W 7158   7.616   3.257   1.721
 3640W        W 7159   5.243   5.858   1.682
 3641W        W 7160   7.743   0.053   9.072
 3642W        W 7161   0.539   9.172  10.476
 3643W        W 7162   1.555   5.083   1.575
 3644W        W 7163   8.340   8.893   2.633
 3645W        W 7164   4.315   0.664   0.521
 3646W        W 7165   5.181   9.326   2.149
 3647W        W 7166   4.714   3.657  11.766
 3648W        W 7167   4.514   1.895   9.870
 3649W        W 7168   8.850   2.173   2.792
 3650W        W 7169   5.472   7.691   8.580
 3651W        W 7170   0.436   1.862  11.425
 3652W        W 7171   1.876   9.070   8.916
 3653W        W 7172   0.425   7.024   0.779
 3654W        W 7173   4.178   3.331   2.637
 3655W        W 7174   8.097   3.713  11.944
 3656W        W 7175   6.778   2.313  11.315
 3657W        W 7176   0.973   2.346  10.705
 3658W        W 7177   2.914   2.739   3.715
 3659W        W 7178   6.142   9.960   2.036
 3660W        W 7179   6.741   4.630   1.330
 3661W        W 7180   6.573   8.856   3.103
 3662W        W 7181   8.142   9.194   9.995
 3663W        W 7182   3.172   7.539  10.257
 3664W        W 7183   9.666   2.823  11.717
 3665W        W 7184   9.658   4.711  10.848
 3666W        W 7185   6.045   9.912   3.159
 3667W        W 7186   1.767   8.057   1.494
 3668W        W 7187   3.590   6.634   9.898
 3669W        W 7188   1.814   1.731   2.313
 3670W        W 7189   0.656   6.019  10.863
 3671W        W 7190   7.092   0.306   3.164
 3672W        W 7191   1.619   7.391   1.779
 3673W        W 7192   4.626   8.751   8.588
 3674W        W 7193   2.250   7.097   2.534
 3675W        W 7194   7.693   7.852  10.897
 3676W        W 7195   1.289   0.407   1.072
 3677W        W 7196   0.566   0.821  11.463
 3678W        W 7197   3.190   4.659   2.028
 3679W        W 7198   7.109   5.283  11.752
 3680W        W 7199   5.120   7.838   1.060
 3681W        W 7200   4.536   0.204  10.559
 3682W        W 7201   4.934   3.100  11.015
 3683W        W 7202   8.404   9.908   1.057
 3684W        W 7203   1.672   4.471  10.835
 3685W        W 7204   8.387   0.345   2.781
 3686W        W 7205   4.019   3.369   1.346
 3687W        W 7206   0.448   1.750  10.913
 3688W        W 7207   5.131   5.713   2.160
 3689W        W 7208   6.779   5.540  11.431
 3690W        W 7209   5.580   2.642   1.839
 3691W        W 7210   0.792   4.357   9.934
 3692W        W 7211   2.985   8.773   1.270
 3693W        W 7212   9.062   9.902   9.016
 3694W        W 7213   2.248   4.444  11.710
 3695W        W 7214   6.269   9.107   9.440
 3696W        W 7215   9.350   5.704   9.564
 3697W        W 7216   8.072   6.271   8.824
 3698W        W 7217   4.278   7.487  10.942
 3699W        W 7218   8.316   6.495   3.256
 3700W        W 7219   7.450   4.042   8.889
 3701W        W 7220   7.816   2.695   9.312
 3702W        W 7221   0.441   4.918  10.533
 3703W        W 7222   3.049   8.418  11.589
 3704W        W 7223   2.240   7.427   9.985
 3705W        W 7224   7.999   7.936   1.309
 3706W        W 7225   2.202   1.910   2.582
 3707W        W 7226   6.182   5.251   9.787
 3708W        W 7227   2.349   0.270   3.250
 3709W        W 7228   0.346   6.416  11.706
 3710W        W 7229   4.719   9.637   3.083
 3711W        W 7230   2.611   0.457   0.282
 3712W        W 7231   3.882   4.630   2.145
 3713W        W 7232   2.287   5.238  10.579
 3714W        W 7233   5.378   1.096   0.847
 3715W        W 7234   9.243   2.023  10.140
 3716W        W 7235   2.281   0.911   9.416
 3717W        W 7236   1.796   8.694   0.903
 3718W        W 7237   7.259   6.830  10.622
 3719W        W 7238   4.089   8.549   2.027
 3720W        W 7239   2.837   4.624  11.049
 3721W        W 7240   4.762   5.672   1.769
 3722W        W 7241   1.732   8.799   2.398
 3723W        W 7242   0.261   8.237  10.235
 3724W        W 7243   6.692   6.656   0.106
 3725W        W 7244   6.594   5.102   9.448
 3726W        W 7245   0.434   2.096  11.893
 3727W        W 7246   7.519   8.920   2.832
 3728W        W 7247   3.676   0.073   9.981
 3729W        W 7248   2.255   6.380   1.294
 3730W        W 7249   5.464   3.642   0.311
 3731W        W 7250   3.568   5.013   1.976
 3732W        W 7251   1.162   4.329   1.724
 3733W        W 7252   5.864   8.411  11.343
 3734W        W 7253   8.775   8.580   2.903
 3735W        W 7254   0.912   7.928   2.074
 3736W        W 7255   3.231   9.935   9.762
 3737W        W 7256   7.474   6.857   2.753
 3738W        W 7257   4.878   5.293   0.403
 3739W        W 7258   2.721   8.412   3.378
 3740W        W 7259   5.479   9.487   0.171
 3741W        W 7260   2.350   4.571   1.862
 3742W        W 7261   3.518   9.313   9.439
 3743W        W 7262   5.620   3.978   2.546
 3744W        W 7263   8.887   9.731   0.660
 3745W        W 7264   3.906   2.611   8.973
 3746W        W 7265   6.009   2.799   1.622
 3747W        W 7266   9.058   0.453   2.840
 3748W        W 7267   1.227   8.184   8.787
 3749W        W 7268   6.758   1.240  10.373
 3750W        W 7269   5.170   8.637   8.678
 3751W        W 7270   9.422   4.613   1.934
 3752W        W 7271   9.769   9.791   0.922
 3753W        W 7272   4.895   0.314   1.267
 3754W        W 7273   0.296   5.528  10.972
 3755W        W 7274   8.127   4.133  11.640
 3756W        W 7275   0.391   4.690  10.080
 3757W        W 7276   2.234   8.418   2.676
 3758W        W 7277   3.970   1.860   0.452
 3759W        W 7278   3.815   2.748  11.714
 3760W        W 7279   1.263   2.086   1.865
 3761W        W 7280   6.369   4.131   9.392
 3762W        W 7281   6.332   6.105   8.798
 3763W        W 7282   6.012   9.422   0.307
 3764W        W 7283   4.896   1.128  11.809
 3765W        W 7284   5.932   5.270   1.821
 3766W        W 7285   2.861   5.973  10.784
 3767W        W 7286   1.307   2.355   2.843
 3768W        W 7287   2.275   0.032   2.420
 3769W        W 7288   7.191   9.138   0.041
 3770W        W 7289   6.902   4.921   0.568
 3771W        W 7290   6.894   5.361   0.832
 3772W        W 7291   9.028   3.882   1.261
 3773W        W 7292   4.168   0.908  11.546
 3774W        W 7293   6.799   8.772  11.404
 3775W        W 7294   6.692   9.050   8.763
 3776W        W 7295   4.581   0.294   8.848
 3777W        W 7296   8.432   8.063   9.647
 3778W        W 7297   8.925   4.412   1.321
 3779W        W 7298   1.790   9.594   2.870
 3780W        W 7299   2.695   9.260  11.713
 3781W        W 7300   2.251   9.515   9.483
 3782W        W 7301   8.010   7.907   0.359
 3783W        W 7302   6.948   4.776   9.202
 3784W        W 7303   0.116   0.115   0.209
 3785W        W 7304   7.647   5.611   1.933
 3786W        W 7305   4.560   0.809   3.180
 3787W        W 7306   4.294   1.851   1.767
 3788W        W 7307   7.172   1.340   3.086
 3789W        W 7308   2.341   9.875   3.562
 3790W        W 7309   6.796   2.871   3.368
 3791W        W 7310   0.061   7.603  11.551
 3792W        W 7311   4.951   1.381   8.896
 3793W        W 7312   7.572   7.089  10.293
 3794W        W 7313   4.796   8.957   0.939
 3795W        W 7314   2.402   0.839  11.059
 3796W        W 7315   5.067   3.111   0.507
 3797W        W 7316   5.636   5.935   9.565
 3798W        W 7317   3.221   9.940  10.775
 3799W        W 7318   1.667   2.399   1.996
 3800W        W 7319   2.235   3.998   1.340
 3801W        W 7320   0.975   8.968   2.057
 3802W        W 7321   2.176   3.220   2.324
 3803W        W 7322   6.076   2.654  11.798
 3804W        W 7323   9.732   4.556   0.436
 3805W        W 7324   1.512   4.497   0.815
 3806W        W 7325   5.164   4.129   2.408
 3807W        W 7326   8.930   7.501   0.471
 3808W        W 7327   3.301   6.609  10.334
 3809W        W 7328   4.538   2.294   1.834
 3810W        W 7329   2.847   1.477   2.755
 3811W        W 7330   5.876   4.181   8.644
 3812W        W 7331   8.344   9.088  11.395
 3813W        W 7332   8.168   1.859  11.268
 3814W        W 7333   0.325   0.738   2.918
 3815W        W 7334   5.791   5.554   2.796
 3816W        W 7335   4.715   4.339  10.977
 3817W        W 7336   1.817   2.295   2.979
 3818W        W 7337   4.424   2.773   0.396
 3819W        W 7338   8.292   3.867   8.658
 3820W        W 7339   1.261   0.668   2.276
 3821W        W 7340   2.006   7.474   2.867
 3822W        W 7341   3.450   4.739   2.472
 3823W        W 7342   7.811   9.505   0.509
 3824W        W 7343   7.622   0.748  11.366
 3825W        W 7344   5.504   8.104   3.079
 3826W        W 7345   1.363   4.427  11.835
 3827W        W 7346   9.524   1.272  10.785
 3828W        W 7347   3.953   7.510   1.901
 3829W        W 7348   6.218   0.341   3.444
 3830W        W 7349   4.670   7.448   1.434
 3831W        W 7350   3.535   3.279  10.847
 3832W        W 7351   7.865   3.975   2.370
 3833W        W 7352   2.417   1.990   0.059
 3834W        W 7353   7.312   7.013   9.841
 3835W        W 7354   3.615   2.023   9.522
 3836W        W 7355   9.264   1.339   1.279
 3837W        W 7356   5.391   9.218  10.726
 3838W        W 7357   3.642   6.390  10.952
 3839W        W 7358   2.259   3.617   0.387
 3840W        W 7359   1.274   0.335  11.520
 3841W        W 7360   3.808   3.254  11.814
 3842W        W 7361   0.376   9.471   0.796
 3843W        W 7362   2.314   3.133   9.576
 3844W        W 7363   4.299   5.994   3.928
 3845W        W 7364   1.388   5.528   2.683
 3846W        W 7365   0.023   1.265  10.941
 3847W        W 7366   6.675   6.671   1.052
 3848W        W 7367   4.544   8.795   1.875
 3849W        W 7368   5.880   4.035  10.842
 3850W        W 7369   1.765   5.707  11.344
 3851W        W 7370   0.871   1.905   2.172
 3852W        W 7371   0.694   7.121   2.712
 3853W        W 7372   6.550   5.157   3.072
 3854W        W 7373   7.704   1.960   3.028
 3855W        W 7374   2.775   5.196   9.300
 3856W        W 7375   7.472   5.230   0.153
 3857W        W 7376   0.377   3.482  10.202
 3858W        W 7377   1.112   7.468   8.996
 3859W        W 7378   0.237   3.889  10.446
 3860W        W 7379   7.432   1.675  11.559
 3861W        W 7380   8.058   2.885   1.221
 3862W        W 7381   8.943   6.974  11.829
 3863W        W 7382   5.468   3.526   3.608
 3864W        W 7383   3.744   4.385   1.170
 3865W        W 7384   2.883   1.733   9.174
 3866W        W 7385   0.144   2.438   3.438
 3867W        W 7386   9.231   5.049   1.782
 3868W        W 7387   3.480   8.735   1.315
 3869W        W 7388   5.594   2.228   3.971
 3870W        W 7389   8.901   8.798   1.914
 3871W        W 7390   1.628   9.047   2.839
 3872W        W 7391   6.674   1.923   0.659
 3873W        W 7392   0.976   2.103  10.271
 3874W        W 7393   3.903   5.473   9.950
 3875W        W 7394   3.215   1.280  11.297
 3876W        W 7395   2.172   5.133   2.348
 3877W        W 7396   3.087   9.267   0.508
 3878W        W 7397   8.281   1.448  11.561
 3879W        W 7398   1.158   8.014   0.872
 3880W        W 7399   6.699   3.807   2.435
 3881W        W 7400   5.627   8.045   9.919
 3882W        W 7401   9.360   1.393  11.756
 3883W        W 7402   4.655   8.126  10.401
 3884W        W 7403   3.685   6.295  11.972
 3885W        W 7404   8.500   7.967   1.095
 3886W        W 7405   0.410   2.851  11.234
 3887W        W 7406   1.846   8.431   0.411
 3888W        W 7407   1.888   3.472  10.063
 3889W        W 7408   8.451   9.478   0.757
 3890W        W 7409   6.996   0.142   0.845
 3891W        W 7410   7.229   8.530   2.672
 3892W        W 7411   8.816   4.092   1.689
 3893W        W 7412   7.884   4.086   3.134
 3894W        W 7413   9.199   3.522  10.171
 3895W        W 7414   4.513   0.407   2.807
 3896W        W 7415   5.585   1.572   3.293
 3897W        W 7416   4.223   4.369   0.945
 3898W        W 7417   2.659   7.647   9.780
 3899W        W 7418   4.417   0.632   2.325
 3900W        W 7419   3.727   3.653   1.708
 3901W        W 7420   4.041   3.659   9.175
 3902W        W 7421   4.741   9.177  11.496
 3903W        W 7422   5.135   8.037  11.616
 3904W        W 7423   3.503   6.965   3.464
 3905W        W 7424   9.850   7.122  11.519
 3906W        W 7425   5.250   9.753   2.480
 3907W        W 7426   9.878   6.398   9.726
 3908W        W 7427   3.276   1.556   0.130
 3909W        W 7428   2.205   7.481   0.538
 3910W        W 7429   1.344   8.447  10.964
 3911W        W 7430   3.800   3.284   8.463
 3912W        W 7431   8.766   8.522   1.478
 3913W        W 7432   7.487   3.099  10.538
 3914W        W 7433   4.324   3.797  10.618
 3915W        W 7434   6.997   8.296   2.262
 3916W        W 7435   2.989   2.313   8.848
 3917W        W 7436   0.444   8.046   2.449
 3918W        W 7437   6.067   8.915   3.231
 3919W        W 7438   7.649   0.753   1.932
 3920W        W 7439   2.762   3.489   8.821
 3921W        W 7440   4.658   9.444   9.866
 3922W        W 7441   8.977   8.682   1.009
 3923W        W 7442   5.181   8.368  10.542
 3924W        W 7443   1.868   7.080   0.360
 3925W        W 7444   9.933   7.856   1.165
 3926W        W 7445   4.141   9.371   9.966
 3927W        W 7446   3.038   5.451   3.617
 3928W        W 7447   4.223   8.929   1.065
 3929W        W 7448   6.326   6.815   2.707
 3930W        W 7449   9.132   3.132   0.003
 3931W        W 7450   3.458   5.991   2.429
 3932W        W 7451   0.143   2.591  11.784
 3933W        W 7452   0.805   6.181   9.375
 3934W        W 7453   3.434   2.679   3.209
 3935W        W 7454   7.136   1.567  10.254
 3936W        W 7455   7.879   9.677   9.883
 3937W        W 7456   5.625   0.377  11.282
 3938W        W 7457   3.777   5.473   1.797
 3939W        W 7458   7.703   3.388  11.815
 3940W        W 7459   4.077   0.153   2.737
 3941W        W 7460   9.600   2.926   9.683
 3942W        W 7461   3.664   7.605   9.902
 3943W        W 7462   2.932   2.694   2.279
 3944W        W 7463   5.625   4.710  11.614
 3945W        W 7464   4.227   4.155  11.116
 3946W        W 7465   7.601   7.995  11.383
 3947W        W 7466   1.987   1.287  10.452
 3948W        W 7467   3.567   9.061   9.010
 3949W        W 7468   5.049   9.309   1.300
 3950W        W 7469   2.923   0.463   9.850
 3951W        W 7470   8.050   4.606  11.838
 3952W        W 7471   2.980   7.091   8.669
 3953W        W 7472   9.532   4.210  10.785
 3954W        W 7473   5.481   0.298  11.774
 3955W        W 7474   9.339   6.930   3.087
 3956W        W 7475   6.523   1.666  10.618
 3957W        W 7476   2.721   4.716   0.565
 3958W        W 7477   3.490   3.197   1.656
 3959W        W 7478   4.715   9.284   3.464
 3960W        W 7479   4.842   5.167   9.940
 3961W        W 7480   1.983   6.208  10.424
 3962W        W 7481   7.265   2.918   1.595
 3963W        W 7482   2.123   6.625   2.724
 3964W        W 7483   0.457   4.132   3.401
 3965W        W 7484   5.388   6.204   9.919
 3966W        W 7485   4.701   9.092   2.277
 3967W        W 7486   0.062   5.089   9.220
 3968W        W 7487   4.449   3.298   9.202
 3969W        W 7488   4.719   7.494   9.025
 3970W        W 7489   5.941   9.126   1.775
 3971W        W 7490   7.625   3.841   0.074
 3972W        W 7491   9.583   5.585   2.848
 3973W        W 7492   6.943   6.420   1.778
 3974W        W 7493   5.422   6.044   0.013
 3975W        W 7494   4.248   9.847   0.109
 3976W        W 7495   9.062   9.961   3.030
 3977W        W 7496   7.762   4.071   0.633
 3978W        W 7497   4.455   1.511   2.119
 3979W        W 7498   6.158   1.224   0.424
 3980W        W 7499   9.281   7.885   0.522
 3981W        W 7500   9.420   8.611   2.297
 3982W        W 7501   0.642   9.379   1.218
 3983W        W 7502   2.793   6.531   0.387
 3984W        W 7503   8.720   4.207   2.196
 3985W        W 7504   3.730   7.836   1.571
 3986W        W 7505   2.545   9.378   1.928
 3987W        W 7506   2.607   2.817   2.853
 3988W        W 7507   6.139   4.552   3.638
 3989W        W 7508   9.736   2.581   2.242
 3990W        W 7509   7.833   5.113   0.526
 3991W        W 7510   5.225   3.849   1.581
 3992W        W 7511   1.368   0.268  10.242
 3993W        W 7512   8.273   8.430   2.812
 3994W        W 7513   4.930   7.326   2.799
 3995W        W 7514   3.836   2.905   3.492
 3996W        W 7515   9.855   5.120  11.721
 3997W        W 7516   6.023   5.484  10.899
 3998W        W 7517   3.915   2.743   9.961
 3999W        W 7518   0.277   2.596   9.218
 4000W        W 7519   6.395   5.929   3.109
 4001W        W 7520   7.098   7.306   2.998
 4002W        W 7521   1.456   6.918   1.629
 4003W        W 7522   2.356   4.601  11.214
 4004W        W 7523   0.373   2.834   0.198
 4005W        W 7524   3.613   3.083   1.171
 4006W        W 7525   8.431   7.568   0.346
 4007W        W 7526   4.962   5.045   9.129
 4008W        W 7527   4.190   4.476   3.555
 4009W        W 7528   1.465   5.623   3.569
 4010W        W 7529   8.467   2.351   2.016
 4011W        W 7530   4.464   7.401   0.676
 4012W        W 7531   5.523   8.031   0.819
 4013W        W 7532   1.953   4.772   0.913
 4014W        W 7533   7.440   8.093   2.453
 4015W        W 7534   4.834   9.045   9.455
 4016W        W 7535   7.610   5.628  10.724
 4017W        W 7536   9.363   4.199   1.509
 4018W        W 7537   4.128   1.688   8.944
 4019W        W 7538   6.973   2.414   8.720
 4020W        W 7539   8.840   2.115   2.267
 4021W        W 7540   7.031   8.005   1.165
 4022W        W 7541   3.107   9.788   0.297
 4023W        W 7542   8.076   4.557   3.138
 4024W        W 7543   3.163   3.393  10.515
 4025W        W 7544   3.144   7.173  11.049
 4026W        W 7545   7.401   6.244  11.807
 4027W        W 7546   0.892   5.644  11.383
 4028W        W 7547   4.281   2.720  11.506
 4029W        W 7548   8.492   8.719  10.223
 4030W        W 7549   6.834   8.772   2.292
 4031W        W 7550   0.236   7.440   1.851
 4032W        W 7551   4.984   9.045   1.759
 4033W        W 7552   3.608   0.262  10.542
 4034W        W 7553   7.065   5.797   9.389
 4035W        W 7554   2.257   6.876   1.182
 4036W        W 7555   7.170   6.478   2.524
 4037W        W 7556   4.357   1.618   1.247
 4038W        W 7557   4.176   8.731   1.532
 4039W        W 7558   1.829   7.478   9.246
 4040W        W 7559   4.219   5.787   0.506
 4041W        W 7560   7.182   0.617   3.554
 4042W        W 7561   5.772   8.603   9.250
 4043W        W 7562   5.083   9.540  11.406
 4044W        W 7563   6.443   6.935  11.767
 4045W        W 7564   1.808   9.343   1.914
 4046W        W 7565   9.416   2.276   9.235
 4047W        W 7566   2.527   4.913   1.510
 4048W        W 7567   8.548   0.442  10.034
 4049W        W 7568   0.832   0.028   2.736
 4050W        W 7569   8.800   2.674  10.068
 4051W        W 7570   5.967   0.040   1.404
 4052W        W 7571   5.440   3.119  11.087
 4053W        W 7572   8.589   5.005   0.982
 4054W        W 7573   5.703   0.011   0.502
 4055W        W 7574   3.050   2.832   8.714
 4056W        W 7575   7.130   0.009   2.715
 4057W        W 7576   0.218   5.085   0.629
 4058W        W 7577   6.549   1.640   2.382
 4059W        W 7578   1.172   3.787  10.512
 4060W        W 7579   2.280   3.344   9.039
 4061W        W 7580   4.035   5.793   9.052
 4062W        W 7581   2.052   8.761   9.724
 4063W        W 7582   6.595   6.590   4.159
 4064W        W 7583   6.659   9.951  11.937
 4065W        W 7584   0.662   0.451  10.816
 4066W        W 7585   7.115   2.346   2.310
 4067W        W 7586   2.639   7.724  11.759
 4068W        W 7587   6.865   0.421  10.956
 4069W        W 7588   6.263   1.737  11.178
 4070W        W 7589   7.025   4.189   2.895
 4071W        W 7590   1.781   4.400  10.335
 4072W        W 7591   7.967   1.138   0.814
 4073W        W 7592   4.109   5.045   9.335
 4074W        W 7593   5.088   1.863   2.884
 4075W        W 7594   0.808   2.158   0.531
 4076W        W 7595   3.918   0.359   1.228
 4077W        W 7596   7.442   3.909  10.105
 4078W        W 7597   6.434   6.275   0.859
 4079W        W 7598   6.453   8.508   9.990
 4080W        W 7599   5.742   5.513   9.869
 4081W        W 7600   0.899   0.339   3.197
 4082W        W 7601   8.646   1.734   2.577
 4083W        W 7602   2.367   6.114  11.206
 4084W        W 7603   4.239   9.915  11.549
 4085W        W 7604   2.394   8.809   3.284
 4086W        W 7605   6.619   4.697   8.234
 4087W        W 7606   6.790   5.921   1.813
 4088W        W 7607   8.007   4.178   0.160
 4089W        W 7608   7.892   6.680   3.579
 4090W        W 7609   9.257   0.861   1.076
 4091W        W 7610   0.821   0.845   3.154
 4092W        W 7611   7.320   8.428   1.088
 4093W        W 7612   9.574   0.905  11.304
 4094W        W 7613   6.954   8.067  10.766
 4095W        W 7614   7.487   2.789   2.035
 4096W        W 7615   6.417   2.572   1.398
 4097W        W 7616   3.314   1.270   2.631
 4098W        W 7617   6.300   2.489  11.338
 4099W        W 7618   7.096   0.536   2.702
 4100W        W 7619   4.086   4.597   9.050
 4101W        W 7620   8.807   9.992  11.901
 4102W        W 7621   3.222   1.775  10.418
 4103W        W 7622   3.693   8.481  10.996
 4104W        W 7623   3.005   5.968   1.765
 4105W        W 7624   3.130   4.968   1.650
 4106W        W 7625   7.508   0.328   3.838
 4107W        W 7626   2.555   3.971  10.207
 4108W        W 7627   6.136   9.704   0.818
 4109W        W 7628   4.121   1.304   3.005
 4110W        W 7629   3.681   3.878   3.029
 4111W        W 7630   9.857   2.903   3.368
 4112W        W 7631   5.389   0.418   9.659
 4113W        W 7632   9.581   5.777   1.608
 4114W        W 7633   7.627   7.520   0.773
 4115W        W 7634   6.795   7.586   2.702
 4116W        W 7635   9.311   6.699   1.616
 4117W        W 7636   1.322   1.166   1.481
 4118W        W 7637   2.347   4.105   8.545
 4119W        W 7638   4.153   0.831   9.510
 4120W        W 7639   3.091   0.266   0.474
 4121W        W 7640   4.447   1.283   8.987
 4122W        W 7641   9.393   6.186   9.702
 4123W        W 7642   8.964   2.307   1.060
 4124W        W 7643   1.291   3.440   0.065
 4125W        W 7644   0.727   3.732   0.261
 4126W        W 7645   4.567   3.352  10.752
 4127W        W 7646   7.230   8.472  11.388
 4128W        W 7647   3.555   3.757   4.003
 4129W        W 7648   6.154   5.742  11.699
 4130W        W 7649   5.406   1.209   0.043
 4131W        W 7650   6.632   4.552   9.518
 4132W        W 7651   0.960   6.950   0.874
 4133W        W 7652   3.669   8.397   3.334
 4134W        W 7653   7.143   3.469   1.712
 4135W        W 7654   6.097   6.715  11.465
 4136W        W 7655   5.220   2.785   3.373
 4137W        W 7656   6.219   7.018  10.584
 4138W        W 7657   8.692   3.930   8.975
 4139W        W 7658   0.658   8.899   2.433
 4140W        W 7659   6.166   4.105   3.392
 4141W        W 7660   5.197   3.671   9.178
 4142W        W 7661   1.157   1.470   0.608
 4143W        W 7662   6.271   2.001   2.624
 4144W        W 7663   8.870   2.916   9.150
 4145W        W 7664   2.833   4.722   0.054
 4146W        W 7665   6.026   4.787   9.989
 4147W        W 7666   1.408   0.329   3.187
 4148W        W 7667   6.040   6.685   1.793
 4149W        W 7668   5.402   6.540  10.317
 4150W        W 7669   8.263   1.270   9.590
 4151W        W 7670   5.646   5.440   1.057
 4152W        W 7671   5.229   6.444   8.251
 4153W        W 7672   7.639   7.310   9.524
 4154W        W 7673   1.641   8.881   0.238
 4155W        W 7674   7.380   6.351  10.804
 4156W        W 7675   8.078   8.426  11.900
 4157W        W 7676   0.741   0.783   2.245
 4158W        W 7677   6.007   6.864   2.309
 4159W        W 7678   8.493   8.922   1.649
 4160W        W 7679   2.189   0.361   2.776
 4161W        W 7680   1.278   7.929   3.585
 4162W        W 7681   5.545   6.656   8.609
 4163W        W 7682   9.318   7.408  10.384
 4164W        W 7683   0.131   6.018  10.927
 4165W        W 7684   2.727   1.507   3.246
 4166W        W 7685   2.914   4.748   2.446
 4167W        W 7686   4.700   5.234   3.551
 4168W        W 7687   4.850   6.041   9.842
 4169W        W 7688   3.186   0.833  10.370
 4170W        W 7689   0.393   3.339   0.238
 4171W        W 7690   9.849   7.001  10.902
 4172W        W 7691   5.321   4.900   2.228
 4173W        W 7692   4.673   1.826  11.345
 4174W        W 7693   5.866   1.314   9.450
 4175W        W 7694   6.380   0.281  10.779
 4176W        W 7695   2.831   1.966   2.961
 4177W        W 7696   6.992   1.024   2.624
 4178W        W 7697   3.849   3.678  10.828
 4179W        W 7698   2.117   8.095   8.659
 4180W        W 7699   5.911   8.222   2.197
 4181W        W 7700   6.986   9.275   8.357
 4182W        W 7701   3.319   6.700   2.171
 4183W        W 7702   9.807   5.614  10.836
 4184W        W 7703   2.847   3.806  11.646
 4185W        W 7704   8.806   1.706  10.380
 4186W        W 7705   9.304   2.590  10.010
 4187W        W 7706   3.730   4.503   9.890
 4188W        W 7707   2.647   5.131   0.277
 4189W        W 7708   6.358   9.645   9.523
 4190W        W 7709   4.533   8.723  11.489
 4191W        W 7710   8.539   8.456   0.847
 4192W        W 7711   5.971   0.436  11.661
 4193W        W 7712   9.731   3.682  10.097
 4194W        W 7713   6.098   1.576   0.833
 4195W        W 7714   9.022   7.876   8.698
 4196W        W 7715   2.288   9.461  11.372
 4197W        W 7716   0.382   4.633   2.651
 4198W        W 7717   0.820   1.952   1.624
 4199W        W 7718   5.916   6.933  11.029
 4200W        W 7719   6.985   2.017  10.038
 4201W        W 7720   8.356   1.502   1.527
 4202W        W 7721   2.133   6.788   9.569
 4203W        W 7722   1.260   0.814   9.012
 4204W        W 7723   2.240   1.781   9.223
 4205W        W 7724   2.507   7.419   2.888
 4206W        W 7725   2.299   6.728   0.287
 4207W        W 7726   0.239   0.460   9.557
 4208W        W 7727   3.640   1.502   2.975
 4209W        W 7728   8.865   9.714   1.155
 4210W        W 7729   4.434   5.941  11.849
 4211W        W 7730   8.798   5.439   2.529
 4212W        W 7731   1.475   2.638   9.836
 4213W        W 7732   9.628   0.566   1.624
 4214W        W 7733   7.927   3.503   3.833
 4215W        W 7734   6.658   8.028   1.992
 4216W        W 7735   0.436   0.242   2.971
 4217W        W 7736   5.573   2.188   9.210
 4218W        W 7737   1.548   3.794   2.339
 4219W        W 7738   5.243   2.397   8.823
 4220W        W 7739   6.467   7.888  10.495
 4221W        W 7740   7.414   7.525  11.213
 4222W        W 7741   3.485   7.084   8.513
 4223W        W 7742   6.756   0.796  11.911
 4224W        W 7743   5.283   5.657  11.637
 4225W        W 7744   3.374   4.141   0.785
 4226W        W 7745   4.277   8.545  10.214
 4227W        W 7746   8.959   0.256  10.502
 4228W        W 7747   4.254   5.467   3.855
 4229W        W 7748   5.988   6.285   9.519
 4230W        W 7749   7.617   5.904   9.841
 4231W        W 7750   1.724   4.687   3.743
 4232W        W 7751   8.202   9.864   1.960
 4233W        W 7752   7.171   4.367   1.304
 4234W        W 7753   5.744   3.376   4.013
 4235W        W 7754   9.956   5.700   2.442
 4236W        W 7755   5.558   3.072  10.485
 4237W        W 7756   6.418   7.648  11.452
 4238W        W 7757   1.095   3.731   2.550
 4239W        W 7758   8.233   8.279  10.135
 4240W        W 7759   0.815   3.309   2.440
 4241W        W 7760   3.903   9.248   8.633
 4242W        W 7761   0.250   2.573   1.432
 4243W        W 7762   8.660   9.299   9.360
 4244W        W 7763   3.079   4.107   1.262
 4245W        W 7764   1.150   1.217   3.004
 4246W        W 7765   9.083   0.972  11.884
 4247W        W 7766   3.252   1.752   3.218
 4248W        W 7767   5.692   0.958   0.383
 4249W        W 7768   8.041   3.556  10.960
 4250W        W 7769   0.832   6.158   8.828
 4251W        W 7770   2.788   7.038   1.635
 4252W        W 7771   4.355   4.757   2.281
 4253W        W 7772   5.949   0.333   0.167
 4254W        W 7773   2.710   5.153   9.802
 4255W        W 7774   0.829   2.388   1.958
 4256W        W 7775   6.225   3.179   9.628
 4257W        W 7776   1.237   1.323  10.910
 4258W        W 7777   3.072   9.523   9.520
 4259W        W 7778   8.745   4.434   3.568
 4260W        W 7779   4.688   7.163  11.378
 4261W        W 7780   8.954   7.748   0.923
 4262W        W 7781   1.281   2.247   9.578
 4263W        W 7782   3.154   3.268  10.027
 4264W        W 7783   1.107   5.762  11.944
 4265W        W 7784   4.164   8.437   0.166
 4266W        W 7785   0.040   9.032   9.096
 4267W        W 7786   6.193   1.695   9.345
 4268W        W 7787   4.704   1.745   3.239
 4269W        W 7788   7.633   0.278  11.071
 4270W        W 7789   0.931   4.337  11.227
 4271W        W 7790   5.004   3.771   1.140
 4272W        W 7791   6.716   6.014   8.453
 4273W        W 7792   4.628   3.090   2.798
 4274W        W 7793   7.826   1.511   2.292
 4275W        W 7794   6.499   4.213   1.135
 4276W        W 7795   2.384   6.670  10.471
 4277W        W 7796   2.140   8.309   0.890
 4278W        W 7797   8.116   8.391   2.283
 4279W        W 7798   1.531   3.264   3.164
 4280W        W 7799   0.885   8.394   0.360
 4281W        W 7800   5.416   1.730   1.428
 4282W        W 7801   8.997   6.110  10.061
 4283W        W 7802   2.965   6.229  11.737
 4284W        W 7803   2.858   9.740  11.825
 4285W        W 7804   4.175   6.747   9.178
 4286W        W 7805   0.906   2.100   9.259
 4287W        W 7806   9.345   1.010   2.382
 4288W        W 7807   8.060   0.011   1.444
 4289W        W 7808   8.383   2.751   0.011
 4290W        W 7809   6.132   8.106   2.639
 4291W        W 7810   4.655   6.627   9.012
 4292W        W 7811   5.976   0.803   9.434
 4293W        W 7812   7.355   9.398  10.280
 4294W        W 7813   1.065   4.197   2.223
 4295W        W 7814   7.355   4.370   2.552
 4296W        W 7815   9.226   9.318   3.026
 4297W        W 7816   1.675   5.531   3.121
 4298W        W 7817   6.904   9.983  11.451
 4299W        W 7818   2.765   9.095  10.135
 4300W        W 7819   4.975   5.926   2.918
 4301W        W 7820   3.755   3.759   3.513
 4302W        W 7821   1.873   0.233   2.182
 4303W        W 7822   5.610   3.101   2.111
 4304W        W 7823   7.824   0.275   9.532
 4305W        W 7824   9.249   1.715   8.899
 4306W        W 7825   1.817   5.220  10.318
 4307W        W 7826   5.242   7.434   8.964
 4308W        W 7827   9.769   7.515   1.545
 4309W        W 7828   3.971   7.390   2.900
 4310W        W 7829   5.513   4.766   9.981
 4311W        W 7830   3.965   0.854   2.238
 4312W        W 7831   7.141   4.020   8.484
 4313W        W 7832   9.965   5.960   9.974
 4314W        W 7833   5.021   9.138   8.642
 4315W        W 7834   3.256   1.658   9.532
 4316W        W 7835   6.786   2.372   0.433
 4317W        W 7836   9.636   9.628   3.098
 4318W        W 7837   5.607   0.847   1.253
 4319W        W 7838   3.486   6.552   1.258
 4320W        W 7839   4.676   0.400   0.804
 4321W        W 7840   1.908   0.510   1.749
 4322W        W 7841   0.731   5.493   8.432
 4323W        W 7842   5.948   7.658  11.631
 4324W        W 7843   1.942   6.909   1.769
 4325W        W 7844   3.728   0.075   3.146
 4326W        W 7845   8.495   6.024  10.229
 4327W        W 7846   9.039   0.206   9.982
 4328W        W 7847   1.751   2.780   0.635
 4329W        W 7848   7.053   7.491   0.268
 4330W        W 7849   4.996   4.007   8.244
 4331W        W 7850   1.401   7.940   2.235
 4332W        W 7851   5.180   6.437   1.679
 4333W        W 7852   9.223   1.773   1.537
 4334W        W 7853   8.475   5.727   9.294
 4335W        W 7854   8.523   4.118  11.324
 4336W        W 7855   2.582   5.599  10.023
 4337W        W 7856   6.532   0.797  11.062
 4338W        W 7857   2.192   9.881   9.116
 4339W        W 7858   6.591   4.146  10.663
 4340W        W 7859   4.644   3.906   2.397
 4341W        W 7860   2.498   1.477   0.147
 4342W        W 7861   0.135   9.546   2.248
 4343W        W 7862   0.553   5.441   0.796
 4344W        W 7863   2.991   0.569   3.609
 4345W        W 7864   8.413   1.567   0.064
 4346W        W 7865   0.323   3.255  10.761
 4347W        W 7866   2.204   4.363   3.668
 4348W        W 7867   9.428   8.842  11.638
 4349W        W 7868   5.466   2.530  10.396
 4350W        W 7869   7.960   0.405   0.301
 4351W        W 7870   2.448   9.496   3.218
 4352W        W 7871   3.646   2.963   9.320
 4353W        W 7872   8.121   9.607  10.705
 4354W        W 7873   9.919   5.740  11.318
 4355W        W 7874   6.886   5.745  11.886
 4356W        W 7875   7.743   4.717  10.331
 4357W        W 7876   1.175   0.101   3.593
 4358W        W 7877   6.621   3.523  11.926
 4359W        W 7878   6.942   5.460  10.387
 4360W        W 7879   8.076   4.688   8.669
 4361W        W 7880   9.902   8.942  11.811
 4362W        W 7881   4.364   1.040   1.947
 4363W        W 7882   3.329   9.729   1.748
 4364W        W 7883   3.308   8.796  10.193
 4365W        W 7884   6.074   3.316   1.905
 4366W        W 7885   7.686   7.310   9.006
 4367W        W 7886   4.309   2.583   0.927
 4368W        W 7887   9.507   3.264   3.300
 4369W        W 7888   7.696   9.550   9.093
 4370W        W 7889   2.130   4.081   3.245
 4371W        W 7890   4.131   4.721   1.278
 4372W        W 7891   6.052   5.713   8.530
 4373W        W 7892   0.657   4.856   3.450
 4374W        W 7893   7.119   4.535   8.354
 4375W        W 7894   0.404   1.102   1.508
 4376W        W 7895   9.755   3.773  10.602
 4377W        W 7896   7.423   7.039   1.290
 4378W        W 7897   3.327   4.680  11.151
 4379W        W 7898   5.430   0.333   1.214
 4380W        W 7899   2.434   4.697  10.723
 4381W        W 7900   4.686   6.678   0.221
 4382W        W 7901   9.501   6.357   2.177
 4383W        W 7902   8.074   0.386  11.349
 4384W        W 7903   7.839   7.980  11.889
 4385W        W 7904   6.599   2.507  11.759
 4386W        W 7905   9.266   8.004   3.340
 4387W        W 7906   9.322   4.698   9.470
 4388W        W 7907   4.719   4.828   0.452
 4389W        W 7908   2.957   5.231   4.079
 4390W        W 7909   2.448   3.062   3.275
 4391W        W 7910   4.419   6.553   1.037
 4392W        W 7911   4.289   1.557   3.472
 4393W        W 7912   7.171   3.772   2.266
 4394W        W 7913   0.035   5.067  10.193
 4395W        W 7914   8.573   7.629   9.358
 4396W        W 7915   5.071   0.782   9.493
 4397W        W 7916   3.619   4.219  11.799
 4398W        W 7917   9.581   4.098   3.407
 4399W        W 7918   2.739   7.212  11.769
 4400W        W 7919   3.214   3.751   8.836
 4401W        W 7920   2.894   3.926   2.333
 4402W        W 7921   1.742   1.257  10.938
 4403W        W 7922   3.118   0.546   0.890
 4404W        W 7923   8.486   1.859  10.777
 4405W        W 7924   0.414   4.536  11.943
 4406W        W 7925   3.059   6.335   1.419
 4407W        W 7926   6.707   0.793   9.110
 4408W        W 7927   8.480   6.248   9.750
 4409W        W 7928   6.115   7.142  10.058
 4410W        W 7929   5.639   5.805   2.343
 4411W        W 7930   5.287   2.984   0.962
 4412W        W 7931   7.862   8.972  11.311
 4413W        W 7932   0.333   8.415   2.118
 4414W        W 7933   0.966   5.495   0.409
 4415W        W 7934   7.560   0.716   9.421
 4416W        W 7935   8.173   3.244   3.101
 4417W        W 7936   0.870   7.037   2.245
 4418W        W 7937   0.333   8.161  11.278
 4419W        W 7938   7.423   3.954   3.320
 4420W        W 7939   8.048   6.870  10.475
 4421W        W 7940   9.775   0.727   1.002
 4422W        W 7941   8.563   6.608   1.888
 4423W        W 7942   8.599   9.738  10.613
 4424W        W 7943   0.349   9.220  11.826
 4425W        W 7944   6.558   5.992   2.643
 4426W        W 7945   3.205   3.266   9.053
 4427W        W 7946   9.069   4.556   2.368
 4428W        W 7947   3.963   4.152   1.746
 4429W        W 7948   2.687   7.415   8.365
 4430W        W 7949   6.431   2.499  10.035
 4431W        W 7950   9.355   0.550   2.062
 4432W        W 7951   4.642   0.700  11.716
 4433W        W 7952   0.842   6.154  11.337
 4434W        W 7953   1.382   3.517  10.112
 4435W        W 7954   6.365   1.344   9.725
 4436W        W 7955   6.485   5.271  10.941
 4437W        W 7956   3.048   7.975   8.622
 4438W        W 7957   7.565   9.376  11.257
 4439W        W 7958   9.387   6.536  11.841
 4440W        W 7959   8.188   6.403   2.160
 4441W        W 7960   7.007   8.374   3.157
 4442W        W 7961   8.255   9.491   3.222
 4443W        W 7962   8.044   7.004   9.384
 4444W        W 7963   4.647   9.969   1.591
 4445W        W 7964   9.788   0.352  10.985
 4446W        W 7965   5.761   6.863   3.645
 4447W        W 7966   5.425   0.532   3.471
 4448W        W 7967   4.525   7.150   0.229
 4449W        W 7968   7.749   1.161   9.642
 4450W        W 7969   4.860   1.322   1.851
 4451W        W 7970   5.438   1.478   8.738
 4452W        W 7971   4.034   5.183   1.012
 4453W        W 7972   9.271   8.812   2.807
 4454W        W 7973   8.090   9.711   0.104
 4455W        W 7974   6.766   7.542  10.723
 4456W        W 7975   2.426   9.481   1.227
 4457W        W 7976   7.429   0.379   0.594
 4458W        W 7977   5.965   2.814   3.181
 4459W        W 7978   8.588   6.582   2.422
 4460W        W 7979   3.963   6.803  11.593
 4461W        W 7980   6.595   0.864   0.392
 4462W        W 7981   3.109   5.149  10.384
 4463W        W 7982   7.434   9.210   3.360
 4464W        W 7983   4.524   5.856  10.991
 4465W        W 7984   4.199   8.192   2.379
 4466W        W 7985   3.084   9.751   3.590
 4467W        W 7986   4.060   7.145  11.964
 4468W        W 7987   0.800   0.649   9.523
 4469W        W 7988   2.568   9.103   2.909
 4470W        W 7989   4.484   7.410  11.800
 4471W        W 7990   7.370   2.812  10.098
 4472W        W 7991   5.209   2.796   2.136
 4473W        W 7992   2.783   9.966   9.975
 4474W        W 7993   8.500   9.768   1.545
 4475W        W 7994   0.932   9.833   3.249
 4476W        W 7995   2.358   9.633  11.858
 4477W        W 7996   1.773   9.696   9.722
 4478W        W 7997   4.539   9.308   1.837
 4479W        W 7998   5.655   4.845  10.874
 4480W        W 7999   2.413   1.202  11.720
 4481W        W 8000   4.761   2.864   2.350
 4482W        W 8001   8.690   6.081   1.937
 4483W        W 8002   0.901   5.192   0.007
 4484W        W 8003   9.023   8.535   9.031
 4485W        W 8004   4.470   2.440   2.319
 4486W        W 8005   2.445   7.010   8.672
 4487W        W 8006   3.995   7.174   8.935
 4488W        W 8007   1.775   0.368   0.336
 4489W        W 8008   3.560   9.829   9.392
 4490W        W 8009   5.128   3.646   2.236
 4491W        W 8010   9.367   4.686   1.426
 4492W        W 8011   6.958   7.782   9.790
 4493W        W 8012   3.641   6.984   2.967
 4494W        W 8013   5.759   3.616   0.751
 4495W        W 8014   4.222   6.395   8.229
 4496W        W 8015   6.068   8.648  11.907
 4497W        W 8016   0.193   9.675   1.248
 4498W        W 8017   7.261   7.288   8.694
 4499W        W 8018   0.475   8.397   0.040
 4500W        W 8019   8.967   3.084   2.171
 4501W        W 8020   2.165   7.847   9.672
 4502W        W 8021   9.174   1.784   2.058
 4503W        W 8022   9.353   4.986   2.302
 4504W        W 8023   9.854   5.609  10.335
 4505W        W 8024   2.417   0.743   3.015
 4506W        W 8025   5.530   6.653  10.815
 4507W        W 8026   7.963   7.560   8.662
 4508W        W 8027   1.819   2.698  11.190
 4509W        W 8028   6.250   3.667   2.251
 4510W        W 8029   1.612   7.947   0.607
 4511W        W 8030   6.060   4.742   2.595
 4512W        W 8031   5.958   2.353   1.359
 4513W        W 8032   2.152   1.973   0.840
 4514W        W 8033   6.161   5.257   8.787
 4515W        W 8034   6.857   6.090   9.733
 4516W        W 8035   4.738   2.637  10.939
 4517W        W 8036   8.447   3.017   0.889
 4518W        W 8037   3.067   7.990   9.141
 4519W        W 8038   9.392   7.199   9.749
 4520W        W 8039   8.588   4.563  10.580
 4521W        W 8040   6.028   6.535  10.657
 4522W        W 8041   1.720   7.979   9.975
 4523W        W 8042   4.607   4.065   1.074
 4524W        W 8043   5.925   1.546   9.909
 4525W        W 8044   8.966   2.304   0.020
 4526W        W 8045   9.345   4.878   9.979
 4527W        W 8046   2.533   6.557   0.824
 4528W        W 8047   3.063   0.090   1.499
 4529W        W 8048   4.174   0.583   1.839
 4530W        W 8049   9.155   9.776   0.217
 4531W        W 8050   2.332   4.050   9.553
 4532W        W 8051   6.644   2.211   9.658
 4533W        W 8052   8.456   2.385   0.956
 4534W        W 8053   0.264   2.339  10.986
 4535W        W 8054   0.478   8.841   1.414
 4536W        W 8055   6.713   8.464   2.726
 4537W        W 8056   8.456   3.339   9.513
 4538W        W 8057   6.709   2.851  11.419
 4539W        W 8058   2.903   7.555   9.344
 4540W        W 8059   9.673   9.004   2.509
 4541W        W 8060   4.383   7.199   9.316
 4542W        W 8061   8.051   9.782   9.409
 4543W        W 8062   3.808   7.198   9.419
 4544W        W 8063   6.451   5.426   1.094
 4545W        W 8064   5.899   3.937   0.279
 4546W        W 8065   9.541   0.870   0.119
 4547W        W 8066   8.427   8.867   2.144
 4548W        W 8067   4.165   9.254   1.484
 4549W        W 8068   9.682   8.165   0.350
 4550W        W 8069   2.109   0.840   2.601
 4551W        W 8070   9.993   6.879   1.027
 4552W        W 8071   6.076   0.476   1.996
 4553W        W 8072   6.264   9.423   8.637
 4554W        W 8073   0.020   4.178   9.289
 4555W        W 8074   0.421   6.174   0.198
 4556W        W 8075   6.180   7.495   3.117
 4557W        W 8076   0.477   1.283   8.751
 4558W        W 8077   3.114   5.629  10.163
 4559W        W 8078   5.538   2.060   3.063
 4560W        W 8079   2.057   9.141   1.095
 4561W        W 8080   0.325   8.271  10.769
 4562W        W 8081   3.358   8.058   1.887
 4563W        W 8082   0.804   0.552   2.720
 4564W        W 8083   4.309   6.515   0.541
 4565W        W 8084   0.653   1.321   3.127
 4566W        W 8085   0.559   0.634   1.634
 4567W        W 8086   7.389   2.737   3.022
 4568W        W 8087   3.449   1.578   3.654
 4569W        W 8088   7.953   2.827  11.677
 4570W        W 8089   7.336   4.404  11.423
 4571W        W 8090   4.242   0.423  11.435
 4572W        W 8091   0.119   2.880   2.644
 4573W        W 8092   3.410   9.931   0.700
 4574W        W 8093   0.019   7.591   0.077
 4575W        W 8094   5.378   6.159   2.078
 4576W        W 8095   3.063   7.242   3.524
 4577W        W 8096   7.156   5.764   1.033
 4578W        W 8097   3.324   5.957  11.027
 4579W        W 8098   4.586   0.298   1.971
 4580W        W 8099   7.589   6.614   0.099
 4581W        W 8100   6.814   0.678   1.755
 4582W        W 8101   2.708   4.919   2.013
 4583W        W 8102   8.317   4.128   9.303
 4584W        W 8103   3.793   0.589   9.820
 4585W        W 8104   3.379   5.124   2.808
 4586W        W 8105   7.070   4.382   8.847
 4587W        W 8106   5.782   6.967   9.296
 4588W        W 8107   5.012   0.380   9.163
 4589W        W 8108   9.956   5.444   1.450
 4590W        W 8109   4.682   8.011   2.304
 4591W        W 8110   6.462   8.916   0.702
 4592W        W 8111   1.866   9.486   8.438
 4593W        W 8112   9.913   0.494   8.609
 4594W        W 8113   3.221   2.882  10.699
 4595W        W 8114   4.458   3.056   1.204
 4596W        W 8115   2.753   4.577   8.996
 4597W        W 8116   2.702   4.213  11.382
 4598W        W 8117   8.857   0.516   0.022
 4599W        W 8118   8.104   4.821   1.139
 4600W        W 8119   2.004   8.868  10.241
 4601W        W 8120   9.769   9.832   1.507
 4602W        W 8121   0.384   6.139   2.176
 4603W        W 8122   0.532   2.134  10.582
 4604W        W 8123   4.534   4.315   3.198
 4605W        W 8124   8.398   7.064   1.499
 4606W        W 8125   4.066   2.297   1.328
 4607W        W 8126   7.552   0.176   3.365
 4608W        W 8127   6.017   2.046   0.021
 4609W        W 8128   3.344   8.675   3.048
 4610W        W 8129   3.698   9.888  10.912
 4611W        W 8130   3.644   6.854  10.666
 4612W        W 8131   7.101   6.511  11.428
 4613W        W 8132   9.064   5.172   0.696
 4614W        W 8133   5.243   7.589  11.185
 4615W        W 8134   1.407   4.502  11.286
 4616W        W 8135   3.723   6.380  11.458
 4617W        W 8136   3.815   5.769   3.735
 4618W        W 8137   6.258   0.858   3.586
 4619W        W 8138   5.696   2.714   0.746
 4620W        W 8139   1.994   1.269  11.413
 4621W        W 8140   3.303   8.532   0.020
 4622W        W 8141   9.511   4.229   9.401
 4623W        W 8142   0.049   5.702   1.892
 4624W        W 8143   2.472   3.364  11.097
 4625W        W 8144   6.882   5.045  10.742
 4626W        W 8145   2.313   7.190   1.571
 4627W        W 8146   4.625   9.121   8.978
 4628W        W 8147   0.416   7.588   9.688
 4629W        W 8148   9.569   6.372  10.147
 4630W        W 8149   6.744   0.258   9.011
 4631W        W 8150   1.696   4.590   3.219
 4632W        W 8151   0.185   6.595   3.567
 4633W        W 8152   5.922   2.458   0.294
 4634W        W 8153   9.553   8.018   1.488
 4635W        W 8154   3.737   2.823  10.763
 4636W        W 8155   4.254   6.158  10.657
 4637W        W 8156   6.843   3.898   8.884
 4638W        W 8157   0.929   8.010   2.583
 4639W        W 8158   1.894   4.162   2.444
 4640W        W 8159   5.977   1.175  11.781
 4641W        W 8160   6.475   3.491  10.013
 4642W        W 8161   3.345   6.446   3.652
 4643W        W 8162   7.580   4.145   1.100
 4644W        W 8163   0.756   6.627   2.647
 4645W        W 8164   8.594   8.464   2.425
 4646W        W 8165   5.784   7.461  11.186
 4647W        W 8166   5.654   9.514   0.658
 4648W        W 8167   0.036   4.895   0.170
 4649W        W 8168   7.921   6.899   0.342
 4650W        W 8169   1.000   1.300   8.691
 4651W        W 8170   3.264   1.699  11.607
 4652W        W 8171   6.524   8.826  10.965
 4653W        W 8172   8.550   4.478   0.930
 4654W        W 8173   3.234   3.316   8.539
 4655W        W 8174   2.076   6.579   2.178
 4656W        W 8175   8.108   2.358  11.446
 4657W        W 8176   5.557   6.771   1.595
 4658W        W 8177   3.202   2.295  10.065
 4659W        W 8178   0.216   0.620   2.011
 4660W        W 8179   5.202   8.094  11.078
 4661W        W 8180   1.842   6.091   9.938
 4662W        W 8181   7.822   9.898  10.368
 4663W        W 8182   6.506   4.875   9.882
 4664W        W 8183   0.873   6.471   0.481
 4665W        W 8184   2.044   7.628   1.508
 4666W        W 8185   4.194   6.297   3.500
 4667W        W 8186   6.300   6.734   3.670
 4668W        W 8187   9.675   6.661  11.296
 4669W        W 8188   6.538   3.142   9.239
 4670W        W 8189   2.040   3.703   2.244
 4671W        W 8190   7.044   0.330   2.260
 4672W        W 8191   4.762   9.886  11.587
 4673W        W 8192   4.487   6.888  11.780
 4674W        W 8193   4.809   7.427  10.928
 4675W        W 8194   0.386   1.962   2.370
 4676W        W 8195   7.435   4.239   2.085
 4677W        W 8196   0.403   6.399  10.628
 4678W        W 8197   9.033   8.162  11.281
 4679W        W 8198   3.864   9.019  10.986
 4680W        W 8199   1.841   4.039   9.305
 4681W        W 8200   0.845   4.034   0.688
 4682W        W 8201   9.224   8.909  10.629
 4683W        W 8202   0.177   7.614   2.369
 4684W        W 8203   0.663   2.959   2.768
 4685W        W 8204   7.585   9.596   3.695
 4686W        W 8205   4.775   2.764   1.827
 4687W        W 8206   8.183   4.878  10.529
 4688W        W 8207   0.396   2.123   1.838
 4689W        W 8208   3.137   6.086   8.972
 4690W        W 8209   4.006   3.750   0.360
 4691W        W 8210   4.155   7.126   8.438
 4692W        W 8211   5.106   9.446   9.603
 4693W        W 8212   0.660   2.579  11.878
 4694W        W 8213   6.077   7.814   0.117
 4695W        W 8214   4.215   4.004   8.830
 4696W        W 8215   0.441   2.041   3.447
 4697W        W 8216   3.348   9.811  11.800
 4698W        W 8217   2.876   5.172   2.714
 4699W        W 8218   3.055   1.254   9.317
 4700W        W 8219   8.899   7.157  10.965
 4701W        W 8220   8.409   0.277   1.759
 4702W        W 8221   4.632   2.465   9.577
 4703W        W 8222   9.328   9.063   2.066
 4704W        W 8223   5.546   2.848   9.982
 4705W        W 8224   9.573   8.192   2.544
 4706W        W 8225   8.959   9.321   1.853
 4707W        W 8226   8.782   1.158   1.400
 4708W        W 8227   9.027   3.103   3.264
 4709W        W 8228   7.562   6.328   2.827
 4710W        W 8229   4.528   9.575  11.255
 4711W        W 8230   9.752   0.416   0.000
 4712W        W 8231   4.725   4.404   2.289
 4713W        W 8232   6.858   3.621   0.384
 4714W        W 8233   4.249   4.790   3.132
 4715W        W 8234   4.695   5.713   1.090
 4716W        W 8235   7.601   8.003   0.954
 4717W        W 8236   6.948   8.984   2.734
 4718W        W 8237   5.855   0.293  10.822
 4719W        W 8238   1.809   0.102   0.801
 4720W        W 8239   3.386   1.476   0.673
 4721W        W 8240   4.011   7.622  11.803
 4722W        W 8241   3.930   8.990   9.362
 4723W        W 8242   2.614   1.630  10.147
 4724W        W 8243   6.215   8.603   9.535
 4725W        W 8244   0.976   3.671  11.026
 4726W        W 8245   1.894   7.471  10.783
 4727W        W 8246   7.952   8.172   3.104
 4728W        W 8247   7.926   1.033   8.875
 4729W        W 8248   8.465   5.918   8.791
 4730W        W 8249   3.378   1.195  11.773
 4731W        W 8250   6.980   1.107   3.533
 4732W        W 8251   6.701   0.727   2.302
 4733W        W 8252   0.897   2.090   3.196
 4734W        W 8253   4.092   4.806  10.577
 4735W        W 8254   8.046   4.910   1.646
 4736W        W 8255   5.475   0.667   9.209
 4737W        W 8256   7.915   0.282   2.031
 4738W        W 8257   2.094   5.103   8.604
 4739W        W 8258   0.722   8.884  11.960
 4740W        W 8259   1.007   5.005  11.098
 4741W        W 8260   3.959   9.368   0.581
 4742W        W 8261   7.114   6.048   0.220
 4743W        W 8262   4.767   9.853   0.109
 4744W        W 8263   3.222   9.920  11.321
 4745W        W 8264   3.323   4.584  11.998
 4746W        W 8265   5.081   2.361   3.038
 4747W        W 8266   6.195   1.925   2.116
 4748W        W 8267   0.011   4.128   3.129
 4749W        W 8268   1.383   7.418   3.404
 4750W        W 8269   9.891   2.031   0.497
 4751W        W 8270   8.085   8.197   0.882
 4752W        W 8271   9.974   3.134  11.432
 4753W        W 8272   4.960   3.260   8.592
 4754W        W 8273   8.289   0.052   3.437
 4755W        W 8274   5.550   3.875   8.885
 4756W        W 8275   0.844   1.712   0.269
 4757W        W 8276   9.445   0.872   0.613
 4758W        W 8277   3.785   6.556   0.433
 4759W        W 8278   4.906   5.615  10.166
 4760W        W 8279   8.457   5.973  11.255
 4761W        W 8280   4.962   4.774  10.229
 4762W        W 8281   9.983   0.236   9.961
 4763W        W 8282   1.295   5.495   1.333
 4764W        W 8283   8.813   7.288   1.260
 4765W        W 8284   1.874   9.353   0.106
 4766W        W 8285   4.861   9.999   2.757
 4767W        W 8286   6.405   2.644   0.205
 4768W        W 8287   0.832   9.129   1.611
 4769W        W 8288   6.306   2.213   0.506
 4770W        W 8289   2.050   9.905   1.259
 4771W        W 8290   9.930   2.155  11.988
 4772W        W 8291   6.666   0.189   2.611
 4773W        W 8292   7.610   5.145   1.530
 4774W        W 8293   1.663   1.150   0.746
 4775W        W 8294   0.972   9.286  11.612
 4776W        W 8295   9.468   5.855  10.083
 4777W        W 8296   1.747   0.632   0.825
 4778W        W 8297   7.092   8.173   3.649
 4779W        W 8298   0.770   3.692   9.335
 4780W        W 8299   5.028   3.445  10.049
 4781W        W 8300   8.421   7.611   3.417
 4782W        W 8301   8.720   0.189   1.367
 4783W        W 8302   5.974   2.330   1.855
 4784W        W 8303   7.247   9.451   2.325
 4785W        W 8304   4.130   6.695   2.331
 4786W        W 8305   0.248   0.911   2.450
 4787W        W 8306   3.135   2.336   0.320
 4788W        W 8307   0.656   3.803   9.824
 4789W        W 8308   6.015   4.604   0.834
 4790W        W 8309   6.795   9.460   1.384
 4791W        W 8310   3.401   7.399   3.150
 4792W        W 8311   8.522   4.841  11.861
 4793W        W 8312   4.061   6.523  10.084
 4794W        W 8313   2.030   2.794   3.473
 4795W        W 8314   0.844   0.488  10.327
 4796W        W 8315   2.327   1.904   2.082
 4797W        W 8316   7.576   3.364  10.080
 4798W        W 8317   8.501   4.118  10.804
 4799W        W 8318   9.873   7.227   2.468
 4800W        W 8319   8.499   8.954   0.653
 4801W        W 8320   7.649   9.000  10.004
 4802W        W 8321   8.510   0.775   2.189
 4803W        W 8322   1.263   1.946   2.525
 4804W        W 8323   8.998   3.602  11.453
 4805W        W 8324   9.874   4.563   1.725
 4806W        W 8325   2.096   4.622   4.097
 4807W        W 8326   0.516   1.622   1.907
 4808W        W 8327   9.109   2.620   1.539
 4809W        W 8328   8.750   1.938   0.805
 4810W        W 8329   6.649   6.306   8.019
 4811W        W 8330   4.706   0.823   0.202
 4812W        W 8331   5.907   0.888  10.889
 4813W        W 8332   3.936   7.975   1.110
 4814W        W 8333   1.652   1.668   0.629
 4815W        W 8334   5.928   7.912   8.819
 4816W        W 8335   0.662   1.058   2.695
 4817W        W 8336   8.984   0.617   0.698
 4818W        W 8337   0.367   9.544   3.592
 4819W        W 8338   6.297   1.157   9.204
 4820W        W 8339   2.542   6.396   2.137
 4821W        W 8340   8.541   4.232   9.762
 4822W        W 8341   2.693   2.370   2.630
 4823W        W 8342   5.253   9.166   3.548
 4824W        W 8343   1.635   6.617   9.232
 4825W        W 8344   5.175   1.567   0.954
 4826W        W 8345   8.402   6.223   9.237
 4827W        W 8346   0.310   3.102   9.145
 4828W        W 8347   7.442   9.974   2.302
 4829W        W 8348   4.875   0.157  10.940
 4830W        W 8349   3.996   7.626   0.727
 4831W        W 8350   5.661   1.960   8.773
 4832W        W 8351   3.561   2.151   1.311
 4833W        W 8352   8.059   6.710   0.805
 4834W        W 8353   5.787   1.940   9.610
 4835W        W 8354   3.677   1.032   9.593
 4836W        W 8355   4.767   8.922  11.938
 4837W        W 8356   3.185   3.361   0.530
 4838W        W 8357   4.755   4.436   1.718
 4839W        W 8358   2.917   4.752  10.012
 4840W        W 8359   5.691   8.813  10.570
 4841W        W 8360   4.912   4.882   1.542
 4842W        W 8361   9.563   1.406   9.154
 4843W        W 8362   2.271   9.451   2.652
 4844W        W 8363   9.348   2.768   8.994
 4845W        W 8364   6.456   3.822  11.517
 4846W        W 8365   9.288   7.709   1.802
 4847W        W 8366   7.507   8.589   3.223
 4848W        W 8367   8.988   2.302   0.526
 4849W        W 8368   6.148   6.223  11.553
 4850W        W 8369   0.681   7.790   1.012
 4851W        W 8370   0.367   7.114   0.252
 4852W        W 8371   6.425   2.037  11.560
 4853W        W 8372   1.246   0.978   0.988
 4854W        W 8373   8.952   0.356   1.800
 4855W        W 8374   5.277   3.004   8.266
 4856W        W 8375   9.347   5.978   8.722
 4857W        W 8376   9.518   9.056   1.592
 4858W        W 8377   1.367   8.820   8.994
 4859W        W 8378   8.018   3.669  11.452
 4860W        W 8379   3.398   6.000  11.575
 4861W        W 8380   3.557   5.518   2.256
 4862W        W 8381   1.018   7.460  11.179
 4863W        W 8382   4.416   9.133   0.653
 4864W        W 8383   0.663   0.011  11.208
 4865W        W 8384   1.628   6.765  11.486
 4866W        W 8385   1.791   0.329   1.263
 4867W        W 8386   3.976   6.791  11.070
 4868W        W 8387   2.280   9.167   9.899
 4869W        W 8388   7.095   7.174  10.963
 4870W        W 8389   1.374   5.827   0.365
 4871W        W 8390   8.149   6.450   2.747
 4872W        W 8391   7.097   2.395  10.353
 4873W        W 8392   1.200   1.726   2.988
 4874W        W 8393   4.020   2.858   1.447
 4875W        W 8394   2.791   2.059  10.365
 4876W        W 8395   2.717   7.258   2.418
 4877W        W 8396   2.776   9.912   3.193
 4878W        W 8397   3.483   1.208   2.153
 4879W        W 8398   5.023   5.285  11.372
 4880W        W 8399   5.006   6.535   1.166
 4881W        W 8400   8.633   9.710   3.580
 4882W        W 8401   0.462   8.942   3.366
 4883W        W 8402   1.689   8.452  10.188
 4884W        W 8403   8.088   1.151  11.929
 4885W        W 8404   0.149   5.297   2.177
 4886W        W 8405   3.708   2.286   9.948
 4887W        W 8406   7.555   4.382  10.974
 4888W        W 8407   6.556   0.496   0.770
 4889W        W 8408   4.067   9.525  11.019
 4890W        W 8409   8.435   2.219   0.236
 4891W        W 8410   4.623   0.935  11.263
 4892W        W 8411   7.690   1.841   9.041
 4893W        W 8412   5.492   5.965   2.816
 4894W        W 8413   5.815   4.328  10.032
 4895W        W 8414   4.395   6.693  11.336
 4896W        W 8415   9.970   7.335   0.549
 4897W        W 8416   6.450   0.366   0.273
 4898W        W 8417   9.062   9.252   9.758
 4899W        W 8418   5.585   1.479  11.625
 4900W        W 8419   9.970   4.406   3.552
 4901W        W 8420   7.024   5.572   3.659
 4902W        W 8421   5.122   2.559  11.744
 4903W        W 8422   1.410   5.520   1.847
 4904W        W 8423   6.917   6.149  11.081
 4905W        W 8424   2.245   4.888   0.515
 4906W        W 8425   5.207   3.775   9.677
 4907W        W 8426   9.789   8.963  10.320
 4908W        W 8427   6.584   6.527  11.491
 4909W        W 8428   2.862   0.249   8.859
 4910W        W 8429   1.848   4.257   0.036
 4911W        W 8430   0.976   0.581  11.194
 4912W        W 8431   2.980   2.647   9.573
 4913W        W 8432   6.867   3.388   1.280
 4914W        W 8433   7.250   8.530  10.366
 4915W        W 8434   8.395   1.958   9.770
 4916W        W 8435   7.278   7.607   9.097
 4917W        W 8436   1.284   8.057   9.716
 4918W        W 8437   1.393   5.051  10.036
 4919W        W 8438   2.202   1.268   8.993
 4920W        W 8439   0.185   2.745   0.946
 4921W        W 8440   0.211   8.044   3.326
 4922W        W 8441   2.017   5.513   3.517
 4923W        W 8442   3.417   9.081  11.248
 4924W        W 8443   9.036   5.588   9.962
 4925W        W 8444   0.899   9.540   2.851
 4926W        W 8445   5.132   6.547   9.175
 4927W        W 8446   9.928   8.567   2.382
 4928W        W 8447   4.357   7.018   3.691
 4929W        W 8448   2.797   8.195   0.673
 4930W        W 8449   5.669   7.606   3.208
 4931W        W 8450   0.767   8.532   3.223
 4932W        W 8451   4.796   1.347   2.486
 4933W        W 8452   3.780   5.125   2.463
 4934W        W 8453   8.984   8.777   0.511
 4935W        W 8454   2.894   5.540   0.446
 4936W        W 8455   8.466   9.420   1.905
 4937W        W 8456   3.763   7.201   0.882
 4938W        W 8457   7.662   8.447   0.682
 4939W        W 8458   4.208   8.081  11.783
 4940W        W 8459   0.460   2.182   8.984
 4941W        W 8460   5.169   6.122   9.460
 4942W        W 8461   1.137   7.455   2.010
 4943W        W 8462   4.135   9.880   9.164
 4944W        W 8463   0.409   6.675   3.086
 4945W        W 8464   7.996   6.099  11.358
 4946W        W 8465   3.535   5.118  11.336
 4947W        W 8466   3.855   0.980   1.760
 4948W        W 8467   8.444   2.493   2.895
 4949W        W 8468   6.246   8.476   2.984
 4950W        W 8469   3.908   8.561   2.564
 4951W        W 8470   2.178   8.675   1.288
 4952W        W 8471   5.610   5.101   2.603
 4953W        W 8472   7.068   7.347   2.020
 4954W        W 8473   1.482   3.319   0.551
 4955W        W 8474   8.498   1.108  11.223
 4956W        W 8475   9.088   3.497   2.432
 4957W        W 8476   9.542   9.511   0.423
 4958W        W 8477   6.637   2.681   2.285
 4959W        W 8478   9.867   8.446   1.861
 4960W        W 8479   4.562   9.800   3.551
 4961W        W 8480   4.644   1.961   2.207
 4962W        W 8481   6.202   7.826   2.186
 4963W        W 8482   3.079   4.297  10.112
 4964W        W 8483   4.624   6.313   8.612
 4965W        W 8484   1.392   5.357  10.596
 4966W        W 8485   1.289   9.782   9.017
 4967W        W 8486   7.145   2.034   9.555
 4968W        W 8487   2.023   5.631  10.071
 4969W        W 8488   4.112   5.588  10.888
 4970W        W 8489   5.340   3.406   1.289
 4971W        W 8490   3.693   8.534   0.373
 4972W        W 8491   7.818   2.163   1.742
 4973W        W 8492   2.377   3.310  10.594
 4974W        W 8493   4.103   3.364   3.488
 4975W        W 8494   2.713   3.772   1.413
 4976W        W 8495   5.008   8.183   2.933
 4977W        W 8496   8.947   2.732  11.703
 4978W        W 8497   6.090   9.046   2.275
 4979W        W 8498   3.248   5.133  10.906
 4980W        W 8499   8.824   4.935   2.631
 4981W        W 8500   5.794   5.464  11.453
 4982W        W 8501   0.803   3.764   2.132
 4983W        W 8502   9.724   1.940  10.288
 4984W        W 8503   6.555   6.521   9.571
 4985W        W 8504   6.356   0.244  10.250
 4986W        W 8505   1.699   7.927   9.459
 4987W        W 8506   1.642   0.275  11.856
 4988W        W 8507   8.970   6.874   9.945
 4989W        W 8508   8.969   8.265  11.840
 4990W        W 8509   3.826   1.168   2.599
 4991W        W 8510   7.443   6.107   4.142
 4992W        W 8511   5.222   4.175   0.823
 4993W        W 8512   0.453   9.682   3.095
 4994W        W 8513   8.649   9.972  10.166
 4995W        W 8514   6.415   7.077   1.173
 4996W        W 8515   1.758   7.569   0.293
 4997W        W 8516   6.270   1.910   9.791
 4998W        W 8517   7.133   2.319   0.075
 4999W        W 8518   0.918   3.395  11.461
 5000W        W 8519   1.482   9.780   3.331
 5001W        W 8520   1.729   5.928   1.799
 5002W        W 8521   1.701   1.762   0.069
 5003W        W 8522   7.608   6.827   1.708
 5004W        W 8523   7.113   0.741  10.291
 5005W        W 8524   8.177   5.871   2.039
 5006W        W 8525   9.804   7.193  10.351
 5007W        W 8526   9.721   6.187   1.087
 5008W        W 8527   6.048   5.116   2.920
 5009W        W 8528   3.770   6.683   1.761
 5010W        W 8529   8.328   3.189  10.453
 5011W        W 8530   5.825   4.452  11.179
 5012W        W 8531   8.037   1.879   9.418
 5013W        W 8532   1.374   7.595  10.476
 5014W        W 8533   1.180   8.739   1.566
 5015W        W 8534   1.450   5.453   0.697
 5016W        W 8535   7.422   8.068  10.500
 5017W        W 8536   3.611   9.556  11.312
 5018W        W 8537   8.749   2.152  10.093
 5019W        W 8538   9.499   6.002   2.558
 5020W        W 8539   0.311   8.409   1.618
 5021W        W 8540   0.788   5.344   1.279
 5022W        W 8541   6.707   1.383   0.402
 5023W        W 8542   5.308   0.239   2.704
 5024W        W 8543   4.635   8.796  10.984
 5025W        W 8544   0.253   2.465   2.398
 5026W        W 8545   2.099   3.596   9.439
 5027W        W 8546   9.391   5.014   1.050
 5028W        W 8547   5.941   6.078   0.053
 5029W        W 8548   0.455   3.681   1.773
 5030W        W 8549   1.835   7.194   1.343
 5031W        W 8550   0.184   7.233   1.359
 5032W        W 8551   1.087   0.205  11.970
 5033W        W 8552   4.186   0.817   2.802
 5034W        W 8553   7.955   7.191   1.691
 5035W        W 8554   6.776   6.077   4.105
 5036W        W 8555   2.502   5.070   3.280
 5037W        W 8556   3.117   4.312   8.103
 5038W        W 8557   9.225   2.250   3.194
 5039W        W 8558   5.173   2.545   0.728
 5040W        W 8559   6.800   6.927   3.821
 5041W        W 8560   0.711   5.293  10.755
 5042W        W 8561   5.142   1.074   2.804
 5043W        W 8562   4.750   7.055   4.037
 5044W        W 8563   0.154   3.460   0.707
 5045W        W 8564   8.000   4.271  10.213
 5046W        W 8565   5.291   7.025   9.488
 5047W        W 8566   8.074   3.462   2.361
 5048W        W 8567   6.454   9.725  11.457
 5049W        W 8568   5.844  10.000   8.915
 5050W        W 8569   9.361   6.874   2.112
 5051W        W 8570   9.206   7.854   2.336
 5052W        W 8571   2.199   6.929   3.497
 5053W        W 8572   4.292   6.539   1.877
 5054W        W 8573   5.389   2.192   2.591
 5055W        W 8574   6.045   5.493   1.387
 5056W        W 8575   7.136   7.558  11.633
 5057W        W 8576   1.006   9.989   1.834
 5058W        W 8577   7.309   6.077   9.039
 5059W        W 8578   8.754   9.418   3.177
 5060W        W 8579   3.868   8.978  11.483
 5061W        W 8580   9.557   7.508   0.296
 5062W        W 8581   1.919   6.457  10.855
 5063W        W 8582   1.305   9.856  10.570
 5064W        W 8583   7.889   9.276   9.556
 5065W        W 8584   8.364   6.329   0.899
 5066W        W 8585   3.189   8.046   2.406
 5067W        W 8586   5.906   1.013  10.390
 5068W        W 8587   1.641   2.757   1.218
 5069W        W 8588   2.690   9.330   9.249
 5070W        W 8589   3.301   4.690   9.707
 5071W        W 8590   5.152   7.844   2.541
 5072W        W 8591   2.309   5.940   3.464
 5073W        W 8592   6.572   9.263  10.401
 5074W        W 8593   6.483   2.466   2.747
 5075W        W 8594   1.306   8.433   2.357
 5076W        W 8595   6.495   5.083   2.559
 5077W        W 8596   0.840   4.414   3.234
 5078W        W 8597   5.815   4.907   2.169
 5079W        W 8598   7.828   2.615   9.884
 5080W        W 8599   6.078   9.457  10.342
 5081W        W 8600   7.889   3.463  10.468
 5082W        W 8601   2.517   2.565   3.329
 5083W        W 8602   9.573   6.759   0.247
 5084W        W 8603   7.723   5.602   2.437
 5085W        W 8604   3.430   0.996   3.511
 5086W        W 8605   9.450   4.354   0.067
 5087W        W 8606   5.739   8.565   3.011
 5088W        W 8607   8.399   7.078   2.014
 5089W        W 8608   8.710   9.268   2.327
 5090W        W 8609   3.525   8.269   2.788
 5091W        W 8610   8.709   2.918   9.629
 5092W        W 8611   3.183   2.954   0.874
 5093W        W 8612   4.823   0.386   9.680
 5094W        W 8613   3.737   7.247  11.034
 5095W        W 8614   4.423   5.486  10.049
 5096W        W 8615   3.538   8.233   1.307
 5097W        W 8616   3.730   5.414   9.436
 5098W        W 8617   1.216   1.942   0.830
 5099W        W 8618   4.266   2.296   9.236
 5100W        W 8619   1.939   0.999   3.055
 5101W        W 8620   9.721   3.588  11.459
 5102W        W 8621   4.545   5.586   0.172
 5103W        W 8622   3.860   8.174  11.410
 5104W        W 8623   8.762   7.057   0.280
 5105W        W 8624   1.088   3.372   3.392
 5106W        W 8625   0.681   0.839   8.574
 5107W        W 8626   9.527   9.390   9.613
 5108W        W 8627   4.037   0.900   3.311
 5109W        W 8628   7.971   8.779   3.035
 5110W        W 8629   7.575   4.381   9.966
 5111W        W 8630   0.517   3.029   0.649
 5112W        W 8631   8.164   6.206   3.659
 5113W        W 8632   0.407   3.348   9.584
 5114W        W 8633   0.909   2.230   8.740
 5115W        W 8634   5.621   8.316   8.799
 5116W        W 8635   1.484   7.450   2.819
 5117W        W 8636   5.833   8.915   9.677
 5118W        W 8637   3.210   4.689   9.211
 5119W        W 8638   8.417   5.721   1.587
 5120W        W 8639   3.986   4.712   2.640
 5121W        W 8640   2.220   6.234   0.438
 5122W        W 8641   6.791   0.592  11.444
 5123W        W 8642   2.921   8.961   0.092
 5124W        W 8643   1.363   0.629   0.072
 5125W        W 8644   9.827   4.860   2.158
 5126W        W 8645   6.305   5.544   2.762
 5127W        W 8646   3.477   0.587   0.300
 5128W        W 8647   2.184   9.194   1.587
 5129W        W 8648   8.640   2.261   1.451
 5130W        W 8649   9.487   5.340  11.423
 5131W        W 8650   4.159   0.837   1.384
 5132W        W 8651   8.457   3.506   0.696
 5133W        W 8652   7.306   0.635   1.555
 5134W        W 8653   9.011   5.860   2.277
 5135W        W 8654   8.578   9.667   0.259
 5136W        W 8655   5.839   3.051   8.763
 5137W        W 8656   0.033   5.460   9.890
 5138W        W 8657   1.054   0.349   9.853
 5139W        W 8658   3.134   6.718   8.356
 5140W        W 8659   8.263   0.659   3.195
 5141W        W 8660   4.482   3.221   0.688
 5142W        W 8661   2.743   5.531  10.986
 5143W        W 8662   1.694   3.175  11.338
 5144W        W 8663   2.141   0.397  11.963
 5145W        W 8664   7.898   3.021   2.216
 5146W        W 8665   5.726   9.874   2.309
 5147W        W 8666   3.528   2.657   1.473
 5148W        W 8667   9.637   9.968   0.231
 5149W        W 8668   8.321   5.111   9.919
 5150W        W 8669   6.171   9.018  10.636
 5151W        W 8670   5.891   6.396  11.125
 5152W        W 8671   0.450   1.560   0.006
 5153W        W 8672   6.178   4.697   0.018
 5154W        W 8673   6.259   4.152   0.675
 5155W        W 8674   9.407   9.262   8.661
 5156W        W 8675   9.426   7.085  11.186
 5157W        W 8676   5.668   1.439   0.579
 5158W        W 8677   4.209   5.055   9.848
 5159W        W 8678   7.658   4.714   8.994
 5160W        W 8679   1.283   7.143   0.174
 5161W        W 8680   2.383   5.244   2.801
 5162W        W 8681   5.396   4.917  10.452
 5163W        W 8682   9.455   5.515   0.686
 5164W        W 8683   2.349   7.873   1.829
 5165W        W 8684   6.686   1.426   8.547
 5166W        W 8685   4.253   6.419   2.752
 5167W        W 8686   6.919   8.754  10.051
 5168W        W 8687   4.248   8.905   2.418
 5169W        W 8688   0.771   6.132  11.834
 5170W        W 8689   9.805   4.631  10.022
 5171W        W 8690   7.656   1.017   2.364
 5172W        W 8691   6.052   2.847   2.127
 5173W        W 8692   7.919   9.428  11.664
 5174W        W 8693   3.742   1.976   2.834
 5175W        W 8694   2.851   5.093  11.273
 5176W        W 8695   3.834   4.152   3.807
 5177W        W 8696   9.012   9.838   1.627
 5178W        W 8697   8.956   8.073  10.776
 5179W        W 8698   8.421   5.181   2.287
 5180W        W 8699   4.480   4.235   9.697
 5181W        W 8700   8.827   3.723   2.050
 5182W        W 8701   5.961   6.960  11.916
 5183W        W 8702   1.071   5.005   0.470
 5184W        W 8703   1.880   7.666  11.266
 5185W        W 8704   3.830   3.003   2.385
 5186W        W 8705   2.922   8.880   3.260
 5187W        W 8706   5.595   7.114   4.084
 5188W        W 8707   5.536   2.591   3.010
 5189W        W 8708   1.764   0.058   2.642
 5190W        W 8709   0.552   3.522   8.910
 5191W        W 8710   8.029   1.216   2.658
 5192W        W 8711   7.662   9.764  10.933
 5193W        W 8712   5.159   3.540   4.041
 5194W        W 8713   3.900   9.892   0.512
 5195W        W 8714   6.951   9.035   9.197
 5196W        W 8715   2.212   3.820   2.755
 5197W        W 8716   7.396   3.616   0.460
 5198W        W 8717   0.015   5.987   1.448
 5199W        W 8718   9.620   1.437   1.666
 5200W        W 8719   6.891   9.823   3.154
 5201W        W 8720   7.861   7.678   1.745
 5202W        W 8721   6.429   7.279  10.998
 5203W        W 8722   1.708   5.425   8.752
 5204W        W 8723   1.820   5.513   1.491
 5205W        W 8724   9.764   8.035   9.066
 5206W        W 8725   1.542   0.176   9.752
 5207W        W 8726   0.702   7.298   1.228
 5208W        W 8727   2.363   4.759   9.829
 5209W        W 8728   2.055   4.065   0.492
 5210W        W 8729   7.151   5.577   8.928
 5211W        W 8730   9.754   0.829  10.823
 5212W        W 8731   8.033   6.113  10.046
 5213W        W 8732   2.200   4.229  10.552
 5214W        W 8733   3.936   5.427  11.407
 5215W        W 8734   1.383   8.427   0.619
 5216W        W 8735   5.520   1.818  10.047
 5217W        W 8736   8.291   2.387  10.066
 5218W        W 8737   9.516   1.431   2.162
 5219W        W 8738   3.761   2.215   0.751
 5220W        W 8739   1.756   1.521   9.091
 5221W        W 8740   3.603   5.952   8.739
 5222W        W 8741   3.044   1.864   8.605
 5223W        W 8742   9.301   6.341  11.398
 5224W        W 8743   0.151   0.638   0.220
 5225W        W 8744   4.590   2.174   3.000
 5226W        W 8745   9.872   9.385   1.800
 5227W        W 8746   8.956   5.114  11.725
 5228W        W 8747   2.172   3.732   0.882
 5229W        W 8748   3.511   1.839  10.003
 5230W        W 8749   4.629   9.567   9.346
 5231W        W 8750   6.268   3.777   1.748
 5232W        W 8751   2.256   8.302   3.198
 5233W        W 8752   7.896   2.259   2.665
 5234W        W 8753   5.296   5.067   1.254
 5235W        W 8754   4.250   5.475   9.557
 5236W        W 8755   4.201   4.574  10.127
 5237W        W 8756   9.351   9.909   1.207
 5238W        W 8757   5.498   2.336   1.061
 5239W        W 8758   2.656   0.488  10.283
 5240W        W 8759   8.504   5.480  11.259
 5241W        W 8760   4.935   7.081  11.930
 5242W        W 8761   6.005   1.802   3.143
 5243W        W 8762   3.957   0.359   0.321
 5244W        W 8763   9.037   5.378   1.161
 5245W        W 8764   1.663   6.207  11.222
 5246W        W 8765   0.420   3.031  11.709
 5247W        W 8766   9.140   9.454   9.266
 5248W        W 8767   3.117   0.364   2.440
 5249W        W 8768   4.975   6.378   3.266
 5250W        W 8769   6.505   3.669   9.224
 5251W        W 8770   1.490   2.925   3.572
 5252W        W 8771   1.684   8.076  10.991
 5253W        W 8772   3.207   5.596  10.674
 5254W        W 8773   8.592   3.381   2.347
 5255W        W 8774   1.408   6.990   1.142
 5256W        W 8775   9.186   4.185   2.022
 5257W        W 8776   1.199   3.082   1.701
 5258W        W 8777   4.193   9.380   9.058
 5259W        W 8778   8.305   7.518   1.274
 5260W        W 8779   3.498   8.160   9.361
 5261W        W 8780   3.164   6.032   8.442
 5262W        W 8781   5.466   6.607   4.062
 5263W        W 8782   6.779   4.032  11.848
 5264W        W 8783   0.698   7.077   1.760
 5265W        W 8784   7.701   5.617   0.437
 5266W        W 8785   2.171   0.898   0.039
 5267W        W 8786   0.059   2.829  10.867
 5268W        W 8787   8.752   9.458   8.859
 5269W        W 8788   5.941   4.046   2.105
 5270W        W 8789   7.620   6.542   0.595
 5271W        W 8790   2.759   7.758   2.620
 5272W        W 8791   5.701   9.390   2.126
 5273W        W 8792   1.337   6.104  10.021
 5274W        W 8793   1.171   6.706  11.830
 5275W        W 8794   3.246   6.689   8.872
 5276W        W 8795   2.689   5.654   2.764
 5277W        W 8796   3.498   8.089   8.854
 5278W        W 8797   8.083   5.655  10.964
 5279W        W 8798   9.357   6.158   9.201
 5280W        W 8799   4.948   1.840   0.237
 5281W        W 8800   7.703   7.328   2.785
 5282W        W 8801   2.699   4.249  11.905
 5283W        W 8802   8.777   3.895   2.614
 5284W        W 8803   4.951   9.224  11.012
 5285W        W 8804   0.252   8.519   3.126
 5286W        W 8805   6.461   4.136   2.094
 5287W        W 8806   4.029   4.351  11.534
 5288W        W 8807   1.429   9.702   1.783
 5289W        W 8808   8.319   3.064   2.633
 5290W        W 8809   3.311   1.863   1.689
 5291W        W 8810   8.413   3.071   8.475
 5292W        W 8811   8.420   4.430   1.844
 5293W        W 8812   7.565   6.383   8.695
 5294W        W 8813   0.742   4.503   1.427
 5295W        W 8814   1.148   8.035  10.211
 5296W        W 8815   2.251   2.932  10.946
 5297W        W 8816   4.295   3.648  11.100
 5298W        W 8817   3.527   0.102   0.177
 5299W        W 8818   5.169   4.111  11.076
 5300W        W 8819   4.518   1.362  11.550
 5301W        W 8820   9.128   2.222   9.686
 5302W        W 8821   1.814   6.245   8.914
 5303W        W 8822   5.482   3.343   9.844
 5304W        W 8823   6.646   2.712  10.957
 5305W        W 8824   6.067   4.956   0.449
 5306W        W 8825   3.186   1.255   3.118
 5307W        W 8826   4.986   8.557   9.527
 5308W        W 8827   0.718   1.676  10.358
 5309W        W 8828   8.852   3.238   0.451
 5310W        W 8829   8.090   9.785   2.818
 5311W        W 8830   9.878   3.389  10.970
 5312W        W 8831   9.973   8.843   1.512
 5313W        W 8832   1.167   8.016  10.733
 5314W        W 8833   0.852   8.402  11.106
 5315W        W 8834   3.606   0.095   2.013
 5316W        W 8835   3.225   2.003  10.897
 5317W        W 8836   4.074   0.896   9.002
 5318W        W 8837   0.053   1.011  10.456
 5319W        W 8838   4.104   5.809  10.320
 5320W        W 8839   9.739   6.995   1.460
 5321W        W 8840   4.323   1.164   0.467
 5322W        W 8841   1.619   7.224  11.247
 5323W        W 8842   8.386   0.264   2.275
 5324W        W 8843   6.113   6.420   0.449
 5325W        W 8844   9.032   2.173   1.769
 5326W        W 8845   8.203   1.945  11.770
 5327W        W 8846   4.990   4.343  11.509
 5328W        W 8847   0.275   2.355   0.315
 5329W        W 8848   1.961   2.247   3.882
 5330W        W 8849   4.757   5.574   9.647
 5331W        W 8850   3.719   9.500   1.508
 5332W        W 8851   9.195   1.872  11.891
 5333W        W 8852   3.855   6.266   4.395
 5334W        W 8853   2.669   7.518   0.216
 5335W        W 8854   1.386   0.856  11.373
 5336W        W 8855   2.705   2.931  11.252
 5337W        W 8856   2.593   8.017   9.395
 5338W        W 8857   2.197   3.467  11.907
 5339W        W 8858   9.141   7.434   0.001
 5340W        W 8859   4.594   3.167  11.665
 5341W        W 8860   3.600   7.421   0.042
 5342W        W 8861   8.111   7.585  10.712
 5343W        W 8862   8.675   6.516  10.144
 5344W        W 8863   3.953   5.739   4.223
 5345W        W 8864   0.997   9.313   8.987
 5346W        W 8865   0.869   2.607  11.118
 5347W        W 8866   4.193   6.340  11.666
 5348W        W 8867   5.104   8.809   2.233
 5349W        W 8868   6.272   4.563   8.643
 5350W        W 8869   1.746   6.672  10.396
 5351W        W 8870   6.758   8.483   0.879
 5352W        W 8871   4.619   8.413  11.882
 5353W        W 8872   8.913   4.607   1.824
 5354W        W 8873   2.360   0.797   1.746
 5355W        W 8874   4.638   5.453   9.126
 5356W        W 8875   8.407   5.841   0.725
 5357W        W 8876   2.442   0.342  11.293
 5358W        W 8877   5.758   6.853   8.203
 5359W        W 8878   7.959   9.095   3.459
 5360W        W 8879   8.967   6.668  10.838
 5361W        W 8880   5.647   2.709  10.839
 5362W        W 8881   6.532   6.544  10.590
 5363W        W 8882   3.348   7.535  10.737
 5364W        W 8883   3.212   4.299   2.384
 5365W        W 8884   7.375   9.710   3.224
 5366W        W 8885   8.541   2.331  11.752
 5367W        W 8886   8.896   1.752   9.818
 5368W        W 8887   3.459   5.098   8.540
 5369W        W 8888   2.258   2.621   9.993
 5370W        W 8889   0.894   7.555   3.503
 5371W        W 8890   8.381   0.858   2.721
 5372W        W 8891   2.987   9.978   1.001
 5373W        W 8892   1.926   0.473   9.960
 5374W        W 8893   1.245   4.637   2.422
 5375W        W 8894   5.982   3.188  11.807
 5376W        W 8895   4.927   6.568   4.090
 5377W        W 8896   5.965   2.265   0.866
 5378W        W 8897   7.500   3.528   3.008
 5379W        W 8898   2.646   2.894   1.013
 5380W        W 8899   1.448   0.733   1.797
 5381W        W 8900   2.539   1.009   0.366
 5382W        W 8901   3.256   1.480   8.888
 5383W        W 8902   1.788   4.707   9.936
 5384W        W 8903   0.050   1.707  11.740
 5385W        W 8904   6.130   6.002  10.748
 5386W        W 8905   8.232   8.579  11.406
 5387W        W 8906   1.465   0.853  10.849
 5388W        W 8907   6.861   9.048   0.414
 5389W        W 8908   0.100   4.804  11.426
 5390W        W 8909   0.432   5.876  11.308
 5391W        W 8910   2.585   1.306   1.899
 5392W        W 8911   6.677   6.427  10.084
 5393W        W 8912   6.721   3.888   0.805
 5394W        W 8913   6.693   5.165   3.647
 5395W        W 8914   6.662   9.852  10.993
 5396W        W 8915   4.505   5.845   8.816
 5397W        W 8916   2.233   5.654   2.461
 5398W        W 8917   7.020   0.713   9.510
 5399W        W 8918   0.326   3.341   2.742
 5400W        W 8919   6.492   2.244   8.654
 5401W        W 8920   6.951   6.252   0.941
 5402W        W 8921   6.181   1.875  10.278
 5403W        W 8922   9.368   9.225   0.015
 5404W        W 8923   6.753   5.905  10.193
 5405W        W 8924   2.173   4.315  10.018
 5406W        W 8925   6.664   5.823   0.831
 5407W        W 8926   8.922   5.992  11.459
 5408W        W 8927   6.537   8.030   3.001
 5409W        W 8928   6.490   0.670   1.287
 5410W        W 8929   2.955   3.270  10.953
 5411W        W 8930   2.315   9.270  10.901
 5412W        W 8931   1.273   6.226   0.631
 5413W        W 8932   7.760   2.655   3.405
 5414W        W 8933   1.679   3.267   2.382
 5415W        W 8934   1.728   1.248   2.226
 5416W        W 8935   5.593   4.473   1.109
 5417W        W 8936   2.029   6.464  11.932
 5418W        W 8937   0.888   8.858   9.200
 5419W        W 8938   8.033   5.608   9.926
 5420W        W 8939   6.958   8.252   8.568
 5421W        W 8940   5.341   1.044  11.556
 5422W        W 8941   5.034   1.701   9.947
 5423W        W 8942   9.477   1.437   2.710
 5424W        W 8943   5.955   0.505  10.376
 5425W        W 8944   8.434   9.742   2.410
 5426W        W 8945   1.181   2.506   3.362
 5427W        W 8946   9.460   6.508  10.811
 5428W        W 8947   6.063   7.958  11.218
 5429W        W 8948   2.289   7.911   2.802
 5430W        W 8949   1.261   1.328   9.133
 5431W        W 8950   5.278   1.973   9.576
 5432W        W 8951   5.715   8.119   9.418
 5433W        W 8952   6.439   2.068   3.099
 5434W        W 8953   1.219   8.921   2.530
 5435W        W 8954   3.481   5.211   3.307
 5436W        W 8955   2.649   6.401   2.672
 5437W        W 8956   9.028   4.179   9.577
 5438W        W 8957   3.380   4.725  10.220
 5439W        W 8958   2.647   9.202   2.405
 5440W        W 8959   2.251   2.160   9.584
 5441W        W 8960   2.714   7.418   0.702
 5442W        W 8961   0.219   1.718   8.919
 5443W        W 8962   5.428   1.500   2.745
 5444W        W 8963   9.205   1.814   1.020
 5445W        W 8964   5.443   1.815   0.302
 5446W        W 8965   6.136   2.331  10.530
 5447W        W 8966   1.533   8.335   9.181
 5448W        W 8967   9.186   6.634   0.689
 5449W        W 8968   0.046   4.786   8.776
 5450W        W 8969   1.925   4.730   9.051
 5451W        W 8970   9.462   2.226   0.267
 5452W        W 8971   0.579   4.657  11.421
 5453W        W 8972   7.763   9.246   1.288
 5454W        W 8973   6.533   1.312  11.013
 5455W        W 8974   0.112   2.874   9.607
 5456W        W 8975   4.729   6.372   8.110
 5457W        W 8976   2.844   6.851  10.256
 5458W        W 8977   3.214   8.756   0.474
 5459W        W 8978   3.598   7.125   2.067
 5460W        W 8979   8.004   4.178   9.719
 5461W        W 8980   2.142   8.336   1.697
 5462W        W 8981   9.257   4.509   3.441
 5463W        W 8982   0.002   3.253   9.922
 5464W        W 8983   2.677   7.164   1.141
 5465W        W 8984   0.035   4.265   0.143
 5466W        W 8985   4.347   5.436  11.731
 5467W        W 8986   8.918   4.623  11.541
 5468W        W 8987   9.710   6.636   3.318
 5469W        W 8988   4.699   3.407   2.423
 5470W        W 8989   2.288   2.737   1.873
 5471W        W 8990   1.881   9.184   0.596
 5472W        W 8991   9.094   1.735  11.397
 5473W        W 8992   5.512   5.919   0.870
 5474W        W 8993   9.836   2.509   0.670
 5475W        W 8994   9.771   5.708   8.589
 5476W        W 8995   9.972   1.068   1.791
 5477W        W 8996   0.341   1.399  10.562
 5478W        W 8997   7.659   7.552  11.665
 5479W        W 8998   2.630   8.462   1.476
 5480W        W 8999   3.969   1.362   2.122
 5481W        W 9000   6.071   8.057  10.204
 5482W        W 9001   1.195   5.181   2.209
 5483W        W 9002   7.087   1.520   9.749
 5484W        W 9003   9.933   4.252   0.786
 5485W        W 9004   1.180   4.024  10.039
 5486W        W 9005   9.873   2.233   2.631
 5487W        W 9006   5.218   5.202   9.584
 5488W        W 9007   6.085   7.951   1.455
 5489W        W 9008   8.118   5.919   0.294
 5490W        W 9009   8.978   0.900   2.040
 5491W        W 9010   4.137   8.855   9.812
 5492W        W 9011   9.497   8.397   3.662
 5493W        W 9012   9.820   1.300  11.972
 5494W        W 9013   2.045   6.511   0.864
 5495W        W 9014   5.566   4.419   8.982
 5496W        W 9015   5.122   0.182  10.039
 5497W        W 9016   9.482   3.619   2.132
 5498W        W 9017   0.886   5.632   1.783
 5499W        W 9018   8.905   7.593   3.238
 5500W        W 9019   5.737   1.824  11.244
 5501W        W 9020   0.737   2.412   1.456
 5502W        W 9021   6.119   5.724   9.567
 5503W        W 9022   5.937   1.521   8.950
 5504W        W 9023   9.824   0.874   2.772
 5505W        W 9024   6.508   3.507   8.740
 5506W        W 9025   9.448   4.426   3.903
 5507W        W 9026   8.908   7.987   9.213
 5508W        W 9027   7.096   0.951   0.293
 5509W        W 9028   3.774   9.435   3.155
 5510W        W 9029   9.924   8.167   8.587
 5511W        W 9030   1.066   7.503   2.517
 5512W        W 9031   5.194   1.881   3.382
 5513W        W 9032   8.516   7.120   3.510
 5514W        W 9033   3.145   4.389  11.557
 5515W        W 9034   4.515   3.834   0.196
 5516W        W 9035   7.470   1.321   1.988
 5517W        W 9036   0.365   5.219   8.813
 5518W        W 9037   7.387   5.700  11.980
 5519W        W 9038   9.040   0.415  11.014
 5520W        W 9039   9.005   5.807   1.464
 5521W        W 9040   3.485   1.935   0.399
 5522W        W 9041   8.347   7.073   0.539
 5523W        W 9042   4.187   7.936  10.474
 5524W        W 9043   0.022   2.213   9.968
 5525W        W 9044   8.172   0.563  10.871
 5526W        W 9045   5.210   8.691   0.752
 5527W        W 9046   7.098   1.648   0.764
 5528W        W 9047   7.872   1.137   1.694
 5529W        W 9048   6.386   4.648  10.347
 5530W        W 9049   6.934   6.333   9.300
 5531W        W 9050   0.176   7.320  10.655
 5532W        W 9051   4.149   7.308   1.468
 5533W        W 9052   9.680   2.871  10.556
 5534W        W 9053   9.667   4.840   3.621
 5535W        W 9054   9.495   5.197  10.920
 5536W        W 9055   5.289   4.462  11.905
 5537W        W 9056   8.366   9.812  11.663
 5538W        W 9057   5.243   9.738   0.834
 5539W        W 9058   0.418   9.847   9.024
 5540W        W 9059   3.750   9.741   8.470
 5541W        W 9060   6.695   4.281   8.528
 5542W        W 9061   1.484   9.368   8.781
 5543W        W 9062   6.021   5.162  11.834
 5544W        W 9063   7.740   1.589  11.151
 5545W        W 9064   7.564   5.379   9.704
 5546W        W 9065   3.475   2.529  11.415
 5547W        W 9066   7.800   8.434   1.233
 5548W        W 9067   6.083   4.222   2.571
 5549W        W 9068   4.101   7.025   1.917
 5550W        W 9069   9.341   3.883   9.824
 5551W        W 9070   5.345   0.286  10.871
 5552W        W 9071   6.644   4.657   2.212
 5553W        W 9072   5.954   8.578   2.532
 5554W        W 9073   2.397   5.733   0.481
 5555W        W 9074   5.793   4.317  11.906
 5556W        W 9075   4.182   0.850  10.070
 5557W        W 9076   3.609   4.694   2.973
 5558W        W 9077   7.283   0.854   9.003
 5559W        W 9078   5.318   8.963   9.619
 5560W        W 9079   1.314   9.874   2.877
 5561W        W 9080   0.130   4.552   9.647
 5562W        W 9081   3.844   6.742   8.319
 5563W        W 9082   2.259   5.202  10.044
 5564W        W 9083   4.376   6.085   1.291
 5565W        W 9084   3.234   7.860   1.416
 5566W        W 9085   6.424   6.365   1.823
 5567W        W 9086   2.446   4.857   1.005
 5568W        W 9087   8.803   5.367   1.634
 5569W        W 9088   7.136   9.731   1.122
 5570W        W 9089   2.379   2.303  10.577
 5571W        W 9090   7.488   8.632   9.052
 5572W        W 9091   2.906   3.136  11.948
 5573W        W 9092   4.388   4.841   0.829
 5574W        W 9093   6.462   0.392  11.768
 5575W        W 9094   3.896   8.530   1.107
 5576W        W 9095   2.515   5.360   3.724
 5577W        W 9096   6.477   8.948   1.979
 5578W        W 9097   1.019   1.179   3.522
 5579W        W 9098   8.694   2.822  10.550
 5580W        W 9099   3.651   4.910   1.258
 5581W        W 9100   7.326   5.201  10.897
 5582W        W 9101   7.423   3.519  11.430
 5583W        W 9102   2.138   3.221   1.811
 5584W        W 9103   3.206   3.664   1.584
 5585W        W 9104   4.377   1.111  11.955
 5586W        W 9105   7.126   7.295  10.433
 5587W        W 9106   0.887   3.475  10.148
 5588W        W 9107   8.022   7.237   3.385
 5589W        W 9108   0.797   2.066   2.690
 5590W        W 9109   4.043   9.386   0.079
 5591W        W 9110   7.661   6.438   9.892
 5592W        W 9111   8.196   5.150  11.001
 5593W        W 9112   4.470   5.364   0.795
 5594W        W 9113   7.892   2.090   9.940
 5595W        W 9114   3.279   5.419   1.830
 5596W        W 9115   4.149   0.445   3.162
 5597W        W 9116   7.699   2.158   3.532
 5598W        W 9117   7.981   0.237   3.077
 5599W        W 9118   7.325   0.309   9.695
 5600W        W 9119   8.839   3.500   1.550
 5601W        W 9120   8.402   1.232   9.084
 5602W        W 9121   4.771   5.738   0.594
 5603W        W 9122   5.760   3.720   1.715
 5604W        W 9123   9.432   3.320  10.622
 5605W        W 9124   6.485   2.585   9.029
 5606W        W 9125   1.445   7.639  10.972
 5607W        W 9126   4.812   4.848  11.128
 5608W        W 9127   4.274   9.025  11.811
 5609W        W 9128   9.387   2.837   1.961
 5610W        W 9129   5.506   5.422   1.554
 5611W        W 9130   2.759   5.688   0.916
 5612W        W 9131   1.136   2.802   9.473
 5613W        W 9132   4.616   4.996  11.575
 5614W        W 9133   5.556   9.359   2.616
 5615W        W 9134   9.017   8.679   9.927
 5616W        W 9135   3.714   1.755  11.912
 5617W        W 9136   6.996   3.891   1.249
 5618W        W 9137   4.714   8.554   3.156
 5619W        W 9138   6.607   1.163   1.275
 5620W        W 9139   5.295   8.355   9.179
 5621W        W 9140   6.093   2.830   9.237
 5622W        W 9141   9.290   6.702   9.258
 5623W        W 9142   3.076   8.464   2.104
 5624W        W 9143   7.068   1.813   2.338
 5625W        W 9144   5.694   7.040  11.487
 5626W        W 9145   5.904   8.659   1.963
 5627W        W 9146   7.606   8.895   0.933
 5628W        W 9147   6.004   8.412   3.485
 5629W        W 9148   5.928   8.475   9.934
 5630W        W 9149   1.742   3.554   9.075
 5631W        W 9150   9.075   1.772   3.072
 5632W        W 9151   1.054   2.067   3.689
 5633W        W 9152   9.051   0.831  11.360
 5634W        W 9153   0.973   3.774  11.820
 5635W        W 9154   7.279   0.376  10.629
 5636W        W 9155   2.382   8.779   1.774
 5637W        W 9156   5.820   6.095   8.773
 5638W        W 9157   1.148   9.807   2.351
 5639W        W 9158   7.299   8.150   8.971
 5640W        W 9159   4.306   7.541   8.720
 5641W        W 9160   9.044   8.937   1.456
 5642W        W 9161   0.297   5.165   1.174
 5643W        W 9162   0.487   9.828  10.042
 5644W        W 9163   5.187   3.555  11.073
 5645W        W 9164   0.858   4.402   2.673
 5646W        W 9165   1.901   2.166  10.432
 5647W        W 9166   7.109   5.107   9.826
 5648W        W 9167   1.380   6.995   3.102
 5649W        W 9168   3.042   4.518   3.760
 5650W        W 9169   5.954   3.675  10.437
 5651W        W 9170   7.374   4.751  10.656
 5652W        W 9171   7.937   3.071  10.787
 5653W        W 9172   1.187   0.866   8.504
 5654W        W 9173   6.723   8.781   9.580
 5655W        W 9174   6.719   7.724  11.857
 5656W        W 9175   3.812   2.332   3.214
 5657W        W 9176   4.067   0.340  10.187
 5658W        W 9177   2.129   2.263   1.788
 5659W        W 9178   1.748   2.252   9.391
 5660W        W 9179   4.632   5.619   3.197
 5661W        W 9180   3.091   0.854   2.211
 5662W        W 9181   6.949   9.097  10.984
 5663W        W 9182   4.917   2.853   1.315
 5664W        W 9183   1.910   6.746   3.870
 5665W        W 9184   3.338   2.539   9.208
 5666W        W 9185   5.033   9.524   0.419
 5667W        W 9186   1.355   1.747   9.788
 5668W        W 9187   4.474   4.954   9.000
 5669W        W 9188   1.644   9.975  11.378
 5670W        W 9189   0.539   4.218   0.327
 5671W        W 9190   7.268   9.305   1.367
 5672W        W 9191   9.769   2.660   9.276
 5673W        W 9192   0.838   5.859   1.319
 5674W        W 9193   1.422   9.330   0.385
 5675W        W 9194   0.137   6.415   0.841
 5676W        W 9195   9.367   8.343   2.988
 5677W        W 9196   3.783   2.947   2.917
 5678W        W 9197   1.108   6.480   1.047
 5679W        W 9198   9.381   8.256   8.771
 5680W        W 9199   3.752   2.784   1.912
 5681W        W 9200   5.441   4.153   0.291
 5682W        W 9201   7.884   8.306   8.953
 5683W        W 9202   9.428   6.685   9.747
 5684W        W 9203   1.725   1.694  10.629
 5685W        W 9204   2.913   4.762   1.187
 5686W        W 9205   0.755   7.586   1.702
 5687W        W 9206   9.564   4.425   2.378
 5688W        W 9207   3.820   4.819   3.422
 5689W        W 9208   8.075   3.720   0.444
 5690W        W 9209   5.183   7.720   0.546
 5691W        W 9210   5.186   7.795   4.374
 5692W        W 9211   5.243   3.836  10.654
 5693W        W 9212   6.233   7.297   2.153
 5694W        W 9213   7.772   0.410   1.544
 5695W        W 9214   0.847   6.159   2.434
 5696W        W 9215   6.852   4.440   0.852
 5697W        W 9216   3.314   4.532   1.457
 5698W        W 9217   9.421   0.119   1.771
 5699W        W 9218   2.730   6.027   9.774
 5700W        W 9219   2.736   4.603   3.324
 5701W        W 9220   9.689   8.863  10.812
 5702W        W 9221   0.900   5.850   9.853
 5703W        W 9222   5.161   5.679  10.651
 5704W        W 9223   5.248   5.694   9.787
 5705W        W 9224   6.672   5.716   0.344
 5706W        W 9225   1.529   4.818  10.474
 5707W        W 9226   6.922   2.593   1.844
 5708W        W 9227   1.105   9.565   1.389
 5709W        W 9228   7.536   0.504   2.388
 5710W        W 9229   1.765   8.549  11.265
 5711W        W 9230   1.385   9.536  11.367
 5712W        W 9231   7.824   0.549   9.023
 5713W        W 9232   1.848   9.581   0.924
 5714W        W 9233   6.044   5.269   2.425
 5715W        W 9234   2.005   1.039   8.534
 5716W        W 9235   1.734   1.730  11.561
 5717W        W 9236   4.268   9.479   3.261
 5718W        W 9237   2.486   1.259  10.451
 5719W        W 9238   3.217   5.173   1.211
 5720W        W 9239   5.918   9.014   2.755
 5721W        W 9240   6.642   6.258   1.368
 5722W        W 9241   1.935   3.095  10.445
 5723W        W 9242   2.247   9.005   9.308
 5724W        W 9243   5.052   9.376   9.096
 5725W        W 9244   6.163   9.851   9.986
 5726W        W 9245   7.079   6.058   2.817
 5727W        W 9246   2.839   4.553   1.659
 5728W        W 9247   6.000   5.046  11.176
 5729W        W 9248   3.239   2.802   1.875
 5730W        W 9249   0.426   6.916   8.719
 5731W        W 9250   7.143   3.990   0.202
 5732W        W 9251   5.125   6.164  11.566
 5733W        W 9252   7.122   8.473   9.413
 5734W        W 9253   9.814   9.797   9.747
 5735W        W 9254   7.553   6.318  11.292
 5736W        W 9255   1.921   0.569   3.340
 5737W        W 9256   8.774   7.586  10.715
 5738W        W 9257   3.221   6.306   0.183
 5739W        W 9258   1.231   6.010   9.115
 5740W        W 9259   5.518   9.386  11.187
 5741W        W 9260   1.549   1.345   9.545
 5742W        W 9261   0.487   6.417   8.552
 5743W        W 9262   9.516   4.010   1.054
 5744W        W 9263   3.307   6.882   1.675
 5745W        W 9264   5.100   3.052   2.958
 5746W        W 9265   5.019   0.472  10.484
 5747W        W 9266   8.354   2.613   3.388
 5748W        W 9267   3.222   6.385  11.290
 5749W        W 9268   3.142   6.134   3.251
 5750W        W 9269   4.952   3.243   9.082
 5751W        W 9270   3.675   3.978   9.554
 5752W        W 9271   7.948   1.005  11.067
 5753W        W 9272   6.965   9.474   8.852
 5754W        W 9273   6.476   0.829   9.593
 5755W        W 9274   8.903   0.847   9.923
 5756W        W 9275   6.112   7.262   9.545
 5757W        W 9276   6.222   1.507   1.332
 5758W        W 9277   8.488   3.987   0.190
 5759W        W 9278   3.532   8.015  10.826
 5760W        W 9279   3.136   6.940   3.067
 5761W        W 9280   1.315   4.184   3.226
 5762W        W 9281   1.744   4.096   2.933
 5763W        W 9282   2.732   5.503  10.486
 5764W        W 9283   1.356   7.844   1.742
 5765W        W 9284   4.645   2.249   0.121
 5766W        W 9285   7.520   1.417   0.964
 5767W        W 9286   3.569   8.351   2.258
 5768W        W 9287   5.374   0.234   2.207
 5769W        W 9288   2.704   8.243   2.498
 5770W        W 9289   7.691   7.004   8.583
 5771W        W 9290   6.770   2.222   3.453
 5772W        W 9291   1.294   8.498  11.475
 5773W        W 9292   2.581   7.594   1.432
 5774W        W 9293   2.736   8.824  10.956
 5775W        W 9294   9.607   5.856   2.096
 5776W        W 9295   5.946   1.384   2.826
 5777W        W 9296   5.873   8.415   1.483
 5778W        W 9297   0.460   6.797   1.325
 5779W        W 9298   3.906   0.170   9.529
 5780W        W 9299   4.285   6.196   2.266
 5781W        W 9300   9.961   6.402   0.241
 5782W        W 9301   4.734   8.226   9.919
 5783W        W 9302   9.035   9.428  11.068
 5784W        W 9303   2.354   3.634   9.869
 5785W        W 9304   3.198   5.627   3.161
 5786W        W 9305   4.703   8.139   9.429
 5787W        W 9306   6.804   5.130   1.285
 5788W        W 9307   4.322   5.952   9.850
 5789W        W 9308   8.358   5.319  11.767
 5790W        W 9309   5.703   8.852  11.577
 5791W        W 9310   2.764   0.949  10.095
 5792W        W 9311   9.153   6.490   8.812
 5793W        W 9312   6.681   6.233   0.418
 5794W        W 9313   6.389   1.645   3.424
 5795W        W 9314   4.213   4.781   0.354
 5796W        W 9315   7.072   8.881   3.232
 5797W        W 9316   6.435   6.090   9.306
 5798W        W 9317   4.822   2.702   3.752
 5799W        W 9318   6.635   8.032   1.490
 5800W        W 9319   0.175   4.671  10.950
 5801W        W 9320   0.301   4.187  10.025
 5802W        W 9321   4.580   1.409  11.037
 5803W        W 9322   3.553   8.578  11.510
 5804W        W 9323   5.612   2.444  11.886
 5805W        W 9324   5.623   6.460   9.072
 5806W        W 9325   5.509   3.876   1.131
 5807W        W 9326   4.825   4.209   2.764
 5808W        W 9327   0.936   0.157   0.480
 5809W        W 9328   4.486   5.964   2.693
 5810W        W 9329   4.488   3.575   1.224
 5811W        W 9330   0.893   9.474  10.070
 5812W        W 9331   9.368   9.689   2.668
 5813W        W 9332   1.435   0.669   9.894
 5814W        W 9333   3.213   9.973  10.271
 5815W        W 9334   9.470   8.450  11.273
 5816W        W 9335   7.052   3.306  10.763
 5817W        W 9336   9.842   6.146   3.361
 5818W        W 9337   8.373   1.658   2.129
 5819W        W 9338   4.214   1.541   0.139
 5820W        W 9339   3.705   7.604   8.873
 5821W        W 9340   1.277   1.676  10.310
 5822W        W 9341   9.252   4.006   2.483
 5823W        W 9342   7.268   5.284   1.179
 5824W        W 9343   5.314   2.631   3.864
 5825W        W 9344   7.137   6.742  11.887
 5826W        W 9345   2.628   9.898   9.468
 5827W        W 9346   4.666   2.600   2.767
 5828W        W 9347   6.964   3.146  11.751
 5829W        W 9348   1.793   3.729   1.252
 5830W        W 9349   0.825   6.245   2.988
 5831W        W 9350   4.112   9.065   1.968
 5832W        W 9351   6.296   9.969   9.145
 5833W        W 9352   9.734   3.768   9.473
 5834W        W 9353   2.582   8.352   1.989
 5835W        W 9354   3.982   8.989  10.255
 5836W        W 9355   4.134   6.920   2.796
 5837W        W 9356   3.110   4.176  11.035
 5838W        W 9357   0.302   3.128   1.774
 5839W        W 9358   1.777   8.161   3.915
 5840W        W 9359   1.019   2.953  10.066
 5841W        W 9360   7.061   3.186  11.246
 5842W        W 9361   0.871   5.984   0.353
 5843W        W 9362   3.120   3.851   0.417
 5844W        W 9363   0.934   1.104  11.261
 5845W        W 9364   0.886   7.039  10.851
 5846W        W 9365   6.718   7.014  11.338
 5847W        W 9366   6.546   3.331  11.435
 5848W        W 9367   3.445   2.587   2.288
 5849W        W 9368   9.084   4.346   2.972
 5850W        W 9369   8.437   7.410  11.076
 5851W        W 9370   8.240   8.857  10.954
 5852W        W 9371   0.188   8.929  10.795
 5853W        W 9372   4.731   3.481  11.286
 5854W        W 9373   3.776   7.108   9.936
 5855W        W 9374   3.783   5.914  11.243
 5856W        W 9375   5.695   5.974  11.605
 5857W        W 9376   1.225   8.861  11.843
 5858W        W 9377   1.268   1.907  11.525
 5859W        W 9378   2.840   7.111   9.731
 5860W        W 9379   4.726   4.138   3.632
 5861W        W 9380   6.046   9.511   2.504
 5862W        W 9381   8.974   4.106  11.563
 5863W        W 9382   3.444   2.691   9.764
 5864W        W 9383   7.885   3.580   3.332
 5865W        W 9384   0.911   7.722   9.636
 5866W        W 9385   4.734   1.954  10.337
 5867W        W 9386   8.548   6.776   2.899
 5868W        W 9387   3.136   0.605   1.409
 5869W        W 9388   4.604   2.858   9.942
 5870W        W 9389   5.069   0.692  10.006
 5871W        W 9390   7.411   6.786  11.107
 5872W        W 9391   4.451   8.224   1.871
 5873W        W 9392   9.888   6.658  11.777
 5874W        W 9393   1.371   1.690   8.778
 5875W        W 9394   4.228   6.637   8.684
 5876W        W 9395   9.086   4.024   3.542
 5877W        W 9396   2.768   2.672   1.768
 5878W        W 9397   0.835   2.529   2.951
 5879W        W 9398   5.997   3.252   2.933
 5880W        W 9399   6.906   6.876   8.906
 5881W        W 9400   9.847   5.964   9.446
 5882W        W 9401   7.388   8.023  10.003
 5883W        W 9402   9.934   2.033   3.702
 5884W        W 9403   0.288   7.422  10.156
 5885W        W 9404   4.627   6.214  11.350
 5886W        W 9405   4.117   3.571   0.848
 5887W        W 9406   3.087   0.421  10.637
 5888W        W 9407   6.772   1.221   9.441
 5889W        W 9408   5.377   2.325   3.477
 5890W        W 9409   5.634   4.769   0.136
 5891W        W 9410   1.836   0.003  10.161
 5892W        W 9411   5.138   4.595   2.575
 5893W        W 9412   7.317   2.674   9.063
 5894W        W 9413   2.817   0.423   3.079
 5895W        W 9414   0.166   9.036   2.366
 5896W        W 9415   7.925   6.898   1.270
 5897W        W 9416   0.853   1.367   2.191
 5898W        W 9417   0.925   8.441  11.827
 5899W        W 9418   7.290   1.182  11.509
 5900W        W 9419   9.141   6.551  10.366
 5901W        W 9420   2.654   9.718   2.310
 5902W        W 9421   2.616   3.136   2.020
 5903W        W 9422   7.143   5.653   9.899
 5904W        W 9423   3.878   4.731   0.802
 5905W        W 9424   2.413   0.611   9.807
 5906W        W 9425   0.382   0.900   9.335
 5907W        W 9426   0.856   1.204   1.300
 5908W        W 9427   3.970   9.525   9.500
 5909W        W 9428   7.522   8.169   0.267
 5910W        W 9429   2.359   5.105  11.073
 5911W        W 9430   0.293   0.638   8.239
 5912W        W 9431   9.858   2.720  10.068
 5913W        W 9432   6.498   5.478   1.794
 5914W        W 9433   5.020   1.564   9.404
 5915W        W 9434   1.339   0.461   0.560
 5916W        W 9435   9.995   1.616   9.375
 5917W        W 9436   0.586   6.550   9.047
 5918W        W 9437   5.117   4.844  11.592
 5919W        W 9438   7.191   4.854   1.478
 5920W        W 9439   6.547   8.581   8.608
 5921W        W 9440   8.138   2.369   9.565
 5922W        W 9441   1.629   7.164  10.381
 5923W        W 9442   6.262   9.450   2.021
 5924W        W 9443   3.116   8.930   8.770
 5925W        W 9444   5.589   7.925   1.308
 5926W        W 9445   5.738   4.122   0.732
 5927W        W 9446   2.776   9.560   2.784
 5928W        W 9447   1.249   5.948   1.595
 5929W        W 9448   1.868   3.310   0.891
 5930W        W 9449   8.629   6.279   2.898
 5931W        W 9450   3.429   5.246   9.988
 5932W        W 9451   8.866   6.133   9.033
 5933W        W 9452   8.114   4.579   9.188
 5934W        W 9453   8.858   2.761   0.233
 5935W        W 9454   6.244   2.155   3.560
 5936W        W 9455   0.539   5.205  10.094
 5937W        W 9456   3.711   8.764   8.636
 5938W        W 9457   5.530   5.357   2.128
 5939W        W 9458   1.728   4.200   3.557
 5940W        W 9459   9.563   6.993   0.759
 5941W        W 9460   1.338   9.472   0.921
 5942W        W 9461   7.643   5.596   0.946
 5943W        W 9462   0.786   3.274   1.408
 5944W        W 9463   9.210   9.664   3.417
 5945W        W 9464   1.227   7.006   2.622
 5946W        W 9465   3.091   4.244   3.268
 5947W        W 9466   3.552   2.951   8.791
 5948W        W 9467   5.293   1.243   1.415
 5949W        W 9468   4.470   0.211   0.369
 5950W        W 9469   2.190   5.652   3.036
 5951W        W 9470   9.025   8.452   3.358
 5952W        W 9471   6.212   9.094  11.677
 5953W        W 9472   7.166   8.665   1.908
 5954W        W 9473   1.383   4.765   1.945
 5955W        W 9474   3.225   7.067  11.915
 5956W        W 9475   5.951   2.271  10.007
 5957W        W 9476   3.066   7.387   1.389
 5958W        W 9477   1.823   6.576   0.420
 5959W        W 9478   4.277   2.162   3.399
 5960W        W 9479   1.067   0.731   1.410
 5961W        W 9480   8.296   0.652  11.982
 5962W        W 9481   4.032   5.077  11.923
 5963W        W 9482   2.648   5.710   9.331
 5964W        W 9483   4.726   4.424   0.746
 5965W        W 9484   5.695   6.284   1.650
 5966W        W 9485   7.486   0.993   2.839
 5967W        W 9486   1.617   7.384   8.763
 5968W        W 9487   1.901   9.116  11.283
 5969W        W 9488   8.486   8.013   0.579
 5970W        W 9489   3.688   6.157   3.407
 5971W        W 9490   6.706   2.847   0.591
 5972W        W 9491   5.645   2.616   2.350
 5973W        W 9492   4.391   2.771   9.083
 5974W        W 9493   6.538   8.365   3.421
 5975W        W 9494   4.156   6.658   0.079
 5976W        W 9495   3.211   5.583   8.686
 5977W        W 9496   2.632   1.804   9.616
 5978W        W 9497   0.351   2.292   2.907
 5979W        W 9498   5.134   1.932   9.038
 5980W        W 9499   1.866   7.606  10.292
 5981W        W 9500   0.023   1.637   2.138
 5982W        W 9501   3.336   9.898   8.769
 5983W        W 9502   5.902   4.148   9.574
 5984W        W 9503   2.076   6.414   3.478
 5985W        W 9504   5.322   1.526   1.874
 5986W        W 9505   4.600   1.767  11.868
 5987W        W 9506   8.575   0.875   9.416
 5988W        W 9507   0.642   9.150  10.971
 5989W        W 9508   2.751   2.177  10.936
 5990W        W 9509   9.159   4.834  10.726
 5991W        W 9510   5.003   7.869  10.657
 5992W        W 9511   9.391   5.555  10.517
 5993W        W 9512   0.708   3.105  10.456
 5994W        W 9513   5.537   1.674   9.220
 5995W        W 9514   3.218   8.641  11.106
 5996W        W 9515   1.501   4.976  10.952
 5997W        W 9516   9.726   6.142  11.828
 5998W        W 9517   4.834   7.230   3.565
 5999W        W 9518   7.965   0.447   3.575
 6000W        W 9519   3.344   4.347  10.583
 6001W        W 9520   4.497   3.046   8.668
 6002W        W 9521   6.417   9.505  11.945
 6003W        W 9522   2.718   2.272   9.832
 6004W        W 9523   3.123   7.540   2.362
 6005W        W 9524   5.106   8.568  11.766
 6006W        W 9525   9.838   8.867  11.300
 6007W        W 9526   7.632   3.993  11.333
 6008W        W 9527   4.469   4.143  10.231
 6009W        W 9528   6.971   8.286   9.871
 6010W        W 9529   9.792   3.413   1.102
 6011W        W 9530   3.805   9.728   2.755
 6012W        W 9531   8.863   3.841  10.468
 6013W        W 9532   9.985   5.239   3.435
 6014W        W 9533   4.964   9.033   3.109
 6015W        W 9534   8.976   0.352  11.528
 6016W        W 9535   2.723   2.932   9.918
 6017W        W 9536   9.081   3.031  10.900
 6018W        W 9537   9.358   2.327   2.713
 6019W        W 9538   1.466   1.037   3.773
 6020W        W 9539   0.311   8.865   1.901
 6021W        W 9540   9.326   2.260   2.212
 6022W        W 9541   3.652   0.684   8.745
 6023W        W 9542   0.405   2.650   8.723
 6024W        W 9543   8.780   0.660   1.180
 6025W        W 9544   6.226   7.155   1.676
 6026W        W 9545   6.464   2.855   1.830
 6027W        W 9546   8.285   0.501   9.598
 6028W        W 9547   7.182   9.981   0.397
 6029W        W 9548   4.935   2.273  11.291
 6030W        W 9549   4.097   5.313  10.443
 6031W        W 9550   5.449   8.281   3.537
 6032W        W 9551   7.955   6.061   2.472
 6033W        W 9552   9.762   6.666   1.853
 6034W        W 9553   7.799   8.625  10.802
 6035W        W 9554   5.645   6.216   0.452
 6036W        W 9555   5.009   1.691  10.910
 6037W        W 9556   7.115   2.844   2.379
 6038W        W 9557   9.795   4.381  11.230
 6039W        W 9558   8.001   5.774   3.453
 6040W        W 9559   6.733   6.425   2.238
 6041W        W 9560   2.629   8.179   9.887
 6042W        W 9561   4.380   5.537   1.423
 6043W        W 9562   4.362   6.532   3.925
 6044W        W 9563   3.790   1.611  10.385
 6045W        W 9564   3.065   7.139   2.046
 6046W        W 9565   2.595   7.912   8.889
 6047W        W 9566   4.677   8.482   0.787
 6048W        W 9567   2.954   1.583   0.939
 6049W        W 9568   4.064   3.224   0.397
 6050W        W 9569   3.513   2.304   1.867
 6051W        W 9570   0.262   8.600   1.016
 6052W        W 9571   1.214   8.009   0.298
 6053W        W 9572   4.517   4.503  11.430
 6054W        W 9573   2.119   2.881   0.995
 6055W        W 9574   9.968   5.925   2.903
 6056W        W 9575   0.901   4.504  10.410
 6057W        W 9576   4.956   4.192   9.514
 6058W        W 9577   3.276   8.868   1.786
 6059W        W 9578   0.366   8.148   1.205
 6060W        W 9579   2.170   5.905   1.491
 6061W        W 9580   0.939   1.598   9.436
 6062W        W 9581   1.411   2.174   8.593
 6063W        W 9582   4.435   8.739   9.299
 6064W        W 9583   5.566   3.016   3.672
 6065W        W 9584   0.829   8.717   9.678
 6066W        W 9585   0.810   8.230   9.820
 6067W        W 9586   8.743   9.025  11.698
 6068W        W 9587   0.441   3.714   3.110
 6069W        W 9588   4.698   3.785   4.008
 6070W        W 9589   5.605   2.632   8.506
 6071W        W 9590   0.543   9.826   0.443
 6072W        W 9591   2.439   1.720   1.613
 6073W        W 9592   6.515   5.624   8.746
 6074W        W 9593   0.046   4.387   2.176
 6075W        W 9594   0.329   8.095   9.732
 6076W        W 9595   6.913   3.085   1.966
 6077W        W 9596   3.068   7.976   9.668
 6078W        W 9597   8.056   0.906   0.363
 6079W        W 9598   7.097   0.235  10.156
 6080W        W 9599   5.546   3.493   2.718
 6081W        W 9600   7.900   2.825   0.729
 6082W        W 9601   2.299   6.307   9.646
 6083W        W 9602   6.705   3.072   9.800
 6084W        W 9603   5.714   3.206   1.574
 6085W        W 9604   0.575   4.370   2.242
 6086W        W 9605   6.519   7.355  10.322
 6087W        W 9606   0.259   5.052   9.696
 6088W        W 9607   9.827   2.619   0.179
 6089W        W 9608   3.732   4.960   9.669
 6090W        W 9609   7.735   2.714   1.578
 6091W        W 9610   3.435   7.852   3.393
 6092W        W 9611   9.103   1.333   1.771
 6093W        W 9612   8.015   7.405   2.150
 6094W        W 9613   9.392   1.071   9.824
 6095W        W 9614   7.949   1.823  10.747
 6096W        W 9615   5.273   2.895   9.307
 6097W        W 9616   3.172   0.400   1.906
 6098W        W 9617   1.488   0.890   3.286
 6099W        W 9618   1.279   9.343   3.163
 6100W        W 9619   5.075   3.743   2.727
 6101W        W 9620   5.705   9.911   0.012
 6102W        W 9621   1.333   1.644   2.124
 6103W        W 9622   6.689   5.387   9.887
 6104W        W 9623   3.813   1.833   3.363
 6105W        W 9624   9.836   5.251   8.780
 6106W        W 9625   2.355   2.203   2.968
 6107W        W 9626   6.645   7.567   2.193
 6108W        W 9627   2.146   8.183  11.164
 6109W        W 9628   5.983   5.882  11.211
 6110W        W 9629   8.074   8.931  11.789
 6111W        W 9630   2.720   9.868   1.823
 6112W        W 9631   0.086   7.356   9.367
 6113W        W 9632   1.917   8.535   8.885
 6114W        W 9633   3.607   1.415   1.682
 6115W        W 9634   0.209   3.820   0.322
 6116W        W 9635   2.609   4.142   3.118
 6117W        W 9636   4.849   4.495   8.380
 6118W        W 9637   1.803   6.683   1.303
 6119W        W 9638   1.520   1.331   0.279
 6120W        W 9639   8.117   2.358   1.366
 6121W        W 9640   6.119   9.035   8.942
 6122W        W 9641   6.751   3.725   1.947
 6123W        W 9642   3.811   5.496   0.666
 6124W        W 9643   5.086   9.673  10.074
 6125W        W 9644   1.497   6.246  10.577
 6126W        W 9645   4.481   8.099   3.197
 6127W        W 9646   0.441   5.066  11.132
 6128W        W 9647   7.900   9.986   3.787
 6129W        W 9648   6.937   3.623  11.519
 6130W        W 9649   6.282   4.166  11.999
 6131W        W 9650   8.053   4.321   1.026
 6132W        W 9651   5.943   1.328  11.265
 6133W        W 9652   4.770   6.412   2.817
 6134W        W 9653   5.672   8.878   1.424
 6135W        W 9654   0.410   6.624   0.436
 6136W        W 9655   1.160   6.563   2.331
 6137W        W 9656   9.624   1.871   2.380
 6138W        W 9657   7.377   6.110   0.711
 6139W        W 9658   3.997   1.090  10.557
 6140W        W 9659   0.870   5.647   9.325
 6141W        W 9660   9.997   2.004   3.168
 6142W        W 9661   0.573   5.110   9.278
 6143W        W 9662   1.735   3.285  11.855
 6144W        W 9663   5.120   5.606   9.281
 6145W        W 9664   5.979   3.698   3.652
 6146W        W 9665   8.787   5.296   3.048
 6147W        W 9666   1.873   4.542   0.461
 6148W        W 9667   2.568   8.748  11.802
 6149W        W 9668   6.590   0.232   3.106
 6150W        W 9669   7.387   3.608  10.495
 6151W        W 9670   9.405   2.752   3.173
 6152W        W 9671   8.900   3.496  10.956
 6153W        W 9672   1.695   8.076  11.502
 6154W        W 9673   7.524   0.304   2.864
 6155W        W 9674   6.501   8.720   9.120
 6156W        W 9675   1.072   9.075   1.161
 6157W        W 9676   9.787   4.339   8.805
 6158W        W 9677   8.039   6.714  11.348
 6159W        W 9678   0.401   5.016  11.810
 6160W        W 9679   1.900   4.662   2.251
 6161W        W 9680   9.936   2.873   8.834
 6162W        W 9681   0.565   0.898  10.472
 6163W        W 9682   4.481   9.769   2.022
 6164W        W 9683   6.257   1.364  10.265
 6165W        W 9684   9.323   2.656   0.039
 6166W        W 9685   1.024   9.877  11.542
 6167W        W 9686   6.431   0.286   1.628
 6168W        W 9687   6.361   5.192  10.266
 6169W        W 9688   9.504   3.605   2.700
 6170W        W 9689   6.420   2.980   3.001
 6171W        W 9690   6.984   1.155   0.773
 6172W        W 9691   6.653   6.055  10.668
 6173W        W 9692   3.083   4.677   2.911
 6174W        W 9693   2.626   9.949   0.230
 6175W        W 9694   1.968   7.842   1.032
 6176W        W 9695   1.216   0.002  11.079
 6177W        W 9696   9.348   7.450   0.783
 6178W        W 9697   3.346   0.768   2.651
 6179W        W 9698   1.883   1.017   1.743
 6180W        W 9699   7.098   3.243  10.250
 6181W        W 9700   8.922   2.635  11.200
 6182W        W 9701   4.384   0.353   1.417
 6183W        W 9702   7.056   4.166  10.322
 6184W        W 9703   5.045   8.344   2.446
 6185W        W 9704   3.507   7.384   1.641
 6186W        W 9705   0.393   6.877  10.855
 6187W        W 9706   4.945   7.317   1.862
 6188W        W 9707   1.816   6.187   9.443
 6189W        W 9708   3.086   6.353   8.008
 6190W        W 9709   0.491   0.931  10.973
 6191W        W 9710   1.943   1.676  11.105
 6192W        W 9711   9.621   9.453   2.282
 6193W        W 9712   9.634   9.328   9.133
 6194W        W 9713   9.287   3.101  11.500
 6195W        W 9714   7.275   5.114   1.906
 6196W        W 9715   3.544   3.567  10.223
 6197W        W 9716   0.788   2.132   1.046
 6198W        W 9717   8.899   5.138   2.138
 6199W        W 9718   7.581   7.236  10.800
 6200W        W 9719   3.432   5.491   3.975
 6201W        W 9720   8.663   5.351   8.998
 6202W        W 9721   4.721   6.360  11.837
 6203W        W 9722   2.043   5.030   1.365
 6204W        W 9723   4.610   9.749   8.877
 6205W        W 9724   7.064   3.670   2.792
 6206W        W 9725   4.595   0.652   9.291
 6207W        W 9726   1.361   1.095  11.852
 6208W        W 9727   7.336   0.628   8.534
 6209W        W 9728   1.854   1.319   9.968
 6210W        W 9729   8.513   9.324  10.937
 6211W        W 9730   2.216   1.742  10.447
 6212W        W 9731   8.530   7.129   9.196
 6213W        W 9732   8.476   3.609  10.712
 6214W        W 9733   2.279   9.391   8.946
 6215W        W 9734   2.701   2.466   1.274
 6216W        W 9735   1.755   3.741   3.297
 6217W        W 9736   4.707   7.785   2.810
 6218W        W 9737   5.151   8.006   1.552
 6219W        W 9738   3.365   3.053  11.741
 6220W        W 9739   5.634   1.031   2.566
 6221W        W 9740   3.742   7.839   2.995
 6222W        W 9741   1.771   6.168   2.274
 6223W        W 9742   7.735   2.099  11.172
 6224W        W 9743   4.571   0.111   9.321
 6225W        W 9744   3.599   3.375  11.366
 6226W        W 9745   8.249   8.094   3.552
 6227W        W 9746   1.538   7.825   3.154
 6228W        W 9747   3.467   7.130   9.045
 6229W        W 9748   0.871   0.264   1.416
 6230W        W 9749   5.733   5.057   9.631
 6231W        W 9750   7.995   8.806   9.074
 6232W        W 9751   5.296   4.250   8.574
 6233W        W 9752   6.240   7.316   9.044
 6234W        W 9753   3.118   2.337   1.539
 6235W        W 9754   7.203   1.456   0.299
 6236W        W 9755   2.904   6.587   1.836
 6237W        W 9756   7.895   0.677   2.811
 6238W        W 9757   4.693   5.707   3.731
 6239W        W 9758   2.430   2.996   1.453
 6240W        W 9759   5.447   4.009   2.010
 6241W        W 9760   8.464   7.547  10.330
 6242W        W 9761   7.560   7.636   3.209
 6243W        W 9762   2.662   6.064   3.095
 6244W        W 9763   4.614   0.869   9.766
 6245W        W 9764   5.230   9.820  11.812
 6246W        W 9765   0.441   7.035   9.233
 6247W        W 9766   6.482   3.717   1.289
 6248W        W 9767   6.156   5.042   3.407
 6249W        W 9768   6.587   4.037  10.172
 6250W        W 9769   5.612   8.926   2.337
 6251W        W 9770   0.718   1.694   0.789
 6252W        W 9771   2.521   0.416  10.777
 6253W        W 9772   4.883   3.281   1.027
 6254W        W 9773   0.909   4.862  10.033
 6255W        W 9774   3.143   8.413   1.600
 6256W        W 9775   0.835   3.147   9.164
 6257W        W 9776   6.144   4.522   2.146
 6258W        W 9777   5.693   0.879   8.565
 6259W        W 9778   9.381   4.383   9.895
 6260W        W 9779   1.974   1.009   3.628
 6261W        W 9780   4.625   8.794   3.581
 6262W        W 9781   9.955   8.459   0.040
 6263W        W 9782   7.611   5.828  11.541
 6264W        W 9783   2.537   1.707   0.610
 6265W        W 9784   6.968   2.917   9.373
 6266W        W 9785   9.454   8.752   3.284
 6267W        W 9786   9.967   4.344   2.681
 6268W        W 9787   1.007   8.373   3.641
 6269W        W 9788   0.440   5.715  10.009
 6270W        W 9789   4.844   7.232   9.642
 6271W        W 9790   9.382   1.362   3.254
 6272W        W 9791   2.549   4.214  10.912
 6273W        W 9792   9.446   6.058   3.056
 6274W        W 9793   4.173   2.278   9.745
 6275W        W 9794   3.524   5.061  11.941
 6276W        W 9795   3.190   6.548   2.672
 6277W        W 9796   3.503   5.973   4.135
 6278W        W 9797   0.375   8.584   9.838
 6279W        W 9798   3.143   9.420  11.520
 6280W        W 9799   4.487   3.721   3.402
 6281W        W 9800   9.217   9.422   1.381
 6282W        W 9801   8.278   1.008  10.670
 6283W        W 9802   0.344   8.715  11.659
 6284W        W 9803   3.291   6.107  10.524
 6285W        W 9804   4.071   5.105   2.045
 6286W        W 9805   7.369   5.905  11.057
 6287W        W 9806   7.864   2.820   0.206
 6288W        W 9807   7.246   9.187   1.871
 6289W        W 9808   1.859   6.962  10.821
 6290W        W 9809   4.228   1.913  10.406
 6291W        W 9810   6.445   3.206   0.319
 6292W        W 9811   8.194   9.914   0.574
 6293W        W 9812   1.733   0.872   0.316
 6294W        W 9813   9.476   1.004   1.884
 6295W        W 9814   5.493   9.617   9.239
 6296W        W 9815   4.563   7.582  10.491
 6297W        W 9816   0.418   7.916   1.955
 6298W        W 9817   5.950   6.168   2.078
 6299W        W 9818   6.611   0.688   2.836
 6300W        W 9819   2.266   9.859  10.482
 6301W        W 9820   3.170   5.517  11.280
 6302W        W 9821   7.637   2.206   9.474
 6303W        W 9822   9.663   4.095   1.906
 6304W        W 9823   3.296   8.476   8.595
 6305W        W 9824   7.442   3.518   8.851
 6306W        W 9825   8.378   5.201   1.396
 6307W        W 9826   8.157   9.758   8.894
 6308W        W 9827   1.402   3.195   1.074
 6309W        W 9828   5.578   7.445   9.388
 6310W        W 9829   7.787   3.316   0.321
 6311W        W 9830   3.168   4.068  11.965
 6312W        W 9831   6.331   5.033   2.050
 6313W        W 9832   8.269   9.364   1.234
 6314W        W 9833   8.273   8.924   9.485
 6315W        W 9834   9.894   1.280   2.470
 6316W        W 9835   7.201   3.129   9.765
 6317W        W 9836   7.919   1.080   3.148
 6318W        W 9837   1.841   9.526  11.622
 6319W        W 9838   2.113   8.304   9.884
 6320W        W 9839   5.077   4.136   9.013
 6321W        W 9840   4.239   1.571   0.759
 6322W        W 9841   2.654   5.124  11.767
 6323W        W 9842   1.667   2.172   0.565
 6324W        W 9843   0.861   4.695   1.935
 6325W        W 9844   7.422   9.497   8.568
 6326W        W 9845   9.339   1.616  10.451
 6327W        W 9846   8.287   0.477   1.295
 6328W        W 9847   1.176   2.644  11.885
 6329W        W 9848   9.012   1.883   9.328
 6330W        W 9849   1.671   2.441   3.488
 6331W        W 9850   2.707   3.463  10.186
 6332W        W 9851   3.475   5.885   1.917
 6333W        W 9852   8.927   7.804  10.276
 6334W        W 9853   6.039   2.123   8.444
 6335W        W 9854   7.254   1.782  11.095
 6336W        W 9855   6.861   9.581   2.656
 6337W        W 9856   5.585   8.388  10.875
 6338W        W 9857   2.918   1.347   0.471
 6339W        W 9858   5.155   9.703  10.927
 6340W        W 9859   0.224   8.601   8.530
 6341W        W 9860   4.327   9.686   2.753
 6342W        W 9861   3.535   9.685   2.301
 6343W        W 9862   0.200   3.820  11.428
 6344W        W 9863   8.869   6.960   2.154
 6345W        W 9864   4.177   1.280   9.761
 6346W        W 9865   7.540   6.625   3.230
 6347W        W 9866   1.293   1.920   0.328
 6348W        W 9867   6.547   9.528   9.978
 6349W        W 9868   4.944   2.202   9.897
 6350W        W 9869   4.888   6.118   9.015
 6351W        W 9870   7.484   0.450   1.095
 6352W        W 9871   8.763   0.804   3.074
 6353W        W 9872   8.095   6.669   1.690
 6354W        W 9873   1.411   9.254   9.291
 6355W        W 9874   1.729   5.772  10.443
 6356W        W 9875   6.842   6.105   3.282
 6357W        W 9876   2.925   5.140   8.566
 6358W        W 9877   6.451   3.181  10.948
 6359W        W 9878   5.494   0.208  10.387
 6360W        W 9879   1.290   3.285   2.709
 6361W        W 9880   5.120   2.025   0.677
 6362W        W 9881   3.231   6.781   0.332
 6363W        W 9882   1.771   3.770   1.780
 6364W        W 9883   0.375   5.681   1.219
 6365W        W 9884   4.646   1.028  10.255
 6366W        W 9885   7.357   5.229   0.671
 6367W        W 9886   1.072   3.617   1.073
 6368W        W 9887   3.427   8.486   0.868
 6369W        W 9888   4.383   2.925   3.551
 6370W        W 9889   2.270   0.840  10.250
 6371W        W 9890   3.105   7.961  10.557
 6372W        W 9891   9.847   8.655   0.506
 6373W        W 9892   2.848   6.705  11.900
 6374W        W 9893   6.126   0.550   9.877
 6375W        W 9894   8.760   0.877  10.859
 6376W        W 9895   8.011   2.576   1.975
 6377W        W 9896   2.543   0.154  11.767
 6378W        W 9897   9.753   2.568   1.275
 6379W        W 9898   2.905   6.936   0.730
 6380W        W 9899   2.286   1.657   3.014
 6381W        W 9900   8.964   3.422   9.634
 6382W        W 9901   0.682   6.426   3.456
 6383W        W 9902   6.034   9.194   0.766
 6384W        W 9903   6.433   9.387  10.885
 6385W        W 9904   5.216   4.018   3.811
 6386W        W 9905   9.968   2.341   8.893
 6387W        W 9906   4.028   8.275   2.969
 6388W        W 9907   0.246   6.767   2.619
 6389W        W 9908   2.165   5.349   0.196
 6390W        W 9909   4.880   6.682  11.478
 6391W        W 9910   0.010   1.375   1.321
 6392W        W 9911   7.996   3.320   0.822
 6393W        W 9912   5.523   1.217  10.112
 6394W        W 9913   8.395   5.977  10.734
 6395W        W 9914   8.589   5.005  11.375
 6396W        W 9915   7.004   6.397  10.477
 6397W        W 9916   8.113   7.710   0.820
 6398W        W 9917   4.795   4.619  11.925
 6399W        W 9918   4.030   1.314   9.287
 6400W        W 9919   7.373   2.384   1.756
 6401W        W 9920   2.442   7.852   0.826
 6402W        W 9921   5.110   2.401   9.337
 6403W        W 9922   8.050   0.879   9.354
 6404W        W 9923   7.155   0.822  11.162
 6405W        W 9924   1.726   0.540   2.849
 6406W        W 9925   0.778   1.666   3.460
 6407W        W 9926   6.581   8.589  11.837
 6408W        W 9927   9.324   8.941   9.412
 6409W        W 9928   3.022   0.212  11.979
 6410W        W 9929   1.590   6.580   1.985
 6411W        W 9930   7.544   1.617   9.474
 6412W        W 9931   1.130   5.087   2.731
 6413W        W 9932   8.669   6.674   0.614
 6414W        W 9933   2.338   2.804  10.456
 6415W        W 9934   9.184   2.904  10.407
 6416W        W 9935   0.975   6.853   1.382
 6417W        W 9936   5.800   0.859  11.415
 6418W        W 9937   3.991   0.753   0.897
 6419W        W 9938   7.364   8.923   2.327
 6420W        W 9939   3.181   9.375   0.020
 6421W        W 9940   1.583   6.303  11.728
 6422W        W 9941   3.101   3.743   9.328
 6423W        W 9942   6.906   6.652  10.968
 6424W        W 9943   2.330   2.484   0.032
 6425W        W 9944   9.801   4.644   9.246
 6426W        W 9945   2.455   8.677  10.048
 6427W        W 9946   4.512   4.364   0.282
 6428W        W 9947   1.309   3.707   3.037
 6429W        W 9948   9.374   2.124  11.166
 6430W        W 9949   5.970   2.946   0.272
 6431W        W 9950   5.653   5.832  10.789
 6432W        W 9951   0.761   3.155  10.982
 6433W        W 9952   2.745   9.682   0.651
 6434W        W 9953   8.432   4.354   8.842
 6435W        W 9954   7.632   6.067  10.392
 6436W        W 9955   0.764   8.614  10.191
 6437W        W 9956   3.135   2.670   2.761
 6438W        W 9957   9.429   0.154  11.351
 6439W        W 9958   2.700   9.430   0.208
 6440W        W 9959   8.218   1.736   8.957
 6441W        W 9960   5.927   3.160  11.018
 6442W        W 9961   9.513   5.775   0.245
 6443W        W 9962   9.991   0.476   3.229
 6444W        W 9963   7.576   1.891   2.501
 6445W        W 9964   8.149   3.204  11.944
 6446W        W 9965   1.634   8.428   9.679
 6447W        W 9966   7.960   1.595   9.823
 6448W        W 9967   1.225   5.816  10.428
 6449W        W 9968   8.439   5.508  10.233
 6450W        W 9969   8.322   5.840  11.785
 6451W        W 9970   9.589   2.414  10.380
 6452W        W 9971   4.698   0.173   3.223
 6453W        W 9972   8.620   5.591   2.063
 6454W        W 9973   8.914   0.454   2.306
 6455W        W 9974   2.903   1.871   1.376
 6456W        W 9975   1.949   3.192   0.366
 6457W        W 9976   3.192   7.475   9.754
 6458W        W 9977   2.089   2.925  11.953
 6459W        W 9978   4.040   4.333   8.168
 6460W        W 9979   5.755   1.989   3.546
 6461W        W 9980   9.561   3.146  10.150
 6462W        W 9981   8.800   1.319  11.603
 6463W        W 9982   0.423   6.204   1.225
 6464W        W 9983   1.262   7.558   0.517
 6465W        W 9984   0.967   6.253  10.513
 6466W        W 9985   8.036   4.434   1.508
 6467W        W 9986   2.422   1.203   2.790
 6468W        W 9987   0.912   1.633  11.245
 6469W        W 9988   0.034   8.203   2.766
 6470W        W 9989   1.549   4.964   0.646
 6471W        W 9990   3.427   9.403   2.731
 6472W        W 9991   7.367   2.292   2.758
 6473W        W 9992   1.568   4.275   2.049
 6474W        W 9993   3.581   7.585   1.149
 6475W        W 9994   9.169   5.053   0.215
 6476W        W 9995   6.906   0.925  10.743
 6477W        W 9996   4.327   9.842   9.687
 6478W        W 9997   3.690   1.778  10.872
 6479W        W 9998   0.742   6.703   9.495
 6480W        W 9999   6.506   9.394   9.089
 6481W        W10000   2.618   4.993  10.308
 6482W        W10001   5.722   5.786   1.822
 6483W        W10002   2.882   8.398   8.882
 6484W        W10003   4.240   7.091   1.014
 6485W        W10004   6.476   2.341   1.874
 6486W        W10005   8.271   7.993   9.133
 6487W        W10006   5.933   2.201  11.545
 6488W        W10007   8.277   4.060   2.763
 6489W        W10008   5.188   7.428   1.379
 6490W        W10009   3.055   5.700   2.191
 6491W        W10010   1.857   7.268   3.318
 6492W        W10011   9.404   9.572   1.826
 6493W        W10012   5.286   6.967   1.975
 6494W        W10013   0.157   5.396   0.043
 6495W        W10014   8.553   0.697   0.423
 6496W        W10015   0.127   5.019   1.746
 6497W        W10016   7.832   1.508   8.686
 6498W        W10017   7.160   8.178   0.665
 6499W        W10018   9.208   6.225   1.212
 6500W        W10019   0.421   8.467   3.623
 6501W        W10020   8.082   7.798  10.049
 6502W        W10021   2.374   7.504   9.353
 6503W        W10022   3.192   5.140   8.983
 6504W        W10023   6.013   7.712   9.309
 6505W        W10024   2.917   8.895  11.433
 6506W        W10025   2.966   5.124   0.773
 6507W        W10026   5.110   0.668   0.932
 6508W        W10027   2.278   3.972   0.006
 6509W        W10028   5.621   4.966   0.864
 6510W        W10029   0.925   9.493  10.602
 6511W        W10030   7.487   1.167   3.431
 6512W        W10031   2.317   4.333   9.128
 6513W        W10032   5.008   9.952  10.489
 6514W        W10033   9.871   7.691  10.289
 6515W        W10034   5.843   1.548   0.106
 6516W        W10035   4.951   2.466  10.342
 6517W        W10036   5.989   3.875   9.143
 6518W        W10037   6.797   1.085  11.425
 6519W        W10038   7.618   3.654   0.933
 6520W        W10039   6.145   0.398   2.949
 6521W        W10040   4.254   8.061   0.670
 6522W        W10041   9.994   3.017   1.359
 6523W        W10042   2.661   0.825   9.086
 6524W        W10043   2.652   5.957   2.365
 6525W        W10044   5.687   7.716   0.453
 6526W        W10045   2.581   5.566   0.004
 6527W        W10046   6.160   9.823  10.869
 6528W        W10047   7.585   8.126   3.446
 6529W        W10048   9.376   4.616   8.949
 6530W        W10049   5.528   6.983   2.413
 6531W        W10050   1.640   7.872   8.945
 6532W        W10051   7.620   5.756   8.788
 6533W        W10052   5.468   9.344  11.686
 6534W        W10053   9.387   7.896  10.506
 6535W        W10054   9.009   4.090   0.086
 6536W        W10055   1.616   8.053   8.464
 6537W        W10056   8.057   8.864   1.375
 6538W        W10057   1.425   3.936  11.975
 6539W        W10058   4.768   4.543   8.890
 6540W        W10059   2.960   8.423   9.410
 6541W        W10060   2.778   4.204   9.359
 6542W        W10061   1.459   2.551  10.825
 6543W        W10062   2.280   5.794   9.671
 6544W        W10063   1.808   4.721  11.779
 6545W        W10064   8.076   2.803  11.185
 6546W        W10065   3.886   0.913   0.318
 6547W        W10066   3.663   3.359   3.216
 6548W        W10067   9.637   7.568   9.463
 6549W        W10068   5.763   6.337   3.717
 6550W        W10069   8.514   6.779   9.631
 6551W        W10070   7.681   6.033   8.335
 6552W        W10071   2.216   0.398   0.938
 6553W        W10072   3.173   9.492  11.024
 6554W        W10073   9.796   0.831   2.236
 6555W        W10074   4.475   0.234  11.859
 6556W        W10075   3.627   9.329  11.786
 6557W        W10076   7.393   3.283   1.244
 6558W        W10077   8.578   3.940   3.607
 6559W        W10078   0.070   9.011   9.866
 6560W        W10079   4.458   5.930   8.302
 6561W        W10080   1.821   9.527   9.185
 6562W        W10081   2.742   2.673   9.097
 6563W        W10082   3.624   7.096   0.419
 6564W        W10083   5.297   5.534   2.645
 6565W        W10084   7.738   5.319  11.152
 6566W        W10085   7.468   7.047   2.155
 6567W        W10086   4.968   6.111   2.447
 6568W        W10087   7.179   3.748  11.053
 6569W        W10088   9.963   3.665   1.958
 6570W        W10089   4.588   0.529  10.163
 6571W        W10090   5.608   2.989   2.683
 6572W        W10091   2.722   2.545  10.264
 6573W        W10092   9.653   9.290  11.533
 6574W        W10093   5.211   5.431   3.606
 6575W        W10094   9.656   7.535  11.250
 6576W        W10095   6.782   4.994   1.780
 6577W        W10096   7.624   2.727   2.556
 6578W        W10097   8.814   0.457   9.599
 6579W        W10098   7.486   7.915   1.449
 6580W        W10099   2.429   8.415  10.821
 6581W        W10100   4.773   3.816  10.884
 6582W        W10101   6.447   1.196  11.996
 6583W        W10102   7.171   9.881  11.891
 6584W        W10103   3.610   5.581   8.374
 6585W        W10104   5.179   0.870   0.438
 6586W        W10105   5.185   8.129   8.611
 6587W        W10106   0.743   0.337  11.585
 6588W        W10107   4.818   6.124  10.701
 6589W        W10108   9.678   5.654   3.356
 6590W        W10109   6.070   0.591   1.005
 6591W        W10110   0.335   7.096   2.236
 6592W        W10111   4.620   3.203   0.184
 6593W        W10112   5.008   5.262   2.348
 6594W        W10113   6.304   9.390   3.287
 6595W        W10114   2.561   5.731   1.918
 6596W        W10115   1.257   2.580   1.725
 6597W        W10116   4.207   2.996  11.958
 6598W        W10117   4.747   5.711  11.498
 6599W        W10118   7.472   4.890   3.270
 6600W        W10119   6.792   2.918   1.452
 6601W        W10120   7.395   4.821   2.760
 6602W        W10121   5.491   8.176   0.337
 6603W        W10122   4.043   4.106   9.913
 6604W        W10123   4.507   9.589  10.332
 6605W        W10124   1.825   9.336  10.106
 6606W        W10125   9.583   6.280   1.566
 6607W        W10126   8.923   7.462   9.030
 6608W        W10127   2.554   4.127   1.742
 6609W        W10128   2.763   4.306   2.662
 6610W        W10129   3.310   3.797   2.066
 6611W        W10130   3.962   0.262   3.609
 6612W        W10131   5.398   5.550  11.122
 6613W        W10132   9.191   2.723   2.444
 6614W        W10133   5.620   3.809  11.226
 6615W        W10134   4.866   0.394   2.426
 6616W        W10135   5.762   1.380   1.588
 6617W        W10136   2.767   5.077  10.775
 6618W        W10137   0.312   8.455   0.524
 6619W        W10138   1.765   1.915   1.845
 6620W        W10139   7.278   2.192  11.398
 6621W        W10140   7.024   4.467   0.378
 6622W        W10141   0.751   6.653  11.490
 6623W        W10142   4.462   5.880   9.355
 6624W        W10143   1.439   9.817  11.827
 6625W        W10144   4.920   1.143   1.095
 6626W        W10145   1.641   5.745  11.870
 6627W        W10146   0.545   2.334   9.564
 6628W        W10147   8.576   0.222  10.857
 6629W        W10148   5.549   9.666   3.278
 6630W        W10149   0.804   7.393  10.012
 6631W        W10150   0.751   1.350  10.830
 6632W        W10151   4.174   2.022   0.016
 6633W        W10152   8.343   5.519   3.184
 6634W        W10153   7.349   1.406   2.517
 6635W        W10154   7.209   4.705   2.191
 6636W        W10155   4.586   4.608  10.536
 6637W        W10156   3.998   7.253   2.384
 6638W        W10157   5.367   8.467   1.615
 6639W        W10158   7.955   8.049  10.500
 6640W        W10159   4.231   3.489   8.725
 6641W        W10160   0.896   6.900   9.944
 6642W        W10161   7.908   6.115   0.740
 6643W        W10162   1.225   8.819   3.125
 6644W        W10163   3.849   7.632  10.709
 6645W        W10164   5.043   6.607   9.668
 6646W        W10165   5.029   1.176  10.872
 6647W        W10166   7.075   7.787   2.296
 6648W        W10167   9.957   8.525   9.005
 6649W        W10168   1.653   3.407   3.662
 6650W        W10169   3.837   7.505   3.375
 6651W        W10170   6.986   8.610   8.939
 6652W        W10171   6.021   8.151  11.753
 6653W        W10172   5.817   4.121   3.009
 6654W        W10173   4.890   5.118   0.925
 6655W        W10174   0.218   3.698   9.276
 6656W        W10175   5.050   8.546   0.268
 6657W        W10176   0.533   7.649  11.365
 6658W        W10177   4.567   9.369   0.246
 6659W        W10178   1.371   7.157  10.816
 6660W        W10179   2.259   9.788   8.607
 6661W        W10180   4.702   1.875   0.927
 6662W        W10181   5.949   3.438   0.300
 6663W        W10182   4.486   4.093   8.220
 6664W        W10183   5.528   0.955   9.649
 6665W        W10184   8.295   6.210   1.657
 6666W        W10185   8.411   3.669   1.337
 6667W        W10186   1.638   6.619   2.492
 6668W        W10187   0.344   2.240   0.808
 6669W        W10188   4.824   5.446  10.945
 6670W        W10189   1.242   0.720   2.877
 6671W        W10190   9.209   9.235   2.519
 6672W        W10191   6.729   2.181   1.466
 6673W        W10192   1.682   8.034   0.083
 6674W        W10193   5.949   3.632   1.255
 6675W        W10194   2.092   7.975  10.686
 6676W        W10195   1.800   1.222   1.266
 6677W        W10196   8.145   8.395   0.428
 6678W        W10197   0.527   5.356   3.452
 6679W        W10198   2.254   5.543   1.086
 6680W        W10199   6.319   4.073  11.097
 6681W        W10200   5.975   7.184   2.757
 6682W        W10201   0.403   0.420   2.462
 6683W        W10202   1.102   8.991  10.019
 6684W        W10203   3.369   9.719   1.214
 6685W        W10204   6.675   0.699   3.356
 6686W        W10205   4.099   9.837  10.151
 6687W        W10206   4.578   6.047  10.270
 6688W        W10207   0.673   8.017   3.523
 6689W        W10208   2.576   4.477  10.295
 6690W        W10209   6.100   5.652   2.125
 6691W        W10210   6.116   2.627   8.560
 6692W        W10211   3.582   4.788  10.699
 6693W        W10212   0.993   7.872   3.095
 6694W        W10213   7.946   5.460   2.876
 6695W        W10214   3.670   6.824   0.006
 6696W        W10215   2.864   1.362   9.790
 6697W        W10216   7.233   4.799   0.959
 6698W        W10217   6.682   1.726   9.533
 6699W        W10218   7.073   3.171   0.450
 6700W        W10219   6.462   6.929   9.268
 6701W        W10220   6.983   0.337  11.831
 6702W        W10221   7.601   5.831   2.914
 6703W        W10222   0.240   0.583  10.235
 6704W        W10223   3.525   4.063  10.063
 6705ION    NA+10224   4.472   0.496  10.981
 6706ION    NA+10225   7.945   4.194   8.834
 6707ION    NA+10226   6.262   8.439   0.714
 6708ION    NA+10227   3.387   1.618   1.243
 6709ION    NA+10228   3.884   6.189   1.789
 6710ION    NA+10229   2.270   5.744  10.518
 6711ION    NA+10230   4.511   6.562  10.384
 6712ION    NA+10231   6.638   5.024  11.699
 6713ION    NA+10232   9.519   3.067   8.558
 6714ION    NA+10233   4.639   8.734   9.850
 6715ION    NA+10234   6.149   3.683   9.605
 6716ION    NA+10235   4.713   7.847   0.737
 6717ION    NA+10236   7.893   5.613  11.954
 6718ION    NA+10237   0.855   3.161  11.956
 6719ION    NA+10238   0.016   9.978   3.079
 6720ION    NA+10239   7.566   8.949  11.741
 6721ION    NA+10240   1.703   7.056   9.508
 6722ION    NA+10241   4.049   2.390  10.317
 6723ION    NA+10242   3.779   0.186   8.885
 6724ION    NA+10243   3.860   8.448   9.601
 6725ION    NA+10244   6.925   1.227   8.962
 6726ION    NA+10245   3.607   5.504  10.991
 6727ION    NA+10246   7.483   4.067   9.593
 6728ION    NA+10247   5.350   9.254  10.131
 6729ION    NA+10248   6.910   9.536  10.686
 6730ION    NA+10249   3.132   0.948   8.922
 6731ION    NA+10250   0.279   5.422  11.513
 6732ION    NA+10251   9.320   3.443   1.317
 6733ION    NA+10252   8.104   1.617   3.166
 6734ION    NA+10253   2.532   5.036   8.874
 6735ION    NA+10254   6.338   0.871   1.761
 6736ION    NA+10255   8.647   1.373  10.764
 6737ION    NA+10256   5.343   8.700   2.678
 6738ION    NA+10257   1.854   4.679   1.745
 6739ION    NA+10258   7.285   9.370   2.850
 6740ION    NA+10259   1.735   9.733   0.451
 6741ION    NA+10260   7.897   7.920   2.223
 6742ION    NA+10261   2.835   6.758   2.327
 6743ION    NA+10262   1.550   6.597   0.850
 6744ION    NA+10263   1.331   8.623   1.102
 6745ION    NA+10264   2.164   5.898   0.038
 6746ION    NA+10265   8.159   4.780   2.127
 6747ION    NA+10266   8.889   9.020  10.267
 6748ION    NA+10267   8.395   8.005  11.972
 6749ION    NA+10268   8.424   8.013   1.618
 6750ION    NA+10269   5.978   6.668   4.080
 6751ION    NA+10270   4.214   9.469   1.018
 6752ION    NA+10271   0.905   3.258   9.662
 6753ION    NA+10272   1.328   0.570   3.688
 6754ION    NA+10273   4.089   5.536   2.383
 6755ION    NA+10274   8.718   2.743   1.241
 6756ION    NA+10275   6.405   8.437   2.269
 6757ION    NA+10276   7.788   4.837  10.957
 6758ION    NA+10277   4.194   5.283   0.387
 6759ION    NA+10278   0.586   4.890   0.302
 6760ION    NA+10279   1.855   0.063   3.137
 6761ION    NA+10280   3.828   4.954  10.173
 6762ION    NA+10281   9.633   7.895   2.997
 6763ION    NA+10282   5.050   5.892   3.418
 6764ION    NA+10283   3.582   9.597   0.253
 6765ION    NA+10284   0.451   0.339   8.623
 6766ION    NA+10285   8.712   7.979   2.408
 6767ION    NA+10286   3.806   6.312   9.108
 6768ION    NA+10287   4.318   0.395   9.730
 6769ION    NA+10288   7.964   7.858   9.538
 6770ION    NA+10289   2.739   1.874   2.430
 6771ION    NA+10290   3.025   2.707  11.589
 6772ION    NA+10291   7.565   2.579  10.487
 6773ION    NA+10292   2.101   5.787   8.834
 6774ION    NA+10293   5.313   4.587   1.529
 6775ION    NA+10294   6.562   6.930   9.880
 6776ION    CL-10295   8.585   4.704   2.245
 6777ION    CL-10296   0.204   1.245   2.888
 6778ION    CL-10297   5.161   8.817   1.291
 6779ION    CL-10298   6.119   0.537  11.181
 6780ION    CL-10299   4.878   4.650   3.007
 6781ION    CL-10300   6.134   3.887  10.000
 6782ION    CL-10301   1.131   3.639   9.695
 6783ION    CL-10302   2.278   5.395   9.000
 6784ION    CL-10303   3.943   5.864   2.100
 6785ION    CL-10304   1.851   1.815   3.331
 6786ION    CL-10305   6.437   8.565   0.325
 6787ION    CL-10306   4.320   8.419   9.688
 6788ION    CL-10307   4.487   1.559   9.439
 6789ION    CL-10308   2.649   5.371   2.289
 6790ION    CL-10309   0.900   4.677   0.063
 6791ION    CL-10310   7.025   1.044   8.538
 6792ION    CL-10311   7.798   4.107   9.260
 6793ION    CL-10312   4.707   7.685   0.318
 6794ION    CL-10313   2.178   8.507  11.570
 6795ION    CL-10314   4.138   6.660  10.605
 6796ION    CL-10315   2.194   9.079   2.147
 6797ION    CL-10316   7.725   9.194   0.081
 6798ION    CL-10317   9.183   2.703   9.509
 6799ION    CL-10318   5.071   4.263   1.320
 6800ION    CL-10319   1.422   0.010   0.297
 6801ION    CL-10320   9.018   3.081   1.293
 6802ION    CL-10321   3.284   3.605   3.533
 6803ION    CL-10322   5.796   7.417   2.348
 6804ION    CL-10323   3.216   4.922   0.381
 6805ION    CL-10324   0.227   0.511   0.926
 6806ION    CL-10325   6.200   2.406   2.313
 6807ION    CL-10326   4.800   4.985   8.603
 6808ION    CL-10327   9.041   1.242  10.606
 6809ION    CL-10328   7.510   4.323   0.276
 6810ION    CL-10329   7.771   5.154  10.644
 6811ION    CL-10330   5.657   6.661   0.213
 6812ION    CL-10331   0.996   8.688   0.805
 6813ION    CL-10332   0.808   8.417   2.275
 6814ION    CL-10333   6.609   1.542   9.060
 6815ION    CL-10334   1.316   4.536  10.096
 6816ION    CL-10335   0.044   7.730   2.914
 6817ION    CL-10336   4.334   4.683  11.000
 6818ION    CL-10337   4.391   0.068  11.086
 6819ION    CL-10338   3.430   8.605   9.629
 6820ION    CL-10339   3.139   7.285   0.388
 6821ION    CL-10340   2.022   6.036  11.638
 6822ION    CL-10341   2.475   1.515   2.374
 6823ION    CL-10342   5.497   4.939   1.750
 6824ION    CL-10343   8.344   7.970   2.084
 6825ION    CL-10344   7.089   4.117   9.812
 6826ION    CL-10345   9.674   0.973   8.875
 6827ION    CL-10346   5.231   8.603   3.102
 6828ION    CL-10347   5.743   3.194   1.062
 6829ION    CL-10348   6.726   3.401   3.114
 6830ION    CL-10349   7.513   9.954   0.866
 6831ION    CL-10350   8.916   9.323  10.592
 6832ION    CL-10351   8.472   9.221   3.578
 6833ION    CL-10352   3.696   6.679   9.342
 6834ION    CL-10353   0.092   3.811   2.738
 6835ION    CL-10354   6.403   7.799   8.960
 6836ION    CL-10355   4.577   3.345   9.734
 6837ION    CL-10356   4.971   9.041   9.987
 6838ION    CL-10357   5.672   0.258   3.084
 6839ION    CL-10358   5.752   3.619   3.178
 6840ION    CL-10359   5.068   7.619   9.395
 6841ION    CL-10360   9.568   5.685   9.101
 6842ION    CL-10361   9.837   2.503   3.055
 6843ION    CL-10362   2.699   4.674  11.562
 6844ION    CL-10363   7.785   2.541  10.871
 6845ION    CL-10364   1.662   8.566   1.411
 6846ION    CL-10365   9.640   3.730   1.480
  10.00000  10.00000  12.00000
